FOO
135168
    1MOL0     O    1   1.292   5.268   5.509  0.3762  0.6057  0.1248
    1MOL0     C    2   1.314   5.152   5.476  0.3915 -0.3800  0.7388
    1MOL0     O    3   1.228   5.071   5.406 -0.3111  0.1810  0.5280
    1MOL0     C    4   1.102   5.115   5.397 -0.0007 -0.3047  0.4347
    1MOL0     C    5   1.026   5.105   5.518  0.6960  0.1911  0.2756
    1MOL0     C    6   0.890   5.142   5.511 -0.2584 -0.4551  0.7580
    1MOL0     C    7   0.835   5.204   5.395 -0.4392 -0.1052  0.5747
    1MOL0     O    8   0.708   5.252   5.388 -0.3210 -0.7480 -0.9380
    1MOL0     C    9   0.612   5.157   5.333 -0.6047 -0.8325 -0.4916
    1MOL0     C   10   0.480   5.233   5.297  0.2253  0.2417  0.5001
    1MOL0     C   11   0.360   5.158   5.247  0.4436 -0.4192  0.6632
    1MOL0     C   12   0.220   5.240   5.273  0.0881 -0.3760  0.1966
    1MOL0     C   13   0.095   5.174   5.222 -0.0937  0.2196  0.2561
    1MOL0     C   14  -0.030   5.253   5.270  0.3557 -0.4940  0.1116
    1MOL0     C   15  -0.152   5.168   5.253  0.1506  0.4256  0.4988
    1MOL0     C   16  -0.206   5.177   5.110  0.2067 -0.7313 -0.0683
    1MOL0     N   17  -0.346   5.136   5.110  0.6732  0.5627 -0.4285
    1MOL0     C   18  -0.451   5.197   5.045 -0.9636  0.5026  0.0616
    1MOL0     C   19  -0.555   5.104   5.053 -0.6565  0.7161  0.3945
    1MOL0     C   20  -0.679   5.111   4.970  1.0368 -0.0751 -0.1609
    1MOL0     C   21  -0.798   5.053   5.058 -0.3678  0.0562  0.2863
    1MOL0     C   22  -0.930   5.049   4.973 -0.1025 -0.5181 -0.4373
    1MOL0     C   23  -0.934   4.956   4.850 -0.4175  0.8270  0.4639
    1MOL0     O   24  -0.987   5.022   4.732  0.3723 -0.3331  0.2192
    1MOL0     C   25  -1.125   5.046   4.715 -0.5000  0.2232 -0.0474
    1MOL0     C   26  -1.161   5.139   4.610 -0.6141 -0.1837 -0.5350
    1MOL0     C   27  -1.299   5.165   4.599  0.6870 -1.1988  0.3533
    1MOL0     C   28  -1.399   5.098   4.676  0.4649 -0.6552  0.3185
    1MOL0     C   29  -1.545   5.118   4.658  0.0811  0.2283  0.0080
    1MOL0     O   30  -1.581   5.238   4.598 -0.1766 -0.2054  0.9046
    1MOL0     C   31  -1.705   5.255   4.553 -0.0684  0.4356 -0.4316
    1MOL0     C   32  -1.800   5.340   4.620 -0.7615 -0.0295 -0.3460
    1MOL0     C   33  -1.932   5.341   4.568 -0.7331 -0.2822  0.4052
    1MOL0     C   34  -1.965   5.289   4.443 -0.4611 -0.2862  0.2636
    1MOL0     O   35  -2.087   5.294   4.381  0.1998  0.1177 -0.0890
    1MOL0     C   36  -2.206   5.293   4.465  0.5360  0.7804 -1.0807
    1MOL0     C   37  -2.319   5.253   4.386 -0.1042  0.4896  0.2536
    1MOL0     C   38  -2.453   5.268   4.466  1.1763  0.2696 -0.8578
    1MOL0     C   39  -2.569   5.251   4.369 -0.0898  0.2495 -0.9314
    1MOL0     C   40  -2.690   5.226   4.452  1.2403  0.0925 -0.2899
    1MOL0     C   41  -2.728   5.335   4.557  0.3341 -0.1403 -1.2962
    1MOL0     C   42  -2.804   5.275   4.678  0.7707  1.1246  0.1628
    1MOL0     C   43  -2.880   5.379   4.763  0.0183  0.1734  1.0985
    1MOL0    Cl   44  -3.059   5.358   4.716  0.1931  0.4999 -0.4260
    1MOL0     C   45  -1.859   5.230   4.374  0.7094 -0.2554 -0.2907
    1MOL0     C   46  -1.726   5.211   4.425  1.0189 -0.7224  0.0870
    1MOL0     O   47  -1.625   5.024   4.688  0.0676 -0.0105  0.4244
    1MOL0     C   48  -1.356   5.001   4.779  0.6851  0.5554 -0.4460
    1MOL0     C   49  -1.219   4.988   4.800 -0.1407  0.4711  0.2109
    1MOL0     N   50  -0.514   5.000   5.129  0.3840  0.4801 -0.2041
    1MOL0     N   51  -0.392   5.015   5.152  0.0794  0.0435 -0.1675
    1MOL0     C   52   0.923   5.222   5.284  0.0931 -0.7220  0.3100
    1MOL0     C   53   1.051   5.168   5.275  0.1096 -0.3040 -0.2558
    1MOL0     C   54   1.455   5.107   5.504  0.0237 -0.4295  0.7704
    1MOL0     C   55   1.534   5.192   5.572  0.4290 -0.2613 -0.3503
    1MOL0     C   56   1.679   5.172   5.569  0.5003  0.1516 -0.0437
    1MOL0     C   57   1.728   5.056   5.510  0.0175 -0.9737  0.1383
    1MOL0     O   58   1.864   5.036   5.518  0.0938  0.9503 -0.0976
    1MOL0     C   59   1.925   4.918   5.462  0.0533  0.3679 -0.3091
    1MOL0     C   60   1.914   4.794   5.563 -0.6888  0.3744  0.3529
    1MOL0     C   61   2.020   4.693   5.506 -0.1943  0.3469  0.2457
    1MOL0     C   62   1.999   4.549   5.552  0.4212 -0.2688  0.1663
    1MOL0     C   63   1.873   4.493   5.491  0.1040  1.3811 -0.4026
    1MOL0     C   64   1.770   4.446   5.438 -0.4388 -0.3557 -0.0079
    1MOL0     C   65   1.637   4.957   5.460  0.4952  0.3656  0.0031
    1MOL0     C   66   1.505   4.987   5.463  0.5429 -0.1189 -0.6266
    1MOL0     H   67   1.054   5.046   5.605 -1.0452  1.1258  1.5395
    1MOL0     H   68   0.828   5.140   5.600 -0.4340  0.0075  0.6514
    1MOL0     H   69   0.578   5.095   5.417 -0.1733  2.8803  2.7644
    1MOL0     H   70   0.653   5.107   5.246  3.4926 -0.6985  1.1628
    1MOL0     H   71   0.505   5.317   5.230  1.6594  1.2456  2.2085
    1MOL0     H   72   0.446   5.287   5.386 -1.7945 -0.1987  0.0444
    1MOL0     H   73   0.353   5.059   5.292  0.6010 -0.9680 -0.5057
    1MOL0     H   74   0.371   5.134   5.141  3.5101 -2.7303  1.3623
    1MOL0     H   75   0.200   5.252   5.380 -0.2753 -1.0165  0.2056
    1MOL0     H   76   0.220   5.333   5.216 -1.9478 -0.0834  0.5776
    1MOL0     H   77   0.094   5.071   5.258  0.5531 -0.0815 -0.5689
    1MOL0     H   78   0.085   5.165   5.114 -0.5961  1.1746  0.2077
    1MOL0     H   79  -0.045   5.343   5.209 -0.9441  1.1122  2.6174
    1MOL0     H   80  -0.018   5.292   5.371 -0.6993 -1.0003  0.4421
    1MOL0     H   81  -0.139   5.064   5.285 -2.3508  0.2114  1.0168
    1MOL0     H   82  -0.234   5.194   5.321 -0.0850  1.5987 -0.2081
    1MOL0     H   83  -0.150   5.110   5.045  1.4636 -0.6467  0.8890
    1MOL0     H   84  -0.198   5.279   5.072  1.1043  0.2377  2.4994
    1MOL0     H   85  -0.449   5.292   4.991 -0.1734 -1.2368 -3.2828
    1MOL0     H   86  -0.665   5.052   4.879 -2.4252 -2.6165  0.7421
    1MOL0     H   87  -0.710   5.214   4.951 -0.3506 -0.5059 -0.3628
    1MOL0     H   88  -0.808   5.108   5.152  1.6209  1.6044 -0.3270
    1MOL0     H   89  -0.764   4.951   5.078  0.8035  0.2814 -0.4463
    1MOL0     H   90  -1.016   5.037   5.040 -0.5945  1.4655 -0.6497
    1MOL0     H   91  -0.949   5.150   4.936  1.0616  0.3334  1.1539
    1MOL0     H   92  -0.991   4.871   4.889 -0.7814  1.6200  1.7417
    1MOL0     H   93  -0.834   4.920   4.827  0.9297  3.7910  1.2648
    1MOL0     H   94  -1.090   5.192   4.547 -2.7931  2.3715 -1.0373
    1MOL0     H   95  -1.334   5.245   4.534  1.7619 -0.2953  0.8398
    1MOL0     H   96  -1.776   5.365   4.723 -0.6443 -1.9612  0.1386
    1MOL0     H   97  -2.003   5.400   4.625 -0.7458  0.8277 -0.7353
    1MOL0     H   98  -2.221   5.391   4.511 -2.9884  1.4139 -3.1841
    1MOL0     H   99  -2.202   5.214   4.539  0.7582  2.2824  0.5766
    1MOL0     H  100  -2.294   5.153   4.348 -0.3867  0.1470  0.9447
    1MOL0     H  101  -2.319   5.320   4.300  0.1740 -0.1362 -0.2447
    1MOL0     H  102  -2.455   5.371   4.504 -0.0902  0.3062 -0.9980
    1MOL0     H  103  -2.451   5.212   4.559 -0.1236  1.7719  0.1221
    1MOL0     H  104  -2.578   5.337   4.302  0.4440  0.2946 -0.9517
    1MOL0     H  105  -2.540   5.160   4.316  2.1987  0.9236 -0.9461
    1MOL0     H  106  -2.681   5.128   4.502  1.0439  0.4299  0.4199
    1MOL0     H  107  -2.777   5.210   4.388  1.9142 -1.1980 -0.9220
    1MOL0     H  108  -2.788   5.418   4.518 -1.8113 -1.0815 -0.2286
    1MOL0     H  109  -2.639   5.377   4.604 -0.2879 -0.5701  0.3413
    1MOL0     H  110  -2.849   5.179   4.650  1.8728  1.6607 -4.0646
    1MOL0     H  111  -2.722   5.244   4.744  0.1554 -1.9924 -0.3860
    1MOL0     H  112  -2.836   5.478   4.747 -1.0462  0.7327  1.4928
    1MOL0     H  113  -2.878   5.348   4.868 -1.2170 -2.2558  0.4845
    1MOL0     H  114  -1.883   5.199   4.272 -1.1629  0.5993 -0.1512
    1MOL0     H  115  -1.654   5.155   4.366  1.5210  0.2378 -0.2297
    1MOL0     H  116  -1.432   4.958   4.843 -1.3706  2.1219 -1.7303
    1MOL0     H  117  -1.185   4.929   4.884 -0.3472  2.0506  1.4543
    1MOL0     H  118   0.883   5.288   5.208 -0.0588 -0.8640  0.2645
    1MOL0     H  119   1.122   5.206   5.202  1.1041  0.6687  1.1713
    1MOL0     H  120   1.503   5.285   5.617  0.4210  0.3893 -1.6451
    1MOL0     H  121   1.748   5.244   5.610  1.5763  0.8697 -2.8870
    1MOL0     H  122   2.030   4.945   5.447 -0.4798  1.3448 -2.8737
    1MOL0     H  123   1.889   4.899   5.361  1.4330 -1.1283 -0.5549
    1MOL0     H  124   1.941   4.816   5.666 -1.2644 -0.2639  0.6471
    1MOL0     H  125   1.814   4.752   5.544  0.4396 -2.6481  0.5182
    1MOL0     H  126   2.118   4.731   5.538 -0.0760  1.3188 -1.1613
    1MOL0     H  127   2.010   4.692   5.397 -2.0940  1.3378  0.3691
    1MOL0     H  128   2.083   4.484   5.524 -0.2281 -1.8970  1.7726
    1MOL0     H  129   2.004   4.547   5.661 -1.9962 -1.5344  0.3054
    1MOL0     H  130   1.681   4.414   5.388 -1.4960  0.7115  1.1141
    1MOL0     H  131   1.660   4.853   5.440  0.5718 -0.0194  1.8698
    1MOL0     H  132   1.438   4.914   5.417 -0.4285 -0.2879  0.9808
    2MOL0     O  133   7.301   7.548   7.571 -0.2660  0.6800 -0.1291
    2MOL0     C  134   7.393   7.489   7.624 -0.4850 -0.0553 -0.2000
    2MOL0     O  135   7.386   7.434   7.739  0.0511  0.1348 -0.8405
    2MOL0     C  136   7.266   7.417   7.795  0.5642 -0.4400 -1.1833
    2MOL0     C  137   7.175   7.333   7.739  0.3144  0.1095 -0.3744
    2MOL0     C  138   7.046   7.318   7.793 -0.0451  0.2566 -0.1130
    2MOL0     C  139   7.001   7.379   7.910  0.4622  0.6226  0.3800
    2MOL0     O  140   6.872   7.365   7.959  0.2181  1.0503 -0.6712
    2MOL0     C  141   6.798   7.485   7.979 -0.0497  0.1828 -0.2111
    2MOL0     C  142   6.813   7.600   7.869 -0.1546 -0.1028 -0.3449
    2MOL0     C  143   6.744   7.575   7.738  1.0432  0.2569 -0.2319
    2MOL0     C  144   6.772   7.693   7.634 -0.1034 -0.1276  0.3374
    2MOL0     C  145   6.750   7.656   7.488  1.4736  0.6575  0.2521
    2MOL0     C  146   6.620   7.591   7.449 -0.7806  0.1928 -0.2118
    2MOL0     C  147   6.502   7.684   7.473  0.7916 -0.5706  0.3866
    2MOL0     C  148   6.499   7.817   7.407 -0.3598  0.3769  0.0051
    2MOL0     N  149   6.368   7.893   7.412 -0.0331  0.1121 -0.4262
    2MOL0     C  150   6.356   8.022   7.450 -0.3973  0.4471 -0.4279
    2MOL0     C  151   6.231   8.059   7.432 -0.5852  0.1072  0.0951
    2MOL0     C  152   6.191   8.201   7.439  0.8760 -0.0197 -0.1070
    2MOL0     C  153   6.078   8.209   7.536  0.8447  0.0445 -0.7087
    2MOL0     C  154   6.049   8.348   7.576 -0.9311 -0.5712 -0.3516
    2MOL0     C  155   6.013   8.443   7.464 -0.7011  0.1629 -0.7286
    2MOL0     O  156   5.878   8.417   7.412 -0.1909  0.5001 -0.6349
    2MOL0     C  157   5.771   8.458   7.477  0.3031 -0.3125 -0.2607
    2MOL0     C  158   5.670   8.356   7.481 -1.1305 -0.8425  0.4495
    2MOL0     C  159   5.545   8.386   7.542 -0.4214  0.0276  0.4959
    2MOL0     C  160   5.531   8.503   7.612  0.3610 -0.1872 -0.5400
    2MOL0     C  161   5.408   8.513   7.689  0.0430 -0.9581 -0.2181
    2MOL0     O  162   5.417   8.606   7.797  0.4794  0.0704  0.3213
    2MOL0     C  163   5.308   8.630   7.874 -0.5242 -0.0623  0.3638
    2MOL0     C  164   5.250   8.760   7.874 -1.6323  0.0698  0.3788
    2MOL0     C  165   5.134   8.788   7.945 -0.2640 -0.8810  0.6227
    2MOL0     C  166   5.075   8.680   8.016 -0.1020  0.0166 -0.8831
    2MOL0     O  167   4.963   8.717   8.076 -0.1834 -0.7036 -0.6475
    2MOL0     C  168   4.861   8.622   8.084  1.1260  0.1676 -0.4232
    2MOL0     C  169   4.736   8.703   8.138 -0.5582 -0.0255 -0.3848
    2MOL0     C  170   4.604   8.645   8.088  0.3238 -1.0568  0.0321
    2MOL0     C  171   4.475   8.717   8.135 -0.8118  0.1213  0.0666
    2MOL0     C  172   4.364   8.629   8.092  0.2944 -0.5149 -0.2768
    2MOL0     C  173   4.223   8.690   8.121 -0.5332  0.6313 -0.0591
    2MOL0     C  174   4.111   8.615   8.044 -0.4296  0.2695 -0.0219
    2MOL0     C  175   4.085   8.463   8.065  0.0213 -0.0740 -0.2196
    2MOL0    Cl  176   3.944   8.402   7.989  0.2434  0.3641  0.0030
    2MOL0     C  177   5.134   8.549   8.014  0.2466 -0.6457 -0.1802
    2MOL0     C  178   5.248   8.526   7.947 -0.1530 -0.5595  0.1428
    2MOL0     O  179   5.309   8.448   7.658 -0.4891  0.3349 -0.4296
    2MOL0     C  180   5.640   8.595   7.618  0.0213  0.2185 -0.3758
    2MOL0     C  181   5.751   8.571   7.548  0.1589 -0.5482  0.1741
    2MOL0     N  182   6.165   7.942   7.382  0.2365  0.1602 -0.5637
    2MOL0     N  183   6.251   7.850   7.379 -0.1156  0.3011  0.7455
    2MOL0     C  184   7.091   7.462   7.965 -0.8610 -0.2876  0.6268
    2MOL0     C  185   7.215   7.487   7.912 -0.1272  0.9425  0.1095
    2MOL0     C  186   7.532   7.493   7.571 -0.7350  0.9249 -0.6248
    2MOL0     C  187   7.650   7.446   7.648  0.7310 -0.5087  0.3333
    2MOL0     C  188   7.777   7.437   7.591  0.1188  0.1064  0.4213
    2MOL0     C  189   7.796   7.491   7.459  0.5448 -0.1232 -0.6837
    2MOL0     O  190   7.922   7.495   7.427  0.1905  0.2982  0.1706
    2MOL0     C  191   7.961   7.554   7.306  0.1196  0.7644  0.5552
    2MOL0     C  192   8.110   7.568   7.281  1.1944 -0.8774 -0.1437
    2MOL0     C  193   8.172   7.631   7.406 -0.7503 -0.1517 -0.2241
    2MOL0     C  194   8.316   7.672   7.373 -0.7673  0.2381 -0.1699
    2MOL0     C  195   8.379   7.765   7.466  0.7702  0.1660  0.3224
    2MOL0     C  196   8.443   7.846   7.530 -0.1042 -0.7211  0.6761
    2MOL0     C  197   7.692   7.542   7.383  0.4281  0.6720 -0.4791
    2MOL0     C  198   7.561   7.539   7.444 -1.0907 -0.2979  0.1457
    2MOL0     H  199   7.207   7.288   7.646  1.5355  3.7093 -1.8721
    2MOL0     H  200   6.978   7.261   7.730  0.3827 -0.1143 -0.2440
    2MOL0     H  201   6.823   7.527   8.077 -1.8032 -0.9682  0.7797
    2MOL0     H  202   6.695   7.458   8.001  0.6467 -5.2778 -2.1451
    2MOL0     H  203   6.917   7.634   7.861 -0.6256  2.1193  1.6542
    2MOL0     H  204   6.767   7.692   7.907  0.6708 -0.3955  1.4385
    2MOL0     H  205   6.638   7.552   7.757  1.7064 -0.6824  2.9774
    2MOL0     H  206   6.781   7.485   7.689 -1.8169  0.1165 -2.4202
    2MOL0     H  207   6.705   7.776   7.661 -0.2664  0.4149 -1.5658
    2MOL0     H  208   6.880   7.708   7.642 -0.0808  0.4772 -0.7752
    2MOL0     H  209   6.828   7.586   7.456  0.3320 -0.4959 -0.1179
    2MOL0     H  210   6.757   7.746   7.426  2.3994  0.8278  0.5872
    2MOL0     H  211   6.596   7.495   7.497  2.2253 -2.0013 -2.6776
    2MOL0     H  212   6.630   7.557   7.345  0.6923 -3.1344  0.8695
    2MOL0     H  213   6.414   7.628   7.439  0.1658 -2.7148  4.8235
    2MOL0     H  214   6.488   7.715   7.577 -0.8046  4.5737 -1.0466
    2MOL0     H  215   6.520   7.803   7.301  0.9500  4.3333 -0.3886
    2MOL0     H  216   6.578   7.883   7.445  0.5542 -0.4833 -0.3528
    2MOL0     H  217   6.436   8.082   7.491  1.7141 -3.3432  1.5613
    2MOL0     H  218   6.162   8.229   7.338  3.5062  4.9033  0.2107
    2MOL0     H  219   6.276   8.260   7.475  0.0775  0.4754  1.0262
    2MOL0     H  220   6.104   8.165   7.632 -0.0721  1.9360  0.4783
    2MOL0     H  221   5.992   8.163   7.487  0.1613  0.1755  0.3252
    2MOL0     H  222   5.975   8.352   7.656  2.0463  1.7011  2.5666
    2MOL0     H  223   6.144   8.376   7.622 -2.5346  1.5166  2.0189
    2MOL0     H  224   6.085   8.431   7.383  0.5970 -4.2853  0.7931
    2MOL0     H  225   6.020   8.548   7.493  1.9274 -0.0333 -0.4029
    2MOL0     H  226   5.693   8.259   7.439 -0.1114 -1.5826  2.5431
    2MOL0     H  227   5.464   8.312   7.541 -1.7126  1.3619  1.5833
    2MOL0     H  228   5.308   8.842   7.831  0.7753 -0.7030  1.9088
    2MOL0     H  229   5.075   8.880   7.942 -0.1451 -0.8107 -1.7235
    2MOL0     H  230   4.883   8.532   8.142 -0.0195 -0.7772 -1.3947
    2MOL0     H  231   4.817   8.606   7.985 -2.5811  3.0979  0.5418
    2MOL0     H  232   4.738   8.803   8.096 -2.1459 -1.4854 -4.3675
    2MOL0     H  233   4.747   8.701   8.247  0.7318  0.3994 -0.4921
    2MOL0     H  234   4.603   8.545   8.131 -0.2052 -0.2769  1.9241
    2MOL0     H  235   4.609   8.637   7.979 -0.1691 -0.0860 -0.0742
    2MOL0     H  236   4.479   8.731   8.243  2.0521  1.7742 -0.1461
    2MOL0     H  237   4.469   8.811   8.079 -2.8505  0.4022  0.6868
    2MOL0     H  238   4.358   8.531   8.140 -3.2355 -1.7001 -2.6808
    2MOL0     H  239   4.376   8.605   7.986  2.3692 -0.3150 -0.1204
    2MOL0     H  240   4.225   8.798   8.102  0.6695  0.7336  0.5442
    2MOL0     H  241   4.196   8.667   8.224 -3.2028 -0.2975 -0.8708
    2MOL0     H  242   4.016   8.669   8.051 -1.2069 -1.1115  0.5259
    2MOL0     H  243   4.136   8.627   7.938 -3.2155  2.4909 -0.5421
    2MOL0     H  244   4.064   8.442   8.170 -0.3221  1.4861  0.0456
    2MOL0     H  245   4.175   8.408   8.037  0.5917  0.6337  0.2083
    2MOL0     H  246   5.075   8.464   8.048 -0.1444 -0.4401 -0.3270
    2MOL0     H  247   5.295   8.433   7.916  1.5492 -1.1872  4.0582
    2MOL0     H  248   5.639   8.682   7.684 -1.0468  2.2179 -2.8273
    2MOL0     H  249   5.838   8.634   7.564  0.2190 -0.6328  0.1791
    2MOL0     H  250   7.070   7.516   8.056 -1.4746 -0.2022  0.4462
    2MOL0     H  251   7.288   7.554   7.957  1.1675 -0.2901 -0.0890
    2MOL0     H  252   7.639   7.411   7.750  0.6090  0.7298  0.7660
    2MOL0     H  253   7.857   7.405   7.656 -1.1389 -0.4172  1.7863
    2MOL0     H  254   7.935   7.660   7.307 -1.1745  0.4685  0.8583
    2MOL0     H  255   7.927   7.498   7.218  0.1884  3.3603 -1.2268
    2MOL0     H  256   8.153   7.469   7.264 -0.2694 -1.7068  0.8087
    2MOL0     H  257   8.132   7.630   7.194  2.4080 -1.2510 -0.1236
    2MOL0     H  258   8.150   7.566   7.491 -0.1534 -1.2817 -0.9116
    2MOL0     H  259   8.108   7.718   7.424 -1.2311 -0.2208 -1.4745
    2MOL0     H  260   8.361   7.573   7.363 -2.0493 -0.4823  0.8269
    2MOL0     H  261   8.332   7.726   7.280  3.0089  0.5566  0.5265
    2MOL0     H  262   8.483   7.929   7.585  0.6174  0.1622 -1.0810
    2MOL0     H  263   7.713   7.581   7.284  1.0515 -0.8849 -0.9945
    2MOL0     H  264   7.491   7.578   7.371 -0.4173  0.0870 -0.3089
    3MOL0     O  265   2.530   3.710   4.190 -0.2031 -1.0353 -0.5849
    3MOL0     C  266   2.536   3.791   4.097  0.2058 -0.2671  0.3935
    3MOL0     O  267   2.427   3.818   4.021 -0.7626  0.2062 -0.1631
    3MOL0     C  268   2.310   3.743   4.034  0.1770  0.2445  0.1096
    3MOL0     C  269   2.197   3.809   4.087  0.3544  0.2626  0.3545
    3MOL0     C  270   2.075   3.742   4.086 -0.3449 -0.5809  0.3018
    3MOL0     C  271   2.067   3.611   4.034  0.6980  0.9080 -0.3335
    3MOL0     O  272   1.950   3.541   4.030  0.6929  0.4428 -0.1735
    3MOL0     C  273   1.824   3.594   4.079 -0.4305  0.5739 -0.3016
    3MOL0     C  274   1.711   3.489   4.075 -0.4574 -0.7691 -0.3374
    3MOL0     C  275   1.614   3.515   4.188 -0.0730 -0.1618 -0.4317
    3MOL0     C  276   1.480   3.454   4.163 -0.8495 -0.3213 -0.0328
    3MOL0     C  277   1.366   3.498   4.249 -0.1167  0.5893  0.7093
    3MOL0     C  278   1.378   3.439   4.398  0.1681  0.0612 -0.3957
    3MOL0     C  279   1.258   3.459   4.487 -1.0502  0.6138  0.7540
    3MOL0     C  280   1.283   3.422   4.629  0.1017  0.5322 -0.0203
    3MOL0     N  281   1.160   3.428   4.714 -0.5762  0.1187 -0.3005
    3MOL0     C  282   1.072   3.328   4.742 -0.5391 -0.4311  1.0154
    3MOL0     C  283   0.983   3.381   4.827 -0.0791 -0.3984 -0.0785
    3MOL0     C  284   0.862   3.306   4.884  0.3604 -0.2882 -1.1073
    3MOL0     C  285   0.754   3.268   4.793  0.4010  0.0797  0.3215
    3MOL0     C  286   0.677   3.386   4.734 -0.3625  0.3750  0.2760
    3MOL0     C  287   0.571   3.445   4.838  0.5659  0.6591 -0.1505
    3MOL0     O  288   0.508   3.560   4.786  0.3166  0.3196 -0.8200
    3MOL0     C  289   0.379   3.570   4.832  0.4542 -0.3979 -0.0352
    3MOL0     C  290   0.344   3.578   4.965 -0.7329 -0.6339  0.3158
    3MOL0     C  291   0.213   3.591   5.012 -0.4696  0.9939 -0.2625
    3MOL0     C  292   0.109   3.565   4.919 -0.4998  0.7993 -0.3848
    3MOL0     C  293  -0.025   3.559   4.983 -1.2563 -0.7635  0.7601
    3MOL0     O  294  -0.029   3.582   5.114  0.0534 -0.3912 -0.4491
    3MOL0     C  295  -0.145   3.576   5.181  0.3764 -0.3040  0.9934
    3MOL0     C  296  -0.227   3.683   5.180  0.2357 -0.7203  1.1237
    3MOL0     C  297  -0.346   3.682   5.261 -0.8433  0.1571 -0.0982
    3MOL0     C  298  -0.384   3.573   5.341 -0.4427  0.2517  0.4255
    3MOL0     O  299  -0.504   3.556   5.401 -0.3581 -0.0972  0.4362
    3MOL0     C  300  -0.578   3.674   5.436 -0.3518 -0.8208 -0.3304
    3MOL0     C  301  -0.702   3.628   5.521  0.5843 -0.7665  0.3114
    3MOL0     C  302  -0.795   3.739   5.565 -0.2558 -0.2375  0.5412
    3MOL0     C  303  -0.927   3.691   5.628 -0.5377  1.2151  0.3231
    3MOL0     C  304  -1.028   3.804   5.642 -0.3897  1.0827  0.7475
    3MOL0     C  305  -1.169   3.759   5.690 -0.6669 -0.5032 -0.0692
    3MOL0     C  306  -1.174   3.728   5.841 -0.5809 -1.3539 -0.3869
    3MOL0     C  307  -1.316   3.716   5.898 -0.6444 -0.4355  0.2747
    3MOL0    Cl  308  -1.406   3.605   5.791  0.4843 -0.0703  0.5659
    3MOL0     C  309  -0.295   3.468   5.331 -0.7684  0.4594 -0.2459
    3MOL0     C  310  -0.181   3.462   5.255  0.2579 -0.0064 -0.4797
    3MOL0     O  311  -0.122   3.551   4.904 -0.8981 -0.4285  0.4414
    3MOL0     C  312   0.140   3.551   4.779 -0.6030  0.3861 -0.3712
    3MOL0     C  313   0.276   3.561   4.738  0.7323  0.1489  0.5465
    3MOL0     N  314   1.027   3.500   4.869  0.3738  0.7213 -0.5886
    3MOL0     N  315   1.127   3.535   4.793  0.8619 -0.3485  0.0834
    3MOL0     C  316   2.180   3.542   3.994 -0.4216 -0.1067  1.5544
    3MOL0     C  317   2.297   3.614   3.978 -0.1103 -0.1038  0.0810
    3MOL0     C  318   2.663   3.866   4.057 -0.3821 -0.2731  0.7237
    3MOL0     C  319   2.665   3.955   3.944  0.2139 -0.6886 -0.0267
    3MOL0     C  320   2.790   4.015   3.904 -0.1207  0.2895  0.0251
    3MOL0     C  321   2.911   3.991   3.986  0.0148  0.3743 -0.7088
    3MOL0     O  322   3.040   4.040   3.957  0.1739  0.0466 -0.1094
    3MOL0     C  323   3.096   4.145   4.038 -0.0964  0.3968 -0.8088
    3MOL0     C  324   3.120   4.275   3.958  0.4080 -0.2025  0.8051
    3MOL0     C  325   3.144   4.403   4.041  0.3089 -0.0309  0.4284
    3MOL0     C  326   3.251   4.383   4.148 -1.1639  0.4434  0.5194
    3MOL0     C  327   3.381   4.336   4.102  0.5895 -0.7165 -0.2919
    3MOL0     C  328   3.493   4.306   4.061  0.0150 -0.3287  1.2632
    3MOL0     C  329   2.890   3.925   4.110  0.1059  0.2802  0.6162
    3MOL0     C  330   2.773   3.864   4.140 -0.3008 -1.1662  0.2241
    3MOL0     H  331   2.204   3.913   4.117  4.2222 -0.0262  1.0245
    3MOL0     H  332   1.985   3.792   4.122 -1.0727 -0.0675 -2.0272
    3MOL0     H  333   1.796   3.678   4.014 -0.1336  2.9629  2.4674
    3MOL0     H  334   1.844   3.635   4.178  4.0172  0.9539 -1.1532
    3MOL0     H  335   1.750   3.387   4.076 -2.0940 -1.5614 -3.8462
    3MOL0     H  336   1.672   3.489   3.973 -2.8654 -1.2012  0.5356
    3MOL0     H  337   1.598   3.623   4.184 -0.7880 -0.2799 -2.6991
    3MOL0     H  338   1.662   3.481   4.280  1.2812  0.5757 -0.8500
    3MOL0     H  339   1.453   3.483   4.061 -1.5254  2.9440  0.9686
    3MOL0     H  340   1.494   3.346   4.156  0.7647 -0.1223 -0.2013
    3MOL0     H  341   1.278   3.447   4.209  0.1558  0.5017  0.2127
    3MOL0     H  342   1.337   3.603   4.240  3.1173  1.5757  0.4462
    3MOL0     H  343   1.462   3.485   4.450  0.9736 -2.4422  0.6438
    3MOL0     H  344   1.399   3.332   4.399  2.5685  0.4816 -0.5105
    3MOL0     H  345   1.225   3.563   4.476  2.7899  2.0365  1.3174
    3MOL0     H  346   1.178   3.391   4.454  1.2476 -0.5805 -2.9435
    3MOL0     H  347   1.353   3.500   4.662 -1.5235  1.3340  1.7015
    3MOL0     H  348   1.329   3.324   4.648  1.2395  1.3724  1.9080
    3MOL0     H  349   1.077   3.231   4.694 -1.2984  1.4588 -3.3458
    3MOL0     H  350   0.807   3.356   4.963  0.2188 -1.3911 -0.4865
    3MOL0     H  351   0.901   3.215   4.931 -1.8860 -0.6266  0.2445
    3MOL0     H  352   0.692   3.184   4.826  1.8378 -0.9910  0.3517
    3MOL0     H  353   0.810   3.219   4.712 -0.3932 -1.3755  0.6045
    3MOL0     H  354   0.748   3.463   4.704  1.9735 -1.8401 -0.2456
    3MOL0     H  355   0.619   3.346   4.651 -0.1531  0.0007  0.3065
    3MOL0     H  356   0.622   3.478   4.929  1.8474 -0.2239 -0.5155
    3MOL0     H  357   0.504   3.364   4.871  1.4803  0.7499  2.0566
    3MOL0     H  358   0.419   3.599   5.041 -0.5903  1.5032 -0.3389
    3MOL0     H  359   0.208   3.584   5.120  0.3359  0.1473 -0.2700
    3MOL0     H  360  -0.211   3.773   5.121 -4.0475 -0.8111 -0.5324
    3MOL0     H  361  -0.411   3.769   5.253 -0.8611  0.0187 -1.9359
    3MOL0     H  362  -0.628   3.730   5.356 -1.2205 -0.3527  0.5245
    3MOL0     H  363  -0.514   3.735   5.501  0.4209 -3.1032  1.1530
    3MOL0     H  364  -0.664   3.569   5.605  0.6575 -0.5577  0.4248
    3MOL0     H  365  -0.760   3.557   5.461 -0.4233  0.0457  0.2878
    3MOL0     H  366  -0.818   3.802   5.479 -1.1889 -1.3025 -0.0132
    3MOL0     H  367  -0.733   3.795   5.636  2.1111  1.5592 -2.6675
    3MOL0     H  368  -0.967   3.609   5.567  0.5310  2.3955 -2.1057
    3MOL0     H  369  -0.902   3.663   5.731 -1.6909  0.1598  0.3387
    3MOL0     H  370  -1.040   3.858   5.547 -2.4290  1.1221  0.9920
    3MOL0     H  371  -0.982   3.878   5.708 -0.3243  0.7654  1.0602
    3MOL0     H  372  -1.212   3.677   5.632 -0.4797 -0.7824  0.1844
    3MOL0     H  373  -1.231   3.848   5.677  1.0099  1.3422  3.2446
    3MOL0     H  374  -1.123   3.632   5.847  1.9951 -0.2706 -2.6214
    3MOL0     H  375  -1.109   3.804   5.887  0.4886 -4.0979  3.0772
    3MOL0     H  376  -1.367   3.812   5.911  1.2162  1.2003 -3.1346
    3MOL0     H  377  -1.297   3.683   6.001 -1.7451  2.4286  1.4953
    3MOL0     H  378  -0.313   3.373   5.381 -1.6290  0.0596 -1.2860
    3MOL0     H  379  -0.127   3.369   5.271  0.5613  0.4348  1.2806
    3MOL0     H  380   0.057   3.524   4.714 -0.4653 -0.5257 -0.1793
    3MOL0     H  381   0.303   3.540   4.635  0.8821 -2.2877  1.0109
    3MOL0     H  382   2.182   3.437   3.965  3.1675  0.3216 -0.2716
    3MOL0     H  383   2.390   3.565   3.949  0.5433 -0.0312  1.9357
    3MOL0     H  384   2.576   3.976   3.886  0.0444  3.8238  1.4860
    3MOL0     H  385   2.808   4.074   3.815 -0.5369  2.8879  1.5587
    3MOL0     H  386   3.189   4.111   4.084  1.5052  3.9801 -1.0752
    3MOL0     H  387   3.029   4.170   4.121 -0.7595  0.3654 -1.3224
    3MOL0     H  388   3.204   4.255   3.891 -1.3771 -0.9116 -1.3218
    3MOL0     H  389   3.024   4.279   3.907  1.2958  0.1172 -0.9173
    3MOL0     H  390   3.051   4.447   4.077 -0.1040  0.7733 -1.4655
    3MOL0     H  391   3.180   4.473   3.965 -2.0604 -2.4620 -3.2959
    3MOL0     H  392   3.262   4.477   4.202  1.9819  0.7026 -0.3567
    3MOL0     H  393   3.212   4.306   4.215 -0.6695 -0.3694 -0.1003
    3MOL0     H  394   3.590   4.280   4.027 -0.8644 -0.4421 -1.3693
    3MOL0     H  395   2.972   3.917   4.182 -0.7562 -1.2139  1.4751
    3MOL0     H  396   2.764   3.809   4.233  1.0710 -1.2538  0.3257
    4MOL0     O  397   5.983   4.403   2.423  0.4217  0.7241  0.1526
    4MOL0     C  398   6.041   4.293   2.421 -0.3339  1.1505  0.0088
    4MOL0     O  399   5.989   4.174   2.375 -0.5350 -0.2315 -0.1676
    4MOL0     C  400   5.862   4.150   2.337  0.5112  0.0798  0.8490
    4MOL0     C  401   5.751   4.195   2.418 -0.7677  0.1370 -0.1791
    4MOL0     C  402   5.618   4.168   2.394 -0.0428  0.0183 -0.3665
    4MOL0     C  403   5.596   4.095   2.282  0.4841  0.1105  0.0995
    4MOL0     O  404   5.470   4.069   2.243 -0.2547 -0.4066 -0.3131
    4MOL0     C  405   5.379   4.010   2.331 -0.7280  0.7858  0.1704
    4MOL0     C  406   5.302   3.922   2.240 -0.6423  0.9895  0.2909
    4MOL0     C  407   5.219   3.814   2.307  0.7415 -0.6587  0.0342
    4MOL0     C  408   5.182   3.707   2.222  0.0955  0.2428  0.2138
    4MOL0     C  409   5.084   3.600   2.276 -0.9691  0.2756 -0.6920
    4MOL0     C  410   5.088   3.481   2.181 -0.9604 -0.0946  0.2902
    4MOL0     C  411   4.961   3.407   2.169  0.3721 -0.1367 -0.1227
    4MOL0     C  412   4.908   3.354   2.302  0.8155 -0.1954  0.0037
    4MOL0     N  413   4.773   3.294   2.271 -0.0529 -0.0834 -0.1765
    4MOL0     C  414   4.670   3.355   2.207  1.2904  0.4880  0.3710
    4MOL0     C  415   4.579   3.255   2.180 -1.0915 -0.6302 -0.5567
    4MOL0     C  416   4.465   3.272   2.090 -0.1290  0.1725 -0.8850
    4MOL0     C  417   4.488   3.370   1.970 -0.0669  0.3707 -0.1648
    4MOL0     C  418   4.382   3.361   1.863  0.2607  0.4758 -0.0371
    4MOL0     C  419   4.238   3.346   1.909 -0.1951 -0.3950  0.2023
    4MOL0     O  420   4.185   3.477   1.941  0.1131  0.3197  0.2572
    4MOL0     C  421   4.057   3.480   1.987 -0.0466 -0.2269 -0.7575
    4MOL0     C  422   3.946   3.432   1.925 -0.7981 -0.5718 -0.2069
    4MOL0     C  423   3.815   3.436   1.979  0.1319 -0.8792 -0.7450
    4MOL0     C  424   3.800   3.509   2.105 -0.2334  0.1704 -0.5340
    4MOL0     C  425   3.664   3.541   2.155  0.4407 -0.2944  0.8245
    4MOL0     O  426   3.562   3.460   2.120 -0.0225  0.1737 -0.3433
    4MOL0     C  427   3.433   3.504   2.124 -0.0174  0.1913  0.0776
    4MOL0     C  428   3.372   3.508   2.001  0.0304  0.3140  0.0656
    4MOL0     C  429   3.242   3.555   1.991  0.6642  0.6314  0.0912
    4MOL0     C  430   3.165   3.602   2.100 -0.4517 -0.0275  0.0971
    4MOL0     O  431   3.031   3.638   2.088  0.5085  0.2441  0.0621
    4MOL0     C  432   2.950   3.552   2.002  0.2960 -0.4839 -0.4307
    4MOL0     C  433   2.799   3.564   2.038 -0.2723  0.2150 -0.3204
    4MOL0     C  434   2.748   3.699   1.977  0.9238  0.2242 -1.5516
    4MOL0     C  435   2.599   3.689   2.009 -0.4374 -0.4346 -0.6338
    4MOL0     C  436   2.512   3.782   1.928  0.4751  0.0457 -0.2080
    4MOL0     C  437   2.532   3.929   1.938  0.2465 -0.0970 -0.5773
    4MOL0     C  438   2.449   4.006   1.835 -0.2341  0.1914 -0.1210
    4MOL0     C  439   2.496   3.990   1.689  0.6003  0.3010 -0.5097
    4MOL0    Cl  440   2.384   3.884   1.606 -0.0560 -0.0349 -0.1690
    4MOL0     C  441   3.231   3.603   2.233 -0.6680 -0.5049 -0.1320
    4MOL0     C  442   3.366   3.549   2.240 -0.3780  0.8610 -0.0442
    4MOL0     O  443   3.656   3.626   2.239  0.3678 -0.2129 -0.6998
    4MOL0     C  444   3.914   3.562   2.164  0.0119  0.2399  0.3786
    4MOL0     C  445   4.043   3.549   2.107  0.0215  0.3157  0.2986
    4MOL0     N  446   4.635   3.135   2.221  0.1596 -0.5087 -0.3939
    4MOL0     N  447   4.747   3.161   2.273  0.0180 -0.0463 -0.5681
    4MOL0     C  448   5.701   4.054   2.194  0.2054 -0.9944  0.1848
    4MOL0     C  449   5.836   4.081   2.218 -0.3426  0.0530 -0.0645
    4MOL0     C  450   6.176   4.296   2.490  0.7843 -0.3207  1.0443
    4MOL0     C  451   6.265   4.406   2.468  0.8998 -0.4679 -0.4102
    4MOL0     C  452   6.384   4.424   2.536 -0.6038 -0.4899 -0.1320
    4MOL0     C  453   6.419   4.334   2.625  0.5566 -0.0376  0.1399
    4MOL0     O  454   6.539   4.351   2.686 -0.7026  0.2859  1.0001
    4MOL0     C  455   6.577   4.259   2.788 -0.2175 -0.1164  0.6523
    4MOL0     C  456   6.693   4.312   2.869 -0.3902  0.3026 -0.8498
    4MOL0     C  457   6.818   4.366   2.786  0.3984 -0.2505  0.3779
    4MOL0     C  458   6.880   4.248   2.708 -0.0338  0.7977 -0.4915
    4MOL0     C  459   7.005   4.293   2.650 -0.1347  0.6937 -0.1257
    4MOL0     C  460   7.101   4.346   2.594 -0.1736  0.3936 -0.0138
    4MOL0     C  461   6.343   4.217   2.645 -0.2458 -1.1135  0.1839
    4MOL0     C  462   6.221   4.199   2.572  0.0430  0.1098 -0.4786
    4MOL0     H  463   5.764   4.250   2.510 -1.7740  1.5772 -0.8630
    4MOL0     H  464   5.538   4.203   2.459  0.7686  1.5813 -0.1432
    4MOL0     H  465   5.321   4.082   2.389 -0.1165  0.1850  1.5640
    4MOL0     H  466   5.431   3.944   2.400  1.4240  0.6818 -1.4593
    4MOL0     H  467   5.371   3.862   2.179 -1.2780  1.2589 -0.7204
    4MOL0     H  468   5.245   3.982   2.169  1.0712  1.8774 -0.4090
    4MOL0     H  469   5.133   3.865   2.352  0.7007  1.8684 -2.6278
    4MOL0     H  470   5.284   3.764   2.380  0.6762  0.8181  1.1599
    4MOL0     H  471   5.132   3.757   2.138  0.7950  0.7164  0.0732
    4MOL0     H  472   5.280   3.668   2.192  0.6072  1.4035  0.3039
    4MOL0     H  473   4.980   3.627   2.292 -0.7781  1.3601 -1.1669
    4MOL0     H  474   5.124   3.562   2.370 -0.8559 -0.9378 -1.2189
    4MOL0     H  475   5.182   3.427   2.200 -1.1928 -1.1199 -1.2645
    4MOL0     H  476   5.090   3.531   2.084  1.1983  4.5431  2.3892
    4MOL0     H  477   4.892   3.483   2.131  1.6994  1.3412  0.3198
    4MOL0     H  478   4.969   3.318   2.106 -0.6211  0.8778 -1.7557
    4MOL0     H  479   4.876   3.428   2.376 -0.0206 -0.6625  0.1260
    4MOL0     H  480   4.979   3.283   2.348  2.3110  1.5528  0.5019
    4MOL0     H  481   4.654   3.460   2.185  1.7522 -0.2377 -4.6954
    4MOL0     H  482   4.376   3.301   2.146  0.3552  2.0671 -1.0323
    4MOL0     H  483   4.444   3.175   2.044  0.5031 -2.6631  4.0411
    4MOL0     H  484   4.583   3.351   1.918 -0.5869 -1.8721 -0.3790
    4MOL0     H  485   4.493   3.473   2.007 -2.6282  0.8848 -1.0796
    4MOL0     H  486   4.392   3.442   1.791 -1.4203  0.6559 -0.1224
    4MOL0     H  487   4.399   3.266   1.811 -1.8620  1.3241 -2.4998
    4MOL0     H  488   4.238   3.286   2.001  1.9235  0.7884  1.0460
    4MOL0     H  489   4.186   3.299   1.825 -2.0134  1.4979  0.1955
    4MOL0     H  490   3.969   3.392   1.827  0.3280  2.7359 -1.4354
    4MOL0     H  491   3.733   3.387   1.928 -0.5021 -1.7149  1.0288
    4MOL0     H  492   3.425   3.484   1.909 -0.0410 -0.8923  0.3271
    4MOL0     H  493   3.192   3.547   1.895  0.4844 -3.8289  0.3632
    4MOL0     H  494   2.982   3.447   2.007  1.7518 -0.0372  0.2819
    4MOL0     H  495   2.956   3.579   1.896 -1.1464  0.0926 -0.3846
    4MOL0     H  496   2.779   3.560   2.146  0.7888  1.6149 -0.0450
    4MOL0     H  497   2.752   3.480   1.986  2.3418 -0.2078 -2.2133
    4MOL0     H  498   2.757   3.700   1.868 -4.0975 -0.2962 -2.2313
    4MOL0     H  499   2.798   3.787   2.017  2.5813 -1.4856  0.3822
    4MOL0     H  500   2.570   3.587   1.983 -0.8507  0.1549 -2.6573
    4MOL0     H  501   2.581   3.701   2.116 -1.8826  2.9247 -1.1282
    4MOL0     H  502   2.409   3.758   1.955  0.3586  1.3554  0.6468
    4MOL0     H  503   2.533   3.740   1.830  3.4129 -2.6873  1.4088
    4MOL0     H  504   2.635   3.961   1.923 -0.0493  0.5811 -1.2335
    4MOL0     H  505   2.516   3.960   2.041 -1.9045 -0.9234 -0.5967
    4MOL0     H  506   2.344   3.977   1.844 -0.2855  0.8183  1.9905
    4MOL0     H  507   2.441   4.109   1.871 -4.6712 -0.4756  1.4044
    4MOL0     H  508   2.597   3.947   1.687  0.2387 -0.5835 -2.1043
    4MOL0     H  509   2.501   4.082   1.630  0.6575  0.3375 -0.4463
    4MOL0     H  510   3.168   3.636   2.315 -1.4177 -0.8932 -0.5456
    4MOL0     H  511   3.415   3.546   2.337  1.8617 -0.2920 -1.1502
    4MOL0     H  512   3.897   3.620   2.254 -1.1526  1.5383 -0.6358
    4MOL0     H  513   4.125   3.609   2.144  0.0384 -0.6544  1.9554
    4MOL0     H  514   5.673   3.999   2.105  0.8374  0.8294 -1.2216
    4MOL0     H  515   5.912   4.039   2.153 -0.3604 -1.4655  0.8398
    4MOL0     H  516   6.231   4.475   2.391 -1.6483  0.6821  1.5930
    4MOL0     H  517   6.454   4.503   2.510 -1.2197  1.2244  2.9454
    4MOL0     H  518   6.599   4.166   2.735  1.3970  1.4973 -1.7225
    4MOL0     H  519   6.485   4.250   2.845 -1.7871  1.7598 -1.4044
    4MOL0     H  520   6.650   4.402   2.913  2.5952  1.0300  0.9017
    4MOL0     H  521   6.720   4.237   2.944 -2.8322  1.5672  1.4502
    4MOL0     H  522   6.901   4.399   2.849  1.3136 -1.4070 -0.1932
    4MOL0     H  523   6.787   4.446   2.718 -1.2500 -1.5970 -0.5271
    4MOL0     H  524   6.895   4.162   2.774 -0.4095 -1.3333 -3.0376
    4MOL0     H  525   6.819   4.209   2.626  0.8175 -1.6375 -0.0678
    4MOL0     H  526   7.186   4.403   2.563  2.4669 -2.8026  0.8232
    4MOL0     H  527   6.373   4.134   2.708  1.5482 -0.8271 -0.2334
    4MOL0     H  528   6.169   4.106   2.591  0.4866 -0.0872 -0.2075
    5MOL0     O  529   6.383   1.792   9.852  0.4677 -0.4116 -0.7426
    5MOL0     C  530   6.305   1.695   9.817 -0.0509 -0.9674  0.7849
    5MOL0     O  531   6.329   1.583   9.739  0.0566 -0.9539  0.4496
    5MOL0     C  532   6.463   1.574   9.688 -0.0421  0.8052 -0.2703
    5MOL0     C  533   6.581   1.541   9.756  0.1883  0.2537 -0.5098
    5MOL0     C  534   6.709   1.543   9.680  0.2531  0.3569 -0.6807
    5MOL0     C  535   6.715   1.582   9.551 -0.0090 -1.2993 -0.8289
    5MOL0     O  536   6.830   1.584   9.478 -0.0340 -0.5273 -0.2584
    5MOL0     C  537   6.865   1.696   9.399  1.0625  0.1472 -0.6635
    5MOL0     C  538   7.011   1.703   9.357  0.1015  0.4723 -0.2599
    5MOL0     C  539   7.122   1.641   9.442  0.6868  0.0990  0.1580
    5MOL0     C  540   7.122   1.669   9.598  0.0511  0.1928  1.1448
    5MOL0     C  541   7.244   1.623   9.674 -0.0787 -0.5856 -0.3082
    5MOL0     C  542   7.212   1.573   9.811  0.6558 -0.4132 -0.2304
    5MOL0     C  543   7.338   1.533   9.891  0.2137  1.5259  0.2379
    5MOL0     C  544   7.317   1.452  10.024 -0.0757 -0.3467 -0.0839
    5MOL0     N  545   7.223   1.514  10.123  0.2435 -0.1666 -0.0680
    5MOL0     C  546   7.085   1.500  10.126 -0.1409 -0.1966 -0.0166
    5MOL0     C  547   7.049   1.556  10.243  0.8506 -0.7307  0.3328
    5MOL0     C  548   6.917   1.550  10.308  0.6013 -0.0777 -0.5817
    5MOL0     C  549   6.824   1.670  10.256 -0.7221  1.0189  0.2037
    5MOL0     C  550   6.753   1.618  10.127 -0.5954 -0.2351  0.8115
    5MOL0     C  551   6.665   1.730  10.055 -0.5466  0.6470 -0.4483
    5MOL0     O  552   6.568   1.794  10.136  0.1657  0.5505 -0.0327
    5MOL0     C  553   6.451   1.735  10.166  0.7373 -0.6223 -0.4598
    5MOL0     C  554   6.364   1.806  10.240  0.5232 -0.6413 -0.6631
    5MOL0     C  555   6.230   1.763  10.268  0.4265 -1.0908  0.4897
    5MOL0     C  556   6.190   1.637  10.227 -0.5157 -0.7691  0.2665
    5MOL0     C  557   6.053   1.587  10.269  0.1006 -0.9031 -0.5269
    5MOL0     O  558   5.964   1.684  10.316 -0.2592 -0.2357  0.6179
    5MOL0     C  559   5.831   1.641  10.324 -0.6796 -1.0062  0.2004
    5MOL0     C  560   5.725   1.732  10.299  0.0152  0.5361  0.7192
    5MOL0     C  561   5.585   1.695  10.317  0.3002  0.0796 -0.2556
    5MOL0     C  562   5.555   1.569  10.369 -0.0349 -0.1513 -0.1718
    5MOL0     O  563   5.425   1.541  10.383 -0.0922 -0.2089 -0.4602
    5MOL0     C  564   5.386   1.405  10.382 -0.5713  0.4460  0.5526
    5MOL0     C  565   5.236   1.385  10.358 -0.2071 -0.1788  0.2840
    5MOL0     C  566   5.157   1.457  10.465  0.1792  0.1879  0.9461
    5MOL0     C  567   5.008   1.405  10.482 -0.2576 -1.2545 -0.7975
    5MOL0     C  568   4.984   1.261  10.531 -0.4668  1.0845 -0.3071
    5MOL0     C  569   5.034   1.247  10.678  0.1386  0.7483 -0.0026
    5MOL0     C  570   4.935   1.298  10.784 -0.1735 -0.4874  0.3246
    5MOL0     C  571   4.976   1.258  10.926 -0.2214  0.4220  1.4195
    5MOL0    Cl  572   4.843   1.327  11.032  0.3146 -0.2996 -0.0774
    5MOL0     C  573   5.658   1.487  10.411 -0.2669 -0.3100  0.2816
    5MOL0     C  574   5.794   1.522  10.384 -0.0505 -0.5802  0.8628
    5MOL0     O  575   6.032   1.467  10.244  0.1075 -0.4167  0.4956
    5MOL0     C  576   6.286   1.550  10.160 -0.1050 -0.2471 -0.2315
    5MOL0     C  577   6.407   1.602  10.122  0.4966 -0.0493  0.0995
    5MOL0     N  578   7.165   1.599  10.307 -1.5198  0.0297  0.1597
    5MOL0     N  579   7.262   1.574  10.238 -0.8275 -0.2728  0.9170
    5MOL0     C  580   6.601   1.626   9.484 -0.1571  0.9577  0.0920
    5MOL0     C  581   6.476   1.612   9.553  0.0305  0.3948  0.6842
    5MOL0     C  582   6.167   1.719   9.860  0.6841  1.9372  0.6271
    5MOL0     C  583   6.090   1.598   9.895 -0.5927  0.6519  0.2292
    5MOL0     C  584   5.957   1.604   9.921  0.5282  0.9495  0.2161
    5MOL0     C  585   5.894   1.724   9.909 -1.1517 -0.7456  0.6852
    5MOL0     O  586   5.759   1.743   9.912 -0.6523 -0.5106 -0.4113
    5MOL0     C  587   5.679   1.627   9.935  0.1232  0.9466 -0.1642
    5MOL0     C  588   5.537   1.668   9.961 -0.3423 -0.1298  0.4737
    5MOL0     C  589   5.436   1.561  10.022 -0.5328 -1.5021  0.7805
    5MOL0     C  590   5.382   1.458   9.919 -0.4031 -0.3728 -0.4453
    5MOL0     C  591   5.303   1.355   9.985 -0.1334 -0.0107 -0.2587
    5MOL0     C  592   5.233   1.260  10.019 -0.2975 -0.1931 -0.3618
    5MOL0     C  593   5.965   1.847   9.885 -0.3660 -0.0685 -0.2511
    5MOL0     C  594   6.096   1.841   9.858 -1.0237  0.7890 -0.1297
    5MOL0     H  595   6.574   1.492   9.852  0.1221  2.4668  0.6684
    5MOL0     H  596   6.804   1.509   9.718  0.5413  1.9428  0.0753
    5MOL0     H  597   6.838   1.788   9.451 -3.5221 -0.5875 -1.3640
    5MOL0     H  598   6.808   1.705   9.306 -1.4207 -0.0933  0.7517
    5MOL0     H  599   7.040   1.807   9.342  2.3397  0.2629  1.9783
    5MOL0     H  600   7.017   1.659   9.256 -4.4986  1.4272 -1.1490
    5MOL0     H  601   7.217   1.669   9.396  1.4680 -2.0699  0.3191
    5MOL0     H  602   7.128   1.533   9.430  0.8349 -0.1066  1.8929
    5MOL0     H  603   7.130   1.778   9.606 -0.7727  0.7192 -3.0285
    5MOL0     H  604   7.028   1.625   9.632 -1.2594  1.6700 -0.3928
    5MOL0     H  605   7.315   1.706   9.672 -0.4912 -0.0147  3.1799
    5MOL0     H  606   7.283   1.533   9.625  3.1897 -1.0536  2.7594
    5MOL0     H  607   7.130   1.500   9.809 -1.4511  1.8395 -1.6233
    5MOL0     H  608   7.165   1.664   9.851 -0.2779 -1.1706  0.4288
    5MOL0     H  609   7.396   1.469   9.824 -0.9222  1.9927 -1.2486
    5MOL0     H  610   7.391   1.621   9.927  0.6145  1.9023 -1.2044
    5MOL0     H  611   7.413   1.460  10.074 -0.4907  3.0880  0.4271
    5MOL0     H  612   7.297   1.348   9.997 -2.0828  0.9488 -4.4541
    5MOL0     H  613   7.020   1.443  10.060  1.3806 -1.9053 -0.1436
    5MOL0     H  614   6.941   1.580  10.410  2.9838 -0.4526 -0.9677
    5MOL0     H  615   6.862   1.456  10.293 -1.0671  0.8883 -0.7279
    5MOL0     H  616   6.881   1.758  10.224 -0.3071  0.2878 -1.1044
    5MOL0     H  617   6.756   1.704  10.335  1.0566  2.0764  1.3715
    5MOL0     H  618   6.837   1.589  10.063  0.0693 -0.3646  1.7313
    5MOL0     H  619   6.700   1.523  10.140 -1.0970 -0.0919 -0.0862
    5MOL0     H  620   6.629   1.677   9.966  1.3902 -0.5818 -0.5676
    5MOL0     H  621   6.739   1.802  10.022 -0.0620 -1.0903 -3.4818
    5MOL0     H  622   6.396   1.900  10.283  1.0869  0.5067 -3.3582
    5MOL0     H  623   6.162   1.830  10.319  0.7124 -0.4578  0.0561
    5MOL0     H  624   5.740   1.835  10.269  0.5909 -0.2941 -2.1689
    5MOL0     H  625   5.505   1.767  10.305 -0.0484 -0.0505  1.1084
    5MOL0     H  626   5.404   1.363  10.482 -1.3790 -2.0835 -0.2615
    5MOL0     H  627   5.441   1.353  10.303  0.0416  0.5334  0.9154
    5MOL0     H  628   5.225   1.277  10.373  2.8329 -0.5085  0.6412
    5MOL0     H  629   5.206   1.409  10.255  1.4760 -2.0264 -0.7110
    5MOL0     H  630   5.150   1.563  10.439  0.9986  0.6736  2.5878
    5MOL0     H  631   5.210   1.444  10.560  2.9212 -1.0785 -0.6384
    5MOL0     H  632   4.965   1.473  10.556 -0.8878 -2.0456 -0.4150
    5MOL0     H  633   4.962   1.410  10.383 -3.5327 -0.8301  0.6269
    5MOL0     H  634   5.033   1.194  10.460  0.7728  1.2795  0.3469
    5MOL0     H  635   4.875   1.247  10.529 -0.2809 -1.2635  1.2944
    5MOL0     H  636   5.132   1.293  10.690 -0.3998  1.4956  2.0245
    5MOL0     H  637   5.039   1.139  10.692 -1.0066  0.5997 -0.5898
    5MOL0     H  638   4.938   1.406  10.770 -2.5179 -0.3831  0.3094
    5MOL0     H  639   4.831   1.274  10.763 -0.1304  0.3472 -0.9723
    5MOL0     H  640   5.081   1.279  10.950 -0.0236  0.7744  0.3010
    5MOL0     H  641   4.965   1.150  10.942 -1.2121  0.4678  1.0965
    5MOL0     H  642   5.639   1.396  10.468 -0.5791 -1.2593 -1.2872
    5MOL0     H  643   5.864   1.443  10.407 -3.5412 -2.8597  5.5949
    5MOL0     H  644   6.258   1.450  10.126  3.4870 -0.4836 -3.0865
    5MOL0     H  645   6.471   1.543  10.057  0.8337 -1.1245  1.3687
    5MOL0     H  646   6.610   1.662   9.382  1.3521  1.7325  0.4567
    5MOL0     H  647   6.384   1.635   9.501 -0.0298  0.6766  0.9170
    5MOL0     H  648   6.138   1.501   9.884  0.0049  0.9530  0.1079
    5MOL0     H  649   5.893   1.519   9.943 -1.0359  1.9383 -0.3322
    5MOL0     H  650   5.714   1.577  10.026  1.5110 -2.4596 -2.3460
    5MOL0     H  651   5.686   1.558   9.850  0.0271  2.4540 -1.4345
    5MOL0     H  652   5.537   1.758  10.023  0.5046 -0.0198  0.3234
    5MOL0     H  653   5.494   1.709   9.869 -2.7209 -0.8764  1.1803
    5MOL0     H  654   5.352   1.613  10.069  1.5359  0.3303  2.6963
    5MOL0     H  655   5.496   1.512  10.099  1.7503 -0.0982 -0.0034
    5MOL0     H  656   5.322   1.524   9.855 -0.7268  0.6020  0.8092
    5MOL0     H  657   5.468   1.425   9.861  0.5073  0.6190  0.2739
    5MOL0     H  658   5.184   1.177  10.065  0.2070 -0.2614  0.0590
    5MOL0     H  659   5.904   1.934   9.863 -0.9900 -0.1671  1.0397
    5MOL0     H  660   6.151   1.925   9.816 -0.1677 -0.3831 -1.4322
    6MOL0     O  661   0.099   1.525   4.930 -0.9778  0.3106  0.0255
    6MOL0     C  662   0.142   1.431   5.002  0.6297  0.7911 -0.5336
    6MOL0     O  663   0.072   1.394   5.120  0.0520  0.0311  0.6978
    6MOL0     C  664  -0.066   1.414   5.108  0.2015  0.1460 -0.1128
    6MOL0     C  665  -0.117   1.543   5.106  0.2634 -0.0127 -0.5840
    6MOL0     C  666  -0.254   1.561   5.074 -0.4304 -1.0764 -0.4564
    6MOL0     C  667  -0.337   1.456   5.058  0.0941  0.0403  0.5115
    6MOL0     O  668  -0.465   1.494   5.034 -0.5013 -0.0982 -0.7424
    6MOL0     C  669  -0.572   1.395   5.031 -0.8175 -0.3867 -0.3107
    6MOL0     C  670  -0.695   1.467   4.975 -0.4975 -0.0722 -0.6994
    6MOL0     C  671  -0.821   1.385   4.970 -0.0713 -0.6822 -0.7861
    6MOL0     C  672  -0.934   1.448   4.892  0.0687  0.6874  0.4302
    6MOL0     C  673  -1.007   1.570   4.940  0.3294 -0.9669 -0.0043
    6MOL0     C  674  -1.069   1.562   5.084 -0.3627 -0.6773 -0.0298
    6MOL0     C  675  -1.156   1.696   5.105  0.1511 -0.5417  0.2617
    6MOL0     C  676  -1.254   1.659   5.216 -0.0911 -1.0979 -0.5141
    6MOL0     N  677  -1.358   1.581   5.163 -0.0012  0.1036 -0.3115
    6MOL0     C  678  -1.421   1.480   5.239  0.2630 -0.3821 -0.0926
    6MOL0     C  679  -1.545   1.463   5.172 -0.4721  0.6119  0.2136
    6MOL0     C  680  -1.643   1.347   5.203 -0.1495 -0.5702 -0.4007
    6MOL0     C  681  -1.648   1.230   5.103 -0.4719  0.6179  0.5187
    6MOL0     C  682  -1.730   1.106   5.165  0.8978 -0.2669 -0.3399
    6MOL0     C  683  -1.863   1.097   5.088  0.2256  0.1514 -0.7602
    6MOL0     O  684  -1.895   0.957   5.081  0.4521 -0.5761  0.5469
    6MOL0     C  685  -2.025   0.913   5.097  0.9130  0.0391  0.7441
    6MOL0     C  686  -2.139   0.999   5.124 -0.6226 -0.1253 -0.9645
    6MOL0     C  687  -2.269   0.939   5.117 -0.2553 -0.4176  0.1141
    6MOL0     C  688  -2.285   0.803   5.085 -1.1227 -0.2848 -0.2280
    6MOL0     C  689  -2.412   0.749   5.074 -0.3558  0.4493  0.3070
    6MOL0     O  690  -2.517   0.832   5.057  0.1434  0.2901  0.2324
    6MOL0     C  691  -2.612   0.798   4.972 -0.4493 -0.3895 -0.0072
    6MOL0     C  692  -2.710   0.893   4.963 -0.1865 -0.2729  0.8186
    6MOL0     C  693  -2.804   0.882   4.863 -0.3966 -1.0017  0.6407
    6MOL0     C  694  -2.818   0.766   4.783  0.7912  0.1107  1.0269
    6MOL0     O  695  -2.911   0.763   4.685 -0.1033 -0.1890 -0.5829
    6MOL0     C  696  -3.035   0.820   4.719  0.1068  0.0303  0.3295
    6MOL0     C  697  -3.121   0.783   4.599  0.3924  0.4815  0.4689
    6MOL0     C  698  -3.074   0.834   4.461  0.7032  0.5084 -0.3316
    6MOL0     C  699  -3.182   0.816   4.357 -0.4788  1.6635  0.0967
    6MOL0     C  700  -3.226   0.666   4.329 -0.0617  0.4452  0.3117
    6MOL0     C  701  -3.101   0.580   4.289  0.0602 -0.3242  0.1548
    6MOL0     C  702  -3.136   0.444   4.234 -0.4774  0.5245 -0.6158
    6MOL0     C  703  -3.230   0.367   4.331  0.9736  0.5032  0.0450
    6MOL0    Cl  704  -3.139   0.312   4.479 -0.4661 -0.6364  0.1210
    6MOL0     C  705  -2.719   0.668   4.789  0.4075 -0.4605 -0.4551
    6MOL0     C  706  -2.614   0.688   4.882  0.0138 -0.5863 -0.0173
    6MOL0     O  707  -2.426   0.630   5.111  0.4339 -0.0920 -0.0687
    6MOL0     C  708  -2.167   0.724   5.053  0.1253  0.3427 -0.6467
    6MOL0     C  709  -2.042   0.783   5.064 -0.9780  0.6604 -0.0156
    6MOL0     N  710  -1.553   1.558   5.070  0.9844  0.4143  0.2153
    6MOL0     N  711  -1.444   1.627   5.068  0.0085  0.5416  0.3288
    6MOL0     C  712  -0.290   1.326   5.058 -0.7177 -0.6346 -0.7863
    6MOL0     C  713  -0.156   1.302   5.082 -0.7636 -0.1617  1.0973
    6MOL0     C  714   0.276   1.363   4.960  0.3743  0.9200 -0.4561
    6MOL0     C  715   0.371   1.415   4.863  0.2875  0.5247  0.8875
    6MOL0     C  716   0.500   1.383   4.857  0.0374  0.1123 -0.3150
    6MOL0     C  717   0.537   1.264   4.928 -0.2722  0.0461  0.6961
    6MOL0     O  718   0.667   1.226   4.927 -0.4572  0.1339 -0.3476
    6MOL0     C  719   0.760   1.316   4.993  0.3018  0.0867 -0.8048
    6MOL0     C  720   0.889   1.242   5.005 -0.7473  0.6983  0.2521
    6MOL0     C  721   0.969   1.237   4.868 -0.9689 -0.1111 -0.7654
    6MOL0     C  722   1.103   1.163   4.871 -0.1364  0.3888  0.3592
    6MOL0     C  723   1.073   1.019   4.872  0.4597  0.4710 -0.3312
    6MOL0     C  724   1.075   0.895   4.877 -0.6458 -0.3492 -0.0514
    6MOL0     C  725   0.446   1.191   5.002 -0.4700  0.4218 -0.1052
    6MOL0     C  726   0.323   1.245   5.032  0.2442 -0.1898 -0.3130
    6MOL0     H  727  -0.053   1.631   5.107  0.7375 -0.3627  0.3527
    6MOL0     H  728  -0.288   1.664   5.072  1.5285 -0.4194 -1.5063
    6MOL0     H  729  -0.604   1.349   5.124 -1.5581  2.6401  1.0556
    6MOL0     H  730  -0.554   1.309   4.966  1.4086  0.9834 -1.6390
    6MOL0     H  731  -0.683   1.499   4.871 -0.2370 -0.9781 -0.9632
    6MOL0     H  732  -0.698   1.559   5.034 -1.1945 -2.0381  2.5834
    6MOL0     H  733  -0.852   1.371   5.074  2.4276 -3.9462 -0.3014
    6MOL0     H  734  -0.804   1.284   4.933  2.1532 -0.1421 -1.3898
    6MOL0     H  735  -0.912   1.463   4.785 -0.9068  1.1408  0.2833
    6MOL0     H  736  -1.008   1.367   4.897  0.7507 -0.0530 -0.7753
    6MOL0     H  737  -1.093   1.571   4.873  0.9803 -0.5023 -0.8614
    6MOL0     H  738  -0.950   1.663   4.926  0.7464 -1.3811 -1.2998
    6MOL0     H  739  -0.998   1.547   5.167 -1.6778  0.4430  1.3597
    6MOL0     H  740  -1.113   1.462   5.089  0.6482 -1.1018  0.7989
    6MOL0     H  741  -1.092   1.782   5.126 -1.3301  0.8404 -0.6995
    6MOL0     H  742  -1.206   1.718   5.010  2.7279 -3.0858 -1.8766
    6MOL0     H  743  -1.293   1.757   5.247  3.3386  1.1837 -2.7477
    6MOL0     H  744  -1.203   1.608   5.298  0.7752  1.1543  0.4279
    6MOL0     H  745  -1.390   1.416   5.320  0.7388  0.4738  0.4154
    6MOL0     H  746  -1.741   1.395   5.212  0.6255  0.8322  1.1144
    6MOL0     H  747  -1.623   1.300   5.299 -4.2122 -2.4052 -0.2238
    6MOL0     H  748  -1.543   1.199   5.102 -0.3707  0.9089 -1.3210
    6MOL0     H  749  -1.693   1.264   5.009 -2.0366  0.1427  1.0624
    6MOL0     H  750  -1.662   1.026   5.136  2.1900  1.5745 -2.8438
    6MOL0     H  751  -1.752   1.115   5.272  0.2677  1.6782 -0.5959
    6MOL0     H  752  -1.847   1.132   4.986  4.0070  0.1819 -0.2775
    6MOL0     H  753  -1.931   1.166   5.141  1.2055  0.4737  0.1143
    6MOL0     H  754  -2.140   1.104   5.152  1.2994 -0.4768  0.6449
    6MOL0     H  755  -2.354   0.998   5.150 -2.5674 -1.4235 -3.4447
    6MOL0     H  756  -2.710   0.988   5.016  1.2397 -0.1065  0.5533
    6MOL0     H  757  -2.876   0.963   4.857  0.0023 -0.3288  3.4536
    6MOL0     H  758  -3.036   0.929   4.725 -3.8435  0.1034  0.3671
    6MOL0     H  759  -3.064   0.769   4.811  1.7486 -0.6016  0.5377
    6MOL0     H  760  -3.219   0.833   4.601  0.4469  0.7354 -1.4816
    6MOL0     H  761  -3.129   0.674   4.588  2.2245  0.3970 -0.4372
    6MOL0     H  762  -2.984   0.787   4.421 -0.3483 -1.0754 -0.9151
    6MOL0     H  763  -3.053   0.941   4.474 -0.2670  0.7762 -0.8847
    6MOL0     H  764  -3.269   0.878   4.382  0.4553  2.0200  2.8021
    6MOL0     H  765  -3.136   0.846   4.263  0.7901 -0.0312  0.1255
    6MOL0     H  766  -3.306   0.669   4.254 -0.4445 -0.8042  0.6436
    6MOL0     H  767  -3.273   0.625   4.419 -1.2745 -2.9897 -1.7192
    6MOL0     H  768  -3.037   0.565   4.376  0.8977 -2.3087 -0.7440
    6MOL0     H  769  -3.036   0.630   4.216 -0.5076 -1.5882 -1.2812
    6MOL0     H  770  -3.190   0.457   4.141  0.2810  0.4786 -1.0707
    6MOL0     H  771  -3.052   0.382   4.200 -2.2601 -1.8354 -0.9349
    6MOL0     H  772  -3.244   0.274   4.276  1.6476 -0.4897  1.4959
    6MOL0     H  773  -3.324   0.412   4.363 -0.0325 -1.3597 -0.1530
    6MOL0     H  774  -2.718   0.582   4.723  2.3799 -1.9310  1.3318
    6MOL0     H  775  -2.537   0.611   4.876  2.3315  1.6829 -1.7110
    6MOL0     H  776  -2.173   0.620   5.020 -2.8719  0.6876 -1.5617
    6MOL0     H  777  -1.947   0.739   5.037 -0.9169  2.3524 -2.9194
    6MOL0     H  778  -0.356   1.241   5.046 -3.1121  0.5218  2.7134
    6MOL0     H  779  -0.112   1.203   5.088 -1.0610 -0.4185 -0.4731
    6MOL0     H  780   0.343   1.492   4.792 -2.0361 -0.9337  0.1259
    6MOL0     H  781   0.560   1.425   4.778  0.9169  1.4761  1.0440
    6MOL0     H  782   0.730   1.331   5.097  2.1133 -0.7694 -0.1213
    6MOL0     H  783   0.777   1.404   4.929  2.0174  0.2371 -0.1976
    6MOL0     H  784   0.960   1.297   5.068  0.2366  2.2370 -2.0375
    6MOL0     H  785   0.868   1.144   5.049 -1.1398  0.1672 -1.0761
    6MOL0     H  786   0.994   1.337   4.833 -0.6391  0.7212  1.6941
    6MOL0     H  787   0.903   1.204   4.787 -0.2930 -0.7369 -1.0728
    6MOL0     H  788   1.141   1.181   4.769 -2.2557  0.7050 -0.4288
    6MOL0     H  789   1.167   1.194   4.954  0.1090 -0.9938  0.7051
    6MOL0     H  790   1.074   0.788   4.875  2.2439 -0.4694 -2.7972
    6MOL0     H  791   0.481   1.099   5.049 -0.7451  1.6155  2.5944
    6MOL0     H  792   0.269   1.204   5.117  2.5400 -2.7821  0.0361
    7MOL0     O  793   3.846   5.259   9.390  0.2567  0.4803  0.1605
    7MOL0     C  794   3.950   5.320   9.353 -0.2795 -0.0770  0.3622
    7MOL0     O  795   3.955   5.447   9.292  0.5677  0.6478 -1.0134
    7MOL0     C  796   3.836   5.518   9.282 -0.2222 -0.2432 -0.2367
    7MOL0     C  797   3.837   5.602   9.174 -0.3179  0.4259  0.2695
    7MOL0     C  798   3.734   5.697   9.150 -0.1529  0.4919  0.0614
    7MOL0     C  799   3.621   5.696   9.229 -0.1940 -1.0682  0.5668
    7MOL0     O  800   3.526   5.788   9.192  0.1589  0.2580  0.5260
    7MOL0     C  801   3.389   5.779   9.246 -0.6879  0.1233  0.5709
    7MOL0     C  802   3.303   5.891   9.178  0.3004  0.9370  0.0227
    7MOL0     C  803   3.158   5.913   9.235 -0.4431 -0.0668  0.0898
    7MOL0     C  804   3.079   6.041   9.196  0.4577  0.1950  0.7953
    7MOL0     C  805   2.955   6.069   9.285  0.8093  0.2774  0.1033
    7MOL0     C  806   2.979   6.115   9.422 -0.4187  0.2575 -0.2436
    7MOL0     C  807   2.858   6.173   9.490  0.5611 -0.8966 -0.7720
    7MOL0     C  808   2.900   6.207   9.632  0.0985  0.7923 -0.0363
    7MOL0     N  809   2.789   6.237   9.721 -0.5169 -0.0860  0.5140
    7MOL0     C  810   2.802   6.267   9.856  0.2227  0.9110  0.4561
    7MOL0     C  811   2.681   6.308   9.897 -0.4963  0.4217  0.3747
    7MOL0     C  812   2.642   6.353  10.037 -0.0742 -0.5321  0.8100
    7MOL0     C  813   2.583   6.495  10.042 -0.2301  0.0825  0.6866
    7MOL0     C  814   2.478   6.523   9.928  0.1241 -0.1274 -0.2110
    7MOL0     C  815   2.389   6.639   9.970 -0.6595 -0.1083 -0.3682
    7MOL0     O  816   2.314   6.673   9.860 -0.5505  0.2353 -0.1327
    7MOL0     C  817   2.212   6.595   9.824 -0.4631  0.1481  0.6010
    7MOL0     C  818   2.090   6.618   9.885  0.6802  0.5357  0.2034
    7MOL0     C  819   1.972   6.544   9.855 -0.4282 -0.3537 -0.3566
    7MOL0     C  820   1.978   6.442   9.764  0.4835 -0.1902  1.3640
    7MOL0     C  821   1.854   6.363   9.736 -0.3716  1.0490 -1.1317
    7MOL0     O  822   1.725   6.412   9.772  0.0474  0.4946  0.0341
    7MOL0     C  823   1.619   6.330   9.754  0.2349  0.5779 -0.5964
    7MOL0     C  824   1.544   6.341   9.637 -0.1358  0.0443 -0.1403
    7MOL0     C  825   1.425   6.263   9.631  0.4690  0.6668  0.4467
    7MOL0     C  826   1.386   6.176   9.725  0.5264 -0.1007  0.5539
    7MOL0     O  827   1.279   6.100   9.730  0.1815  0.3081 -0.2040
    7MOL0     C  828   1.157   6.150   9.670 -0.4181  0.3224  0.1567
    7MOL0     C  829   1.046   6.042   9.662 -0.9236 -1.1285  0.6949
    7MOL0     C  830   1.007   5.983   9.800 -0.1405  0.4725  0.0343
    7MOL0     C  831   0.887   5.885   9.791  0.1860  0.5170  0.0770
    7MOL0     C  832   0.888   5.774   9.897  0.8277 -0.2912 -0.2546
    7MOL0     C  833   0.786   5.661   9.875 -0.1443 -0.8674  0.6823
    7MOL0     C  834   0.650   5.673   9.951  0.1904  0.4275  0.4225
    7MOL0     C  835   0.575   5.806   9.910 -0.6864 -0.2660 -0.8407
    7MOL0    Cl  836   0.412   5.812   9.990  0.0215  0.0621  0.0806
    7MOL0     C  837   1.472   6.159   9.834 -0.3917 -0.7231 -0.8174
    7MOL0     C  838   1.581   6.245   9.856 -0.1413  0.5883  0.5251
    7MOL0     O  839   1.873   6.258   9.674  0.9280  0.2000  0.2608
    7MOL0     C  840   2.100   6.403   9.714 -1.2068 -0.1452  0.1649
    7MOL0     C  841   2.218   6.478   9.737 -0.7806 -0.2548  0.1474
    7MOL0     N  842   2.591   6.279   9.793  0.2780 -0.3013  0.9535
    7MOL0     N  843   2.663   6.250   9.686  0.5382 -0.2958  0.7159
    7MOL0     C  844   3.621   5.609   9.343  0.5069  0.6891  0.1638
    7MOL0     C  845   3.728   5.523   9.372  1.0637 -0.0764 -0.0353
    7MOL0     C  846   4.076   5.255   9.380  0.5817  0.3273  0.0294
    7MOL0     C  847   4.078   5.131   9.438  0.4896  0.3969 -0.2740
    7MOL0     C  848   4.196   5.069   9.466 -0.0578 -0.5811  1.1118
    7MOL0     C  849   4.317   5.128   9.430  0.3316 -0.4386  0.0938
    7MOL0     O  850   4.437   5.062   9.448  0.3557  0.2914 -0.8283
    7MOL0     C  851   4.438   4.928   9.487  0.8225  0.1137 -0.6227
    7MOL0     C  852   4.417   4.828   9.369 -0.0613 -0.1351 -0.5025
    7MOL0     C  853   4.556   4.817   9.306  0.4349  0.4602  0.0074
    7MOL0     C  854   4.558   4.708   9.202 -0.7786  0.4237  0.1923
    7MOL0     C  855   4.693   4.648   9.200 -0.6705 -0.2638  0.0062
    7MOL0     C  856   4.811   4.609   9.200  0.7398 -0.3084 -0.0549
    7MOL0     C  857   4.318   5.249   9.374  0.8319 -0.1931  0.3633
    7MOL0     C  858   4.195   5.316   9.359  0.2443  0.4220  0.1934
    7MOL0     H  859   3.912   5.594   9.096 -3.0134  2.8417 -2.8699
    7MOL0     H  860   3.731   5.756   9.059 -3.0718 -0.5187 -0.6090
    7MOL0     H  861   3.396   5.778   9.355  3.7513  0.0797  0.4586
    7MOL0     H  862   3.351   5.680   9.216 -1.2364 -0.3842  2.7933
    7MOL0     H  863   3.309   5.875   9.070  2.3781  1.6751 -0.0167
    7MOL0     H  864   3.361   5.983   9.194  0.1301  0.6941  2.3430
    7MOL0     H  865   3.169   5.919   9.343 -0.1198 -0.6428  0.0878
    7MOL0     H  866   3.092   5.826   9.227  0.2484 -0.4836 -1.3466
    7MOL0     H  867   3.152   6.123   9.207  1.3137 -0.7943  3.0113
    7MOL0     H  868   3.062   6.033   9.088  0.3455 -1.2213  0.9078
    7MOL0     H  869   2.902   5.973   9.285  1.1045  0.1145 -0.1550
    7MOL0     H  870   2.893   6.147   9.239 -0.6053 -0.0934  1.2729
    7MOL0     H  871   3.053   6.195   9.430  0.4203 -0.3943 -1.2774
    7MOL0     H  872   3.025   6.030   9.473  1.2291  0.7150 -0.9170
    7MOL0     H  873   2.814   6.265   9.449  0.4585  0.6938  2.5873
    7MOL0     H  874   2.773   6.104   9.488 -2.4505  2.4901 -0.0098
    7MOL0     H  875   2.960   6.298   9.635  1.8007 -0.2954  0.8382
    7MOL0     H  876   2.945   6.117   9.676  0.2050 -0.2329 -2.1187
    7MOL0     H  877   2.895   6.275   9.911 -0.4478  1.1553  1.5729
    7MOL0     H  878   2.731   6.365  10.100  0.1296  3.8836  0.0374
    7MOL0     H  879   2.573   6.276  10.073 -1.1916  0.2732  0.4635
    7MOL0     H  880   2.666   6.565  10.026 -0.3127 -0.4077 -2.5944
    7MOL0     H  881   2.536   6.511  10.140  0.3108 -2.6573  1.4897
    7MOL0     H  882   2.532   6.543   9.834 -0.5809  0.4828 -0.4939
    7MOL0     H  883   2.411   6.437   9.928 -2.1818  1.5675  1.4737
    7MOL0     H  884   2.443   6.731   9.994 -1.0779 -0.5299  2.5338
    7MOL0     H  885   2.319   6.615  10.050 -1.1240 -2.2921 -1.3581
    7MOL0     H  886   2.085   6.701   9.954 -0.6312 -0.3765  1.2791
    7MOL0     H  887   1.881   6.574   9.907 -0.6111 -0.9828 -0.3045
    7MOL0     H  888   1.569   6.413   9.559 -0.6997  0.3719 -0.0260
    7MOL0     H  889   1.361   6.272   9.544 -1.3989  1.2998  1.7901
    7MOL0     H  890   1.179   6.176   9.566  4.5242 -3.3118 -0.0488
    7MOL0     H  891   1.111   6.233   9.724  1.2234  0.5067  1.3122
    7MOL0     H  892   1.068   5.965   9.588 -0.9044  1.0704 -1.7391
    7MOL0     H  893   0.957   6.096   9.628  1.2439  3.9765  2.1534
    7MOL0     H  894   1.001   6.060   9.878 -1.5466 -1.4054  1.8689
    7MOL0     H  895   1.091   5.920   9.830  0.0716  0.7621  0.0607
    7MOL0     H  896   0.796   5.944   9.796 -0.2904 -0.2428  4.6965
    7MOL0     H  897   0.891   5.839   9.692  0.7754 -1.3430  0.9248
    7MOL0     H  898   0.870   5.820   9.995  2.3541  0.5691 -0.3470
    7MOL0     H  899   0.980   5.719   9.919  0.7089 -2.1783 -3.7135
    7MOL0     H  900   0.839   5.568   9.900  1.6538 -0.0424  0.1330
    7MOL0     H  901   0.754   5.643   9.771  0.8685 -1.9657  0.5358
    7MOL0     H  902   0.579   5.594   9.924  1.4379 -0.9421  0.9999
    7MOL0     H  903   0.670   5.677  10.059 -1.0720 -1.9392  0.8133
    7MOL0     H  904   0.547   5.810   9.804 -3.4551  1.8226 -0.1691
    7MOL0     H  905   0.635   5.894   9.934 -0.6721 -0.1741 -1.1972
    7MOL0     H  906   1.441   6.089   9.911  1.3572 -0.0509  0.5817
    7MOL0     H  907   1.644   6.220   9.942  1.9949 -0.5577 -1.2598
    7MOL0     H  908   2.123   6.322   9.646 -0.9835 -0.1981  0.3068
    7MOL0     H  909   2.307   6.443   9.685 -1.8046 -3.1648  0.1611
    7MOL0     H  910   3.538   5.593   9.411 -1.2405 -1.9618 -2.2991
    7MOL0     H  911   3.729   5.460   9.459  3.8058 -0.8127 -0.4941
    7MOL0     H  912   3.986   5.084   9.470 -0.9760  2.3813 -1.4096
    7MOL0     H  913   4.188   4.973   9.516  0.4679  0.8246  4.1932
    7MOL0     H  914   4.365   4.916   9.568  0.0745  2.4250 -0.8940
    7MOL0     H  915   4.534   4.904   9.532 -0.5759 -3.2127  0.9874
    7MOL0     H  916   4.381   4.734   9.412 -2.1031  0.9343  0.2736
    7MOL0     H  917   4.346   4.860   9.292  0.3334 -1.8928 -1.6675
    7MOL0     H  918   4.620   4.789   9.390 -0.3733  0.5935  0.6761
    7MOL0     H  919   4.593   4.908   9.258 -2.2954  1.1781 -0.9335
    7MOL0     H  920   4.486   4.628   9.221  0.4315 -0.4509  1.3289
    7MOL0     H  921   4.542   4.749   9.102 -0.6566 -0.0239 -0.0160
    7MOL0     H  922   4.909   4.566   9.201  0.7269 -0.5232  3.3692
    7MOL0     H  923   4.414   5.299   9.363  0.0832  0.9245 -1.3648
    7MOL0     H  924   4.208   5.417   9.320  3.9651  0.2375  0.6058
    8MOL0     O  925   2.876  10.883   2.036  0.8924 -0.3773 -0.0360
    8MOL0     C  926   3.000  10.899   2.042 -0.3915  0.3060  0.4340
    8MOL0     O  927   3.082  10.963   1.953  0.1019 -0.0468 -0.1389
    8MOL0     C  928   3.028  11.027   1.850  0.5207  0.0829  0.2355
    8MOL0     C  929   2.994  10.940   1.743  0.3229 -0.8046  0.3237
    8MOL0     C  930   2.956  10.997   1.617  0.3310 -0.7143  0.2775
    8MOL0     C  931   2.958  11.133   1.603  0.2159  0.1638 -0.7100
    8MOL0     O  932   2.908  11.174   1.485  0.1471 -0.1775 -0.2995
    8MOL0     C  933   2.886  11.309   1.460 -0.5428  0.7732  1.3397
    8MOL0     C  934   3.017  11.367   1.393 -0.5103  0.6099 -0.9284
    8MOL0     C  935   3.056  11.502   1.459 -0.2431 -1.0580 -0.9508
    8MOL0     C  936   3.186  11.568   1.404  0.6539  0.5486 -0.2846
    8MOL0     C  937   3.310  11.477   1.441  0.8395  0.2424  0.8769
    8MOL0     C  938   3.432  11.543   1.407 -1.2491 -0.2763 -0.3968
    8MOL0     C  939   3.449  11.576   1.254  1.2261 -0.0089  0.9627
    8MOL0     C  940   3.585  11.622   1.224 -0.5827 -0.8932  0.2824
    8MOL0     N  941   3.603  11.682   1.088 -0.2033 -0.6291  0.9933
    8MOL0     C  942   3.632  11.612   0.971 -0.3373  0.4789  1.0185
    8MOL0     C  943   3.644  11.717   0.881  0.7863 -0.1671 -0.4254
    8MOL0     C  944   3.697  11.701   0.739 -0.1121 -0.2131 -0.5716
    8MOL0     C  945   3.586  11.705   0.636  0.4080  0.0719 -0.4272
    8MOL0     C  946   3.507  11.574   0.627 -0.4627  0.8692 -1.2338
    8MOL0     C  947   3.370  11.604   0.558 -0.2112 -0.2060 -0.7560
    8MOL0     O  948   3.294  11.485   0.536 -0.3544  0.0327 -0.6832
    8MOL0     C  949   3.168  11.512   0.478  0.2912  0.1563 -0.3528
    8MOL0     C  950   3.154  11.614   0.388  0.4541  0.1857  0.3732
    8MOL0     C  951   3.026  11.642   0.329  0.1883  0.7954  0.9015
    8MOL0     C  952   2.906  11.566   0.362 -0.7517 -0.8397 -0.1420
    8MOL0     C  953   2.773  11.595   0.298 -0.5012 -0.1757  0.2220
    8MOL0     O  954   2.663  11.520   0.332  0.0972 -0.3427 -0.0876
    8MOL0     C  955   2.547  11.543   0.253 -0.3504 -0.1093 -0.1095
    8MOL0     C  956   2.438  11.599   0.323 -0.5384  0.2630 -0.1496
    8MOL0     C  957   2.317  11.627   0.262 -0.4084  0.0821  0.1467
    8MOL0     C  958   2.287  11.577   0.129 -0.6206 -0.0952  0.1143
    8MOL0     O  959   2.177  11.619   0.054 -0.2583  0.4642  0.5879
    8MOL0     C  960   2.043  11.627   0.110 -0.0959  1.1590 -0.2930
    8MOL0     C  961   1.946  11.642  -0.007 -0.6490  0.3015 -0.4569
    8MOL0     C  962   1.802  11.635   0.067  0.0623  0.3227 -0.2730
    8MOL0     C  963   1.696  11.662  -0.044  0.1845  0.9655 -0.8692
    8MOL0     C  964   1.554  11.629   0.011 -0.2668 -0.5805 -0.5052
    8MOL0     C  965   1.517  11.692   0.135  0.2688 -0.1992  0.2005
    8MOL0     C  966   1.357  11.687   0.162  0.2914 -0.6510  0.1626
    8MOL0     C  967   1.340  11.761   0.293  0.1584  0.4204  0.2181
    8MOL0    Cl  968   1.168  11.813   0.323  0.1092  0.1569  0.0791
    8MOL0     C  969   2.391  11.510   0.061 -0.6269  0.1696 -0.3497
    8MOL0     C  970   2.517  11.498   0.122  0.1369 -0.6127 -0.0278
    8MOL0     O  971   2.771  11.704   0.236 -0.4981  0.2009 -0.1817
    8MOL0     C  972   2.928  11.457   0.450  0.4313 -0.0243  0.7850
    8MOL0     C  973   3.049  11.434   0.508  0.0196  0.2423  0.7452
    8MOL0     N  974   3.622  11.840   0.940  0.3707  0.4836 -0.1129
    8MOL0     N  975   3.618  11.816   1.065 -0.1129 -0.0997  0.2403
    8MOL0     C  976   2.986  11.219   1.716 -0.9804  0.3221  0.3715
    8MOL0     C  977   3.022  11.159   1.836  0.6277 -0.4796  0.6409
    8MOL0     C  978   3.064  10.835   2.161 -0.0934  0.2036 -0.4294
    8MOL0     C  979   3.198  10.820   2.153 -0.2768 -0.6480 -0.0448
    8MOL0     C  980   3.274  10.778   2.264 -0.0106  0.1977  0.4434
    8MOL0     C  981   3.206  10.726   2.374  0.0354 -0.3925 -0.2586
    8MOL0     O  982   3.264  10.664   2.485 -0.1885 -0.2318  0.0826
    8MOL0     C  983   3.385  10.588   2.469 -0.9008 -0.0647  0.7009
    8MOL0     C  984   3.417  10.513   2.598 -0.3178 -0.8456  0.2614
    8MOL0     C  985   3.561  10.441   2.588  0.9392 -0.1771  0.7204
    8MOL0     C  986   3.583  10.392   2.738  0.0616 -0.5287 -0.0138
    8MOL0     C  987   3.522  10.260   2.755 -0.8188  0.1305  0.8455
    8MOL0     C  988   3.457  10.162   2.770  0.0159  0.1926  1.0242
    8MOL0     C  989   3.065  10.742   2.380 -0.5977 -0.2827  0.3181
    8MOL0     C  990   2.991  10.805   2.286 -0.6352 -0.1580  0.7852
    8MOL0     H  991   2.992  10.832   1.755 -1.3418 -1.1895 -2.5190
    8MOL0     H  992   2.925  10.927   1.539 -1.3588  0.6920 -0.3895
    8MOL0     H  993   2.860  11.372   1.546 -0.8269  1.6235  0.6504
    8MOL0     H  994   2.806  11.307   1.385  1.3713  0.0805 -0.7777
    8MOL0     H  995   2.997  11.385   1.287 -1.0568 -1.2198 -1.1701
    8MOL0     H  996   3.092  11.288   1.390  2.0746  2.7666  1.8665
    8MOL0     H  997   3.072  11.479   1.565 -0.5037  2.0458 -0.1490
    8MOL0     H  998   2.973  11.573   1.458 -1.0601 -1.9340  0.4600
    8MOL0     H  999   3.193  11.602   1.300  0.5621  0.8874 -0.1799
    8MOL0     H 1000   3.204  11.657   1.465  1.7049  0.6856 -0.7852
    8MOL0     H 1001   3.299  11.391   1.374 -3.5511  1.4385 -0.2505
    8MOL0     H 1002   3.312  11.446   1.545  0.2387  1.3668  1.2393
    8MOL0     H 1003   3.515  11.483   1.447 -1.3567  0.2516  0.6510
    8MOL0     H 1004   3.422  11.630   1.473 -2.5624  1.2797 -2.5456
    8MOL0     H 1005   3.436  11.483   1.199  0.7924 -0.2234  1.4124
    8MOL0     H 1006   3.370  11.647   1.228 -0.0835 -1.0240  2.0758
    8MOL0     H 1007   3.659  11.544   1.244 -0.3132 -1.3475 -2.1060
    8MOL0     H 1008   3.607  11.707   1.288  0.0539  0.6445 -1.8751
    8MOL0     H 1009   3.639  11.507   0.946  2.2847  0.5684  1.0997
    8MOL0     H 1010   3.749  11.606   0.732 -1.2970 -1.1828  2.3081
    8MOL0     H 1011   3.758  11.791   0.726  0.6003 -0.5698  0.2178
    8MOL0     H 1012   3.633  11.727   0.539  0.6592 -3.2311 -1.1921
    8MOL0     H 1013   3.512  11.779   0.668 -1.9804 -1.7107 -1.5023
    8MOL0     H 1014   3.570  11.501   0.576  0.4131  0.2418  0.6579
    8MOL0     H 1015   3.481  11.530   0.724  3.9557  1.4312  0.4234
    8MOL0     H 1016   3.403  11.640   0.460  3.2123 -2.1516 -0.4763
    8MOL0     H 1017   3.310  11.672   0.619 -0.8596 -0.4483 -1.1192
    8MOL0     H 1018   3.229  11.688   0.363 -0.9903  1.1418 -1.3668
    8MOL0     H 1019   3.019  11.727   0.263  1.8141  0.2457 -0.0472
    8MOL0     H 1020   2.461  11.627   0.425  0.9816 -0.3764 -0.2779
    8MOL0     H 1021   2.256  11.690   0.326 -1.1719 -1.4242  0.9576
    8MOL0     H 1022   2.027  11.715   0.174  0.5991  1.1371 -0.0839
    8MOL0     H 1023   2.017  11.538   0.168 -0.4479  0.1721 -1.8927
    8MOL0     H 1024   1.935  11.559  -0.078  1.7262  0.9545 -1.6718
    8MOL0     H 1025   1.967  11.736  -0.058  0.2733  2.5751  3.6052
    8MOL0     H 1026   1.798  11.711   0.145 -0.1135 -0.2764  0.3065
    8MOL0     H 1027   1.778  11.542   0.118 -1.4329  1.4748  1.2624
    8MOL0     H 1028   1.690  11.765  -0.080 -2.4469  0.8999 -0.8441
    8MOL0     H 1029   1.727  11.590  -0.120 -0.1670  1.1016 -1.1432
    8MOL0     H 1030   1.541  11.520   0.017 -2.4899 -0.2827  3.1108
    8MOL0     H 1031   1.487  11.660  -0.069 -1.5647  1.1828  1.2018
    8MOL0     H 1032   1.554  11.796   0.132  1.6835 -0.7033 -0.9476
    8MOL0     H 1033   1.572  11.639   0.214  0.5389 -0.4007 -0.1218
    8MOL0     H 1034   1.307  11.736   0.078 -1.2940  0.3871  1.6383
    8MOL0     H 1035   1.323  11.585   0.179 -3.5602  0.9064  3.5655
    8MOL0     H 1036   1.397  11.854   0.297  0.3628  0.2764  0.6775
    8MOL0     H 1037   1.368  11.692   0.374 -0.6437  0.6860  0.7318
    8MOL0     H 1038   2.381  11.475  -0.041 -2.4120 -2.9272  0.7613
    8MOL0     H 1039   2.594  11.459   0.056  0.3094  2.3854 -1.8216
    8MOL0     H 1040   2.842  11.407   0.493 -0.1731  1.8436  1.8781
    8MOL0     H 1041   3.046  11.357   0.584  2.3950 -1.4304 -0.7260
    8MOL0     H 1042   2.981  11.327   1.717 -2.3485  0.4631  5.1540
    8MOL0     H 1043   3.053  11.229   1.914  0.7250 -0.0753  0.2504
    8MOL0     H 1044   3.246  10.831   2.056 -1.0793 -1.0668 -0.5027
    8MOL0     H 1045   3.382  10.770   2.267 -0.0889 -0.6017  1.7780
    8MOL0     H 1046   3.471  10.653   2.452 -1.1598  0.5118  1.5580
    8MOL0     H 1047   3.380  10.518   2.384 -0.4974 -0.7385  1.2247
    8MOL0     H 1048   3.436  10.591   2.672 -3.6942  1.7497 -1.2813
    8MOL0     H 1049   3.345  10.437   2.629 -2.8033  0.5427 -1.6575
    8MOL0     H 1050   3.625  10.526   2.563  0.0525  0.2562 -0.1190
    8MOL0     H 1051   3.559  10.362   2.513 -0.7573  1.4160 -1.0271
    8MOL0     H 1052   3.691  10.392   2.751 -0.1820 -0.2896  2.6650
    8MOL0     H 1053   3.543  10.456   2.817  3.8442  4.0603 -1.3717
    8MOL0     H 1054   3.406  10.067   2.772  1.5722 -0.7245 -0.1137
    8MOL0     H 1055   3.025  10.713   2.477 -1.9170  4.4009  1.4230
    8MOL0     H 1056   2.882  10.809   2.289 -0.6435  1.0266 -0.3117
    9MOL0     O 1057   7.481   6.180   8.686  0.1463  0.0862 -0.2152
    9MOL0     C 1058   7.477   6.277   8.762 -0.4957  0.6790  0.0333
    9MOL0     O 1059   7.387   6.378   8.756  0.1611  0.3619 -0.0597
    9MOL0     C 1060   7.261   6.358   8.696  0.2585 -0.3486 -0.2506
    9MOL0     C 1061   7.194   6.233   8.674 -0.3527  0.1626 -0.5359
    9MOL0     C 1062   7.071   6.224   8.615 -0.1364 -0.0120 -0.2256
    9MOL0     C 1063   7.005   6.338   8.575 -0.8603 -0.2966  0.5652
    9MOL0     O 1064   6.891   6.302   8.511 -0.5810 -0.3356  0.0990
    9MOL0     C 1065   6.827   6.409   8.433  0.3808 -0.8151  0.2277
    9MOL0     C 1066   6.894   6.416   8.290 -0.1403  0.4536 -0.4340
    9MOL0     C 1067   6.900   6.276   8.223  0.1052 -0.2316 -1.0735
    9MOL0     C 1068   6.984   6.266   8.094 -0.6817  0.1226 -0.2011
    9MOL0     C 1069   7.131   6.294   8.114 -0.7462 -0.3650  0.3561
    9MOL0     C 1070   7.195   6.222   8.233 -0.3438  0.5483 -0.1120
    9MOL0     C 1071   7.354   6.262   8.236 -0.0444 -1.3040  0.4269
    9MOL0     C 1072   7.414   6.260   8.378  0.4676  0.2838 -0.1829
    9MOL0     N 1073   7.553   6.305   8.387  0.2194 -0.0676 -0.4552
    9MOL0     C 1074   7.652   6.231   8.446  0.2841  0.0243 -0.4329
    9MOL0     C 1075   7.766   6.290   8.418 -0.0050  0.1941 -0.0820
    9MOL0     C 1076   7.896   6.254   8.463 -0.3397 -0.3181  0.4374
    9MOL0     C 1077   7.914   6.280   8.609  1.0202 -0.2754  0.1653
    9MOL0     C 1078   8.042   6.217   8.663 -0.1908 -0.0692 -0.2576
    9MOL0     C 1079   8.075   6.253   8.809  0.4405 -0.5141  0.7930
    9MOL0     O 1080   8.187   6.346   8.810 -0.3857 -0.1574  0.1651
    9MOL0     C 1081   8.315   6.304   8.835 -0.8167  0.2958 -0.3786
    9MOL0     C 1082   8.362   6.171   8.811  0.6995  0.2965 -0.4370
    9MOL0     C 1083   8.491   6.128   8.843 -0.0673 -0.4575 -0.3338
    9MOL0     C 1084   8.587   6.216   8.893  0.2059 -0.7608  0.2828
    9MOL0     C 1085   8.724   6.187   8.934 -0.1416  0.1785  0.0563
    9MOL0     O 1086   8.802   6.278   8.998  0.0346  1.2818  0.3289
    9MOL0     C 1087   8.910   6.222   9.064  0.0871 -0.3339  0.9859
    9MOL0     C 1088   8.913   6.207   9.196  1.0484  0.3062 -0.1488
    9MOL0     C 1089   9.028   6.170   9.258  0.2404 -0.2476 -0.4864
    9MOL0     C 1090   9.149   6.148   9.190 -0.4341 -0.7127  0.6225
    9MOL0     O 1091   9.252   6.104   9.265 -0.8952 -0.1448  0.0480
    9MOL0     C 1092   9.384   6.107   9.212  1.0408 -0.6889 -0.1534
    9MOL0     C 1093   9.480   6.051   9.325 -0.0698 -0.3779 -0.0087
    9MOL0     C 1094   9.622   6.052   9.282  0.0618  0.5583 -0.1859
    9MOL0     C 1095   9.682   6.189   9.274 -0.3967  0.4112 -0.1624
    9MOL0     C 1096   9.835   6.174   9.295 -0.3749  0.5925  0.9523
    9MOL0     C 1097   9.901   6.314   9.283 -0.0390  0.5472 -0.5624
    9MOL0     C 1098  10.057   6.303   9.297 -0.6289  0.3075  0.1592
    9MOL0     C 1099  10.125   6.434   9.272  0.2608 -0.1624  0.7321
    9MOL0    Cl 1100  10.091   6.510   9.113 -0.2542 -0.1281 -0.1884
    9MOL0     C 1101   9.147   6.155   9.055  0.0859 -0.2331  0.2862
    9MOL0     C 1102   9.025   6.194   8.993 -0.2205  0.5823  0.5010
    9MOL0     O 1103   8.751   6.069   8.914 -0.0798  0.0820  0.2512
    9MOL0     C 1104   8.537   6.351   8.911 -0.4738  0.2304  0.4500
    9MOL0     C 1105   8.407   6.394   8.886 -0.2290 -0.4213  0.3409
    9MOL0     N 1106   7.741   6.401   8.332 -0.9725  0.2541  0.0418
    9MOL0     N 1107   7.613   6.407   8.320 -0.1372 -0.7543  0.0688
    9MOL0     C 1108   7.061   6.460   8.596  0.7458  0.9557 -0.0791
    9MOL0     C 1109   7.187   6.472   8.647 -0.1814  0.1482  0.6213
    9MOL0     C 1110   7.589   6.287   8.853 -0.2304 -0.0369 -1.5617
    9MOL0     C 1111   7.688   6.194   8.853 -0.4348 -0.1450  0.3708
    9MOL0     C 1112   7.790   6.196   8.946 -0.1062 -0.5368  0.2714
    9MOL0     C 1113   7.795   6.285   9.053 -0.0335 -0.0226  1.6177
    9MOL0     O 1114   7.890   6.293   9.149  0.2535  0.0559 -0.1575
    9MOL0     C 1115   7.984   6.189   9.155 -0.1584  0.0524  0.4598
    9MOL0     C 1116   8.106   6.229   9.250 -0.1458 -0.1147 -0.7307
    9MOL0     C 1117   8.148   6.372   9.194 -0.3022  0.5234 -0.6029
    9MOL0     C 1118   8.271   6.430   9.267  0.7064 -0.2461  0.4981
    9MOL0     C 1119   8.378   6.341   9.306 -0.2366  0.7494 -0.9455
    9MOL0     C 1120   8.471   6.255   9.317  0.1389  0.1852 -0.2869
    9MOL0     C 1121   7.698   6.384   9.045  0.0762 -0.1656 -1.0310
    9MOL0     C 1122   7.594   6.383   8.951 -0.0048 -0.2571 -1.2440
    9MOL0     H 1123   7.242   6.140   8.702  0.8949  1.2476  1.1741
    9MOL0     H 1124   7.032   6.123   8.603 -2.3213  0.5692  1.3899
    9MOL0     H 1125   6.821   6.508   8.478 -1.4756  0.3131 -2.2978
    9MOL0     H 1126   6.724   6.378   8.415 -0.0553  1.8387 -2.5392
    9MOL0     H 1127   6.994   6.457   8.310 -0.3770  1.5840 -1.4494
    9MOL0     H 1128   6.847   6.477   8.212 -3.0810 -4.1206 -2.6838
    9MOL0     H 1129   6.799   6.247   8.191 -1.2879  1.7804  1.1382
    9MOL0     H 1130   6.940   6.199   8.289  0.0463  0.4098 -0.2701
    9MOL0     H 1131   6.965   6.167   8.052 -0.5960 -0.9764  2.1875
    9MOL0     H 1132   6.950   6.345   8.026  0.5135  0.3440 -0.5619
    9MOL0     H 1133   7.140   6.402   8.129 -0.1396 -0.4439  0.5831
    9MOL0     H 1134   7.178   6.265   8.019  0.4088  2.1059  0.0814
    9MOL0     H 1135   7.185   6.114   8.219 -0.2080  0.6906 -1.3319
    9MOL0     H 1136   7.143   6.249   8.326  2.2732  2.6770  0.8751
    9MOL0     H 1137   7.411   6.207   8.161 -1.7952 -1.3829 -0.8897
    9MOL0     H 1138   7.354   6.370   8.218 -2.8813 -1.3416 -0.1523
    9MOL0     H 1139   7.405   6.159   8.420 -0.3569  0.5420  0.3032
    9MOL0     H 1140   7.354   6.332   8.436 -0.6103  0.6736 -1.7362
    9MOL0     H 1141   7.629   6.150   8.515  3.5625  0.3023  1.1571
    9MOL0     H 1142   7.965   6.307   8.396 -1.6012 -0.3490 -0.9342
    9MOL0     H 1143   7.927   6.151   8.447  1.8845  0.4355 -0.5282
    9MOL0     H 1144   7.831   6.248   8.672  0.2264 -0.6646 -1.0416
    9MOL0     H 1145   7.916   6.388   8.622 -0.1267 -0.1252 -0.7066
    9MOL0     H 1146   8.029   6.110   8.645 -0.9405  0.2126 -1.4967
    9MOL0     H 1147   8.125   6.239   8.595 -0.3570  1.1718 -0.0869
    9MOL0     H 1148   8.103   6.164   8.865  3.6127 -0.8368 -1.0525
    9MOL0     H 1149   7.984   6.301   8.847 -1.6481 -3.1760 -0.4800
    9MOL0     H 1150   8.299   6.087   8.783  2.0627  0.2790 -3.9580
    9MOL0     H 1151   8.509   6.021   8.845 -0.9552 -0.6200 -0.5537
    9MOL0     H 1152   8.818   6.222   9.246 -0.1343 -3.6672 -0.9172
    9MOL0     H 1153   9.041   6.165   9.366  5.7449 -1.0241 -0.8655
    9MOL0     H 1154   9.400   6.215   9.201  0.2595 -0.3440  1.7588
    9MOL0     H 1155   9.388   6.061   9.112 -0.1626 -0.6955 -0.2151
    9MOL0     H 1156   9.446   5.950   9.350  1.2109 -0.4272  1.6585
    9MOL0     H 1157   9.468   6.107   9.418  0.3203 -0.8140  0.3062
    9MOL0     H 1158   9.619   6.013   9.180 -1.2428  0.8759 -0.2859
    9MOL0     H 1159   9.685   5.995   9.351  1.2004  4.0012  1.8842
    9MOL0     H 1160   9.651   6.245   9.185 -2.1736 -0.4334 -0.1093
    9MOL0     H 1161   9.637   6.241   9.359  1.6788 -2.5456  3.0018
    9MOL0     H 1162   9.879   6.110   9.218  0.4301  1.2448  0.8570
    9MOL0     H 1163   9.851   6.145   9.399  1.1387  1.3258  0.9541
    9MOL0     H 1164   9.864   6.378   9.363 -0.0474  0.9781 -0.9085
    9MOL0     H 1165   9.873   6.359   9.188  2.9952  2.0637 -0.8781
    9MOL0     H 1166  10.075   6.281   9.402 -0.1543 -2.0330 -0.3489
    9MOL0     H 1167  10.100   6.226   9.232  0.5526  0.9243  0.1776
    9MOL0     H 1168  10.232   6.419   9.289  0.3993 -0.5177 -0.3406
    9MOL0     H 1169  10.105   6.518   9.338 -0.7477  0.5171 -0.3926
    9MOL0     H 1170   9.230   6.123   8.992  0.1327  3.3546 -1.7347
    9MOL0     H 1171   9.027   6.193   8.885 -1.7833  2.3187  0.3958
    9MOL0     H 1172   8.616   6.422   8.934  0.1825 -0.1337 -0.6151
    9MOL0     H 1173   8.366   6.494   8.896 -1.3248 -1.0505  2.6910
    9MOL0     H 1174   6.999   6.543   8.562 -1.7317 -0.8398 -0.2390
    9MOL0     H 1175   7.237   6.567   8.656 -3.1367  1.7830  1.2820
    9MOL0     H 1176   7.690   6.108   8.787  0.6831  0.8306 -0.9249
    9MOL0     H 1177   7.865   6.119   8.934 -0.1801 -0.6722  0.6574
    9MOL0     H 1178   8.021   6.167   9.055 -1.5834  2.7734 -0.7675
    9MOL0     H 1179   7.925   6.103   9.188 -2.1578  1.2791  0.2351
    9MOL0     H 1180   8.075   6.234   9.354  0.2264  0.5173 -0.6457
    9MOL0     H 1181   8.183   6.155   9.231  2.4695  2.1802  0.2283
    9MOL0     H 1182   8.065   6.444   9.198  1.4433  2.5923  1.7242
    9MOL0     H 1183   8.167   6.361   9.087  0.7535  0.2714 -0.3992
    9MOL0     H 1184   8.307   6.514   9.207 -3.1300  1.1670 -0.0874
    9MOL0     H 1185   8.229   6.469   9.360  0.6533 -0.0628  0.3973
    9MOL0     H 1186   8.552   6.185   9.325  0.5353  0.6152 -0.4950
    9MOL0     H 1187   7.700   6.464   9.117  1.7083 -0.5576 -0.5937
    9MOL0     H 1188   7.512   6.454   8.961 -0.0003 -0.4398  0.2357
   10MOL0     O 1189  10.691  10.915   8.164 -0.0317 -0.3389 -0.0735
   10MOL0     C 1190  10.651  10.999   8.085  0.9260 -0.8653 -0.1737
   10MOL0     O 1191  10.734  11.084   8.005  0.0550  0.0958  0.0467
   10MOL0     C 1192  10.857  11.119   8.051 -0.6838 -0.4306 -0.1804
   10MOL0     C 1193  10.869  11.152   8.188 -0.5369  0.0618  0.0524
   10MOL0     C 1194  10.980  11.231   8.230  0.1974  0.0286 -0.7749
   10MOL0     C 1195  11.080  11.279   8.141 -0.1815 -0.3003  0.2972
   10MOL0     O 1196  11.178  11.358   8.200 -0.3992  0.7061  0.0672
   10MOL0     C 1197  11.296  11.369   8.118 -0.5570  0.5432 -0.8507
   10MOL0     C 1198  11.388  11.470   8.189  0.6519 -0.3480  0.9157
   10MOL0     C 1199  11.499  11.505   8.088  0.6695  0.0089  0.0801
   10MOL0     C 1200  11.592  11.606   8.144 -0.0529 -0.9858 -0.0786
   10MOL0     C 1201  11.719  11.614   8.062  0.2744  0.7716  0.0555
   10MOL0     C 1202  11.825  11.679   8.139 -0.2838  0.0781  0.3061
   10MOL0     C 1203  11.788  11.834   8.165  0.3901  0.1268  0.2220
   10MOL0     C 1204  11.912  11.921   8.186  1.0606 -0.5227  0.0931
   10MOL0     N 1205  12.010  11.945   8.084  0.0024  0.0542 -0.1784
   10MOL0     C 1206  11.976  11.923   7.952 -0.1558  0.0126  0.0795
   10MOL0     C 1207  12.090  11.957   7.885  0.3482  0.9075 -0.2390
   10MOL0     C 1208  12.108  11.963   7.739 -0.0643  0.0043 -0.7345
   10MOL0     C 1209  12.063  11.845   7.657 -0.5948 -0.3101  0.1799
   10MOL0     C 1210  12.122  11.710   7.713 -0.3752 -0.5686 -0.0195
   10MOL0     C 1211  12.081  11.587   7.628  0.3412 -0.1865  1.4016
   10MOL0     O 1212  11.968  11.614   7.535 -0.3327  0.3164  0.7944
   10MOL0     C 1213  11.845  11.553   7.570 -1.0972 -0.0795 -0.2566
   10MOL0     C 1214  11.808  11.533   7.702 -0.0186 -0.4231  0.8193
   10MOL0     C 1215  11.682  11.481   7.738 -0.1415 -0.6227  0.4392
   10MOL0     C 1216  11.596  11.443   7.635  0.4108  0.6281  0.1317
   10MOL0     C 1217  11.468  11.385   7.682 -0.2153  0.5071  0.4562
   10MOL0     O 1218  11.400  11.340   7.572 -0.4182  0.4260 -0.3129
   10MOL0     C 1219  11.270  11.295   7.592 -0.4790 -0.4432 -0.5407
   10MOL0     C 1220  11.248  11.170   7.544 -0.9548  0.4724 -0.0927
   10MOL0     C 1221  11.124  11.111   7.538  0.4427  0.2370 -0.7435
   10MOL0     C 1222  11.010  11.183   7.588 -0.0790 -0.6033  0.2950
   10MOL0     O 1223  10.882  11.138   7.600  0.1408 -1.1295  0.3899
   10MOL0     C 1224  10.833  11.094   7.470 -0.3035  0.3972 -0.2168
   10MOL0     C 1225  10.684  11.113   7.470 -0.3346  0.0780  0.1136
   10MOL0     C 1226  10.641  11.253   7.531 -0.3742  0.7064  0.2238
   10MOL0     C 1227  10.498  11.299   7.515 -0.2034  0.7777  0.6346
   10MOL0     C 1228  10.396  11.200   7.577  0.2534 -0.2090  0.2122
   10MOL0     C 1229  10.251  11.237   7.527 -0.5770  0.7751 -0.4011
   10MOL0     C 1230  10.151  11.119   7.531  0.3318 -0.0636 -0.1239
   10MOL0     C 1231  10.103  11.096   7.674 -0.3689  0.6827 -0.2530
   10MOL0    Cl 1232  10.011  10.950   7.679  0.0303  0.3059  0.2405
   10MOL0     C 1233  11.035  11.318   7.630  0.3126  0.1700  0.0409
   10MOL0     C 1234  11.159  11.379   7.625 -0.4730  0.4205 -0.9424
   10MOL0     O 1235  11.432  11.367   7.800 -0.6233  0.0661  0.0898
   10MOL0     C 1236  11.630  11.460   7.499 -0.1854  0.0851 -0.1397
   10MOL0     C 1237  11.756  11.515   7.466  0.0576  0.6887 -0.0813
   10MOL0     N 1238  12.185  11.979   7.977  0.1521  0.9648  0.2790
   10MOL0     N 1239  12.138  11.973   8.090 -0.0513 -0.8280 -0.3093
   10MOL0     C 1240  11.061  11.251   8.003 -0.7622 -0.1722 -1.6695
   10MOL0     C 1241  10.954  11.169   7.963 -0.2625 -0.3275 -0.4017
   10MOL0     C 1242  10.504  11.011   8.079 -0.3585 -0.2693 -1.1117
   10MOL0     C 1243  10.437  11.130   8.048 -0.2226 -0.3208  0.2056
   10MOL0     C 1244  10.299  11.140   8.038 -0.5740 -0.9194 -0.6393
   10MOL0     C 1245  10.215  11.032   8.078 -0.2569  0.6185  0.2670
   10MOL0     O 1246  10.073  11.050   8.075 -0.5726  0.4885  0.1393
   10MOL0     C 1247   9.994  10.931   8.065  0.7677  0.5757  0.2744
   10MOL0     C 1248   9.846  10.969   8.026 -0.0083  0.2962 -0.0189
   10MOL0     C 1249   9.757  10.839   7.999  0.2436  0.7837  0.3825
   10MOL0     C 1250   9.606  10.872   7.964 -0.0476 -0.0340  0.2480
   10MOL0     C 1251   9.603  10.959   7.847 -0.4921 -0.3326  0.9914
   10MOL0     C 1252   9.611  11.020   7.744  0.1257  0.4566  0.7798
   10MOL0     C 1253  10.278  10.919   8.116  0.0462  0.4280  0.2610
   10MOL0     C 1254  10.421  10.898   8.113 -0.9040  0.0257 -0.3808
   10MOL0     H 1255  10.794  11.126   8.262 -0.8005  1.9095  0.4743
   10MOL0     H 1256  10.993  11.231   8.338  0.5900 -2.2328 -0.7623
   10MOL0     H 1257  11.274  11.411   8.019 -1.0836  0.8713 -0.6005
   10MOL0     H 1258  11.344  11.273   8.102  0.8927  0.7862  1.6081
   10MOL0     H 1259  11.426  11.437   8.286 -0.6599  0.3045  1.6765
   10MOL0     H 1260  11.333  11.561   8.213  1.7002  0.0840  1.8054
   10MOL0     H 1261  11.453  11.542   7.996  0.9591  1.3204  0.4432
   10MOL0     H 1262  11.559  11.417   8.065  1.2448 -0.0280  1.6310
   10MOL0     H 1263  11.553  11.708   8.136 -1.3213 -1.4391  0.2296
   10MOL0     H 1264  11.599  11.592   8.252 -0.0428  1.2832  0.2652
   10MOL0     H 1265  11.696  11.655   7.963 -1.5696 -0.1569  0.0538
   10MOL0     H 1266  11.753  11.514   8.037  0.9932  1.1558 -0.5364
   10MOL0     H 1267  11.910  11.684   8.070  1.7090 -0.5002  2.5649
   10MOL0     H 1268  11.863  11.640   8.234  1.4365 -0.0924 -0.4120
   10MOL0     H 1269  11.732  11.877   8.081  2.4097  0.9531 -0.7653
   10MOL0     H 1270  11.735  11.844   8.260 -0.5990 -2.9137  0.0867
   10MOL0     H 1271  11.963  11.883   8.275  1.1677  2.5960  1.4832
   10MOL0     H 1272  11.869  12.020   8.205 -4.2254 -2.0961 -1.8108
   10MOL0     H 1273  11.884  11.919   7.894  0.1317 -0.4538 -0.3552
   10MOL0     H 1274  12.213  11.986   7.719  0.5144  1.4342  3.1283
   10MOL0     H 1275  12.039  12.042   7.709  0.4053  1.0784  0.8807
   10MOL0     H 1276  12.082  11.867   7.552  0.5410  1.0302  0.6345
   10MOL0     H 1277  11.956  11.834   7.674 -0.3066 -1.7195  1.3118
   10MOL0     H 1278  12.232  11.706   7.714 -0.2892 -0.9676  4.0172
   10MOL0     H 1279  12.104  11.694   7.819  0.1976  2.1510  0.5580
   10MOL0     H 1280  12.054  11.500   7.688 -3.1341 -1.4574 -1.5863
   10MOL0     H 1281  12.168  11.567   7.565  1.0426 -1.2366  2.6635
   10MOL0     H 1282  11.877  11.565   7.781 -0.5986 -0.6547  1.4302
   10MOL0     H 1283  11.659  11.472   7.843 -3.2558 -0.6328 -0.1614
   10MOL0     H 1284  11.339  11.114   7.524  0.2666  1.6928  1.6134
   10MOL0     H 1285  11.121  11.006   7.511 -2.1204 -0.7199  2.5305
   10MOL0     H 1286  10.867  10.995   7.438  2.7672  1.7611 -1.5374
   10MOL0     H 1287  10.882  11.162   7.401  1.4241  2.4756  2.8321
   10MOL0     H 1288  10.625  11.035   7.519 -0.3812  0.9086  1.4213
   10MOL0     H 1289  10.644  11.111   7.368 -2.0103 -1.8279  0.7303
   10MOL0     H 1290  10.710  11.330   7.495  0.4366  0.2825  0.8499
   10MOL0     H 1291  10.667  11.254   7.637 -0.5485  2.0039  0.2777
   10MOL0     H 1292  10.482  11.396   7.563  0.4826  1.4579 -0.4538
   10MOL0     H 1293  10.476  11.316   7.409 -3.8580  2.6703  1.5581
   10MOL0     H 1294  10.396  11.216   7.685  0.7407 -0.5369  0.2638
   10MOL0     H 1295  10.415  11.096   7.551 -0.3481 -0.0204 -1.1025
   10MOL0     H 1296  10.262  11.266   7.422  1.2144 -1.0269 -0.7809
   10MOL0     H 1297  10.211  11.320   7.586 -3.9237 -1.0541  0.1528
   10MOL0     H 1298  10.070  11.143   7.462  0.9838 -1.6072 -1.5010
   10MOL0     H 1299  10.189  11.025   7.489 -3.6406 -1.5566 -0.7750
   10MOL0     H 1300  10.026  11.162   7.715  0.1450 -0.8476  3.5430
   10MOL0     H 1301  10.184  11.089   7.747 -0.8578 -1.9281  0.1155
   10MOL0     H 1302  10.945  11.352   7.680 -0.0636  0.3375 -0.7327
   10MOL0     H 1303  11.186  11.481   7.648 -1.0441 -0.0429  2.2896
   10MOL0     H 1304  11.573  11.418   7.417  0.2667  0.4843 -0.6676
   10MOL0     H 1305  11.780  11.531   7.361  0.1613 -0.5052 -0.2549
   10MOL0     H 1306  11.130  11.296   7.933  0.0588 -0.4705 -1.0733
   10MOL0     H 1307  10.935  11.134   7.862 -1.4080 -0.0552 -0.2863
   10MOL0     H 1308  10.502  11.213   8.024 -0.8958  0.5861  1.3526
   10MOL0     H 1309  10.263  11.241   8.024  1.6293  0.3738  1.9953
   10MOL0     H 1310   9.986  10.861   8.149 -0.7810 -0.2254 -0.5102
   10MOL0     H 1311  10.027  10.861   7.988  0.9308  1.3108 -0.3281
   10MOL0     H 1312   9.797  11.034   8.099  0.2861  0.1208  0.3360
   10MOL0     H 1313   9.858  11.022   7.931  0.4234 -0.2958 -0.2995
   10MOL0     H 1314   9.756  10.768   8.082 -1.1185  0.0722 -0.2196
   10MOL0     H 1315   9.796  10.782   7.913  0.3375 -0.8307  1.4465
   10MOL0     H 1316   9.563  10.775   7.940 -0.3800 -0.6112  2.8266
   10MOL0     H 1317   9.561  10.924   8.049  0.8876  1.7765 -0.2971
   10MOL0     H 1318   9.614  11.074   7.651  0.0008 -1.8684 -0.6428
   10MOL0     H 1319  10.223  10.835   8.157 -1.6320  1.0987 -0.5170
   10MOL0     H 1320  10.464  10.802   8.142 -2.1746 -0.1496  1.0200
   11MOL0     O 1321   5.966   0.939   0.915  0.2955  0.0561  0.1390
   11MOL0     C 1322   5.959   0.883   1.024  0.5423 -0.0814 -0.3133
   11MOL0     O 1323   5.857   0.903   1.121 -0.5684 -1.1608  0.2597
   11MOL0     C 1324   5.772   1.010   1.100 -0.4105  0.9376 -1.0516
   11MOL0     C 1325   5.649   0.989   1.046 -0.3406  1.1540 -0.2026
   11MOL0     C 1326   5.565   1.094   1.016 -0.1151  0.5108 -0.6546
   11MOL0     C 1327   5.601   1.226   1.053 -0.1851 -0.4079 -0.0703
   11MOL0     O 1328   5.544   1.346   1.020  0.0174  0.3865  0.2594
   11MOL0     C 1329   5.395   1.339   1.006 -0.3827 -0.1374  0.6138
   11MOL0     C 1330   5.343   1.469   0.957 -0.6199 -0.0735  0.4217
   11MOL0     C 1331   5.195   1.450   0.926 -0.3388 -0.5933 -0.4442
   11MOL0     C 1332   5.135   1.564   0.840 -0.3054 -0.5434  0.1414
   11MOL0     C 1333   5.010   1.508   0.763  0.3320  0.4434  0.0366
   11MOL0     C 1334   4.944   1.631   0.707 -0.0213 -0.4412  0.4918
   11MOL0     C 1335   4.799   1.597   0.689  0.0588 -0.1926  0.2439
   11MOL0     C 1336   4.714   1.698   0.607 -0.7873  0.1504 -0.5084
   11MOL0     N 1337   4.577   1.701   0.659  0.0202  0.5939  0.2198
   11MOL0     C 1338   4.494   1.593   0.655  1.1796 -0.7864 -0.7017
   11MOL0     C 1339   4.388   1.645   0.697  0.6940 -0.3546  0.0479
   11MOL0     C 1340   4.261   1.562   0.702 -0.1891 -0.9043 -0.5132
   11MOL0     C 1341   4.135   1.619   0.762  0.3267  0.3924 -0.4020
   11MOL0     C 1342   4.016   1.531   0.714 -0.1445 -0.1207  0.3822
   11MOL0     C 1343   3.889   1.553   0.785  0.9344 -0.3400 -0.0912
   11MOL0     O 1344   3.809   1.441   0.736 -0.3275  0.2298  0.1540
   11MOL0     C 1345   3.671   1.439   0.777 -0.7041 -0.2365 -0.0984
   11MOL0     C 1346   3.602   1.544   0.847 -0.9572 -0.2014 -1.1462
   11MOL0     C 1347   3.470   1.535   0.874  0.9307 -0.2677 -0.6192
   11MOL0     C 1348   3.388   1.429   0.836 -0.4438 -0.2669  0.1822
   11MOL0     C 1349   3.249   1.432   0.879 -0.5994 -0.9142  0.8534
   11MOL0     O 1350   3.179   1.335   0.828  0.0043 -0.2070 -0.4135
   11MOL0     C 1351   3.053   1.326   0.865 -0.0532  0.2858  0.4727
   11MOL0     C 1352   2.952   1.354   0.774  0.5381  0.1038  0.3052
   11MOL0     C 1353   2.817   1.331   0.800  0.3689 -1.0260  0.1300
   11MOL0     C 1354   2.786   1.268   0.918  0.2324  0.4075  0.5433
   11MOL0     O 1355   2.660   1.223   0.950  0.1326 -0.5963  0.4732
   11MOL0     C 1356   2.556   1.305   0.907  0.5944  0.0720 -0.1647
   11MOL0     C 1357   2.429   1.264   0.978 -0.3895  0.3720  0.3290
   11MOL0     C 1358   2.390   1.320   1.123 -0.4029 -0.7307 -0.2003
   11MOL0     C 1359   2.483   1.266   1.234  0.7368 -0.6824  0.1939
   11MOL0     C 1360   2.484   1.340   1.370  0.3438 -0.4744 -0.0364
   11MOL0     C 1361   2.364   1.324   1.460  0.0772  0.5363  0.4742
   11MOL0     C 1362   2.343   1.177   1.492 -0.5932  0.3079 -0.7405
   11MOL0     C 1363   2.225   1.171   1.589 -0.4362 -0.1638  1.1484
   11MOL0    Cl 1364   2.068   1.199   1.511 -0.0413  0.3258  0.4762
   11MOL0     C 1365   2.885   1.241   1.014  0.7464  1.3256  0.7723
   11MOL0     C 1366   3.015   1.278   0.982 -1.0556  0.8298 -0.4860
   11MOL0     O 1367   3.211   1.507   0.964  0.1574 -0.7249  0.2070
   11MOL0     C 1368   3.452   1.322   0.757 -0.6258 -0.2143 -0.3601
   11MOL0     C 1369   3.595   1.334   0.735 -0.1432  0.0497 -0.5138
   11MOL0     N 1370   4.399   1.782   0.735  1.1463 -0.0279 -0.5570
   11MOL0     N 1371   4.520   1.814   0.709  0.1532 -0.5445  0.0006
   11MOL0     C 1372   5.731   1.252   1.112  0.4668  0.1855 -0.4819
   11MOL0     C 1373   5.812   1.138   1.130  0.4747  0.8535  0.8492
   11MOL0     C 1374   6.049   0.770   1.045 -0.4190  1.1136 -0.5178
   11MOL0     C 1375   6.052   0.700   1.166  0.3266  0.0118  0.5557
   11MOL0     C 1376   6.131   0.585   1.183 -0.1152  0.1132  0.4616
   11MOL0     C 1377   6.204   0.544   1.065  0.4921 -0.1029 -0.0511
   11MOL0     O 1378   6.264   0.423   1.073  0.0430  0.3162 -0.4742
   11MOL0     C 1379   6.199   0.303   1.124  0.3087 -0.9571 -0.6126
   11MOL0     C 1380   6.165   0.194   1.019  0.5750  0.1858 -0.0819
   11MOL0     C 1381   6.075   0.250   0.909 -0.9579 -0.7187  0.1301
   11MOL0     C 1382   6.045   0.154   0.789 -0.3339  0.2577 -0.2334
   11MOL0     C 1383   5.985   0.022   0.832 -0.8552  0.0710  0.8150
   11MOL0     C 1384   5.945  -0.086   0.866 -0.5650  0.3908  0.8990
   11MOL0     C 1385   6.208   0.622   0.950 -0.2411 -0.2981  0.0282
   11MOL0     C 1386   6.130   0.735   0.936  0.4738  0.0493 -0.2842
   11MOL0     H 1387   5.625   0.888   1.015 -1.0366  1.8436 -2.0066
   11MOL0     H 1388   5.479   1.074   0.953  1.0472 -0.2962 -2.0327
   11MOL0     H 1389   5.343   1.323   1.101 -1.9072 -1.9426 -0.4448
   11MOL0     H 1390   5.359   1.262   0.937  0.4534  0.4970 -0.5615
   11MOL0     H 1391   5.390   1.497   0.862 -3.7610  4.2493 -0.1967
   11MOL0     H 1392   5.369   1.549   1.027 -2.4770 -1.9751  3.5342
   11MOL0     H 1393   5.141   1.445   1.021  1.1834  3.4930  0.8619
   11MOL0     H 1394   5.195   1.358   0.867 -1.6338 -1.5281  0.9540
   11MOL0     H 1395   5.107   1.652   0.898 -2.8988 -0.5593 -0.9421
   11MOL0     H 1396   5.205   1.601   0.764 -0.7237 -2.7883 -1.4609
   11MOL0     H 1397   4.951   1.445   0.831  2.0619 -1.4463 -0.1156
   11MOL0     H 1398   5.041   1.449   0.676  1.4407 -1.7377  1.8031
   11MOL0     H 1399   5.001   1.661   0.620  0.2102 -3.1198 -0.3931
   11MOL0     H 1400   4.946   1.708   0.784 -0.7255 -0.0293  0.1088
   11MOL0     H 1401   4.795   1.507   0.626 -0.0276  1.8725 -2.9638
   11MOL0     H 1402   4.753   1.572   0.785  1.4002 -0.8546  0.7305
   11MOL0     H 1403   4.691   1.668   0.504 -1.5658  0.6567 -0.4885
   11MOL0     H 1404   4.757   1.797   0.618 -1.0593  0.2372 -0.2122
   11MOL0     H 1405   4.513   1.489   0.631  1.4426 -1.1778  1.0787
   11MOL0     H 1406   4.276   1.461   0.740 -0.4404 -1.1623 -1.0951
   11MOL0     H 1407   4.236   1.552   0.596 -0.0887 -2.1754 -0.4256
   11MOL0     H 1408   4.122   1.726   0.744 -0.7403  0.3686  0.1287
   11MOL0     H 1409   4.142   1.609   0.871  2.2540  0.6587 -0.4725
   11MOL0     H 1410   4.016   1.537   0.605  2.9832 -2.8551  0.0708
   11MOL0     H 1411   4.042   1.430   0.746 -0.4541 -1.9173 -4.2992
   11MOL0     H 1412   3.848   1.651   0.757  2.4496  0.6983  1.1055
   11MOL0     H 1413   3.893   1.546   0.894  1.1821  2.9495  0.2366
   11MOL0     H 1414   3.669   1.618   0.890  1.7841 -0.8491 -4.0000
   11MOL0     H 1415   3.427   1.610   0.940  2.3774 -0.3888  0.5149
   11MOL0     H 1416   2.982   1.411   0.686  2.0106  1.8678  1.8479
   11MOL0     H 1417   2.734   1.351   0.733 -1.6045  0.9711  2.9736
   11MOL0     H 1418   2.544   1.298   0.799  1.3139 -0.0037 -0.2484
   11MOL0     H 1419   2.570   1.408   0.942 -0.5873 -0.0445  0.6956
   11MOL0     H 1420   2.411   1.157   0.965  2.8012 -0.0795 -1.6644
   11MOL0     H 1421   2.345   1.307   0.923 -3.7436 -0.1892  4.4998
   11MOL0     H 1422   2.287   1.288   1.142 -0.0468 -2.9311 -1.5468
   11MOL0     H 1423   2.389   1.428   1.111  1.0307 -0.8166 -1.3586
   11MOL0     H 1424   2.457   1.160   1.244 -1.0119 -0.3533 -0.3871
   11MOL0     H 1425   2.585   1.264   1.197  0.3480 -0.6327 -0.9151
   11MOL0     H 1426   2.486   1.448   1.349 -0.4120 -0.1311  1.4780
   11MOL0     H 1427   2.576   1.314   1.425  0.0262 -1.1204  0.1978
   11MOL0     H 1428   2.278   1.379   1.421 -0.6374 -0.0162  1.2267
   11MOL0     H 1429   2.397   1.389   1.542  2.1568  0.6437 -0.3757
   11MOL0     H 1430   2.334   1.106   1.409  0.1151 -1.4187  0.5959
   11MOL0     H 1431   2.433   1.151   1.549 -0.4204 -1.9118 -1.8957
   11MOL0     H 1432   2.241   1.247   1.666 -0.3046  0.5531  0.4281
   11MOL0     H 1433   2.212   1.069   1.626  1.1251 -0.9446 -0.3132
   11MOL0     H 1434   2.858   1.194   1.108 -1.1852  1.1156  0.1587
   11MOL0     H 1435   3.099   1.275   1.051 -1.1336  4.0195 -0.0826
   11MOL0     H 1436   3.416   1.222   0.736  2.7959 -1.4729 -0.7985
   11MOL0     H 1437   3.648   1.270   0.665  0.8199  1.8874 -1.5385
   11MOL0     H 1438   5.770   1.349   1.142 -2.9942  0.5954  3.5152
   11MOL0     H 1439   5.906   1.148   1.182 -0.4790  3.2917  2.3070
   11MOL0     H 1440   5.989   0.734   1.248  0.5543  0.0678  0.7060
   11MOL0     H 1441   6.120   0.521   1.270 -0.8853 -1.1930 -0.5674
   11MOL0     H 1442   6.099   0.325   1.163  0.3822  0.0036 -0.9330
   11MOL0     H 1443   6.257   0.262   1.207  1.0712  0.7614 -0.2462
   11MOL0     H 1444   6.263   0.158   0.984  0.0829 -1.3883  0.0765
   11MOL0     H 1445   6.118   0.109   1.070 -2.0167  0.0063 -2.5201
   11MOL0     H 1446   6.128   0.332   0.860 -2.2992 -0.1755 -0.4597
   11MOL0     H 1447   5.976   0.272   0.949 -0.7886 -0.3782  0.3627
   11MOL0     H 1448   5.978   0.195   0.713  0.7460 -1.1253 -1.9983
   11MOL0     H 1449   6.134   0.139   0.728  1.0984  0.5029  1.6990
   11MOL0     H 1450   5.895  -0.179   0.886 -3.5259  1.7888  0.4925
   11MOL0     H 1451   6.272   0.592   0.867 -0.5692 -0.3048 -0.2244
   11MOL0     H 1452   6.123   0.794   0.844 -0.2329  0.2380 -0.1185
   12MOL0     O 1453   6.567   6.840   7.329 -0.3816  0.3748  0.0896
   12MOL0     C 1454   6.643   6.929   7.284 -0.4854 -0.3024  0.0677
   12MOL0     O 1455   6.611   7.061   7.267  0.1693 -0.4402  0.0934
   12MOL0     C 1456   6.479   7.080   7.267  0.3220 -0.5227 -1.2814
   12MOL0     C 1457   6.406   7.080   7.390  0.7683 -0.9450  0.1220
   12MOL0     C 1458   6.266   7.122   7.382 -0.0848  0.4457 -1.5020
   12MOL0     C 1459   6.213   7.178   7.266  0.5300  0.0369 -0.6999
   12MOL0     O 1460   6.086   7.233   7.249 -0.3107 -0.0987  0.0561
   12MOL0     C 1461   6.000   7.232   7.367 -0.5658  0.3782 -0.0381
   12MOL0     C 1462   5.873   7.306   7.338 -0.2973  0.1583 -0.2993
   12MOL0     C 1463   5.774   7.307   7.454 -0.0409 -0.1459  0.1257
   12MOL0     C 1464   5.647   7.382   7.414 -0.2104 -0.5505 -1.2122
   12MOL0     C 1465   5.542   7.379   7.530 -0.1968  0.3606  0.3249
   12MOL0     C 1466   5.404   7.409   7.471  0.3273  0.2633  0.3175
   12MOL0     C 1467   5.292   7.384   7.578 -0.0236 -0.1884  0.7641
   12MOL0     C 1468   5.172   7.332   7.513  0.2018 -0.3411  0.7554
   12MOL0     N 1469   5.065   7.309   7.617 -0.6152  0.0167  0.8101
   12MOL0     C 1470   4.952   7.382   7.612  0.8256 -0.3450 -1.0880
   12MOL0     C 1471   4.889   7.352   7.726  0.0090  0.4838 -0.1191
   12MOL0     C 1472   4.742   7.378   7.757  0.5588 -0.1751 -0.4932
   12MOL0     C 1473   4.722   7.464   7.880  0.4617 -0.1230  0.2059
   12MOL0     C 1474   4.737   7.386   8.015 -0.3430 -0.2899  0.3393
   12MOL0     C 1475   4.602   7.346   8.075  0.8416 -0.4568  0.2130
   12MOL0     O 1476   4.523   7.463   8.111 -0.3942  0.2443 -0.3991
   12MOL0     C 1477   4.395   7.456   8.146  0.5531  0.5001  0.3690
   12MOL0     C 1478   4.303   7.347   8.136 -0.5078  0.0989  0.0127
   12MOL0     C 1479   4.176   7.361   8.180 -0.0478  0.4213 -0.1795
   12MOL0     C 1480   4.122   7.472   8.240  0.2811 -0.2824  0.5246
   12MOL0     C 1481   3.984   7.489   8.290 -0.4372  0.3694 -0.2817
   12MOL0     O 1482   3.904   7.382   8.300  0.9444 -0.4178  0.4163
   12MOL0     C 1483   3.799   7.374   8.403 -0.1494 -0.3481 -0.3461
   12MOL0     C 1484   3.803   7.433   8.535  0.2664  0.1963  0.7109
   12MOL0     C 1485   3.688   7.415   8.627 -0.1668 -0.2930 -0.1299
   12MOL0     C 1486   3.576   7.352   8.586 -1.0339 -0.2166 -0.8069
   12MOL0     O 1487   3.478   7.332   8.675  0.0284  0.3428 -0.7275
   12MOL0     C 1488   3.365   7.253   8.652  0.3737 -0.3027  0.4897
   12MOL0     C 1489   3.284   7.248   8.772  0.0280  0.3144  0.3783
   12MOL0     C 1490   3.201   7.365   8.807 -0.4662  0.7329 -1.4070
   12MOL0     C 1491   3.144   7.372   8.957  0.2082 -1.1082  0.9034
   12MOL0     C 1492   3.082   7.235   9.013  1.0039 -0.6964  0.1649
   12MOL0     C 1493   2.932   7.238   9.056  0.3995  0.1177 -0.0814
   12MOL0     C 1494   2.878   7.096   9.098 -0.2564  0.1133 -0.0838
   12MOL0     C 1495   2.967   7.030   9.204  0.0797 -0.6058  0.9201
   12MOL0    Cl 1496   3.010   7.160   9.323 -0.5328  0.1859  0.0921
   12MOL0     C 1497   3.570   7.298   8.459 -0.3520  0.5956 -0.4001
   12MOL0     C 1498   3.673   7.312   8.363 -0.0030  0.3374 -0.9095
   12MOL0     O 1499   3.950   7.604   8.327  0.4022  0.2063 -0.8372
   12MOL0     C 1500   4.221   7.580   8.242  0.3844  0.0680  0.4510
   12MOL0     C 1501   4.348   7.573   8.191 -0.0445  0.3479 -1.3692
   12MOL0     N 1502   4.969   7.254   7.797 -0.1181 -0.7815 -0.2806
   12MOL0     N 1503   5.078   7.244   7.732 -0.4526 -0.3384  0.1846
   12MOL0     C 1504   6.286   7.172   7.147  0.6464  0.4189  0.2603
   12MOL0     C 1505   6.414   7.126   7.153 -0.4043  0.5388  0.4706
   12MOL0     C 1506   6.774   6.885   7.235  0.3878 -0.1300 -0.7360
   12MOL0     C 1507   6.860   6.969   7.162  0.6441 -0.0791  0.0767
   12MOL0     C 1508   6.998   6.932   7.123  0.0188 -0.3912  0.2240
   12MOL0     C 1509   7.047   6.801   7.151  0.8842 -0.2264  0.3493
   12MOL0     O 1510   7.174   6.778   7.127  0.1617 -0.7744  0.0489
   12MOL0     C 1511   7.235   6.645   7.129  0.4412 -0.0075  0.6493
   12MOL0     C 1512   7.383   6.663   7.099  0.0111  0.2077  0.2827
   12MOL0     C 1513   7.397   6.696   6.959 -0.1863 -0.1431  1.2025
   12MOL0     C 1514   7.536   6.692   6.912 -0.3664 -0.5775  0.8857
   12MOL0     C 1515   7.553   6.681   6.767  0.5291  0.2275 -0.3322
   12MOL0     C 1516   7.552   6.657   6.649  0.4041  0.0360 -0.3349
   12MOL0     C 1517   6.960   6.720   7.229 -0.5421 -1.1379  0.1685
   12MOL0     C 1518   6.833   6.762   7.277  1.1996  0.1642 -0.3923
   12MOL0     H 1519   6.449   7.053   7.485  1.4817 -0.5494 -0.0805
   12MOL0     H 1520   6.209   7.129   7.474  1.2860  2.5495 -0.7332
   12MOL0     H 1521   6.054   7.275   7.451 -2.0725  1.0937  0.5960
   12MOL0     H 1522   5.970   7.130   7.394 -1.5723  1.3806  3.0069
   12MOL0     H 1523   5.817   7.277   7.249 -1.6324  3.6135 -0.7488
   12MOL0     H 1524   5.898   7.411   7.318 -2.4139  0.0591 -4.7375
   12MOL0     H 1525   5.816   7.366   7.536 -2.0803  1.5724  0.0110
   12MOL0     H 1526   5.760   7.205   7.491  1.5474 -0.0122  1.1924
   12MOL0     H 1527   5.668   7.485   7.383 -0.7600 -0.6069 -1.7786
   12MOL0     H 1528   5.601   7.343   7.323  0.6004 -1.9318 -1.0589
   12MOL0     H 1529   5.554   7.460   7.602 -0.4658  2.8472 -2.2526
   12MOL0     H 1530   5.535   7.285   7.586 -2.5778  0.1606 -0.1849
   12MOL0     H 1531   5.377   7.343   7.388 -1.2370  0.7436  0.4073
   12MOL0     H 1532   5.409   7.512   7.434 -0.7763  0.2938  0.2338
   12MOL0     H 1533   5.337   7.302   7.636  8.3539  0.8846 -2.6822
   12MOL0     H 1534   5.263   7.466   7.643  1.3157 -0.9758  2.4474
   12MOL0     H 1535   5.180   7.239   7.456 -2.4450 -1.6269  2.2575
   12MOL0     H 1536   5.133   7.415   7.453 -0.9169 -1.2315  0.2152
   12MOL0     H 1537   4.919   7.463   7.549  1.0948  2.5999  2.2278
   12MOL0     H 1538   4.678   7.289   7.764 -3.0643  2.1383 -1.4239
   12MOL0     H 1539   4.694   7.432   7.675 -3.1197 -0.8892  1.0138
   12MOL0     H 1540   4.621   7.505   7.870 -0.1167 -1.1338  1.6024
   12MOL0     H 1541   4.797   7.544   7.880 -0.2890  0.6161  1.2553
   12MOL0     H 1542   4.806   7.304   7.998  1.2610  1.3186 -1.4349
   12MOL0     H 1543   4.791   7.448   8.087  1.1575  0.2929 -1.2129
   12MOL0     H 1544   4.608   7.281   8.163 -2.5448 -1.3474 -0.0843
   12MOL0     H 1545   4.541   7.294   8.002 -0.9332 -1.1916  2.1112
   12MOL0     H 1546   4.334   7.256   8.087 -4.0955 -2.1488  1.4355
   12MOL0     H 1547   4.110   7.277   8.162  0.2657  0.6197 -2.5913
   12MOL0     H 1548   3.896   7.486   8.554  0.9253 -0.7580  0.2001
   12MOL0     H 1549   3.677   7.460   8.725  1.4764  0.5677 -0.3059
   12MOL0     H 1550   3.404   7.159   8.611  0.0177  1.2150 -3.8778
   12MOL0     H 1551   3.306   7.305   8.575  1.0784 -2.4770 -1.6503
   12MOL0     H 1552   3.345   7.222   8.859 -0.3272 -1.7787  0.0623
   12MOL0     H 1553   3.219   7.164   8.746  0.6302  0.4328 -1.7020
   12MOL0     H 1554   3.119   7.378   8.736 -0.8303  0.5130 -1.0343
   12MOL0     H 1555   3.274   7.446   8.802 -1.0285  1.8113  3.2381
   12MOL0     H 1556   3.229   7.392   9.023  1.2114 -2.4688  0.0923
   12MOL0     H 1557   3.068   7.450   8.953  0.1378 -1.1726  1.0039
   12MOL0     H 1558   3.137   7.211   9.105 -1.7984  1.1368  2.5071
   12MOL0     H 1559   3.108   7.149   8.951 -1.5528 -1.6662  0.2947
   12MOL0     H 1560   2.878   7.267   8.965 -0.4087  1.6633  0.8408
   12MOL0     H 1561   2.919   7.313   9.135  2.1234 -0.2145  0.5600
   12MOL0     H 1562   2.777   7.109   9.139  0.9399 -0.6472  3.4080
   12MOL0     H 1563   2.878   7.027   9.014  0.9289 -0.6301  0.5129
   12MOL0     H 1564   3.047   6.973   9.156 -1.5493 -3.6093  1.5285
   12MOL0     H 1565   2.907   6.949   9.246 -0.8109 -1.6961 -2.1743
   12MOL0     H 1566   3.493   7.229   8.424 -0.0004  0.6957 -1.3792
   12MOL0     H 1567   3.659   7.277   8.261 -4.7362 -0.4667 -0.2291
   12MOL0     H 1568   4.190   7.676   8.279  2.0337  1.3623 -1.2899
   12MOL0     H 1569   4.409   7.662   8.200  1.3670 -0.7870  1.3696
   12MOL0     H 1570   6.252   7.211   7.051  0.0770 -3.5154 -1.3485
   12MOL0     H 1571   6.477   7.138   7.066 -1.8286  1.6187 -0.4580
   12MOL0     H 1572   6.818   7.067   7.138  2.7012  0.5198 -1.4121
   12MOL0     H 1573   7.057   7.010   7.076  2.0043 -1.4788  0.7679
   12MOL0     H 1574   7.177   6.595   7.051 -0.3832  2.0127 -0.0862
   12MOL0     H 1575   7.218   6.604   7.229 -0.9675  2.8376  1.6807
   12MOL0     H 1576   7.430   6.737   7.164  2.8889 -2.7279  1.7735
   12MOL0     H 1577   7.444   6.577   7.126  2.5507  2.4927  2.3720
   12MOL0     H 1578   7.349   6.793   6.942 -1.7971 -1.3419 -2.1016
   12MOL0     H 1579   7.346   6.614   6.907  1.2706 -2.2311  2.8898
   12MOL0     H 1580   7.584   6.787   6.937  0.2454 -0.5395 -0.3518
   12MOL0     H 1581   7.593   6.611   6.959  0.7335 -0.2468  0.1414
   12MOL0     H 1582   7.559   6.625   6.547  0.3681  3.0959 -1.4096
   12MOL0     H 1583   7.005   6.626   7.257  4.2755  0.8201 -0.1316
   12MOL0     H 1584   6.769   6.687   7.321 -0.9045  2.1119  0.0278
   13MOL0     O 1585  10.915   9.888   5.257  0.6471 -0.1201 -0.1534
   13MOL0     C 1586  11.015   9.861   5.324 -0.2926 -0.0607 -0.6108
   13MOL0     O 1587  11.082   9.949   5.408  0.3485 -0.1146  0.1843
   13MOL0     C 1588  11.043  10.085   5.402 -0.4356 -0.2211  0.3552
   13MOL0     C 1589  11.143  10.183   5.397 -0.5182 -0.0494 -0.2445
   13MOL0     C 1590  11.108  10.319   5.393  0.1246  0.1583 -0.4555
   13MOL0     C 1591  10.981  10.368   5.401  0.3547 -0.5600 -0.2164
   13MOL0     O 1592  10.949  10.504   5.405  0.4279  0.1760 -0.2837
   13MOL0     C 1593  10.951  10.571   5.538  0.2311  0.5826  0.2931
   13MOL0     C 1594  10.939  10.730   5.530 -0.0552 -0.1019 -0.2221
   13MOL0     C 1595  10.799  10.788   5.477 -0.3506 -0.5293 -0.2356
   13MOL0     C 1596  10.680  10.754   5.572 -0.1119  0.6989 -0.6349
   13MOL0     C 1597  10.541  10.800   5.521 -0.0334 -0.1834 -0.3025
   13MOL0     C 1598  10.489  10.921   5.592 -0.8896  0.3441 -0.2888
   13MOL0     C 1599  10.369  10.979   5.527  0.4170  0.5415 -0.4279
   13MOL0     C 1600  10.253  10.885   5.509 -0.0511  0.1748  0.4786
   13MOL0     N 1601  10.132  10.967   5.469 -0.4701  1.1344 -0.1450
   13MOL0     C 1602  10.059  10.970   5.348 -0.2105 -0.4056 -0.1122
   13MOL0     C 1603   9.951  11.056   5.377  0.6686  0.1577 -0.1421
   13MOL0     C 1604   9.838  11.093   5.283 -0.3034  0.5799 -0.0380
   13MOL0     C 1605   9.836  11.242   5.257 -0.3947 -0.5200  0.4487
   13MOL0     C 1606   9.962  11.284   5.183 -0.5406  0.0125 -1.0723
   13MOL0     C 1607   9.932  11.408   5.093 -0.7716 -0.0400 -0.9548
   13MOL0     O 1608   9.850  11.375   4.984 -0.7436 -0.0782  0.1159
   13MOL0     C 1609   9.766  11.473   4.944 -0.1115  0.0059 -0.0629
   13MOL0     C 1610   9.757  11.479   4.809  1.0056 -0.4288 -0.0414
   13MOL0     C 1611   9.673  11.574   4.754  0.0972 -0.4237 -0.8678
   13MOL0     C 1612   9.590  11.661   4.827 -0.7796  0.2530 -0.0600
   13MOL0     C 1613   9.504  11.761   4.755 -0.5578  0.2942  0.0430
   13MOL0     O 1614   9.445  11.860   4.830 -0.3383 -0.4271 -0.6129
   13MOL0     C 1615   9.357  11.929   4.764  0.5683  0.2648 -0.2068
   13MOL0     C 1616   9.384  12.041   4.692 -0.4918 -0.4330  0.3891
   13MOL0     C 1617   9.287  12.105   4.620  0.9272 -0.8792  0.1237
   13MOL0     C 1618   9.152  12.077   4.616  0.6046  0.2172 -1.2434
   13MOL0     O 1619   9.069  12.162   4.542  0.0805 -0.3066 -0.0989
   13MOL0     C 1620   8.936  12.166   4.595 -0.3529 -1.2288  0.4909
   13MOL0     C 1621   8.915  12.255   4.719 -0.7204  0.1366 -0.3168
   13MOL0     C 1622   8.981  12.400   4.706 -0.1039  0.7679 -0.0973
   13MOL0     C 1623   8.943  12.485   4.824 -0.6248 -0.3046 -0.1867
   13MOL0     C 1624   8.925  12.633   4.795 -0.3061 -0.0193  0.1046
   13MOL0     C 1625   8.866  12.708   4.916  0.7170  0.2396 -0.2059
   13MOL0     C 1626   8.721  12.670   4.953  0.3727 -0.0036  0.0116
   13MOL0     C 1627   8.695  12.715   5.103 -0.0159 -0.6804 -0.2785
   13MOL0    Cl 1628   8.753  12.886   5.138 -0.7604 -0.4767  0.0350
   13MOL0     C 1629   9.120  11.959   4.687 -0.4919  0.1658 -0.4372
   13MOL0     C 1630   9.220  11.891   4.762  0.4128 -0.6724  0.2461
   13MOL0     O 1631   9.497  11.743   4.637  1.1598  0.2494 -0.0692
   13MOL0     C 1632   9.620  11.659   4.961 -0.7100 -0.0337 -0.0481
   13MOL0     C 1633   9.704  11.565   5.021  0.1128 -0.6830  0.1731
   13MOL0     N 1634   9.963  11.093   5.513 -0.4809  0.5147  0.3441
   13MOL0     N 1635  10.067  11.039   5.566 -0.3646 -0.0067 -0.4577
   13MOL0     C 1636  10.878  10.268   5.414  0.5021 -0.0029  0.0338
   13MOL0     C 1637  10.909  10.132   5.415  0.3066  0.6805 -0.0718
   13MOL0     C 1638  11.073   9.728   5.316  0.4701  0.9139  0.4116
   13MOL0     C 1639  11.013   9.636   5.227  0.9922 -0.2906 -0.1003
   13MOL0     C 1640  11.050   9.496   5.231 -0.6763  0.2498 -0.5548
   13MOL0     C 1641  11.160   9.455   5.302 -1.3995 -0.3853  0.1696
   13MOL0     O 1642  11.199   9.324   5.281 -0.2824  0.2917  0.1517
   13MOL0     C 1643  11.260   9.264   5.399 -0.0568  0.6608  0.7754
   13MOL0     C 1644  11.263   9.105   5.395 -0.2527 -1.1444  0.5818
   13MOL0     C 1645  11.332   9.052   5.512  0.2774  1.0616 -0.5631
   13MOL0     C 1646  11.319   8.894   5.517 -0.1226 -0.5350  0.0882
   13MOL0     C 1647  11.409   8.861   5.622  0.7112  0.3715  0.3425
   13MOL0     C 1648  11.480   8.816   5.705  0.0451  0.0356  0.5593
   13MOL0     C 1649  11.225   9.549   5.373  0.9466 -0.7975  0.5076
   13MOL0     C 1650  11.186   9.686   5.382  0.0114  0.5508 -0.4652
   13MOL0     H 1651  11.249  10.161   5.391 -0.9869 -2.2296 -4.1003
   13MOL0     H 1652  11.180  10.399   5.379 -1.7442  2.0267  0.1143
   13MOL0     H 1653  11.042  10.549   5.595  0.9482  3.5769  0.4861
   13MOL0     H 1654  10.868  10.528   5.594 -0.6660 -1.5683 -2.4524
   13MOL0     H 1655  11.021  10.762   5.464  0.0605 -1.2630 -0.6710
   13MOL0     H 1656  10.961  10.777   5.626 -1.5377  2.6438 -1.1226
   13MOL0     H 1657  10.786  10.744   5.378 -3.1561  0.7202 -0.5174
   13MOL0     H 1658  10.798  10.896   5.456  3.4533 -0.4280 -0.6099
   13MOL0     H 1659  10.666  10.645   5.577  0.9895  0.5134 -1.3432
   13MOL0     H 1660  10.693  10.800   5.670  2.0853  1.6624 -1.3238
   13MOL0     H 1661  10.466  10.724   5.548  2.2745 -1.4286  3.2978
   13MOL0     H 1662  10.560  10.811   5.414  0.1865  1.2812 -0.1318
   13MOL0     H 1663  10.568  10.996   5.593 -1.2408  0.7227  0.8677
   13MOL0     H 1664  10.474  10.898   5.698  0.6491 -1.7882 -0.4632
   13MOL0     H 1665  10.337  11.064   5.587 -0.5167 -0.7472  0.9688
   13MOL0     H 1666  10.393  11.031   5.434 -1.9890  0.7133 -1.0245
   13MOL0     H 1667  10.229  10.845   5.608 -1.3686  0.9920  0.5238
   13MOL0     H 1668  10.271  10.796   5.448  2.1046  0.7536  0.1961
   13MOL0     H 1669  10.076  10.922   5.252 -0.2962 -2.2540  0.7403
   13MOL0     H 1670   9.747  11.048   5.323 -1.0545  1.5729 -0.6061
   13MOL0     H 1671   9.851  11.044   5.186  1.6827  2.8343 -1.0034
   13MOL0     H 1672   9.838  11.295   5.352  0.6466  0.4541 -0.1032
   13MOL0     H 1673   9.746  11.260   5.197  1.1321  0.4074 -1.6732
   13MOL0     H 1674  10.044  11.293   5.255 -1.4749  0.6040 -0.0490
   13MOL0     H 1675   9.987  11.199   5.118 -1.5566 -0.9744 -0.2274
   13MOL0     H 1676  10.027  11.453   5.063 -0.5587 -0.7754 -1.4105
   13MOL0     H 1677   9.887  11.479   5.164  1.2157  1.5649 -1.2079
   13MOL0     H 1678   9.784  11.400   4.740 -2.0904 -2.0451  0.4237
   13MOL0     H 1679   9.652  11.567   4.647  2.5393  0.6427 -1.4790
   13MOL0     H 1680   9.481  12.088   4.707 -0.5160 -0.4372  0.5535
   13MOL0     H 1681   9.309  12.194   4.563  0.4019  0.7538  2.3256
   13MOL0     H 1682   8.894  12.069   4.621 -0.4683 -0.6701  2.5822
   13MOL0     H 1683   8.877  12.213   4.517 -0.2845 -0.5407  0.8418
   13MOL0     H 1684   8.984  12.217   4.795  0.4384  3.6063  0.5217
   13MOL0     H 1685   8.811  12.254   4.752 -1.3558 -3.9181 -1.8836
   13MOL0     H 1686   8.961  12.453   4.612 -0.9942  0.6389  0.0117
   13MOL0     H 1687   9.089  12.382   4.705 -0.5291 -2.5861 -2.4505
   13MOL0     H 1688   8.856  12.446   4.876  1.2638  0.6061  4.0873
   13MOL0     H 1689   9.022  12.473   4.899 -1.6707  0.3373  1.0406
   13MOL0     H 1690   8.861  12.649   4.708 -0.6065 -1.7889 -0.0411
   13MOL0     H 1691   9.022  12.681   4.779 -1.4476  3.1716  1.8326
   13MOL0     H 1692   8.870  12.816   4.899  0.3352  0.3644  0.4409
   13MOL0     H 1693   8.928  12.692   5.005  1.3710 -2.9752 -1.1184
   13MOL0     H 1694   8.667  12.728   4.877 -0.0775  0.5926  0.7664
   13MOL0     H 1695   8.702  12.563   4.947  0.8358 -0.0919  0.0718
   13MOL0     H 1696   8.746  12.648   5.173  1.8919  0.2113 -0.7572
   13MOL0     H 1697   8.586  12.718   5.118 -0.6005  1.4789 -3.8196
   13MOL0     H 1698   9.017  11.924   4.694 -0.0918 -0.7254  2.1650
   13MOL0     H 1699   9.182  11.812   4.827  1.1787 -0.7870  0.5591
   13MOL0     H 1700   9.562  11.732   5.016 -2.6163 -1.7071  0.2692
   13MOL0     H 1701   9.700  11.561   5.129 -0.0366  3.9173  0.5197
   13MOL0     H 1702  10.779  10.310   5.432  1.3563  1.3782  2.0098
   13MOL0     H 1703  10.836  10.054   5.436  1.7273 -0.8797 -0.7093
   13MOL0     H 1704  10.927   9.665   5.168 -0.5042 -0.8851  1.6978
   13MOL0     H 1705  10.997   9.436   5.157  0.9178  1.3140 -2.6818
   13MOL0     H 1706  11.208   9.295   5.491 -3.3444 -3.3692  0.5739
   13MOL0     H 1707  11.365   9.290   5.415  0.5340 -1.3498  0.5083
   13MOL0     H 1708  11.158   9.078   5.404 -0.1828 -1.6371 -0.0500
   13MOL0     H 1709  11.315   9.068   5.306  3.0079 -2.2943  2.7664
   13MOL0     H 1710  11.286   9.084   5.606 -0.5642 -3.4023  0.7558
   13MOL0     H 1711  11.440   9.070   5.501  0.0022  1.6892 -2.6966
   13MOL0     H 1712  11.218   8.851   5.520  0.1895 -1.3350 -0.3066
   13MOL0     H 1713  11.354   8.851   5.422 -1.5833  1.8379 -1.6435
   13MOL0     H 1714  11.559   8.770   5.760  0.1958 -0.2840  0.0863
   13MOL0     H 1715  11.318   9.533   5.427  1.4618  0.2786 -0.0411
   13MOL0     H 1716  11.246   9.746   5.450  1.1775 -1.1165  0.0340
   14MOL0     O 1717   6.602   1.665  11.216  1.0370  0.4307  0.3141
   14MOL0     C 1718   6.594   1.567  11.139  0.6701 -0.2066 -0.7407
   14MOL0     O 1719   6.478   1.507  11.102  0.9469  0.5443  0.2119
   14MOL0     C 1720   6.358   1.560  11.158 -1.2241  0.2883  0.6838
   14MOL0     C 1721   6.254   1.605  11.074  0.6970 -0.9124  0.5560
   14MOL0     C 1722   6.139   1.651  11.128  0.0497  0.1921  0.6285
   14MOL0     C 1723   6.113   1.662  11.272  0.6811  0.0002 -1.0122
   14MOL0     O 1724   6.009   1.726  11.334  0.8352 -0.4850  0.1245
   14MOL0     C 1725   5.884   1.724  11.263 -0.7547 -0.0743 -0.4008
   14MOL0     C 1726   5.873   1.847  11.180 -0.1168 -0.5627  0.0447
   14MOL0     C 1727   5.755   1.839  11.089  0.5449 -1.3577 -0.2099
   14MOL0     C 1728   5.713   1.983  11.043 -0.6494 -0.1688 -0.2247
   14MOL0     C 1729   5.584   1.967  10.971  0.2423 -0.6096  0.3101
   14MOL0     C 1730   5.509   2.100  10.954 -0.5869 -0.2549 -0.0907
   14MOL0     C 1731   5.366   2.087  10.894 -0.7238  1.0090 -0.4539
   14MOL0     C 1732   5.292   2.215  10.849  0.0533 -0.4442 -0.5904
   14MOL0     N 1733   5.152   2.191  10.792  0.5832  0.6663 -0.0750
   14MOL0     C 1734   5.128   2.127  10.677  0.1340  0.0461  0.3262
   14MOL0     C 1735   4.994   2.126  10.658  0.6318  0.2408  0.0750
   14MOL0     C 1736   4.924   2.075  10.544  0.5281 -0.6470  0.0591
   14MOL0     C 1737   4.799   2.003  10.586  0.3923 -0.0753 -0.7444
   14MOL0     C 1738   4.820   1.856  10.605  0.4243 -0.8511 -0.0066
   14MOL0     C 1739   4.701   1.772  10.661 -0.3932  0.0158 -0.3685
   14MOL0     O 1740   4.651   1.842  10.770  0.1118 -0.4074 -0.2838
   14MOL0     C 1741   4.558   1.782  10.850 -0.0103 -0.0277 -0.3780
   14MOL0     C 1742   4.515   1.862  10.959 -0.0850 -0.0951 -0.1599
   14MOL0     C 1743   4.406   1.818  11.043 -1.1542 -0.2429 -0.6321
   14MOL0     C 1744   4.333   1.706  11.003  0.4984  0.2207  0.1386
   14MOL0     C 1745   4.197   1.684  11.058  0.6848  0.1569 -0.0796
   14MOL0     O 1746   4.141   1.771  11.138  0.3967  0.2196 -0.0232
   14MOL0     C 1747   4.024   1.735  11.204 -0.5234 -0.7591  0.2034
   14MOL0     C 1748   3.992   1.607  11.256  0.3824  0.6677  0.0076
   14MOL0     C 1749   3.872   1.584  11.325  0.9095  0.9120  0.8729
   14MOL0     C 1750   3.784   1.688  11.328 -0.4604 -0.4079  0.0341
   14MOL0     O 1751   3.661   1.663  11.372 -0.0048  0.3235 -0.1653
   14MOL0     C 1752   3.577   1.595  11.276  0.2814 -0.5208 -0.1591
   14MOL0     C 1753   3.435   1.610  11.329  0.1583  0.1983 -0.3169
   14MOL0     C 1754   3.366   1.474  11.285  0.6426  0.5779  0.4390
   14MOL0     C 1755   3.209   1.489  11.328  0.3936  0.1694  0.2855
   14MOL0     C 1756   3.111   1.390  11.251  0.1837  0.1944 -0.3158
   14MOL0     C 1757   3.144   1.240  11.276  0.2231 -0.0798 -0.5230
   14MOL0     C 1758   3.030   1.141  11.227 -0.4523 -0.0046 -0.1373
   14MOL0     C 1759   3.066   0.997  11.247 -0.1821  0.5291  0.1182
   14MOL0    Cl 1760   2.942   0.902  11.161 -0.2380  0.1166 -0.1864
   14MOL0     C 1761   3.819   1.817  11.289 -0.1239  0.7465 -0.2485
   14MOL0     C 1762   3.939   1.840  11.230 -0.6343  0.6693 -0.3740
   14MOL0     O 1763   4.139   1.581  11.013  0.0934 -0.6295 -0.6694
   14MOL0     C 1764   4.386   1.625  10.897 -0.3485  0.2114  0.2046
   14MOL0     C 1765   4.498   1.663  10.822  0.7818  0.8952 -0.0153
   14MOL0     N 1766   4.930   2.192  10.762 -0.4184 -0.5375 -0.9760
   14MOL0     N 1767   5.027   2.232  10.846 -0.4745 -0.2448  0.6763
   14MOL0     C 1768   6.216   1.609  11.348  0.2865 -0.2134 -0.0541
   14MOL0     C 1769   6.339   1.551  11.293 -0.0394  0.3461 -0.7122
   14MOL0     C 1770   6.722   1.533  11.077  0.3650  0.3454  0.3601
   14MOL0     C 1771   6.729   1.444  10.968 -0.3672 -0.2632  0.3069
   14MOL0     C 1772   6.853   1.413  10.900  0.0594 -0.2470  0.3239
   14MOL0     C 1773   6.975   1.469  10.949 -0.4087 -0.4199 -0.0048
   14MOL0     O 1774   7.099   1.480  10.879  0.7812  0.7080 -0.0595
   14MOL0     C 1775   7.131   1.365  10.802 -0.2424  1.0826 -0.1171
   14MOL0     C 1776   7.260   1.293  10.861  0.4875 -0.9821 -1.0273
   14MOL0     C 1777   7.391   1.351  10.840 -0.4999 -0.2015  0.8705
   14MOL0     C 1778   7.442   1.436  10.954  0.0266  0.1117  0.3021
   14MOL0     C 1779   7.569   1.498  10.911 -0.1364 -0.2941  0.0292
   14MOL0     C 1780   7.680   1.539  10.898  0.5108 -0.1463  0.3613
   14MOL0     C 1781   6.972   1.549  11.056  0.3831  0.2496  0.0345
   14MOL0     C 1782   6.848   1.582  11.123  0.1722  0.0841 -0.1200
   14MOL0     H 1783   6.269   1.593  10.967 -1.7090  0.7436 -0.0333
   14MOL0     H 1784   6.063   1.681  11.056  2.4396  4.4095 -0.4746
   14MOL0     H 1785   5.805   1.732  11.338 -1.2084  1.9968 -1.0291
   14MOL0     H 1786   5.870   1.633  11.203 -1.6295  1.0846 -2.0282
   14MOL0     H 1787   5.962   1.858  11.117  1.3334 -2.8001  1.5657
   14MOL0     H 1788   5.855   1.934  11.244 -2.3361  1.3899 -2.9442
   14MOL0     H 1789   5.675   1.780  11.135  0.3924 -1.5115 -0.6648
   14MOL0     H 1790   5.773   1.777  11.001 -3.2821 -0.9937 -1.4082
   14MOL0     H 1791   5.706   2.056  11.125  1.4370  0.1348 -0.2587
   14MOL0     H 1792   5.794   2.028  10.985 -0.5364  0.8394  0.6756
   14MOL0     H 1793   5.520   1.901  11.031 -0.7468 -2.1828 -2.3296
   14MOL0     H 1794   5.589   1.922  10.872  3.5271 -1.6984  0.8491
   14MOL0     H 1795   5.576   2.166  10.898 -0.0634 -2.0642 -1.6808
   14MOL0     H 1796   5.490   2.142  11.053 -2.2842 -3.1537  0.9171
   14MOL0     H 1797   5.368   2.017  10.811  2.1651 -1.2002  1.2816
   14MOL0     H 1798   5.292   2.053  10.967 -2.4566  0.5206 -2.3482
   14MOL0     H 1799   5.354   2.263  10.773 -0.9198  1.4936 -0.2183
   14MOL0     H 1800   5.284   2.276  10.939 -0.4131 -1.0174 -0.2353
   14MOL0     H 1801   5.199   2.078  10.611 -0.6710 -2.5082  1.2212
   14MOL0     H 1802   4.990   2.013  10.483  0.2185  0.0330 -0.9901
   14MOL0     H 1803   4.891   2.168  10.497 -0.4666 -0.6968  0.6303
   14MOL0     H 1804   4.725   2.020  10.507  0.2970  3.6352 -0.0409
   14MOL0     H 1805   4.762   2.054  10.676  2.8718  0.5478  0.0017
   14MOL0     H 1806   4.865   1.815  10.514  2.0017 -1.0941  0.8345
   14MOL0     H 1807   4.905   1.843  10.673  1.4426 -1.1304 -1.2913
   14MOL0     H 1808   4.745   1.676  10.689 -1.2223 -1.0835 -2.5383
   14MOL0     H 1809   4.621   1.766  10.586  1.6027  2.0763 -2.8539
   14MOL0     H 1810   4.572   1.953  10.967 -0.3019 -0.0342  0.8321
   14MOL0     H 1811   4.375   1.884  11.123  2.9371 -1.7572  2.5636
   14MOL0     H 1812   4.064   1.526  11.249 -2.3552 -1.9889  0.1037
   14MOL0     H 1813   3.852   1.485  11.364  0.6700  0.5798 -0.0743
   14MOL0     H 1814   3.615   1.493  11.273  2.5429  0.2708 -0.8591
   14MOL0     H 1815   3.588   1.646  11.180 -0.4235  3.8736  1.8115
   14MOL0     H 1816   3.380   1.696  11.290  1.1435  0.7828 -0.4529
   14MOL0     H 1817   3.432   1.612  11.438  1.7496 -2.0141 -0.1575
   14MOL0     H 1818   3.397   1.381  11.334 -1.3436  1.4342  3.6284
   14MOL0     H 1819   3.376   1.441  11.181 -0.4770 -2.2502  1.1390
   14MOL0     H 1820   3.214   1.472  11.436 -0.8998 -0.1981  0.3030
   14MOL0     H 1821   3.172   1.590  11.305  1.0469  0.0376 -1.4695
   14MOL0     H 1822   3.103   1.421  11.146  1.2308  1.6555  0.0128
   14MOL0     H 1823   3.010   1.408  11.291  1.2980  0.4783  2.5662
   14MOL0     H 1824   3.158   1.235  11.384  1.5942 -2.0619 -0.7305
   14MOL0     H 1825   3.241   1.207  11.237  0.6480 -0.5843  0.9017
   14MOL0     H 1826   2.935   1.171  11.273 -0.3088 -0.7600  0.6864
   14MOL0     H 1827   3.038   1.150  11.119  2.0381 -1.5206 -0.1526
   14MOL0     H 1828   3.076   0.963  11.350  2.8234 -0.3555 -0.3595
   14MOL0     H 1829   3.171   0.986  11.217  0.2076  1.4744  1.0834
   14MOL0     H 1830   3.743   1.894  11.296 -1.4511 -0.5839  0.3913
   14MOL0     H 1831   3.959   1.942  11.198 -2.2917  2.2635  3.1833
   14MOL0     H 1832   4.331   1.540  10.857  1.4922  0.0858 -2.2582
   14MOL0     H 1833   4.532   1.608  10.735 -0.5192  1.8563 -1.1610
   14MOL0     H 1834   6.204   1.602  11.456  1.6474  1.2770  0.2350
   14MOL0     H 1835   6.411   1.518  11.368 -1.2563  2.7526  1.6990
   14MOL0     H 1836   6.630   1.404  10.949 -0.3335 -0.9010  1.4069
   14MOL0     H 1837   6.851   1.348  10.813 -2.9204  0.2907 -0.1298
   14MOL0     H 1838   7.153   1.408  10.703 -0.7187  2.7909  0.4821
   14MOL0     H 1839   7.052   1.291  10.792 -2.2558  3.0897  0.0121
   14MOL0     H 1840   7.248   1.289  10.969 -0.0061  3.9428 -0.6531
   14MOL0     H 1841   7.258   1.193  10.818  1.5913 -1.2328 -0.5153
   14MOL0     H 1842   7.393   1.404  10.744 -0.1294  0.9952  1.5120
   14MOL0     H 1843   7.470   1.275  10.834  1.1922  1.4735  0.7133
   14MOL0     H 1844   7.378   1.517  10.991  1.0991  0.6593  0.9741
   14MOL0     H 1845   7.471   1.375  11.039  2.8019 -0.2356 -0.8093
   14MOL0     H 1846   7.780   1.577  10.894  0.1020  1.0575  1.0589
   14MOL0     H 1847   7.066   1.596  11.084 -1.3180  4.4049 -0.4475
   14MOL0     H 1848   6.845   1.645  11.211 -0.7796  1.4989 -1.1291
   15MOL0     O 1849   9.608   8.425   3.025 -0.1166  0.0157  0.7615
   15MOL0     C 1850   9.581   8.520   2.956 -0.4456  0.3175  0.7698
   15MOL0     O 1851   9.670   8.622   2.924 -0.2447 -0.5450  0.3086
   15MOL0     C 1852   9.792   8.623   2.986  0.1300 -0.2530  0.6278
   15MOL0     C 1853   9.884   8.518   2.973  0.9713  0.2005 -0.1981
   15MOL0     C 1854  10.017   8.528   3.027 -0.1683  0.1941  0.6369
   15MOL0     C 1855  10.045   8.641   3.103  0.9447 -0.4863 -0.6949
   15MOL0     O 1856  10.177   8.649   3.151 -0.5717  0.1673 -0.1009
   15MOL0     C 1857  10.221   8.760   3.225 -0.9617 -0.1309  0.2942
   15MOL0     C 1858  10.360   8.721   3.288 -0.2464 -0.1411 -1.9073
   15MOL0     C 1859  10.430   8.841   3.351 -0.6958  0.2140  0.3457
   15MOL0     C 1860  10.533   8.775   3.455  0.1053 -0.3323 -1.0690
   15MOL0     C 1861  10.648   8.863   3.500 -0.2909 -0.1325 -0.3382
   15MOL0     C 1862  10.717   8.778   3.605  0.4504 -0.6610 -0.4705
   15MOL0     C 1863  10.826   8.867   3.660  0.1001  0.1697  0.3776
   15MOL0     C 1864  10.952   8.840   3.577  0.3329 -0.6337  0.5661
   15MOL0     N 1865  11.057   8.930   3.621 -0.0979 -0.4645 -0.3154
   15MOL0     C 1866  11.108   9.038   3.556  0.3602 -0.1069  0.0162
   15MOL0     C 1867  11.195   9.104   3.640  0.4880  0.1180  0.9909
   15MOL0     C 1868  11.253   9.240   3.611 -0.2124 -0.0696  0.1369
   15MOL0     C 1869  11.342   9.238   3.480 -0.9099 -0.0876  1.2098
   15MOL0     C 1870  11.427   9.365   3.468  0.5439  0.1517  0.0444
   15MOL0     C 1871  11.501   9.372   3.331  0.1270 -0.2616 -0.0622
   15MOL0     O 1872  11.601   9.475   3.345  0.1460  0.4855  0.0396
   15MOL0     C 1873  11.721   9.423   3.381 -0.1292  0.5893  0.5406
   15MOL0     C 1874  11.747   9.294   3.424 -0.4601 -0.3706  0.8157
   15MOL0     C 1875  11.882   9.260   3.450 -0.7413  0.9713  0.0938
   15MOL0     C 1876  11.995   9.357   3.432 -0.4755 -0.3690 -1.6848
   15MOL0     C 1877  12.132   9.323   3.453 -0.2157 -0.8351 -0.6960
   15MOL0     O 1878  12.158   9.208   3.517 -0.0478  0.1171  0.4193
   15MOL0     C 1879  12.287   9.168   3.510  0.2168 -0.9770 -0.2414
   15MOL0     C 1880  12.381   9.229   3.597 -0.5451  0.0018  0.2622
   15MOL0     C 1881  12.516   9.190   3.592  0.1073 -0.0833 -0.1770
   15MOL0     C 1882  12.561   9.090   3.501  0.6305  0.2202  0.4832
   15MOL0     O 1883  12.695   9.052   3.497  0.2249  0.2423  0.2986
   15MOL0     C 1884  12.731   8.987   3.366 -0.4572  0.1776 -0.1686
   15MOL0     C 1885  12.888   8.993   3.349 -0.2166  0.6029  0.0374
   15MOL0     C 1886  12.950   9.147   3.346 -0.4570  0.0520  0.1335
   15MOL0     C 1887  13.094   9.146   3.295 -0.1114  0.3916 -0.1061
   15MOL0     C 1888  13.139   9.284   3.260 -0.2150  0.0809  0.5390
   15MOL0     C 1889  13.066   9.347   3.138  0.6797  0.4711  0.6487
   15MOL0     C 1890  13.123   9.473   3.087 -0.0982 -0.3275 -0.8609
   15MOL0     C 1891  13.099   9.514   2.944  0.1418 -0.3687  0.6922
   15MOL0    Cl 1892  13.202   9.644   2.890  0.3172  0.2725 -0.5201
   15MOL0     C 1893  12.461   9.024   3.422 -0.8021 -0.1645 -0.4998
   15MOL0     C 1894  12.328   9.077   3.414 -0.6596 -0.8979  0.5157
   15MOL0     O 1895  12.215   9.404   3.406 -0.0299  0.1504  0.9586
   15MOL0     C 1896  11.961   9.486   3.388 -0.2890 -0.3835 -0.4037
   15MOL0     C 1897  11.825   9.512   3.358 -1.3062  0.2889 -0.1907
   15MOL0     N 1898  11.200   9.030   3.759 -0.4859 -0.8158 -0.0381
   15MOL0     N 1899  11.120   8.924   3.744 -0.3331 -0.6825 -0.5536
   15MOL0     C 1900   9.950   8.737   3.121  0.0535  0.1787 -0.6577
   15MOL0     C 1901   9.828   8.730   3.054  0.7405 -0.0081 -0.4796
   15MOL0     C 1902   9.439   8.528   2.912 -0.0150  0.6424 -0.2673
   15MOL0     C 1903   9.337   8.458   2.976  0.2843 -0.8170  0.5945
   15MOL0     C 1904   9.206   8.474   2.936 -0.5066  0.1016 -0.0336
   15MOL0     C 1905   9.167   8.553   2.826 -0.3024  0.8096  0.5480
   15MOL0     O 1906   9.037   8.545   2.786  0.3240  0.0662 -0.6764
   15MOL0     C 1907   8.988   8.603   2.673  0.6566 -1.1536  0.0762
   15MOL0     C 1908   8.920   8.739   2.701  0.6034  0.5482  0.4008
   15MOL0     C 1909   8.794   8.763   2.615  0.3427 -0.7342  0.2911
   15MOL0     C 1910   8.665   8.720   2.675 -0.0195 -0.3259 -0.1427
   15MOL0     C 1911   8.636   8.578   2.652  0.2187 -1.0539 -0.3588
   15MOL0     C 1912   8.616   8.459   2.654  0.2532  0.6098 -0.2342
   15MOL0     C 1913   9.268   8.628   2.776 -0.0078  0.6488  0.1406
   15MOL0     C 1914   9.405   8.613   2.809 -0.1925  0.5076  0.7237
   15MOL0     H 1915   9.872   8.420   2.929  0.2592  0.5436 -0.7897
   15MOL0     H 1916  10.087   8.445   3.025 -1.1776 -0.6688 -0.7874
   15MOL0     H 1917  10.142   8.786   3.296 -0.2551  0.5506  0.8525
   15MOL0     H 1918  10.240   8.846   3.161 -1.2322 -1.4007 -1.5470
   15MOL0     H 1919  10.429   8.681   3.213 -0.8763 -1.0992 -1.9964
   15MOL0     H 1920  10.344   8.642   3.362  0.5934  1.8072  0.4896
   15MOL0     H 1921  10.360   8.910   3.399 -1.6834 -1.4769  1.4235
   15MOL0     H 1922  10.490   8.898   3.280  2.2539 -3.0413 -0.0576
   15MOL0     H 1923  10.478   8.739   3.542  1.1704 -1.3937 -0.8145
   15MOL0     H 1924  10.583   8.693   3.402  1.4541  0.3665 -0.9328
   15MOL0     H 1925  10.616   8.953   3.553  1.2551 -1.4829  3.2485
   15MOL0     H 1926  10.709   8.893   3.414 -1.0150  2.1281 -0.1174
   15MOL0     H 1927  10.766   8.689   3.565  1.4572 -0.2260 -0.2414
   15MOL0     H 1928  10.653   8.765   3.693 -1.3335  1.3233 -1.4156
   15MOL0     H 1929  10.802   8.974   3.658  0.4403  0.2556  0.6553
   15MOL0     H 1930  10.840   8.847   3.767 -2.9521 -0.6612  0.7270
   15MOL0     H 1931  10.925   8.845   3.472  1.5465  1.7832  0.2969
   15MOL0     H 1932  10.986   8.745   3.618  0.1926 -0.0428  2.1255
   15MOL0     H 1933  11.082   9.073   3.457  4.0504 -1.3302 -1.6000
   15MOL0     H 1934  11.324   9.268   3.688 -0.4092  2.3695 -0.4899
   15MOL0     H 1935  11.178   9.319   3.617  0.2660  0.2438  3.2293
   15MOL0     H 1936  11.275   9.223   3.395 -0.9276 -0.6810  1.3235
   15MOL0     H 1937  11.404   9.148   3.493 -0.6157 -0.1330 -0.3785
   15MOL0     H 1938  11.348   9.440   3.476 -1.5923 -1.9182 -0.5209
   15MOL0     H 1939  11.495   9.363   3.554  1.1364  0.9373 -0.3946
   15MOL0     H 1940  11.422   9.394   3.259 -1.6122  0.5536  1.9844
   15MOL0     H 1941  11.536   9.281   3.283  0.2323  0.5229 -1.5396
   15MOL0     H 1942  11.667   9.220   3.421 -0.7575 -0.1309 -3.9189
   15MOL0     H 1943  11.913   9.161   3.482 -0.4603 -0.1906 -3.3214
   15MOL0     H 1944  12.355   9.316   3.656 -0.4575  0.3120 -0.1494
   15MOL0     H 1945  12.600   9.236   3.643 -0.5343  1.0895 -0.1367
   15MOL0     H 1946  12.694   9.047   3.283  0.3176  1.9773  0.7253
   15MOL0     H 1947  12.688   8.886   3.357 -1.1678  0.2065  2.1990
   15MOL0     H 1948  12.909   8.944   3.254  0.9268  0.4978  0.3338
   15MOL0     H 1949  12.930   8.938   3.433 -3.4433  0.1795  1.5436
   15MOL0     H 1950  12.930   9.207   3.435 -2.0838  1.2481 -0.9892
   15MOL0     H 1951  12.887   9.188   3.267 -3.2872 -1.4384  1.4778
   15MOL0     H 1952  13.160   9.111   3.375 -0.2434 -1.5116 -0.7773
   15MOL0     H 1953  13.109   9.077   3.212  0.0721 -1.3586  1.3058
   15MOL0     H 1954  13.243   9.279   3.225  0.0024 -2.9568  1.3311
   15MOL0     H 1955  13.139   9.345   3.351 -1.9028 -1.8463  1.9153
   15MOL0     H 1956  12.962   9.370   3.165  0.6236 -0.3842  1.1726
   15MOL0     H 1957  13.073   9.274   3.057  2.0198  0.2908  0.9128
   15MOL0     H 1958  13.078   9.550   3.150  0.3148 -1.9372  1.5130
   15MOL0     H 1959  13.230   9.476   3.107  0.2643  5.0607 -2.1541
   15MOL0     H 1960  12.998   9.545   2.918  0.3679 -0.7063 -0.6558
   15MOL0     H 1961  13.109   9.428   2.877  1.2910 -0.2649  0.7085
   15MOL0     H 1962  12.477   8.941   3.353 -2.5437 -1.2211  0.3074
   15MOL0     H 1963  12.258   9.039   3.340  0.6814 -1.3831 -0.5449
   15MOL0     H 1964  12.023   9.573   3.368 -0.5407 -0.0889  0.0799
   15MOL0     H 1965  11.804   9.615   3.329 -0.0900  0.4568 -0.5435
   15MOL0     H 1966   9.977   8.824   3.181  0.8693  0.7005 -1.7569
   15MOL0     H 1967   9.760   8.815   3.059  1.4427  0.5587 -0.4374
   15MOL0     H 1968   9.370   8.393   3.056  2.2947  0.7787  1.1462
   15MOL0     H 1969   9.137   8.411   2.991  0.2088 -0.0679  0.6754
   15MOL0     H 1970   8.923   8.534   2.618 -1.0208  2.6457 -3.2504
   15MOL0     H 1971   9.070   8.629   2.605  0.0218 -2.5788 -1.2975
   15MOL0     H 1972   8.896   8.744   2.807 -2.7772  0.8493 -0.2446
   15MOL0     H 1973   8.998   8.816   2.694  1.1435 -0.0608 -0.6308
   15MOL0     H 1974   8.803   8.718   2.516  0.3062  0.9005 -0.4815
   15MOL0     H 1975   8.790   8.870   2.596 -1.7073 -1.0896 -1.7264
   15MOL0     H 1976   8.671   8.749   2.780  2.8654  1.7635 -0.7624
   15MOL0     H 1977   8.589   8.777   2.621  0.3695  0.2599 -0.0810
   15MOL0     H 1978   8.599   8.355   2.634  1.4463  0.6272 -1.5141
   15MOL0     H 1979   9.237   8.695   2.697  1.4006  0.1936 -0.8409
   15MOL0     H 1980   9.482   8.665   2.752 -1.8710  2.1527 -0.1624
   16MOL0     O 1981   9.114   9.172   0.338  0.0643 -0.7495 -0.0388
   16MOL0     C 1982   9.089   9.180   0.460 -0.5106 -0.7545 -0.4789
   16MOL0     O 1983   9.183   9.176   0.563 -0.3820  0.1989  1.0114
   16MOL0     C 1984   9.311   9.162   0.536 -0.2114 -0.4855  0.0480
   16MOL0     C 1985   9.374   9.057   0.466 -0.7101  0.0874 -0.5335
   16MOL0     C 1986   9.514   9.056   0.452 -0.2844 -0.3353  0.4984
   16MOL0     C 1987   9.595   9.155   0.521  0.0503  1.3273  1.0609
   16MOL0     O 1988   9.736   9.166   0.505  0.3146 -0.1967 -0.6930
   16MOL0     C 1989   9.818   9.053   0.498  0.3247 -0.0362 -0.3472
   16MOL0     C 1990   9.958   9.107   0.490 -0.1792 -0.4202  0.3735
   16MOL0     C 1991  10.056   8.987   0.490  0.1393  0.0239 -0.9620
   16MOL0     C 1992  10.191   9.032   0.464 -0.7297  0.3276  0.0129
   16MOL0     C 1993  10.296   8.951   0.531 -0.2514  0.3706  0.2754
   16MOL0     C 1994  10.437   8.990   0.469 -0.0954  0.1844  0.5621
   16MOL0     C 1995  10.544   8.893   0.526  1.0928 -0.5678  0.1228
   16MOL0     C 1996  10.679   8.948   0.506  0.4227  0.3025  0.0174
   16MOL0     N 1997  10.778   8.841   0.469  0.2943 -0.3208 -0.2882
   16MOL0     C 1998  10.855   8.772   0.556  0.2345 -0.7048  0.0534
   16MOL0     C 1999  10.928   8.690   0.476 -0.4389 -0.2618 -0.8952
   16MOL0     C 2000  11.045   8.608   0.538 -1.1025 -0.4440  0.3054
   16MOL0     C 2001  11.156   8.688   0.621  0.1260 -0.3073  0.0067
   16MOL0     C 2002  11.221   8.800   0.529  0.0749  0.3120  0.2030
   16MOL0     C 2003  11.314   8.741   0.431 -0.2058 -0.3643 -0.1939
   16MOL0     O 2004  11.377   8.846   0.358  0.1037  0.2047  0.2558
   16MOL0     C 2005  11.498   8.907   0.405  0.0974  0.9764  0.5087
   16MOL0     C 2006  11.523   9.037   0.360  0.4992 -0.0411  0.0355
   16MOL0     C 2007  11.621   9.121   0.411 -0.5343  0.2941  0.3213
   16MOL0     C 2008  11.708   9.074   0.511 -0.1988 -0.3017  0.1209
   16MOL0     C 2009  11.817   9.160   0.578 -0.6415  0.4268  0.5638
   16MOL0     O 2010  11.902   9.094   0.655 -0.0766 -0.4643  0.6358
   16MOL0     C 2011  12.016   9.163   0.712  0.1267  0.7889 -0.5324
   16MOL0     C 2012  12.093   9.265   0.647 -0.9954  0.3707  0.2094
   16MOL0     C 2013  12.209   9.318   0.707 -0.2604  0.2075 -0.4253
   16MOL0     C 2014  12.257   9.258   0.825 -0.5641 -1.0473 -0.2750
   16MOL0     O 2015  12.371   9.316   0.883 -0.0614  0.2437 -0.0087
   16MOL0     C 2016  12.407   9.295   1.020  0.2203  0.3932 -0.1114
   16MOL0     C 2017  12.541   9.365   1.049 -0.6433  0.5183  0.0694
   16MOL0     C 2018  12.666   9.286   1.007 -0.4998 -0.0986  0.8485
   16MOL0     C 2019  12.785   9.381   0.995 -0.1127 -0.3107 -0.7288
   16MOL0     C 2020  12.912   9.307   0.966  0.0341 -0.1084 -0.0583
   16MOL0     C 2021  13.023   9.409   0.932 -0.2981  0.7327  0.0310
   16MOL0     C 2022  13.125   9.431   1.050 -0.3238 -0.1274  0.0397
   16MOL0     C 2023  13.241   9.504   1.015 -0.1595  0.3160 -0.3512
   16MOL0    Cl 2024  13.189   9.683   1.018  0.0386  0.4822 -0.0143
   16MOL0     C 2025  12.183   9.161   0.888  0.0181  0.0110 -0.2741
   16MOL0     C 2026  12.064   9.102   0.830  0.1298 -0.3081  0.4626
   16MOL0     O 2027  11.821   9.282   0.551 -0.2696 -0.2715 -0.3172
   16MOL0     C 2028  11.688   8.944   0.553  0.1180  0.4030  0.6755
   16MOL0     C 2029  11.596   8.854   0.496 -0.4350  0.8554  0.0658
   16MOL0     N 2030  10.889   8.697   0.344 -0.3966  0.0826  0.2376
   16MOL0     N 2031  10.803   8.793   0.340  0.0595  0.0733 -0.6564
   16MOL0     C 2032   9.528   9.251   0.588  0.1575 -0.0470  0.0127
   16MOL0     C 2033   9.389   9.261   0.603  0.0196 -0.2103  1.1258
   16MOL0     C 2034   8.938   9.213   0.485 -0.2809  0.6124 -0.9170
   16MOL0     C 2035   8.841   9.212   0.381  0.5643  0.4859 -0.6155
   16MOL0     C 2036   8.709   9.246   0.410 -0.5568  1.0121  0.3584
   16MOL0     C 2037   8.669   9.286   0.538 -0.2435 -0.1804 -0.3058
   16MOL0     O 2038   8.538   9.301   0.581  0.1651 -0.3746  0.3477
   16MOL0     C 2039   8.431   9.235   0.504 -0.4335 -0.7590  0.0875
   16MOL0     C 2040   8.441   9.086   0.495  0.1212  0.3663  0.6516
   16MOL0     C 2041   8.434   9.009   0.631 -0.1635  0.4179 -0.3196
   16MOL0     C 2042   8.496   8.873   0.622 -0.9551 -0.4743  0.5976
   16MOL0     C 2043   8.437   8.811   0.737 -1.4742  0.6953 -0.4427
   16MOL0     C 2044   8.393   8.761   0.836  0.2980 -0.5170  0.5835
   16MOL0     C 2045   8.767   9.285   0.637  0.5560 -0.7133 -0.0539
   16MOL0     C 2046   8.898   9.251   0.612 -0.6081 -0.6265  0.5408
   16MOL0     H 2047   9.308   8.987   0.417 -0.7420 -1.2077  1.2162
   16MOL0     H 2048   9.561   8.982   0.387 -0.1721  1.2299 -1.2731
   16MOL0     H 2049   9.793   9.007   0.402 -0.9753 -0.0112 -0.0465
   16MOL0     H 2050   9.803   8.996   0.590  0.3683  1.6726  0.7488
   16MOL0     H 2051   9.988   9.175   0.570  1.7005  0.8468 -1.2815
   16MOL0     H 2052   9.971   9.160   0.395  2.5201 -3.2595 -1.0139
   16MOL0     H 2053  10.020   8.926   0.406 -0.1716  1.4604 -1.8982
   16MOL0     H 2054  10.044   8.926   0.581 -2.0176  0.4979 -0.8754
   16MOL0     H 2055  10.205   9.048   0.356  1.3274  0.8115  0.3234
   16MOL0     H 2056  10.202   9.131   0.508  0.5619  1.1721 -2.0325
   16MOL0     H 2057  10.281   8.844   0.511  2.9465 -0.5351  1.9511
   16MOL0     H 2058  10.287   8.953   0.640 -2.5745  1.4122  0.1143
   16MOL0     H 2059  10.457   9.096   0.486  2.2346 -0.1923  0.4275
   16MOL0     H 2060  10.425   8.980   0.360 -2.7009  2.0277  0.5708
   16MOL0     H 2061  10.533   8.881   0.634  3.0879  0.2059  0.4537
   16MOL0     H 2062  10.541   8.800   0.468  0.2211 -0.2165 -0.4116
   16MOL0     H 2063  10.704   8.997   0.601 -4.0904  0.7407  1.2010
   16MOL0     H 2064  10.674   9.022   0.426 -1.4662  3.1100  2.5123
   16MOL0     H 2065  10.875   8.790   0.661 -0.8989 -3.4449  0.8235
   16MOL0     H 2066  11.095   8.547   0.462  2.3120 -0.3373  2.2495
   16MOL0     H 2067  10.989   8.540   0.603 -2.9574  2.2608  1.7128
   16MOL0     H 2068  11.228   8.612   0.653 -1.0839 -3.1459 -3.4227
   16MOL0     H 2069  11.116   8.739   0.709 -1.0794  2.5649 -2.0810
   16MOL0     H 2070  11.141   8.864   0.488 -0.2077  0.7377  1.3802
   16MOL0     H 2071  11.277   8.867   0.594  0.4894 -0.4469  0.6356
   16MOL0     H 2072  11.267   8.668   0.365  0.0495 -0.1450 -0.6275
   16MOL0     H 2073  11.379   8.678   0.492 -0.4953 -0.3529  0.1236
   16MOL0     H 2074  11.469   9.072   0.273 -0.3370 -1.9651 -0.2803
   16MOL0     H 2075  11.633   9.217   0.361 -2.1533 -0.2755 -1.2879
   16MOL0     H 2076  12.055   9.304   0.553 -1.4201  0.2995  0.3497
   16MOL0     H 2077  12.276   9.379   0.647  0.3067 -1.6136 -1.7232
   16MOL0     H 2078  12.408   9.190   1.049  1.0284 -0.0265 -1.5362
   16MOL0     H 2079  12.334   9.338   1.090  1.3121  1.1716  0.5846
   16MOL0     H 2080  12.542   9.371   1.159 -2.8782 -4.0948  0.5917
   16MOL0     H 2081  12.531   9.464   1.005  0.3182  1.0779  1.0701
   16MOL0     H 2082  12.634   9.237   0.914 -0.1647  4.0418 -1.7407
   16MOL0     H 2083  12.692   9.214   1.084  1.5695 -0.9306 -0.5293
   16MOL0     H 2084  12.774   9.460   0.921  0.6286  0.3516 -0.1448
   16MOL0     H 2085  12.806   9.432   1.089  0.1004 -1.6897  0.0066
   16MOL0     H 2086  12.880   9.248   0.880 -2.6945  0.3691  0.5233
   16MOL0     H 2087  12.944   9.237   1.044 -1.7188 -0.3426  0.5012
   16MOL0     H 2088  12.977   9.507   0.913  1.4361  1.7403  0.8233
   16MOL0     H 2089  13.087   9.372   0.852  0.3132  1.2321  0.2797
   16MOL0     H 2090  13.087   9.492   1.133 -2.1631 -0.7889 -0.2679
   16MOL0     H 2091  13.157   9.331   1.081  0.9994 -0.4045 -2.0297
   16MOL0     H 2092  13.298   9.469   0.928  1.8460  4.2245 -0.8598
   16MOL0     H 2093  13.315   9.489   1.094  1.5663  1.3510 -1.6961
   16MOL0     H 2094  12.204   9.139   0.992 -0.0849 -1.7215 -0.6030
   16MOL0     H 2095  12.018   9.012   0.869  0.9985 -0.5370  0.9794
   16MOL0     H 2096  11.746   8.903   0.635 -1.7016 -3.2960  0.2948
   16MOL0     H 2097  11.603   8.750   0.526  0.4531  0.7681 -0.3909
   16MOL0     H 2098   9.588   9.323   0.642 -2.0243  1.7339  0.2253
   16MOL0     H 2099   9.339   9.340   0.659 -0.0963  0.7534 -0.2857
   16MOL0     H 2100   8.877   9.184   0.283 -0.1662  1.7075 -1.2618
   16MOL0     H 2101   8.643   9.245   0.324  0.1149  0.3144 -0.1659
   16MOL0     H 2102   8.437   9.271   0.401  0.7041 -1.4452 -0.1096
   16MOL0     H 2103   8.330   9.259   0.540 -1.3505 -0.8081 -2.2875
   16MOL0     H 2104   8.354   9.048   0.440  1.8526 -1.4348 -0.9925
   16MOL0     H 2105   8.527   9.057   0.435  0.3838 -1.4738  1.8585
   16MOL0     H 2106   8.325   8.994   0.636 -0.2560  0.8579 -0.8682
   16MOL0     H 2107   8.470   9.059   0.721 -2.0715 -0.6349  1.1073
   16MOL0     H 2108   8.470   8.822   0.528  1.9839 -1.0709 -0.0129
   16MOL0     H 2109   8.605   8.879   0.629 -0.9300  0.8134 -0.4301
   16MOL0     H 2110   8.342   8.724   0.922  0.5502 -0.3987  0.7850
   16MOL0     H 2111   8.733   9.302   0.739 -0.9537 -0.9562 -0.4937
   16MOL0     H 2112   8.972   9.254   0.692 -0.2926 -0.9056  0.2592
   17MOL0     O 2113   4.002  11.242   8.391  0.0488  0.5474  0.0455
   17MOL0     C 2114   4.085  11.266   8.479 -1.4324 -0.7604  0.3642
   17MOL0     O 2115   4.073  11.224   8.607  0.2681  0.4288  0.1634
   17MOL0     C 2116   3.970  11.130   8.629 -0.1021 -0.6228  0.1856
   17MOL0     C 2117   3.879  11.157   8.728 -0.4023  0.6844  0.9494
   17MOL0     C 2118   3.769  11.069   8.766  0.2039  0.4136 -0.5186
   17MOL0     C 2119   3.760  10.943   8.705 -0.1792 -1.0612 -0.6399
   17MOL0     O 2120   3.664  10.859   8.749 -0.6050 -0.2400  0.2767
   17MOL0     C 2121   3.532  10.891   8.700  0.2741  0.6281  0.1129
   17MOL0     C 2122   3.462  10.768   8.640 -0.5487  0.3212 -0.2962
   17MOL0     C 2123   3.315  10.787   8.599 -1.0365 -0.0861  0.0778
   17MOL0     C 2124   3.247  10.662   8.548 -0.9890  0.0787  0.0011
   17MOL0     C 2125   3.098  10.681   8.526  0.6251  0.1845 -0.2865
   17MOL0     C 2126   3.048  10.536   8.509 -0.1501  0.4002  0.4987
   17MOL0     C 2127   2.921  10.531   8.428 -0.2980  0.4777  0.2423
   17MOL0     C 2128   2.890  10.393   8.358  0.5294 -0.6874  0.2580
   17MOL0     N 2129   2.883  10.270   8.445 -0.4598 -0.3935 -0.6799
   17MOL0     C 2130   2.817  10.278   8.570 -0.6688 -0.0266  0.7650
   17MOL0     C 2131   2.832  10.150   8.617 -0.4263 -0.4063  0.3521
   17MOL0     C 2132   2.797  10.113   8.754 -0.0796 -0.6599 -0.0297
   17MOL0     C 2133   2.644  10.135   8.786 -0.8780 -0.1442  0.3846
   17MOL0     C 2134   2.541  10.029   8.738  0.4202  1.1891  0.2219
   17MOL0     C 2135   2.389  10.057   8.760 -0.0011 -0.0257 -0.2245
   17MOL0     O 2136   2.327   9.964   8.679  0.4174  0.4922 -0.3049
   17MOL0     C 2137   2.198   9.960   8.649 -0.4877  0.0338  0.3306
   17MOL0     C 2138   2.157   9.879   8.549  0.5086 -0.0484 -0.3852
   17MOL0     C 2139   2.027   9.865   8.507  0.1341 -0.2561  0.1275
   17MOL0     C 2140   1.931   9.948   8.576  0.3012  0.4093 -0.4144
   17MOL0     C 2141   1.790   9.933   8.534 -0.3596  0.3066  0.5667
   17MOL0     O 2142   1.695   9.993   8.618  0.2986  1.0406  0.1132
   17MOL0     C 2143   1.569   9.949   8.582 -0.8539 -0.1610 -0.3481
   17MOL0     C 2144   1.498   9.880   8.683  1.2300  0.0191 -0.4267
   17MOL0     C 2145   1.362   9.858   8.672 -0.1874  0.4486 -0.2422
   17MOL0     C 2146   1.306   9.890   8.546 -0.0458  1.8563  0.8282
   17MOL0     O 2147   1.171   9.858   8.526 -0.3389  0.6278 -0.6295
   17MOL0     C 2148   1.084   9.949   8.599  0.6047  0.0803 -0.6361
   17MOL0     C 2149   0.942   9.893   8.612  0.5318  0.0326 -1.1319
   17MOL0     C 2150   0.846  10.003   8.667  0.1750  0.2146 -0.1303
   17MOL0     C 2151   0.698   9.954   8.644 -0.1879 -0.3432 -0.1286
   17MOL0     C 2152   0.591  10.069   8.675 -0.8525  0.3554 -0.1931
   17MOL0     C 2153   0.454  10.011   8.717  0.9613 -0.0221 -0.2510
   17MOL0     C 2154   0.375  10.135   8.776 -0.6498 -0.3761  0.8628
   17MOL0     C 2155   0.290  10.206   8.676  0.3627  0.6437  0.2290
   17MOL0    Cl 2156   0.200  10.336   8.769  0.5273  0.1167  0.3693
   17MOL0     C 2157   1.380   9.948   8.436 -0.0129  0.7121 -0.4504
   17MOL0     C 2158   1.514   9.989   8.458  0.5734  0.1017  0.8282
   17MOL0     O 2159   1.769   9.866   8.433  0.3368  0.3232 -0.5370
   17MOL0     C 2160   1.972  10.027   8.682  0.7099 -0.1972  0.2359
   17MOL0     C 2161   2.098  10.027   8.725 -0.1780  0.2209  0.1390
   17MOL0     N 2162   2.919  10.073   8.536  0.2291 -0.1436 -0.5015
   17MOL0     N 2163   2.946  10.145   8.435  0.0006  0.3229  0.2625
   17MOL0     C 2164   3.863  10.913   8.614  0.7835 -0.4649  0.1720
   17MOL0     C 2165   3.958  11.009   8.569 -0.5147 -0.5248 -0.4668
   17MOL0     C 2166   4.218  11.326   8.430 -0.6177 -0.5053  0.3908
   17MOL0     C 2167   4.235  11.342   8.301 -0.3638  0.1349  0.1372
   17MOL0     C 2168   4.352  11.390   8.259 -0.3897  0.0886  0.6791
   17MOL0     C 2169   4.454  11.445   8.332  0.0087 -0.1321 -0.5295
   17MOL0     O 2170   4.578  11.478   8.283  0.1926 -0.3149  0.1876
   17MOL0     C 2171   4.615  11.430   8.150  0.1039  0.1982  0.4630
   17MOL0     C 2172   4.766  11.436   8.151 -0.3933 -1.5561  0.6116
   17MOL0     C 2173   4.839  11.377   8.036 -0.5956  1.1675 -0.1735
   17MOL0     C 2174   4.811  11.221   8.005  0.3018 -0.8556 -0.7237
   17MOL0     C 2175   4.683  11.213   7.935 -0.9950  0.5306 -0.2184
   17MOL0     C 2176   4.592  11.211   7.860 -0.4207 -0.2204  0.4578
   17MOL0     C 2177   4.432  11.444   8.478 -0.1177  0.7075  0.6257
   17MOL0     C 2178   4.317  11.378   8.520  0.7577  0.4365  0.3695
   17MOL0     H 2179   3.889  11.259   8.765  3.2595  1.1677 -0.9809
   17MOL0     H 2180   3.699  11.104   8.842 -0.1054  0.2244 -0.7158
   17MOL0     H 2181   3.544  10.972   8.627  1.3158  0.1914 -0.2252
   17MOL0     H 2182   3.469  10.936   8.777  0.8649  1.2714  0.2345
   17MOL0     H 2183   3.463  10.693   8.719  0.1125  2.1274  1.4769
   17MOL0     H 2184   3.515  10.738   8.548  2.5486 -2.4357  2.1192
   17MOL0     H 2185   3.309  10.875   8.535  4.8679  0.3527 -0.4479
   17MOL0     H 2186   3.260  10.802   8.693 -0.6828 -1.5003  0.5463
   17MOL0     H 2187   3.298  10.644   8.453  0.3225  1.8829  0.3001
   17MOL0     H 2188   3.256  10.585   8.625  0.6109  0.6333  0.4031
   17MOL0     H 2189   3.090  10.739   8.433 -4.1623  2.2747  1.1305
   17MOL0     H 2190   3.035  10.732   8.599 -2.3137 -1.7566 -1.2927
   17MOL0     H 2191   3.033  10.489   8.606 -1.7278 -0.2848 -0.0522
   17MOL0     H 2192   3.125  10.490   8.446 -0.0883  1.0507  0.0923
   17MOL0     H 2193   2.840  10.577   8.485 -1.3690  0.6466 -1.3528
   17MOL0     H 2194   2.924  10.599   8.342  1.1179 -0.6577 -0.6620
   17MOL0     H 2195   2.972  10.374   8.289  0.6720  2.2316 -0.4952
   17MOL0     H 2196   2.797  10.407   8.303  1.1877  0.4319 -0.6060
   17MOL0     H 2197   2.762  10.357   8.620 -0.3060  0.9282 -0.3104
   17MOL0     H 2198   2.846  10.185   8.821 -5.5763  4.0491 -0.3441
   17MOL0     H 2199   2.825  10.012   8.786  0.7388 -0.5876 -0.4891
   17MOL0     H 2200   2.603  10.226   8.744 -3.4129 -1.2657  0.2887
   17MOL0     H 2201   2.629  10.151   8.893 -0.9171  1.5821  0.1386
   17MOL0     H 2202   2.559  10.012   8.631 -2.1567 -2.4873  0.1648
   17MOL0     H 2203   2.574   9.931   8.773  2.3191  1.1635 -1.4801
   17MOL0     H 2204   2.365  10.160   8.733  1.0727  0.0511 -0.9660
   17MOL0     H 2205   2.358  10.042   8.863  1.8655  1.4701  0.6269
   17MOL0     H 2206   2.237   9.828   8.496  1.2016  0.1721  0.4497
   17MOL0     H 2207   2.004   9.791   8.431  1.5684  0.0589 -0.6494
   17MOL0     H 2208   1.537   9.849   8.780 -2.0768  2.0416  1.7389
   17MOL0     H 2209   1.307   9.816   8.755  1.6921  0.5449  1.1201
   17MOL0     H 2210   1.087  10.040   8.538 -1.5143  0.2422 -0.5601
   17MOL0     H 2211   1.123   9.963   8.700  0.5997 -5.9302  0.5423
   17MOL0     H 2212   0.939   9.807   8.679  0.3947  1.1073  0.2768
   17MOL0     H 2213   0.902   9.871   8.512 -0.9626  0.2516 -0.6112
   17MOL0     H 2214   0.859  10.102   8.623  2.3802  1.3613  2.7432
   17MOL0     H 2215   0.863  10.022   8.773  2.3927 -0.2998 -0.3347
   17MOL0     H 2216   0.674   9.935   8.539 -1.9475 -0.0843  0.1858
   17MOL0     H 2217   0.672   9.872   8.711  0.0576  0.9210  1.5815
   17MOL0     H 2218   0.579  10.142   8.595  2.2787  1.2095 -0.0552
   17MOL0     H 2219   0.629  10.129   8.759  0.9095 -2.7599  1.4582
   17MOL0     H 2220   0.468   9.940   8.800 -0.7180 -0.3228 -0.1975
   17MOL0     H 2221   0.402   9.950   8.643  0.7686 -1.8110  1.2706
   17MOL0     H 2222   0.306  10.097   8.853 -1.7618  2.3689  1.3229
   17MOL0     H 2223   0.444  10.208   8.819 -0.9204  1.7715 -2.0679
   17MOL0     H 2224   0.218  10.139   8.630 -0.5245 -0.4469  3.0258
   17MOL0     H 2225   0.349  10.255   8.597  0.0169  0.8036  0.0687
   17MOL0     H 2226   1.327   9.973   8.345 -3.2519  0.8435  1.3162
   17MOL0     H 2227   1.567  10.051   8.387  1.0848 -0.3261  0.8301
   17MOL0     H 2228   1.907  10.095   8.736 -0.7330 -1.7977  0.6242
   17MOL0     H 2229   2.115  10.080   8.818 -1.7905 -0.0512  0.6259
   17MOL0     H 2230   3.861  10.820   8.558  0.5651 -0.3343 -0.0364
   17MOL0     H 2231   4.027  10.988   8.487 -3.3022 -4.1563 -2.1728
   17MOL0     H 2232   4.168  11.308   8.223 -1.0960  0.2932  0.6817
   17MOL0     H 2233   4.372  11.397   8.153  2.7710  2.3003  1.2808
   17MOL0     H 2234   4.577  11.499   8.074  1.4774  2.4543  1.7118
   17MOL0     H 2235   4.584  11.327   8.133  3.0566 -0.9168  1.2262
   17MOL0     H 2236   4.796  11.541   8.148  1.0267 -1.9287  1.1346
   17MOL0     H 2237   4.797  11.400   8.250 -2.3761 -1.4899  1.3195
   17MOL0     H 2238   4.948  11.377   8.049 -0.2966  0.6152 -2.3192
   17MOL0     H 2239   4.811  11.432   7.946 -0.8446  1.3205 -0.0033
   17MOL0     H 2240   4.891  11.181   7.942 -1.9570 -1.8318 -3.1470
   17MOL0     H 2241   4.804  11.160   8.095 -0.9310 -0.1692 -0.3258
   17MOL0     H 2242   4.512  11.235   7.793 -2.4479  0.4494  2.9641
   17MOL0     H 2243   4.496  11.485   8.555 -1.5348 -1.1039  2.9395
   17MOL0     H 2244   4.302  11.361   8.626 -3.2811 -2.4957 -0.4622
   18MOL0     O 2245  10.168   1.590   9.601  0.1560  0.3941  0.1720
   18MOL0     C 2246  10.240   1.617   9.507 -0.2625  0.1085 -0.5305
   18MOL0     O 2247  10.196   1.674   9.387  0.0837  0.4823  0.3973
   18MOL0     C 2248  10.071   1.707   9.364 -0.2315  0.4800  0.2814
   18MOL0     C 2249   9.975   1.609   9.359  0.3923  0.1350 -0.0433
   18MOL0     C 2250   9.846   1.650   9.348  0.8208  0.5867  0.4973
   18MOL0     C 2251   9.811   1.786   9.343 -0.2901 -0.2907  0.1564
   18MOL0     O 2252   9.676   1.835   9.348 -0.6165  0.2263  0.9482
   18MOL0     C 2253   9.580   1.751   9.278  0.2141 -0.4730 -0.5394
   18MOL0     C 2254   9.440   1.821   9.268  0.2869  0.5299  0.1634
   18MOL0     C 2255   9.378   1.821   9.403  0.8141 -0.5935  1.2078
   18MOL0     C 2256   9.230   1.874   9.393 -0.0405  0.0512 -0.2103
   18MOL0     C 2257   9.159   1.877   9.526 -1.0612 -0.7334 -0.2688
   18MOL0     C 2258   9.124   1.737   9.583  0.5822 -0.0979  1.8733
   18MOL0     C 2259   9.040   1.740   9.710 -0.5719 -0.7577 -0.3763
   18MOL0     C 2260   8.892   1.780   9.678 -0.8025  0.3304 -0.8558
   18MOL0     N 2261   8.811   1.829   9.792  0.3292 -0.7112  0.3956
   18MOL0     C 2262   8.677   1.808   9.817 -0.2795 -0.5396 -0.0501
   18MOL0     C 2263   8.651   1.851   9.941  0.3615 -0.2062 -0.5897
   18MOL0     C 2264   8.528   1.844  10.025 -0.2296  0.5799  0.0656
   18MOL0     C 2265   8.508   1.959  10.133 -0.5894  0.1970  0.5584
   18MOL0     C 2266   8.487   2.091  10.061 -0.6162  0.2052 -0.5339
   18MOL0     C 2267   8.484   2.218  10.159  0.2032 -0.0613  0.5669
   18MOL0     O 2268   8.363   2.189  10.242 -0.2778 -0.7270  0.1488
   18MOL0     C 2269   8.364   2.218  10.378 -0.7677 -0.2255 -0.7273
   18MOL0     C 2270   8.477   2.218  10.459  0.5508 -0.5704 -0.2321
   18MOL0     C 2271   8.474   2.251  10.589 -0.7312  0.0682  0.7302
   18MOL0     C 2272   8.348   2.283  10.657  0.3305 -0.5666 -0.0310
   18MOL0     C 2273   8.352   2.328  10.791 -0.1041  0.0999 -0.1909
   18MOL0     O 2274   8.422   2.439  10.814  0.3346  0.0708  0.3048
   18MOL0     C 2275   8.459   2.471  10.938 -0.0383 -0.6989 -0.3702
   18MOL0     C 2276   8.369   2.522  11.025 -0.4272 -0.3459 -1.4160
   18MOL0     C 2277   8.410   2.588  11.152  0.0059  0.5030  0.6037
   18MOL0     C 2278   8.547   2.588  11.177  0.5932 -0.0721  0.0193
   18MOL0     O 2279   8.586   2.629  11.308  0.4980 -0.0124  0.3801
   18MOL0     C 2280   8.720   2.625  11.346 -0.4080 -0.1010  0.1124
   18MOL0     C 2281   8.721   2.627  11.494 -0.0312  0.0131  1.2559
   18MOL0     C 2282   8.858   2.618  11.552  0.0381  0.0450  0.4716
   18MOL0     C 2283   8.932   2.754  11.549 -0.5319  0.0380 -0.4374
   18MOL0     C 2284   9.061   2.753  11.628 -0.1186 -0.2672 -0.1213
   18MOL0     C 2285   9.050   2.729  11.777 -0.4067  0.2120  0.1566
   18MOL0     C 2286   8.962   2.826  11.855 -0.4666 -0.3344 -0.4524
   18MOL0     C 2287   8.997   2.814  12.011 -0.4281 -0.4126  0.6842
   18MOL0    Cl 2288   8.851   2.775  12.108 -0.1975 -0.3075  0.0466
   18MOL0     C 2289   8.639   2.546  11.079 -0.2378  0.7583  0.4339
   18MOL0     C 2290   8.594   2.479  10.963  0.5709 -0.0843  0.2332
   18MOL0     O 2291   8.285   2.264  10.876  0.0907  1.3635 -0.2597
   18MOL0     C 2292   8.230   2.280  10.578 -0.0708 -0.3356  0.1439
   18MOL0     C 2293   8.241   2.245  10.437 -0.4264  0.9650  0.5131
   18MOL0     N 2294   8.765   1.919   9.992  0.4060 -0.3032 -0.0149
   18MOL0     N 2295   8.854   1.907   9.896 -0.2453  0.2379  0.2988
   18MOL0     C 2296   9.908   1.881   9.340 -0.6030  0.1807  0.1809
   18MOL0     C 2297  10.033   1.843   9.355  0.1992  0.0789  0.2168
   18MOL0     C 2298  10.388   1.592   9.514 -0.4624  0.2423 -0.0316
   18MOL0     C 2299  10.469   1.569   9.402 -1.4190 -0.2239 -0.4508
   18MOL0     C 2300  10.605   1.554   9.402  0.2569 -0.4527 -0.9638
   18MOL0     C 2301  10.675   1.565   9.525  0.4607 -0.0409  0.6189
   18MOL0     O 2302  10.810   1.573   9.541 -0.2503 -0.2185 -0.5019
   18MOL0     C 2303  10.888   1.575   9.423  0.1972  0.7278  0.3761
   18MOL0     C 2304  10.923   1.441   9.375 -0.0885 -0.7198 -0.0602
   18MOL0     C 2305  11.001   1.433   9.240  0.0463 -0.6424 -0.0463
   18MOL0     C 2306  11.149   1.471   9.261 -0.8828 -0.0018  0.6754
   18MOL0     C 2307  11.221   1.342   9.288 -0.5768 -0.2725 -0.1705
   18MOL0     C 2308  11.273   1.236   9.337  0.4395 -0.2935  1.4970
   18MOL0     C 2309  10.593   1.578   9.637 -1.7820  1.0685 -0.6799
   18MOL0     C 2310  10.457   1.587   9.637  0.5992  0.1099  0.0052
   18MOL0     H 2311   9.999   1.504   9.372 -1.3224 -0.2099  0.6354
   18MOL0     H 2312   9.773   1.570   9.344  0.2535  0.8579  3.3831
   18MOL0     H 2313   9.559   1.654   9.324  0.1876  1.4672  4.0964
   18MOL0     H 2314   9.623   1.744   9.178  0.7402 -2.8884 -0.2187
   18MOL0     H 2315   9.377   1.776   9.191 -1.2491  1.5549  0.7774
   18MOL0     H 2316   9.449   1.924   9.230  2.4683  0.5892  0.6989
   18MOL0     H 2317   9.419   1.883   9.483  2.4431  0.0877 -0.1016
   18MOL0     H 2318   9.378   1.717   9.437  2.4692 -0.4331  1.7938
   18MOL0     H 2319   9.227   1.973   9.347  1.7946  0.3118  0.1621
   18MOL0     H 2320   9.187   1.811   9.315  0.4816  0.7060 -1.0380
   18MOL0     H 2321   9.072   1.939   9.502 -0.9061  0.0352  1.0619
   18MOL0     H 2322   9.216   1.927   9.606 -2.6881  1.2896 -0.3147
   18MOL0     H 2323   9.215   1.677   9.596  1.1808 -0.5195 -2.6057
   18MOL0     H 2324   9.073   1.675   9.508 -1.5388  2.8586  0.6701
   18MOL0     H 2325   9.057   1.642   9.754  1.7228 -0.2828 -0.0600
   18MOL0     H 2326   9.084   1.823   9.766 -2.0328 -2.0856  2.9819
   18MOL0     H 2327   8.852   1.683   9.649 -0.0424 -0.6249  1.1127
   18MOL0     H 2328   8.894   1.850   9.593  2.8984  1.2724 -0.1777
   18MOL0     H 2329   8.596   1.751   9.770 -0.3556 -0.2882 -0.2294
   18MOL0     H 2330   8.541   1.748  10.076  3.3560  0.1468 -1.3282
   18MOL0     H 2331   8.434   1.848   9.969 -0.4051 -2.1851 -0.0195
   18MOL0     H 2332   8.599   1.973  10.193  1.0139  0.5195 -1.8289
   18MOL0     H 2333   8.429   1.924  10.200 -0.1492 -0.8096  0.5702
   18MOL0     H 2334   8.568   2.093   9.987 -0.9352 -0.9719 -0.9405
   18MOL0     H 2335   8.392   2.082  10.008 -1.7595  0.0195  1.4506
   18MOL0     H 2336   8.472   2.308  10.099  3.3763  0.3006  0.2963
   18MOL0     H 2337   8.581   2.219  10.210 -0.4875  1.1035  1.9303
   18MOL0     H 2338   8.572   2.179  10.421  1.6397  2.2024 -0.5580
   18MOL0     H 2339   8.568   2.252  10.644 -0.3692 -0.6954  0.1487
   18MOL0     H 2340   8.264   2.504  11.003 -1.3234  2.1090  0.4531
   18MOL0     H 2341   8.345   2.638  11.224 -1.0278 -0.5854  0.4608
   18MOL0     H 2342   8.764   2.716  11.305  1.3791 -1.5147 -1.3266
   18MOL0     H 2343   8.776   2.539  11.308  0.2527 -0.0838  1.0173
   18MOL0     H 2344   8.671   2.535  11.525 -1.9786  0.2664 -0.8856
   18MOL0     H 2345   8.671   2.721  11.520  2.4244  2.8799 -3.1126
   18MOL0     H 2346   8.912   2.540  11.497  0.8004 -0.6857  2.2117
   18MOL0     H 2347   8.844   2.589  11.656  0.2038 -0.4885  0.3489
   18MOL0     H 2348   8.959   2.779  11.446 -1.5762  1.2850 -0.4420
   18MOL0     H 2349   8.872   2.831  11.598  1.2026  1.6851 -0.8042
   18MOL0     H 2350   9.108   2.851  11.617  1.8103 -1.1576 -0.2392
   18MOL0     H 2351   9.129   2.684  11.577  1.9763 -0.9272  3.2350
   18MOL0     H 2352   9.145   2.722  11.831 -2.4250 -3.0771  3.8291
   18MOL0     H 2353   8.998   2.633  11.777 -1.6476  0.8612  0.6161
   18MOL0     H 2354   8.971   2.931  11.828 -0.2368 -0.0881  0.5426
   18MOL0     H 2355   8.855   2.820  11.835 -1.3920  2.8681  2.6923
   18MOL0     H 2356   9.040   2.911  12.038 -4.0101  2.7773 -3.6063
   18MOL0     H 2357   9.073   2.740  12.039 -0.2985 -0.1213  1.1148
   18MOL0     H 2358   8.747   2.560  11.089 -0.2383  1.7908 -0.7569
   18MOL0     H 2359   8.659   2.444  10.884  0.4619  1.2929 -0.4848
   18MOL0     H 2360   8.135   2.316  10.617  1.3567  2.0441  1.7104
   18MOL0     H 2361   8.158   2.234  10.368 -0.5396 -1.2377  0.9107
   18MOL0     H 2362   9.872   1.983   9.350 -1.0261 -0.1568  2.5838
   18MOL0     H 2363  10.109   1.920   9.347  1.1253 -0.9558 -1.3235
   18MOL0     H 2364  10.428   1.565   9.302 -0.8440 -4.0219 -0.6752
   18MOL0     H 2365  10.653   1.537   9.306  1.3401 -1.5788 -0.2446
   18MOL0     H 2366  10.986   1.625   9.432  0.0316  1.4721 -1.4718
   18MOL0     H 2367  10.830   1.628   9.347 -2.6809 -0.0950  1.8724
   18MOL0     H 2368  10.977   1.392   9.457 -1.2347  0.3215  1.3659
   18MOL0     H 2369  10.827   1.388   9.377  0.3180 -1.4899  1.8742
   18MOL0     H 2370  10.963   1.508   9.171 -1.0103 -1.1230 -0.0067
   18MOL0     H 2371  10.993   1.336   9.190  1.6732 -2.3974  2.7862
   18MOL0     H 2372  11.177   1.513   9.164 -0.8423  0.3570  0.8406
   18MOL0     H 2373  11.175   1.549   9.334 -0.2529 -0.8907  1.4356
   18MOL0     H 2374  11.318   1.148   9.379  1.4518 -0.6597 -0.2728
   18MOL0     H 2375  10.641   1.580   9.735  0.4279 -1.1167 -1.6324
   18MOL0     H 2376  10.396   1.597   9.726  2.7722  1.2318  1.4539
   19MOL0     O 2377   2.432   9.257   7.299  0.4311  0.0951  0.4453
   19MOL0     C 2378   2.518   9.195   7.366  0.5383 -0.2747 -0.5675
   19MOL0     O 2379   2.508   9.081   7.438  0.2697  0.2854 -0.2058
   19MOL0     C 2380   2.389   8.994   7.440 -0.4739  0.2020 -0.0957
   19MOL0     C 2381   2.256   9.029   7.403  0.2366 -0.1349 -0.0376
   19MOL0     C 2382   2.159   8.935   7.405  0.5976 -0.5454  0.8475
   19MOL0     C 2383   2.176   8.801   7.436  0.3845 -0.0815 -0.0145
   19MOL0     O 2384   2.080   8.707   7.417  0.1776 -0.0782  0.1400
   19MOL0     C 2385   1.959   8.759   7.346  0.5710 -0.5229  0.7456
   19MOL0     C 2386   1.857   8.651   7.301 -0.2399 -0.1989  0.6957
   19MOL0     C 2387   1.804   8.565   7.412  0.4871 -0.7681 -0.0172
   19MOL0     C 2388   1.707   8.463   7.367  0.4051  0.6631  0.2205
   19MOL0     C 2389   1.643   8.388   7.488  0.8913  0.2134  0.3364
   19MOL0     C 2390   1.751   8.296   7.544  1.0026 -0.7363  0.6760
   19MOL0     C 2391   1.706   8.191   7.639 -0.4504 -0.5257  0.3185
   19MOL0     C 2392   1.631   8.069   7.577  0.4185  0.1449 -0.2769
   19MOL0     N 2393   1.526   7.997   7.655  0.3879 -0.3201  0.0888
   19MOL0     C 2394   1.487   7.866   7.647  1.1553  0.5580  0.3910
   19MOL0     C 2395   1.382   7.849   7.736 -0.1007 -0.2457  0.0692
   19MOL0     C 2396   1.293   7.730   7.758  0.1156  0.0419  0.1537
   19MOL0     C 2397   1.156   7.756   7.699 -0.0177 -0.1744 -0.2894
   19MOL0     C 2398   1.105   7.623   7.676  0.3052  0.0953  0.0803
   19MOL0     C 2399   0.958   7.630   7.632  0.6437 -0.9072  0.5340
   19MOL0     O 2400   0.881   7.683   7.745 -0.4209 -0.0090  0.2986
   19MOL0     C 2401   0.757   7.726   7.707  0.5645  0.0600  0.0901
   19MOL0     C 2402   0.675   7.777   7.805 -0.4413 -0.5216  1.1395
   19MOL0     C 2403   0.536   7.791   7.780 -0.3258  0.1870 -0.9006
   19MOL0     C 2404   0.471   7.768   7.660 -0.0155 -0.3157  0.3956
   19MOL0     C 2405   0.325   7.774   7.646  0.4384  0.1018  0.2478
   19MOL0     O 2406   0.255   7.820   7.757  0.2192 -0.4935  0.6445
   19MOL0     C 2407   0.126   7.812   7.775 -0.0354  0.1710  1.1193
   19MOL0     C 2408   0.026   7.818   7.677  0.0369  0.2736  0.0921
   19MOL0     C 2409  -0.103   7.804   7.710  0.2446 -0.1726  0.3669
   19MOL0     C 2410  -0.142   7.793   7.852  1.0556 -0.5077  0.2651
   19MOL0     O 2411  -0.279   7.802   7.894  0.2554 -0.3367  0.9490
   19MOL0     C 2412  -0.361   7.902   7.818 -0.6810  0.7315 -0.5480
   19MOL0     C 2413  -0.472   7.943   7.908 -0.0827 -0.2954  0.8663
   19MOL0     C 2414  -0.554   7.837   7.989  0.1532  0.7089  0.8552
   19MOL0     C 2415  -0.642   7.920   8.085  0.9404 -0.5771 -0.5126
   19MOL0     C 2416  -0.736   7.847   8.185 -0.0333  0.6665  0.3696
   19MOL0     C 2417  -0.656   7.765   8.292  0.4949  0.6564  0.0511
   19MOL0     C 2418  -0.738   7.736   8.421  0.2806  0.0714 -0.7130
   19MOL0     C 2419  -0.791   7.860   8.499  0.0116  0.2389  0.1836
   19MOL0    Cl 2420  -0.670   7.983   8.533  0.1795 -0.0388  0.2725
   19MOL0     C 2421  -0.039   7.789   7.947 -0.6367  0.3737  0.1450
   19MOL0     C 2422   0.093   7.800   7.913  0.4355  1.1593 -1.1702
   19MOL0     O 2423   0.274   7.720   7.547  0.2999  0.4927 -1.2807
   19MOL0     C 2424   0.558   7.725   7.555 -0.2438 -0.1192 -0.0481
   19MOL0     C 2425   0.692   7.699   7.577 -0.1433 -0.7734 -1.1239
   19MOL0     N 2426   1.372   7.971   7.805 -0.0535  0.5845  0.2381
   19MOL0     N 2427   1.463   8.048   7.764 -0.8280  0.0822  0.6901
   19MOL0     C 2428   2.298   8.760   7.476  0.6191  0.5561 -1.8227
   19MOL0     C 2429   2.406   8.850   7.486 -0.6556  0.2923  0.4395
   19MOL0     C 2430   2.643   9.268   7.362 -0.6860 -0.2413  0.2728
   19MOL0     C 2431   2.764   9.212   7.406  0.5019  0.8183 -0.3739
   19MOL0     C 2432   2.881   9.286   7.404 -0.0488  0.5791 -1.0311
   19MOL0     C 2433   2.883   9.422   7.367 -0.0750  0.1696  0.1056
   19MOL0     O 2434   2.997   9.506   7.375  0.0344  0.4601 -0.5587
   19MOL0     C 2435   3.124   9.440   7.412  0.6109 -0.3335  0.0797
   19MOL0     C 2436   3.239   9.536   7.399  0.3505  0.2732  0.5179
   19MOL0     C 2437   3.252   9.610   7.525  0.3949 -0.9390  0.2836
   19MOL0     C 2438   3.366   9.715   7.503  0.3888  0.3456 -0.4158
   19MOL0     C 2439   3.319   9.814   7.405  0.0295  0.2788 -0.8623
   19MOL0     C 2440   3.283   9.909   7.330 -0.0985 -0.3483 -0.2285
   19MOL0     C 2441   2.763   9.480   7.338 -0.6898 -0.7848  0.3542
   19MOL0     C 2442   2.645   9.406   7.344 -0.7559  0.0062  0.7242
   19MOL0     H 2443   2.222   9.130   7.383  0.8612  0.6991  2.6334
   19MOL0     H 2444   2.063   8.982   7.386  1.9776  1.5192 -1.7565
   19MOL0     H 2445   1.997   8.805   7.254  0.7321  0.3822  1.2593
   19MOL0     H 2446   1.899   8.836   7.395  0.6001  1.8914 -2.6360
   19MOL0     H 2447   1.912   8.593   7.226 -2.4171  0.6831 -1.7291
   19MOL0     H 2448   1.767   8.692   7.255 -0.9137 -3.7676 -1.5312
   19MOL0     H 2449   1.750   8.630   7.481 -3.5787 -2.2883 -1.5097
   19MOL0     H 2450   1.889   8.523   7.468  1.0880 -1.6151 -1.5224
   19MOL0     H 2451   1.632   8.509   7.302 -0.6536  0.2651  1.1344
   19MOL0     H 2452   1.767   8.392   7.309  1.5880  2.2016 -0.5065
   19MOL0     H 2453   1.561   8.332   7.442 -0.5253  2.4049  0.0573
   19MOL0     H 2454   1.596   8.460   7.557 -1.1362 -1.6913  1.0793
   19MOL0     H 2455   1.834   8.350   7.589  3.8798 -0.4287 -4.2087
   19MOL0     H 2456   1.804   8.236   7.469  0.2755 -0.2037 -0.2956
   19MOL0     H 2457   1.797   8.149   7.682  0.7348  1.5725  0.0104
   19MOL0     H 2458   1.641   8.244   7.709 -3.6104 -0.6676 -2.2699
   19MOL0     H 2459   1.711   8.005   7.537  2.6337 -0.0445  3.9049
   19MOL0     H 2460   1.569   8.117   7.501  0.1637 -1.2561 -0.9904
   19MOL0     H 2461   1.537   7.792   7.586  0.7905  0.7124 -0.0945
   19MOL0     H 2462   1.293   7.717   7.867 -3.5707 -0.4029  0.2327
   19MOL0     H 2463   1.342   7.635   7.737  2.9842  0.4049  4.1114
   19MOL0     H 2464   1.176   7.808   7.605  0.9947 -1.4054 -0.7944
   19MOL0     H 2465   1.105   7.816   7.775  2.3866  3.6475 -1.3828
   19MOL0     H 2466   1.169   7.567   7.607 -0.5207  0.5583 -1.0959
   19MOL0     H 2467   1.100   7.567   7.770 -0.0735 -0.0997 -0.0554
   19MOL0     H 2468   0.915   7.536   7.596  1.6336 -1.5160  0.9059
   19MOL0     H 2469   0.952   7.705   7.552 -2.0462  0.9815  2.3527
   19MOL0     H 2470   0.723   7.810   7.897 -0.4057 -0.0662  0.9619
   19MOL0     H 2471   0.483   7.816   7.871 -1.9696 -2.7899 -0.8910
   19MOL0     H 2472   0.056   7.858   7.580  0.8968  1.2821  0.7432
   19MOL0     H 2473  -0.169   7.822   7.626 -1.5350  2.9668  2.2589
   19MOL0     H 2474  -0.400   7.859   7.725 -2.0222  1.1560 -0.2135
   19MOL0     H 2475  -0.310   7.997   7.803  0.3869  0.4155  0.9084
   19MOL0     H 2476  -0.541   8.009   7.854  2.5547  0.6915 -1.5368
   19MOL0     H 2477  -0.424   8.004   7.984 -2.7696  0.0658  2.3974
   19MOL0     H 2478  -0.483   7.769   8.036  0.8855 -1.9403 -3.5476
   19MOL0     H 2479  -0.608   7.771   7.921  2.6754 -0.2805 -0.3399
   19MOL0     H 2480  -0.570   7.977   8.144  0.1002 -1.3266  1.3105
   19MOL0     H 2481  -0.713   7.985   8.033  0.1679  1.3264  2.6650
   19MOL0     H 2482  -0.803   7.780   8.130 -0.9555 -0.8043  3.0475
   19MOL0     H 2483  -0.805   7.920   8.229  0.3489  1.6830 -0.6801
   19MOL0     H 2484  -0.568   7.825   8.317  1.9840  0.5097 -3.9994
   19MOL0     H 2485  -0.617   7.673   8.247  2.7082  2.0953 -1.1463
   19MOL0     H 2486  -0.823   7.677   8.385 -0.8758  2.3750 -2.0348
   19MOL0     H 2487  -0.666   7.688   8.488  0.1039  0.7344 -0.0340
   19MOL0     H 2488  -0.822   7.820   8.596 -2.0213 -3.6931 -1.8651
   19MOL0     H 2489  -0.878   7.901   8.448  1.7573  2.7370 -0.9923
   19MOL0     H 2490  -0.070   7.782   8.051 -0.9587  0.3633  0.0505
   19MOL0     H 2491   0.168   7.789   7.991 -1.8270  0.4250  1.0913
   19MOL0     H 2492   0.513   7.717   7.456 -3.2761  2.2664  0.9805
   19MOL0     H 2493   0.746   7.654   7.494  0.4394  1.7862 -2.2324
   19MOL0     H 2494   2.305   8.652   7.485  1.8910  0.7616  0.5866
   19MOL0     H 2495   2.505   8.824   7.520 -0.1733  0.3594 -0.8293
   19MOL0     H 2496   2.751   9.113   7.448 -3.8841  1.9740  1.5316
   19MOL0     H 2497   2.967   9.229   7.435  0.2328  0.3635 -2.1568
   19MOL0     H 2498   3.131   9.356   7.343 -1.2746  0.5071 -1.2440
   19MOL0     H 2499   3.135   9.406   7.516  2.5358 -0.2111 -0.0506
   19MOL0     H 2500   3.336   9.489   7.379 -0.0789 -0.7231  0.7264
   19MOL0     H 2501   3.212   9.594   7.310 -0.2785 -1.8651 -0.7465
   19MOL0     H 2502   3.273   9.549   7.614 -1.6422 -1.5419  0.4107
   19MOL0     H 2503   3.165   9.670   7.555  2.1954  1.7465  0.5426
   19MOL0     H 2504   3.372   9.765   7.601 -1.5657 -2.7537  1.4396
   19MOL0     H 2505   3.454   9.659   7.470 -1.7919 -4.0581  0.4755
   19MOL0     H 2506   3.253   9.989   7.266 -0.3006 -1.8358 -2.0603
   19MOL0     H 2507   2.767   9.587   7.322  0.1959 -0.8491  0.0854
   19MOL0     H 2508   2.556   9.456   7.307  0.3813 -1.6455 -5.3705
   20MOL0     O 2509   6.940   3.528   5.369  0.4984  0.0998  0.1056
   20MOL0     C 2510   6.990   3.559   5.473  1.3770  0.0806 -0.1735
   20MOL0     O 2511   6.916   3.572   5.590 -1.2225  0.0767 -0.5672
   20MOL0     C 2512   6.783   3.566   5.582  0.1827 -0.2647  1.1020
   20MOL0     C 2513   6.713   3.449   5.579 -0.1972  0.5299  0.0401
   20MOL0     C 2514   6.574   3.450   5.565 -0.3431  0.1174 -0.0773
   20MOL0     C 2515   6.507   3.574   5.565 -0.6236  0.3242 -0.0443
   20MOL0     O 2516   6.371   3.590   5.578  0.5482 -0.2303 -0.0028
   20MOL0     C 2517   6.291   3.477   5.588 -0.3941 -0.2892  0.4752
   20MOL0     C 2518   6.144   3.512   5.590 -0.5024 -0.2320  0.8651
   20MOL0     C 2519   6.111   3.626   5.702 -0.3489  0.5524 -0.1622
   20MOL0     C 2520   6.082   3.563   5.841  0.0108 -0.4970  0.0821
   20MOL0     C 2521   6.072   3.664   5.956  0.2596  1.0450 -0.4547
   20MOL0     C 2522   5.968   3.777   5.911 -0.3116  0.5403 -0.6566
   20MOL0     C 2523   5.943   3.878   6.031 -0.2882  0.4033  0.4877
   20MOL0     C 2524   5.827   3.960   5.997  0.6342 -0.9514 -0.2679
   20MOL0     N 2525   5.832   4.069   6.095  0.0638 -0.0827 -0.5542
   20MOL0     C 2526   5.761   4.079   6.214 -0.4980  0.5919 -0.1029
   20MOL0     C 2527   5.754   4.204   6.254 -0.5444  0.2907 -0.3281
   20MOL0     C 2528   5.685   4.250   6.381  0.4275  0.3223  1.1049
   20MOL0     C 2529   5.670   4.406   6.388  0.2900  0.0974  0.3396
   20MOL0     C 2530   5.579   4.451   6.509 -0.4121  0.8950 -0.0043
   20MOL0     C 2531   5.523   4.584   6.481 -0.2624  0.4667 -0.0393
   20MOL0     O 2532   5.458   4.644   6.598  0.1474  0.0068  0.0400
   20MOL0     C 2533   5.329   4.612   6.616  1.2445 -0.6347 -0.3566
   20MOL0     C 2534   5.252   4.515   6.551  0.5974 -0.5391  0.0258
   20MOL0     C 2535   5.113   4.505   6.555  0.2861 -0.2714 -0.6591
   20MOL0     C 2536   5.045   4.595   6.635  0.5751 -0.6947 -0.5111
   20MOL0     C 2537   4.899   4.607   6.629 -0.6206  0.3867  1.2974
   20MOL0     O 2538   4.833   4.695   6.713 -0.5225  0.1237 -0.1679
   20MOL0     C 2539   4.706   4.699   6.731  0.7743  0.3729 -0.0457
   20MOL0     C 2540   4.646   4.700   6.864  0.3606  0.0083  0.8849
   20MOL0     C 2541   4.501   4.709   6.878 -1.0367  0.6276  0.0304
   20MOL0     C 2542   4.421   4.726   6.769 -0.6632 -1.0844  0.3289
   20MOL0     O 2543   4.292   4.774   6.779  0.0769  0.0798  1.2118
   20MOL0     C 2544   4.189   4.679   6.733  0.8554 -0.2108  0.3078
   20MOL0     C 2545   4.071   4.674   6.834 -0.7412  0.7305 -0.0725
   20MOL0     C 2546   3.950   4.603   6.771  0.2477 -0.0364 -1.0951
   20MOL0     C 2547   3.837   4.575   6.872 -0.6194 -0.5011 -0.7348
   20MOL0     C 2548   3.793   4.434   6.844 -0.0045  0.3345  0.0500
   20MOL0     C 2549   3.655   4.389   6.894  0.2415  0.7167 -0.4941
   20MOL0     C 2550   3.658   4.232   6.912 -0.7638 -0.4011 -0.6368
   20MOL0     C 2551   3.520   4.171   6.934  0.6492  0.9337 -0.0421
   20MOL0    Cl 2552   3.444   4.268   7.062  0.2361  0.0121 -0.2471
   20MOL0     C 2553   4.475   4.729   6.644  0.0178 -0.9307 -0.0056
   20MOL0     C 2554   4.612   4.719   6.627 -0.0296  0.3821  0.8581
   20MOL0     O 2555   4.848   4.540   6.540  0.5709  0.5185  0.4432
   20MOL0     C 2556   5.125   4.694   6.704  1.2208 -1.4021  0.5334
   20MOL0     C 2557   5.265   4.692   6.707  0.0453 -0.3760 -0.0138
   20MOL0     N 2558   5.827   4.271   6.161  0.1484  1.3730  0.1188
   20MOL0     N 2559   5.868   4.189   6.064 -0.9936  1.3432  0.0083
   20MOL0     C 2560   6.571   3.695   5.570 -0.3323  0.1066 -0.2917
   20MOL0     C 2561   6.711   3.685   5.572 -0.3303  0.0137 -0.6504
   20MOL0     C 2562   7.137   3.564   5.473 -0.0729 -0.2778 -0.7847
   20MOL0     C 2563   7.215   3.526   5.359 -0.0573 -0.2982 -0.1387
   20MOL0     C 2564   7.355   3.537   5.369  0.2599  0.0559  0.9198
   20MOL0     C 2565   7.427   3.577   5.487 -0.1043 -0.8774  0.4276
   20MOL0     O 2566   7.567   3.580   5.487  0.4664 -0.3222 -0.5089
   20MOL0     C 2567   7.633   3.558   5.614 -0.0763 -0.8754 -0.2059
   20MOL0     C 2568   7.772   3.530   5.554  0.0505  0.4669  0.6962
   20MOL0     C 2569   7.884   3.541   5.655 -0.2532  0.2816 -0.6808
   20MOL0     C 2570   7.867   3.436   5.755 -0.4016  0.7867 -0.5815
   20MOL0     C 2571   7.776   3.460   5.862 -0.2586  0.4790 -0.1396
   20MOL0     C 2572   7.690   3.478   5.948  0.2683  0.2832 -0.3133
   20MOL0     C 2573   7.347   3.589   5.600 -0.1183  1.5476  0.6391
   20MOL0     C 2574   7.209   3.590   5.594  0.3368  0.0339  0.1079
   20MOL0     H 2575   6.778   3.365   5.602  1.1213  1.8014  1.1764
   20MOL0     H 2576   6.515   3.361   5.582  0.4399 -0.3182  0.4537
   20MOL0     H 2577   6.319   3.427   5.681 -0.9579  2.7929  2.4561
   20MOL0     H 2578   6.294   3.417   5.497  0.5801  0.0902  0.2369
   20MOL0     H 2579   6.083   3.422   5.605  0.6736 -1.3938 -0.9318
   20MOL0     H 2580   6.120   3.548   5.490  0.8999  0.0026  0.6000
   20MOL0     H 2581   6.017   3.671   5.668 -1.5805 -2.1399 -0.5321
   20MOL0     H 2582   6.189   3.702   5.713  1.3700 -0.5245 -3.4653
   20MOL0     H 2583   5.990   3.505   5.837 -0.0277 -0.4757  0.5210
   20MOL0     H 2584   6.165   3.492   5.850  1.9670  1.3304 -2.3253
   20MOL0     H 2585   6.171   3.702   5.983 -0.0616 -0.2519  2.9487
   20MOL0     H 2586   6.043   3.611   6.047  2.9164  1.5243  0.7492
   20MOL0     H 2587   5.877   3.716   5.914 -1.2218  1.8984  1.2033
   20MOL0     H 2588   5.990   3.821   5.813  0.2559  0.9258 -0.3630
   20MOL0     H 2589   5.922   3.807   6.111 -0.5463 -0.3852 -0.2523
   20MOL0     H 2590   6.036   3.929   6.055 -1.2039  1.4818  1.8272
   20MOL0     H 2591   5.732   3.908   6.010 -0.0454 -0.9428 -4.1079
   20MOL0     H 2592   5.825   3.999   5.895 -1.0599  1.9181  0.7345
   20MOL0     H 2593   5.739   3.996   6.280  3.1790  1.3985  2.4574
   20MOL0     H 2594   5.739   4.218   6.470 -0.1409 -1.6381  0.7863
   20MOL0     H 2595   5.584   4.209   6.388  1.1355 -1.3830  1.7227
   20MOL0     H 2596   5.620   4.439   6.296  1.5359  2.4004  0.4099
   20MOL0     H 2597   5.767   4.456   6.390  1.3074 -1.8098  2.3119
   20MOL0     H 2598   5.500   4.376   6.516  0.1315  0.2850 -0.3030
   20MOL0     H 2599   5.642   4.452   6.599 -2.5263  0.0856  1.5801
   20MOL0     H 2600   5.448   4.570   6.403 -0.2736 -1.7434  0.2953
   20MOL0     H 2601   5.605   4.638   6.434 -0.7004 -1.3445 -3.1532
   20MOL0     H 2602   5.295   4.440   6.485  2.5424 -0.1757  0.8170
   20MOL0     H 2603   5.064   4.440   6.484 -2.0926 -0.9581  1.4723
   20MOL0     H 2604   4.711   4.679   6.948  0.8955  3.9645  1.6653
   20MOL0     H 2605   4.444   4.698   6.970 -0.2247 -0.1991  0.4616
   20MOL0     H 2606   4.217   4.575   6.714 -0.4050 -0.3548 -0.9774
   20MOL0     H 2607   4.144   4.722   6.643  0.8152 -2.1690 -0.6572
   20MOL0     H 2608   4.060   4.777   6.871  4.8901  1.6301  0.0703
   20MOL0     H 2609   4.101   4.618   6.923 -3.5661 -1.9032 -0.6124
   20MOL0     H 2610   3.992   4.508   6.737 -0.3189 -0.3154 -1.0321
   20MOL0     H 2611   3.916   4.664   6.686  0.3973  2.6713  0.6375
   20MOL0     H 2612   3.875   4.590   6.973  3.3286  0.2048 -2.1421
   20MOL0     H 2613   3.748   4.637   6.856 -1.0519 -0.0932  2.6292
   20MOL0     H 2614   3.859   4.372   6.905 -2.9584 -4.2172 -0.8644
   20MOL0     H 2615   3.812   4.407   6.739  1.2218 -1.6044  0.7004
   20MOL0     H 2616   3.562   4.429   6.852 -1.1510 -1.2212  0.5986
   20MOL0     H 2617   3.649   4.438   6.992  1.8732 -0.1123  0.0636
   20MOL0     H 2618   3.699   4.197   6.818  2.2706 -3.5225  1.6195
   20MOL0     H 2619   3.735   4.199   6.982  1.4425  3.9429 -0.6132
   20MOL0     H 2620   3.536   4.066   6.960  1.0338  0.9205 -0.3294
   20MOL0     H 2621   3.463   4.168   6.841  1.0285 -1.2380 -0.2617
   20MOL0     H 2622   4.406   4.726   6.560  1.6962 -1.8103 -1.4189
   20MOL0     H 2623   4.654   4.710   6.528 -0.5793  0.4955  0.6110
   20MOL0     H 2624   5.076   4.768   6.766  0.5173 -2.6605  1.5390
   20MOL0     H 2625   5.320   4.768   6.761 -2.7766  0.6387  1.6979
   20MOL0     H 2626   6.510   3.785   5.562 -4.2953 -2.4393 -1.6346
   20MOL0     H 2627   6.770   3.776   5.568  0.1023 -0.1941  0.5271
   20MOL0     H 2628   7.177   3.498   5.261  1.6968  2.1859 -1.6455
   20MOL0     H 2629   7.414   3.518   5.280 -0.3926  2.5258 -0.1162
   20MOL0     H 2630   7.591   3.476   5.673 -0.0291 -1.1626 -0.5672
   20MOL0     H 2631   7.636   3.647   5.677 -2.5320 -1.3146  0.6379
   20MOL0     H 2632   7.777   3.441   5.491  0.0463  0.6302  0.4666
   20MOL0     H 2633   7.782   3.618   5.491 -5.0990  0.5554 -0.3800
   20MOL0     H 2634   7.897   3.635   5.709 -2.0797 -0.7040  1.6458
   20MOL0     H 2635   7.982   3.518   5.611  1.5404  0.5318  2.7554
   20MOL0     H 2636   7.841   3.344   5.701 -1.5200  0.6774  0.1042
   20MOL0     H 2637   7.968   3.416   5.793  1.0289 -1.3337 -4.8206
   20MOL0     H 2638   7.617   3.493   6.025 -0.7913  1.3974 -1.4936
   20MOL0     H 2639   7.401   3.602   5.693  3.3310 -1.0244 -0.7780
   20MOL0     H 2640   7.160   3.602   5.691  0.8129 -3.1227  0.8369
   21MOL0     O 2641   0.336   6.355   7.441  0.2303 -0.4344 -0.6304
   21MOL0     C 2642   0.413   6.325   7.530 -0.3732 -0.4892  1.1928
   21MOL0     O 2643   0.425   6.198   7.576 -0.6004  0.1497 -0.1718
   21MOL0     C 2644   0.342   6.099   7.539  0.4919 -0.7739 -0.7820
   21MOL0     C 2645   0.394   6.000   7.455 -0.8231 -0.2313 -0.4506
   21MOL0     C 2646   0.313   5.896   7.413  0.1640  0.8319  0.4800
   21MOL0     C 2647   0.186   5.880   7.472 -0.2027  1.3392  0.0145
   21MOL0     O 2648   0.113   5.774   7.436  0.6915  0.6891 -0.6295
   21MOL0     C 2649  -0.008   5.741   7.512 -0.3269 -0.0278  0.3126
   21MOL0     C 2650  -0.042   5.599   7.494 -0.5650 -0.1651 -0.0849
   21MOL0     C 2651  -0.162   5.570   7.571 -0.3195 -0.0412  0.2387
   21MOL0     C 2652  -0.288   5.629   7.502  1.2038  0.2269  0.0755
   21MOL0     C 2653  -0.412   5.546   7.542  0.1117 -0.0720 -0.7216
   21MOL0     C 2654  -0.527   5.579   7.450 -0.9726 -0.3757 -0.1311
   21MOL0     C 2655  -0.648   5.494   7.503  0.8026  0.1075  0.8140
   21MOL0     C 2656  -0.772   5.530   7.420  0.3862 -0.2994 -0.2401
   21MOL0     N 2657  -0.898   5.469   7.461  0.3492  0.3150  0.0118
   21MOL0     C 2658  -1.008   5.541   7.507  0.5329 -0.0657 -0.2282
   21MOL0     C 2659  -1.104   5.443   7.526 -0.3078 -0.2474  0.1900
   21MOL0     C 2660  -1.245   5.465   7.577  0.0066  0.0775  0.6572
   21MOL0     C 2661  -1.349   5.397   7.479 -0.7385  0.1948 -0.6232
   21MOL0     C 2662  -1.487   5.448   7.532  0.2257  1.1068  0.0926
   21MOL0     C 2663  -1.605   5.361   7.492  0.2893 -0.7104  0.0472
   21MOL0     O 2664  -1.712   5.441   7.540  0.2507 -0.3824  0.3845
   21MOL0     C 2665  -1.848   5.396   7.525 -0.2845 -0.8267  0.9882
   21MOL0     C 2666  -1.945   5.493   7.533  0.5170  0.0770  0.2207
   21MOL0     C 2667  -2.091   5.467   7.517 -0.0176 -0.0353 -1.1901
   21MOL0     C 2668  -2.135   5.330   7.514 -0.1926 -0.1410  0.3312
   21MOL0     C 2669  -2.269   5.287   7.529 -1.0352  1.9492  0.7873
   21MOL0     O 2670  -2.353   5.383   7.575 -0.1984  0.1916  0.0938
   21MOL0     C 2671  -2.485   5.367   7.614  0.1691 -0.7095  0.4715
   21MOL0     C 2672  -2.550   5.239   7.638  0.1818 -1.4559  0.5021
   21MOL0     C 2673  -2.687   5.243   7.643  0.1152 -0.9446  0.1321
   21MOL0     C 2674  -2.773   5.351   7.620 -0.3975  0.8203  0.3762
   21MOL0     O 2675  -2.907   5.342   7.644 -0.1681 -0.1372 -0.2951
   21MOL0     C 2676  -2.959   5.263   7.757 -0.5460  0.0154  0.6462
   21MOL0     C 2677  -3.002   5.354   7.868 -0.0891 -0.4918  0.5337
   21MOL0     C 2678  -3.077   5.281   7.980 -0.2362  0.3021 -0.2829
   21MOL0     C 2679  -3.171   5.370   8.055 -0.6142 -0.1068  0.6264
   21MOL0     C 2680  -3.233   5.298   8.166 -0.0567 -0.7495  0.4234
   21MOL0     C 2681  -3.257   5.376   8.295 -0.2170 -0.7348 -0.5778
   21MOL0     C 2682  -3.316   5.290   8.409 -0.4062 -0.8260 -0.1249
   21MOL0     C 2683  -3.472   5.302   8.422 -0.3239 -0.3292  0.4043
   21MOL0    Cl 2684  -3.517   5.458   8.492 -0.1209 -0.3385 -0.2268
   21MOL0     C 2685  -2.707   5.477   7.592  0.0153  0.2006 -0.2432
   21MOL0     C 2686  -2.570   5.483   7.586 -0.6351  0.4679 -0.3036
   21MOL0     O 2687  -2.295   5.164   7.505  0.3339  0.0067 -0.6084
   21MOL0     C 2688  -2.039   5.238   7.508 -0.2925  0.2253  0.0887
   21MOL0     C 2689  -1.894   5.265   7.513  0.2665 -0.0068 -0.2175
   21MOL0     N 2690  -1.043   5.324   7.506 -0.5460 -0.3427 -1.0292
   21MOL0     N 2691  -0.927   5.337   7.465  0.2579 -0.2053  0.2059
   21MOL0     C 2692   0.139   5.985   7.557  0.3039 -0.3249  0.1644
   21MOL0     C 2693   0.213   6.095   7.589  0.1190 -0.1895  1.0289
   21MOL0     C 2694   0.495   6.425   7.604  0.1437 -0.2148 -0.2546
   21MOL0     C 2695   0.519   6.406   7.743  0.2375  0.2615  0.3027
   21MOL0     C 2696   0.572   6.504   7.823 -0.0399 -0.5637  0.0610
   21MOL0     C 2697   0.604   6.631   7.782 -0.3701  0.7624  0.7224
   21MOL0     O 2698   0.668   6.715   7.873  0.1250  0.1254 -0.7506
   21MOL0     C 2699   0.757   6.807   7.805 -0.3801 -0.1624 -0.4720
   21MOL0     C 2700   0.859   6.866   7.905 -0.1685  0.1413 -0.0350
   21MOL0     C 2701   0.955   6.969   7.854  0.8174 -0.3086  0.5310
   21MOL0     C 2702   1.076   6.922   7.768  0.3818 -0.6216 -0.7937
   21MOL0     C 2703   1.030   6.912   7.627 -0.5873 -0.3765 -0.5797
   21MOL0     C 2704   0.989   6.898   7.520 -0.2567 -0.8538  0.6179
   21MOL0     C 2705   0.587   6.652   7.645 -0.5373 -1.0993  0.2001
   21MOL0     C 2706   0.539   6.554   7.555  0.8922 -0.1974 -0.5584
   21MOL0     H 2707   0.500   5.992   7.435 -0.6608  1.0310 -0.1762
   21MOL0     H 2708   0.356   5.827   7.341 -0.5455 -0.2523  1.0551
   21MOL0     H 2709  -0.089   5.802   7.472  3.0320  2.7524 -2.9335
   21MOL0     H 2710   0.007   5.755   7.620  2.5797 -0.1381 -0.0044
   21MOL0     H 2711   0.034   5.534   7.539 -2.0261 -0.1291  2.6807
   21MOL0     H 2712  -0.053   5.585   7.386 -3.0794  1.0891 -0.0517
   21MOL0     H 2713  -0.165   5.611   7.673  0.7095  0.8611 -0.0762
   21MOL0     H 2714  -0.163   5.463   7.595 -0.7913 -0.2644 -0.7557
   21MOL0     H 2715  -0.307   5.735   7.519 -2.1875 -0.2614 -0.0897
   21MOL0     H 2716  -0.272   5.615   7.394  1.5481 -0.9087  0.2506
   21MOL0     H 2717  -0.431   5.575   7.646  1.3854  0.5525 -0.6419
   21MOL0     H 2718  -0.387   5.440   7.543 -0.3658 -0.1885 -0.7253
   21MOL0     H 2719  -0.498   5.542   7.351 -1.4262 -0.9735 -0.0468
   21MOL0     H 2720  -0.550   5.684   7.434 -0.9816 -0.5861 -1.6749
   21MOL0     H 2721  -0.635   5.385   7.507 -1.8810 -0.3896 -1.2474
   21MOL0     H 2722  -0.668   5.540   7.600  0.2074  0.9661  0.3009
   21MOL0     H 2723  -0.750   5.507   7.316  0.3953 -1.8491  0.0770
   21MOL0     H 2724  -0.793   5.637   7.420  1.0793 -0.0643  2.5816
   21MOL0     H 2725  -1.030   5.648   7.505 -1.5906 -0.4564 -0.7859
   21MOL0     H 2726  -1.251   5.573   7.569  3.8764  0.6826  3.1800
   21MOL0     H 2727  -1.246   5.434   7.682  0.9729 -1.9101  0.1476
   21MOL0     H 2728  -1.345   5.288   7.486 -0.7474  0.0364 -2.5936
   21MOL0     H 2729  -1.328   5.419   7.374 -0.6790  1.7721 -0.3087
   21MOL0     H 2730  -1.491   5.461   7.640 -2.4577  1.5823  0.0014
   21MOL0     H 2731  -1.494   5.544   7.480 -2.4747  0.9580  0.0480
   21MOL0     H 2732  -1.605   5.273   7.557  0.6001  0.1608  1.2531
   21MOL0     H 2733  -1.606   5.342   7.384 -0.6543 -2.3296  0.3213
   21MOL0     H 2734  -1.899   5.590   7.552  0.4189  0.4778 -1.3859
   21MOL0     H 2735  -2.154   5.555   7.526  2.3535  1.6229  0.5250
   21MOL0     H 2736  -2.494   5.148   7.655  0.5064 -1.3337  0.1110
   21MOL0     H 2737  -2.714   5.145   7.681 -0.0731 -0.3909  1.4724
   21MOL0     H 2738  -2.876   5.209   7.805  0.1602  1.6232  1.3380
   21MOL0     H 2739  -3.037   5.191   7.734 -0.1034 -0.4459  0.5801
   21MOL0     H 2740  -3.072   5.430   7.831  0.2743 -0.2928  0.2442
   21MOL0     H 2741  -2.915   5.406   7.909 -1.2495  0.8237  1.4222
   21MOL0     H 2742  -3.006   5.230   8.047 -0.0215  3.3478  1.9725
   21MOL0     H 2743  -3.138   5.198   7.944 -2.2981  0.3481  2.8240
   21MOL0     H 2744  -3.122   5.459   8.095 -2.4907 -0.9572  5.5373
   21MOL0     H 2745  -3.257   5.398   7.993 -3.3761 -0.9060  3.8195
   21MOL0     H 2746  -3.180   5.203   8.180 -0.8803 -0.9614  2.5287
   21MOL0     H 2747  -3.330   5.286   8.117 -0.6417  3.6842  0.0341
   21MOL0     H 2748  -3.324   5.458   8.266  0.0634 -0.3796 -0.2234
   21MOL0     H 2749  -3.168   5.427   8.333 -0.7694 -0.4805  0.4050
   21MOL0     H 2750  -3.295   5.184   8.387 -1.3484 -1.1086  0.2562
   21MOL0     H 2751  -3.268   5.309   8.505  1.5133  0.9508 -1.3465
   21MOL0     H 2752  -3.508   5.229   8.496  1.0515  0.9648  2.4427
   21MOL0     H 2753  -3.524   5.299   8.326  0.6674 -0.8208 -0.1269
   21MOL0     H 2754  -2.777   5.560   7.584  0.0845  0.1420 -1.5244
   21MOL0     H 2755  -2.521   5.574   7.555  0.1108  1.2660  2.8149
   21MOL0     H 2756  -2.074   5.135   7.504  0.8235 -0.1351 -1.4569
   21MOL0     H 2757  -1.824   5.183   7.496  0.2060  0.3998 -2.9323
   21MOL0     H 2758   0.041   5.975   7.605  0.7411 -0.7218  0.9977
   21MOL0     H 2759   0.184   6.174   7.658 -0.6059 -0.3909  0.9569
   21MOL0     H 2760   0.517   6.303   7.776  3.3269 -0.7621 -2.2021
   21MOL0     H 2761   0.574   6.480   7.928 -0.6378 -1.0013 -0.0235
   21MOL0     H 2762   0.694   6.886   7.765 -1.5508 -2.0646 -2.6295
   21MOL0     H 2763   0.811   6.752   7.727 -0.7795  0.6702 -1.3412
   21MOL0     H 2764   0.806   6.927   7.979 -0.7913  1.3752 -1.4585
   21MOL0     H 2765   0.915   6.787   7.955 -0.8029 -1.9177 -2.3892
   21MOL0     H 2766   1.002   7.008   7.944 -1.5661 -2.2829  2.7690
   21MOL0     H 2767   0.908   7.055   7.805 -1.8560  0.3121  3.8648
   21MOL0     H 2768   1.156   6.996   7.777 -0.0476 -0.1858 -0.5231
   21MOL0     H 2769   1.112   6.825   7.803  0.3746  0.2068  1.7131
   21MOL0     H 2770   0.933   6.897   7.429 -0.3628 -0.7149  0.6805
   21MOL0     H 2771   0.595   6.753   7.606  2.0679 -1.0161  0.7950
   21MOL0     H 2772   0.531   6.604   7.458 -0.7745 -1.6538 -1.2144
   22MOL0     O 2773   2.154   1.146   2.655  0.5485 -0.1778  0.1222
   22MOL0     C 2774   2.236   1.235   2.645  0.5984 -0.8222  0.1315
   22MOL0     O 2775   2.209   1.367   2.613 -0.1495  0.0642  0.5316
   22MOL0     C 2776   2.084   1.409   2.584 -0.3013 -0.5737  0.4085
   22MOL0     C 2777   2.031   1.394   2.457 -0.8537 -0.0887 -0.8722
   22MOL0     C 2778   1.900   1.438   2.428  1.1291 -0.0132 -0.2079
   22MOL0     C 2779   1.816   1.476   2.537  0.8375  0.4528  0.6234
   22MOL0     O 2780   1.687   1.496   2.491 -0.0480 -0.3417 -0.8249
   22MOL0     C 2781   1.584   1.509   2.599 -0.3600  0.5400 -1.7317
   22MOL0     C 2782   1.447   1.471   2.530 -0.0233  0.7023  0.1163
   22MOL0     C 2783   1.342   1.488   2.631  0.0507 -0.4375 -0.2546
   22MOL0     C 2784   1.204   1.507   2.569 -0.7932 -0.3124 -0.5013
   22MOL0     C 2785   1.097   1.474   2.673  0.7908 -0.9461 -0.5867
   22MOL0     C 2786   0.954   1.510   2.624  0.0713 -0.5303 -0.6841
   22MOL0     C 2787   0.858   1.548   2.732 -0.0530  0.1438 -0.3028
   22MOL0     C 2788   0.858   1.699   2.778 -0.7734 -0.0742 -0.0938
   22MOL0     N 2789   0.744   1.729   2.869 -0.0310  0.2809 -0.2802
   22MOL0     C 2790   0.682   1.633   2.942  0.8194 -0.9653 -0.3678
   22MOL0     C 2791   0.589   1.702   3.009 -0.5884 -0.3923  0.0960
   22MOL0     C 2792   0.504   1.639   3.110  0.7755 -0.1518 -0.4142
   22MOL0     C 2793   0.394   1.739   3.148  0.6180 -0.4748  0.1334
   22MOL0     C 2794   0.288   1.750   3.039  0.3353  1.1431 -0.0377
   22MOL0     C 2795   0.168   1.821   3.105 -0.0925 -0.0780  0.4846
   22MOL0     O 2796   0.052   1.837   3.022  0.9113 -0.0559  0.8335
   22MOL0     C 2797  -0.064   1.824   3.088 -0.1641 -0.1494 -0.0682
   22MOL0     C 2798  -0.085   1.877   3.214 -0.0674 -0.1911  0.1840
   22MOL0     C 2799  -0.206   1.865   3.285 -0.9710 -0.3686 -0.4284
   22MOL0     C 2800  -0.300   1.775   3.238  0.9672 -0.5963  0.0862
   22MOL0     C 2801  -0.424   1.757   3.319  0.2750  1.0423  0.7081
   22MOL0     O 2802  -0.477   1.636   3.298  0.5856  0.1136  0.0258
   22MOL0     C 2803  -0.593   1.588   3.360 -0.4476  0.0320 -0.4550
   22MOL0     C 2804  -0.691   1.653   3.436  0.5716 -1.2844  0.0926
   22MOL0     C 2805  -0.806   1.582   3.495 -0.3524  0.6104 -0.2222
   22MOL0     C 2806  -0.817   1.440   3.475 -0.4522 -0.8640 -0.1760
   22MOL0     O 2807  -0.920   1.368   3.529 -0.6086  0.2285  0.1478
   22MOL0     C 2808  -0.980   1.408   3.653  0.3370 -0.4105  0.2095
   22MOL0     C 2809  -1.121   1.348   3.676  0.3801  0.0335 -0.2212
   22MOL0     C 2810  -1.156   1.352   3.827  0.9623 -0.4697 -0.2735
   22MOL0     C 2811  -1.211   1.491   3.867 -0.9119  0.2273  0.2048
   22MOL0     C 2812  -1.255   1.497   4.014 -0.1369  0.6284 -0.8687
   22MOL0     C 2813  -1.390   1.428   4.046 -0.5491  0.1760 -0.3065
   22MOL0     C 2814  -1.511   1.531   4.033 -0.6463 -0.4637  0.8899
   22MOL0     C 2815  -1.625   1.489   4.121 -0.2354 -0.5068  1.1546
   22MOL0    Cl 2816  -1.790   1.555   4.102  0.2271  0.1674 -0.1244
   22MOL0     C 2817  -0.708   1.376   3.409  0.3300 -0.8005 -0.4346
   22MOL0     C 2818  -0.600   1.444   3.362 -0.0072  0.3675 -0.8355
   22MOL0     O 2819  -0.452   1.834   3.408 -0.4876  0.1317  0.4094
   22MOL0     C 2820  -0.281   1.725   3.106 -0.5271  0.4488 -0.2719
   22MOL0     C 2821  -0.160   1.741   3.039  0.1959 -0.8527  0.2149
   22MOL0     N 2822   0.595   1.839   2.963 -0.1475  0.6749  0.4185
   22MOL0     N 2823   0.681   1.847   2.875 -0.6237 -0.4845 -0.4075
   22MOL0     C 2824   1.860   1.494   2.668 -0.0274 -0.2337 -0.6701
   22MOL0     C 2825   2.000   1.459   2.689  0.4142  0.1617 -0.6419
   22MOL0     C 2826   2.369   1.194   2.670 -0.4953 -0.3244  0.1449
   22MOL0     C 2827   2.476   1.286   2.651  0.6639 -0.6973 -0.0417
   22MOL0     C 2828   2.607   1.253   2.678 -0.5484 -0.2120  0.3048
   22MOL0     C 2829   2.633   1.123   2.726 -0.8933 -0.4513 -0.1644
   22MOL0     O 2830   2.762   1.084   2.764  0.2103  0.0073 -0.1707
   22MOL0     C 2831   2.877   1.156   2.719  1.0640 -0.1954 -1.0056
   22MOL0     C 2832   2.904   1.268   2.822 -0.3047 -0.3009 -0.2709
   22MOL0     C 2833   3.030   1.348   2.787  0.2046  0.6399  0.3924
   22MOL0     C 2834   3.027   1.425   2.653 -0.3880  0.1168  0.9889
   22MOL0     C 2835   2.922   1.514   2.640  0.3258  0.0439 -0.5134
   22MOL0     C 2836   2.832   1.594   2.642  0.4495 -0.5195  0.0489
   22MOL0     C 2837   2.531   1.030   2.749  0.0090 -0.3457  0.1513
   22MOL0     C 2838   2.399   1.067   2.720  0.4039  0.3613 -0.1727
   22MOL0     H 2839   2.097   1.358   2.379 -1.9005 -1.9349 -0.9623
   22MOL0     H 2840   1.863   1.437   2.326 -1.5550  0.0285  0.6886
   22MOL0     H 2841   1.599   1.605   2.649 -0.2933  0.2999 -1.2882
   22MOL0     H 2842   1.595   1.429   2.673 -1.9943  0.2933 -1.7115
   22MOL0     H 2843   1.452   1.366   2.501 -0.6553  1.0775 -1.4607
   22MOL0     H 2844   1.420   1.535   2.446 -1.7690  2.5507  1.9571
   22MOL0     H 2845   1.370   1.577   2.687 -1.7977  1.8711 -2.7198
   22MOL0     H 2846   1.340   1.399   2.695  1.5345 -0.0610  0.3370
   22MOL0     H 2847   1.196   1.615   2.558  1.1329  0.0553  1.1208
   22MOL0     H 2848   1.194   1.442   2.481 -2.0577 -0.3173 -0.3780
   22MOL0     H 2849   1.127   1.538   2.757 -1.2589 -1.7195  0.8076
   22MOL0     H 2850   1.103   1.369   2.703  0.8477 -0.5980  0.6581
   22MOL0     H 2851   0.907   1.430   2.566  1.5802 -2.3327  0.4541
   22MOL0     H 2852   0.956   1.595   2.555  1.1368  0.5369  0.5943
   22MOL0     H 2853   0.755   1.528   2.698 -0.0826  2.4055 -1.7525
   22MOL0     H 2854   0.890   1.487   2.816  0.3628  2.1681  1.0923
   22MOL0     H 2855   0.852   1.762   2.689 -0.9969  0.1466  0.0767
   22MOL0     H 2856   0.954   1.721   2.825 -1.7844 -0.1815  2.1746
   22MOL0     H 2857   0.678   1.524   2.944 -0.5024 -0.9706 -1.8671
   22MOL0     H 2858   0.563   1.607   3.196  0.1658  0.9425  0.4426
   22MOL0     H 2859   0.449   1.552   3.072  2.2114 -1.3507  0.1695
   22MOL0     H 2860   0.434   1.839   3.167  0.8908 -0.8462  1.6464
   22MOL0     H 2861   0.350   1.694   3.238 -3.1579 -1.4852 -2.0016
   22MOL0     H 2862   0.320   1.804   2.949 -0.4231  1.1307 -0.3209
   22MOL0     H 2863   0.264   1.649   3.005  1.2260  1.3150 -1.2628
   22MOL0     H 2864   0.200   1.921   3.138  2.8641 -0.7887  0.0408
   22MOL0     H 2865   0.137   1.766   3.195  0.4724  1.1061  1.4393
   22MOL0     H 2866  -0.006   1.946   3.243  1.0689 -1.7026  0.8555
   22MOL0     H 2867  -0.215   1.920   3.378 -0.6398  3.1749 -2.2846
   22MOL0     H 2868  -0.675   1.756   3.466  3.6101 -1.2457 -1.3103
   22MOL0     H 2869  -0.876   1.647   3.547 -0.6962  1.5192 -1.7435
   22MOL0     H 2870  -0.992   1.517   3.659  0.5155 -0.2834 -1.2407
   22MOL0     H 2871  -0.901   1.374   3.720  0.9250  1.1665  0.3652
   22MOL0     H 2872  -1.122   1.244   3.644 -0.4567 -0.4701  1.3406
   22MOL0     H 2873  -1.204   1.403   3.631  0.7706  1.5147  0.7726
   22MOL0     H 2874  -1.067   1.336   3.888 -0.6122 -0.8643  2.0594
   22MOL0     H 2875  -1.238   1.284   3.854 -1.3113  2.0134 -0.5167
   22MOL0     H 2876  -1.141   1.573   3.855 -0.7963 -0.0864 -1.6944
   22MOL0     H 2877  -1.291   1.516   3.796  1.5070  2.6469 -1.9039
   22MOL0     H 2878  -1.253   1.600   4.051  1.8182 -0.4435  2.5614
   22MOL0     H 2879  -1.175   1.438   4.061  0.2995 -0.9102 -3.3801
   22MOL0     H 2880  -1.385   1.399   4.151  1.1113 -2.6159 -1.0468
   22MOL0     H 2881  -1.402   1.333   3.992  3.8354 -0.2808 -0.8950
   22MOL0     H 2882  -1.478   1.630   4.066  0.1992 -0.9490  1.5262
   22MOL0     H 2883  -1.537   1.539   3.927  1.1799 -1.1773  0.3508
   22MOL0     H 2884  -1.585   1.476   4.222  1.2502  1.2890  0.8646
   22MOL0     H 2885  -1.641   1.387   4.085  2.9431  0.2814 -3.3100
   22MOL0     H 2886  -0.718   1.270   3.386  1.2156 -1.2319  1.0193
   22MOL0     H 2887  -0.519   1.386   3.319  0.6505 -0.3852  1.2970
   22MOL0     H 2888  -0.345   1.643   3.073  2.3261 -1.9587 -0.3062
   22MOL0     H 2889  -0.143   1.678   2.952 -1.0879 -1.3647  0.3144
   22MOL0     H 2890   1.790   1.519   2.747 -0.8853 -3.9629 -0.0695
   22MOL0     H 2891   2.043   1.459   2.789  1.1152 -4.4890 -0.7449
   22MOL0     H 2892   2.454   1.389   2.624 -1.1059 -1.8212 -3.6282
   22MOL0     H 2893   2.686   1.328   2.676 -1.1298  0.4770  1.6619
   22MOL0     H 2894   2.867   1.192   2.617 -1.4839  1.5270 -0.2465
   22MOL0     H 2895   2.969   1.097   2.720  0.9161 -0.4663  0.7983
   22MOL0     H 2896   2.822   1.340   2.828 -0.3106 -0.0951 -2.0697
   22MOL0     H 2897   2.919   1.221   2.920  0.9625  0.3928 -0.1071
   22MOL0     H 2898   3.120   1.287   2.795  1.7052  3.0002  4.2445
   22MOL0     H 2899   3.044   1.417   2.870  1.0732  0.0210  0.7784
   22MOL0     H 2900   3.122   1.479   2.644 -1.4887  1.9525 -0.4428
   22MOL0     H 2901   3.024   1.354   2.570 -3.2092  1.1431  0.0889
   22MOL0     H 2902   2.755   1.667   2.656 -0.7177 -1.1180 -2.5970
   22MOL0     H 2903   2.536   0.931   2.792 -1.2782  0.4229  2.2252
   22MOL0     H 2904   2.321   1.000   2.755  2.2501  0.1064  4.0897
   23MOL0     O 2905   3.265   0.505   7.634  0.6615  0.0469  0.4897
   23MOL0     C 2906   3.310   0.485   7.523 -0.5767 -0.9626 -0.2775
   23MOL0     O 2907   3.236   0.459   7.408  0.0262 -0.3977  0.3580
   23MOL0     C 2908   3.096   0.461   7.421  0.0688  0.6914  0.1847
   23MOL0     C 2909   3.029   0.359   7.494 -0.2756 -0.4265 -0.6160
   23MOL0     C 2910   2.892   0.373   7.514  0.1447 -0.7106  1.1482
   23MOL0     C 2911   2.816   0.473   7.454  0.9140  0.1448 -0.2298
   23MOL0     O 2912   2.672   0.487   7.484  0.3885  0.1324  0.0558
   23MOL0     C 2913   2.599   0.601   7.430  0.2952 -0.1802 -0.7511
   23MOL0     C 2914   2.451   0.617   7.478  0.6529  0.1346 -0.2569
   23MOL0     C 2915   2.362   0.493   7.465 -0.0720 -0.0517 -0.6845
   23MOL0     C 2916   2.226   0.525   7.515  0.0303  0.1042 -0.4446
   23MOL0     C 2917   2.118   0.420   7.462 -1.1043 -0.3963 -0.8553
   23MOL0     C 2918   1.980   0.485   7.468  0.3152  0.0293 -0.2227
   23MOL0     C 2919   1.871   0.384   7.445 -0.9894  0.6875 -0.6951
   23MOL0     C 2920   1.878   0.265   7.544  0.5223  0.6081 -0.1321
   23MOL0     N 2921   1.741   0.207   7.560  0.5196  0.3642 -0.6614
   23MOL0     C 2922   1.655   0.178   7.452  0.0629 -1.6151 -0.0351
   23MOL0     C 2923   1.540   0.130   7.509 -0.3448 -0.8250  0.2326
   23MOL0     C 2924   1.401   0.101   7.453  0.3201  0.2962  0.6594
   23MOL0     C 2925   1.314  -0.001   7.535  0.5512 -0.0466 -0.2713
   23MOL0     C 2926   1.175   0.003   7.472  0.7203 -0.0704 -0.7344
   23MOL0     C 2927   1.103  -0.105   7.539 -1.0900  0.4395  0.8079
   23MOL0     O 2928   0.973  -0.078   7.500 -0.2504  0.5274 -0.2685
   23MOL0     C 2929   0.867  -0.137   7.563 -0.2003  0.8391 -0.1368
   23MOL0     C 2930   0.868  -0.250   7.646 -0.5744  0.8769  0.0740
   23MOL0     C 2931   0.751  -0.301   7.695  0.2707 -0.6319 -0.8430
   23MOL0     C 2932   0.630  -0.247   7.652  0.5116  0.5484 -0.7197
   23MOL0     C 2933   0.502  -0.318   7.681  0.0235 -0.1959  0.1363
   23MOL0     O 2934   0.389  -0.274   7.617  0.0378 -1.0912  0.0245
   23MOL0     C 2935   0.273  -0.332   7.657 -0.0907  0.5560 -1.7046
   23MOL0     C 2936   0.220  -0.439   7.595 -0.3506  0.6158  0.0614
   23MOL0     C 2937   0.109  -0.496   7.638  0.0078  0.4708  0.9105
   23MOL0     C 2938   0.049  -0.458   7.755  0.1341  0.0097 -0.2280
   23MOL0     O 2939  -0.066  -0.526   7.786  0.1258 -0.0261  0.2634
   23MOL0     C 2940  -0.176  -0.443   7.837  0.8606  1.0872 -0.3278
   23MOL0     C 2941  -0.291  -0.527   7.874  0.8462  0.0353 -0.8165
   23MOL0     C 2942  -0.349  -0.590   7.749  0.4616  0.9914  0.8418
   23MOL0     C 2943  -0.490  -0.657   7.770 -0.0855  0.8045 -0.8733
   23MOL0     C 2944  -0.602  -0.554   7.790  0.0199  0.2248 -0.7243
   23MOL0     C 2945  -0.716  -0.591   7.693 -0.7346  0.8870 -0.2712
   23MOL0     C 2946  -0.857  -0.543   7.717 -0.3546  0.1330 -0.5289
   23MOL0     C 2947  -0.959  -0.651   7.752 -0.2253 -0.0377  0.3330
   23MOL0    Cl 2948  -0.963  -0.775   7.626  1.0131  0.0773 -0.4703
   23MOL0     C 2949   0.103  -0.359   7.821 -0.6083  0.2484 -0.6445
   23MOL0     C 2950   0.205  -0.287   7.766 -0.3164  0.7753  0.2294
   23MOL0     O 2951   0.498  -0.398   7.772 -0.8893  0.2356 -0.5343
   23MOL0     C 2952   0.626  -0.137   7.566 -0.0043  0.2452 -0.2867
   23MOL0     C 2953   0.750  -0.081   7.526  1.0120 -0.6548 -0.4130
   23MOL0     N 2954   1.555   0.136   7.645  0.3523  0.4636 -0.9865
   23MOL0     N 2955   1.671   0.182   7.676 -0.4197 -0.3135  0.3863
   23MOL0     C 2956   2.880   0.556   7.370  0.5646 -0.0034  0.2050
   23MOL0     C 2957   3.022   0.556   7.365 -0.3108 -0.5701  0.2677
   23MOL0     C 2958   3.455   0.444   7.524  0.2437 -0.9716 -0.7049
   23MOL0     C 2959   3.524   0.380   7.415  0.4555  0.3549  0.3612
   23MOL0     C 2960   3.653   0.338   7.425 -0.7763  0.6593 -0.6191
   23MOL0     C 2961   3.726   0.364   7.536 -0.0550  0.4587  0.5444
   23MOL0     O 2962   3.854   0.312   7.535 -0.4808  0.3684 -0.2696
   23MOL0     C 2963   3.943   0.336   7.648  0.4803 -0.3827  0.6931
   23MOL0     C 2964   4.056   0.233   7.632  0.3390  0.1246 -0.2441
   23MOL0     C 2965   4.133   0.253   7.505 -0.4601  0.6022  0.8206
   23MOL0     C 2966   4.238   0.363   7.513 -0.0343  1.3725  0.3261
   23MOL0     C 2967   4.185   0.489   7.457 -0.0986 -0.8911  0.4629
   23MOL0     C 2968   4.155   0.609   7.442  0.2056 -0.5348  0.7899
   23MOL0     C 2969   3.664   0.427   7.648 -0.0130 -0.7086  0.1311
   23MOL0     C 2970   3.527   0.462   7.641 -0.3970  0.7858  0.1720
   23MOL0     H 2971   3.070   0.270   7.540 -1.8075  0.7310  3.4247
   23MOL0     H 2972   2.842   0.290   7.563  0.5504 -2.3082 -0.9973
   23MOL0     H 2973   2.589   0.582   7.323 -0.0362 -0.3529 -0.6920
   23MOL0     H 2974   2.659   0.690   7.446  3.7769 -2.3271 -0.9281
   23MOL0     H 2975   2.400   0.694   7.420 -1.6433  1.6460  3.4785
   23MOL0     H 2976   2.457   0.657   7.579 -1.3072 -0.2507  0.0420
   23MOL0     H 2977   2.394   0.405   7.520 -3.3487 -0.1962  1.2071
   23MOL0     H 2978   2.372   0.467   7.359  2.1852 -3.5217  0.2209
   23MOL0     H 2979   2.224   0.521   7.624  1.8178  0.0911 -0.3911
   23MOL0     H 2980   2.188   0.619   7.474 -1.1532  0.2786  0.9802
   23MOL0     H 2981   2.120   0.332   7.527  0.0397  0.0737 -0.2199
   23MOL0     H 2982   2.143   0.396   7.358  1.4830  1.6602 -0.8190
   23MOL0     H 2983   1.971   0.571   7.401  0.1830 -1.2449 -1.9192
   23MOL0     H 2984   1.963   0.513   7.572 -2.4679 -0.0636 -0.5719
   23MOL0     H 2985   1.777   0.440   7.453  0.0793  2.8850 -2.4775
   23MOL0     H 2986   1.877   0.347   7.342  0.0672 -0.3950 -0.2717
   23MOL0     H 2987   1.905   0.313   7.639 -2.2060  0.4570  0.8197
   23MOL0     H 2988   1.954   0.192   7.516  0.6695  0.5416  0.4338
   23MOL0     H 2989   1.678   0.201   7.348  2.1125 -1.2240  0.4610
   23MOL0     H 2990   1.409   0.062   7.352  0.2801 -3.1590  1.8533
   23MOL0     H 2991   1.352   0.198   7.441  2.4231  1.2703 -0.6900
   23MOL0     H 2992   1.320   0.021   7.642  4.4896 -0.1332 -0.3207
   23MOL0     H 2993   1.358  -0.098   7.510  0.5384 -0.3571  0.8686
   23MOL0     H 2994   1.131   0.100   7.495  1.6777  0.0120  0.8733
   23MOL0     H 2995   1.194  -0.005   7.364  0.8583  1.1534 -0.8078
   23MOL0     H 2996   1.114  -0.100   7.647 -0.2476 -5.8194  1.3512
   23MOL0     H 2997   1.133  -0.198   7.490  3.7013  2.3639 -0.4976
   23MOL0     H 2998   0.967  -0.286   7.670  1.3711  2.9756 -3.8691
   23MOL0     H 2999   0.750  -0.382   7.767  1.6509 -0.4975 -0.6476
   23MOL0     H 3000   0.262  -0.485   7.506 -1.5746 -1.4123  0.4655
   23MOL0     H 3001   0.056  -0.569   7.578  1.6397 -1.8464  2.1307
   23MOL0     H 3002  -0.202  -0.366   7.765  2.5807  0.5975 -1.5512
   23MOL0     H 3003  -0.142  -0.409   7.935  0.2778 -0.0451  0.2910
   23MOL0     H 3004  -0.368  -0.475   7.932  1.7639 -0.6529  1.1318
   23MOL0     H 3005  -0.270  -0.611   7.941 -0.1387  1.7389  1.7649
   23MOL0     H 3006  -0.283  -0.671   7.716  1.5741  2.5549 -1.0312
   23MOL0     H 3007  -0.337  -0.517   7.668 -0.6492  1.5712  1.1771
   23MOL0     H 3008  -0.509  -0.723   7.685 -3.3893  1.9189 -1.1558
   23MOL0     H 3009  -0.494  -0.715   7.862  1.5687  1.9348 -0.0366
   23MOL0     H 3010  -0.556  -0.458   7.762  1.9121 -0.6379 -0.7144
   23MOL0     H 3011  -0.644  -0.553   7.891 -0.5599  1.3840 -0.9497
   23MOL0     H 3012  -0.729  -0.699   7.702 -2.3398  1.1338  0.6150
   23MOL0     H 3013  -0.684  -0.555   7.595 -1.1824 -0.5321 -0.9697
   23MOL0     H 3014  -0.869  -0.465   7.793 -2.8011  0.2148 -0.9401
   23MOL0     H 3015  -0.889  -0.491   7.626  2.2692  0.8240 -1.1670
   23MOL0     H 3016  -1.050  -0.591   7.766  1.3772  2.4349  0.8230
   23MOL0     H 3017  -0.951  -0.710   7.844  1.4194 -1.1567 -0.4935
   23MOL0     H 3018   0.061  -0.324   7.915 -0.8952  3.3942 -1.8270
   23MOL0     H 3019   0.247  -0.203   7.822 -0.3674  2.8745 -2.6789
   23MOL0     H 3020   0.539  -0.086   7.526  0.3493  1.7450  0.7757
   23MOL0     H 3021   0.737   0.001   7.456 -1.9323 -0.1122  0.6198
   23MOL0     H 3022   2.825   0.634   7.319  0.5851 -1.0092 -1.4226
   23MOL0     H 3023   3.079   0.625   7.303  0.1717  1.3908  2.7708
   23MOL0     H 3024   3.466   0.361   7.325  0.8504  0.4570  0.0866
   23MOL0     H 3025   3.697   0.285   7.342  0.0983  2.0157 -1.0706
   23MOL0     H 3026   3.892   0.322   7.743 -2.6871  2.5151 -0.3905
   23MOL0     H 3027   3.982   0.437   7.633  1.2042 -0.5994  1.0710
   23MOL0     H 3028   4.121   0.252   7.718 -2.6990  3.2715  1.6349
   23MOL0     H 3029   4.030   0.127   7.642 -0.9996  0.3655 -0.8752
   23MOL0     H 3030   4.064   0.262   7.421  1.7363 -1.1063 -1.3195
   23MOL0     H 3031   4.190   0.162   7.487  0.8359  1.6131 -0.4518
   23MOL0     H 3032   4.263   0.383   7.617  4.2015 -1.4871  0.1050
   23MOL0     H 3033   4.336   0.351   7.466  1.1357  4.0763  1.8517
   23MOL0     H 3034   4.134   0.714   7.433  0.5222 -0.3830  1.8001
   23MOL0     H 3035   3.731   0.444   7.732 -0.9082  1.7370  0.4349
   23MOL0     H 3036   3.471   0.493   7.728 -2.6178 -1.0358 -0.5142
   24MOL0     O 3037  11.173   9.310   1.579  0.5577  0.5591  0.7841
   24MOL0     C 3038  11.270   9.229   1.568  0.2807  0.1721 -0.3811
   24MOL0     O 3039  11.263   9.093   1.600 -0.7053  0.1034  0.0229
   24MOL0     C 3040  11.144   9.048   1.642  0.4432  0.6763 -0.4015
   24MOL0     C 3041  11.074   8.965   1.557  0.1805 -0.0764 -0.3560
   24MOL0     C 3042  10.957   8.908   1.587 -0.5525 -0.7233  0.7603
   24MOL0     C 3043  10.909   8.921   1.719  0.6585  0.0529 -0.2942
   24MOL0     O 3044  10.795   8.861   1.762  0.5621 -0.0796  0.1170
   24MOL0     C 3045  10.752   8.725   1.725  0.1024 -0.5661 -0.6054
   24MOL0     C 3046  10.844   8.622   1.784  0.7546  0.4242 -1.6704
   24MOL0     C 3047  10.868   8.651   1.931 -0.4750  0.4287 -0.5550
   24MOL0     C 3048  10.930   8.524   2.010 -0.1835  0.0386  0.1479
   24MOL0     C 3049  10.944   8.542   2.159  0.5180  0.3377  0.1667
   24MOL0     C 3050  11.012   8.416   2.219  0.0061  0.2020 -0.0439
   24MOL0     C 3051  11.022   8.440   2.372  0.4023  1.1121 -0.1173
   24MOL0     C 3052  11.100   8.335   2.454  0.5071  0.9455 -0.0512
   24MOL0     N 3053  11.089   8.357   2.595  0.2715  0.0896 -0.9735
   24MOL0     C 3054  11.189   8.345   2.687 -0.2106  0.0851  0.0412
   24MOL0     C 3055  11.132   8.363   2.810  0.0059 -0.4593  0.7625
   24MOL0     C 3056  11.198   8.352   2.940  0.2385 -1.5138 -0.0509
   24MOL0     C 3057  11.199   8.488   3.029 -0.1399  0.5936  0.6218
   24MOL0     C 3058  11.295   8.458   3.141  0.0127 -0.4050  0.4241
   24MOL0     C 3059  11.447   8.439   3.115 -0.9008  0.0643  0.4660
   24MOL0     O 3060  11.464   8.305   3.079  0.3694  0.7311  0.4781
   24MOL0     C 3061  11.593   8.264   3.079 -0.2091  0.2100 -0.1020
   24MOL0     C 3062  11.612   8.131   3.095 -0.2634  1.0090  0.6541
   24MOL0     C 3063  11.741   8.075   3.116 -0.5065 -0.1783 -0.0956
   24MOL0     C 3064  11.850   8.156   3.089 -0.4859 -0.4992  0.2272
   24MOL0     C 3065  11.990   8.107   3.086 -0.9793  0.2242  0.1170
   24MOL0     O 3066  12.080   8.203   3.055 -0.2057 -0.0844 -0.4775
   24MOL0     C 3067  12.212   8.176   3.069 -0.4738 -0.7550  1.3177
   24MOL0     C 3068  12.277   8.170   3.191  0.6500  0.1416 -0.0649
   24MOL0     C 3069  12.419   8.156   3.204 -0.2084  0.1949 -0.2630
   24MOL0     C 3070  12.492   8.149   3.088 -1.1900  0.8946 -0.4357
   24MOL0     O 3071  12.628   8.155   3.098 -0.1860  0.5110  0.3046
   24MOL0     C 3072  12.709   8.078   3.011 -0.6476 -0.0147 -0.0020
   24MOL0     C 3073  12.855   8.120   3.045 -0.6912  0.3212  0.2328
   24MOL0     C 3074  12.957   8.030   2.963  0.1040 -0.4787 -0.1100
   24MOL0     C 3075  13.101   8.067   3.007  0.6535  0.2892 -0.5919
   24MOL0     C 3076  13.194   7.967   2.939 -0.0756  0.3775 -0.6682
   24MOL0     C 3077  13.341   8.026   2.948  0.3827  0.5926  0.2642
   24MOL0     C 3078  13.384   8.015   3.096  0.0226 -0.2090 -1.2102
   24MOL0     C 3079  13.525   8.068   3.121  0.5690  0.2746  0.3628
   24MOL0    Cl 3080  13.571   8.027   3.295 -0.1111  0.9920 -0.1999
   24MOL0     C 3081  12.427   8.155   2.959 -0.0392  0.0201 -0.6361
   24MOL0     C 3082  12.287   8.172   2.949  0.2837  0.1127  0.2719
   24MOL0     O 3083  12.016   7.987   3.118  0.2309  0.1193 -0.1926
   24MOL0     C 3084  11.830   8.291   3.078  0.6087 -0.1735 -0.4634
   24MOL0     C 3085  11.702   8.344   3.083 -1.5137 -0.4827  0.2161
   24MOL0     N 3086  11.004   8.399   2.792  0.0685  0.5620  0.1659
   24MOL0     N 3087  10.980   8.402   2.668  0.0026 -0.0369 -0.3847
   24MOL0     C 3088  10.978   8.987   1.820 -0.2761  0.2782  0.5379
   24MOL0     C 3089  11.099   9.046   1.780 -0.0206  0.6199 -0.0470
   24MOL0     C 3090  11.400   9.287   1.515 -0.1014 -0.2753  0.6387
   24MOL0     C 3091  11.419   9.426   1.491 -0.1506  0.0192  0.4009
   24MOL0     C 3092  11.534   9.489   1.455  0.5276  0.6614 -1.1422
   24MOL0     C 3093  11.636   9.400   1.423  1.1846 -0.3224 -0.1186
   24MOL0     O 3094  11.756   9.460   1.382 -0.1598  0.8021  1.2158
   24MOL0     C 3095  11.850   9.474   1.496 -0.7293  0.3054 -0.4536
   24MOL0     C 3096  11.963   9.574   1.461  0.0360  0.3206  0.5360
   24MOL0     C 3097  11.910   9.722   1.487 -1.1325  0.1383  0.7164
   24MOL0     C 3098  12.027   9.808   1.476  0.3293  0.7763  0.3605
   24MOL0     C 3099  11.992   9.948   1.491 -0.2602  1.1555 -0.5816
   24MOL0     C 3100  11.961  10.060   1.509  0.8935  0.5519 -0.1240
   24MOL0     C 3101  11.627   9.262   1.432 -0.7607  0.4520  0.3484
   24MOL0     C 3102  11.511   9.210   1.484  0.4339 -0.7623 -0.4947
   24MOL0     H 3103  11.130   8.941   1.467  3.1072  0.2491  1.2288
   24MOL0     H 3104  10.909   8.844   1.514 -0.9008  1.0605 -0.6495
   24MOL0     H 3105  10.764   8.725   1.616  3.1713  0.2151 -0.3752
   24MOL0     H 3106  10.649   8.704   1.754 -0.1897  1.2750 -0.1788
   24MOL0     H 3107  10.945   8.621   1.743  1.0379  1.7381 -1.0565
   24MOL0     H 3108  10.790   8.528   1.770 -3.1375  2.2862 -0.6983
   24MOL0     H 3109  10.770   8.662   1.977 -0.0794  0.3984  0.3320
   24MOL0     H 3110  10.926   8.742   1.952  3.1972 -1.9543  0.5849
   24MOL0     H 3111  10.882   8.428   1.994  1.9410 -0.7685 -2.0570
   24MOL0     H 3112  11.037   8.521   1.988  0.5134  1.6843  2.7398
   24MOL0     H 3113  10.841   8.554   2.194 -0.1306  1.8950 -2.0500
   24MOL0     H 3114  10.998   8.633   2.188 -0.0665  0.0180  2.4539
   24MOL0     H 3115  11.117   8.403   2.191 -0.2893 -1.5429 -0.4612
   24MOL0     H 3116  10.967   8.322   2.185  2.3383 -1.1655  0.4252
   24MOL0     H 3117  11.065   8.538   2.396 -0.3021  0.8797  2.3528
   24MOL0     H 3118  10.918   8.436   2.406  1.0948  0.3145  2.0608
   24MOL0     H 3119  11.206   8.330   2.427  0.8740  3.4654  0.7296
   24MOL0     H 3120  11.048   8.240   2.437  2.9403 -0.5062  0.0289
   24MOL0     H 3121  11.296   8.332   2.675  0.5361  3.1356  2.2051
   24MOL0     H 3122  11.301   8.335   2.909  0.4990  1.6981 -1.3844
   24MOL0     H 3123  11.169   8.261   2.992 -0.5112 -2.0759 -1.4055
   24MOL0     H 3124  11.099   8.502   3.069 -0.0159  1.0102  0.7861
   24MOL0     H 3125  11.237   8.570   2.968  0.5301  1.1444  1.7508
   24MOL0     H 3126  11.278   8.541   3.209 -1.7837 -0.4450  0.0779
   24MOL0     H 3127  11.252   8.370   3.191 -2.5205 -1.2161 -2.7664
   24MOL0     H 3128  11.503   8.466   3.205 -2.2471  0.5534  1.1956
   24MOL0     H 3129  11.472   8.511   3.037  0.9698 -1.3641 -0.3094
   24MOL0     H 3130  11.523   8.069   3.105 -1.2673  1.2868 -4.3358
   24MOL0     H 3131  11.760   7.971   3.140 -0.3393  0.3504  2.2577
   24MOL0     H 3132  12.214   8.186   3.277  2.2699  0.8286  1.0366
   24MOL0     H 3133  12.472   8.170   3.298 -1.3447 -1.3942  0.6486
   24MOL0     H 3134  12.685   8.093   2.906 -1.2440  0.3166  0.1809
   24MOL0     H 3135  12.701   7.972   3.038 -1.7005  0.1997  0.5608
   24MOL0     H 3136  12.862   8.108   3.153 -2.0554  1.9587  0.5448
   24MOL0     H 3137  12.864   8.224   3.013  1.0941 -0.2362 -1.2299
   24MOL0     H 3138  12.949   8.050   2.855  0.7245 -2.3229 -0.5254
   24MOL0     H 3139  12.941   7.922   2.965  0.8809 -0.6014  0.0350
   24MOL0     H 3140  13.118   8.171   2.978 -2.2144  1.4687  1.5130
   24MOL0     H 3141  13.115   8.065   3.115  1.2694 -1.5874 -0.6832
   24MOL0     H 3142  13.166   7.951   2.835 -2.4344  0.2020 -0.0745
   24MOL0     H 3143  13.181   7.871   2.991 -1.0906  3.0207  4.6360
   24MOL0     H 3144  13.346   8.133   2.926 -0.9535  0.7054  0.4529
   24MOL0     H 3145  13.405   7.966   2.882  0.3696  0.0243  0.7650
   24MOL0     H 3146  13.323   8.077   3.163 -0.5604 -0.7793 -1.1962
   24MOL0     H 3147  13.375   7.910   3.124  2.0482 -0.9986 -3.2450
   24MOL0     H 3148  13.521   8.174   3.097 -1.9894  0.8513  2.8373
   24MOL0     H 3149  13.603   8.027   3.055 -1.5686  2.5400 -4.0410
   24MOL0     H 3150  12.481   8.163   2.866 -0.7138  0.0801 -1.0333
   24MOL0     H 3151  12.249   8.184   2.848  1.4560  1.0284 -0.0777
   24MOL0     H 3152  11.912   8.362   3.084 -0.5749  1.1208  2.0699
   24MOL0     H 3153  11.692   8.452   3.092 -0.7771 -0.4645  0.8867
   24MOL0     H 3154  10.953   9.000   1.925 -1.1614 -0.6428  0.4634
   24MOL0     H 3155  11.170   9.082   1.855 -0.7978 -1.8968  2.0501
   24MOL0     H 3156  11.342   9.502   1.505 -1.6611 -1.0679 -1.5491
   24MOL0     H 3157  11.535   9.595   1.433  0.5562  0.8405 -0.3099
   24MOL0     H 3158  11.892   9.375   1.516  1.7179  0.8073 -2.6251
   24MOL0     H 3159  11.803   9.500   1.591  2.9122  0.6949  1.4045
   24MOL0     H 3160  12.049   9.550   1.525  1.4376 -0.3468 -1.4921
   24MOL0     H 3161  11.994   9.547   1.360 -1.1150 -0.7034  0.4327
   24MOL0     H 3162  11.886   9.727   1.594  1.7658  0.0845  1.4531
   24MOL0     H 3163  11.824   9.744   1.423  0.1966  2.2349 -0.4581
   24MOL0     H 3164  12.096   9.779   1.556 -1.3454 -2.6399  0.7766
   24MOL0     H 3165  12.071   9.783   1.379  2.4046 -0.8913  1.6556
   24MOL0     H 3166  11.932  10.161   1.531  2.3903  1.0446 -0.2783
   24MOL0     H 3167  11.708   9.198   1.399 -0.1696  0.6318  1.3969
   24MOL0     H 3168  11.504   9.102   1.491 -0.0043 -0.7291 -0.3593
   25MOL0     O 3169   5.393   0.118  10.444 -0.1428 -0.3446 -0.9175
   25MOL0     C 3170   5.419   0.002  10.414  0.5784 -0.9996 -0.1765
   25MOL0     O 3171   5.334  -0.096  10.373  0.8908 -0.2040 -0.1359
   25MOL0     C 3172   5.205  -0.058  10.347 -0.3277 -0.6058  0.1875
   25MOL0     C 3173   5.173  -0.012  10.223 -1.2085 -0.3014  0.0768
   25MOL0     C 3174   5.050   0.042  10.193  0.4159 -0.3745  0.8932
   25MOL0     C 3175   4.946   0.035  10.284  0.4034  0.1179  0.6530
   25MOL0     O 3176   4.819   0.086  10.260  0.2683  0.6075 -0.3551
   25MOL0     C 3177   4.702   0.037  10.321 -0.1400 -0.1576  0.0467
   25MOL0     C 3178   4.637   0.132  10.418 -0.2927  0.3002  0.1794
   25MOL0     C 3179   4.495   0.085  10.433 -0.2686 -1.0792 -0.4750
   25MOL0     C 3180   4.402   0.149  10.337  0.1700 -0.1306 -0.5091
   25MOL0     C 3181   4.281   0.064  10.318 -0.5850 -0.7951 -0.2211
   25MOL0     C 3182   4.163   0.148  10.256 -0.4016  0.5616  1.0781
   25MOL0     C 3183   4.031   0.063  10.257 -0.2112 -0.2151  0.1739
   25MOL0     C 3184   3.905   0.140  10.216  0.1811  0.3531 -1.3087
   25MOL0     N 3185   3.785   0.064  10.222  0.4854  1.0798 -0.0663
   25MOL0     C 3186   3.775  -0.053  10.151  0.3980  0.7250 -0.2650
   25MOL0     C 3187   3.648  -0.107  10.174  0.3721 -0.5382 -0.0006
   25MOL0     C 3188   3.596  -0.224  10.098  0.3085  0.3812 -0.4455
   25MOL0     C 3189   3.437  -0.252  10.129 -0.6279 -0.4800  0.3963
   25MOL0     C 3190   3.401  -0.401  10.127  0.1114  0.1896 -0.3615
   25MOL0     C 3191   3.259  -0.441  10.098  0.0436  0.6864 -0.1245
   25MOL0     O 3192   3.239  -0.579  10.055 -0.0932  0.6519  0.3285
   25MOL0     C 3193   3.120  -0.625  10.008  0.6754 -0.8898 -0.1442
   25MOL0     C 3194   3.003  -0.549  10.006  0.2869 -1.2946  0.7498
   25MOL0     C 3195   2.889  -0.616   9.964  0.2587  0.8084  0.7778
   25MOL0     C 3196   2.881  -0.755   9.948  0.1623 -0.2701  0.5347
   25MOL0     C 3197   2.743  -0.811   9.907 -1.0810 -0.4478  0.2056
   25MOL0     O 3198   2.737  -0.943   9.867 -0.6085 -0.8938  0.0306
   25MOL0     C 3199   2.608  -0.996   9.863  0.1616 -0.2693 -0.7883
   25MOL0     C 3200   2.558  -1.046   9.745  0.5081 -1.1303  0.2077
   25MOL0     C 3201   2.443  -1.127   9.742 -0.3001 -0.9650 -0.1148
   25MOL0     C 3202   2.368  -1.152   9.861  0.0484  0.5966  0.5517
   25MOL0     O 3203   2.260  -1.227   9.863  0.1571 -0.5851  0.4524
   25MOL0     C 3204   2.155  -1.180   9.782 -1.2370 -0.5481  0.0421
   25MOL0     C 3205   2.047  -1.290   9.773  0.3637  0.4969  0.0789
   25MOL0     C 3206   1.902  -1.237   9.780  0.1154 -0.5488  0.1663
   25MOL0     C 3207   1.880  -1.106   9.691  0.4163  0.7763  0.3972
   25MOL0     C 3208   1.740  -1.100   9.627 -0.0355 -0.6780 -0.0072
   25MOL0     C 3209   1.619  -1.131   9.715  0.3811 -0.2605  0.5803
   25MOL0     C 3210   1.497  -1.150   9.614  0.4735  0.0003  0.4748
   25MOL0     C 3211   1.474  -1.298   9.595 -0.4216  0.2740  0.5758
   25MOL0    Cl 3212   1.615  -1.395   9.527 -0.5691 -0.5396  0.1921
   25MOL0     C 3213   2.404  -1.082   9.974 -0.8380  0.6660 -0.0221
   25MOL0     C 3214   2.528  -1.012   9.983 -0.5987  0.0348  0.2416
   25MOL0     O 3215   2.648  -0.737   9.920 -0.0068 -0.0639  0.5840
   25MOL0     C 3216   2.995  -0.834   9.949  0.1440  0.0848 -0.1996
   25MOL0     C 3217   3.114  -0.757   9.972  0.1605 -0.2870 -0.5662
   25MOL0     N 3218   3.588  -0.016  10.265 -0.5404 -1.0192 -0.2881
   25MOL0     N 3219   3.675   0.079  10.309  0.3010 -1.1129  0.2320
   25MOL0     C 3220   4.963  -0.030  10.409  0.5216 -1.0086  0.2813
   25MOL0     C 3221   5.095  -0.064  10.440 -0.0226  0.2590  0.6919
   25MOL0     C 3222   5.561  -0.034  10.441  0.3363 -0.0388 -0.8950
   25MOL0     C 3223   5.636   0.049  10.527 -0.1107 -0.9368 -0.1824
   25MOL0     C 3224   5.765   0.003  10.561  0.6847  0.6857 -0.2603
   25MOL0     C 3225   5.824  -0.110  10.496 -1.2806 -0.4180 -0.3522
   25MOL0     O 3226   5.947  -0.144  10.559 -0.7991 -0.2522  0.3387
   25MOL0     C 3227   6.028  -0.229  10.495  0.4950 -0.1958  0.1907
   25MOL0     C 3228   6.161  -0.232  10.561  0.1820  0.4973  0.0442
   25MOL0     C 3229   6.242  -0.111  10.522  0.3245 -0.2294  0.7058
   25MOL0     C 3230   6.321  -0.045  10.644  0.6590  0.4559  0.1597
   25MOL0     C 3231   6.420   0.046  10.597  0.9523 -0.7865 -0.3247
   25MOL0     C 3232   6.509   0.132  10.576 -0.1223 -1.2294 -0.3330
   25MOL0     C 3233   5.749  -0.182  10.400  0.0808 -0.3253  0.7131
   25MOL0     C 3234   5.617  -0.142  10.375  0.2382 -0.8461 -0.3267
   25MOL0     H 3235   5.249  -0.006  10.145 -1.4649 -1.0716 -0.2427
   25MOL0     H 3236   5.039   0.077  10.091  0.7282 -1.0938  0.6040
   25MOL0     H 3237   4.698  -0.066  10.358  0.7291 -0.0219  0.5516
   25MOL0     H 3238   4.637   0.029  10.233  1.8494  3.3965 -1.9845
   25MOL0     H 3239   4.652   0.240  10.406  1.2686  0.3840  2.3238
   25MOL0     H 3240   4.702   0.118  10.505  1.0470 -0.2030 -0.8569
   25MOL0     H 3241   4.463   0.103  10.536  1.0394 -0.3953 -0.1555
   25MOL0     H 3242   4.503  -0.023  10.417  1.3414 -0.6117 -3.8008
   25MOL0     H 3243   4.369   0.248  10.369 -1.3352  0.3751 -3.3083
   25MOL0     H 3244   4.448   0.168  10.240 -0.7086  2.2942 -0.5265
   25MOL0     H 3245   4.247   0.017  10.411  2.5738 -1.7190  0.5914
   25MOL0     H 3246   4.306  -0.011  10.243 -0.6594 -2.3175  1.2355
   25MOL0     H 3247   4.199   0.174  10.156 -1.2448  1.2135  0.9335
   25MOL0     H 3248   4.138   0.239  10.310  0.3265  0.4139  1.6765
   25MOL0     H 3249   4.044  -0.025  10.194 -4.1439  1.4895 -3.5266
   25MOL0     H 3250   4.012   0.022  10.357  0.5666 -1.7172 -0.2607
   25MOL0     H 3251   3.904   0.166  10.110 -1.3287  4.2637 -0.4879
   25MOL0     H 3252   3.903   0.227  10.283 -0.4501 -0.0981 -0.7272
   25MOL0     H 3253   3.847  -0.100  10.084 -1.0969 -2.2303  0.0478
   25MOL0     H 3254   3.644  -0.316  10.133 -0.2442  0.1915 -0.1838
   25MOL0     H 3255   3.614  -0.222   9.990  3.0937 -0.1644 -0.0668
   25MOL0     H 3256   3.379  -0.195  10.056  0.4911 -1.3758 -1.2640
   25MOL0     H 3257   3.397  -0.216  10.224 -2.1865  1.4839 -0.9115
   25MOL0     H 3258   3.461  -0.460  10.056 -0.7878 -2.2195  0.7549
   25MOL0     H 3259   3.412  -0.440  10.229  2.2750  2.4666  0.3676
   25MOL0     H 3260   3.225  -0.386  10.010  1.7045 -1.5792 -2.3082
   25MOL0     H 3261   3.202  -0.435  10.191 -0.7182 -1.3947 -0.4193
   25MOL0     H 3262   2.994  -0.445  10.034  2.1598 -1.2963  1.5431
   25MOL0     H 3263   2.796  -0.561   9.957  0.7172  1.3749 -2.1267
   25MOL0     H 3264   2.618  -1.042   9.655 -0.6606 -1.5473 -0.6085
   25MOL0     H 3265   2.427  -1.178   9.648 -1.1236 -1.1341  0.1101
   25MOL0     H 3266   2.187  -1.153   9.681 -1.3715 -1.5920 -0.2933
   25MOL0     H 3267   2.122  -1.084   9.822  2.7929 -0.0428  2.7879
   25MOL0     H 3268   2.073  -1.348   9.862 -0.3934  1.9264  1.2800
   25MOL0     H 3269   2.052  -1.358   9.687  1.2142 -2.1120  2.0415
   25MOL0     H 3270   1.883  -1.206   9.883 -1.5926 -0.3623 -0.1566
   25MOL0     H 3271   1.820  -1.306   9.756 -1.0237  0.9731 -0.4693
   25MOL0     H 3272   1.890  -1.025   9.764  2.9352 -0.9419  2.1051
   25MOL0     H 3273   1.956  -1.088   9.614  2.3599  2.9157  2.6482
   25MOL0     H 3274   1.744  -1.171   9.544 -0.3586  0.3506 -0.9306
   25MOL0     H 3275   1.733  -1.002   9.579  0.5892 -0.3579  0.5377
   25MOL0     H 3276   1.596  -1.043   9.774  0.5501 -1.8486  3.1738
   25MOL0     H 3277   1.639  -1.213   9.785  1.8454  1.1470  1.8671
   25MOL0     H 3278   1.405  -1.114   9.660  0.3175  1.2929 -0.7650
   25MOL0     H 3279   1.508  -1.098   9.518 -2.7932 -1.5481 -0.8914
   25MOL0     H 3280   1.395  -1.305   9.520  1.3324  1.4825 -1.5000
   25MOL0     H 3281   1.437  -1.345   9.687  0.4871  1.5866  1.6494
   25MOL0     H 3282   2.341  -1.087  10.062 -3.2011  1.2780 -1.5900
   25MOL0     H 3283   2.576  -0.971  10.072  1.7454 -0.6780 -0.6237
   25MOL0     H 3284   3.005  -0.937   9.917  1.9700  0.6977 -1.7524
   25MOL0     H 3285   3.214  -0.796   9.988  2.0989  3.9983 -0.8034
   25MOL0     H 3286   4.891  -0.041  10.489  0.4754 -1.2283  0.2117
   25MOL0     H 3287   5.102  -0.102  10.542 -0.8702 -1.4242  0.1554
   25MOL0     H 3288   5.584   0.135  10.569 -0.4870 -0.9153 -0.6842
   25MOL0     H 3289   5.819   0.057  10.639  1.5996  1.6255 -1.5072
   25MOL0     H 3290   6.049  -0.222  10.388  5.4376 -4.5086  0.4819
   25MOL0     H 3291   5.987  -0.328  10.517  0.1990  0.1931  1.4821
   25MOL0     H 3292   6.147  -0.240  10.670  1.9484  1.9464  0.4249
   25MOL0     H 3293   6.219  -0.318  10.528 -0.0391  1.0292 -1.8253
   25MOL0     H 3294   6.181  -0.034  10.475 -0.4885 -2.7192 -2.7245
   25MOL0     H 3295   6.311  -0.149  10.445  1.1802  0.3261  1.1844
   25MOL0     H 3296   6.247  -0.005  10.714  0.5485  0.4447  0.0514
   25MOL0     H 3297   6.380  -0.120  10.697  2.2423  1.1615 -0.5431
   25MOL0     H 3298   6.582   0.209  10.561 -0.1442 -1.2174 -0.3795
   25MOL0     H 3299   5.795  -0.267  10.351 -0.6445  0.4306 -1.3807
   25MOL0     H 3300   5.557  -0.200  10.307 -1.3361  0.7938 -0.3978
   26MOL0     O 3301   0.586   7.578   0.788  0.6668 -0.3845 -0.5681
   26MOL0     C 3302   0.633   7.653   0.697  0.5172 -0.1229  0.1001
   26MOL0     O 3303   0.561   7.725   0.602 -0.6292  0.5434 -0.5871
   26MOL0     C 3304   0.439   7.684   0.567  0.4958 -1.3266 -1.0603
   26MOL0     C 3305   0.372   7.563   0.584  0.6250  0.4191 -0.1392
   26MOL0     C 3306   0.236   7.546   0.540  0.3666 -0.6950 -0.5377
   26MOL0     C 3307   0.170   7.648   0.469 -0.2368  0.0535 -0.5388
   26MOL0     O 3308   0.037   7.637   0.440 -0.1545  1.0332 -0.4252
   26MOL0     C 3309  -0.040   7.762   0.462  1.0525  0.2902  1.7455
   26MOL0     C 3310  -0.172   7.745   0.377  0.2989 -0.4732 -0.3859
   26MOL0     C 3311  -0.261   7.864   0.409  0.2659  1.3394 -0.8959
   26MOL0     C 3312  -0.376   7.854   0.308  0.3688 -0.4582 -0.1651
   26MOL0     C 3313  -0.482   7.953   0.333 -1.1900 -0.2975  0.4745
   26MOL0     C 3314  -0.600   7.932   0.248  0.4498 -0.6440  0.5934
   26MOL0     C 3315  -0.711   8.042   0.281  0.2508 -0.0305 -0.4598
   26MOL0     C 3316  -0.686   8.166   0.192  0.3047  0.5736 -0.6897
   26MOL0     N 3317  -0.712   8.148   0.049 -0.1438  0.1759  0.6859
   26MOL0     C 3318  -0.843   8.141   0.003  0.5462 -0.0233 -0.3220
   26MOL0     C 3319  -0.828   8.123  -0.131 -0.0787 -0.1280 -0.2068
   26MOL0     C 3320  -0.932   8.107  -0.246  0.5057 -0.5063 -0.0719
   26MOL0     C 3321  -1.055   8.184  -0.235 -0.6764 -0.0454 -0.6054
   26MOL0     C 3322  -1.047   8.336  -0.218 -0.5133  0.4531  0.4499
   26MOL0     C 3323  -1.012   8.428  -0.332 -0.3750  0.6021  0.6331
   26MOL0     O 3324  -1.094   8.420  -0.446 -0.6124  0.3558  0.2212
   26MOL0     C 3325  -1.225   8.470  -0.443  0.0470  0.6028 -0.7354
   26MOL0     C 3326  -1.269   8.574  -0.373 -0.1979 -0.6587 -0.1322
   26MOL0     C 3327  -1.409   8.610  -0.372  0.5789  0.1784 -0.4576
   26MOL0     C 3328  -1.507   8.533  -0.444  0.8186 -0.2313 -0.1813
   26MOL0     C 3329  -1.660   8.547  -0.419 -0.1425  0.6388  0.0444
   26MOL0     O 3330  -1.693   8.635  -0.311  0.1749  0.2996  0.6747
   26MOL0     C 3331  -1.825   8.661  -0.288 -0.7070  0.3240 -0.2504
   26MOL0     C 3332  -1.890   8.751  -0.378  0.3479 -0.5082  0.6019
   26MOL0     C 3333  -2.030   8.772  -0.363  0.5427 -0.1538  0.5371
   26MOL0     C 3334  -2.096   8.707  -0.259  0.1158  0.3089  0.2284
   26MOL0     O 3335  -2.234   8.709  -0.243  0.5829  0.4662 -0.1512
   26MOL0     C 3336  -2.316   8.703  -0.367 -0.7494  0.2430 -0.4151
   26MOL0     C 3337  -2.464   8.689  -0.336  0.3997  0.2314 -0.4523
   26MOL0     C 3338  -2.527   8.551  -0.305 -0.0558 -0.1080  0.3084
   26MOL0     C 3339  -2.481   8.495  -0.175 -0.5838 -1.1168 -0.6971
   26MOL0     C 3340  -2.528   8.349  -0.144 -0.2435 -0.1895  0.1637
   26MOL0     C 3341  -2.677   8.320  -0.164 -0.1285  0.3046  0.7214
   26MOL0     C 3342  -2.742   8.184  -0.122 -0.3557 -0.4123  0.9274
   26MOL0     C 3343  -2.645   8.075  -0.132 -0.2659 -0.3484  0.1236
   26MOL0    Cl 3344  -2.749   7.926  -0.104  0.1992 -0.8580 -0.0099
   26MOL0     C 3345  -2.020   8.639  -0.152  0.4315 -0.4302 -0.1602
   26MOL0     C 3346  -1.881   8.605  -0.169  0.4511  0.2920  0.7443
   26MOL0     O 3347  -1.736   8.494  -0.499 -0.7346 -0.2091 -0.3481
   26MOL0     C 3348  -1.455   8.429  -0.536  0.0805  0.9227 -0.5364
   26MOL0     C 3349  -1.317   8.401  -0.529 -0.2504 -0.0838 -0.3055
   26MOL0     N 3350  -0.700   8.102  -0.162  0.1703 -0.5789 -0.1399
   26MOL0     N 3351  -0.629   8.111  -0.055 -0.1670  0.0970  0.0514
   26MOL0     C 3352   0.240   7.767   0.445  0.1233 -0.2747  0.6475
   26MOL0     C 3353   0.377   7.782   0.490  0.0849 -0.3839 -0.7641
   26MOL0     C 3354   0.781   7.671   0.717  0.6228 -0.7484 -0.2563
   26MOL0     C 3355   0.828   7.788   0.657 -0.4936  0.0010 -0.3892
   26MOL0     C 3356   0.970   7.825   0.653 -0.1033  0.7177 -0.0003
   26MOL0     C 3357   1.061   7.741   0.720  0.4648  0.2572  0.9438
   26MOL0     O 3358   1.193   7.774   0.729  0.1726 -0.2635  0.2448
   26MOL0     C 3359   1.236   7.908   0.768  0.8103 -0.3637 -0.6634
   26MOL0     C 3360   1.329   7.897   0.888 -0.0227 -1.0555  0.3212
   26MOL0     C 3361   1.265   7.857   1.023  0.2185  0.4955  0.2494
   26MOL0     C 3362   1.367   7.854   1.136  0.5109  0.4456 -0.1603
   26MOL0     C 3363   1.300   7.827   1.269  0.1103 -0.7504 -0.7584
   26MOL0     C 3364   1.222   7.818   1.366  0.1744 -0.0874 -0.0977
   26MOL0     C 3365   1.009   7.628   0.791  0.5000 -0.1125 -0.7843
   26MOL0     C 3366   0.872   7.598   0.790  0.1781  0.5593 -0.5505
   26MOL0     H 3367   0.430   7.478   0.619  0.6262  1.0143  1.3782
   26MOL0     H 3368   0.184   7.456   0.571 -0.9777 -0.4528 -1.9961
   26MOL0     H 3369   0.008   7.856   0.433  0.2433  0.0460 -0.5891
   26MOL0     H 3370  -0.057   7.766   0.570  2.2416  1.6409  1.9082
   26MOL0     H 3371  -0.228   7.663   0.421 -0.2268 -0.7313 -1.5013
   26MOL0     H 3372  -0.161   7.719   0.271 -2.3371  0.4075 -0.9564
   26MOL0     H 3373  -0.204   7.957   0.400  1.5196  0.7997  0.9526
   26MOL0     H 3374  -0.288   7.857   0.515  0.8109 -1.3353 -0.8461
   26MOL0     H 3375  -0.337   7.876   0.208 -0.4843 -0.3416 -0.4863
   26MOL0     H 3376  -0.412   7.751   0.299 -1.8323  0.2084  0.2868
   26MOL0     H 3377  -0.442   8.054   0.326 -1.5048 -0.1907  0.1404
   26MOL0     H 3378  -0.505   7.938   0.439 -2.1367  0.9657  0.4676
   26MOL0     H 3379  -0.654   7.839   0.266 -0.9395  0.2618  1.2636
   26MOL0     H 3380  -0.574   7.936   0.141 -2.2253 -1.6104 -0.1491
   26MOL0     H 3381  -0.815   8.016   0.261 -0.4478  3.1684 -1.7113
   26MOL0     H 3382  -0.716   8.067   0.387 -2.7774 -0.4631 -0.4183
   26MOL0     H 3383  -0.586   8.203   0.217 -0.5847  1.6920  1.5080
   26MOL0     H 3384  -0.749   8.252   0.218 -2.8306 -1.5421 -0.9090
   26MOL0     H 3385  -0.936   8.173   0.048 -0.2899 -1.1335 -1.2148
   26MOL0     H 3386  -0.956   8.000  -0.254 -4.5020  0.2319  1.9065
   26MOL0     H 3387  -0.883   8.131  -0.341 -3.7564  3.3691 -1.6033
   26MOL0     H 3388  -1.118   8.140  -0.157 -1.2058 -0.6851 -1.3729
   26MOL0     H 3389  -1.107   8.162  -0.329 -0.3855 -2.1920 -0.3146
   26MOL0     H 3390  -1.140   8.376  -0.176 -0.3648 -0.0048  1.2298
   26MOL0     H 3391  -0.975   8.365  -0.141  0.9574  2.1819 -1.4488
   26MOL0     H 3392  -0.907   8.406  -0.354 -0.7341  1.1656 -2.0671
   26MOL0     H 3393  -1.009   8.535  -0.306  1.1065  1.0092 -0.9922
   26MOL0     H 3394  -1.200   8.625  -0.307 -1.5606 -1.2577  1.8391
   26MOL0     H 3395  -1.433   8.683  -0.296 -0.3897 -1.7123  1.1233
   26MOL0     H 3396  -1.837   8.783  -0.468  0.8487 -0.6330  0.8496
   26MOL0     H 3397  -2.080   8.829  -0.440  2.0810  1.8656  0.9424
   26MOL0     H 3398  -2.281   8.617  -0.425  1.6020  1.6976 -1.3395
   26MOL0     H 3399  -2.303   8.797  -0.421  0.5541 -1.1908 -2.7805
   26MOL0     H 3400  -2.514   8.730  -0.424  0.2769 -0.4356 -0.7026
   26MOL0     H 3401  -2.486   8.758  -0.254  1.5926 -0.6817  0.6737
   26MOL0     H 3402  -2.484   8.487  -0.383  1.1040  1.7493 -0.6417
   26MOL0     H 3403  -2.636   8.553  -0.312 -0.0943  0.4178  0.9930
   26MOL0     H 3404  -2.372   8.498  -0.172 -0.5839  1.7822 -0.5049
   26MOL0     H 3405  -2.517   8.565  -0.099  1.6474  1.0488 -1.5241
   26MOL0     H 3406  -2.500   8.323  -0.041  1.5351 -1.6276 -0.6233
   26MOL0     H 3407  -2.470   8.279  -0.205 -1.0131  1.1147 -2.1769
   26MOL0     H 3408  -2.709   8.336  -0.268 -0.6876  3.9210  1.3007
   26MOL0     H 3409  -2.722   8.401  -0.105 -2.2867 -1.4472  1.6221
   26MOL0     H 3410  -2.775   8.201  -0.019 -0.8977  1.6090  0.4631
   26MOL0     H 3411  -2.838   8.169  -0.172  0.1119  1.1860 -0.5554
   26MOL0     H 3412  -2.577   8.091  -0.047 -1.7542 -0.3676  1.3635
   26MOL0     H 3413  -2.589   8.073  -0.226  0.6789 -0.5426  0.6747
   26MOL0     H 3414  -2.060   8.589  -0.065  0.7041  3.1086  2.1739
   26MOL0     H 3415  -1.828   8.541  -0.100  0.9670  0.0280  0.1074
   26MOL0     H 3416  -1.523   8.369  -0.596 -0.2906  1.0640 -0.2633
   26MOL0     H 3417  -1.288   8.313  -0.586  1.8078 -0.2992  0.9727
   26MOL0     H 3418   0.202   7.843   0.377 -0.4551 -0.9376  0.2162
   26MOL0     H 3419   0.423   7.877   0.468 -0.1480 -0.1194 -0.1427
   26MOL0     H 3420   0.761   7.858   0.609  1.2424  2.8226  1.0019
   26MOL0     H 3421   0.987   7.912   0.591 -1.1157  0.2273 -1.0013
   26MOL0     H 3422   1.147   7.965   0.798  0.4045 -1.0524 -0.5319
   26MOL0     H 3423   1.299   7.957   0.694  2.2986  2.3915  2.1875
   26MOL0     H 3424   1.414   7.829   0.876  0.7162 -0.0587 -0.2282
   26MOL0     H 3425   1.378   7.994   0.898  0.2949 -0.7894 -2.7598
   26MOL0     H 3426   1.205   7.766   1.014  2.1813 -0.7113 -1.5903
   26MOL0     H 3427   1.201   7.943   1.046 -0.6567  0.0284 -0.3885
   26MOL0     H 3428   1.443   7.776   1.126  0.1154  0.2886 -2.4192
   26MOL0     H 3429   1.424   7.948   1.127 -1.4278  1.7503  0.5255
   26MOL0     H 3430   1.151   7.807   1.446  1.4215 -2.9477  0.7216
   26MOL0     H 3431   1.071   7.563   0.851  2.3647  1.9445 -0.3861
   26MOL0     H 3432   0.843   7.504   0.835  1.1935 -0.9942 -2.9503
   27MOL0     O 3433  11.079  10.232   5.732 -0.1883 -0.1101  0.1809
   27MOL0     C 3434  11.138  10.236   5.835 -0.9191  0.6284  0.0357
   27MOL0     O 3435  11.090  10.275   5.952 -0.0644  0.4796 -1.0455
   27MOL0     C 3436  10.977  10.360   5.942  0.2856 -0.0619 -0.4704
   27MOL0     C 3437  10.883  10.341   6.036 -0.5945  0.0430 -0.0397
   27MOL0     C 3438  10.776  10.425   6.055  0.3819  0.2592 -0.0131
   27MOL0     C 3439  10.757  10.541   5.973  0.3391  0.4538 -1.2248
   27MOL0     O 3440  10.657  10.626   6.009  0.1888 -0.1899  0.5708
   27MOL0     C 3441  10.548  10.610   5.915 -0.0397  0.7182 -0.5489
   27MOL0     C 3442  10.440  10.689   5.975 -0.0711 -0.9027  0.8766
   27MOL0     C 3443  10.314  10.693   5.899 -0.3866 -0.1147  0.0716
   27MOL0     C 3444  10.225  10.810   5.925 -0.8414  0.2109 -0.5064
   27MOL0     C 3445  10.083  10.774   5.888  0.9279  0.2787 -0.1305
   27MOL0     C 3446   9.991  10.896   5.887 -0.0700  0.0051  0.6722
   27MOL0     C 3447   9.847  10.861   5.898  0.5633 -0.9230  0.5440
   27MOL0     C 3448   9.764  10.978   5.865  0.4438  0.0265 -0.0140
   27MOL0     N 3449   9.615  10.955   5.888 -0.3958 -0.1142 -1.0222
   27MOL0     C 3450   9.549  10.842   5.850  0.0972 -0.2030  0.1637
   27MOL0     C 3451   9.424  10.847   5.911 -0.6004 -0.2632 -0.6105
   27MOL0     C 3452   9.316  10.743   5.899 -0.1080 -0.0715  0.0036
   27MOL0     C 3453   9.183  10.798   5.851  0.2545  0.2365 -0.5587
   27MOL0     C 3454   9.189  10.857   5.710  0.1234 -0.0040 -1.1865
   27MOL0     C 3455   9.072  10.951   5.687 -0.0752  0.1865 -0.4051
   27MOL0     O 3456   9.086  10.999   5.553 -0.8956  0.0989 -0.1770
   27MOL0     C 3457   8.981  11.059   5.492  0.2837  0.1574 -0.0289
   27MOL0     C 3458   8.995  11.191   5.453 -0.5869 -0.5644  0.1526
   27MOL0     C 3459   8.890  11.254   5.381 -0.0179  0.6609 -0.3108
   27MOL0     C 3460   8.779  11.174   5.328 -0.1576  0.8516 -0.4665
   27MOL0     C 3461   8.683  11.233   5.234 -0.1873 -0.7810  0.2389
   27MOL0     O 3462   8.567  11.172   5.200  0.1774  0.2650 -0.4059
   27MOL0     C 3463   8.462  11.241   5.148  1.2467  0.0601 -0.1261
   27MOL0     C 3464   8.472  11.307   5.028 -0.5095  0.5852 -0.2408
   27MOL0     C 3465   8.361  11.376   4.978  0.5742 -0.1873  0.3811
   27MOL0     C 3466   8.232  11.368   5.027  0.0993  0.6809 -0.0410
   27MOL0     O 3467   8.128  11.429   4.962  0.5790 -0.4816 -0.3884
   27MOL0     C 3468   8.148  11.557   4.891 -0.2738 -0.2345 -1.9153
   27MOL0     C 3469   8.019  11.608   4.820  0.8223 -0.1051  0.2410
   27MOL0     C 3470   7.972  11.509   4.725  0.3597 -0.7405  0.7913
   27MOL0     C 3471   7.837  11.543   4.645  0.5071  0.1868  0.2094
   27MOL0     C 3472   7.827  11.680   4.572  0.2920  0.3411  0.0100
   27MOL0     C 3473   7.706  11.754   4.605  0.8417  0.1400 -0.1026
   27MOL0     C 3474   7.742  11.912   4.601 -0.6003  0.4695 -0.8330
   27MOL0     C 3475   7.597  11.973   4.615 -0.5881  0.4690  0.0673
   27MOL0    Cl 3476   7.609  12.164   4.596  0.5252  0.0695  0.2773
   27MOL0     C 3477   8.218  11.286   5.148  0.4421  0.1604  0.4988
   27MOL0     C 3478   8.333  11.218   5.209 -0.5191  0.4727  0.0915
   27MOL0     O 3479   8.719  11.339   5.187 -0.3446 -0.3854 -0.9130
   27MOL0     C 3480   8.769  11.038   5.375  0.1893 -0.2018 -0.1783
   27MOL0     C 3481   8.870  10.983   5.450  0.1880  0.0128 -0.1194
   27MOL0     N 3482   9.415  10.963   5.988 -0.2856 -0.3095 -0.5283
   27MOL0     N 3483   9.536  11.015   5.984 -1.3267 -0.6418 -0.5672
   27MOL0     C 3484  10.865  10.567   5.887 -0.5208  1.1448  0.3806
   27MOL0     C 3485  10.971  10.478   5.870  0.3546  0.5702 -0.2069
   27MOL0     C 3486  11.283  10.199   5.827 -0.2237 -1.0199  0.3803
   27MOL0     C 3487  11.370  10.266   5.908 -1.0199  0.3511  0.4657
   27MOL0     C 3488  11.512  10.252   5.902  0.1450 -1.0622 -0.0122
   27MOL0     C 3489  11.565  10.151   5.824 -1.4433  0.1415  0.1280
   27MOL0     O 3490  11.705  10.130   5.834  0.8754  0.3951 -0.2055
   27MOL0     C 3491  11.762  10.008   5.781 -0.3542 -0.1882  0.2174
   27MOL0     C 3492  11.906  10.006   5.814 -0.3022  0.4234  0.0196
   27MOL0     C 3493  11.944   9.869   5.767 -0.6754 -0.1851 -0.0418
   27MOL0     C 3494  12.090   9.839   5.796  0.2874 -0.2800 -0.6869
   27MOL0     C 3495  12.142   9.733   5.702 -0.1723 -0.0406  0.6677
   27MOL0     C 3496  12.192   9.643   5.631  0.3122 -0.4719  0.2630
   27MOL0     C 3497  11.480  10.085   5.734 -0.3349  0.8058 -0.0794
   27MOL0     C 3498  11.338  10.105   5.736 -1.3405 -0.5773  0.1427
   27MOL0     H 3499  10.913  10.261   6.103  4.1432 -0.8544 -2.7878
   27MOL0     H 3500  10.706  10.390   6.129  2.2000 -0.4337  1.4591
   27MOL0     H 3501  10.502  10.511   5.912 -3.2128  1.9543  1.3166
   27MOL0     H 3502  10.583  10.660   5.824 -2.2501  1.4648 -1.0673
   27MOL0     H 3503  10.479  10.790   5.990 -0.1197 -0.2773 -2.3504
   27MOL0     H 3504  10.401  10.648   6.068 -0.0043  0.2133  1.4166
   27MOL0     H 3505  10.254  10.605   5.923  0.5727 -0.6413  0.6025
   27MOL0     H 3506  10.337  10.691   5.792 -0.6295 -1.3649  0.0305
   27MOL0     H 3507  10.234  10.843   6.029 -1.1791  1.1756 -0.7773
   27MOL0     H 3508  10.252  10.900   5.870 -1.3645  1.0321  0.5327
   27MOL0     H 3509  10.040  10.701   5.957 -0.8852  1.9157  0.5756
   27MOL0     H 3510  10.068  10.723   5.793 -3.0325  0.8529  0.0067
   27MOL0     H 3511  10.015  10.950   5.795  1.7457 -2.6816 -0.5572
   27MOL0     H 3512  10.031  10.961   5.966  2.1127 -1.0312  0.4851
   27MOL0     H 3513   9.831  10.784   5.822 -3.2843 -1.6528  1.8352
   27MOL0     H 3514   9.827  10.828   6.000 -2.2217 -1.0174  0.0575
   27MOL0     H 3515   9.776  11.008   5.760  1.4263 -0.6621 -0.1094
   27MOL0     H 3516   9.791  11.058   5.933  2.0784  0.2486 -0.8713
   27MOL0     H 3517   9.578  10.759   5.786  1.1884 -0.3852  0.8552
   27MOL0     H 3518   9.310  10.690   5.995 -1.4363  0.6740  0.3529
   27MOL0     H 3519   9.359  10.670   5.831  0.4324  0.0335  0.2262
   27MOL0     H 3520   9.134  10.868   5.920 -2.9381  0.3562 -2.7370
   27MOL0     H 3521   9.118  10.711   5.862 -0.6141  0.8380 -0.8292
   27MOL0     H 3522   9.275  10.923   5.694 -1.6583  2.7149 -0.3110
   27MOL0     H 3523   9.191  10.787   5.627  1.6527  2.4535 -3.3703
   27MOL0     H 3524   9.073  11.041   5.750 -2.5552  0.9060 -1.2668
   27MOL0     H 3525   8.981  10.890   5.692 -1.0616  1.2765 -3.1965
   27MOL0     H 3526   9.085  11.244   5.481 -0.4971  1.2804 -3.0244
   27MOL0     H 3527   8.899  11.359   5.356  0.6593  0.5109 -0.7310
   27MOL0     H 3528   8.572  11.320   4.987  0.1354 -0.1435  1.0352
   27MOL0     H 3529   8.382  11.425   4.883 -1.7260 -0.3711 -0.2741
   27MOL0     H 3530   8.228  11.536   4.820 -1.4143 -3.5159 -2.4131
   27MOL0     H 3531   8.178  11.636   4.961  2.2216 -1.4979 -1.4476
   27MOL0     H 3532   8.051  11.693   4.759  0.5009  0.4168  0.7898
   27MOL0     H 3533   7.945  11.649   4.889 -0.9402 -0.9374 -1.0658
   27MOL0     H 3534   7.966  11.408   4.767  1.6865 -1.7974 -1.3449
   27MOL0     H 3535   8.054  11.507   4.652  0.5328 -2.8790  0.9853
   27MOL0     H 3536   7.817  11.465   4.571  0.8552  0.9240 -0.6754
   27MOL0     H 3537   7.773  11.538   4.734  0.5916  1.9388  0.3972
   27MOL0     H 3538   7.830  11.662   4.464  1.2190 -0.2771  0.1249
   27MOL0     H 3539   7.909  11.748   4.598 -1.9232  3.0138  0.4565
   27MOL0     H 3540   7.662  11.731   4.703 -3.3987  3.2432 -0.9732
   27MOL0     H 3541   7.629  11.737   4.529 -1.3152 -1.7765  2.3140
   27MOL0     H 3542   7.816  11.937   4.679 -1.3261 -1.2293  0.4563
   27MOL0     H 3543   7.779  11.939   4.502 -0.1619 -4.4148 -2.2661
   27MOL0     H 3544   7.540  11.944   4.704 -3.1558  2.0176 -0.9362
   27MOL0     H 3545   7.542  11.930   4.531 -2.1882 -0.4991  1.5246
   27MOL0     H 3546   8.119  11.268   5.189  0.3755  0.3823  0.4323
   27MOL0     H 3547   8.327  11.159   5.300  2.2434 -0.4465 -0.2294
   27MOL0     H 3548   8.679  10.982   5.349 -1.2780  1.4671  1.0532
   27MOL0     H 3549   8.880  10.878   5.475  1.9310 -0.0095 -0.7283
   27MOL0     H 3550  10.868  10.664   5.838 -1.8512 -0.2374 -2.7323
   27MOL0     H 3551  11.062  10.494   5.813  1.2809 -1.7072  0.4942
   27MOL0     H 3552  11.333  10.333   5.985 -0.5215  0.1290  0.9051
   27MOL0     H 3553  11.564  10.315   5.973 -2.0620 -1.0573  1.7206
   27MOL0     H 3554  11.744  10.005   5.673 -0.0379  1.2644  0.1104
   27MOL0     H 3555  11.712   9.922   5.827 -1.9105  0.4130 -0.2952
   27MOL0     H 3556  11.961  10.078   5.753 -0.2034 -0.9898 -1.6537
   27MOL0     H 3557  11.930  10.023   5.919 -1.4228  4.0920 -0.1676
   27MOL0     H 3558  11.923   9.838   5.664 -2.0461 -3.8902  1.1624
   27MOL0     H 3559  11.884   9.793   5.818  0.3125 -2.1314 -1.6427
   27MOL0     H 3560  12.146   9.931   5.777 -1.0914  0.6795 -0.2515
   27MOL0     H 3561  12.099   9.829   5.905 -2.5075  3.4421  0.0878
   27MOL0     H 3562  12.222   9.560   5.571 -2.3234 -1.4917  0.2404
   27MOL0     H 3563  11.518  10.024   5.654 -3.0318  0.3818 -1.1320
   27MOL0     H 3564  11.277  10.069   5.654 -0.6919  0.6264 -0.9092
   28MOL0     O 3565   0.588   3.026   7.969 -0.2500 -0.4357 -0.7192
   28MOL0     C 3566   0.668   3.095   7.908 -0.3939 -0.2798  0.2881
   28MOL0     O 3567   0.664   3.228   7.882  0.0133 -0.0582 -0.5111
   28MOL0     C 3568   0.553   3.302   7.899  0.6061  0.6819  0.2481
   28MOL0     C 3569   0.438   3.274   7.823 -0.1669  0.0356 -1.1359
   28MOL0     C 3570   0.316   3.339   7.855 -0.1622 -0.6411  0.2859
   28MOL0     C 3571   0.312   3.410   7.982 -0.6833 -0.6884  0.3485
   28MOL0     O 3572   0.213   3.498   8.019 -0.4265 -0.3327  0.0436
   28MOL0     C 3573   0.077   3.445   7.986 -0.4998 -0.0486 -0.1577
   28MOL0     C 3574  -0.023   3.521   8.076 -0.0899 -0.3237 -0.3725
   28MOL0     C 3575  -0.001   3.477   8.213 -0.1151 -0.5002  0.2526
   28MOL0     C 3576  -0.113   3.542   8.308 -0.0467 -0.0432  0.1845
   28MOL0     C 3577  -0.116   3.464   8.446 -0.6511  0.1378  0.0826
   28MOL0     C 3578   0.015   3.480   8.520 -0.3001  0.3929 -0.6063
   28MOL0     C 3579   0.030   3.396   8.654 -0.4000  0.1987  0.3628
   28MOL0     C 3580   0.058   3.244   8.636  0.3457  0.6295  0.3635
   28MOL0     N 3581   0.081   3.185   8.764 -0.0954 -0.6444 -0.1407
   28MOL0     C 3582  -0.008   3.142   8.851  0.1528  0.0438  0.1184
   28MOL0     C 3583   0.057   3.129   8.969  0.9145 -0.1992  0.4863
   28MOL0     C 3584  -0.015   3.081   9.092 -0.0169 -0.2299 -0.6653
   28MOL0     C 3585  -0.009   3.195   9.199 -0.2636  0.4004  0.0306
   28MOL0     C 3586  -0.097   3.323   9.174  0.8655  0.0604  0.4930
   28MOL0     C 3587  -0.033   3.423   9.076  0.4353  0.2525 -0.0017
   28MOL0     O 3588  -0.110   3.536   9.027 -0.1064  0.0314  0.1745
   28MOL0     C 3589  -0.153   3.634   9.114  0.6992 -0.1372  0.2611
   28MOL0     C 3590  -0.245   3.725   9.065  0.1987  0.1267 -0.2233
   28MOL0     C 3591  -0.310   3.822   9.145 -0.5154 -1.7429 -0.0608
   28MOL0     C 3592  -0.263   3.831   9.274  0.0904  0.3511 -1.1002
   28MOL0     C 3593  -0.307   3.945   9.367  0.2778  0.7166 -0.2638
   28MOL0     O 3594  -0.397   4.034   9.327  0.4653  0.8961  0.3284
   28MOL0     C 3595  -0.462   4.125   9.413 -0.3074 -0.0083  1.2206
   28MOL0     C 3596  -0.404   4.186   9.522 -0.6815  0.6557  0.7659
   28MOL0     C 3597  -0.470   4.281   9.601 -0.8740  0.4112 -0.3029
   28MOL0     C 3598  -0.604   4.322   9.567 -0.0363  0.5738  0.6774
   28MOL0     O 3599  -0.651   4.427   9.647 -0.2476  0.0934 -0.2642
   28MOL0     C 3600  -0.758   4.517   9.597  0.5143 -0.0728 -0.2522
   28MOL0     C 3601  -0.899   4.475   9.635 -0.3772 -0.0560 -0.5096
   28MOL0     C 3602  -0.992   4.566   9.571  0.0321 -0.1118  0.6945
   28MOL0     C 3603  -1.135   4.565   9.609  0.0919  0.4905 -1.1973
   28MOL0     C 3604  -1.212   4.458   9.544  0.6302  0.6041 -0.2343
   28MOL0     C 3605  -1.345   4.444   9.619 -0.3309 -0.6173 -0.3870
   28MOL0     C 3606  -1.429   4.337   9.554  0.1761  0.3480  0.4739
   28MOL0     C 3607  -1.576   4.353   9.579 -0.6051 -0.1520  0.4796
   28MOL0    Cl 3608  -1.655   4.245   9.464 -0.7976 -0.5844 -0.0780
   28MOL0     C 3609  -0.669   4.261   9.462  0.4931  0.0276  0.2561
   28MOL0     C 3610  -0.597   4.161   9.388 -0.1380 -0.0941 -0.0366
   28MOL0     O 3611  -0.258   3.946   9.474 -0.6216 -0.0389  0.1528
   28MOL0     C 3612  -0.166   3.736   9.325  0.5047 -0.8769  0.3640
   28MOL0     C 3613  -0.108   3.641   9.244  0.1886 -0.7569  0.0841
   28MOL0     N 3614   0.187   3.161   8.953 -0.4689  1.0519  0.5056
   28MOL0     N 3615   0.200   3.197   8.829 -0.7063 -0.5103 -0.0321
   28MOL0     C 3616   0.428   3.427   8.058 -0.3544  0.7299  0.2459
   28MOL0     C 3617   0.550   3.384   8.011 -0.4708  0.7436 -0.5640
   28MOL0     C 3618   0.788   3.028   7.851 -0.0133 -0.4392 -0.2702
   28MOL0     C 3619   0.790   2.892   7.834 -0.6466  0.1412 -0.2062
   28MOL0     C 3620   0.905   2.831   7.781 -0.2977 -1.0598 -0.0859
   28MOL0     C 3621   1.029   2.893   7.748  0.1513 -0.1435  0.3548
   28MOL0     O 3622   1.142   2.822   7.708  0.1569  0.0741 -0.3651
   28MOL0     C 3623   1.255   2.899   7.658 -0.1634  0.4087  0.2796
   28MOL0     C 3624   1.346   2.801   7.588 -0.8573 -0.1525 -0.5489
   28MOL0     C 3625   1.272   2.732   7.480  0.2085  0.4436 -0.8048
   28MOL0     C 3626   1.356   2.652   7.382  0.6069 -0.5770 -0.7510
   28MOL0     C 3627   1.439   2.754   7.296  1.1323  0.8835 -0.9730
   28MOL0     C 3628   1.509   2.830   7.235  0.4255  0.3550  0.2962
   28MOL0     C 3629   1.018   3.033   7.766 -0.3222 -0.6870 -0.0391
   28MOL0     C 3630   0.903   3.098   7.810  0.3048  0.3099 -0.4706
   28MOL0     H 3631   0.439   3.206   7.738 -3.1387 -2.5777  0.7092
   28MOL0     H 3632   0.235   3.333   7.784  0.6250 -0.8819 -0.6143
   28MOL0     H 3633   0.064   3.338   8.002 -0.4822  0.0378  0.4405
   28MOL0     H 3634   0.057   3.467   7.881  3.0818 -2.0004 -1.4091
   28MOL0     H 3635  -0.126   3.503   8.044 -0.7021  0.7674  0.8831
   28MOL0     H 3636   0.003   3.628   8.069 -1.0058 -0.0941 -0.3320
   28MOL0     H 3637   0.096   3.519   8.241 -0.2086  1.3993 -1.9421
   28MOL0     H 3638  -0.017   3.369   8.218  0.3643 -0.5684  0.3377
   28MOL0     H 3639  -0.102   3.646   8.339 -1.9449  0.0984  0.4478
   28MOL0     H 3640  -0.209   3.522   8.260  1.7688 -2.4765 -2.8266
   28MOL0     H 3641  -0.126   3.357   8.426 -0.4249  0.1357 -0.0356
   28MOL0     H 3642  -0.200   3.498   8.507  0.2649  0.1654  1.3695
   28MOL0     H 3643   0.032   3.583   8.554 -0.5207  0.5611 -0.9963
   28MOL0     H 3644   0.109   3.450   8.472  1.9464  3.3164  1.5898
   28MOL0     H 3645   0.115   3.439   8.709 -1.4490  0.4809  1.8196
   28MOL0     H 3646  -0.061   3.408   8.713  0.3784  0.4254  1.5650
   28MOL0     H 3647   0.153   3.228   8.584  2.0639 -1.8832  3.8869
   28MOL0     H 3648  -0.027   3.193   8.591  2.2395 -2.1922 -0.2450
   28MOL0     H 3649  -0.114   3.127   8.831  0.5177 -2.7641 -0.1783
   28MOL0     H 3650   0.040   2.990   9.120  2.5958  1.5288  0.3986
   28MOL0     H 3651  -0.116   3.052   9.065  0.8377 -0.5934 -3.7946
   28MOL0     H 3652   0.095   3.227   9.212 -0.0270 -0.0893 -0.5949
   28MOL0     H 3653  -0.047   3.155   9.294  0.3647 -0.0326  0.1063
   28MOL0     H 3654  -0.192   3.286   9.134 -0.6406  0.6562  3.2717
   28MOL0     H 3655  -0.119   3.372   9.269  2.2618 -1.1932  1.5059
   28MOL0     H 3656   0.003   3.377   8.983  0.3384  1.7278 -0.8146
   28MOL0     H 3657   0.061   3.451   9.125  1.2487 -1.5235 -0.4701
   28MOL0     H 3658  -0.279   3.705   8.964 -2.6895 -1.0642  0.8586
   28MOL0     H 3659  -0.372   3.898   9.100  3.9487  1.4810 -1.5167
   28MOL0     H 3660  -0.306   4.163   9.562 -2.0889 -1.5013  3.3134
   28MOL0     H 3661  -0.411   4.329   9.678 -0.5216 -0.0088 -0.3035
   28MOL0     H 3662  -0.767   4.518   9.488 -2.2343 -5.4987 -0.4348
   28MOL0     H 3663  -0.744   4.617   9.639 -1.7948  0.5054 -0.7070
   28MOL0     H 3664  -0.907   4.473   9.744 -0.9036 -2.6757 -0.5328
   28MOL0     H 3665  -0.931   4.378   9.597 -2.2430  0.7226 -1.0460
   28MOL0     H 3666  -0.987   4.562   9.461 -2.1950 -0.0617  0.5494
   28MOL0     H 3667  -0.952   4.665   9.594  2.0248 -0.0086 -2.5451
   28MOL0     H 3668  -1.136   4.538   9.716 -1.0301  1.0775 -1.0377
   28MOL0     H 3669  -1.193   4.655   9.587 -0.3072  1.0965  1.8620
   28MOL0     H 3670  -1.161   4.362   9.553  1.7720  0.8280 -3.1149
   28MOL0     H 3671  -1.227   4.475   9.437 -0.3664 -0.0486 -0.2104
   28MOL0     H 3672  -1.392   4.543   9.616 -0.5515 -0.7410 -1.8415
   28MOL0     H 3673  -1.320   4.411   9.720  1.9498  4.0917  0.8488
   28MOL0     H 3674  -1.423   4.347   9.446 -0.1190 -2.0481  0.1885
   28MOL0     H 3675  -1.399   4.238   9.591 -3.3599 -2.1716 -2.7246
   28MOL0     H 3676  -1.601   4.455   9.548  0.7591 -0.1360 -0.7185
   28MOL0     H 3677  -1.600   4.331   9.683 -0.8376  1.9875  0.9208
   28MOL0     H 3678  -0.775   4.281   9.446  0.0711 -1.6689  0.7384
   28MOL0     H 3679  -0.646   4.097   9.315 -0.4534 -0.2483  0.3089
   28MOL0     H 3680  -0.131   3.745   9.428  2.3823  0.6051 -0.3263
   28MOL0     H 3681  -0.043   3.564   9.284 -2.7436 -3.4638  0.0640
   28MOL0     H 3682   0.428   3.478   8.154 -1.0153 -1.7262  1.6230
   28MOL0     H 3683   0.645   3.384   8.062  1.1354 -3.9690 -3.0374
   28MOL0     H 3684   0.699   2.836   7.851 -1.5549  2.0530  1.7420
   28MOL0     H 3685   0.911   2.723   7.783 -0.7145 -1.0719  0.8440
   28MOL0     H 3686   1.310   2.947   7.740 -0.7527 -0.6315  1.3125
   28MOL0     H 3687   1.223   2.966   7.578  1.6859 -1.8510 -2.5347
   28MOL0     H 3688   1.434   2.855   7.549 -0.5157  1.3065  1.9848
   28MOL0     H 3689   1.380   2.728   7.662 -3.0540 -0.7024 -0.0068
   28MOL0     H 3690   1.221   2.808   7.419  1.2751 -1.2020 -3.9268
   28MOL0     H 3691   1.196   2.668   7.525  0.8562 -0.2203 -0.6494
   28MOL0     H 3692   1.418   2.577   7.432 -0.8371 -1.1096  0.3258
   28MOL0     H 3693   1.290   2.605   7.309 -2.7501 -0.7124  2.0909
   28MOL0     H 3694   1.575   2.872   7.161 -0.9175  1.6773 -0.2128
   28MOL0     H 3695   1.101   3.100   7.746  1.2872 -2.4444  0.3532
   28MOL0     H 3696   0.896   3.205   7.792  3.0617  0.6293 -0.0700
   29MOL0     O 3697   7.716   5.611   4.302 -0.2942 -0.2303 -0.0013
   29MOL0     C 3698   7.713   5.514   4.226  0.7030  0.4556  0.1025
   29MOL0     O 3699   7.605   5.495   4.136 -0.0017  0.3329  0.0713
   29MOL0     C 3700   7.498   5.569   4.164  0.2291 -0.0740  0.1569
   29MOL0     C 3701   7.499   5.714   4.161 -0.1057  0.1523  0.4005
   29MOL0     C 3702   7.377   5.787   4.175  0.0901 -0.3460 -0.5475
   29MOL0     C 3703   7.257   5.713   4.186 -0.5338 -0.1300 -0.1545
   29MOL0     O 3704   7.143   5.794   4.182 -0.1376 -0.0923 -0.3571
   29MOL0     C 3705   7.057   5.786   4.286 -0.4646 -0.3856  0.6284
   29MOL0     C 3706   6.913   5.800   4.245 -0.9721 -0.6961 -0.0106
   29MOL0     C 3707   6.812   5.792   4.357  0.2025  0.0899  0.6073
   29MOL0     C 3708   6.676   5.781   4.299  0.5041 -0.2132 -0.3598
   29MOL0     C 3709   6.571   5.805   4.407  0.3529 -0.4175  0.3098
   29MOL0     C 3710   6.553   5.698   4.509 -0.4080 -0.0460  0.5609
   29MOL0     C 3711   6.472   5.741   4.627  0.2851  0.2312 -0.6323
   29MOL0     C 3712   6.323   5.736   4.585  1.2476 -0.3139 -1.0994
   29MOL0     N 3713   6.249   5.782   4.703  0.3534 -0.6266 -0.9300
   29MOL0     C 3714   6.193   5.698   4.794 -0.2733  0.3664 -0.5786
   29MOL0     C 3715   6.135   5.780   4.887  0.7422  0.0060 -0.0137
   29MOL0     C 3716   6.061   5.729   5.006 -0.5128  0.0676 -0.4410
   29MOL0     C 3717   5.926   5.679   4.958  0.3079  0.2488 -0.9528
   29MOL0     C 3718   5.854   5.622   5.081  0.7045 -0.2550 -0.1756
   29MOL0     C 3719   5.708   5.584   5.058  1.1155  0.3557  0.6702
   29MOL0     O 3720   5.645   5.702   5.010  1.1032 -0.1560  0.1593
   29MOL0     C 3721   5.515   5.696   4.993  1.1625 -0.2349 -0.5248
   29MOL0     C 3722   5.455   5.822   4.970  0.4547  0.0654 -0.0533
   29MOL0     C 3723   5.315   5.828   4.952 -0.2915  0.6455  0.1554
   29MOL0     C 3724   5.228   5.722   4.964  0.7731 -0.1863  0.2871
   29MOL0     C 3725   5.087   5.734   4.937 -0.1765  0.5960  0.0443
   29MOL0     O 3726   5.011   5.620   4.951  0.7304 -0.8982  0.2047
   29MOL0     C 3727   4.880   5.646   4.980  0.7994 -0.6829  0.2677
   29MOL0     C 3728   4.791   5.571   4.890  0.9341 -0.0464 -0.9399
   29MOL0     C 3729   4.656   5.593   4.902  0.8158 -0.4075 -0.6371
   29MOL0     C 3730   4.600   5.680   4.993  0.1617 -0.5023 -0.2825
   29MOL0     O 3731   4.465   5.697   5.000  0.8665 -0.7366  0.0045
   29MOL0     C 3732   4.398   5.813   5.069  0.1636 -1.0172  0.1032
   29MOL0     C 3733   4.258   5.765   5.072  0.7948 -0.2070 -0.1029
   29MOL0     C 3734   4.188   5.770   4.938  0.0666  0.8503  0.4521
   29MOL0     C 3735   4.038   5.756   4.968 -0.2429 -0.1952  0.7947
   29MOL0     C 3736   3.963   5.858   5.055  0.0865 -0.6713  0.6998
   29MOL0     C 3737   4.004   6.002   5.039  0.5075 -0.6426  0.2320
   29MOL0     C 3738   3.928   6.087   5.143 -0.0484 -0.9515  0.2378
   29MOL0     C 3739   3.811   6.148   5.079  0.9562 -0.3409  0.3616
   29MOL0    Cl 3740   3.717   6.246   5.189 -0.0964 -0.0126 -0.2725
   29MOL0     C 3741   4.685   5.746   5.087  0.2480  1.0941  0.4515
   29MOL0     C 3742   4.825   5.729   5.081  0.5521 -0.2497  0.2810
   29MOL0     O 3743   5.046   5.837   4.882 -0.3720 -0.2594 -0.8284
   29MOL0     C 3744   5.295   5.597   5.001  0.4040  0.9643 -0.0548
   29MOL0     C 3745   5.435   5.582   5.007 -1.8506  0.1616 -0.2411
   29MOL0     N 3746   6.145   5.917   4.843  0.1086  0.2086 -0.6929
   29MOL0     N 3747   6.207   5.912   4.735  0.3521  0.2138 -0.2465
   29MOL0     C 3748   7.259   5.573   4.176  0.7536  0.9529  0.5019
   29MOL0     C 3749   7.379   5.497   4.157  0.2482 -0.4808  0.4529
   29MOL0     C 3750   7.831   5.433   4.207  0.0504 -0.6756 -0.5909
   29MOL0     C 3751   7.833   5.310   4.140  0.4636 -1.0594 -0.9448
   29MOL0     C 3752   7.947   5.229   4.134 -0.2488  0.0683  0.3392
   29MOL0     C 3753   8.068   5.276   4.199  0.0862 -0.2338  0.5069
   29MOL0     O 3754   8.176   5.190   4.198  0.3043 -0.0676 -0.1574
   29MOL0     C 3755   8.288   5.211   4.281 -0.4384  0.1221  0.4528
   29MOL0     C 3756   8.267   5.174   4.420 -0.4713 -0.1795 -0.0521
   29MOL0     C 3757   8.209   5.025   4.436 -0.6357  0.0728 -0.4057
   29MOL0     C 3758   8.308   4.929   4.372  0.0350 -0.1473 -0.5369
   29MOL0     C 3759   8.280   4.792   4.382  0.0717  0.0355  0.5878
   29MOL0     C 3760   8.263   4.672   4.389  0.1077  0.6308  0.5689
   29MOL0     C 3761   8.071   5.405   4.259 -0.0621  0.1259 -0.5140
   29MOL0     C 3762   7.951   5.485   4.260  0.3271  0.4666  0.0850
   29MOL0     H 3763   7.593   5.767   4.152  1.2523 -2.2162 -0.1561
   29MOL0     H 3764   7.373   5.896   4.165  1.3467 -0.2331  0.0787
   29MOL0     H 3765   7.090   5.865   4.354  0.5275  1.6355 -2.0283
   29MOL0     H 3766   7.068   5.693   4.343  1.1823  0.7668  2.3030
   29MOL0     H 3767   6.895   5.726   4.166 -1.2018 -0.0934 -0.5302
   29MOL0     H 3768   6.908   5.901   4.204  0.8531 -0.4247  0.3358
   29MOL0     H 3769   6.830   5.876   4.423 -1.3655  2.7200 -2.0431
   29MOL0     H 3770   6.830   5.700   4.413  4.2355 -1.0783 -2.1585
   29MOL0     H 3771   6.649   5.858   4.226 -2.9458 -0.9941 -0.1054
   29MOL0     H 3772   6.655   5.684   4.253 -0.4437  0.8855 -2.3765
   29MOL0     H 3773   6.482   5.845   4.357  0.6937  2.4227  1.7489
   29MOL0     H 3774   6.594   5.900   4.456 -1.9722  0.3071  0.1173
   29MOL0     H 3775   6.651   5.661   4.541 -0.1437 -1.1944 -1.3857
   29MOL0     H 3776   6.506   5.612   4.459  2.0820 -1.1362 -0.0832
   29MOL0     H 3777   6.479   5.673   4.712 -3.5381 -1.4728 -1.4665
   29MOL0     H 3778   6.498   5.842   4.659  1.2459 -0.2763  0.2588
   29MOL0     H 3779   6.287   5.635   4.564 -5.6247  1.4082 -0.1009
   29MOL0     H 3780   6.308   5.793   4.493 -2.7827  0.3635 -0.2035
   29MOL0     H 3781   6.209   5.591   4.798 -0.9902  0.2543 -0.5832
   29MOL0     H 3782   6.044   5.812   5.075 -1.2136 -2.1397  2.2088
   29MOL0     H 3783   6.117   5.648   5.056  0.3296  0.4596 -0.7330
   29MOL0     H 3784   5.932   5.606   4.877 -1.4544  0.5980 -1.4367
   29MOL0     H 3785   5.873   5.763   4.911 -1.7583 -0.1438  0.5116
   29MOL0     H 3786   5.898   5.534   5.130  2.0210 -0.2962 -1.3278
   29MOL0     H 3787   5.857   5.705   5.152 -0.5964  1.3857 -1.9379
   29MOL0     H 3788   5.661   5.546   5.149  0.4670  2.3594  1.2238
   29MOL0     H 3789   5.704   5.499   4.988 -0.4885 -0.3630  1.5824
   29MOL0     H 3790   5.525   5.899   4.938  0.4088 -0.2763 -1.0049
   29MOL0     H 3791   5.278   5.930   4.945 -2.7275  0.0113  2.1543
   29MOL0     H 3792   4.843   5.524   4.807  2.8617  2.4662 -1.2935
   29MOL0     H 3793   4.591   5.541   4.832 -0.1708 -0.7144  0.4913
   29MOL0     H 3794   4.399   5.903   5.007  1.5881 -0.3470  1.0479
   29MOL0     H 3795   4.434   5.847   5.167 -1.7167 -1.4175  0.9925
   29MOL0     H 3796   4.215   5.830   5.149 -1.6294 -0.9364 -0.7468
   29MOL0     H 3797   4.251   5.667   5.120  0.2488 -0.2285 -0.2158
   29MOL0     H 3798   4.213   5.680   4.881  2.0690  2.3061 -1.1381
   29MOL0     H 3799   4.209   5.862   4.883 -0.7656  0.0417 -1.3168
   29MOL0     H 3800   3.992   5.763   4.869 -1.1253 -1.1507  1.1215
   29MOL0     H 3801   4.021   5.663   5.022 -1.0388 -0.8200 -0.4688
   29MOL0     H 3802   3.977   5.829   5.160 -0.8325  0.7620  1.2493
   29MOL0     H 3803   3.856   5.848   5.033  0.1754  1.5021 -1.0067
   29MOL0     H 3804   3.989   6.032   4.934 -0.0304  0.3181  0.5695
   29MOL0     H 3805   4.112   6.017   5.046  0.3938  0.0069  0.5935
   29MOL0     H 3806   3.893   6.025   5.226  0.6393 -1.2183  0.3321
   29MOL0     H 3807   3.988   6.170   5.184 -3.3856  1.4841  0.6368
   29MOL0     H 3808   3.756   6.064   5.036  0.2818  0.5694 -0.6123
   29MOL0     H 3809   3.837   6.213   4.994 -0.5594 -1.7506 -1.2586
   29MOL0     H 3810   4.647   5.816   5.160 -2.6309 -0.2465  0.3736
   29MOL0     H 3811   4.880   5.793   5.150 -2.5282  3.8123 -0.6354
   29MOL0     H 3812   5.237   5.508   5.019  1.0821 -0.0366 -2.3946
   29MOL0     H 3813   5.483   5.489   5.034  0.2230  0.3330 -2.9453
   29MOL0     H 3814   7.161   5.526   4.177  1.2421 -0.1295 -0.4760
   29MOL0     H 3815   7.370   5.389   4.152  0.4611 -0.5999  2.0106
   29MOL0     H 3816   7.737   5.266   4.113  0.9249 -1.6509 -1.6405
   29MOL0     H 3817   7.940   5.128   4.096  0.8115 -0.1314  0.6297
   29MOL0     H 3818   8.322   5.314   4.272 -1.5167  0.3845 -0.9755
   29MOL0     H 3819   8.360   5.143   4.235  2.0096  3.1451 -0.5378
   29MOL0     H 3820   8.365   5.168   4.469 -0.2697 -3.2432 -0.6448
   29MOL0     H 3821   8.196   5.237   4.475 -2.1386 -1.1114 -1.0435
   29MOL0     H 3822   8.118   5.004   4.378 -0.0280 -2.6010 -0.4967
   29MOL0     H 3823   8.184   5.010   4.541 -3.0490  5.1430  0.0349
   29MOL0     H 3824   8.312   4.946   4.264  2.2163  0.3947 -0.4086
   29MOL0     H 3825   8.406   4.948   4.416 -0.5405  0.8017  0.3871
   29MOL0     H 3826   8.240   4.568   4.381  1.2674  0.4467 -0.6847
   29MOL0     H 3827   8.159   5.453   4.301  0.0893  3.6866 -4.2601
   29MOL0     H 3828   7.958   5.585   4.301 -3.2317  2.1588 -2.9221
   30MOL0     O 3829   9.558   4.875   6.639  0.4226  0.3877 -0.2080
   30MOL0     C 3830   9.651   4.827   6.709 -0.5514  1.1962  0.1964
   30MOL0     O 3831   9.635   4.730   6.809 -0.0399  0.4241 -0.0969
   30MOL0     C 3832   9.511   4.672   6.837 -0.0618  0.3495 -0.3984
   30MOL0     C 3833   9.393   4.742   6.846 -0.6166 -0.4523 -0.6257
   30MOL0     C 3834   9.275   4.684   6.881 -0.2724 -0.1649  0.0340
   30MOL0     C 3835   9.268   4.549   6.922  0.1791 -0.0527  0.0585
   30MOL0     O 3836   9.159   4.476   6.958 -0.3704  0.5540 -0.2952
   30MOL0     C 3837   9.032   4.540   6.962  0.5547  1.0322 -0.5946
   30MOL0     C 3838   8.923   4.451   7.018 -1.0468  0.4077  0.0102
   30MOL0     C 3839   8.779   4.510   6.999  0.1977  0.2368  0.3797
   30MOL0     C 3840   8.670   4.440   7.067 -0.1027  0.3420 -0.0767
   30MOL0     C 3841   8.536   4.504   7.029 -0.3231 -0.1981  0.7592
   30MOL0     C 3842   8.398   4.443   7.065  0.6482 -0.3234  0.1237
   30MOL0     C 3843   8.291   4.441   6.958  0.3911 -0.1957  0.0923
   30MOL0     C 3844   8.231   4.577   6.923  0.5317 -0.3140  0.0217
   30MOL0     N 3845   8.136   4.628   7.026 -0.1170 -0.4883 -0.1112
   30MOL0     C 3846   8.086   4.756   7.030  0.1925 -0.7327 -0.4665
   30MOL0     C 3847   8.008   4.765   7.138 -0.1187  0.1535 -0.5599
   30MOL0     C 3848   7.937   4.889   7.182  0.9282 -0.3688  0.3432
   30MOL0     C 3849   7.786   4.895   7.143 -1.3774  0.2753 -0.1548
   30MOL0     C 3850   7.699   4.765   7.175 -0.3981 -0.3538 -0.0534
   30MOL0     C 3851   7.551   4.783   7.170 -0.5047 -0.1749  0.5680
   30MOL0     O 3852   7.499   4.655   7.189  0.4385  0.3239  0.5413
   30MOL0     C 3853   7.363   4.638   7.207  0.4875 -0.3706  0.3134
   30MOL0     C 3854   7.264   4.742   7.180  0.0260  0.7618  0.4565
   30MOL0     C 3855   7.127   4.735   7.191 -0.3156 -0.7316 -0.4891
   30MOL0     C 3856   7.077   4.618   7.252  0.0260  0.0638  0.1795
   30MOL0     C 3857   6.934   4.594   7.287  0.8109 -0.3275 -1.0869
   30MOL0     O 3858   6.902   4.463   7.310  0.0140  0.2429  1.0514
   30MOL0     C 3859   6.777   4.408   7.350  0.3890 -0.0342  0.8687
   30MOL0     C 3860   6.658   4.479   7.359  0.6200 -0.0140 -0.3875
   30MOL0     C 3861   6.542   4.418   7.416 -1.1571  0.2054  1.4374
   30MOL0     C 3862   6.539   4.286   7.456 -0.0422  0.7552 -0.2805
   30MOL0     O 3863   6.442   4.202   7.500 -0.8288  0.1563 -0.3878
   30MOL0     C 3864   6.307   4.200   7.450  0.3884  0.0711 -0.2279
   30MOL0     C 3865   6.238   4.065   7.466  0.5657  0.2025  0.4279
   30MOL0     C 3866   6.160   4.047   7.598  0.6609 -0.5123 -0.4761
   30MOL0     C 3867   6.040   4.139   7.610  0.5798  0.2683 -0.5407
   30MOL0     C 3868   6.035   4.207   7.748 -0.0703 -0.0583 -0.4137
   30MOL0     C 3869   5.912   4.304   7.751 -0.2178  0.1338 -0.0371
   30MOL0     C 3870   5.866   4.327   7.893  0.7990 -0.2497  0.4873
   30MOL0     C 3871   5.764   4.218   7.938 -0.0254 -0.2136 -0.2949
   30MOL0    Cl 3872   5.605   4.229   7.859 -0.2977 -0.0830 -0.0005
   30MOL0     C 3873   6.670   4.223   7.465  0.0615 -0.7896  0.0135
   30MOL0     C 3874   6.787   4.285   7.426  0.6059 -0.8308 -0.4756
   30MOL0     O 3875   6.857   4.690   7.292 -0.0993 -0.2450 -0.5441
   30MOL0     C 3876   7.166   4.509   7.277  0.1942 -0.3303  0.5899
   30MOL0     C 3877   7.307   4.518   7.246  0.0005  0.5229 -0.3795
   30MOL0     N 3878   8.006   4.636   7.200 -0.4685 -0.2549  0.7201
   30MOL0     N 3879   8.074   4.550   7.121  0.8775 -0.7449  0.0583
   30MOL0     C 3880   9.385   4.475   6.913  0.5857  0.0829 -0.1340
   30MOL0     C 3881   9.508   4.536   6.867 -0.3244  0.0768 -0.2351
   30MOL0     C 3882   9.781   4.902   6.705  0.0562 -0.3429  0.0413
   30MOL0     C 3883   9.804   5.012   6.615 -0.4293 -1.0976 -0.4875
   30MOL0     C 3884   9.935   5.075   6.605  1.2152  0.7340 -1.2653
   30MOL0     C 3885  10.041   5.027   6.683 -0.0924  0.3868 -0.2654
   30MOL0     O 3886  10.170   5.073   6.676 -0.2763  0.6337 -0.8986
   30MOL0     C 3887  10.213   5.161   6.573  0.0920  0.4785  0.1279
   30MOL0     C 3888  10.366   5.154   6.567 -0.8322 -0.0221 -0.0819
   30MOL0     C 3889  10.431   5.020   6.510 -0.5461 -0.2783  0.8145
   30MOL0     C 3890  10.536   4.944   6.599  0.8361  0.8984  1.1908
   30MOL0     C 3891  10.456   4.904   6.716 -0.5340 -0.0736  0.0851
   30MOL0     C 3892  10.409   4.854   6.816 -0.1793 -0.2942 -0.1097
   30MOL0     C 3893  10.016   4.923   6.771  0.0440  0.1507 -0.5255
   30MOL0     C 3894   9.892   4.866   6.776 -0.4395  0.3598 -0.0523
   30MOL0     H 3895   9.396   4.848   6.823  0.5505 -0.2846  0.1828
   30MOL0     H 3896   9.185   4.745   6.883 -1.2430 -1.5259  2.7299
   30MOL0     H 3897   9.007   4.572   6.861 -3.1310 -1.7789 -0.8026
   30MOL0     H 3898   9.044   4.622   7.034  1.9415 -1.1607  1.8593
   30MOL0     H 3899   8.931   4.431   7.125 -1.8742  2.8206  0.6029
   30MOL0     H 3900   8.933   4.361   6.957 -0.9265 -1.5372  2.7557
   30MOL0     H 3901   8.758   4.515   6.891 -2.0396  0.5947  0.7709
   30MOL0     H 3902   8.778   4.614   7.032 -0.6689  0.1905  0.5340
   30MOL0     H 3903   8.675   4.335   7.038  0.7660  0.3493  0.0380
   30MOL0     H 3904   8.675   4.434   7.176 -0.4814 -1.7131 -0.1429
   30MOL0     H 3905   8.549   4.537   6.925  1.5940 -0.8096  0.7557
   30MOL0     H 3906   8.526   4.599   7.081  0.0495 -0.0056  0.4885
   30MOL0     H 3907   8.363   4.496   7.154  0.3760  2.6182 -1.6232
   30MOL0     H 3908   8.407   4.336   7.090 -0.7685 -0.2261  1.1938
   30MOL0     H 3909   8.340   4.405   6.867 -2.7108  1.0344 -2.2413
   30MOL0     H 3910   8.211   4.372   6.989  1.1911 -0.3871  1.8300
   30MOL0     H 3911   8.171   4.568   6.832 -1.1185  2.3431  0.7344
   30MOL0     H 3912   8.313   4.645   6.896  0.1127 -0.1361 -0.8243
   30MOL0     H 3913   8.086   4.833   6.953 -1.8545  0.0263  0.2170
   30MOL0     H 3914   7.992   4.974   7.141 -4.1994  2.2104 -2.0931
   30MOL0     H 3915   7.939   4.880   7.291 -1.0076 -2.4952  0.2725
   30MOL0     H 3916   7.800   4.913   7.036 -1.6159 -0.6374 -0.3522
   30MOL0     H 3917   7.734   4.983   7.183 -1.8639 -0.4831  0.9488
   30MOL0     H 3918   7.729   4.685   7.106 -1.8377 -0.1573 -0.9578
   30MOL0     H 3919   7.723   4.741   7.279 -0.0941  1.3847  0.3038
   30MOL0     H 3920   7.530   4.804   7.064  0.3548 -2.2079 -0.0420
   30MOL0     H 3921   7.522   4.863   7.239  1.6968  1.1494  0.0649
   30MOL0     H 3922   7.294   4.830   7.124  2.1479  0.3931  0.9097
   30MOL0     H 3923   7.065   4.816   7.154 -0.4967 -0.3846  0.5190
   30MOL0     H 3924   6.660   4.585   7.333  1.8214 -0.4969 -2.4967
   30MOL0     H 3925   6.459   4.488   7.409 -2.3436 -1.3646 -1.4620
   30MOL0     H 3926   6.307   4.224   7.343  1.1654 -0.1819 -0.2882
   30MOL0     H 3927   6.254   4.283   7.498 -2.0565  1.4212 -4.6670
   30MOL0     H 3928   6.299   3.974   7.474  0.3685  0.1070  0.8619
   30MOL0     H 3929   6.172   4.050   7.379 -0.3940  2.6419  0.6524
   30MOL0     H 3930   6.229   4.048   7.683 -2.7316 -1.3562  2.5532
   30MOL0     H 3931   6.112   3.948   7.596 -0.4597  0.0157 -0.5756
   30MOL0     H 3932   6.044   4.208   7.525  1.8976 -0.3741 -1.0413
   30MOL0     H 3933   5.954   4.075   7.590 -1.3652  3.4737 -3.5745
   30MOL0     H 3934   6.124   4.270   7.762 -0.4567 -0.1609  3.9584
   30MOL0     H 3935   6.038   4.141   7.836  1.8475 -1.6997 -1.6331
   30MOL0     H 3936   5.823   4.256   7.708 -0.5800 -2.0044  2.8093
   30MOL0     H 3937   5.936   4.397   7.699  1.2614 -0.2727 -0.1122
   30MOL0     H 3938   5.951   4.331   7.962 -0.6381 -0.4605  2.3602
   30MOL0     H 3939   5.815   4.424   7.896  2.0547  0.4046  2.7404
   30MOL0     H 3940   5.746   4.243   8.043  0.5716  0.1677 -0.2768
   30MOL0     H 3941   5.797   4.114   7.927  2.0687  0.3995 -0.1298
   30MOL0     H 3942   6.682   4.125   7.510 -2.7607 -0.6889  1.1846
   30MOL0     H 3943   6.880   4.236   7.455  0.6585  0.1914  1.2434
   30MOL0     H 3944   7.131   4.422   7.332  0.0735  0.0909  1.1877
   30MOL0     H 3945   7.370   4.431   7.257 -2.6795 -1.4029  0.9443
   30MOL0     H 3946   9.391   4.367   6.923  2.2635  0.2179  0.6489
   30MOL0     H 3947   9.601   4.482   6.856 -0.1475  0.0451  1.2879
   30MOL0     H 3948   9.719   5.045   6.556 -2.8076 -3.9132  1.1300
   30MOL0     H 3949   9.948   5.153   6.531  0.0685  1.8869 -0.2822
   30MOL0     H 3950  10.180   5.265   6.583 -1.0481  0.3158 -1.5760
   30MOL0     H 3951  10.166   5.141   6.477  2.0101  0.8487 -0.9313
   30MOL0     H 3952  10.395   5.234   6.498  0.4096 -0.8220 -0.5143
   30MOL0     H 3953  10.402   5.179   6.668 -3.3357 -1.6908  1.3180
   30MOL0     H 3954  10.485   5.052   6.420 -2.3412 -0.7642 -0.5059
   30MOL0     H 3955  10.355   4.947   6.480  1.5323 -1.6487 -1.6246
   30MOL0     H 3956  10.564   4.856   6.542 -3.2479  1.5357 -2.2579
   30MOL0     H 3957  10.637   4.979   6.623  2.6419 -1.8716 -1.6263
   30MOL0     H 3958  10.379   4.804   6.906  0.3934 -1.3560 -0.4851
   30MOL0     H 3959  10.101   4.894   6.831  1.0328 -0.3471 -2.1063
   30MOL0     H 3960   9.892   4.788   6.852 -1.7342 -0.1099 -0.5157
   31MOL0     O 3961   2.017   5.542   7.436  0.6932 -0.1998 -0.0651
   31MOL0     C 3962   2.068   5.595   7.342 -0.1865 -0.6746  0.9179
   31MOL0     O 3963   2.009   5.622   7.220  0.2443 -0.4558  0.0225
   31MOL0     C 3964   1.879   5.583   7.211 -0.0849 -0.8276 -0.7721
   31MOL0     C 3965   1.785   5.600   7.314  0.0332 -0.0253  0.1715
   31MOL0     C 3966   1.647   5.559   7.294 -0.1081  0.0528  1.6479
   31MOL0     C 3967   1.607   5.505   7.171  0.4570 -0.2316 -0.3172
   31MOL0     O 3968   1.489   5.460   7.125 -0.1477  0.5228 -0.3853
   31MOL0     C 3969   1.379   5.421   7.205  0.2472  0.7603 -0.1646
   31MOL0     C 3970   1.403   5.311   7.310 -0.2757  0.3984 -0.3983
   31MOL0     C 3971   1.280   5.243   7.361  0.2427 -0.2605 -0.2405
   31MOL0     C 3972   1.176   5.345   7.407  0.2961 -0.9308  0.0998
   31MOL0     C 3973   1.082   5.268   7.497 -0.3741 -0.3597  0.3085
   31MOL0     C 3974   0.994   5.169   7.420 -0.5389  0.6618  1.6223
   31MOL0     C 3975   0.898   5.104   7.515  0.3929 -0.4197 -0.6456
   31MOL0     C 3976   0.796   5.011   7.449  0.5258  0.4870 -0.4551
   31MOL0     N 3977   0.706   5.084   7.356  0.1933  0.5887  0.0956
   31MOL0     C 3978   0.705   5.076   7.218  0.0703  0.1700 -1.4138
   31MOL0     C 3979   0.613   5.155   7.169 -0.9335 -0.1294 -0.0939
   31MOL0     C 3980   0.561   5.152   7.026 -0.0268 -0.1963 -0.1862
   31MOL0     C 3981   0.448   5.250   6.993 -0.3966  0.0905 -0.1242
   31MOL0     C 3982   0.501   5.392   6.993  0.9515 -0.0437  0.2014
   31MOL0     C 3983   0.396   5.494   7.033  0.3510  0.5003 -0.1882
   31MOL0     O 3984   0.290   5.473   6.938 -0.1552  0.0402  0.6055
   31MOL0     C 3985   0.165   5.519   6.957 -0.4224  0.1555 -0.5182
   31MOL0     C 3986   0.124   5.595   7.067 -0.6872 -0.5157 -0.7729
   31MOL0     C 3987  -0.007   5.639   7.083 -0.1331  0.4248  0.2894
   31MOL0     C 3988  -0.098   5.625   6.977 -1.2620  0.8647 -0.2906
   31MOL0     C 3989  -0.225   5.693   6.974 -1.4887 -0.7267  1.5305
   31MOL0     O 3990  -0.325   5.644   6.889 -0.1562  0.1170  0.4621
   31MOL0     C 3991  -0.440   5.709   6.856  0.4974  0.0383  0.5362
   31MOL0     C 3992  -0.440   5.850   6.833  0.0790 -0.5230 -0.9641
   31MOL0     C 3993  -0.558   5.914   6.805 -0.3842 -0.1972  0.3261
   31MOL0     C 3994  -0.678   5.843   6.815 -0.7721  0.3504  0.1046
   31MOL0     O 3995  -0.800   5.895   6.786 -0.3120  0.1845 -0.1502
   31MOL0     C 3996  -0.827   6.017   6.719 -0.3287  0.3994 -0.2381
   31MOL0     C 3997  -0.956   5.984   6.648 -0.0887 -1.3711 -0.1404
   31MOL0     C 3998  -1.068   5.965   6.755 -1.2943  0.6357 -0.3767
   31MOL0     C 3999  -1.195   5.917   6.682  0.2219  0.1135 -0.3317
   31MOL0     C 4000  -1.325   5.925   6.769 -0.5006  0.2073  0.8327
   31MOL0     C 4001  -1.451   5.906   6.684  0.5766 -0.1987 -0.8682
   31MOL0     C 4002  -1.578   5.928   6.776  0.7809  0.0399 -0.1891
   31MOL0     C 4003  -1.708   5.883   6.696  0.7191 -0.5164 -0.3886
   31MOL0    Cl 4004  -1.711   5.960   6.531 -0.0341 -0.5117 -0.3279
   31MOL0     C 4005  -0.680   5.712   6.842 -1.0053  0.4189  0.3105
   31MOL0     C 4006  -0.565   5.644   6.870  0.1945 -0.1523  0.4011
   31MOL0     O 4007  -0.234   5.798   7.033  0.5282  0.0004 -0.1153
   31MOL0     C 4008  -0.059   5.546   6.862 -0.5868 -0.6285 -0.3058
   31MOL0     C 4009   0.072   5.488   6.858 -0.0383 -0.1976 -0.5297
   31MOL0     N 4010   0.570   5.228   7.278  0.9654 -0.3951 -0.8172
   31MOL0     N 4011   0.617   5.187   7.386  0.2096 -0.4153 -0.6986
   31MOL0     C 4012   1.705   5.489   7.072 -0.6366 -0.0153 -0.2135
   31MOL0     C 4013   1.839   5.535   7.094  0.3604  0.0584  0.5074
   31MOL0     C 4014   2.212   5.625   7.358 -0.1408 -0.3588  0.3016
   31MOL0     C 4015   2.286   5.655   7.241 -0.5865 -0.4693 -0.5754
   31MOL0     C 4016   2.414   5.697   7.255 -0.4430  0.5048  0.6799
   31MOL0     C 4017   2.476   5.701   7.383 -0.7191  0.9371 -0.7806
   31MOL0     O 4018   2.607   5.738   7.391  0.3215 -0.3139  0.1685
   31MOL0     C 4019   2.689   5.734   7.280  1.1398  0.3448 -0.0396
   31MOL0     C 4020   2.840   5.745   7.325 -0.1287 -0.7843 -0.1998
   31MOL0     C 4021   2.938   5.746   7.205  0.7880  0.8963 -0.9926
   31MOL0     C 4022   3.088   5.781   7.233 -0.4365  0.0744 -0.4999
   31MOL0     C 4023   3.109   5.926   7.280  0.4032 -0.2705 -0.0897
   31MOL0     C 4024   3.134   6.038   7.327  0.6387  0.3808  0.3332
   31MOL0     C 4025   2.407   5.659   7.496 -0.2079  0.7192  0.0430
   31MOL0     C 4026   2.278   5.619   7.484  0.0983  0.1319 -1.2589
   31MOL0     H 4027   1.800   5.645   7.411  0.9648  1.2134 -0.5050
   31MOL0     H 4028   1.578   5.573   7.377 -0.2089  0.5869  1.4757
   31MOL0     H 4029   1.296   5.392   7.139 -1.2821  0.4459  1.7972
   31MOL0     H 4030   1.338   5.508   7.258  0.1920  1.5968 -1.5243
   31MOL0     H 4031   1.450   5.358   7.397  0.8580 -1.9932  0.3655
   31MOL0     H 4032   1.476   5.241   7.268 -1.3656 -0.6252 -0.6316
   31MOL0     H 4033   1.303   5.178   7.446 -0.4378 -0.5186 -0.2490
   31MOL0     H 4034   1.239   5.178   7.284  0.9729  0.7022 -1.4849
   31MOL0     H 4035   1.219   5.424   7.470  1.6471 -1.3780 -0.2269
   31MOL0     H 4036   1.120   5.398   7.330  0.6579 -0.2270  0.3022
   31MOL0     H 4037   1.014   5.334   7.552  1.7435  2.4727 -0.2377
   31MOL0     H 4038   1.139   5.209   7.570  3.8420  2.4089 -0.3682
   31MOL0     H 4039   1.055   5.091   7.375  0.2899  1.1947  1.8026
   31MOL0     H 4040   0.932   5.213   7.341  0.1946  1.2434  1.3659
   31MOL0     H 4041   0.957   5.051   7.591 -0.8746 -0.8758  0.0481
   31MOL0     H 4042   0.846   5.190   7.558  0.1723 -1.6273  1.6577
   31MOL0     H 4043   0.723   4.984   7.526  2.2647 -2.0097  0.4315
   31MOL0     H 4044   0.846   4.921   7.411  0.4040 -0.0198  0.5602
   31MOL0     H 4045   0.773   5.014   7.160  0.0377 -2.7380  1.3956
   31MOL0     H 4046   0.527   5.050   7.008  2.0099 -0.4381 -3.7506
   31MOL0     H 4047   0.644   5.169   6.957  0.1171  2.4582  0.5478
   31MOL0     H 4048   0.373   5.237   7.071 -0.0221 -0.9103  0.0994
   31MOL0     H 4049   0.407   5.226   6.895  0.1362  0.1338 -0.3599
   31MOL0     H 4050   0.583   5.411   7.062 -1.1586  1.1820  2.5304
   31MOL0     H 4051   0.537   5.414   6.892  0.7755 -1.0884 -0.1063
   31MOL0     H 4052   0.414   5.601   7.021 -0.1051  0.5266 -0.6863
   31MOL0     H 4053   0.353   5.469   7.130  1.2864  0.5096  0.2424
   31MOL0     H 4054   0.194   5.624   7.145 -2.5436 -2.7155  1.8994
   31MOL0     H 4055  -0.040   5.705   7.163 -3.7240 -0.0852 -0.6087
   31MOL0     H 4056  -0.348   5.906   6.841  0.2103  0.2672 -5.5027
   31MOL0     H 4057  -0.549   6.019   6.779  5.7366 -0.1615  1.0684
   31MOL0     H 4058  -0.748   6.044   6.649 -1.5942 -2.6596 -3.1493
   31MOL0     H 4059  -0.847   6.095   6.793  1.7623  0.8459 -0.0781
   31MOL0     H 4060  -0.947   5.896   6.584  0.5512  0.9628 -3.4961
   31MOL0     H 4061  -0.977   6.074   6.589  1.4328  1.7124  3.5468
   31MOL0     H 4062  -1.079   6.056   6.814 -1.9333 -0.4970  1.3312
   31MOL0     H 4063  -1.042   5.896   6.836  1.0046 -0.2786 -1.7722
   31MOL0     H 4064  -1.195   5.986   6.597  4.0475  0.5087 -0.1589
   31MOL0     H 4065  -1.182   5.818   6.638 -0.9166 -1.5330  2.7409
   31MOL0     H 4066  -1.328   6.027   6.809  1.2365  0.7123 -0.2195
   31MOL0     H 4067  -1.326   5.860   6.857 -1.6966  0.2303  0.8494
   31MOL0     H 4068  -1.467   5.801   6.659 -0.8766 -0.5822  1.3695
   31MOL0     H 4069  -1.459   5.974   6.598 -0.1202  0.4802 -0.2848
   31MOL0     H 4070  -1.581   5.862   6.863 -2.3230  2.2109  1.5840
   31MOL0     H 4071  -1.580   6.030   6.816  0.4117 -0.9877  2.6070
   31MOL0     H 4072  -1.797   5.922   6.747  1.0506 -1.1330  0.6920
   31MOL0     H 4073  -1.711   5.775   6.683 -1.4684 -0.4405 -0.8347
   31MOL0     H 4074  -0.772   5.655   6.836 -0.1871 -0.9158 -0.1043
   31MOL0     H 4075  -0.564   5.539   6.897  0.6988 -1.1019 -2.8076
   31MOL0     H 4076  -0.122   5.532   6.775 -0.8052  0.1199 -0.2769
   31MOL0     H 4077   0.108   5.428   6.774  1.8428  1.0291 -0.6682
   31MOL0     H 4078   1.676   5.433   6.983  4.1680 -2.8598 -0.3315
   31MOL0     H 4079   1.918   5.526   7.020  0.7283  0.0493  0.8996
   31MOL0     H 4080   2.234   5.670   7.148  0.3436  0.6943 -0.9294
   31MOL0     H 4081   2.464   5.728   7.164 -1.9190  1.5603  0.1938
   31MOL0     H 4082   2.664   5.810   7.206 -0.2164  0.0919  0.1358
   31MOL0     H 4083   2.674   5.639   7.227 -0.9027  1.3958 -1.4754
   31MOL0     H 4084   2.846   5.832   7.391 -1.8044 -1.1940  0.5599
   31MOL0     H 4085   2.863   5.655   7.382 -1.6242 -0.2473  1.3341
   31MOL0     H 4086   2.890   5.813   7.132 -3.8770 -0.4630  0.4510
   31MOL0     H 4087   2.922   5.652   7.150 -0.9815 -0.4102  1.5383
   31MOL0     H 4088   3.135   5.721   7.312  1.8777  1.5383 -0.6529
   31MOL0     H 4089   3.144   5.763   7.141  1.8123  1.0067  0.5939
   31MOL0     H 4090   3.156   6.131   7.377 -0.1968  0.3892  0.6983
   31MOL0     H 4091   2.452   5.656   7.595 -1.4473  0.1553  0.6162
   31MOL0     H 4092   2.225   5.607   7.578  0.5161 -0.3315 -1.0772
   32MOL0     O 4093   1.636   5.791  10.615  0.1041 -0.2097 -0.5119
   32MOL0     C 4094   1.709   5.835  10.705 -0.2239  0.2639  0.2127
   32MOL0     O 4095   1.686   5.832  10.840  0.4297  0.4246 -0.1661
   32MOL0     C 4096   1.597   5.742  10.885  0.0415  0.5639  0.1573
   32MOL0     C 4097   1.502   5.781  10.977 -1.0173  0.3350 -0.0868
   32MOL0     C 4098   1.420   5.683  11.034  0.1330 -0.0134  0.2479
   32MOL0     C 4099   1.422   5.556  10.986 -0.4288  0.2621  0.1768
   32MOL0     O 4100   1.341   5.463  11.045  0.1621  0.9464  0.0239
   32MOL0     C 4101   1.249   5.510  11.145 -0.0818 -0.4206 -0.1591
   32MOL0     C 4102   1.173   5.375  11.184  0.6980 -0.2311  0.5173
   32MOL0     C 4103   1.079   5.410  11.309  0.3967 -0.0164  0.0948
   32MOL0     C 4104   0.959   5.489  11.267 -0.4795 -0.0990 -0.1357
   32MOL0     C 4105   0.851   5.496  11.372 -0.2566 -0.6660 -0.4724
   32MOL0     C 4106   0.733   5.586  11.342 -0.0884  0.3508 -0.5078
   32MOL0     C 4107   0.623   5.580  11.448  0.0162 -0.9671  0.4231
   32MOL0     C 4108   0.513   5.687  11.423 -0.9710  0.8283 -0.4936
   32MOL0     N 4109   0.399   5.639  11.342 -0.1904 -0.1627  0.2021
   32MOL0     C 4110   0.389   5.531  11.257 -0.4229  0.0248  0.4102
   32MOL0     C 4111   0.262   5.541  11.197 -0.5358  0.2225  0.4461
   32MOL0     C 4112   0.210   5.432  11.099 -0.1984 -0.3958 -0.0772
   32MOL0     C 4113   0.269   5.455  10.952  0.6751 -0.0043 -0.8202
   32MOL0     C 4114   0.256   5.600  10.896  0.5012  0.5785 -0.3212
   32MOL0     C 4115   0.392   5.645  10.832  0.3255  0.6866 -0.6522
   32MOL0     O 4116   0.496   5.669  10.930 -0.0524  0.4977  0.3488
   32MOL0     C 4117   0.613   5.729  10.886  0.3217  0.2410  0.3206
   32MOL0     C 4118   0.659   5.726  10.754  0.7792 -0.0718  0.6908
   32MOL0     C 4119   0.787   5.775  10.724  0.3820  0.1542 -0.1161
   32MOL0     C 4120   0.880   5.814  10.829  0.6740 -0.1117  0.3927
   32MOL0     C 4121   1.018   5.849  10.807  0.2267  0.0369  1.0267
   32MOL0     O 4122   1.065   5.860  10.677  0.1952 -0.1207  0.1128
   32MOL0     C 4123   1.178   5.928  10.636 -0.7993 -0.3516  0.7680
   32MOL0     C 4124   1.300   5.948  10.700  0.8974 -0.0382  0.2212
   32MOL0     C 4125   1.403   6.012  10.640  0.3642 -0.4144  0.1123
   32MOL0     C 4126   1.389   6.077  10.516  0.2672  0.2281 -0.0128
   32MOL0     O 4127   1.483   6.162  10.461  0.3493 -0.3766 -0.1000
   32MOL0     C 4128   1.617   6.139  10.509 -0.1979 -0.4887  0.8989
   32MOL0     C 4129   1.710   6.239  10.433  0.2393 -0.1859 -0.4214
   32MOL0     C 4130   1.860   6.207  10.465 -0.2705  0.4839  0.0253
   32MOL0     C 4131   1.962   6.314  10.425  0.3907 -0.0861 -0.5154
   32MOL0     C 4132   1.989   6.314  10.273 -0.3708 -0.1828 -0.1528
   32MOL0     C 4133   2.068   6.438  10.235  0.5515  0.2410 -0.5353
   32MOL0     C 4134   2.006   6.570  10.266 -0.2274  0.7963 -0.0471
   32MOL0     C 4135   2.064   6.644  10.386 -0.1291 -1.0158 -0.6238
   32MOL0    Cl 4136   1.970   6.794  10.420 -0.1356 -0.0096 -0.0293
   32MOL0     C 4137   1.267   6.057  10.452  0.6469 -0.3519  0.3781
   32MOL0     C 4138   1.164   5.981  10.499 -0.7405 -0.3486  0.0164
   32MOL0     O 4139   1.083   5.875  10.911  0.6413 -0.6067  1.2386
   32MOL0     C 4140   0.833   5.808  10.959 -0.1841 -0.4540 -0.1202
   32MOL0     C 4141   0.702   5.763  10.982  0.6464 -0.3095  0.8778
   32MOL0     N 4142   0.200   5.657  11.240 -0.0023 -1.0132 -0.4992
   32MOL0     N 4143   0.283   5.710  11.328  0.0616 -0.0131 -0.0057
   32MOL0     C 4144   1.519   5.517  10.896 -0.4849  0.8713 -0.1699
   32MOL0     C 4145   1.607   5.614  10.841  0.3307 -0.3970  0.2358
   32MOL0     C 4146   1.845   5.893  10.671  0.2916 -0.0838  0.6605
   32MOL0     C 4147   1.907   5.879  10.546 -0.1345  0.1824  0.1893
   32MOL0     C 4148   2.027   5.936  10.518 -0.3768 -0.2145  0.4329
   32MOL0     C 4149   2.098   6.015  10.607  0.3468 -0.6128  0.2240
   32MOL0     O 4150   2.201   6.091  10.569 -0.5324  0.3957  0.1237
   32MOL0     C 4151   2.273   6.060  10.447 -0.1565  0.1749 -0.3079
   32MOL0     C 4152   2.398   6.143  10.438 -0.1700  0.8806 -0.2283
   32MOL0     C 4153   2.368   6.284  10.417 -0.1243 -0.0476 -0.8373
   32MOL0     C 4154   2.477   6.378  10.461 -0.1575 -0.6280 -0.7628
   32MOL0     C 4155   2.454   6.510  10.405  0.4920 -0.1448  1.0038
   32MOL0     C 4156   2.419   6.619  10.362  0.3190 -0.2446  0.2343
   32MOL0     C 4157   2.034   6.036  10.730  0.4903  0.6292 -0.0829
   32MOL0     C 4158   1.908   5.984  10.760  0.2866  0.2504 -0.1023
   32MOL0     H 4159   1.510   5.885  11.005 -1.2486  1.4019 -3.5289
   32MOL0     H 4160   1.361   5.716  11.119 -0.5079 -1.0199  0.2070
   32MOL0     H 4161   1.178   5.577  11.096  0.0509  0.3456  0.6776
   32MOL0     H 4162   1.295   5.557  11.233 -1.3761  1.5068 -0.4452
   32MOL0     H 4163   1.235   5.291  11.217 -3.4035 -2.5033  3.4026
   32MOL0     H 4164   1.115   5.345  11.097 -0.1996 -0.8556  1.3013
   32MOL0     H 4165   1.133   5.459  11.391  0.5437  0.4014 -0.2468
   32MOL0     H 4166   1.052   5.314  11.353  1.4651  1.6628  5.0586
   32MOL0     H 4167   1.000   5.586  11.240  3.1576 -2.3184 -3.9755
   32MOL0     H 4168   0.912   5.442  11.180 -1.5876 -0.2315  0.5192
   32MOL0     H 4169   0.896   5.531  11.465 -1.6774 -2.2389  0.8496
   32MOL0     H 4170   0.818   5.395  11.396 -1.5340 -0.8949 -2.9043
   32MOL0     H 4171   0.683   5.546  11.253  0.3466 -1.2391 -0.0545
   32MOL0     H 4172   0.760   5.692  11.333 -1.0397  0.8347  1.6703
   32MOL0     H 4173   0.568   5.485  11.447 -3.8285  1.0561 -0.2133
   32MOL0     H 4174   0.670   5.597  11.545 -1.1476 -0.9476  0.9942
   32MOL0     H 4175   0.555   5.772  11.369  2.8160  0.2128  1.1387
   32MOL0     H 4176   0.472   5.714  11.521  2.6656 -0.9888  1.7269
   32MOL0     H 4177   0.466   5.455  11.260 -0.3064  0.1746  1.7125
   32MOL0     H 4178   0.101   5.420  11.101  0.0865 -4.5538 -0.7177
   32MOL0     H 4179   0.239   5.332  11.133 -1.0983 -0.8740 -0.6693
   32MOL0     H 4180   0.224   5.389  10.877  1.6022 -1.6915  0.0550
   32MOL0     H 4181   0.376   5.434  10.961  0.9694  1.5979 -0.3616
   32MOL0     H 4182   0.182   5.596  10.816 -1.7187 -3.2608  1.6030
   32MOL0     H 4183   0.223   5.671  10.972  0.0401  0.2383 -0.1941
   32MOL0     H 4184   0.395   5.745  10.788  1.2496  0.3190 -1.4326
   32MOL0     H 4185   0.422   5.562  10.768 -2.7492 -0.7811 -0.4185
   32MOL0     H 4186   0.596   5.700  10.670 -0.1251  1.9281  0.6943
   32MOL0     H 4187   0.832   5.779  10.625  0.4836  0.1601 -0.0698
   32MOL0     H 4188   1.316   5.919  10.803  2.6215 -3.0698 -0.7637
   32MOL0     H 4189   1.495   6.026  10.695 -0.7193  0.1204  1.8646
   32MOL0     H 4190   1.646   6.035  10.490  3.9897  0.8553 -1.2611
   32MOL0     H 4191   1.629   6.158  10.616 -1.9589  1.5290  0.7989
   32MOL0     H 4192   1.682   6.339  10.470  0.4496 -0.5476  0.7576
   32MOL0     H 4193   1.692   6.233  10.326 -0.8834  0.0101 -0.2574
   32MOL0     H 4194   1.892   6.123  10.403  3.6150  1.3654  0.6091
   32MOL0     H 4195   1.859   6.181  10.571 -3.0676  0.9059  0.1846
   32MOL0     H 4196   1.925   6.408  10.467 -0.5117 -1.0179  0.8513
   32MOL0     H 4197   2.057   6.287  10.472 -0.1281 -2.2899 -0.5938
   32MOL0     H 4198   1.892   6.315  10.222 -1.2913 -1.9593  1.4217
   32MOL0     H 4199   2.052   6.227  10.251  1.8716  0.3213  3.5581
   32MOL0     H 4200   2.082   6.442  10.126  4.2992  2.0260 -0.1689
   32MOL0     H 4201   2.162   6.442  10.292  0.4901  1.5571 -0.4887
   32MOL0     H 4202   2.016   6.635  10.179 -0.5685  0.6948 -0.1635
   32MOL0     H 4203   1.901   6.548  10.289  0.0605  0.3109  0.8495
   32MOL0     H 4204   2.169   6.663  10.362  0.3375 -1.4406  0.9832
   32MOL0     H 4205   2.057   6.584  10.477 -0.3483  0.0407  0.0694
   32MOL0     H 4206   1.244   6.114  10.363 -1.9624  3.3719  3.1526
   32MOL0     H 4207   1.072   5.979  10.441 -1.4315 -1.3563  1.0838
   32MOL0     H 4208   0.889   5.819  11.051 -0.2312 -1.3518  0.0298
   32MOL0     H 4209   0.675   5.756  11.087  1.3639 -1.3726  1.0012
   32MOL0     H 4210   1.542   5.417  10.859  1.4949  2.6598 -4.5180
   32MOL0     H 4211   1.686   5.587  10.772 -0.9512  0.3173 -1.6199
   32MOL0     H 4212   1.858   5.825  10.466 -2.2859 -0.8474  2.1016
   32MOL0     H 4213   2.062   5.915  10.418  1.5798 -0.8480  1.2109
   32MOL0     H 4214   2.208   6.077  10.361 -1.3669 -0.2219  0.4993
   32MOL0     H 4215   2.308   5.957  10.444  2.1102  0.8199  1.0694
   32MOL0     H 4216   2.463   6.128  10.525  1.2524  0.9312 -1.2551
   32MOL0     H 4217   2.455   6.099  10.355 -2.2916 -1.9455 -0.3725
   32MOL0     H 4218   2.271   6.316  10.457  0.6010 -0.5370  1.4823
   32MOL0     H 4219   2.350   6.291  10.310  0.5811  0.5676 -0.9290
   32MOL0     H 4220   2.479   6.387  10.570 -0.3601  2.3990 -0.9311
   32MOL0     H 4221   2.572   6.333  10.429  0.1097  0.1534 -1.0936
   32MOL0     H 4222   2.390   6.715  10.324 -1.5943  0.2829  2.7666
   32MOL0     H 4223   2.075   6.100  10.807 -2.8764  0.5880  1.9302
   32MOL0     H 4224   1.857   6.018  10.850  1.0174 -0.2172  0.5066
   33MOL0     O 4225   6.491   2.380   3.169  0.6731  0.0774 -0.5551
   33MOL0     C 4226   6.572   2.375   3.254 -0.7818 -0.6486 -1.5514
   33MOL0     O 4227   6.549   2.364   3.389 -0.9977  0.1946 -0.1131
   33MOL0     C 4228   6.421   2.403   3.439  0.3142  0.4542 -0.6098
   33MOL0     C 4229   6.339   2.506   3.388  1.0319 -0.5640  0.1824
   33MOL0     C 4230   6.231   2.549   3.457  1.0945 -0.2568 -0.0793
   33MOL0     C 4231   6.183   2.489   3.576 -0.0750 -0.0576  0.0753
   33MOL0     O 4232   6.070   2.514   3.648  0.0042  0.2578  0.4730
   33MOL0     C 4233   5.962   2.577   3.578  0.3690 -0.1667  0.0325
   33MOL0     C 4234   5.846   2.570   3.683 -0.5506  0.3549 -0.1086
   33MOL0     C 4235   5.718   2.605   3.614 -0.2604  0.1036 -0.1235
   33MOL0     C 4236   5.601   2.608   3.722  0.5600 -0.4549  0.9771
   33MOL0     C 4237   5.558   2.472   3.757  0.0870  0.7120 -0.2755
   33MOL0     C 4238   5.410   2.463   3.802  0.5936  0.6202 -0.0483
   33MOL0     C 4239   5.389   2.509   3.949 -0.3865 -0.1166 -0.1868
   33MOL0     C 4240   5.243   2.499   3.998  0.4683 -0.5861 -0.8881
   33MOL0     N 4241   5.180   2.368   4.006 -0.5333 -0.2077 -0.3297
   33MOL0     C 4242   5.126   2.302   3.908 -0.0112 -0.4836  0.7076
   33MOL0     C 4243   5.139   2.177   3.940 -0.3042  0.1417  0.2338
   33MOL0     C 4244   5.132   2.060   3.850 -0.6546  0.0498  0.5011
   33MOL0     C 4245   5.134   2.102   3.694 -0.3568 -0.0925 -0.0491
   33MOL0     C 4246   5.134   1.971   3.601 -0.0932  0.1851  0.0287
   33MOL0     C 4247   5.021   1.869   3.623 -0.1362  0.4631 -0.5436
   33MOL0     O 4248   4.899   1.934   3.575  0.5832  1.3209 -1.1026
   33MOL0     C 4249   4.784   1.873   3.609 -0.3568 -0.0002 -0.2816
   33MOL0     C 4250   4.697   1.961   3.673 -1.0182  0.1698 -0.0798
   33MOL0     C 4251   4.577   1.911   3.713 -0.1194  0.4477  0.0620
   33MOL0     C 4252   4.540   1.767   3.700 -1.2898 -0.7796 -0.8921
   33MOL0     C 4253   4.410   1.715   3.738  1.0172  0.5521 -0.3572
   33MOL0     O 4254   4.373   1.605   3.674  0.1085 -1.0792  0.3074
   33MOL0     C 4255   4.254   1.540   3.715  0.7331  0.1520  0.4632
   33MOL0     C 4256   4.263   1.417   3.781 -0.2542 -0.7831  1.0331
   33MOL0     C 4257   4.148   1.347   3.811  0.2005 -0.3086 -0.2602
   33MOL0     C 4258   4.025   1.412   3.794 -0.4754 -0.6357 -0.3632
   33MOL0     O 4259   3.916   1.349   3.855  0.2277 -0.0591 -0.2748
   33MOL0     C 4260   3.783   1.405   3.833  0.5680 -0.1191 -0.0285
   33MOL0     C 4261   3.686   1.332   3.923 -0.0069  0.6453  0.9617
   33MOL0     C 4262   3.693   1.353   4.071  0.4385 -0.0244 -1.6798
   33MOL0     C 4263   3.563   1.303   4.140  0.6306 -0.6892  0.7109
   33MOL0     C 4264   3.576   1.301   4.294 -0.3628 -0.2576  0.4413
   33MOL0     C 4265   3.454   1.344   4.372 -0.3355 -0.3544  0.9602
   33MOL0     C 4266   3.480   1.319   4.526  0.1623 -0.1933  0.6891
   33MOL0     C 4267   3.348   1.326   4.625  0.2047 -0.1428  0.3263
   33MOL0    Cl 4268   3.401   1.305   4.795  0.2950 -0.1102  0.0633
   33MOL0     C 4269   4.014   1.537   3.730  1.2543 -0.3479  0.4409
   33MOL0     C 4270   4.129   1.596   3.682 -0.0161  0.8969  0.3954
   33MOL0     O 4271   4.343   1.781   3.821  0.0238 -0.4014  0.8049
   33MOL0     C 4272   4.644   1.688   3.649  0.5976  0.8681 -0.1814
   33MOL0     C 4273   4.761   1.737   3.596  0.0010  0.3969 -0.4814
   33MOL0     N 4274   5.179   2.160   4.067  0.2325  0.4921  0.6168
   33MOL0     N 4275   5.186   2.282   4.115 -0.5983 -0.5234 -0.5285
   33MOL0     C 4276   6.256   2.374   3.615  0.2152 -0.1855  0.1606
   33MOL0     C 4277   6.377   2.340   3.552  0.2996  0.5111 -0.8760
   33MOL0     C 4278   6.716   2.379   3.210  0.2661 -0.3606  0.0975
   33MOL0     C 4279   6.744   2.376   3.077 -0.3833  0.1103 -0.4156
   33MOL0     C 4280   6.873   2.359   3.032 -0.2685 -0.2821  0.0071
   33MOL0     C 4281   6.977   2.344   3.124  0.1081 -0.8334  0.9554
   33MOL0     O 4282   7.106   2.330   3.084  0.2567  0.1891  0.4026
   33MOL0     C 4283   7.153   2.358   2.948 -0.1343  0.5193 -0.1493
   33MOL0     C 4284   7.300   2.320   2.926 -0.2816  0.1600  0.1843
   33MOL0     C 4285   7.322   2.165   2.941 -0.0397 -0.7038 -0.0773
   33MOL0     C 4286   7.470   2.129   2.949  0.1910 -0.6783  0.3892
   33MOL0     C 4287   7.523   2.131   2.814  0.2953  0.7806 -0.0412
   33MOL0     C 4288   7.575   2.124   2.705 -0.6945 -0.3225 -0.6844
   33MOL0     C 4289   6.949   2.359   3.258 -0.1609 -0.2971  0.3289
   33MOL0     C 4290   6.825   2.374   3.306  0.1764 -0.1621  0.1124
   33MOL0     H 4291   6.352   2.547   3.288 -2.8272  0.7772  0.0660
   33MOL0     H 4292   6.176   2.632   3.415 -0.7256 -1.7498 -0.7919
   33MOL0     H 4293   5.951   2.527   3.481 -0.9025  1.2444 -0.5940
   33MOL0     H 4294   5.979   2.684   3.565 -0.4622 -0.1191 -0.7531
   33MOL0     H 4295   5.856   2.639   3.767 -2.5356  0.8228 -0.2177
   33MOL0     H 4296   5.848   2.466   3.716  2.7050  0.6438  0.9947
   33MOL0     H 4297   5.690   2.532   3.538 -1.7523  0.4267  0.0835
   33MOL0     H 4298   5.730   2.696   3.556  0.8268  1.7979  2.5603
   33MOL0     H 4299   5.638   2.667   3.806 -0.8227  3.4097 -0.8708
   33MOL0     H 4300   5.519   2.660   3.672  0.6036 -2.2701 -1.1530
   33MOL0     H 4301   5.626   2.433   3.833  1.1823  1.2727 -0.9476
   33MOL0     H 4302   5.572   2.410   3.667 -1.9942 -1.1643  0.6080
   33MOL0     H 4303   5.370   2.361   3.794  0.8655  0.4612  0.5460
   33MOL0     H 4304   5.338   2.527   3.751 -1.6990 -2.1605 -0.5796
   33MOL0     H 4305   5.449   2.449   4.017 -0.7345  1.2023  1.3420
   33MOL0     H 4306   5.413   2.612   3.975 -0.0942 -0.7477  2.2049
   33MOL0     H 4307   5.178   2.564   3.939 -0.7623 -0.2232  0.8029
   33MOL0     H 4308   5.227   2.544   4.097 -0.0201  1.7018 -1.9330
   33MOL0     H 4309   5.115   2.338   3.807  0.4403 -1.3559  0.3352
   33MOL0     H 4310   5.036   2.010   3.861  0.1963 -1.6796  0.3329
   33MOL0     H 4311   5.216   1.992   3.868 -0.3427  0.1502 -0.4752
   33MOL0     H 4312   5.228   2.155   3.674  0.6949 -0.3536  3.5137
   33MOL0     H 4313   5.040   2.148   3.665 -0.7606 -2.1372 -2.3467
   33MOL0     H 4314   5.123   2.008   3.499 -0.3483  1.8472  0.6339
   33MOL0     H 4315   5.232   1.925   3.616  0.6810  1.0699 -2.0131
   33MOL0     H 4316   5.011   1.847   3.730  0.6786 -1.4188 -0.8103
   33MOL0     H 4317   5.055   1.786   3.561 -0.5209  1.7426 -2.5386
   33MOL0     H 4318   4.740   2.058   3.698  2.1870 -1.5169  1.5779
   33MOL0     H 4319   4.511   1.984   3.759 -0.6822  0.0383 -0.0797
   33MOL0     H 4320   4.360   1.378   3.811  1.5512  3.1824  0.9673
   33MOL0     H 4321   4.153   1.251   3.863  0.8612  0.6449  1.5241
   33MOL0     H 4322   3.755   1.396   3.728 -0.5527 -1.3261  0.3469
   33MOL0     H 4323   3.766   1.508   3.865 -1.6434  0.5748 -3.0094
   33MOL0     H 4324   3.711   1.226   3.912  3.8541  1.4745  0.0418
   33MOL0     H 4325   3.582   1.340   3.890  0.7580  2.7640 -1.2390
   33MOL0     H 4326   3.695   1.460   4.095  0.7509 -0.5296  0.8611
   33MOL0     H 4327   3.788   1.316   4.111 -0.0834  1.4021  1.1846
   33MOL0     H 4328   3.480   1.369   4.116  2.5456  1.5438 -0.1975
   33MOL0     H 4329   3.527   1.204   4.109 -3.1714  1.0934 -1.1399
   33MOL0     H 4330   3.648   1.382   4.308 -2.0463  1.0327  2.2461
   33MOL0     H 4331   3.617   1.204   4.322  0.9132 -0.3124 -1.4110
   33MOL0     H 4332   3.367   1.287   4.337 -1.9898  3.0187 -0.9269
   33MOL0     H 4333   3.434   1.447   4.342 -0.0348 -0.3887  0.6356
   33MOL0     H 4334   3.526   1.222   4.546  0.6395  0.1513  1.3016
   33MOL0     H 4335   3.549   1.397   4.557 -0.4932  0.2515  1.0512
   33MOL0     H 4336   3.291   1.234   4.610  0.7855 -0.5374  0.4766
   33MOL0     H 4337   3.295   1.412   4.584 -0.1751 -0.4105  0.2499
   33MOL0     H 4338   3.920   1.568   3.687  0.6106  0.5565  2.3869
   33MOL0     H 4339   4.126   1.684   3.618  0.5524 -0.7845 -2.1015
   33MOL0     H 4340   4.632   1.581   3.644  1.0772  0.6938  1.7670
   33MOL0     H 4341   4.824   1.663   3.548  0.4241 -0.5335  1.4305
   33MOL0     H 4342   6.215   2.315   3.697 -0.2786  1.8797  1.4765
   33MOL0     H 4343   6.450   2.273   3.596 -0.3710  0.2695 -0.1099
   33MOL0     H 4344   6.671   2.375   2.997  1.5539 -0.1444 -2.2827
   33MOL0     H 4345   6.890   2.369   2.925 -0.2016 -2.5265 -0.2256
   33MOL0     H 4346   7.133   2.462   2.922  2.6852  0.9513 -0.9347
   33MOL0     H 4347   7.090   2.306   2.875 -1.0525  0.5271  0.6245
   33MOL0     H 4348   7.332   2.340   2.824  1.6906 -4.3289 -0.3160
   33MOL0     H 4349   7.364   2.384   2.988 -0.7049  1.5203 -0.7455
   33MOL0     H 4350   7.276   2.115   2.855  2.2427  0.8638 -2.3956
   33MOL0     H 4351   7.271   2.130   3.031 -3.9110  2.3318 -0.7946
   33MOL0     H 4352   7.522   2.187   3.027  0.5044 -1.0698  0.4758
   33MOL0     H 4353   7.478   2.023   2.974  0.6141 -1.5109 -2.9100
   33MOL0     H 4354   7.608   2.104   2.605  2.8311  3.5617 -0.5737
   33MOL0     H 4355   7.019   2.344   3.339 -0.4376 -0.6357  0.5091
   33MOL0     H 4356   6.801   2.356   3.411 -0.4825 -0.0336 -0.0189
   34MOL0     O 4357   9.799   4.019   9.771  0.2120 -0.1563  0.2832
   34MOL0     C 4358   9.854   3.929   9.701  0.0150 -0.5985 -0.7773
   34MOL0     O 4359   9.795   3.822   9.654  0.2805 -0.1117  0.0377
   34MOL0     C 4360   9.665   3.795   9.682 -0.2560 -0.1377  0.1629
   34MOL0     C 4361   9.553   3.866   9.657 -0.4296  0.3577  0.1572
   34MOL0     C 4362   9.424   3.831   9.703 -0.0033  0.1259 -0.2595
   34MOL0     C 4363   9.409   3.715   9.777  0.7127  0.0149 -0.0039
   34MOL0     O 4364   9.282   3.666   9.802  0.1144 -0.0670  0.3752
   34MOL0     C 4365   9.267   3.590   9.927  1.5139 -0.1686  0.0083
   34MOL0     C 4366   9.126   3.569   9.985 -0.5289 -0.5664 -0.3411
   34MOL0     C 4367   9.065   3.704  10.018  1.0264 -0.6660  0.5082
   34MOL0     C 4368   8.929   3.675  10.090 -0.1664 -0.4523  0.0204
   34MOL0     C 4369   8.844   3.803  10.083  0.2461 -0.6295  0.5453
   34MOL0     C 4370   8.701   3.782  10.145 -0.1961  1.1309  0.0327
   34MOL0     C 4371   8.605   3.906  10.142  0.2811 -0.0443 -0.1322
   34MOL0     C 4372   8.481   3.874  10.228 -0.0830 -0.6664  0.6092
   34MOL0     N 4373   8.393   3.994  10.230 -0.1280  0.3935  0.0767
   34MOL0     C 4374   8.430   4.130  10.239  0.9086 -0.0577 -0.3672
   34MOL0     C 4375   8.321   4.203  10.197 -0.1250 -0.2087  0.0914
   34MOL0     C 4376   8.321   4.349  10.172  0.0988 -0.1868  0.3764
   34MOL0     C 4377   8.419   4.377  10.053 -1.0585  0.3216 -0.0153
   34MOL0     C 4378   8.435   4.518  10.006  0.1642 -0.3491  0.6015
   34MOL0     C 4379   8.321   4.610   9.955 -0.2001  0.1934 -0.0693
   34MOL0     O 4380   8.228   4.624  10.055  0.3823 -0.1271  0.1266
   34MOL0     C 4381   8.123   4.709  10.036  0.8665  0.2676 -0.2174
   34MOL0     C 4382   8.074   4.736   9.913  0.4369 -0.4579  0.2991
   34MOL0     C 4383   7.962   4.807   9.891  0.4990  0.3698 -1.0051
   34MOL0     C 4384   7.896   4.871  10.002 -0.1863 -0.6293  0.0962
   34MOL0     C 4385   7.783   4.960   9.982  0.2789 -0.1106  0.1197
   34MOL0     O 4386   7.758   5.022   9.865 -0.2416 -0.6834 -1.0075
   34MOL0     C 4387   7.660   5.119   9.865 -0.7433 -1.1540 -0.2625
   34MOL0     C 4388   7.533   5.081   9.831 -0.1683 -0.4009 -0.2556
   34MOL0     C 4389   7.427   5.159   9.844  0.9246  0.2447  0.5627
   34MOL0     C 4390   7.445   5.290   9.880  0.7218 -0.9728  0.3791
   34MOL0     O 4391   7.342   5.370   9.900 -0.2385 -0.0398 -0.2248
   34MOL0     C 4392   7.275   5.415   9.777  0.4557  0.7341 -0.6008
   34MOL0     C 4393   7.164   5.517   9.825 -0.1570 -0.1828  0.6196
   34MOL0     C 4394   7.052   5.536   9.723 -0.9586 -0.6622 -0.0748
   34MOL0     C 4395   6.939   5.639   9.762 -0.1616 -0.6061 -0.7771
   34MOL0     C 4396   6.834   5.596   9.861  0.5184  0.1802 -0.2866
   34MOL0     C 4397   6.734   5.698   9.909 -0.7177  0.3514  0.2952
   34MOL0     C 4398   6.657   5.751   9.786 -0.4359  1.0915 -0.9218
   34MOL0     C 4399   6.556   5.846   9.827  0.9264  0.7632  0.3261
   34MOL0    Cl 4400   6.432   5.767   9.938  0.2439  0.1434  0.0720
   34MOL0     C 4401   7.576   5.343   9.910  0.4042  0.3035  0.7092
   34MOL0     C 4402   7.684   5.255   9.907  0.1249  0.0920 -0.2864
   34MOL0     O 4403   7.714   4.977  10.080  0.4320 -0.3933  0.4501
   34MOL0     C 4404   7.948   4.842  10.126 -0.0474 -0.6830  0.0678
   34MOL0     C 4405   8.062   4.766  10.149 -0.1019 -0.5758  1.2459
   34MOL0     N 4406   8.223   4.111  10.159  0.2700 -0.5993  0.9482
   34MOL0     N 4407   8.268   3.988  10.178 -0.7282 -0.2233 -0.4247
   34MOL0     C 4408   9.528   3.640   9.796  0.2446  0.0203  0.6550
   34MOL0     C 4409   9.651   3.680   9.750  0.2737  0.1120 -0.3164
   34MOL0     C 4410   9.999   3.944   9.681 -0.3232  0.0398  0.9902
   34MOL0     C 4411  10.076   4.052   9.724 -0.0059  0.9507  0.4305
   34MOL0     C 4412  10.212   4.069   9.695 -1.2327 -0.4463  0.0891
   34MOL0     C 4413  10.284   3.982   9.617 -0.7276 -0.2544 -0.2468
   34MOL0     O 4414  10.408   4.027   9.574 -0.4426  0.4038  0.7931
   34MOL0     C 4415  10.487   3.924   9.511  0.1337  0.5355  0.0795
   34MOL0     C 4416  10.544   3.820   9.612 -0.2973 -0.6713  0.2464
   34MOL0     C 4417  10.625   3.892   9.713 -0.2825 -0.0594  0.2636
   34MOL0     C 4418  10.762   3.940   9.659  0.1628  0.8002  0.6638
   34MOL0     C 4419  10.840   3.827   9.621 -0.6580  0.2679  0.3428
   34MOL0     C 4420  10.888   3.717   9.588 -0.0223  0.0701  1.2100
   34MOL0     C 4421  10.213   3.871   9.578  0.4432 -0.0792 -0.4353
   34MOL0     C 4422  10.079   3.852   9.606  0.1430  0.4391 -0.6448
   34MOL0     H 4423   9.572   3.958   9.604 -0.4528 -0.1804 -0.7946
   34MOL0     H 4424   9.337   3.888   9.675 -0.8696 -1.8772 -1.9423
   34MOL0     H 4425   9.332   3.623  10.008 -1.1147  0.1603  2.1334
   34MOL0     H 4426   9.303   3.492   9.894 -0.1556 -0.7381 -0.2222
   34MOL0     H 4427   9.139   3.502  10.071 -1.3865 -2.8111 -1.8373
   34MOL0     H 4428   9.062   3.517   9.912  0.9781 -0.7371 -1.5872
   34MOL0     H 4429   9.046   3.769   9.932  2.5187 -0.3755  0.3754
   34MOL0     H 4430   9.130   3.758  10.088 -0.9800  1.6070  0.7298
   34MOL0     H 4431   8.879   3.586  10.050 -1.6968  0.8194 -1.0063
   34MOL0     H 4432   8.955   3.638  10.190  1.9875 -0.9318 -0.6714
   34MOL0     H 4433   8.831   3.846   9.983 -1.5036 -0.6165  0.7374
   34MOL0     H 4434   8.895   3.877  10.144 -0.3594  0.8826 -0.7196
   34MOL0     H 4435   8.718   3.729  10.239  0.6179 -1.4327 -1.4644
   34MOL0     H 4436   8.659   3.701  10.085  1.9700  2.1551 -3.1118
   34MOL0     H 4437   8.655   3.996  10.179  0.5024  0.0536 -0.6606
   34MOL0     H 4438   8.569   3.919  10.040 -2.0179  0.5134  0.7065
   34MOL0     H 4439   8.524   3.858  10.327  2.9395  2.3401 -0.0235
   34MOL0     H 4440   8.433   3.786  10.184 -0.4113  0.8854 -2.5012
   34MOL0     H 4441   8.527   4.174  10.259  0.7528 -0.8672  2.6130
   34MOL0     H 4442   8.353   4.399  10.263 -2.6803  0.8194  0.8794
   34MOL0     H 4443   8.220   4.378  10.143 -0.6989  1.7416  4.4965
   34MOL0     H 4444   8.390   4.312   9.970 -0.1713 -1.3530  0.9348
   34MOL0     H 4445   8.517   4.340  10.085  0.2941  3.2102 -0.4991
   34MOL0     H 4446   8.467   4.577  10.093 -1.0367  2.3600 -0.6851
   34MOL0     H 4447   8.503   4.511   9.920 -1.0409  0.3129 -0.4372
   34MOL0     H 4448   8.270   4.567   9.868 -2.0282  0.1346  0.9925
   34MOL0     H 4449   8.365   4.707   9.930  0.7436 -0.7156 -2.2910
   34MOL0     H 4450   8.110   4.693   9.820  3.2509 -0.5198  1.3166
   34MOL0     H 4451   7.912   4.814   9.795 -0.7510  1.3519 -0.3116
   34MOL0     H 4452   7.520   4.975   9.809 -0.7537 -0.4181  0.1658
   34MOL0     H 4453   7.324   5.129   9.829  0.6449  1.6302 -0.6128
   34MOL0     H 4454   7.220   5.332   9.731 -0.5247  1.6647 -1.1499
   34MOL0     H 4455   7.347   5.456   9.707  2.3137 -0.0297  0.7607
   34MOL0     H 4456   7.216   5.612   9.843  3.5628 -1.9425  0.0442
   34MOL0     H 4457   7.128   5.482   9.922  1.1678 -0.4341  1.0406
   34MOL0     H 4458   7.006   5.440   9.697 -0.5744 -0.4895 -1.5138
   34MOL0     H 4459   7.102   5.579   9.635  1.4260  2.1874  2.4727
   34MOL0     H 4460   6.979   5.735   9.796  2.3300 -1.7486 -0.2817
   34MOL0     H 4461   6.885   5.659   9.669 -4.3942 -1.7341  1.1963
   34MOL0     H 4462   6.887   5.566   9.952  0.3549 -0.4547 -0.3938
   34MOL0     H 4463   6.790   5.502   9.827  2.4549 -0.9555  0.1722
   34MOL0     H 4464   6.790   5.776   9.961 -0.4481  1.2574 -1.2870
   34MOL0     H 4465   6.664   5.645   9.974  0.3017  0.4267  1.4789
   34MOL0     H 4466   6.720   5.815   9.723  2.6145  0.4181  1.2109
   34MOL0     H 4467   6.603   5.666   9.743 -1.3009  0.6219  0.9911
   34MOL0     H 4468   6.509   5.882   9.736 -0.7314  0.9598  1.2227
   34MOL0     H 4469   6.596   5.934   9.879  1.4631  0.8132 -0.1573
   34MOL0     H 4470   7.593   5.445   9.942  2.1708  1.0938 -2.3605
   34MOL0     H 4471   7.788   5.268   9.935  1.1159 -1.1015 -3.0247
   34MOL0     H 4472   7.887   4.883  10.206 -2.4117  1.9296 -2.7966
   34MOL0     H 4473   8.101   4.742  10.248  2.0474 -1.9958  0.1230
   34MOL0     H 4474   9.523   3.543   9.846  1.1156  0.3139  1.3349
   34MOL0     H 4475   9.739   3.617   9.763 -1.2797 -2.5234 -1.8049
   34MOL0     H 4476  10.031   4.133   9.781  0.0663  1.3852 -0.1124
   34MOL0     H 4477  10.258   4.162   9.723 -3.6041  0.8981 -0.2212
   34MOL0     H 4478  10.566   3.978   9.459 -0.2987  4.0817  2.6913
   34MOL0     H 4479  10.436   3.873   9.429  1.3024  0.9955 -0.9610
   34MOL0     H 4480  10.471   3.759   9.666  1.9745  1.0657  6.0333
   34MOL0     H 4481  10.597   3.746   9.550 -1.1314 -0.7894 -0.3463
   34MOL0     H 4482  10.648   3.812   9.784  0.5401 -0.2936 -0.2555
   34MOL0     H 4483  10.572   3.973   9.765  3.2100  3.1767 -0.7926
   34MOL0     H 4484  10.759   4.015   9.579 -1.6836 -0.4760 -0.5432
   34MOL0     H 4485  10.810   4.005   9.733  0.9504  3.6653 -2.1470
   34MOL0     H 4486  10.930   3.619   9.577  0.4300  0.4128 -0.2654
   34MOL0     H 4487  10.264   3.799   9.514  2.9560  0.2014  1.1131
   34MOL0     H 4488  10.017   3.770   9.572 -1.6390  1.4422  0.0497
   35MOL0     O 4489   3.461   4.845   6.134 -0.7331  0.1681 -0.7591
   35MOL0     C 4490   3.377   4.897   6.069 -0.0373  0.7614 -0.4779
   35MOL0     O 4491   3.256   4.844   6.033 -0.2134 -0.0506 -0.0378
   35MOL0     C 4492   3.196   4.743   6.099  0.4512 -0.3535  0.5147
   35MOL0     C 4493   3.157   4.766   6.228  1.0049  0.6311  0.0253
   35MOL0     C 4494   3.108   4.652   6.298 -0.0855 -0.5909  0.4255
   35MOL0     C 4495   3.093   4.529   6.243 -0.2269  0.7532 -0.8167
   35MOL0     O 4496   3.037   4.422   6.320 -0.4732  0.6813  0.3812
   35MOL0     C 4497   3.098   4.292   6.305 -0.0438 -0.3689 -0.3041
   35MOL0     C 4498   3.011   4.178   6.341 -1.2414 -0.2498 -0.3259
   35MOL0     C 4499   2.871   4.192   6.420 -0.3228 -0.2082 -0.2554
   35MOL0     C 4500   2.803   4.053   6.448 -0.4639 -0.4092  0.8840
   35MOL0     C 4501   2.647   4.064   6.459 -1.5610 -0.0170 -0.4895
   35MOL0     C 4502   2.573   4.163   6.364  0.9131  0.8643 -0.3162
   35MOL0     C 4503   2.427   4.154   6.400 -0.1309  0.2518  0.1181
   35MOL0     C 4504   2.339   4.234   6.297  0.2955  0.0463 -0.1527
   35MOL0     N 4505   2.309   4.151   6.176 -0.4188  0.1419 -0.2916
   35MOL0     C 4506   2.256   4.023   6.177  0.1344 -0.1743  0.2640
   35MOL0     C 4507   2.235   3.998   6.046  0.2370 -0.2314  0.1261
   35MOL0     C 4508   2.152   3.897   5.974 -0.3214 -1.3508 -0.4231
   35MOL0     C 4509   2.061   3.962   5.873 -1.0739  0.1219 -0.6457
   35MOL0     C 4510   1.957   3.867   5.821 -0.4694 -0.0470  0.0049
   35MOL0     C 4511   1.810   3.873   5.881 -0.7586  0.0383  0.4280
   35MOL0     O 4512   1.737   3.761   5.833  0.6967  0.1770  0.6358
   35MOL0     C 4513   1.599   3.757   5.844 -0.7620  0.4571 -0.2189
   35MOL0     C 4514   1.545   3.632   5.825  0.4308 -0.0357  0.2404
   35MOL0     C 4515   1.408   3.612   5.827 -1.0343  0.4415  0.0049
   35MOL0     C 4516   1.326   3.721   5.871  1.2641  0.7623  0.3043
   35MOL0     C 4517   1.183   3.687   5.898  0.2447 -0.1175  0.8262
   35MOL0     O 4518   1.111   3.784   5.943  0.4824 -0.4325 -0.4802
   35MOL0     C 4519   0.996   3.762   6.018 -0.8022  0.0272  0.2896
   35MOL0     C 4520   0.884   3.838   5.988 -0.4390 -0.3194  0.2891
   35MOL0     C 4521   0.764   3.823   6.065 -0.2148 -0.5925 -0.4131
   35MOL0     C 4522   0.762   3.740   6.173 -0.6449  1.0115 -0.3962
   35MOL0     O 4523   0.651   3.723   6.254 -0.4351  0.3109  0.6299
   35MOL0     C 4524   0.529   3.781   6.209 -0.1084  0.6428  0.8692
   35MOL0     C 4525   0.434   3.773   6.322 -0.6444 -0.1247  0.4679
   35MOL0     C 4526   0.330   3.876   6.347 -0.2046  0.1650 -0.1839
   35MOL0     C 4527   0.214   3.821   6.434 -0.2244  0.6466 -0.2958
   35MOL0     C 4528   0.112   3.930   6.452  0.2417 -0.4290 -0.1021
   35MOL0     C 4529  -0.004   3.858   6.514 -0.0717 -0.4215 -1.1014
   35MOL0     C 4530  -0.115   3.956   6.541 -0.0885  0.7746  0.3123
   35MOL0     C 4531  -0.137   3.987   6.684  0.1901  0.6762  0.1712
   35MOL0    Cl 4532  -0.289   4.081   6.692  0.2314 -0.6203 -0.0055
   35MOL0     C 4533   0.876   3.668   6.211  1.2188  0.2747 -0.4037
   35MOL0     C 4534   0.995   3.681   6.132  0.0170  0.4297  0.8655
   35MOL0     O 4535   1.139   3.571   5.892 -1.3694 -0.4117 -0.0507
   35MOL0     C 4536   1.385   3.849   5.889 -0.3368  0.4521 -0.0078
   35MOL0     C 4537   1.522   3.871   5.877  1.0756 -1.0368  0.2218
   35MOL0     N 4538   2.286   4.098   5.967  0.3639 -0.2824  0.2534
   35MOL0     N 4539   2.321   4.192   6.047 -0.2216 -0.6213  0.9664
   35MOL0     C 4540   3.125   4.506   6.112 -0.2350 -0.4348 -0.0243
   35MOL0     C 4541   3.184   4.616   6.041  0.2679  0.3683  0.5878
   35MOL0     C 4542   3.414   5.034   6.016  0.0304  0.2362 -0.0979
   35MOL0     C 4543   3.336   5.115   5.945  0.7092  0.1589 -0.4998
   35MOL0     C 4544   3.368   5.236   5.898 -0.3751 -0.5217  0.2260
   35MOL0     C 4545   3.494   5.285   5.913 -0.8667 -1.2646 -0.1210
   35MOL0     O 4546   3.522   5.416   5.872 -0.3942  0.2852 -1.1447
   35MOL0     C 4547   3.651   5.470   5.892  0.2289  0.6792  0.6477
   35MOL0     C 4548   3.750   5.400   5.800  0.0200  0.0882  0.3246
   35MOL0     C 4549   3.721   5.430   5.654 -0.2367  0.1711 -0.2308
   35MOL0     C 4550   3.808   5.543   5.590 -0.2371 -0.4973  0.4971
   35MOL0     C 4551   3.850   5.523   5.444 -0.7398 -0.2160 -0.6461
   35MOL0     C 4552   3.868   5.510   5.328  0.2011 -0.4044  0.1366
   35MOL0     C 4553   3.583   5.216   5.991 -0.7770  0.3588  0.1339
   35MOL0     C 4554   3.541   5.087   6.037  0.1254  0.0040 -0.1554
   35MOL0     H 4555   3.160   4.860   6.283  1.9723 -0.7006  2.3573
   35MOL0     H 4556   3.064   4.659   6.397 -1.1165  0.2212 -0.0685
   35MOL0     H 4557   3.176   4.292   6.382 -2.5402 -0.5028  2.4498
   35MOL0     H 4558   3.136   4.273   6.205  1.2872  2.8260 -0.5095
   35MOL0     H 4559   3.069   4.106   6.400 -0.7171  3.1789  3.8411
   35MOL0     H 4560   2.995   4.134   6.242 -0.2392  3.2944 -2.2582
   35MOL0     H 4561   2.809   4.262   6.363  1.4121  2.5066  0.9605
   35MOL0     H 4562   2.886   4.235   6.519 -0.6713  3.4280 -1.5955
   35MOL0     H 4563   2.822   3.979   6.370  1.5122  0.6080  0.3142
   35MOL0     H 4564   2.853   4.002   6.530 -0.8383 -0.7520  0.8991
   35MOL0     H 4565   2.640   4.099   6.562 -0.4463 -3.5518  0.9457
   35MOL0     H 4566   2.598   3.966   6.451 -0.3348 -0.5098 -2.6806
   35MOL0     H 4567   2.574   4.127   6.260 -0.9493  0.2457 -0.1508
   35MOL0     H 4568   2.594   4.270   6.370  1.8954  0.7003 -0.5021
   35MOL0     H 4569   2.405   4.047   6.409 -2.6659  0.3330 -3.1312
   35MOL0     H 4570   2.411   4.197   6.499 -0.1490  1.1116 -0.2505
   35MOL0     H 4571   2.375   4.335   6.277  1.5285  0.1085  2.0964
   35MOL0     H 4572   2.236   4.251   6.330 -0.1200 -3.1666  0.5276
   35MOL0     H 4573   2.215   3.961   6.256  1.0103 -3.5664 -1.7441
   35MOL0     H 4574   2.091   3.839   6.044 -1.1872  0.7232  0.6438
   35MOL0     H 4575   2.221   3.830   5.922  2.4761  0.1984  1.1044
   35MOL0     H 4576   2.126   3.971   5.785 -0.3887  0.2994 -0.1277
   35MOL0     H 4577   2.015   4.059   5.895  1.1882  0.7446  1.8921
   35MOL0     H 4578   1.938   3.879   5.714  1.3105  0.8484 -0.2317
   35MOL0     H 4579   1.998   3.766   5.829 -0.0550  0.0168 -1.0918
   35MOL0     H 4580   1.763   3.967   5.853 -2.0384  0.0327  2.3525
   35MOL0     H 4581   1.808   3.876   5.991 -0.9657  0.3290  0.4158
   35MOL0     H 4582   1.616   3.557   5.791 -3.0487 -3.6525  0.1858
   35MOL0     H 4583   1.373   3.511   5.810  3.3740 -1.1702 -0.8831
   35MOL0     H 4584   0.882   3.889   5.893  0.4979 -1.4833 -0.3809
   35MOL0     H 4585   0.674   3.866   6.022 -0.2900 -1.9028 -1.6550
   35MOL0     H 4586   0.488   3.730   6.121 -2.3667  0.8404  1.7386
   35MOL0     H 4587   0.549   3.887   6.189  0.8585  0.4579  0.8260
   35MOL0     H 4588   0.496   3.774   6.412  0.8863  1.7211 -0.5225
   35MOL0     H 4589   0.385   3.675   6.322  0.9656 -0.9896 -1.2489
   35MOL0     H 4590   0.284   3.904   6.252 -0.6840 -2.0073 -0.6309
   35MOL0     H 4591   0.377   3.956   6.405  0.4600 -1.7555  2.0910
   35MOL0     H 4592   0.178   3.733   6.380  2.1880 -0.5864 -0.0236
   35MOL0     H 4593   0.259   3.791   6.529  0.3942 -0.4705 -0.9220
   35MOL0     H 4594   0.082   3.946   6.348  1.0243 -0.6939 -0.3694
   35MOL0     H 4595   0.135   4.021   6.507  0.6592 -0.0004 -0.9612
   35MOL0     H 4596   0.030   3.829   6.614 -0.6178 -1.1804 -1.1288
   35MOL0     H 4597  -0.033   3.773   6.452  0.3292 -1.0652 -0.4234
   35MOL0     H 4598  -0.114   4.041   6.472 -1.1276  1.0031  0.5656
   35MOL0     H 4599  -0.204   3.897   6.517 -1.4397  2.7615  0.2664
   35MOL0     H 4600  -0.072   4.065   6.725  2.8800  0.0206 -2.5084
   35MOL0     H 4601  -0.137   3.901   6.752 -1.3667  1.3351  1.0685
   35MOL0     H 4602   0.872   3.627   6.312 -2.8585  2.9439  0.7861
   35MOL0     H 4603   1.089   3.633   6.156  0.9982  2.1000  0.5226
   35MOL0     H 4604   1.318   3.929   5.919 -0.4674  1.3136 -2.3849
   35MOL0     H 4605   1.573   3.959   5.915  0.7891 -0.2714 -1.1246
   35MOL0     H 4606   3.094   4.415   6.063 -1.7351  2.3820 -5.0348
   35MOL0     H 4607   3.226   4.587   5.944  2.9240  3.2773  0.6944
   35MOL0     H 4608   3.237   5.077   5.923  0.6865 -1.8131  2.4719
   35MOL0     H 4609   3.294   5.299   5.850 -0.0998 -0.2385  0.1633
   35MOL0     H 4610   3.690   5.451   5.992 -1.5690 -3.6991  0.7655
   35MOL0     H 4611   3.643   5.576   5.867 -0.6713  0.9622  2.0346
   35MOL0     H 4612   3.851   5.434   5.826  1.0367 -1.3292 -1.5346
   35MOL0     H 4613   3.761   5.291   5.808  2.6706 -0.0885 -3.1410
   35MOL0     H 4614   3.614   5.454   5.648  0.0097  1.5415  0.4003
   35MOL0     H 4615   3.723   5.341   5.590 -2.9919 -0.2729  0.1470
   35MOL0     H 4616   3.746   5.632   5.602  0.2119  0.0434 -0.9701
   35MOL0     H 4617   3.899   5.571   5.644  0.2925 -0.3402 -0.4605
   35MOL0     H 4618   3.885   5.497   5.223 -0.9961 -0.1162 -0.1182
   35MOL0     H 4619   3.681   5.253   6.017 -1.6365  1.7971  1.4637
   35MOL0     H 4620   3.621   5.028   6.080  0.7559  1.9878  1.5797
   36MOL0     O 4621   0.100   3.842   0.859 -0.2199 -0.2796  0.6346
   36MOL0     C 4622   0.183   3.764   0.913 -0.6059  0.3652  0.8273
   36MOL0     O 4623   0.171   3.707   1.035  0.6486 -0.2360 -0.6850
   36MOL0     C 4624   0.064   3.720   1.122 -0.6041 -0.1551  0.3086
   36MOL0     C 4625  -0.067   3.722   1.070  0.4964 -1.0092 -0.5288
   36MOL0     C 4626  -0.175   3.742   1.163 -0.5694  0.5452 -0.3537
   36MOL0     C 4627  -0.148   3.746   1.298 -0.2177 -0.1450 -0.4606
   36MOL0     O 4628  -0.264   3.764   1.374 -0.3360  0.4501 -0.6663
   36MOL0     C 4629  -0.266   3.702   1.496 -0.3420 -0.2659  0.6548
   36MOL0     C 4630  -0.414   3.685   1.550  0.3065  0.2048  0.7288
   36MOL0     C 4631  -0.514   3.627   1.454 -0.0852  0.8191 -0.1951
   36MOL0     C 4632  -0.640   3.582   1.519  0.6656  0.3750  0.4506
   36MOL0     C 4633  -0.701   3.710   1.579  0.3888  0.2000 -0.0351
   36MOL0     C 4634  -0.832   3.689   1.645  0.1484  0.2917  0.4581
   36MOL0     C 4635  -0.939   3.655   1.540 -0.2731  0.7421  0.5798
   36MOL0     C 4636  -1.078   3.664   1.591 -0.3483 -0.3041 -0.4197
   36MOL0     N 4637  -1.093   3.551   1.687  0.0864 -0.7884 -0.8299
   36MOL0     C 4638  -1.128   3.589   1.813  1.0292 -0.3274 -0.1579
   36MOL0     C 4639  -1.117   3.475   1.888  0.7121 -0.7209 -0.3462
   36MOL0     C 4640  -1.129   3.474   2.042  0.5009  0.2560 -0.4051
   36MOL0     C 4641  -1.274   3.462   2.097 -0.1277  0.7285 -0.2146
   36MOL0     C 4642  -1.282   3.491   2.245 -0.1838 -0.5860 -0.8267
   36MOL0     C 4643  -1.267   3.642   2.281  0.3122  0.1396  0.5266
   36MOL0     O 4644  -1.379   3.704   2.216 -0.3492  0.4458 -0.2053
   36MOL0     C 4645  -1.494   3.726   2.286  0.1985  0.7903  0.2700
   36MOL0     C 4646  -1.616   3.675   2.246  0.2486 -0.5947  0.0338
   36MOL0     C 4647  -1.729   3.709   2.311  0.4920  1.1292 -0.1822
   36MOL0     C 4648  -1.727   3.795   2.426  0.9655 -0.2509 -0.0291
   36MOL0     C 4649  -1.849   3.834   2.500 -0.5486 -0.3284  0.0646
   36MOL0     O 4650  -1.962   3.834   2.437 -0.1294  0.4359  1.0499
   36MOL0     C 4651  -2.076   3.872   2.499 -0.0797 -0.4937  0.3081
   36MOL0     C 4652  -2.091   3.988   2.581 -0.2475 -0.4143  0.0348
   36MOL0     C 4653  -2.212   4.005   2.638  0.3532 -0.7761 -0.0704
   36MOL0     C 4654  -2.333   3.935   2.606  0.6405 -0.1831  0.3726
   36MOL0     O 4655  -2.455   3.966   2.654 -0.1968  0.1630 -0.0767
   36MOL0     C 4656  -2.465   4.072   2.750  1.0290  1.3730  0.9692
   36MOL0     C 4657  -2.605   4.087   2.789  0.6571 -0.3655  1.2463
   36MOL0     C 4658  -2.655   3.960   2.869 -0.2495  0.6976 -0.3395
   36MOL0     C 4659  -2.793   3.997   2.909 -0.3439 -0.2297  0.4452
   36MOL0     C 4660  -2.838   3.891   3.012 -0.0826 -0.3366 -0.3685
   36MOL0     C 4661  -2.958   3.931   3.093 -0.5678 -0.2552  0.0870
   36MOL0     C 4662  -3.034   3.815   3.156  0.3366  0.1965 -0.6240
   36MOL0     C 4663  -3.126   3.865   3.259  0.5006 -0.1732  0.0298
   36MOL0    Cl 4664  -3.238   3.988   3.184 -0.0820 -0.0625 -0.5041
   36MOL0     C 4665  -2.314   3.828   2.517 -0.3417 -0.1482 -0.6232
   36MOL0     C 4666  -2.187   3.793   2.473  0.5513 -0.3001  1.2375
   36MOL0     O 4667  -1.832   3.851   2.615  0.9254 -0.4478 -0.5884
   36MOL0     C 4668  -1.608   3.847   2.462  0.3259  0.2070  0.0664
   36MOL0     C 4669  -1.489   3.819   2.389 -0.1822  0.0141  0.4730
   36MOL0     N 4670  -1.072   3.374   1.811 -0.2203 -0.4587  0.9649
   36MOL0     N 4671  -1.053   3.424   1.691  0.4787 -0.1910 -0.0873
   36MOL0     C 4672  -0.023   3.719   1.346 -0.4904 -0.2702  0.0351
   36MOL0     C 4673   0.085   3.709   1.260 -0.2805  0.9176 -0.2112
   36MOL0     C 4674   0.306   3.716   0.844 -0.0787 -0.2063  0.4251
   36MOL0     C 4675   0.315   3.746   0.710  0.0068  0.1343  0.8211
   36MOL0     C 4676   0.421   3.700   0.635  0.2105 -0.3935 -0.3764
   36MOL0     C 4677   0.532   3.643   0.686 -0.0108 -0.8796  0.4093
   36MOL0     O 4678   0.631   3.592   0.603  0.1959 -0.0416  0.5201
   36MOL0     C 4679   0.766   3.606   0.652 -0.1306 -0.0001  0.5704
   36MOL0     C 4680   0.852   3.589   0.527  0.1111  0.1887 -0.5497
   36MOL0     C 4681   1.005   3.614   0.548  0.4939  1.2324  0.0530
   36MOL0     C 4682   1.051   3.488   0.626  0.8340 -0.7946 -0.3551
   36MOL0     C 4683   1.196   3.493   0.614  0.4397  0.5289 -0.1592
   36MOL0     C 4684   1.317   3.499   0.583 -0.9793  0.5549  1.2749
   36MOL0     C 4685   0.537   3.626   0.829  0.2474  0.1900  0.0673
   36MOL0     C 4686   0.424   3.663   0.902  0.9638  0.3561 -0.6385
   36MOL0     H 4687  -0.094   3.735   0.966  1.3861  0.8863 -0.5602
   36MOL0     H 4688  -0.276   3.761   1.127 -0.8759  1.7430  1.0577
   36MOL0     H 4689  -0.211   3.761   1.569 -3.6901 -0.4853  3.6695
   36MOL0     H 4690  -0.225   3.600   1.499  3.1052  1.0112  0.4450
   36MOL0     H 4691  -0.443   3.784   1.586  0.1623 -1.1823  5.1028
   36MOL0     H 4692  -0.416   3.621   1.639 -0.0059  0.7840  1.1497
   36MOL0     H 4693  -0.479   3.535   1.407 -0.4127 -0.7304  2.3981
   36MOL0     H 4694  -0.544   3.702   1.380  1.4004  1.1113 -0.5381
   36MOL0     H 4695  -0.707   3.523   1.456 -0.7368  1.3003  1.0322
   36MOL0     H 4696  -0.628   3.524   1.611 -0.0236  0.9278  0.9011
   36MOL0     H 4697  -0.717   3.784   1.500 -1.4565 -0.2435 -0.1221
   36MOL0     H 4698  -0.625   3.746   1.649  1.0362 -1.7360  0.3318
   36MOL0     H 4699  -0.857   3.781   1.698  1.2241  0.0774  1.3752
   36MOL0     H 4700  -0.820   3.609   1.719  1.5314  0.3734  0.3580
   36MOL0     H 4701  -0.921   3.725   1.458  1.9061 -0.5170 -0.0817
   36MOL0     H 4702  -0.917   3.553   1.510 -0.6751 -0.6003  4.2567
   36MOL0     H 4703  -1.152   3.649   1.513  0.4739 -1.0677 -1.0719
   36MOL0     H 4704  -1.097   3.761   1.638 -2.0931 -1.7335  2.0637
   36MOL0     H 4705  -1.176   3.676   1.857 -2.2673 -1.6374 -0.8570
   36MOL0     H 4706  -1.087   3.571   2.072  3.7659 -0.7651 -1.3594
   36MOL0     H 4707  -1.070   3.390   2.078 -2.4702 -1.4382  0.9052
   36MOL0     H 4708  -1.314   3.363   2.074  0.2658  0.4529  0.2678
   36MOL0     H 4709  -1.333   3.539   2.047  0.1888  2.1690  1.5007
   36MOL0     H 4710  -1.377   3.462   2.292 -0.0088  0.5343  0.2864
   36MOL0     H 4711  -1.209   3.426   2.292 -1.7603  0.4208  3.5579
   36MOL0     H 4712  -1.180   3.686   2.229 -1.4138  2.6562 -0.4423
   36MOL0     H 4713  -1.257   3.672   2.386 -0.6824 -0.7184  0.8829
   36MOL0     H 4714  -1.622   3.598   2.170  1.9199 -1.3967  0.6691
   36MOL0     H 4715  -1.823   3.670   2.272  1.0751  0.3960 -0.8797
   36MOL0     H 4716  -2.004   4.052   2.591  0.8251 -1.9725  1.0094
   36MOL0     H 4717  -2.214   4.091   2.704 -0.6809 -2.9237  2.9562
   36MOL0     H 4718  -2.416   4.158   2.704  2.7858  0.6129  1.3567
   36MOL0     H 4719  -2.406   4.054   2.840 -0.4491  1.1311  1.9210
   36MOL0     H 4720  -2.669   4.115   2.704  3.9774  1.7393 -0.7658
   36MOL0     H 4721  -2.599   4.178   2.849  0.7442  1.7998 -1.7685
   36MOL0     H 4722  -2.600   3.946   2.963 -1.0410  1.9321  0.3273
   36MOL0     H 4723  -2.639   3.860   2.828 -0.0840  0.8116 -0.5575
   36MOL0     H 4724  -2.798   4.091   2.964  2.4197  1.9826 -2.6522
   36MOL0     H 4725  -2.858   3.984   2.822  0.5608  0.7265 -0.4104
   36MOL0     H 4726  -2.758   3.863   3.081  1.3090  1.5318 -1.1455
   36MOL0     H 4727  -2.858   3.795   2.963  2.1445 -0.7323 -0.5875
   36MOL0     H 4728  -3.028   3.998   3.042  2.3596  3.8600  0.9444
   36MOL0     H 4729  -2.921   3.987   3.179  0.1724  1.4040 -1.2436
   36MOL0     H 4730  -3.071   3.749   3.078  4.8623 -0.7584 -2.3102
   36MOL0     H 4731  -2.964   3.752   3.212 -1.8082 -1.0731  0.7761
   36MOL0     H 4732  -3.084   3.911   3.349 -3.7899  0.9517  1.7071
   36MOL0     H 4733  -3.185   3.781   3.296 -0.1867 -0.2927 -1.3064
   36MOL0     H 4734  -2.402   3.770   2.492 -0.0856 -1.6216  1.6684
   36MOL0     H 4735  -2.174   3.715   2.398 -0.5384  1.3891 -0.8227
   36MOL0     H 4736  -1.612   3.920   2.542 -0.9392  0.1765  0.0394
   36MOL0     H 4737  -1.403   3.885   2.399 -0.6663  0.5921  0.8880
   36MOL0     H 4738   0.017   3.730   1.446 -0.0336  2.8072 -0.4048
   36MOL0     H 4739   0.185   3.688   1.295 -0.6061  1.6214  1.2041
   36MOL0     H 4740   0.234   3.798   0.661  1.7323  3.1648  0.9353
   36MOL0     H 4741   0.417   3.712   0.528  1.6486 -0.5213 -0.4606
   36MOL0     H 4742   0.792   3.521   0.716  0.4092  1.4895  2.4235
   36MOL0     H 4743   0.790   3.701   0.702 -0.7320 -0.2460  1.3617
   36MOL0     H 4744   0.850   3.489   0.483  5.1438 -1.0727  1.3915
   36MOL0     H 4745   0.811   3.655   0.450  1.6208 -0.7659 -2.2194
   36MOL0     H 4746   1.025   3.695   0.618 -0.4883  0.8628  0.7785
   36MOL0     H 4747   1.056   3.622   0.451 -1.1038 -0.7136 -1.0312
   36MOL0     H 4748   1.026   3.501   0.732 -0.3646 -0.9910 -0.6044
   36MOL0     H 4749   1.012   3.394   0.587  3.4210 -1.5976 -1.2105
   36MOL0     H 4750   1.422   3.492   0.561 -0.8434 -0.0540  2.0467
   36MOL0     H 4751   0.620   3.567   0.866  0.1000 -1.2094 -1.7001
   36MOL0     H 4752   0.431   3.661   1.010 -1.0216 -3.2734 -0.4084
   37MOL0     O 4753   6.552   7.908   2.770  0.2031 -0.3777 -0.3548
   37MOL0     C 4754   6.569   8.005   2.700  1.0028  0.0049 -0.2910
   37MOL0     O 4755   6.489   8.111   2.702  0.1480 -0.0999  1.4083
   37MOL0     C 4756   6.355   8.099   2.743 -1.1423 -0.3208 -0.1062
   37MOL0     C 4757   6.285   7.988   2.710 -0.6103 -0.5356  0.1178
   37MOL0     C 4758   6.153   7.979   2.751 -0.4877  0.7341  0.2636
   37MOL0     C 4759   6.084   8.083   2.810 -0.0547 -0.3315  0.0945
   37MOL0     O 4760   5.947   8.077   2.826 -0.0129 -0.0047  0.1581
   37MOL0     C 4761   5.874   7.956   2.808 -0.3182 -0.6039 -0.9556
   37MOL0     C 4762   5.743   7.995   2.870  0.3873 -0.0938  0.2675
   37MOL0     C 4763   5.642   7.880   2.875  0.1010  0.3485 -0.0493
   37MOL0     C 4764   5.503   7.925   2.940 -0.2671 -0.6168  0.6267
   37MOL0     C 4765   5.435   7.823   3.022  0.7778 -0.0559 -0.2073
   37MOL0     C 4766   5.291   7.864   3.070 -0.1572 -0.2594 -0.2231
   37MOL0     C 4767   5.242   7.758   3.171  0.0676 -0.1410 -1.2732
   37MOL0     C 4768   5.113   7.812   3.243  0.6782 -0.6212  0.3047
   37MOL0     N 4769   5.093   7.729   3.358  0.2148  0.1183 -0.7798
   37MOL0     C 4770   4.976   7.685   3.404  0.0525  0.6764  0.2843
   37MOL0     C 4771   4.985   7.671   3.537  0.2311  0.5081 -0.6296
   37MOL0     C 4772   4.883   7.640   3.646 -0.2347  1.0402  0.2608
   37MOL0     C 4773   4.739   7.643   3.603  0.3896  0.2910 -0.4992
   37MOL0     C 4774   4.697   7.788   3.581 -1.3716  0.2909 -0.2549
   37MOL0     C 4775   4.549   7.796   3.590  0.3069  0.1506  0.1057
   37MOL0     O 4776   4.521   7.922   3.531  0.8181  0.6524 -0.2022
   37MOL0     C 4777   4.398   7.963   3.504 -0.0566  0.2137  0.2524
   37MOL0     C 4778   4.290   7.870   3.515 -1.1686 -0.6376 -0.5186
   37MOL0     C 4779   4.176   7.922   3.458  0.3514 -0.1623 -0.6963
   37MOL0     C 4780   4.158   8.050   3.408 -0.4347 -0.5724  0.2875
   37MOL0     C 4781   4.032   8.088   3.340 -0.5117  1.6729  0.7699
   37MOL0     O 4782   3.921   8.025   3.376  0.3474  0.1656 -0.2786
   37MOL0     C 4783   3.788   8.064   3.339 -0.1468 -0.7109  0.6653
   37MOL0     C 4784   3.742   8.089   3.206 -0.4729 -1.0010  0.1793
   37MOL0     C 4785   3.610   8.115   3.178 -0.0146 -0.6095 -0.2507
   37MOL0     C 4786   3.516   8.130   3.285  0.0156 -0.5556  0.6672
   37MOL0     O 4787   3.387   8.173   3.250 -0.1364  0.6961 -0.4354
   37MOL0     C 4788   3.280   8.197   3.341  0.9193 -0.9002 -0.7811
   37MOL0     C 4789   3.159   8.226   3.261  0.7522 -0.6206 -0.0663
   37MOL0     C 4790   3.116   8.147   3.137  0.4116  0.4422 -0.3967
   37MOL0     C 4791   3.005   8.217   3.058  0.3293 -0.5110  0.8491
   37MOL0     C 4792   2.963   8.144   2.923  0.4392  0.0269 -0.7331
   37MOL0     C 4793   2.882   8.238   2.833  0.7874  0.3231  0.0082
   37MOL0     C 4794   2.829   8.149   2.717  0.2239  0.9549 -0.3777
   37MOL0     C 4795   2.792   8.221   2.590  0.6871 -0.9319  0.0357
   37MOL0    Cl 4796   2.915   8.308   2.493 -0.1851 -0.1112 -0.2556
   37MOL0     C 4797   3.561   8.108   3.411 -0.0887  0.0783 -0.8471
   37MOL0     C 4798   3.696   8.071   3.444  0.1711 -0.6345 -0.4025
   37MOL0     O 4799   4.033   8.182   3.262  0.3713 -0.0849 -0.1833
   37MOL0     C 4800   4.265   8.143   3.410 -0.3653  0.7422  0.4235
   37MOL0     C 4801   4.388   8.099   3.469  1.3161 -0.5190  1.3491
   37MOL0     N 4802   5.115   7.707   3.570  0.3312 -0.3202 -0.5586
   37MOL0     N 4803   5.175   7.736   3.464 -0.2234 -0.6488  0.1551
   37MOL0     C 4804   6.150   8.205   2.833 -0.4035 -0.4739 -0.8325
   37MOL0     C 4805   6.283   8.210   2.812 -0.6953  0.6242  0.0558
   37MOL0     C 4806   6.683   8.002   2.615 -0.4203  0.0565 -0.3851
   37MOL0     C 4807   6.705   8.116   2.541 -0.3922 -0.5533  0.3511
   37MOL0     C 4808   6.820   8.139   2.475 -0.9983 -0.2903  0.8906
   37MOL0     C 4809   6.919   8.038   2.462  0.2370  0.1684 -0.2848
   37MOL0     O 4810   7.051   8.036   2.406  0.4746 -0.6287  0.9104
   37MOL0     C 4811   7.081   8.128   2.294  0.4862  0.1666 -0.6032
   37MOL0     C 4812   7.223   8.082   2.231  0.3025  0.0963 -0.1492
   37MOL0     C 4813   7.337   8.082   2.343 -0.0571  0.0947  0.0576
   37MOL0     C 4814   7.461   8.159   2.296 -0.4359 -1.0855  0.2926
   37MOL0     C 4815   7.539   8.205   2.404 -0.5331 -0.2873  0.2629
   37MOL0     C 4816   7.591   8.274   2.495  0.3439  0.5069  0.0970
   37MOL0     C 4817   6.888   7.919   2.538 -1.3701  0.3643 -0.4840
   37MOL0     C 4818   6.779   7.897   2.615 -0.6987 -0.2017  0.0014
   37MOL0     H 4819   6.328   7.916   2.642 -3.9877 -0.7416 -2.0470
   37MOL0     H 4820   6.092   7.894   2.720  0.5739  0.3432 -0.8821
   37MOL0     H 4821   5.922   7.880   2.869 -0.8822 -1.5097 -1.6201
   37MOL0     H 4822   5.858   7.925   2.704 -1.0059 -2.2385 -0.3809
   37MOL0     H 4823   5.700   8.077   2.812  1.5701 -0.0902 -0.6335
   37MOL0     H 4824   5.746   8.019   2.977 -0.5497  0.6111  0.1456
   37MOL0     H 4825   5.680   7.795   2.934 -0.0721 -0.6856 -1.3814
   37MOL0     H 4826   5.624   7.841   2.774 -2.6019  0.4968  0.2844
   37MOL0     H 4827   5.509   8.016   3.000  1.9332 -1.4517  1.7818
   37MOL0     H 4828   5.427   7.946   2.864  0.3042 -0.9199 -0.0330
   37MOL0     H 4829   5.501   7.805   3.107  0.4838  0.0098  0.0387
   37MOL0     H 4830   5.416   7.726   2.975  1.5689 -1.6944  2.6197
   37MOL0     H 4831   5.220   7.867   2.987 -0.2419 -0.4962 -0.1604
   37MOL0     H 4832   5.292   7.963   3.115  1.4644  0.1963 -1.1658
   37MOL0     H 4833   5.211   7.664   3.126 -3.8591  0.0241  0.6634
   37MOL0     H 4834   5.319   7.741   3.246 -1.4262 -0.1366  0.3371
   37MOL0     H 4835   5.029   7.808   3.172  0.7084 -0.9981  0.2856
   37MOL0     H 4836   5.114   7.917   3.274 -2.7739 -0.7104  1.1208
   37MOL0     H 4837   4.880   7.680   3.353 -0.3812  3.6078  0.6158
   37MOL0     H 4838   4.882   7.705   3.734 -0.8473 -5.0925  5.4698
   37MOL0     H 4839   4.912   7.547   3.695 -1.6396  1.7190  2.5182
   37MOL0     H 4840   4.671   7.600   3.677  1.6907 -0.8668  0.0654
   37MOL0     H 4841   4.726   7.590   3.508 -2.0165 -0.5759  0.2505
   37MOL0     H 4842   4.727   7.851   3.665 -0.0631  1.5049 -1.5830
   37MOL0     H 4843   4.735   7.816   3.482  0.4678 -1.3786 -0.0823
   37MOL0     H 4844   4.511   7.789   3.693 -2.6180  1.8699 -0.7400
   37MOL0     H 4845   4.513   7.710   3.532  2.2286 -1.2818  0.9196
   37MOL0     H 4846   4.303   7.770   3.556 -1.7869 -0.3826  0.3284
   37MOL0     H 4847   4.086   7.861   3.465  0.8423 -0.9716 -1.3156
   37MOL0     H 4848   3.810   8.094   3.121 -0.5721 -1.6078  0.0623
   37MOL0     H 4849   3.580   8.142   3.077 -0.5742 -2.3951 -0.5924
   37MOL0     H 4850   3.297   8.284   3.405 -0.5195 -0.3084 -1.1560
   37MOL0     H 4851   3.263   8.108   3.402  2.2107 -1.9648 -1.8986
   37MOL0     H 4852   3.158   8.333   3.240  2.0852 -0.1957  1.7906
   37MOL0     H 4853   3.070   8.209   3.323  0.3927 -0.3324 -0.5031
   37MOL0     H 4854   3.087   8.047   3.171  1.0271  1.3959  3.3831
   37MOL0     H 4855   3.201   8.124   3.072  0.9424 -2.2955  1.1132
   37MOL0     H 4856   2.921   8.230   3.127 -0.0818 -0.6205  0.3739
   37MOL0     H 4857   3.036   8.317   3.025  2.1430 -1.6421 -1.1280
   37MOL0     H 4858   2.903   8.058   2.953  0.8032 -0.0087 -0.0917
   37MOL0     H 4859   3.047   8.094   2.874 -0.4493 -1.9455 -0.3385
   37MOL0     H 4860   2.952   8.315   2.799  1.5860 -0.6621 -0.6418
   37MOL0     H 4861   2.803   8.285   2.893  2.5087  1.8716  1.1766
   37MOL0     H 4862   2.900   8.068   2.694  1.3074  2.0523 -1.0090
   37MOL0     H 4863   2.739   8.097   2.750 -0.2800  0.3069 -2.5864
   37MOL0     H 4864   2.716   8.296   2.618  1.6137 -0.5036  1.5014
   37MOL0     H 4865   2.740   8.145   2.530 -2.4614 -0.6023  2.0744
   37MOL0     H 4866   3.491   8.122   3.493  1.4565  1.2826  0.3447
   37MOL0     H 4867   3.736   8.059   3.544  0.1088  0.1507 -0.2704
   37MOL0     H 4868   4.251   8.240   3.363 -3.0870 -0.2324 -0.9925
   37MOL0     H 4869   4.468   8.172   3.474  0.4193  0.4216  2.5988
   37MOL0     H 4870   6.087   8.285   2.869 -0.9544 -0.3345 -2.0935
   37MOL0     H 4871   6.338   8.298   2.845  2.0766  0.1126 -2.7679
   37MOL0     H 4872   6.630   8.194   2.534  2.1903  2.1085  0.2252
   37MOL0     H 4873   6.849   8.236   2.435  2.6438 -1.5169  0.0894
   37MOL0     H 4874   7.086   8.234   2.321  1.5367  0.1564 -0.6942
   37MOL0     H 4875   7.009   8.115   2.213  1.2969  2.2383 -1.7341
   37MOL0     H 4876   7.211   7.979   2.195 -0.7865 -0.4349  1.5999
   37MOL0     H 4877   7.248   8.142   2.144  3.8126 -0.5755  0.2627
   37MOL0     H 4878   7.359   7.983   2.385  1.1058  1.5447  3.2032
   37MOL0     H 4879   7.299   8.131   2.433 -2.3310 -0.5557 -0.4914
   37MOL0     H 4880   7.530   8.099   2.237  1.0205  1.3931 -0.6974
   37MOL0     H 4881   7.443   8.250   2.237  0.0301 -1.2149 -0.0512
   37MOL0     H 4882   7.638   8.337   2.568  2.0141  0.5083 -0.8975
   37MOL0     H 4883   6.967   7.846   2.528 -1.9782 -0.6610  1.5129
   37MOL0     H 4884   6.765   7.802   2.665  1.3972  0.7846  2.7157
   38MOL0     O 4885   8.897   4.852   6.733  0.6646  0.2179 -0.1727
   38MOL0     C 4886   8.868   4.869   6.848 -0.2017 -0.5350 -0.5226
   38MOL0     O 4887   8.745   4.856   6.907 -0.5505 -0.1803 -0.7813
   38MOL0     C 4888   8.635   4.819   6.829  0.1724  0.5588 -0.1072
   38MOL0     C 4889   8.627   4.722   6.732  0.2244  0.4929 -0.1194
   38MOL0     C 4890   8.509   4.701   6.660  0.4873  0.7140 -0.0749
   38MOL0     C 4891   8.397   4.784   6.686  0.3721  0.2423 -0.1818
   38MOL0     O 4892   8.279   4.779   6.614 -0.4808  0.0208 -0.1022
   38MOL0     C 4893   8.265   4.673   6.515  0.6584 -0.1787  0.2467
   38MOL0     C 4894   8.123   4.675   6.447 -0.2450 -0.6697  1.0422
   38MOL0     C 4895   8.009   4.752   6.507 -0.0294 -0.5689 -0.7684
   38MOL0     C 4896   7.969   4.682   6.645  0.3071 -0.4282 -0.1380
   38MOL0     C 4897   7.850   4.746   6.720  0.3269 -1.0680 -0.4264
   38MOL0     C 4898   7.718   4.752   6.634  0.7283  0.1670 -0.8049
   38MOL0     C 4899   7.604   4.802   6.725  0.5774 -0.7421 -0.4516
   38MOL0     C 4900   7.615   4.950   6.750  1.0324 -0.0108  0.5376
   38MOL0     N 4901   7.523   5.018   6.845  0.0129 -0.2843  0.8993
   38MOL0     C 4902   7.549   5.152   6.880  0.2174  0.5960  0.8878
   38MOL0     C 4903   7.447   5.178   6.956  0.3148  0.4621  0.5573
   38MOL0     C 4904   7.435   5.305   7.044 -0.1445 -0.8246 -0.0579
   38MOL0     C 4905   7.297   5.319   7.109 -0.6515  0.3481 -0.1291
   38MOL0     C 4906   7.269   5.453   7.174 -0.0443 -1.0458  1.0911
   38MOL0     C 4907   7.127   5.478   7.229 -0.1490  0.2036  0.4554
   38MOL0     O 4908   7.154   5.535   7.357  0.2162 -0.2727 -0.7853
   38MOL0     C 4909   7.050   5.521   7.446  0.8216  0.1956 -0.0102
   38MOL0     C 4910   7.010   5.392   7.499 -0.0087 -0.2798 -0.4613
   38MOL0     C 4911   6.907   5.374   7.594  0.0536  0.7089  0.4127
   38MOL0     C 4912   6.846   5.486   7.650  0.4905 -0.1329 -0.3547
   38MOL0     C 4913   6.738   5.471   7.749  0.3904  0.0102  0.0402
   38MOL0     O 4914   6.738   5.349   7.813  0.1795  0.2610  0.8982
   38MOL0     C 4915   6.621   5.328   7.880 -0.2031  0.1012  0.2494
   38MOL0     C 4916   6.601   5.370   8.015 -0.5289 -0.4765  0.1223
   38MOL0     C 4917   6.484   5.325   8.093  0.4766 -0.6028  0.3450
   38MOL0     C 4918   6.381   5.265   8.026  0.5512 -0.7289  0.1794
   38MOL0     O 4919   6.261   5.225   8.081 -0.6494 -0.4868  0.4807
   38MOL0     C 4920   6.212   5.290   8.198  1.1631  0.1990  0.3981
   38MOL0     C 4921   6.070   5.248   8.235  0.7308  1.0496  0.3315
   38MOL0     C 4922   6.032   5.287   8.371 -0.5499  0.3463  0.1878
   38MOL0     C 4923   5.899   5.229   8.404 -0.3733 -0.1253 -0.1435
   38MOL0     C 4924   5.834   5.302   8.516 -1.4534 -0.1951  0.0446
   38MOL0     C 4925   5.711   5.241   8.563 -0.2520  0.1748 -0.5986
   38MOL0     C 4926   5.650   5.304   8.686  0.3111 -0.1388 -0.6977
   38MOL0     C 4927   5.743   5.304   8.805 -0.1550 -0.5595  0.3729
   38MOL0    Cl 4928   5.649   5.308   8.955  0.0100 -0.3137 -0.0330
   38MOL0     C 4929   6.401   5.233   7.890 -0.1110 -0.1527 -0.7669
   38MOL0     C 4930   6.520   5.250   7.823  0.4944 -0.7688 -0.7706
   38MOL0     O 4931   6.640   5.557   7.755 -0.6463  0.4121  0.0854
   38MOL0     C 4932   6.885   5.615   7.604 -0.1008  0.0254 -0.3759
   38MOL0     C 4933   6.979   5.631   7.497 -1.2601 -0.2081 -0.0080
   38MOL0     N 4934   7.353   5.073   6.945 -0.1239  0.0215 -0.1473
   38MOL0     N 4935   7.401   4.979   6.886 -0.1653 -0.5358  0.3576
   38MOL0     C 4936   8.396   4.880   6.782 -0.3854 -0.7486 -0.5863
   38MOL0     C 4937   8.512   4.884   6.859 -0.2887 -0.8634 -0.1689
   38MOL0     C 4938   8.976   4.925   6.930  0.3163  0.1209  0.4496
   38MOL0     C 4939   9.085   4.994   6.879 -0.1553 -0.1407  0.4741
   38MOL0     C 4940   9.180   5.060   6.955  0.3074  0.4060 -0.5239
   38MOL0     C 4941   9.167   5.061   7.095 -0.6025  0.2324  0.1836
   38MOL0     O 4942   9.254   5.125   7.179 -0.5063  0.5916 -0.3410
   38MOL0     C 4943   9.389   5.163   7.135  0.7134  0.2150 -1.0597
   38MOL0     C 4944   9.483   5.045   7.121  0.1362  0.1447 -0.0963
   38MOL0     C 4945   9.603   5.055   7.030  0.1682  0.0090 -1.1358
   38MOL0     C 4946   9.684   5.177   7.056 -0.2746 -1.2662 -0.3790
   38MOL0     C 4947   9.824   5.172   7.002 -0.0172 -0.0923 -0.4214
   38MOL0     C 4948   9.941   5.161   6.978 -0.9794  0.3716  0.8635
   38MOL0     C 4949   9.063   5.005   7.153  0.5215  0.1181 -0.8365
   38MOL0     C 4950   8.973   4.930   7.070  0.4110  0.1715  0.1628
   38MOL0     H 4951   8.716   4.660   6.724 -1.8980 -2.6811 -1.4461
   38MOL0     H 4952   8.518   4.630   6.579  1.3383 -1.2314  1.6312
   38MOL0     H 4953   8.274   4.573   6.560  2.6897 -0.8547 -1.4814
   38MOL0     H 4954   8.349   4.673   6.445  1.1719  2.5894  0.7703
   38MOL0     H 4955   8.086   4.573   6.440 -0.6540 -0.5002  0.6699
   38MOL0     H 4956   8.125   4.699   6.340  1.5377 -1.6796  0.8038
   38MOL0     H 4957   7.934   4.761   6.428  0.6043  2.1253 -1.1806
   38MOL0     H 4958   8.028   4.856   6.534 -2.0062 -0.5686  0.8179
   38MOL0     H 4959   7.936   4.584   6.609 -0.4606 -0.8507  1.6052
   38MOL0     H 4960   8.058   4.686   6.709 -0.3077  1.4543  0.6856
   38MOL0     H 4961   7.881   4.848   6.747 -0.2778 -1.3544  1.4348
   38MOL0     H 4962   7.842   4.704   6.820 -2.6525  1.3352  0.4943
   38MOL0     H 4963   7.704   4.648   6.602  4.3309 -0.8005  0.2787
   38MOL0     H 4964   7.728   4.806   6.540  0.7887 -0.0677 -0.9348
   38MOL0     H 4965   7.517   4.770   6.668 -0.1294 -0.8420  0.6676
   38MOL0     H 4966   7.605   4.745   6.818 -1.2231  2.3503  1.6434
   38MOL0     H 4967   7.618   5.002   6.654  2.6219 -3.3084 -1.3451
   38MOL0     H 4968   7.712   4.963   6.798 -0.2664  3.2383  2.6346
   38MOL0     H 4969   7.634   5.216   6.856  2.0026 -1.1080  2.3808
   38MOL0     H 4970   7.435   5.387   6.972  3.1473 -1.3725 -0.8160
   38MOL0     H 4971   7.517   5.325   7.114 -0.2184  1.9583 -0.6555
   38MOL0     H 4972   7.285   5.257   7.198 -1.3637  1.6272  0.6987
   38MOL0     H 4973   7.219   5.292   7.036  0.9560  0.2604 -1.9057
   38MOL0     H 4974   7.335   5.457   7.261  1.5288  0.7500 -0.1054
   38MOL0     H 4975   7.298   5.532   7.105  3.8920 -1.8411  1.6083
   38MOL0     H 4976   7.065   5.389   7.216  0.3590 -0.0979  0.0554
   38MOL0     H 4977   7.075   5.552   7.169  0.8465 -1.0547 -2.1400
   38MOL0     H 4978   7.052   5.296   7.472 -1.4490 -0.6348 -1.5450
   38MOL0     H 4979   6.885   5.272   7.625  0.2348 -0.4351 -2.8018
   38MOL0     H 4980   6.674   5.428   8.071 -2.0473  1.8278 -0.1432
   38MOL0     H 4981   6.458   5.354   8.195 -3.9115 -0.7438 -0.5811
   38MOL0     H 4982   6.211   5.399   8.184  0.6250  0.1344 -0.1269
   38MOL0     H 4983   6.279   5.266   8.281  0.4050 -0.6289  0.7832
   38MOL0     H 4984   6.062   5.140   8.218 -0.0608  1.3820 -1.6905
   38MOL0     H 4985   6.003   5.296   8.163  0.2653  3.0249  1.9895
   38MOL0     H 4986   6.019   5.396   8.376  0.6399  0.4959  0.2007
   38MOL0     H 4987   6.102   5.253   8.447 -1.9570 -0.6030  1.1119
   38MOL0     H 4988   5.834   5.230   8.316  0.4338 -0.8639 -0.7574
   38MOL0     H 4989   5.919   5.125   8.432  0.3769  0.9800  4.1875
   38MOL0     H 4990   5.808   5.400   8.475 -0.0435 -0.4914 -1.6627
   38MOL0     H 4991   5.904   5.310   8.599 -0.7661 -0.1513 -0.5300
   38MOL0     H 4992   5.716   5.134   8.585  1.3839  0.3123 -0.2051
   38MOL0     H 4993   5.634   5.252   8.486  1.0077  2.4991 -1.6403
   38MOL0     H 4994   5.613   5.405   8.663  0.3427 -0.1286 -0.7053
   38MOL0     H 4995   5.564   5.241   8.710 -0.7236  1.4315 -0.0985
   38MOL0     H 4996   5.815   5.386   8.794  0.4961 -1.0403  0.9738
   38MOL0     H 4997   5.802   5.212   8.793  0.8064  0.2575 -1.7282
   38MOL0     H 4998   6.318   5.186   7.839 -0.5441  0.8127 -0.9649
   38MOL0     H 4999   6.530   5.234   7.717 -0.1122  1.3259 -1.1987
   38MOL0     H 5000   6.843   5.703   7.653 -2.6487 -2.7004  2.8354
   38MOL0     H 5001   6.997   5.734   7.469 -2.8348  1.3767  4.0832
   38MOL0     H 5002   8.310   4.938   6.814  0.7011  1.3822 -1.3519
   38MOL0     H 5003   8.493   4.947   6.944  2.1481 -1.5971  1.0171
   38MOL0     H 5004   9.104   4.986   6.773  0.5749  0.2038  0.5706
   38MOL0     H 5005   9.263   5.119   6.918  1.1482 -0.7310 -0.4762
   38MOL0     H 5006   9.437   5.225   7.211 -1.1119 -0.3496  0.6256
   38MOL0     H 5007   9.381   5.218   7.040  0.6911  0.7625 -0.7430
   38MOL0     H 5008   9.523   5.035   7.222 -3.5214  3.2269  1.9323
   38MOL0     H 5009   9.423   4.958   7.094  0.4526 -0.0466 -0.1935
   38MOL0     H 5010   9.582   5.042   6.923  2.9694 -1.9711 -1.5350
   38MOL0     H 5011   9.669   4.972   7.057 -2.6825 -1.4368  2.1927
   38MOL0     H 5012   9.635   5.263   7.008 -0.3642 -0.3339  1.3146
   38MOL0     H 5013   9.687   5.189   7.165 -0.7821 -0.0312 -0.4780
   38MOL0     H 5014  10.046   5.165   6.955 -0.9706 -0.8161  0.6511
   38MOL0     H 5015   9.047   5.001   7.260  1.4701  0.9355 -0.6454
   38MOL0     H 5016   8.884   4.887   7.114  0.5382 -1.7630 -1.3179
   39MOL0     O 5017   9.416   6.806   9.973  0.0049 -0.3747 -0.7617
   39MOL0     C 5018   9.458   6.694   9.997  0.8889  0.9373 -0.4782
   39MOL0     O 5019   9.375   6.586  10.015  0.4076  0.5826  0.6137
   39MOL0     C 5020   9.242   6.573   9.967 -1.3048  0.5758  0.1521
   39MOL0     C 5021   9.197   6.649   9.864  0.4140 -0.3005  0.8404
   39MOL0     C 5022   9.067   6.614   9.803 -0.1193  0.5522 -0.0215
   39MOL0     C 5023   8.995   6.505   9.858 -0.2587 -0.3823  0.2144
   39MOL0     O 5024   8.886   6.472   9.784 -0.2827  0.5079  0.1578
   39MOL0     C 5025   8.852   6.331   9.779 -0.1599  0.2680  0.2137
   39MOL0     C 5026   8.803   6.294   9.642 -0.5217 -0.0499  0.1748
   39MOL0     C 5027   8.737   6.158   9.651 -0.1753  0.1640 -0.4597
   39MOL0     C 5028   8.583   6.162   9.647  0.1291  0.1186  0.1588
   39MOL0     C 5029   8.517   6.038   9.605 -0.6680  0.2276 -1.3398
   39MOL0     C 5030   8.365   6.073   9.589 -0.2078  0.4052 -0.3376
   39MOL0     C 5031   8.271   5.954   9.582 -0.5883  0.3682  0.2425
   39MOL0     C 5032   8.237   5.919   9.440 -0.2658  0.4044 -0.8094
   39MOL0     N 5033   8.138   5.818   9.424  0.9073  0.4875 -0.5877
   39MOL0     C 5034   8.013   5.832   9.480 -0.5697 -0.2730  1.4294
   39MOL0     C 5035   7.945   5.737   9.413 -0.2157  0.5026 -0.1140
   39MOL0     C 5036   7.800   5.720   9.409  0.8993 -0.6313 -0.1256
   39MOL0     C 5037   7.743   5.576   9.391  0.2512 -0.3443  0.4445
   39MOL0     C 5038   7.787   5.485   9.514  0.0275  0.0122 -0.5169
   39MOL0     C 5039   7.756   5.344   9.478  0.7962 -0.4151  0.1848
   39MOL0     O 5040   7.758   5.277   9.604  0.2116  0.2811 -0.6493
   39MOL0     C 5041   7.867   5.191   9.619 -0.0057 -0.6282 -0.1853
   39MOL0     C 5042   7.970   5.221   9.703 -1.4851 -0.5592  0.6766
   39MOL0     C 5043   8.089   5.147   9.718 -0.6910  0.1981  0.0575
   39MOL0     C 5044   8.089   5.023   9.653  0.2102 -0.2969  0.4394
   39MOL0     C 5045   8.206   4.929   9.667  0.1887  0.1106  0.0478
   39MOL0     O 5046   8.203   4.809   9.598 -0.3836 -0.5965  0.2379
   39MOL0     C 5047   8.298   4.707   9.605 -0.1518 -0.7906 -0.4101
   39MOL0     C 5048   8.437   4.738   9.624 -0.8205  0.2549  0.5700
   39MOL0     C 5049   8.536   4.642   9.619  1.1047 -0.5631  0.2533
   39MOL0     C 5050   8.495   4.506   9.611 -0.7002  1.0497 -0.2229
   39MOL0     O 5051   8.594   4.409   9.600  0.0786 -0.1121 -0.2155
   39MOL0     C 5052   8.564   4.279   9.652  0.1286  0.4851  0.0782
   39MOL0     C 5053   8.682   4.199   9.701  0.5718  0.6213 -0.2700
   39MOL0     C 5054   8.816   4.193   9.620 -0.7218  0.8907 -0.2175
   39MOL0     C 5055   8.906   4.074   9.680 -0.7917  0.8278 -0.3688
   39MOL0     C 5056   9.003   4.016   9.570  0.7844  0.7904  0.1146
   39MOL0     C 5057   9.103   4.118   9.531 -0.9741 -0.2643 -0.1999
   39MOL0     C 5058   9.207   4.049   9.435 -0.8144 -0.9333  0.4121
   39MOL0     C 5059   9.351   4.108   9.425  0.4274  0.1828 -0.2646
   39MOL0    Cl 5060   9.367   4.249   9.318 -0.1704 -0.0261  0.2260
   39MOL0     C 5061   8.362   4.474   9.594 -0.1013 -0.5533 -0.7953
   39MOL0     C 5062   8.266   4.569   9.591 -0.3916 -1.1509  0.0668
   39MOL0     O 5063   8.303   4.970   9.725  0.5473 -0.4592  0.2068
   39MOL0     C 5064   7.986   4.987   9.563  0.3274 -0.1093 -0.0838
   39MOL0     C 5065   7.878   5.073   9.545  0.7185  0.0157 -1.4171
   39MOL0     N 5066   8.038   5.657   9.337 -0.2186 -0.0845 -0.7492
   39MOL0     N 5067   8.160   5.709   9.359  0.0783 -0.1520 -0.6129
   39MOL0     C 5068   9.038   6.446   9.973 -0.1451 -0.5025  0.4005
   39MOL0     C 5069   9.164   6.470  10.018  1.2472  0.5035  1.0150
   39MOL0     C 5070   9.599   6.681  10.034  0.4249 -0.3339  1.0560
   39MOL0     C 5071   9.684   6.791  10.042 -0.2560  0.3739 -0.3060
   39MOL0     C 5072   9.822   6.784  10.070  0.5343 -0.1629 -0.6609
   39MOL0     C 5073   9.883   6.659  10.083  0.1241 -0.1022  0.3857
   39MOL0     O 5074  10.020   6.639  10.086  0.9581 -0.1860  0.3612
   39MOL0     C 5075  10.094   6.725  10.171 -0.9501 -0.8927  0.4679
   39MOL0     C 5076  10.247   6.684  10.159 -0.5180 -0.2519 -0.7186
   39MOL0     C 5077  10.326   6.775  10.251 -0.4405  0.3933 -0.5089
   39MOL0     C 5078  10.444   6.707  10.320  0.2836  1.1731  1.1590
   39MOL0     C 5079  10.547   6.670  10.214 -0.1668  0.5473 -0.3004
   39MOL0     C 5080  10.637   6.632  10.138  0.5970  0.7026 -0.5232
   39MOL0     C 5081   9.802   6.542  10.080 -0.6775  0.2088  0.4661
   39MOL0     C 5082   9.664   6.554  10.043  0.6679 -0.1309  0.5662
   39MOL0     H 5083   9.246   6.735   9.821 -0.0800 -0.8689 -0.9627
   39MOL0     H 5084   9.032   6.671   9.718  0.0815 -0.0042 -0.4790
   39MOL0     H 5085   8.777   6.308   9.855  0.0433  1.7884  0.9032
   39MOL0     H 5086   8.939   6.265   9.779 -0.8027 -0.6153  1.2527
   39MOL0     H 5087   8.890   6.290   9.575 -1.7680  1.4668 -1.6225
   39MOL0     H 5088   8.740   6.372   9.598 -0.9119 -1.1588 -1.3535
   39MOL0     H 5089   8.768   6.106   9.742 -2.1280 -0.7526 -0.2719
   39MOL0     H 5090   8.775   6.095   9.570 -0.7289 -0.4997 -0.2118
   39MOL0     H 5091   8.543   6.174   9.748 -0.3068  0.6354 -0.0686
   39MOL0     H 5092   8.554   6.243   9.579  0.5387 -0.9385 -1.3453
   39MOL0     H 5093   8.534   5.964   9.683 -0.5603  1.4852 -0.1428
   39MOL0     H 5094   8.568   5.999   9.516  0.9423  0.1329 -0.4284
   39MOL0     H 5095   8.348   6.148   9.511  2.7227  0.5457 -0.9581
   39MOL0     H 5096   8.351   6.129   9.682  0.6109  0.8721 -0.4794
   39MOL0     H 5097   8.308   5.876   9.650 -0.9792 -1.7106 -1.8194
   39MOL0     H 5098   8.177   5.983   9.631 -0.8318 -1.5015  0.9520
   39MOL0     H 5099   8.328   5.878   9.397  0.4007  0.0923  0.8214
   39MOL0     H 5100   8.196   6.009   9.392 -1.6044 -1.0401 -2.4754
   39MOL0     H 5101   7.978   5.901   9.556  4.2579 -0.6756  4.4184
   39MOL0     H 5102   7.767   5.785   9.327  0.0433 -0.7428  0.1235
   39MOL0     H 5103   7.755   5.772   9.494  5.1129  0.0988  1.9120
   39MOL0     H 5104   7.771   5.523   9.300 -2.5804 -2.1479  0.5130
   39MOL0     H 5105   7.634   5.580   9.386  0.3418  1.3796 -0.7675
   39MOL0     H 5106   7.893   5.478   9.539 -0.1066  0.4318  0.2002
   39MOL0     H 5107   7.720   5.514   9.596 -0.2994  1.1200 -1.1570
   39MOL0     H 5108   7.829   5.302   9.409  0.3327 -1.3840  0.2735
   39MOL0     H 5109   7.652   5.328   9.446 -1.5042  2.7036  4.8202
   39MOL0     H 5110   7.962   5.316   9.756 -0.3230 -0.8906  1.4977
   39MOL0     H 5111   8.165   5.168   9.792 -1.0127 -0.4096  0.5717
   39MOL0     H 5112   8.477   4.839   9.630 -3.0001  1.0901  2.8323
   39MOL0     H 5113   8.640   4.672   9.615  1.0999 -0.6059 -0.3145
   39MOL0     H 5114   8.514   4.227   9.570  0.8783  0.2616 -0.2462
   39MOL0     H 5115   8.484   4.266   9.725 -0.4186  1.0953 -0.4079
   39MOL0     H 5116   8.647   4.096   9.698  3.0606 -0.2737 -1.3522
   39MOL0     H 5117   8.701   4.228   9.805  0.3467 -1.8388  0.5053
   39MOL0     H 5118   8.873   4.286   9.626  0.5262  0.1401  0.1190
   39MOL0     H 5119   8.796   4.161   9.517 -0.7195  1.1317 -0.2936
   39MOL0     H 5120   8.972   4.111   9.759 -0.6663 -1.2140  0.5381
   39MOL0     H 5121   8.846   3.990   9.715  2.8990 -1.1357  1.9298
   39MOL0     H 5122   8.939   3.974   9.492 -2.6463  0.5173  2.7869
   39MOL0     H 5123   9.059   3.931   9.611 -1.3423 -0.2288  1.0547
   39MOL0     H 5124   9.155   4.169   9.613 -1.0823  1.3028 -1.0690
   39MOL0     H 5125   9.048   4.194   9.477 -2.3688 -0.7509  0.4785
   39MOL0     H 5126   9.222   3.942   9.448 -2.6973 -1.6273 -2.1952
   39MOL0     H 5127   9.166   4.066   9.335  0.2294  1.3377  0.2955
   39MOL0     H 5128   9.421   4.039   9.378  1.6852  1.6094 -0.5781
   39MOL0     H 5129   9.379   4.134   9.528  0.5797 -1.5936  0.1806
   39MOL0     H 5130   8.333   4.374   9.565 -0.4090 -0.6174 -0.2851
   39MOL0     H 5131   8.160   4.547   9.593 -1.4465  3.0297  2.3674
   39MOL0     H 5132   7.977   4.889   9.517 -2.5630  0.9992 -2.2137
   39MOL0     H 5133   7.791   5.062   9.481  1.6362  2.2453 -3.1978
   39MOL0     H 5134   8.979   6.366  10.017 -5.2637  2.9324  0.6689
   39MOL0     H 5135   9.201   6.410  10.101  1.0253 -4.4564 -2.0806
   39MOL0     H 5136   9.650   6.894  10.027  0.3233  0.2484 -2.8733
   39MOL0     H 5137   9.874   6.879  10.074 -3.1661  2.0612  3.3746
   39MOL0     H 5138  10.065   6.716  10.276  0.0308  0.2535  0.8628
   39MOL0     H 5139  10.088   6.829  10.138 -2.1532 -1.1758 -0.2359
   39MOL0     H 5140  10.269   6.583  10.195  3.0652  0.3547 -0.7906
   39MOL0     H 5141  10.283   6.716  10.061  1.0901  0.9418  0.2085
   39MOL0     H 5142  10.265   6.806  10.336 -1.2302 -2.4792  0.0725
   39MOL0     H 5143  10.375   6.848  10.187  3.8042 -2.2970 -0.7260
   39MOL0     H 5144  10.484   6.770  10.400  0.9217  2.3593 -0.0546
   39MOL0     H 5145  10.420   6.607  10.356  2.2253  0.3146  0.2587
   39MOL0     H 5146  10.715   6.612  10.068  0.9034  0.4822 -0.1203
   39MOL0     H 5147   9.854   6.447  10.087  1.7350  1.4876  1.0491
   39MOL0     H 5148   9.598   6.468  10.044 -2.1035  1.9010  0.3951
   40MOL0     O 5149   9.902   8.909   5.937 -0.2806 -0.2104 -0.7969
   40MOL0     C 5150   9.951   9.006   6.000 -0.5664 -0.3628 -0.4923
   40MOL0     O 5151   9.894   9.078   6.105  0.1155  0.4843  0.4833
   40MOL0     C 5152   9.803   9.011   6.192  0.7457 -0.0107  0.7001
   40MOL0     C 5153   9.668   9.002   6.163 -0.1608  0.3069  0.4161
   40MOL0     C 5154   9.593   8.921   6.238 -0.5151 -0.5870 -0.4064
   40MOL0     C 5155   9.649   8.862   6.353  0.5680 -0.3054  0.2131
   40MOL0     O 5156   9.551   8.781   6.411 -0.2826  0.1166 -0.0866
   40MOL0     C 5157   9.602   8.696   6.507 -0.6559 -0.0288  0.5532
   40MOL0     C 5158   9.499   8.597   6.554 -0.5108  0.2488 -0.2715
   40MOL0     C 5159   9.464   8.506   6.444 -0.7666 -0.1410  0.5535
   40MOL0     C 5160   9.433   8.366   6.496  0.1733  0.3712  1.0021
   40MOL0     C 5161   9.406   8.267   6.380  0.1926  1.7975 -0.0459
   40MOL0     C 5162   9.388   8.118   6.442  0.1546 -0.8995 -0.0487
   40MOL0     C 5163   9.349   8.005   6.341  0.0651 -0.8036  0.7472
   40MOL0     C 5164   9.439   8.005   6.230  0.1227 -0.1084  0.6034
   40MOL0     N 5165   9.572   7.973   6.266 -0.2996 -0.1564 -0.4145
   40MOL0     C 5166   9.620   7.873   6.352  0.1502  0.4983 -0.7560
   40MOL0     C 5167   9.755   7.906   6.367  0.0086  0.2781 -0.5185
   40MOL0     C 5168   9.857   7.830   6.457 -0.0422 -0.3278 -0.2587
   40MOL0     C 5169   9.889   7.889   6.590  0.3754  0.5951  0.3649
   40MOL0     C 5170   9.978   8.005   6.601 -0.7796  0.1691  1.0166
   40MOL0     C 5171  10.012   8.047   6.748  0.5784  1.3723 -0.6639
   40MOL0     O 5172  10.106   7.962   6.816  0.2013 -0.3583 -0.5309
   40MOL0     C 5173  10.052   7.852   6.889  0.8184 -0.3715  0.7649
   40MOL0     C 5174   9.952   7.864   6.990 -0.0953 -0.2858  0.8433
   40MOL0     C 5175   9.926   7.759   7.071 -0.8831  0.2669 -0.5351
   40MOL0     C 5176   9.987   7.628   7.053 -0.6526  0.5824  0.7865
   40MOL0     C 5177   9.943   7.509   7.140 -0.6331 -0.8103  0.4729
   40MOL0     O 5178   9.855   7.544   7.237  0.4979  0.0623 -0.4297
   40MOL0     C 5179   9.791   7.464   7.322  0.3729 -0.1736 -0.4502
   40MOL0     C 5180   9.807   7.322   7.328  0.0830 -0.0477 -0.0444
   40MOL0     C 5181   9.726   7.248   7.414 -0.0522  0.9321  0.5477
   40MOL0     C 5182   9.653   7.308   7.519  0.2035  0.5703  0.6839
   40MOL0     O 5183   9.586   7.230   7.614 -0.1754  0.8316  0.4898
   40MOL0     C 5184   9.462   7.280   7.662  0.0089  0.1244  0.1163
   40MOL0     C 5185   9.387   7.181   7.753  0.3631  0.9911  1.0204
   40MOL0     C 5186   9.244   7.230   7.769  0.7602 -0.0575 -0.0241
   40MOL0     C 5187   9.160   7.133   7.852 -0.2913  0.0534  0.1245
   40MOL0     C 5188   9.017   7.188   7.839 -0.1714  0.3158  0.0755
   40MOL0     C 5189   8.930   7.080   7.891  0.2828 -0.9512  0.0530
   40MOL0     C 5190   8.775   7.114   7.899 -0.8342  0.7918  0.1801
   40MOL0     C 5191   8.697   7.027   7.988  0.5836 -1.0880 -0.8341
   40MOL0    Cl 5192   8.571   7.125   8.069  0.3871  0.2569 -0.0638
   40MOL0     C 5193   9.642   7.447   7.511 -0.4109  0.6314 -0.1785
   40MOL0     C 5194   9.711   7.523   7.421 -0.3983 -0.1992  0.5149
   40MOL0     O 5195   9.984   7.396   7.114 -0.6711 -1.3961 -1.1804
   40MOL0     C 5196  10.098   7.624   6.961 -0.6377 -0.0853 -1.0934
   40MOL0     C 5197  10.118   7.736   6.877  0.1728 -0.2724  0.0892
   40MOL0     N 5198   9.781   8.016   6.289  0.3064  0.0168 -0.1906
   40MOL0     N 5199   9.675   8.053   6.230 -0.2707 -0.4051  0.0251
   40MOL0     C 5200   9.777   8.883   6.387 -0.3471  0.5564  0.1050
   40MOL0     C 5201   9.859   8.951   6.304  0.6131  0.1373  0.0704
   40MOL0     C 5202  10.077   9.067   5.943  0.2329 -0.6134  0.2296
   40MOL0     C 5203  10.135   9.006   5.830 -0.7652  0.0164  0.5778
   40MOL0     C 5204  10.248   9.050   5.768 -0.0460 -0.2061  0.7187
   40MOL0     C 5205  10.309   9.168   5.817 -0.1332  0.2228  0.1479
   40MOL0     O 5206  10.429   9.211   5.780  0.1860  0.3138 -0.1395
   40MOL0     C 5207  10.513   9.123   5.698 -0.0378 -0.0055  0.1851
   40MOL0     C 5208  10.552   8.995   5.773  0.3991 -0.5256 -0.0714
   40MOL0     C 5209  10.606   9.016   5.915 -0.0812  0.9689 -0.3692
   40MOL0     C 5210  10.743   9.068   5.924 -0.3767 -0.7459 -1.1500
   40MOL0     C 5211  10.844   8.969   5.884  0.7805  0.0295 -0.4532
   40MOL0     C 5212  10.921   8.884   5.849  1.3105 -0.4335  0.5823
   40MOL0     C 5213  10.249   9.240   5.921 -0.1122  0.0445 -1.1026
   40MOL0     C 5214  10.133   9.190   5.987  0.0239  0.7472 -0.1518
   40MOL0     H 5215   9.641   9.060   6.076  1.8388 -1.2977 -1.4092
   40MOL0     H 5216   9.488   8.908   6.213 -0.4492  0.4575 -1.3150
   40MOL0     H 5217   9.637   8.757   6.591 -0.9838  0.9972 -0.0510
   40MOL0     H 5218   9.691   8.635   6.485  0.0811  0.6715  1.4774
   40MOL0     H 5219   9.415   8.660   6.586 -1.3238  0.8790 -3.3152
   40MOL0     H 5220   9.539   8.538   6.637 -0.4746  4.0336  2.6868
   40MOL0     H 5221   9.543   8.495   6.370 -0.1840 -3.0589  1.4562
   40MOL0     H 5222   9.383   8.554   6.388  0.8005  1.1766 -0.6651
   40MOL0     H 5223   9.525   8.331   6.543  2.4025  3.3252 -0.8444
   40MOL0     H 5224   9.344   8.367   6.561 -0.3067  1.7736  0.3702
   40MOL0     H 5225   9.487   8.275   6.307 -0.2721  1.7293 -0.5710
   40MOL0     H 5226   9.316   8.302   6.329 -1.9390 -1.5441  1.1677
   40MOL0     H 5227   9.317   8.119   6.525  0.4386  0.8519  0.2128
   40MOL0     H 5228   9.477   8.095   6.502  0.5164  1.9013  0.6141
   40MOL0     H 5229   9.346   7.903   6.382  0.3858 -1.3333 -0.5163
   40MOL0     H 5230   9.245   8.021   6.309  0.2262  1.4439  1.1869
   40MOL0     H 5231   9.439   8.109   6.197 -2.4967  0.3711  1.8596
   40MOL0     H 5232   9.407   7.950   6.141 -0.4245  1.3859 -0.1587
   40MOL0     H 5233   9.565   7.786   6.386  3.5368 -2.4150 -2.1354
   40MOL0     H 5234   9.950   7.831   6.401 -0.6014  2.9536 -1.3311
   40MOL0     H 5235   9.816   7.729   6.461 -3.4588  0.9277 -0.2963
   40MOL0     H 5236   9.939   7.800   6.629  1.8591  0.8467 -0.8303
   40MOL0     H 5237   9.792   7.901   6.638 -0.2726  1.3286 -1.0458
   40MOL0     H 5238  10.074   7.979   6.557 -0.7712  1.6305  0.1180
   40MOL0     H 5239   9.935   8.092   6.551  0.0587  0.6859  1.1793
   40MOL0     H 5240   9.911   8.058   6.789 -0.0222  0.3730 -1.7983
   40MOL0     H 5241  10.052   8.149   6.753  0.4852  1.3475  1.3300
   40MOL0     H 5242   9.908   7.963   7.001 -0.1574 -0.0949 -0.8112
   40MOL0     H 5243   9.843   7.768   7.140 -0.6246  0.2559 -0.2223
   40MOL0     H 5244   9.869   7.263   7.262  1.8857 -1.4196  2.6468
   40MOL0     H 5245   9.725   7.139   7.417  0.3391  0.9222  0.3730
   40MOL0     H 5246   9.400   7.283   7.573  0.0140  1.7625  0.1455
   40MOL0     H 5247   9.470   7.376   7.714 -0.8912 -0.7018  1.9108
   40MOL0     H 5248   9.442   7.168   7.847  2.2889  0.7789 -0.1031
   40MOL0     H 5249   9.383   7.080   7.711  2.0382  1.5081 -0.4787
   40MOL0     H 5250   9.196   7.247   7.672  1.9635  0.3579 -0.5621
   40MOL0     H 5251   9.250   7.326   7.821  3.9629 -0.7044  1.0078
   40MOL0     H 5252   9.170   7.039   7.797  0.1684  0.3468 -0.3041
   40MOL0     H 5253   9.192   7.123   7.957 -0.1999  0.4031  0.1314
   40MOL0     H 5254   8.985   7.200   7.735 -0.7934  0.4710  0.2773
   40MOL0     H 5255   9.010   7.282   7.893 -2.9381 -0.3992  1.1550
   40MOL0     H 5256   8.969   7.051   7.989  0.8188  1.0678  0.4829
   40MOL0     H 5257   8.952   6.992   7.831  0.6429 -1.0649  0.3482
   40MOL0     H 5258   8.772   7.211   7.949 -0.4289  0.0987  1.5957
   40MOL0     H 5259   8.713   7.118   7.809 -0.8820 -0.7238  0.1207
   40MOL0     H 5260   8.765   6.991   8.066  0.1287 -2.5657 -1.0806
   40MOL0     H 5261   8.660   6.936   7.940  2.7070 -0.7274 -3.3297
   40MOL0     H 5262   9.580   7.502   7.582  0.5815  0.4083  0.9067
   40MOL0     H 5263   9.704   7.630   7.435 -0.0159 -0.2018  0.7322
   40MOL0     H 5264  10.148   7.531   6.939  0.2464  0.7516 -2.8540
   40MOL0     H 5265  10.194   7.719   6.801 -0.7757 -0.6103 -0.8152
   40MOL0     H 5266   9.808   8.821   6.471 -2.5056 -0.4450  0.2108
   40MOL0     H 5267   9.967   8.957   6.312  0.6627  2.5619 -1.2767
   40MOL0     H 5268  10.089   8.915   5.794 -1.4493 -0.8343  3.3223
   40MOL0     H 5269  10.297   8.996   5.687  1.1648 -0.4070  1.5488
   40MOL0     H 5270  10.602   9.180   5.668  1.3358 -2.7034 -1.2187
   40MOL0     H 5271  10.457   9.095   5.608  1.9314 -0.1330 -1.0856
   40MOL0     H 5272  10.478   8.914   5.771  1.0942 -1.1959  0.6287
   40MOL0     H 5273  10.636   8.968   5.708  2.2145  1.7497  1.1809
   40MOL0     H 5274  10.598   8.911   5.946 -3.1491  0.4668 -2.4393
   40MOL0     H 5275  10.534   9.068   5.978  0.9647  0.8106  0.9942
   40MOL0     H 5276  10.746   9.156   5.858 -2.6047 -0.0061 -0.3508
   40MOL0     H 5277  10.764   9.095   6.028 -0.3193 -0.1674 -1.3080
   40MOL0     H 5278  10.981   8.809   5.802 -0.2598 -0.8918 -0.8036
   40MOL0     H 5279  10.272   9.338   5.961 -1.4881 -0.6320  1.5444
   40MOL0     H 5280  10.084   9.238   6.071 -1.4039  1.8536 -1.5555
   41MOL0     O 5281   5.680   8.086   6.231  0.2135  0.6389  0.4236
   41MOL0     C 5282   5.612   8.018   6.312 -0.1518 -1.0712  0.0627
   41MOL0     O 5283   5.656   7.974   6.430  0.7038  0.3998 -0.7442
   41MOL0     C 5284   5.779   7.988   6.476 -0.6997 -0.1983  1.1399
   41MOL0     C 5285   5.897   7.989   6.405 -0.9731  1.4061 -0.5708
   41MOL0     C 5286   6.021   7.979   6.474 -0.0745  0.6165 -1.0240
   41MOL0     C 5287   6.025   7.970   6.617  0.1183 -0.6479 -0.1066
   41MOL0     O 5288   6.144   7.966   6.680 -0.2522  0.6422  0.2884
   41MOL0     C 5289   6.153   7.891   6.808 -0.5942 -0.3196  0.7321
   41MOL0     C 5290   6.175   7.735   6.788 -0.1570 -0.4795 -0.3318
   41MOL0     C 5291   6.191   7.659   6.920  0.4007  0.0344 -0.3577
   41MOL0     C 5292   6.172   7.508   6.896 -0.1922  0.4327  0.3325
   41MOL0     C 5293   6.304   7.435   6.840 -0.5266 -0.0604  0.0027
   41MOL0     C 5294   6.432   7.467   6.920  0.6488  0.5571  0.3623
   41MOL0     C 5295   6.555   7.405   6.866  0.6737  0.3634  0.0187
   41MOL0     C 5296   6.671   7.429   6.959 -0.6411  0.5720  0.3696
   41MOL0     N 5297   6.800   7.405   6.889 -0.5716 -0.5333 -0.3048
   41MOL0     C 5298   6.874   7.502   6.829 -0.4786  0.0506 -0.5017
   41MOL0     C 5299   6.985   7.440   6.774  0.3440  0.4076 -0.3282
   41MOL0     C 5300   7.110   7.498   6.723 -0.1549  0.3892  0.3727
   41MOL0     C 5301   7.146   7.457   6.579  0.4717  0.1760  0.3843
   41MOL0     C 5302   7.089   7.531   6.459 -0.2302 -0.7392 -0.2357
   41MOL0     C 5303   6.938   7.537   6.440  1.3627 -0.1299  0.0124
   41MOL0     O 5304   6.884   7.407   6.431  0.2009  0.5736  0.1482
   41MOL0     C 5305   6.756   7.393   6.469  0.0518  0.0784  0.7781
   41MOL0     C 5306   6.695   7.268   6.481 -0.4075 -0.8565  0.4657
   41MOL0     C 5307   6.560   7.235   6.490 -0.2385 -1.4243 -0.0333
   41MOL0     C 5308   6.465   7.342   6.476  0.8858  0.6969  0.8456
   41MOL0     C 5309   6.317   7.312   6.465 -0.4557 -0.6549 -0.5747
   41MOL0     O 5310   6.281   7.183   6.482  0.2706  0.3108  0.2974
   41MOL0     C 5311   6.152   7.150   6.495  0.1663  0.0572  0.2903
   41MOL0     C 5312   6.068   7.220   6.584 -0.2992 -0.1841  1.0940
   41MOL0     C 5313   5.935   7.202   6.592 -0.5363  0.4922 -0.5498
   41MOL0     C 5314   5.876   7.109   6.518  0.6500  0.5288 -0.4900
   41MOL0     O 5315   5.739   7.098   6.526  0.3013  0.1732  0.2508
   41MOL0     C 5316   5.663   6.997   6.463 -0.1810  0.6706 -0.2799
   41MOL0     C 5317   5.536   6.971   6.540 -0.6845 -0.0410 -0.8147
   41MOL0     C 5318   5.434   7.080   6.519  0.3611 -0.3378  1.1246
   41MOL0     C 5319   5.286   7.033   6.538  0.2255 -0.2649 -0.0480
   41MOL0     C 5320   5.190   7.147   6.557  0.4417  0.6232 -0.0560
   41MOL0     C 5321   5.045   7.090   6.567 -0.2682  0.2529 -1.6535
   41MOL0     C 5322   4.998   7.007   6.451  0.1186 -1.4298  0.5367
   41MOL0     C 5323   4.841   6.996   6.459 -1.0133  0.2616  0.2709
   41MOL0    Cl 5324   4.808   6.868   6.571  0.3443 -0.0167  0.0060
   41MOL0     C 5325   5.957   7.019   6.430  0.6805 -0.8067  0.4866
   41MOL0     C 5326   6.095   7.045   6.413  0.4693 -0.7661  0.2143
   41MOL0     O 5327   6.237   7.404   6.448  0.2539 -0.5402 -0.2812
   41MOL0     C 5328   6.518   7.469   6.479 -0.6059 -0.1259  0.6241
   41MOL0     C 5329   6.658   7.497   6.469  0.4714 -0.5666 -0.2135
   41MOL0     N 5330   6.971   7.308   6.794  0.0241  1.8312 -0.0216
   41MOL0     N 5331   6.863   7.283   6.861  0.3017  0.4228 -0.0505
   41MOL0     C 5332   5.902   7.960   6.682 -0.2040 -0.1769 -0.5731
   41MOL0     C 5333   5.780   7.977   6.613 -0.3228 -1.0710 -0.6786
   41MOL0     C 5334   5.471   7.997   6.270 -0.3431 -0.5554 -0.5451
   41MOL0     C 5335   5.429   8.036   6.146 -0.9165 -0.3092  0.0291
   41MOL0     C 5336   5.296   8.033   6.114 -0.0011  1.0900 -0.4920
   41MOL0     C 5337   5.206   8.001   6.214  0.1168 -0.1563  0.3515
   41MOL0     O 5338   5.076   8.011   6.175  0.3649 -0.2668  0.1814
   41MOL0     C 5339   4.976   7.914   6.216  1.1445  0.0928 -0.4412
   41MOL0     C 5340   4.848   7.955   6.144  0.0837  0.6916 -0.1834
   41MOL0     C 5341   4.760   7.829   6.130  0.1873  0.4858  0.3373
   41MOL0     C 5342   4.663   7.857   6.012  0.4240  0.6258  0.2424
   41MOL0     C 5343   4.597   7.732   5.975  0.2201  0.7853  0.6792
   41MOL0     C 5344   4.541   7.633   5.933  0.1209 -0.3101 -0.0421
   41MOL0     C 5345   5.243   7.933   6.328  0.2361  0.3245  0.2065
   41MOL0     C 5346   5.376   7.932   6.352 -0.6456 -0.0873  0.7083
   41MOL0     H 5347   5.891   8.000   6.297 -2.5342  0.3770 -0.6137
   41MOL0     H 5348   6.115   7.971   6.421  2.1009  2.7266  2.1885
   41MOL0     H 5349   6.083   7.932   6.882 -0.8308  0.5498  0.0392
   41MOL0     H 5350   6.242   7.928   6.860 -0.9871 -1.3834  2.2218
   41MOL0     H 5351   6.268   7.725   6.732  0.5497 -0.8302  0.8711
   41MOL0     H 5352   6.097   7.688   6.726 -0.6704 -2.6505  1.8160
   41MOL0     H 5353   6.111   7.686   6.990 -0.2098  1.5772 -1.6066
   41MOL0     H 5354   6.275   7.684   6.986 -0.8733  0.5821  1.1215
   41MOL0     H 5355   6.161   7.459   6.993  1.2642 -0.8962 -0.1433
   41MOL0     H 5356   6.091   7.480   6.827 -0.1562  2.2634 -0.5018
   41MOL0     H 5357   6.319   7.452   6.733  1.1096 -0.6053  0.1223
   41MOL0     H 5358   6.289   7.327   6.851 -0.4041  0.1554  2.9793
   41MOL0     H 5359   6.423   7.453   7.028  1.0114  1.1786  0.4783
   41MOL0     H 5360   6.435   7.576   6.906 -0.7070  0.6968  0.9834
   41MOL0     H 5361   6.548   7.296   6.875  1.8527  0.4691  4.3073
   41MOL0     H 5362   6.564   7.445   6.765  2.1079 -0.0575 -0.0311
   41MOL0     H 5363   6.667   7.359   7.043  2.5587 -1.2773 -0.8640
   41MOL0     H 5364   6.677   7.525   7.011  3.2281 -1.1551  3.6960
   41MOL0     H 5365   6.860   7.610   6.831  4.2370  0.8733  0.1706
   41MOL0     H 5366   7.186   7.470   6.797  1.0726  0.6644 -0.7365
   41MOL0     H 5367   7.109   7.607   6.728 -0.7549  0.3213  2.9646
   41MOL0     H 5368   7.121   7.351   6.566 -0.9980  0.2941  1.9507
   41MOL0     H 5369   7.255   7.457   6.574  0.7170 -0.1700  3.8094
   41MOL0     H 5370   7.136   7.630   6.460 -0.2995 -0.6926 -0.9966
   41MOL0     H 5371   7.137   7.498   6.367 -2.2264  0.9150 -1.9959
   41MOL0     H 5372   6.916   7.596   6.351  2.1589  0.1225 -0.0286
   41MOL0     H 5373   6.898   7.592   6.526  1.4957 -1.2036  0.7823
   41MOL0     H 5374   6.776   7.195   6.478  1.6275  1.2940 -1.3425
   41MOL0     H 5375   6.527   7.132   6.504  1.3929 -1.7375  1.9448
   41MOL0     H 5376   6.120   7.291   6.649  0.0475  3.5531 -2.7956
   41MOL0     H 5377   5.871   7.257   6.661 -1.7054 -2.2505  0.7104
   41MOL0     H 5378   5.722   6.906   6.447  0.8828  1.3586 -0.3792
   41MOL0     H 5379   5.618   7.028   6.368 -0.2010 -2.4237 -1.4019
   41MOL0     H 5380   5.546   6.955   6.647 -1.6105  2.8284 -0.1986
   41MOL0     H 5381   5.492   6.881   6.495 -0.3997  0.4451 -2.1328
   41MOL0     H 5382   5.455   7.131   6.424 -1.9997  1.4503  1.4758
   41MOL0     H 5383   5.454   7.157   6.593  0.7867 -0.0154  0.6805
   41MOL0     H 5384   5.268   6.964   6.455 -1.4111 -1.4611  1.2250
   41MOL0     H 5385   5.283   6.976   6.631  1.9525 -0.9776 -0.4035
   41MOL0     H 5386   5.200   7.212   6.469  2.9774 -0.8084 -0.9220
   41MOL0     H 5387   5.219   7.216   6.637 -0.5521  1.3974 -0.3361
   41MOL0     H 5388   4.982   7.180   6.563  0.7698  1.1543  0.5746
   41MOL0     H 5389   5.026   7.036   6.660 -1.1636  1.0099 -1.3834
   41MOL0     H 5390   5.027   7.059   6.358 -4.0050 -1.8319 -1.1998
   41MOL0     H 5391   5.046   6.910   6.438  1.6196 -0.4477 -2.2958
   41MOL0     H 5392   4.806   6.975   6.357  4.4695  1.9429 -2.3359
   41MOL0     H 5393   4.792   7.093   6.472  1.4050  1.4473  1.1620
   41MOL0     H 5394   5.903   6.946   6.371 -0.7280 -0.2898  1.0790
   41MOL0     H 5395   6.157   6.986   6.347 -1.0215 -1.5929 -0.5178
   41MOL0     H 5396   6.457   7.558   6.468 -2.4081 -1.5200 -1.2729
   41MOL0     H 5397   6.686   7.598   6.442  2.8523 -1.4153 -1.2400
   41MOL0     H 5398   5.909   7.960   6.790  0.7932  3.3302 -0.5142
   41MOL0     H 5399   5.690   7.963   6.672  0.8095  2.4836  2.2792
   41MOL0     H 5400   5.505   8.085   6.086 -1.2136  0.8195  0.5436
   41MOL0     H 5401   5.264   8.076   6.019  0.2345  2.0491 -0.1487
   41MOL0     H 5402   4.960   7.924   6.324 -1.6648  1.0881 -0.8777
   41MOL0     H 5403   5.010   7.812   6.196  1.4790  0.0122  0.4991
   41MOL0     H 5404   4.788   8.029   6.198 -1.6491  0.5015 -1.7591
   41MOL0     H 5405   4.874   8.003   6.050  0.1820  0.7079 -0.1478
   41MOL0     H 5406   4.699   7.815   6.219 -0.9553  5.6538  0.6860
   41MOL0     H 5407   4.817   7.739   6.108 -1.9471 -1.2538  1.6157
   41MOL0     H 5408   4.582   7.924   6.041 -1.0995 -0.4287 -1.4005
   41MOL0     H 5409   4.722   7.896   5.929  1.1823 -1.7328 -0.4188
   41MOL0     H 5410   4.502   7.549   5.879 -0.0168 -0.7254  0.6975
   41MOL0     H 5411   5.174   7.898   6.404 -0.9124  1.9586 -0.0348
   41MOL0     H 5412   5.423   7.870   6.428  0.1921 -3.1819 -2.0816
   42MOL0     O 5413   5.589   4.729   4.011 -0.0708  0.1470 -0.4893
   42MOL0     C 5414   5.598   4.608   4.012  0.1193 -0.6358 -1.0433
   42MOL0     O 5415   5.710   4.538   4.040  0.1142  0.6693 -0.3008
   42MOL0     C 5416   5.828   4.600   4.061 -0.6562  0.1521 -0.7385
   42MOL0     C 5417   5.854   4.724   4.119 -0.7813 -0.1384 -0.7165
   42MOL0     C 5418   5.982   4.785   4.106  0.7783  1.4164  0.3929
   42MOL0     C 5419   6.088   4.718   4.054 -0.3985  0.3316  0.7688
   42MOL0     O 5420   6.201   4.797   4.058  0.2200  0.3429 -0.0471
   42MOL0     C 5421   6.316   4.741   3.985 -0.0657  0.1046 -0.2963
   42MOL0     C 5422   6.428   4.843   3.974  0.6684  1.1831  0.9624
   42MOL0     C 5423   6.570   4.791   3.933 -0.6278  0.3618 -0.0264
   42MOL0     C 5424   6.668   4.900   3.915 -1.5279 -0.3247 -0.6545
   42MOL0     C 5425   6.798   4.875   3.849 -0.0056  0.3410  0.6256
   42MOL0     C 5426   6.865   5.017   3.842  0.3604  0.5657 -0.2644
   42MOL0     C 5427   7.017   4.998   3.789  0.7582  0.0499  0.6542
   42MOL0     C 5428   7.116   4.927   3.885  0.3716 -0.3925 -0.3930
   42MOL0     N 5429   7.253   4.929   3.838 -0.6251 -0.1433  0.1236
   42MOL0     C 5430   7.332   4.817   3.836  0.0769 -0.6342 -0.3246
   42MOL0     C 5431   7.455   4.866   3.813 -0.5297 -0.3085 -0.1767
   42MOL0     C 5432   7.580   4.781   3.783  0.2931 -0.5584 -0.1141
   42MOL0     C 5433   7.691   4.872   3.717  0.0491 -0.3399  0.0081
   42MOL0     C 5434   7.824   4.799   3.699 -0.3369  0.0044 -1.1374
   42MOL0     C 5435   7.948   4.891   3.732 -0.0435 -0.2558 -0.3200
   42MOL0     O 5436   8.068   4.812   3.723 -0.7707 -0.0357 -0.0987
   42MOL0     C 5437   8.172   4.835   3.804  0.3661  0.4273 -0.1198
   42MOL0     C 5438   8.247   4.721   3.843  0.0061  0.7139  0.2284
   42MOL0     C 5439   8.352   4.728   3.934  0.5328  0.1112  0.4394
   42MOL0     C 5440   8.394   4.849   3.988 -0.1367  1.2047 -0.3430
   42MOL0     C 5441   8.502   4.861   4.089  0.6437  0.1936  0.4571
   42MOL0     O 5442   8.553   4.750   4.152  0.2700  0.2228  0.0247
   42MOL0     C 5443   8.644   4.763   4.259 -0.9339 -0.5347  1.0520
   42MOL0     C 5444   8.762   4.841   4.246 -0.2940 -0.0573 -0.1987
   42MOL0     C 5445   8.852   4.847   4.357 -1.0650  1.2909 -1.2537
   42MOL0     C 5446   8.820   4.792   4.483  0.6887  0.3454  0.6788
   42MOL0     O 5447   8.893   4.800   4.596  0.0461  0.3403 -0.0235
   42MOL0     C 5448   9.020   4.868   4.599 -0.0209 -0.0828 -0.0543
   42MOL0     C 5449   9.113   4.847   4.720 -0.0148  0.2582  0.0384
   42MOL0     C 5450   9.232   4.950   4.727 -0.8007  0.0923  0.4732
   42MOL0     C 5451   9.323   4.944   4.601  0.1966  0.4595  0.7116
   42MOL0     C 5452   9.408   4.818   4.587  0.3961 -0.5054 -0.3081
   42MOL0     C 5453   9.496   4.842   4.460 -0.8016 -0.9417 -0.3888
   42MOL0     C 5454   9.579   4.724   4.420  0.0975  0.2176 -0.6567
   42MOL0     C 5455   9.688   4.747   4.322 -0.8768 -0.2917  1.2188
   42MOL0    Cl 5456   9.618   4.830   4.163  0.3826 -0.0561 -0.2763
   42MOL0     C 5457   8.693   4.730   4.502  0.7846 -0.1389  0.5287
   42MOL0     C 5458   8.616   4.699   4.383 -0.2647 -1.3039 -0.4508
   42MOL0     O 5459   8.533   4.977   4.118  0.0421 -0.4141 -0.0942
   42MOL0     C 5460   8.326   4.962   3.940  0.3536 -0.9116 -0.6692
   42MOL0     C 5461   8.213   4.961   3.859  0.4456 -0.7240 -0.2722
   42MOL0     N 5462   7.454   5.002   3.817 -0.2913  0.1029  0.4471
   42MOL0     N 5463   7.331   5.039   3.830 -0.2681 -1.1182 -0.2325
   42MOL0     C 5464   6.071   4.587   3.999  0.3198 -0.3438 -0.4979
   42MOL0     C 5465   5.941   4.533   4.005  0.3775  0.5844 -0.1954
   42MOL0     C 5466   5.475   4.528   4.002  0.2028  0.0675  0.4837
   42MOL0     C 5467   5.353   4.600   3.979  0.3894  0.6772  0.6015
   42MOL0     C 5468   5.231   4.535   3.992  0.4910  0.6259  0.2091
   42MOL0     C 5469   5.225   4.398   4.028  0.3197  1.2237  0.8531
   42MOL0     O 5470   5.109   4.328   4.037  0.7791  0.0950  0.0480
   42MOL0     C 5471   5.011   4.344   3.938  0.4450  0.1574  0.9846
   42MOL0     C 5472   4.929   4.213   3.929 -0.2645  0.7035  0.2333
   42MOL0     C 5473   4.858   4.200   3.795  0.7772  0.2008  0.3699
   42MOL0     C 5474   4.740   4.100   3.814 -0.4292  0.4015 -0.4783
   42MOL0     C 5475   4.634   4.157   3.903 -0.6287  0.0854 -0.4120
   42MOL0     C 5476   4.555   4.214   3.973  0.5796 -0.4306 -0.1280
   42MOL0     C 5477   5.346   4.331   4.031 -0.4041 -0.4412  0.3519
   42MOL0     C 5478   5.474   4.388   4.016  0.1160 -0.7686  0.1760
   42MOL0     H 5479   5.779   4.788   4.164 -0.0535  1.0594 -1.1483
   42MOL0     H 5480   5.980   4.890   4.134  1.2233  1.8841 -1.2397
   42MOL0     H 5481   6.287   4.712   3.883 -1.6618 -0.1588  0.2075
   42MOL0     H 5482   6.348   4.648   4.034 -3.7586 -1.3712 -0.3263
   42MOL0     H 5483   6.437   4.901   4.066  4.8796  0.1594  1.4072
   42MOL0     H 5484   6.391   4.902   3.890 -1.1443 -0.6871  0.3341
   42MOL0     H 5485   6.567   4.732   3.842 -2.7725  3.5621 -2.2315
   42MOL0     H 5486   6.603   4.728   4.017 -1.0501  0.7474  0.4337
   42MOL0     H 5487   6.612   4.982   3.870 -1.1415  1.0663  1.2694
   42MOL0     H 5488   6.688   4.935   4.017  0.9893 -0.8226 -0.9071
   42MOL0     H 5489   6.768   4.850   3.747 -3.2770 -2.1645  2.0369
   42MOL0     H 5490   6.850   4.789   3.893 -4.2562 -3.5844 -1.2453
   42MOL0     H 5491   6.849   5.062   3.940 -1.5178  0.5456 -0.5370
   42MOL0     H 5492   6.815   5.076   3.764 -0.6414 -0.8513 -0.7300
   42MOL0     H 5493   7.014   4.955   3.688  0.5960 -0.0139  0.6853
   42MOL0     H 5494   7.065   5.095   3.779  0.1142  0.1221 -2.9978
   42MOL0     H 5495   7.082   4.823   3.893  2.1948 -0.9264  1.2237
   42MOL0     H 5496   7.097   4.964   3.986 -2.8582 -0.7224 -0.7930
   42MOL0     H 5497   7.306   4.712   3.844  0.5711 -0.6688  1.1370
   42MOL0     H 5498   7.557   4.692   3.723  1.4268 -0.6561 -0.4165
   42MOL0     H 5499   7.621   4.735   3.874  0.5809 -0.5215 -0.2248
   42MOL0     H 5500   7.713   4.956   3.783  1.6499 -0.1937 -0.6685
   42MOL0     H 5501   7.650   4.912   3.623 -3.2604 -1.9154  0.6485
   42MOL0     H 5502   7.844   4.715   3.766  0.1726 -0.2585 -1.6088
   42MOL0     H 5503   7.817   4.762   3.596  1.1161 -2.7675 -0.3296
   42MOL0     H 5504   7.931   4.923   3.836  4.7140 -0.9204  0.8889
   42MOL0     H 5505   7.942   4.978   3.667 -1.1946 -0.7492 -0.9036
   42MOL0     H 5506   8.225   4.616   3.827 -0.6739  0.8535  0.2308
   42MOL0     H 5507   8.391   4.632   3.966 -2.3819 -1.3312 -0.0028
   42MOL0     H 5508   8.778   4.892   4.152 -0.1213  2.1418  0.9726
   42MOL0     H 5509   8.941   4.904   4.333  0.2531 -1.2567 -2.9288
   42MOL0     H 5510   8.995   4.974   4.598 -0.4840 -0.0068  3.8311
   42MOL0     H 5511   9.079   4.857   4.507  1.8499  1.2840  0.9187
   42MOL0     H 5512   9.145   4.743   4.728 -0.4689  0.2220  2.1410
   42MOL0     H 5513   9.048   4.844   4.809 -1.1943 -0.5966 -0.8199
   42MOL0     H 5514   9.296   4.919   4.810  1.8914  0.2167 -1.4354
   42MOL0     H 5515   9.190   5.049   4.745  0.6350  0.9676 -0.8094
   42MOL0     H 5516   9.274   4.961   4.505  1.8518  1.6600  0.0256
   42MOL0     H 5517   9.399   5.022   4.610 -0.6264  1.2120  1.2349
   42MOL0     H 5518   9.339   4.735   4.569 -1.4215  1.2096 -1.5881
   42MOL0     H 5519   9.466   4.812   4.680 -0.1127  0.5424  0.0970
   42MOL0     H 5520   9.566   4.922   4.486  0.6261 -2.6343  1.2789
   42MOL0     H 5521   9.435   4.868   4.373 -1.0758 -2.1256 -0.5592
   42MOL0     H 5522   9.632   4.685   4.508  1.8002  0.1440 -1.6682
   42MOL0     H 5523   9.502   4.651   4.393 -1.5081  1.8849 -0.7838
   42MOL0     H 5524   9.738   4.652   4.300 -2.5608 -0.9938  0.2807
   42MOL0     H 5525   9.751   4.828   4.359  0.6239  0.1571 -1.9684
   42MOL0     H 5526   8.677   4.687   4.600  0.7143 -1.8605 -0.2034
   42MOL0     H 5527   8.527   4.639   4.403 -2.3980  1.7273 -0.2267
   42MOL0     H 5528   8.362   5.056   3.982  0.6243 -0.8121 -1.1179
   42MOL0     H 5529   8.157   5.053   3.847 -0.3305 -0.2834  4.6191
   42MOL0     H 5530   6.156   4.526   3.971 -0.1715 -2.5713  2.3709
   42MOL0     H 5531   5.930   4.436   3.957 -0.0364  0.0602  0.9399
   42MOL0     H 5532   5.352   4.708   3.966  2.3175  0.7194  0.5871
   42MOL0     H 5533   5.149   4.606   3.999  1.7248  2.1416 -0.1795
   42MOL0     H 5534   5.052   4.348   3.837 -0.9071 -1.7174  0.3231
   42MOL0     H 5535   4.957   4.438   3.955  1.3185  0.8030  0.3568
   42MOL0     H 5536   4.998   4.128   3.935  0.0166  1.0564  2.8606
   42MOL0     H 5537   4.866   4.214   4.018  1.8574 -0.8999  1.8395
   42MOL0     H 5538   4.928   4.163   3.719 -0.7375  1.9657 -2.0799
   42MOL0     H 5539   4.814   4.289   3.748 -2.1068  0.1539  2.7147
   42MOL0     H 5540   4.708   4.068   3.715 -1.2172  2.0468 -0.7973
   42MOL0     H 5541   4.782   4.017   3.872 -0.4329  0.5648 -0.2364
   42MOL0     H 5542   4.486   4.268   4.035  0.8673  1.6284 -1.4947
   42MOL0     H 5543   5.345   4.226   4.056 -0.9947 -0.4070  0.4758
   42MOL0     H 5544   5.565   4.330   4.027  2.3588  2.3329 -0.6920
   43MOL0     O 5545   9.291   9.258   2.630 -0.1566 -0.3721 -0.6248
   43MOL0     C 5546   9.351   9.328   2.550  0.7823 -0.4491 -0.1235
   43MOL0     O 5547   9.300   9.398   2.446  1.3453 -0.1990  0.6400
   43MOL0     C 5548   9.164   9.411   2.433 -0.9221  0.4605 -0.2004
   43MOL0     C 5549   9.102   9.522   2.485 -0.3364  0.0196  0.1093
   43MOL0     C 5550   8.965   9.547   2.449  0.8704  0.0572  0.2197
   43MOL0     C 5551   8.897   9.472   2.355  0.0390 -0.3520  0.9008
   43MOL0     O 5552   8.765   9.491   2.311 -0.3347  0.2769 -0.7078
   43MOL0     C 5553   8.669   9.510   2.414 -0.5861  0.2017 -0.8761
   43MOL0     C 5554   8.532   9.511   2.347 -0.0202  0.3716 -0.1552
   43MOL0     C 5555   8.408   9.502   2.425 -0.3270  0.4847  0.7342
   43MOL0     C 5556   8.287   9.444   2.347 -0.0096  0.8882 -1.5194
   43MOL0     C 5557   8.259   9.507   2.212 -0.4196  0.4595  0.4130
   43MOL0     C 5558   8.133   9.455   2.160 -0.1385  0.5908 -0.3523
   43MOL0     C 5559   8.106   9.490   2.013 -0.6487 -0.2574  0.3546
   43MOL0     C 5560   7.976   9.441   1.962  0.4499 -0.5954  0.9042
   43MOL0     N 5561   7.867   9.535   1.983 -0.5543 -0.9068 -0.6525
   43MOL0     C 5562   7.871   9.669   1.983 -0.5561  0.1597  0.0333
   43MOL0     C 5563   7.752   9.706   2.034 -0.1446 -0.5450 -0.2652
   43MOL0     C 5564   7.728   9.862   2.063  0.4350  0.5058  0.2613
   43MOL0     C 5565   7.606   9.910   1.968 -1.2044  0.5579 -0.1698
   43MOL0     C 5566   7.470   9.900   2.041 -1.0827 -0.7224 -0.3378
   43MOL0     C 5567   7.358   9.951   1.962 -0.3706  0.1305 -0.0909
   43MOL0     O 5568   7.245   9.921   2.039 -0.3404 -0.4657  0.3874
   43MOL0     C 5569   7.121   9.978   2.004  0.0566  0.6756 -1.0942
   43MOL0     C 5570   7.093  10.051   1.884 -0.1053 -0.1915 -0.2145
   43MOL0     C 5571   6.966  10.108   1.868 -0.4344 -0.1093  0.0796
   43MOL0     C 5572   6.870  10.108   1.972 -0.1036  0.0067 -0.3845
   43MOL0     C 5573   6.734  10.165   1.963  0.3070 -0.1003 -0.2574
   43MOL0     O 5574   6.696  10.213   1.842 -0.3212 -0.2436 -0.0316
   43MOL0     C 5575   6.564  10.238   1.825  0.7712  0.1684  0.6013
   43MOL0     C 5576   6.499  10.342   1.890  0.5321 -0.2904 -0.6101
   43MOL0     C 5577   6.368  10.378   1.852 -0.9400 -0.5324 -0.5802
   43MOL0     C 5578   6.299  10.308   1.754 -0.5213  0.3364  0.0936
   43MOL0     O 5579   6.170  10.326   1.720 -0.0251  0.4318 -1.0279
   43MOL0     C 5580   6.083  10.433   1.779 -0.9060  0.4748  0.4821
   43MOL0     C 5581   6.115  10.564   1.706 -0.4786  0.6512  0.9588
   43MOL0     C 5582   6.105  10.551   1.559 -0.4081  0.4811 -0.5867
   43MOL0     C 5583   6.077  10.671   1.475 -0.2142 -0.3742  0.7946
   43MOL0     C 5584   6.025  10.637   1.338  0.1484  0.6002 -0.4370
   43MOL0     C 5585   6.031  10.760   1.240 -0.1439  0.2956 -0.3036
   43MOL0     C 5586   5.951  10.734   1.116 -0.8201 -0.4481  0.2419
   43MOL0     C 5587   5.797  10.732   1.136  0.0073  1.3585 -0.7987
   43MOL0    Cl 5588   5.751  10.901   1.153  0.3995 -0.0107  0.3762
   43MOL0     C 5589   6.361  10.202   1.696  0.4878 -1.4969  0.6521
   43MOL0     C 5590   6.491  10.158   1.735  0.1247 -0.2827 -0.5345
   43MOL0     O 5591   6.654  10.153   2.063 -0.2637  0.0229 -0.2783
   43MOL0     C 5592   6.915  10.054   2.096 -0.3518 -0.2817 -0.0809
   43MOL0     C 5593   7.037   9.990   2.109 -0.1337 -0.3586  0.5476
   43MOL0     N 5594   7.672   9.594   2.056  0.2797 -0.6115  0.0062
   43MOL0     N 5595   7.743   9.495   2.013 -0.0244  0.0646 -0.1311
   43MOL0     C 5596   8.960   9.357   2.303 -0.2240 -0.0710 -0.1738
   43MOL0     C 5597   9.097   9.336   2.338  1.2358 -0.3369  0.0087
   43MOL0     C 5598   9.491   9.346   2.578  1.0317  0.4423  0.5710
   43MOL0     C 5599   9.532   9.341   2.708 -0.0739 -0.8746  0.4375
   43MOL0     C 5600   9.666   9.363   2.747 -0.9060 -0.1198  0.1570
   43MOL0     C 5601   9.761   9.417   2.655 -0.3186  0.7397 -0.7103
   43MOL0     O 5602   9.890   9.437   2.684  0.2121 -0.0020  0.5626
   43MOL0     C 5603   9.924   9.422   2.829  0.3052  0.3719  0.9066
   43MOL0     C 5604  10.066   9.472   2.848 -0.8175  0.4206  0.4446
   43MOL0     C 5605  10.126   9.422   2.984  0.0876  0.3094  0.0447
   43MOL0     C 5606  10.167   9.274   2.987 -0.2058  0.0088  0.1662
   43MOL0     C 5607  10.168   9.214   3.117 -0.8189 -0.4290  0.1067
   43MOL0     C 5608  10.164   9.137   3.208 -0.0791  0.4586  0.4293
   43MOL0     C 5609   9.719   9.435   2.524  0.3768  0.2422  0.6997
   43MOL0     C 5610   9.583   9.395   2.484 -0.2838  0.0251  0.6324
   43MOL0     H 5611   9.150   9.582   2.562 -0.0482  1.0988 -0.8876
   43MOL0     H 5612   8.918   9.633   2.496  0.2207 -0.1267 -0.0904
   43MOL0     H 5613   8.685   9.604   2.468 -1.0187 -0.6018  0.7415
   43MOL0     H 5614   8.675   9.424   2.482  0.8860 -0.8883 -2.2903
   43MOL0     H 5615   8.535   9.424   2.281 -0.3040  0.3861 -0.1909
   43MOL0     H 5616   8.527   9.601   2.285 -0.6502 -1.0595 -2.2837
   43MOL0     H 5617   8.391   9.602   2.466  1.0288  0.7261  0.7570
   43MOL0     H 5618   8.428   9.438   2.512  1.4640 -0.7734 -0.5373
   43MOL0     H 5619   8.304   9.336   2.335 -1.2215  0.6726 -1.4058
   43MOL0     H 5620   8.201   9.458   2.413  2.4779 -1.1050  2.5303
   43MOL0     H 5621   8.344   9.472   2.153 -0.4688 -0.8861  1.1001
   43MOL0     H 5622   8.258   9.617   2.213 -0.3824  0.4597  0.4067
   43MOL0     H 5623   8.056   9.494   2.227 -0.9933  0.5692 -1.2973
   43MOL0     H 5624   8.127   9.346   2.171  3.3109  0.3818  0.7199
   43MOL0     H 5625   8.111   9.598   1.995 -0.9355 -0.5852 -2.0595
   43MOL0     H 5626   8.186   9.441   1.956 -1.0158 -2.4822  1.6765
   43MOL0     H 5627   7.959   9.341   2.003  2.2713 -1.4002 -0.1732
   43MOL0     H 5628   7.970   9.426   1.854 -2.4258 -0.8798  1.0071
   43MOL0     H 5629   7.946   9.737   1.945 -0.5820  1.1348  1.6595
   43MOL0     H 5630   7.819   9.920   2.044  1.5210 -0.1443  3.0230
   43MOL0     H 5631   7.707   9.866   2.170 -0.8052  1.2994  0.0119
   43MOL0     H 5632   7.605   9.854   1.874 -1.9095 -0.5552  0.4846
   43MOL0     H 5633   7.639  10.011   1.943  3.7225 -1.3958 -3.0187
   43MOL0     H 5634   7.446   9.795   2.060 -3.5560  0.0462  1.2230
   43MOL0     H 5635   7.465   9.955   2.135  2.5533  0.7394 -0.8528
   43MOL0     H 5636   7.337   9.897   1.869  2.2876 -0.4055 -0.4543
   43MOL0     H 5637   7.379  10.057   1.949  1.8532 -0.2686 -0.0777
   43MOL0     H 5638   7.162  10.062   1.801 -0.4390 -1.2106 -0.6476
   43MOL0     H 5639   6.939  10.166   1.781  3.5619 -0.3235 -1.5005
   43MOL0     H 5640   6.543  10.401   1.969  0.7298  2.2561 -2.5122
   43MOL0     H 5641   6.326  10.462   1.907  2.2055  0.0080  1.2679
   43MOL0     H 5642   6.115  10.442   1.884 -0.3274  1.4638  0.2320
   43MOL0     H 5643   5.978  10.404   1.787 -0.3968 -1.1732  1.9971
   43MOL0     H 5644   6.213  10.603   1.735 -0.2763  0.0838  1.0462
   43MOL0     H 5645   6.043  10.640   1.739  0.2381  2.1462 -0.7225
   43MOL0     H 5646   6.031  10.471   1.546 -0.1172  0.1403 -0.1607
   43MOL0     H 5647   6.195  10.501   1.522 -1.3788 -1.6218 -0.2491
   43MOL0     H 5648   6.000  10.732   1.524 -0.4828  1.3203 -1.5146
   43MOL0     H 5649   6.174  10.719   1.462 -0.3590 -0.2260  0.2469
   43MOL0     H 5650   5.924  10.597   1.355  0.0692 -0.2728 -2.6486
   43MOL0     H 5651   6.087  10.557   1.298  0.4600  1.7465 -2.3665
   43MOL0     H 5652   6.135  10.785   1.214 -0.2894  0.5450 -0.6509
   43MOL0     H 5653   5.990  10.848   1.290  1.0847  0.6729  0.0806
   43MOL0     H 5654   5.974  10.805   1.036 -1.4492 -0.9008 -0.3478
   43MOL0     H 5655   5.982  10.642   1.065 -1.2010  0.7159 -2.2276
   43MOL0     H 5656   5.768  10.663   1.216  2.5643  1.1291  0.0003
   43MOL0     H 5657   5.755  10.692   1.043 -1.7505  1.6512 -0.1657
   43MOL0     H 5658   6.315  10.136   1.623  1.3528 -2.7893  1.2489
   43MOL0     H 5659   6.544  10.072   1.697  1.0719 -0.3029  0.7517
   43MOL0     H 5660   6.850  10.069   2.182 -0.5589 -0.8330 -0.1423
   43MOL0     H 5661   7.067   9.951   2.206 -1.0510 -0.8150  0.6569
   43MOL0     H 5662   8.911   9.291   2.231  1.5121 -2.9230  1.0851
   43MOL0     H 5663   9.144   9.245   2.303 -0.0175 -1.7511  1.8169
   43MOL0     H 5664   9.468   9.292   2.780 -2.6459 -0.5176 -1.4640
   43MOL0     H 5665   9.692   9.344   2.851  0.4037 -1.2611 -0.3491
   43MOL0     H 5666   9.921   9.315   2.854 -0.1522 -0.8321 -3.4910
   43MOL0     H 5667   9.855   9.486   2.885 -0.7732 -0.3469  0.4199
   43MOL0     H 5668  10.119   9.438   2.759 -2.6522  0.0628 -0.5617
   43MOL0     H 5669  10.064   9.582   2.844  0.3510  0.4097 -1.5287
   43MOL0     H 5670  10.045   9.435   3.057 -1.6050  0.1196 -1.6955
   43MOL0     H 5671  10.204   9.488   3.020 -0.8259  0.5003  1.7816
   43MOL0     H 5672  10.104   9.214   2.920 -0.5104 -0.3766  0.7970
   43MOL0     H 5673  10.266   9.280   2.940 -0.9974 -1.6108 -1.8803
   43MOL0     H 5674  10.160   9.052   3.274 -0.7661 -0.4194 -0.6993
   43MOL0     H 5675   9.794   9.481   2.461 -1.2230  1.7348 -0.2272
   43MOL0     H 5676   9.560   9.423   2.382  3.7693  1.7287 -0.0235
   44MOL0     O 5677   3.852   4.116  11.196  0.1692  0.9983  0.3843
   44MOL0     C 5678   3.763   4.060  11.128 -1.0930 -0.0891 -0.1460
   44MOL0     O 5679   3.791   3.988  11.017  0.9282 -0.0807 -0.1452
   44MOL0     C 5680   3.904   4.017  10.951 -0.8369  0.4864 -0.2148
   44MOL0     C 5681   4.025   4.005  11.009  0.5825  1.8832 -0.1618
   44MOL0     C 5682   4.139   4.024  10.938 -0.3042 -0.8252  0.4377
   44MOL0     C 5683   4.134   4.066  10.799  0.2480  0.0077 -0.5022
   44MOL0     O 5684   4.254   4.094  10.741 -0.2704  0.0138 -0.3031
   44MOL0     C 5685   4.256   4.143  10.607 -0.0063 -0.1823 -0.3478
   44MOL0     C 5686   4.241   4.029  10.499  0.0856  0.5080 -0.4712
   44MOL0     C 5687   4.367   4.021  10.417  0.1350  0.4132 -0.0094
   44MOL0     C 5688   4.497   4.000  10.509  0.5417 -0.3395  0.2408
   44MOL0     C 5689   4.608   3.920  10.437 -1.1294  0.1756 -0.5602
   44MOL0     C 5690   4.726   3.905  10.522 -0.7435  0.6380 -0.4952
   44MOL0     C 5691   4.828   3.807  10.466 -0.4933  0.0313  0.6383
   44MOL0     C 5692   4.954   3.822  10.561  0.4392  0.3151  0.2012
   44MOL0     N 5693   5.032   3.692  10.552 -0.6177 -0.0195  0.4523
   44MOL0     C 5694   5.004   3.584  10.625 -0.2969  0.1560  0.0180
   44MOL0     C 5695   5.108   3.500  10.601 -0.5124  0.1683  0.3660
   44MOL0     C 5696   5.141   3.368  10.672  0.1569 -0.6051 -0.4388
   44MOL0     C 5697   5.103   3.257  10.583  0.4008 -0.1574  0.5459
   44MOL0     C 5698   5.079   3.124  10.648  0.5280  0.1164 -0.6529
   44MOL0     C 5699   5.205   3.064  10.713 -0.3501  0.5772 -0.1936
   44MOL0     O 5700   5.187   2.925  10.725  1.0840 -0.4973  0.3853
   44MOL0     C 5701   5.293   2.849  10.756  0.5803 -0.4707 -0.8124
   44MOL0     C 5702   5.427   2.872  10.718 -0.5829 -0.2537 -0.0672
   44MOL0     C 5703   5.524   2.764  10.736  0.0859 -1.2522  0.8390
   44MOL0     C 5704   5.489   2.647  10.800  0.0341 -0.2447  0.0407
   44MOL0     C 5705   5.591   2.539  10.820  0.3055  0.5277 -0.0860
   44MOL0     O 5706   5.718   2.582  10.803  0.6126 -0.2489 -0.4839
   44MOL0     C 5707   5.823   2.505  10.853 -0.6800  0.2422 -0.0548
   44MOL0     C 5708   5.848   2.498  10.985  0.1086  0.0325 -0.7444
   44MOL0     C 5709   5.947   2.415  11.044 -0.3873  0.0253 -0.5902
   44MOL0     C 5710   6.045   2.348  10.969 -0.4585  0.9873 -0.1697
   44MOL0     O 5711   6.139   2.264  11.033  0.2852 -0.1965 -0.4936
   44MOL0     C 5712   6.255   2.214  10.961  0.8311 -1.0849 -0.9006
   44MOL0     C 5713   6.327   2.125  11.063 -0.4422 -0.1458 -0.6013
   44MOL0     C 5714   6.450   2.048  11.022  0.1016 -0.3906  0.4806
   44MOL0     C 5715   6.568   2.144  11.040  0.2770 -0.3583 -0.4977
   44MOL0     C 5716   6.696   2.065  11.021 -0.0720  0.0636  0.1632
   44MOL0     C 5717   6.820   2.163  11.014 -0.6092  0.6692 -0.0402
   44MOL0     C 5718   6.850   2.207  10.870 -0.0584 -0.0378 -0.1585
   44MOL0     C 5719   7.008   2.224  10.853  0.1838  0.2067 -0.2097
   44MOL0    Cl 5720   7.087   2.294  10.993 -0.1154 -0.1758  0.2139
   44MOL0     C 5721   6.043   2.379  10.833  0.0914 -0.2331  0.3416
   44MOL0     C 5722   5.932   2.448  10.774 -0.1418 -0.5681  0.3272
   44MOL0     O 5723   5.558   2.442  10.886  1.0651 -0.4053 -0.0387
   44MOL0     C 5724   5.355   2.628  10.842  0.3749  0.1019 -0.2930
   44MOL0     C 5725   5.257   2.727  10.821  0.5706 -0.4093 -0.6615
   44MOL0     N 5726   5.177   3.543  10.491  0.3098 -0.1891  0.1171
   44MOL0     N 5727   5.132   3.665  10.456  0.5166 -0.3843 -0.4576
   44MOL0     C 5728   4.010   4.074  10.739 -0.0944  0.6556 -0.1676
   44MOL0     C 5729   3.904   4.035  10.815  0.4089  0.1584  0.1954
   44MOL0     C 5730   3.624   4.048  11.191 -1.1119  0.4484  0.7859
   44MOL0     C 5731   3.535   3.938  11.170 -0.3347 -0.9207  0.0595
   44MOL0     C 5732   3.397   3.947  11.213 -0.9764  0.3369  0.0033
   44MOL0     C 5733   3.345   4.062  11.256  1.0972 -1.0565  1.0517
   44MOL0     O 5734   3.212   4.080  11.274 -0.6020 -0.6521  0.9518
   44MOL0     C 5735   3.144   4.070  11.145  0.3111 -0.7361 -0.5290
   44MOL0     C 5736   3.009   4.124  11.171 -0.0009 -0.8970 -0.4055
   44MOL0     C 5737   3.000   4.255  11.243  0.1261 -0.6746  0.1582
   44MOL0     C 5738   2.905   4.349  11.186  1.4330 -0.5754  1.0830
   44MOL0     C 5739   2.849   4.447  11.280 -0.4202  1.2346  0.7570
   44MOL0     C 5740   2.802   4.511  11.370 -0.3991 -0.6335 -0.0047
   44MOL0     C 5741   3.430   4.165  11.290 -0.8930 -0.0320  0.5515
   44MOL0     C 5742   3.566   4.158  11.256  0.3414  0.4546  0.7746
   44MOL0     H 5743   4.014   3.964  11.109 -2.9179 -0.2867 -1.2815
   44MOL0     H 5744   4.234   3.996  10.983  0.1485  1.2942  0.9038
   44MOL0     H 5745   4.352   4.194  10.595  0.2376 -0.0758  1.7773
   44MOL0     H 5746   4.182   4.221  10.585 -1.3247 -1.4058 -0.4285
   44MOL0     H 5747   4.153   4.043  10.436 -3.4340  1.0263  3.9947
   44MOL0     H 5748   4.234   3.932  10.549  1.8288 -0.0761 -1.3057
   44MOL0     H 5749   4.373   4.106  10.350 -0.5997 -0.9982 -1.9641
   44MOL0     H 5750   4.345   3.943  10.343  0.6297  2.4242 -2.3649
   44MOL0     H 5751   4.536   4.095  10.545  0.9182 -0.8371  1.1938
   44MOL0     H 5752   4.471   3.952  10.605 -0.5142  0.1985  0.2372
   44MOL0     H 5753   4.642   3.985  10.356 -2.4944 -0.5663 -1.7780
   44MOL0     H 5754   4.574   3.826  10.391  1.6432  0.3506 -3.3539
   44MOL0     H 5755   4.691   3.868  10.619 -0.8685  0.8957 -0.4437
   44MOL0     H 5756   4.774   4.002  10.534  2.5152 -0.5723 -2.4200
   44MOL0     H 5757   4.774   3.712  10.461 -0.9052  0.1049  2.7896
   44MOL0     H 5758   4.856   3.821  10.361  0.1190 -0.8671  0.6675
   44MOL0     H 5759   4.921   3.829  10.665 -0.8032  0.8294 -0.2179
   44MOL0     H 5760   5.015   3.907  10.529  1.5608 -1.0768 -1.5540
   44MOL0     H 5761   4.923   3.584  10.697 -0.5098  0.4707 -0.2124
   44MOL0     H 5762   5.086   3.366  10.766 -2.3563 -1.2429 -1.8192
   44MOL0     H 5763   5.248   3.358  10.692 -0.2221 -1.0675  1.5825
   44MOL0     H 5764   5.185   3.249  10.510  0.2606  0.0374  0.3695
   44MOL0     H 5765   5.020   3.288  10.520  0.8458 -1.3911 -0.7092
   44MOL0     H 5766   5.012   3.128  10.734 -0.2571 -1.7773 -1.1152
   44MOL0     H 5767   5.035   3.053  10.578 -0.1782 -0.9502  0.8041
   44MOL0     H 5768   5.225   3.107  10.811  3.2034 -5.1350  2.0796
   44MOL0     H 5769   5.295   3.084  10.654 -1.4520  1.3305 -1.6902
   44MOL0     H 5770   5.470   2.964  10.678 -2.9206  0.4696 -1.0936
   44MOL0     H 5771   5.626   2.782  10.705 -1.0127 -0.5823 -2.9106
   44MOL0     H 5772   5.774   2.535  11.056  1.1036  0.4985  0.0736
   44MOL0     H 5773   5.951   2.378  11.146 -1.2869 -0.7604 -0.8286
   44MOL0     H 5774   6.323   2.295  10.934  0.4497 -0.7531 -0.8698
   44MOL0     H 5775   6.229   2.161  10.869 -0.2576  0.6369 -1.6314
   44MOL0     H 5776   6.249   2.053  11.088 -3.4405  3.1595  0.3880
   44MOL0     H 5777   6.339   2.182  11.156 -0.0545 -1.0169 -0.1051
   44MOL0     H 5778   6.438   2.011  10.920 -0.2983  1.2092 -0.0857
   44MOL0     H 5779   6.455   1.958  11.084  1.1976 -0.2435  0.6277
   44MOL0     H 5780   6.562   2.240  10.988 -1.0426  0.0384  0.3317
   44MOL0     H 5781   6.567   2.168  11.147 -0.6552 -1.3940 -0.2615
   44MOL0     H 5782   6.691   1.984  10.947  2.1070  1.8946 -2.1990
   44MOL0     H 5783   6.716   2.002  11.108 -1.9009 -1.5151 -0.4899
   44MOL0     H 5784   6.906   2.107  11.051 -0.3175  0.6098 -0.7799
   44MOL0     H 5785   6.808   2.252  11.075  0.3670 -0.3369  1.6937
   44MOL0     H 5786   6.805   2.133  10.803 -2.2181  0.1864  0.9675
   44MOL0     H 5787   6.799   2.301  10.847 -0.8911 -1.0933 -3.1179
   44MOL0     H 5788   7.032   2.270  10.757  4.6513  1.5223  1.3304
   44MOL0     H 5789   7.038   2.119  10.847  3.3687  1.0264 -0.1784
   44MOL0     H 5790   6.111   2.339  10.758 -1.2867  3.1656 -3.0402
   44MOL0     H 5791   5.921   2.458  10.667 -0.4170 -1.9495  0.2144
   44MOL0     H 5792   5.326   2.543  10.903  0.8085  1.8731  2.5170
   44MOL0     H 5793   5.155   2.720  10.858  1.5853 -0.3186  2.4188
   44MOL0     H 5794   3.997   4.114  10.639  3.2385 -0.1836 -1.0664
   44MOL0     H 5795   3.810   4.007  10.769  0.5309  1.4373 -0.9121
   44MOL0     H 5796   3.557   3.841  11.126  2.1554  0.2504 -1.4777
   44MOL0     H 5797   3.343   3.860  11.175  2.4977 -0.4534 -3.8613
   44MOL0     H 5798   3.121   3.968  11.114 -5.9241  0.1953 -0.2951
   44MOL0     H 5799   3.201   4.107  11.060 -2.7293  0.8952 -2.0415
   44MOL0     H 5800   2.950   4.113  11.080 -3.3154 -0.3213  1.5333
   44MOL0     H 5801   2.969   4.048  11.238  1.0247  0.8937  2.4161
   44MOL0     H 5802   3.096   4.308  11.247 -0.2095 -0.1264  1.6563
   44MOL0     H 5803   2.981   4.239  11.350 -1.4811 -1.2742 -0.1894
   44MOL0     H 5804   2.945   4.400  11.098 -1.9498  2.6096  1.1341
   44MOL0     H 5805   2.823   4.293  11.138  2.3182 -0.7979 -0.2313
   44MOL0     H 5806   2.772   4.572  11.452  1.9580 -1.7121  1.7877
   44MOL0     H 5807   3.400   4.252  11.347  1.0234  0.5388  0.7837
   44MOL0     H 5808   3.634   4.238  11.285  1.0859  0.4424 -0.8767
   45MOL0     O 5809  10.098   0.165   7.762  0.0394 -0.3409  0.2729
   45MOL0     C 5810  10.077   0.156   7.882 -0.5071 -0.7104  0.7807
   45MOL0     O 5811  10.152   0.219   7.975 -0.1096 -0.0682 -0.9516
   45MOL0     C 5812  10.281   0.246   7.959 -0.7017  0.8655  0.4660
   45MOL0     C 5813  10.348   0.343   8.032  0.1511  0.0939  0.1360
   45MOL0     C 5814  10.475   0.382   8.017 -0.6247 -0.0487 -0.7461
   45MOL0     C 5815  10.560   0.309   7.931 -0.5878 -0.0354 -0.7431
   45MOL0     O 5816  10.692   0.338   7.896  0.3070 -0.2249 -0.0175
   45MOL0     C 5817  10.719   0.473   7.876 -0.2878 -0.7853 -0.7616
   45MOL0     C 5818  10.795   0.491   7.745  0.3859  1.0154 -0.0710
   45MOL0     C 5819  10.717   0.428   7.633 -0.3534 -1.2647  0.1275
   45MOL0     C 5820  10.719   0.507   7.497  0.0196 -1.2306  0.3657
   45MOL0     C 5821  10.629   0.451   7.392 -0.1572 -0.5263 -0.3180
   45MOL0     C 5822  10.609   0.551   7.278 -0.0755  0.2216  0.0596
   45MOL0     C 5823  10.663   0.505   7.141 -0.5017 -0.9450  0.7559
   45MOL0     C 5824  10.815   0.527   7.129 -0.4481 -0.3749  0.2950
   45MOL0     N 5825  10.847   0.671   7.138 -0.4269 -0.0260  0.1347
   45MOL0     C 5826  10.791   0.773   7.065  0.2918 -0.0016  0.4447
   45MOL0     C 5827  10.836   0.888   7.106 -0.3116 -0.1808 -1.0374
   45MOL0     C 5828  10.798   1.027   7.076  0.2395  0.4349  0.2916
   45MOL0     C 5829  10.776   1.046   6.922  0.1003  0.2037 -0.5970
   45MOL0     C 5830  10.728   1.195   6.893 -0.1968  0.9483 -0.1262
   45MOL0     C 5831  10.576   1.207   6.893 -1.3512 -0.3807 -0.7847
   45MOL0     O 5832  10.558   1.340   6.932 -1.4205 -0.2251  0.0383
   45MOL0     C 5833  10.431   1.386   6.963 -0.5639  1.2851 -0.2903
   45MOL0     C 5834  10.325   1.303   6.925  0.0500  0.6218  0.4567
   45MOL0     C 5835  10.193   1.360   6.933  0.3626  0.2182  0.2825
   45MOL0     C 5836  10.181   1.497   6.978 -0.3527  0.3049 -0.9258
   45MOL0     C 5837  10.051   1.564   6.978  0.9370  0.4700 -0.5637
   45MOL0     O 5838   9.959   1.500   6.910 -0.0840  0.4725  0.4171
   45MOL0     C 5839   9.831   1.555   6.929  0.0013  0.7988  0.8088
   45MOL0     C 5840   9.789   1.666   6.856  0.0151  0.6117 -0.4183
   45MOL0     C 5841   9.652   1.718   6.866  0.1038  0.2366 -0.1131
   45MOL0     C 5842   9.558   1.648   6.945 -0.0086 -0.9691  0.6021
   45MOL0     O 5843   9.425   1.682   6.933 -0.8593 -0.4885  0.8125
   45MOL0     C 5844   9.395   1.793   7.019 -0.0481  0.6681 -0.3311
   45MOL0     C 5845   9.255   1.834   6.989 -0.3813 -0.4194  0.2033
   45MOL0     C 5846   9.153   1.719   7.012  0.5419  0.5610 -0.3485
   45MOL0     C 5847   9.008   1.777   7.028 -0.0893  0.5343 -0.2451
   45MOL0     C 5848   8.900   1.665   7.032 -0.6379 -0.2120 -0.5227
   45MOL0     C 5849   8.768   1.708   6.973  0.0568 -0.4859  0.1880
   45MOL0     C 5850   8.660   1.597   6.977 -0.9789  0.7818  0.3952
   45MOL0     C 5851   8.520   1.632   6.909  0.5456  0.6948  0.1823
   45MOL0    Cl 5852   8.431   1.789   6.963  0.1929  0.2665 -0.1208
   45MOL0     C 5853   9.602   1.533   7.011 -0.4464 -0.4057 -0.1718
   45MOL0     C 5854   9.735   1.483   6.995 -0.2500  0.0713  0.3026
   45MOL0     O 5855  10.046   1.680   7.018 -0.0942  0.1377 -0.2927
   45MOL0     C 5856  10.303   1.570   7.023  0.4585  0.2338 -0.2649
   45MOL0     C 5857  10.421   1.511   7.008  0.2418  0.1870  0.4344
   45MOL0     N 5858  10.929   0.862   7.205 -0.6625 -0.7924 -0.3511
   45MOL0     N 5859  10.935   0.732   7.229  0.4976 -0.4386  0.5945
   45MOL0     C 5860  10.501   0.198   7.867  0.0533 -0.4265 -0.0096
   45MOL0     C 5861  10.362   0.165   7.873 -0.7255 -0.6272 -0.8956
   45MOL0     C 5862   9.951   0.076   7.923 -0.3419 -0.0820 -0.2109
   45MOL0     C 5863   9.866   0.036   7.822  0.8260  0.4101 -0.5150
   45MOL0     C 5864   9.742  -0.032   7.857 -0.3422 -0.7033  0.2944
   45MOL0     C 5865   9.703  -0.062   7.988  0.3334 -0.1056  0.3974
   45MOL0     O 5866   9.586  -0.132   8.005  0.0260 -0.1018 -0.2356
   45MOL0     C 5867   9.514  -0.133   8.132 -1.5447 -0.4726  0.0554
   45MOL0     C 5868   9.385  -0.069   8.111  0.0571  0.0783 -0.1414
   45MOL0     C 5869   9.409   0.087   8.113 -0.0290 -0.3228 -0.0528
   45MOL0     C 5870   9.281   0.181   8.114  0.5746 -0.0046 -0.8808
   45MOL0     C 5871   9.172   0.148   8.203 -0.1814  1.1148 -0.3319
   45MOL0     C 5872   9.076   0.150   8.278  0.1913 -0.5878 -0.4401
   45MOL0     C 5873   9.781  -0.002   8.086 -0.4098 -0.1627  0.1231
   45MOL0     C 5874   9.906   0.064   8.060  0.6867  0.2834 -0.2748
   45MOL0     H 5875  10.283   0.409   8.089 -0.9647 -0.7030 -0.1739
   45MOL0     H 5876  10.499   0.471   8.075 -1.2800  0.9094 -1.8865
   45MOL0     H 5877  10.775   0.507   7.963 -1.3566 -3.0649  0.9249
   45MOL0     H 5878  10.637   0.545   7.874  1.4898  1.3535 -0.1932
   45MOL0     H 5879  10.894   0.445   7.754  0.4732  0.6423 -2.3076
   45MOL0     H 5880  10.819   0.596   7.728  1.5710  0.7192 -0.3470
   45MOL0     H 5881  10.612   0.427   7.664 -0.1571 -1.0791  0.8370
   45MOL0     H 5882  10.744   0.323   7.619  0.6645 -1.1394  0.9937
   45MOL0     H 5883  10.675   0.598   7.539  1.4844 -1.3686  2.3492
   45MOL0     H 5884  10.815   0.522   7.448 -0.0927 -0.7758  0.2838
   45MOL0     H 5885  10.535   0.425   7.441  0.7834 -2.4428  0.5743
   45MOL0     H 5886  10.678   0.361   7.352  3.4347  1.8909 -1.8577
   45MOL0     H 5887  10.660   0.640   7.316 -1.3946 -0.5602  4.1468
   45MOL0     H 5888  10.502   0.570   7.264 -0.1224 -0.4006 -0.4735
   45MOL0     H 5889  10.637   0.402   7.114  1.1532 -1.0087 -0.8605
   45MOL0     H 5890  10.608   0.568   7.070 -0.3707 -1.1945  0.4271
   45MOL0     H 5891  10.838   0.493   7.027 -1.7691  0.2375 -0.2239
   45MOL0     H 5892  10.868   0.467   7.204 -0.2215  2.2206  2.3610
   45MOL0     H 5893  10.709   0.767   6.994  0.3534  0.0351  0.3700
   45MOL0     H 5894  10.873   1.102   7.102 -1.4976  1.1346  3.8365
   45MOL0     H 5895  10.705   1.053   7.127  0.5199  0.4483  0.7970
   45MOL0     H 5896  10.696   0.977   6.892 -0.2118 -1.8409  4.0334
   45MOL0     H 5897  10.872   1.032   6.870  1.0382 -0.8357  1.3174
   45MOL0     H 5898  10.774   1.273   6.955 -1.5079 -2.0810  5.2594
   45MOL0     H 5899  10.757   1.219   6.790  0.9085  2.5289  0.5149
   45MOL0     H 5900  10.527   1.144   6.968 -0.7611  4.1583  3.9394
   45MOL0     H 5901  10.548   1.199   6.788  1.5791  1.8322 -1.8726
   45MOL0     H 5902  10.342   1.201   6.891 -1.9563 -0.0437  1.3273
   45MOL0     H 5903  10.108   1.299   6.904  0.8113 -0.7951  1.0124
   45MOL0     H 5904   9.869   1.725   6.812 -1.5620  2.7185 -0.6086
   45MOL0     H 5905   9.624   1.809   6.813  4.5400  2.4904  0.9128
   45MOL0     H 5906   9.469   1.871   6.998 -0.1440  2.6537  5.1239
   45MOL0     H 5907   9.402   1.758   7.123 -2.5537 -1.9717 -0.9063
   45MOL0     H 5908   9.259   1.875   6.888  1.7770 -0.4013  0.2412
   45MOL0     H 5909   9.240   1.912   7.064  1.3781  1.6011 -1.4185
   45MOL0     H 5910   9.174   1.666   7.105  1.6584 -5.4239 -3.4950
   45MOL0     H 5911   9.165   1.651   6.927  1.9343 -3.3192  2.6489
   45MOL0     H 5912   8.998   1.832   7.122  2.9041 -3.1255  2.5220
   45MOL0     H 5913   8.987   1.852   6.950  1.9430  1.5518  0.1230
   45MOL0     H 5914   8.874   1.630   7.133 -0.5210  1.0868 -0.0269
   45MOL0     H 5915   8.932   1.574   6.981 -2.5333 -0.2463 -1.7249
   45MOL0     H 5916   8.780   1.731   6.866 -2.0421 -1.6907 -0.3790
   45MOL0     H 5917   8.716   1.793   7.018 -0.5288 -1.0874  0.6686
   45MOL0     H 5918   8.697   1.506   6.929 -1.0184  0.5709  0.7609
   45MOL0     H 5919   8.647   1.580   7.085  1.6296 -0.3241  0.6084
   45MOL0     H 5920   8.457   1.548   6.940 -0.3752  1.1647 -0.3930
   45MOL0     H 5921   8.538   1.632   6.801  2.8603  1.2145  0.5138
   45MOL0     H 5922   9.529   1.473   7.064  0.9395 -2.4178 -0.4215
   45MOL0     H 5923   9.776   1.396   7.045  2.1872 -1.1835 -3.4706
   45MOL0     H 5924  10.295   1.674   7.051 -0.0856  0.5757 -1.6319
   45MOL0     H 5925  10.512   1.570   7.020  0.4729 -0.3193  1.2324
   45MOL0     H 5926  10.567   0.149   7.797  1.2210 -2.6774  2.4960
   45MOL0     H 5927  10.335   0.074   7.820  0.3509 -0.3408 -1.9864
   45MOL0     H 5928   9.886   0.058   7.718  0.8700  0.7780 -0.4287
   45MOL0     H 5929   9.685  -0.065   7.771 -1.4841  2.4726 -0.2937
   45MOL0     H 5930   9.575  -0.083   8.208 -1.2479 -0.0045 -0.4823
   45MOL0     H 5931   9.490  -0.236   8.156 -0.7936 -0.7412 -0.2963
   45MOL0     H 5932   9.323  -0.097   8.025 -1.4603 -1.8303  1.4930
   45MOL0     H 5933   9.321  -0.094   8.196  1.1861 -2.3808  0.0669
   45MOL0     H 5934   9.477   0.118   8.033  2.0005 -0.6943  1.4494
   45MOL0     H 5935   9.465   0.102   8.206  1.9383 -0.2190 -1.2040
   45MOL0     H 5936   9.305   0.285   8.141 -2.6538  0.8304 -0.8779
   45MOL0     H 5937   9.245   0.180   8.011  0.1943 -0.1039 -0.7453
   45MOL0     H 5938   8.985   0.145   8.335  0.3798  0.8859  0.0490
   45MOL0     H 5939   9.749  -0.004   8.189  0.1731  0.0462  0.3165
   45MOL0     H 5940   9.955   0.099   8.150 -0.7038  1.6126  0.0038
   46MOL0     O 5941  10.556   3.637   5.974  0.2380  0.3862 -0.2242
   46MOL0     C 5942  10.612   3.528   5.965  0.6083 -0.8634 -0.1406
   46MOL0     O 5943  10.566   3.411   6.026  0.3021 -0.3557  0.6868
   46MOL0     C 5944  10.457   3.424   6.108 -0.3359  0.0736  0.1485
   46MOL0     C 5945  10.479   3.488   6.233 -0.2399  0.1448  1.0379
   46MOL0     C 5946  10.378   3.501   6.311  0.3712 -0.0557 -1.1988
   46MOL0     C 5947  10.248   3.455   6.279  0.9259 -0.6938 -0.3718
   46MOL0     O 5948  10.138   3.501   6.358  0.4215 -0.1525 -0.0999
   46MOL0     C 5949  10.030   3.401   6.388  0.5554 -0.7203  0.3634
   46MOL0     C 5950   9.898   3.451   6.319 -0.1883  0.2141  0.4118
   46MOL0     C 5951   9.903   3.506   6.174  0.3050  0.4596 -0.6030
   46MOL0     C 5952   9.848   3.406   6.073 -0.1605 -0.5656  0.3240
   46MOL0     C 5953   9.692   3.401   6.059  0.0645  0.3091  0.1012
   46MOL0     C 5954   9.637   3.539   6.008 -0.1492  0.4721 -0.7247
   46MOL0     C 5955   9.499   3.516   5.950 -0.0494  0.0151  0.5135
   46MOL0     C 5956   9.392   3.456   6.046  0.2824 -0.2312 -0.7776
   46MOL0     N 5957   9.325   3.571   6.113  0.6888  0.2105  0.4888
   46MOL0     C 5958   9.370   3.654   6.211 -0.0266 -0.0478 -0.5301
   46MOL0     C 5959   9.262   3.735   6.252  0.3385  0.2194 -0.0123
   46MOL0     C 5960   9.249   3.841   6.354 -0.1196  0.1391  0.3872
   46MOL0     C 5961   9.365   3.944   6.344 -0.6261  0.3244 -0.0572
   46MOL0     C 5962   9.386   4.008   6.208 -0.3682 -0.1978 -1.0416
   46MOL0     C 5963   9.523   4.082   6.206  0.4157 -0.2192 -0.2245
   46MOL0     O 5964   9.640   4.008   6.245 -0.0513  1.0029 -0.1892
   46MOL0     C 5965   9.769   4.031   6.207  0.1542  0.3246 -0.8538
   46MOL0     C 5966   9.870   3.931   6.210  0.4295 -0.2854 -0.4716
   46MOL0     C 5967   9.996   3.955   6.177  0.7656 -0.5032  0.4714
   46MOL0     C 5968  10.035   4.071   6.123 -0.5397  0.4359  0.0400
   46MOL0     C 5969  10.181   4.092   6.105  0.1468 -0.3538  0.5025
   46MOL0     O 5970  10.280   4.012   6.152 -0.8284  0.2228  0.1568
   46MOL0     C 5971  10.414   4.034   6.122 -0.1375  0.7421 -0.5011
   46MOL0     C 5972  10.488   3.917   6.124  0.3645  0.2412 -0.2936
   46MOL0     C 5973  10.634   3.920   6.102 -0.1494 -0.9551 -0.2656
   46MOL0     C 5974  10.695   4.044   6.100 -0.0724  1.9435 -0.3074
   46MOL0     O 5975  10.835   4.032   6.102 -1.0224 -0.6847  0.5316
   46MOL0     C 5976  10.910   4.164   6.081  0.8286  0.5752 -0.7009
   46MOL0     C 5977  11.052   4.138   6.098 -0.8856  0.2978 -0.3243
   46MOL0     C 5978  11.123   4.071   5.981 -0.1050  0.0899 -0.2181
   46MOL0     C 5979  11.276   4.061   5.990 -0.8388  0.1729 -0.3670
   46MOL0     C 5980  11.325   3.975   5.877 -0.4811 -0.0150  0.7689
   46MOL0     C 5981  11.454   3.910   5.935 -0.7577 -0.2683 -0.1194
   46MOL0     C 5982  11.541   3.850   5.824  0.3908 -0.1183  0.1387
   46MOL0     C 5983  11.686   3.822   5.865  0.6592  0.6010  0.2315
   46MOL0    Cl 5984  11.798   3.767   5.730  0.2795  0.2900  0.7882
   46MOL0     C 5985  10.622   4.156   6.109 -0.7090 -0.4632  0.4873
   46MOL0     C 5986  10.483   4.154   6.114  0.1444  0.2480  0.0189
   46MOL0     O 5987  10.197   4.189   6.033  0.0663 -0.9221 -0.2593
   46MOL0     C 5988   9.941   4.172   6.101  0.4645  0.6815 -0.1292
   46MOL0     C 5989   9.809   4.151   6.155 -0.1409  1.4576 -0.3730
   46MOL0     N 5990   9.155   3.705   6.158 -0.3823  0.0977  0.3052
   46MOL0     N 5991   9.201   3.615   6.073 -0.0775 -0.5961  0.1433
   46MOL0     C 5992  10.235   3.395   6.157 -0.3946  0.0706 -0.6445
   46MOL0     C 5993  10.335   3.378   6.070  0.6168 -0.7395  0.0964
   46MOL0     C 5994  10.741   3.515   5.892  0.2909 -0.1273  0.7139
   46MOL0     C 5995  10.808   3.631   5.842 -0.5582 -0.4494  0.6593
   46MOL0     C 5996  10.932   3.625   5.782 -0.1703 -0.9960  0.4895
   46MOL0     C 5997  10.989   3.497   5.770  0.4375  0.4592 -1.2870
   46MOL0     O 5998  11.111   3.458   5.712  0.3930  0.2584 -0.4397
   46MOL0     C 5999  11.217   3.427   5.806 -0.2144  0.6796  0.0111
   46MOL0     C 6000  11.287   3.295   5.773 -0.8605 -0.5579  0.2632
   46MOL0     C 6001  11.200   3.172   5.735 -0.2572  0.6062 -0.6496
   46MOL0     C 6002  11.272   3.036   5.732  0.2181  0.6352  1.0115
   46MOL0     C 6003  11.181   2.931   5.777 -0.5168  0.1034 -0.0475
   46MOL0     C 6004  11.115   2.837   5.811  0.6485  0.4535 -0.7280
   46MOL0     C 6005  10.917   3.381   5.804  0.9381  0.3370 -1.5282
   46MOL0     C 6006  10.794   3.389   5.862  0.3492  0.2564  0.1798
   46MOL0     H 6007  10.575   3.531   6.259 -0.7180  2.4458 -0.6556
   46MOL0     H 6008  10.387   3.545   6.410 -2.8944  0.3494 -0.9570
   46MOL0     H 6009  10.011   3.400   6.496 -0.8995  0.3810  0.1466
   46MOL0     H 6010  10.061   3.299   6.366 -0.3236 -0.8480 -0.3217
   46MOL0     H 6011   9.878   3.539   6.381  2.1098  0.2504  1.1892
   46MOL0     H 6012   9.818   3.381   6.344  1.1144 -0.4031  3.2815
   46MOL0     H 6013  10.002   3.535   6.135  0.3100  1.4683  0.1139
   46MOL0     H 6014   9.836   3.592   6.183 -2.1073 -1.3583 -0.2323
   46MOL0     H 6015   9.897   3.443   5.983 -0.5634 -3.6559 -1.2929
   46MOL0     H 6016   9.899   3.310   6.083  3.9521  1.0680 -2.3266
   46MOL0     H 6017   9.649   3.378   6.157 -1.5424  0.0083 -0.6538
   46MOL0     H 6018   9.664   3.317   5.996  2.6650 -1.6226  1.3236
   46MOL0     H 6019   9.711   3.586   5.944  0.3444  1.0757  0.2662
   46MOL0     H 6020   9.632   3.603   6.097 -1.1610  0.7069 -0.9397
   46MOL0     H 6021   9.470   3.604   5.893 -1.2468 -1.1591 -0.7842
   46MOL0     H 6022   9.499   3.435   5.876 -0.6853  1.0694 -0.6801
   46MOL0     H 6023   9.438   3.386   6.115  1.6093 -1.8830 -3.1741
   46MOL0     H 6024   9.311   3.404   5.994 -1.0495  0.3694  0.6490
   46MOL0     H 6025   9.472   3.655   6.247 -0.8063 -4.2771  2.5611
   46MOL0     H 6026   9.254   3.805   6.457 -0.1822 -0.7729  0.0854
   46MOL0     H 6027   9.152   3.889   6.343 -1.7878 -3.1099 -0.2336
   46MOL0     H 6028   9.457   3.893   6.373  0.4623  0.8372 -2.4330
   46MOL0     H 6029   9.341   4.018   6.422  0.5812  1.6380 -0.8744
   46MOL0     H 6030   9.383   3.932   6.129  2.2376  0.3523 -1.8047
   46MOL0     H 6031   9.302   4.074   6.186 -1.7498 -2.0906 -1.7549
   46MOL0     H 6032   9.498   4.161   6.278  0.5350 -1.1279  0.8370
   46MOL0     H 6033   9.521   4.118   6.103  1.0824 -1.7951 -0.8121
   46MOL0     H 6034   9.847   3.842   6.266 -0.5625  1.3927  1.9844
   46MOL0     H 6035  10.071   3.881   6.204 -1.7489 -3.7058 -0.6600
   46MOL0     H 6036  10.425   3.837   6.161 -0.0697  1.5800  2.0564
   46MOL0     H 6037  10.692   3.829   6.094 -0.2962 -0.9288 -2.3931
   46MOL0     H 6038  10.885   4.234   6.162 -2.2781 -1.1311 -0.0248
   46MOL0     H 6039  10.877   4.210   5.987 -0.8419  0.3995 -0.2380
   46MOL0     H 6040  11.067   4.078   6.188  0.3425  1.8559  0.5588
   46MOL0     H 6041  11.100   4.235   6.115 -1.1327  0.5053 -0.8003
   46MOL0     H 6042  11.092   4.129   5.894  0.6202 -1.4775 -1.5851
   46MOL0     H 6043  11.078   3.972   5.969  0.2837  0.1464 -2.4155
   46MOL0     H 6044  11.326   4.157   5.975  0.2694  0.0383  2.0444
   46MOL0     H 6045  11.311   4.025   6.087 -0.9950  0.7053 -0.1084
   46MOL0     H 6046  11.355   4.033   5.789  1.2624 -0.2227  1.1721
   46MOL0     H 6047  11.248   3.900   5.860 -2.7608  2.0191  1.5207
   46MOL0     H 6048  11.423   3.836   6.010 -0.3614 -1.5426 -1.1576
   46MOL0     H 6049  11.496   3.999   5.981  1.8892  0.5846 -3.7107
   46MOL0     H 6050  11.502   3.750   5.802  2.6536 -0.4693 -3.0875
   46MOL0     H 6051  11.538   3.920   5.740 -0.6063 -3.9952 -3.4258
   46MOL0     H 6052  11.678   3.747   5.943 -1.4898 -0.1167 -0.5948
   46MOL0     H 6053  11.737   3.909   5.908  0.2104  1.0543 -0.1313
   46MOL0     H 6054  10.675   4.251   6.108 -2.5546  0.6108  1.0209
   46MOL0     H 6055  10.427   4.245   6.131 -1.1411  0.4999 -4.4865
   46MOL0     H 6056   9.961   4.263   6.045 -0.2955  0.0509 -1.4657
   46MOL0     H 6057   9.728   4.223   6.159 -0.5899  0.9172  2.2757
   46MOL0     H 6058  10.133   3.372   6.128 -0.9433  0.0807  1.1086
   46MOL0     H 6059  10.315   3.345   5.968 -2.6249  2.0743 -0.3416
   46MOL0     H 6060  10.774   3.733   5.851  0.4041 -0.1990  1.8238
   46MOL0     H 6061  10.990   3.715   5.767 -0.2280 -0.9685  0.4327
   46MOL0     H 6062  11.186   3.425   5.911  0.7287  0.8356  0.2979
   46MOL0     H 6063  11.288   3.510   5.808 -0.9969  1.3472  0.6504
   46MOL0     H 6064  11.352   3.303   5.686 -1.1868 -0.6138  0.0092
   46MOL0     H 6065  11.353   3.269   5.855 -1.4714 -0.6333  0.7422
   46MOL0     H 6066  11.159   3.190   5.635 -1.8131 -1.8567 -0.5277
   46MOL0     H 6067  11.123   3.161   5.811  0.3754  0.6517  0.0149
   46MOL0     H 6068  11.305   3.017   5.629 -0.1547 -0.3632  1.0685
   46MOL0     H 6069  11.358   3.045   5.799  3.5758  4.9153 -3.1710
   46MOL0     H 6070  11.058   2.749   5.835  2.4341 -0.3330  1.0040
   46MOL0     H 6071  10.952   3.280   5.785  1.4689 -0.2605  1.9475
   46MOL0     H 6072  10.734   3.299   5.873  1.6041 -1.4443 -4.5135
   47MOL0     O 6073   0.258   2.184   4.890  0.4883 -0.2578  0.9166
   47MOL0     C 6074   0.222   2.065   4.867 -1.3001  0.2857  0.5251
   47MOL0     O 6075   0.302   1.953   4.862 -0.4810  0.3741  0.3078
   47MOL0     C 6076   0.441   1.961   4.857  0.1684  0.7526 -0.4656
   47MOL0     C 6077   0.508   1.835   4.864  0.1668 -1.4104 -0.2074
   47MOL0     C 6078   0.652   1.826   4.850  0.2870 -1.8286 -0.7547
   47MOL0     C 6079   0.734   1.936   4.843 -0.6616  0.8865  0.4246
   47MOL0     O 6080   0.877   1.932   4.823  0.3863  0.3173  0.2614
   47MOL0     C 6081   0.956   2.030   4.882  0.5258 -0.2451 -0.1076
   47MOL0     C 6082   1.104   1.991   4.907 -0.4299  0.2861 -0.5409
   47MOL0     C 6083   1.183   1.958   4.775 -0.2210  0.6414  0.3757
   47MOL0     C 6084   1.337   1.962   4.800  0.6582  0.0547 -0.6556
   47MOL0     C 6085   1.414   1.904   4.689 -0.2817 -0.2403 -0.6722
   47MOL0     C 6086   1.413   1.752   4.685  0.3599 -0.2586 -0.2004
   47MOL0     C 6087   1.540   1.702   4.606 -0.6269 -0.7523 -0.0559
   47MOL0     C 6088   1.540   1.564   4.558 -0.4635  0.9363  0.5588
   47MOL0     N 6089   1.511   1.469   4.661 -0.2870  0.4433 -0.6147
   47MOL0     C 6090   1.600   1.392   4.733  0.0388 -0.0248  0.3153
   47MOL0     C 6091   1.518   1.317   4.808 -0.6882  1.4109  0.1466
   47MOL0     C 6092   1.565   1.214   4.916  0.0681  1.0383  0.5952
   47MOL0     C 6093   1.482   1.083   4.916  0.0114 -1.6518  0.1840
   47MOL0     C 6094   1.540   0.957   4.995  0.3360  0.3327  0.5499
   47MOL0     C 6095   1.680   0.913   4.986 -0.4930 -0.3505  0.2510
   47MOL0     O 6096   1.689   0.835   4.870  0.0246 -0.3082  0.1966
   47MOL0     C 6097   1.786   0.734   4.867  0.6114  0.1179  0.0438
   47MOL0     C 6098   1.908   0.749   4.933  0.2227 -0.3342  0.2149
   47MOL0     C 6099   1.997   0.648   4.935  0.1316  0.0497 -0.4112
   47MOL0     C 6100   1.987   0.530   4.857 -0.0517  0.0030  1.0349
   47MOL0     C 6101   2.113   0.441   4.863  0.2219 -0.2765  0.8807
   47MOL0     O 6102   2.224   0.487   4.925 -0.1506 -0.3688 -0.0138
   47MOL0     C 6103   2.333   0.417   4.953  0.2370 -0.3070  0.1132
   47MOL0     C 6104   2.329   0.304   5.026  0.5256  0.2531  0.2222
   47MOL0     C 6105   2.446   0.250   5.072 -0.1059 -1.0098  0.9851
   47MOL0     C 6106   2.568   0.311   5.042 -0.6350  0.7740  0.1883
   47MOL0     O 6107   2.674   0.235   5.075  0.1874  0.5194  0.3113
   47MOL0     C 6108   2.806   0.288   5.049  1.3455  0.1351  0.6129
   47MOL0     C 6109   2.900   0.211   5.135 -0.3313 -0.7335  0.6317
   47MOL0     C 6110   3.046   0.242   5.069  0.6331 -0.1979  0.1502
   47MOL0     C 6111   3.161   0.156   5.124  0.5080 -0.1191  0.3337
   47MOL0     C 6112   3.288   0.195   5.046 -0.0876 -0.4027 -0.6612
   47MOL0     C 6113   3.406   0.109   5.090  0.2949 -0.1973  0.4683
   47MOL0     C 6114   3.394  -0.043   5.065 -0.1911 -0.0722  1.2185
   47MOL0     C 6115   3.517  -0.127   5.104  0.5078  0.2768  0.4524
   47MOL0    Cl 6116   3.458  -0.294   5.085  0.2811 -0.2957 -0.3108
   47MOL0     C 6117   2.580   0.430   4.963 -0.2361  0.1582 -0.2231
   47MOL0     C 6118   2.458   0.492   4.932  0.7859  0.0747  0.3182
   47MOL0     O 6119   2.091   0.329   4.832  0.5803 -0.0301  0.3308
   47MOL0     C 6120   1.864   0.522   4.788 -0.4493  0.0907  0.0006
   47MOL0     C 6121   1.769   0.621   4.796  0.8950 -0.9982 -0.5374
   47MOL0     N 6122   1.386   1.346   4.781  0.1860  0.4284 -0.2854
   47MOL0     N 6123   1.383   1.431   4.692 -0.0951 -0.3434  0.4090
   47MOL0     C 6124   0.664   2.061   4.838  0.2497  0.7829 -0.2832
   47MOL0     C 6125   0.524   2.069   4.847  0.6231  0.8147  0.7440
   47MOL0     C 6126   0.083   2.024   4.854 -0.6936 -0.5007 -0.0043
   47MOL0     C 6127   0.039   1.889   4.861  0.4698 -0.1112  0.5162
   47MOL0     C 6128  -0.099   1.860   4.872  0.3550 -0.1666  0.3231
   47MOL0     C 6129  -0.194   1.965   4.854 -0.0833  0.2874  0.7249
   47MOL0     O 6130  -0.329   1.945   4.853 -0.3051  0.9854 -0.0186
   47MOL0     C 6131  -0.380   1.820   4.800 -0.4020 -0.5233 -0.7365
   47MOL0     C 6132  -0.530   1.808   4.843  0.2870  0.0256 -0.8426
   47MOL0     C 6133  -0.619   1.924   4.784 -0.6335 -0.5060 -0.1799
   47MOL0     C 6134  -0.763   1.888   4.812 -0.0856 -0.0365 -0.3414
   47MOL0     C 6135  -0.859   1.973   4.742  0.1416 -0.9024 -0.0196
   47MOL0     C 6136  -0.942   2.040   4.689  0.4344  0.0580 -0.4313
   47MOL0     C 6137  -0.155   2.094   4.846  0.4380 -0.3123  0.7053
   47MOL0     C 6138  -0.020   2.121   4.846 -0.1395 -0.5136  0.1073
   47MOL0     H 6139   0.448   1.747   4.882 -0.6693 -0.8299 -0.1058
   47MOL0     H 6140   0.708   1.736   4.875  2.2036 -0.3400  0.6723
   47MOL0     H 6141   0.914   2.058   4.979  2.9045  0.7511  0.7158
   47MOL0     H 6142   0.955   2.123   4.825  0.5961 -0.0907  0.1432
   47MOL0     H 6143   1.113   1.902   4.970 -2.2276  1.8608  2.1860
   47MOL0     H 6144   1.154   2.067   4.968  2.2002 -0.2287 -1.9340
   47MOL0     H 6145   1.155   2.024   4.692 -1.0697 -0.4866 -0.2651
   47MOL0     H 6146   1.144   1.861   4.743 -4.0990  2.5808 -1.5655
   47MOL0     H 6147   1.351   2.070   4.808 -2.6414  0.7847 -2.7067
   47MOL0     H 6148   1.369   1.925   4.897  1.0446  2.2289  0.0977
   47MOL0     H 6149   1.516   1.944   4.699 -1.3367  2.4392  0.3485
   47MOL0     H 6150   1.378   1.946   4.595 -1.0583 -0.3018 -0.4085
   47MOL0     H 6151   1.318   1.718   4.641 -0.1024 -0.3443  0.8503
   47MOL0     H 6152   1.423   1.709   4.785  0.8140  1.4479  0.5106
   47MOL0     H 6153   1.559   1.773   4.525  2.6553 -1.0084  0.3421
   47MOL0     H 6154   1.629   1.714   4.669  2.1111 -1.7977 -3.4108
   47MOL0     H 6155   1.639   1.549   4.513 -1.3533  1.6876 -1.7619
   47MOL0     H 6156   1.462   1.571   4.482 -0.3107 -0.7173  0.2156
   47MOL0     H 6157   1.708   1.383   4.722  0.3798  2.1744  1.4370
   47MOL0     H 6158   1.569   1.264   5.014  2.5798 -0.3712  1.3071
   47MOL0     H 6159   1.670   1.192   4.895  0.3210  2.5275  0.1859
   47MOL0     H 6160   1.462   1.052   4.812  1.2724 -4.0648  0.5706
   47MOL0     H 6161   1.388   1.116   4.960 -0.6528  0.6748 -2.6803
   47MOL0     H 6162   1.531   0.982   5.101 -2.9813  3.7536 -0.2911
   47MOL0     H 6163   1.481   0.867   4.974 -0.1513  0.7415  0.1077
   47MOL0     H 6164   1.702   0.846   5.071 -2.5392 -1.4978 -0.0543
   47MOL0     H 6165   1.752   0.996   4.989 -0.8877 -0.0012  0.0341
   47MOL0     H 6166   1.929   0.831   5.000  1.6559 -0.7479  0.3136
   47MOL0     H 6167   2.075   0.669   5.007  0.5268 -0.0936 -0.7960
   47MOL0     H 6168   2.231   0.260   5.040  0.3431  0.6796  0.2952
   47MOL0     H 6169   2.448   0.148   5.109  1.0941 -0.4271  2.7033
   47MOL0     H 6170   2.810   0.395   5.069  1.5090  0.1885  0.2928
   47MOL0     H 6171   2.821   0.273   4.942 -1.0454 -1.9083  0.4540
   47MOL0     H 6172   2.895   0.104   5.117  2.5422 -0.8244 -0.0999
   47MOL0     H 6173   2.906   0.241   5.240 -0.2931 -1.6683  0.9037
   47MOL0     H 6174   3.071   0.347   5.081  0.7060 -0.2912  0.8729
   47MOL0     H 6175   3.044   0.218   4.962  0.7596 -0.7942  0.2735
   47MOL0     H 6176   3.184   0.145   5.231  0.3220 -1.8173  0.2178
   47MOL0     H 6177   3.127   0.053   5.108 -1.2962  0.2997  1.3054
   47MOL0     H 6178   3.310   0.298   5.076  0.6409 -0.4670 -0.9666
   47MOL0     H 6179   3.300   0.202   4.938  2.2112 -0.1288 -0.4325
   47MOL0     H 6180   3.414   0.136   5.196 -0.2328 -0.6945  0.6396
   47MOL0     H 6181   3.496   0.140   5.036  0.1226 -2.6781 -1.4336
   47MOL0     H 6182   3.303  -0.079   5.115 -1.1526 -0.9403 -0.9925
   47MOL0     H 6183   3.381  -0.060   4.957 -2.8524  1.6060  1.1727
   47MOL0     H 6184   3.550  -0.100   5.205 -2.1746  2.0553  0.9641
   47MOL0     H 6185   3.593  -0.105   5.028 -0.6137  1.5129 -0.3635
   47MOL0     H 6186   2.672   0.476   4.929 -0.2851  0.8052  0.5043
   47MOL0     H 6187   2.468   0.594   4.896  0.3606  0.3058  0.8517
   47MOL0     H 6188   1.847   0.441   4.718 -0.6767  0.2793 -0.1624
   47MOL0     H 6189   1.676   0.621   4.739  1.1672  2.7647 -1.2375
   47MOL0     H 6190   0.715   2.157   4.829  0.0539  0.7801 -1.6693
   47MOL0     H 6191   0.482   2.170   4.844 -0.9157  0.2352  1.6226
   47MOL0     H 6192   0.111   1.809   4.857 -0.9143 -1.6371  3.2246
   47MOL0     H 6193  -0.113   1.753   4.873  0.9019 -0.2500 -0.2998
   47MOL0     H 6194  -0.325   1.738   4.847 -3.4708 -1.4054  1.6572
   47MOL0     H 6195  -0.379   1.811   4.691  1.4181 -0.5757 -0.7461
   47MOL0     H 6196  -0.561   1.710   4.804  0.1919 -0.4060  0.2833
   47MOL0     H 6197  -0.540   1.809   4.952  2.0942  1.6464 -0.6434
   47MOL0     H 6198  -0.600   1.953   4.680  0.0649  1.4824  0.4605
   47MOL0     H 6199  -0.599   2.017   4.837 -0.4006  0.1237 -1.3297
   47MOL0     H 6200  -0.762   1.783   4.783 -1.4746  1.3989 -7.7111
   47MOL0     H 6201  -0.795   1.898   4.916  1.8336 -0.6578  0.3379
   47MOL0     H 6202  -1.029   2.085   4.646 -1.6006 -2.2524  1.0273
   47MOL0     H 6203  -0.229   2.172   4.829  1.0118 -0.0178 -0.5763
   47MOL0     H 6204   0.010   2.226   4.837  0.6936 -0.7486  0.0265
   48MOL0     O 6205   3.750   3.657   4.176 -0.7759  0.1428  0.8434
   48MOL0     C 6206   3.858   3.603   4.209 -0.7208  0.3577 -0.8811
   48MOL0     O 6207   3.878   3.521   4.322  1.1286  0.5794  0.4636
   48MOL0     C 6208   3.766   3.478   4.387 -0.6969  0.3317 -0.0791
   48MOL0     C 6209   3.717   3.521   4.513 -0.2080  0.7718 -0.6715
   48MOL0     C 6210   3.598   3.473   4.562 -0.3009  0.1427  0.2967
   48MOL0     C 6211   3.526   3.373   4.505 -0.3571  0.2971  0.5904
   48MOL0     O 6212   3.400   3.351   4.556 -0.0440  0.3602  0.0794
   48MOL0     C 6213   3.286   3.364   4.468  0.4735  0.4760  0.3399
   48MOL0     C 6214   3.247   3.515   4.464 -0.1705  0.1725  0.8873
   48MOL0     C 6215   3.321   3.594   4.355  1.0198 -0.2526  0.1762
   48MOL0     C 6216   3.264   3.737   4.324  0.5136  0.7202 -0.0345
   48MOL0     C 6217   3.365   3.801   4.234  0.4251  0.9266 -0.7463
   48MOL0     C 6218   3.348   3.949   4.256  0.5845  0.3886 -0.3940
   48MOL0     C 6219   3.406   4.005   4.389 -0.1624 -0.8525  1.1230
   48MOL0     C 6220   3.556   4.027   4.379 -0.2175 -0.1831  0.1208
   48MOL0     N 6221   3.597   4.081   4.507  0.0396  0.6629 -0.1483
   48MOL0     C 6222   3.580   4.222   4.543 -0.4905  0.2159 -0.3415
   48MOL0     C 6223   3.683   4.232   4.632 -0.0485 -0.0693  0.3213
   48MOL0     C 6224   3.721   4.361   4.705 -0.0297  0.4212  0.6407
   48MOL0     C 6225   3.811   4.435   4.619  0.4725 -0.2310  0.1305
   48MOL0     C 6226   3.925   4.366   4.566  0.9672  0.9668  0.1692
   48MOL0     C 6227   3.992   4.461   4.464 -0.6631  0.6555  0.0246
   48MOL0     O 6228   4.100   4.388   4.392  0.0485  0.1542 -0.3177
   48MOL0     C 6229   4.207   4.457   4.352 -0.8305  0.1886 -0.8973
   48MOL0     C 6230   4.315   4.371   4.326 -0.4434 -0.0165  0.0144
   48MOL0     C 6231   4.436   4.419   4.276  0.9522  0.3241  0.1257
   48MOL0     C 6232   4.455   4.557   4.258 -1.0097 -0.4955 -0.7239
   48MOL0     C 6233   4.572   4.606   4.180 -0.0207  0.3231 -0.1895
   48MOL0     O 6234   4.588   4.741   4.180  0.2983  0.6934 -0.5171
   48MOL0     C 6235   4.714   4.781   4.138  0.9774 -0.1119  0.1851
   48MOL0     C 6236   4.728   4.805   3.996  0.5383 -0.4693 -0.4954
   48MOL0     C 6237   4.855   4.840   3.949  1.5731  0.0230  1.4523
   48MOL0     C 6238   4.967   4.844   4.032 -0.3600 -0.0254 -0.4384
   48MOL0     O 6239   5.093   4.878   3.984 -0.0109 -0.1221 -0.2521
   48MOL0     C 6240   5.101   5.028   3.975  0.6589  0.5220  0.7180
   48MOL0     C 6241   5.189   5.062   3.853  0.2730  0.0114 -0.3299
   48MOL0     C 6242   5.208   5.219   3.862 -0.4574  0.4091 -0.5521
   48MOL0     C 6243   5.290   5.269   3.742 -0.4363 -0.0567  0.5836
   48MOL0     C 6244   5.332   5.423   3.761 -0.2911  0.5124  1.0941
   48MOL0     C 6245   5.220   5.530   3.780  0.2234  0.0419 -0.4207
   48MOL0     C 6246   5.272   5.678   3.763  0.8847 -0.8353 -0.6032
   48MOL0     C 6247   5.166   5.782   3.796  0.3700  0.0321  0.7944
   48MOL0    Cl 6248   5.001   5.748   3.742  0.5171  0.3439  0.5676
   48MOL0     C 6249   4.949   4.814   4.168  0.1109 -0.8094 -0.3787
   48MOL0     C 6250   4.827   4.775   4.220  0.2939 -0.3034  0.1424
   48MOL0     O 6251   4.644   4.526   4.122 -0.1067 -0.5236  1.3028
   48MOL0     C 6252   4.352   4.646   4.298 -0.4814  0.1333 -0.4448
   48MOL0     C 6253   4.228   4.598   4.339  0.9904  0.3607 -0.8386
   48MOL0     N 6254   3.741   4.111   4.655  0.5862 -0.5519  0.2167
   48MOL0     N 6255   3.685   4.022   4.584 -0.2258 -0.8660 -0.7174
   48MOL0     C 6256   3.579   3.312   4.390 -0.1695  0.3030  0.3043
   48MOL0     C 6257   3.690   3.376   4.331  0.2007 -0.0401  0.3554
   48MOL0     C 6258   3.982   3.631   4.125  0.0595  0.7448 -0.1568
   48MOL0     C 6259   3.968   3.718   4.024  0.4931 -0.3083  0.0007
   48MOL0     C 6260   4.083   3.752   3.945  0.7716  1.3464  1.0349
   48MOL0     C 6261   4.208   3.696   3.973  0.7343 -0.6653 -0.3584
   48MOL0     O 6262   4.332   3.729   3.923 -1.2345 -0.3482  0.3541
   48MOL0     C 6263   4.337   3.802   3.800  0.4464  1.2128  0.2487
   48MOL0     C 6264   4.478   3.845   3.779 -0.1673  1.3770  0.3828
   48MOL0     C 6265   4.582   3.734   3.738 -0.2210  0.6295 -0.2952
   48MOL0     C 6266   4.568   3.698   3.590  1.1892 -0.3967  1.1638
   48MOL0     C 6267   4.668   3.602   3.552  0.5473  0.1779  0.4298
   48MOL0     C 6268   4.735   3.509   3.510  1.3119 -0.4461 -0.3559
   48MOL0     C 6269   4.212   3.608   4.076 -0.3865  0.3978 -0.2708
   48MOL0     C 6270   4.106   3.569   4.150  0.7086  0.2439 -0.7200
   48MOL0     H 6271   3.767   3.609   4.552 -0.4875  1.4186 -1.7075
   48MOL0     H 6272   3.563   3.531   4.647 -3.1690 -0.6042 -0.2556
   48MOL0     H 6273   3.205   3.303   4.508 -1.4563  0.0844 -3.6316
   48MOL0     H 6274   3.307   3.318   4.371  0.8204  1.4232 -0.0545
   48MOL0     H 6275   3.269   3.550   4.566 -1.0706 -0.9251  1.4813
   48MOL0     H 6276   3.140   3.518   4.444 -0.2374 -2.3957  0.4936
   48MOL0     H 6277   3.326   3.535   4.263  2.7336  1.1591 -0.6853
   48MOL0     H 6278   3.429   3.606   4.370  1.3144  0.2049 -2.0173
   48MOL0     H 6279   3.166   3.733   4.274  1.5899  1.5633 -2.3475
   48MOL0     H 6280   3.247   3.779   4.423  0.2196 -2.4151  1.3538
   48MOL0     H 6281   3.344   3.769   4.132  2.6851  2.5603 -1.7810
   48MOL0     H 6282   3.468   3.776   4.262  0.2458 -1.0324 -1.6321
   48MOL0     H 6283   3.242   3.974   4.264  0.0617 -0.7290 -2.8569
   48MOL0     H 6284   3.397   3.998   4.171  2.3516 -0.1253  0.2647
   48MOL0     H 6285   3.358   4.103   4.395  2.5511  0.7754 -1.0785
   48MOL0     H 6286   3.393   3.936   4.473 -0.8453  0.5467  2.2016
   48MOL0     H 6287   3.582   4.092   4.295 -0.3269  1.2120  1.1298
   48MOL0     H 6288   3.601   3.928   4.369  1.9994  0.1828  4.1916
   48MOL0     H 6289   3.509   4.295   4.506 -0.8212 -1.0241 -2.3047
   48MOL0     H 6290   3.773   4.348   4.800  0.5742 -0.4216  0.2082
   48MOL0     H 6291   3.628   4.417   4.720  0.8056  1.4693  2.0808
   48MOL0     H 6292   3.854   4.517   4.676  0.9676 -0.1243 -0.3841
   48MOL0     H 6293   3.747   4.479   4.542  2.5801  2.0182 -0.4450
   48MOL0     H 6294   3.980   4.328   4.653  0.1086 -1.4495 -0.2433
   48MOL0     H 6295   3.888   4.278   4.511 -0.2609  1.9629 -0.6676
   48MOL0     H 6296   4.022   4.547   4.524  2.0739 -1.1737  1.5190
   48MOL0     H 6297   3.919   4.499   4.392 -1.3410  1.4717  1.1134
   48MOL0     H 6298   4.308   4.264   4.340 -1.9415  0.1443  0.7450
   48MOL0     H 6299   4.517   4.351   4.254 -0.2254 -1.8317  1.9796
   48MOL0     H 6300   4.639   4.785   3.938  1.0578  0.1508 -1.5223
   48MOL0     H 6301   4.860   4.873   3.845 -0.6826  0.7392  1.5325
   48MOL0     H 6302   5.131   5.077   4.068 -0.6529 -1.9431  2.5811
   48MOL0     H 6303   5.001   5.068   3.953 -0.8722 -2.1593  2.2017
   48MOL0     H 6304   5.137   5.032   3.762 -3.0777  1.7407  0.8820
   48MOL0     H 6305   5.287   5.015   3.870  0.8375  1.3649  0.2821
   48MOL0     H 6306   5.253   5.233   3.961 -0.0165 -1.9872 -0.3440
   48MOL0     H 6307   5.115   5.275   3.853 -1.2100 -0.7870 -0.4836
   48MOL0     H 6308   5.383   5.215   3.724 -0.7359 -0.4443  0.2024
   48MOL0     H 6309   5.226   5.262   3.653 -0.6794  0.5127  0.7045
   48MOL0     H 6310   5.389   5.453   3.673 -0.4316 -0.2939  0.7137
   48MOL0     H 6311   5.410   5.425   3.838  0.6060 -0.0224  0.2259
   48MOL0     H 6312   5.172   5.505   3.875  0.6092 -2.5561 -0.8258
   48MOL0     H 6313   5.153   5.502   3.698  1.9077 -0.8890 -1.5567
   48MOL0     H 6314   5.353   5.697   3.833 -0.1868  1.5978  0.0853
   48MOL0     H 6315   5.310   5.687   3.661  1.9688 -0.9526 -0.2179
   48MOL0     H 6316   5.187   5.882   3.757 -1.4812  0.3276  0.4511
   48MOL0     H 6317   5.155   5.777   3.904 -1.5891 -0.9645  0.5890
   48MOL0     H 6318   5.031   4.823   4.238 -0.1665 -2.8994  0.2837
   48MOL0     H 6319   4.812   4.758   4.326 -1.8599 -0.7395 -0.1755
   48MOL0     H 6320   4.360   4.752   4.278 -2.5541  0.5291  0.5313
   48MOL0     H 6321   4.150   4.674   4.339  0.2143 -0.3589  1.2557
   48MOL0     H 6322   3.521   3.242   4.330  0.9950  1.7643 -2.7675
   48MOL0     H 6323   3.706   3.347   4.228  0.7164  0.5223  0.2721
   48MOL0     H 6324   3.876   3.768   3.997  1.0685 -0.1505 -1.8410
   48MOL0     H 6325   4.068   3.825   3.866  0.7171  1.0582  0.7778
   48MOL0     H 6326   4.282   3.896   3.812 -0.7751  0.4316  0.9570
   48MOL0     H 6327   4.291   3.740   3.722  0.4233  1.1943  0.2773
   48MOL0     H 6328   4.478   3.930   3.710 -1.4423 -0.8308 -2.5401
   48MOL0     H 6329   4.509   3.878   3.879 -0.0442  0.7823  0.5448
   48MOL0     H 6330   4.573   3.647   3.803  1.3972  1.4770  1.1482
   48MOL0     H 6331   4.688   3.754   3.756 -0.3881  2.8459 -1.3163
   48MOL0     H 6332   4.471   3.650   3.573  0.4518  2.3483 -4.3080
   48MOL0     H 6333   4.582   3.786   3.527 -1.9764 -0.3874  0.2982
   48MOL0     H 6334   4.796   3.428   3.474 -0.8663 -2.0240 -0.7261
   48MOL0     H 6335   4.305   3.558   4.103 -0.6904  0.8388  1.7388
   48MOL0     H 6336   4.118   3.496   4.229 -2.0357 -1.8544 -2.0945
   49MOL0     O 6337   7.992   9.208   4.699  0.2516 -0.5327 -0.1376
   49MOL0     C 6338   7.906   9.126   4.656  0.3090 -1.1874  0.3860
   49MOL0     O 6339   7.927   9.024   4.570  0.7441  0.0474  0.1845
   49MOL0     C 6340   8.044   9.030   4.503 -0.0187  0.5819 -0.5838
   49MOL0     C 6341   8.166   8.998   4.561 -0.0200  1.0625  0.4334
   49MOL0     C 6342   8.278   9.025   4.480  0.0899  0.0560 -0.0954
   49MOL0     C 6343   8.273   9.069   4.346 -0.0324 -0.2069  0.5102
   49MOL0     O 6344   8.372   9.074   4.258  0.4773 -0.3975  0.0081
   49MOL0     C 6345   8.498   9.033   4.299  1.4984 -0.4822 -0.6198
   49MOL0     C 6346   8.597   9.031   4.194 -0.3088 -0.2748 -0.1802
   49MOL0     C 6347   8.736   9.027   4.246  0.8643 -1.1324  0.6730
   49MOL0     C 6348   8.835   9.011   4.129  0.9240 -0.0205  0.3422
   49MOL0     C 6349   8.976   9.050   4.150  0.5149 -0.8280 -0.0272
   49MOL0     C 6350   9.059   9.049   4.025 -0.2995  0.9365  0.5340
   49MOL0     C 6351   9.056   8.916   3.949  0.2845 -0.0484  0.2609
   49MOL0     C 6352   9.183   8.911   3.858  0.5606  0.8548 -0.2732
   49MOL0     N 6353   9.203   8.772   3.807  0.4821 -0.3361 -0.5702
   49MOL0     C 6354   9.314   8.698   3.801  0.3366 -0.2590  0.1360
   49MOL0     C 6355   9.281   8.589   3.730 -0.6866 -0.7314 -1.3489
   49MOL0     C 6356   9.367   8.477   3.673 -0.3831  0.0513  0.2234
   49MOL0     C 6357   9.317   8.342   3.734  0.3310  0.8336 -0.1485
   49MOL0     C 6358   9.290   8.343   3.883  0.5526  0.7599  0.2922
   49MOL0     C 6359   9.247   8.200   3.926  0.6639  0.4906  0.1353
   49MOL0     O 6360   9.138   8.151   3.850 -0.3525  0.7983  0.6379
   49MOL0     C 6361   9.003   8.172   3.880 -0.3254 -0.4538 -0.7239
   49MOL0     C 6362   8.963   8.253   3.991 -0.0631 -0.6288  0.1209
   49MOL0     C 6363   8.826   8.257   4.024  0.1063 -0.3971  0.5338
   49MOL0     C 6364   8.721   8.199   3.952 -0.8373 -0.3604  0.9848
   49MOL0     C 6365   8.582   8.223   3.978  0.8835  0.3954  0.8685
   49MOL0     O 6366   8.538   8.292   4.085  0.0920 -0.4373  0.1656
   49MOL0     C 6367   8.418   8.253   4.144  0.6817  0.0298  0.6019
   49MOL0     C 6368   8.305   8.327   4.110  0.0486  0.7694  0.3585
   49MOL0     C 6369   8.184   8.271   4.152 -0.0956 -0.3234 -1.0663
   49MOL0     C 6370   8.180   8.156   4.224 -0.6906  0.6881 -0.7254
   49MOL0     O 6371   8.049   8.112   4.248  0.1629  0.4072  0.8136
   49MOL0     C 6372   8.015   8.065   4.379 -0.7157  0.6849 -0.3986
   49MOL0     C 6373   7.867   8.053   4.389  0.6456  0.5560 -0.3008
   49MOL0     C 6374   7.818   7.977   4.517  0.9847 -0.5475  0.1947
   49MOL0     C 6375   7.668   8.009   4.548 -0.2427  0.3339  0.4969
   49MOL0     C 6376   7.576   7.951   4.433 -0.3866  0.0134 -0.5326
   49MOL0     C 6377   7.428   7.975   4.466 -0.1491  0.0906 -0.9155
   49MOL0     C 6378   7.359   7.906   4.354  0.8587  0.8825  0.2058
   49MOL0     C 6379   7.296   8.003   4.270  0.5115 -1.1736 -0.3544
   49MOL0    Cl 6380   7.131   8.055   4.335  0.0854  0.3689 -0.1910
   49MOL0     C 6381   8.292   8.082   4.262  0.4681 -0.4539  0.0534
   49MOL0     C 6382   8.415   8.135   4.224  0.1383 -0.0829 -0.2371
   49MOL0     O 6383   8.501   8.177   3.897  0.6568 -0.7666  0.1993
   49MOL0     C 6384   8.761   8.118   3.842  0.4222 -0.5111 -0.7212
   49MOL0     C 6385   8.896   8.103   3.818 -0.0545 -0.0073  1.4031
   49MOL0     N 6386   9.143   8.597   3.711 -0.3355 -0.0060  0.3242
   49MOL0     N 6387   9.098   8.707   3.753  0.2937  0.2756  0.2622
   49MOL0     C 6388   8.156   9.097   4.291  1.8200 -0.3316 -0.5299
   49MOL0     C 6389   8.042   9.081   4.368 -0.0144 -0.2445 -0.5854
   49MOL0     C 6390   7.764   9.152   4.697 -0.2587 -0.5270 -1.0683
   49MOL0     C 6391   7.653   9.073   4.646 -0.5348  0.3375 -0.2529
   49MOL0     C 6392   7.521   9.118   4.672 -0.2116 -0.0964 -0.4047
   49MOL0     C 6393   7.486   9.224   4.761 -0.1246  0.0277  0.9498
   49MOL0     O 6394   7.356   9.266   4.789  0.3330  0.1662  0.1068
   49MOL0     C 6395   7.250   9.170   4.786  1.4962 -0.1928  0.4375
   49MOL0     C 6396   7.177   9.184   4.655 -0.6265 -0.2211 -0.5705
   49MOL0     C 6397   7.111   9.310   4.636 -0.2238  0.1166  0.1970
   49MOL0     C 6398   6.999   9.350   4.732  0.1466  0.0921  0.2621
   49MOL0     C 6399   6.901   9.428   4.659  0.1945 -0.8536  0.0522
   49MOL0     C 6400   6.818   9.477   4.586  0.0007 -0.5269  1.2100
   49MOL0     C 6401   7.596   9.289   4.815 -0.5175 -0.2917 -0.4103
   49MOL0     C 6402   7.732   9.256   4.786  0.3627 -0.6180  0.9712
   49MOL0     H 6403   8.169   8.963   4.664 -2.0879 -0.8404 -0.0695
   49MOL0     H 6404   8.371   8.995   4.529 -0.7369  1.6673  2.6893
   49MOL0     H 6405   8.486   8.926   4.321 -0.5627 -0.2051 -0.1994
   49MOL0     H 6406   8.541   9.096   4.378 -1.6893  0.8338  0.1947
   49MOL0     H 6407   8.587   9.113   4.122 -3.7529 -2.9599 -3.0990
   49MOL0     H 6408   8.576   8.943   4.133 -1.0047 -1.8575  2.2082
   49MOL0     H 6409   8.741   8.942   4.315  3.2235 -3.1286 -1.7224
   49MOL0     H 6410   8.756   9.124   4.292 -0.0034  0.1007 -1.3947
   49MOL0     H 6411   8.837   8.904   4.106  1.5035 -0.0701  0.5995
   49MOL0     H 6412   8.803   9.069   4.042 -0.0842 -0.4330  0.4276
   49MOL0     H 6413   9.009   8.975   4.221 -0.5306 -0.7618  0.5473
   49MOL0     H 6414   8.995   9.146   4.199  1.0816 -0.6219 -0.6239
   49MOL0     H 6415   9.160   9.064   4.065 -0.8315  1.6924  1.6521
   49MOL0     H 6416   9.050   9.136   3.959  1.8649  0.4812 -0.4337
   49MOL0     H 6417   9.065   8.829   4.015  0.4585 -0.4686 -0.2998
   49MOL0     H 6418   8.963   8.904   3.893 -0.1286  2.1239  0.4123
   49MOL0     H 6419   9.265   8.942   3.924 -1.6832  0.9777  2.6677
   49MOL0     H 6420   9.160   8.980   3.777 -2.6709  2.8966  2.1134
   49MOL0     H 6421   9.415   8.717   3.834 -0.3130  2.7543  0.6994
   49MOL0     H 6422   9.470   8.505   3.696 -0.5404 -0.2102  1.3488
   49MOL0     H 6423   9.356   8.466   3.565 -1.6753 -1.2588  0.4411
   49MOL0     H 6424   9.396   8.268   3.712  0.9055  0.3880  2.9399
   49MOL0     H 6425   9.230   8.307   3.678  0.7929 -1.4892  0.4491
   49MOL0     H 6426   9.384   8.358   3.936  0.1969  1.3516  0.7644
   49MOL0     H 6427   9.213   8.417   3.910 -0.6090 -0.1823 -0.3244
   49MOL0     H 6428   9.218   8.189   4.031 -1.8275 -4.3230 -0.7484
   49MOL0     H 6429   9.330   8.129   3.918 -0.1526 -0.5112  0.3482
   49MOL0     H 6430   9.031   8.312   4.052 -0.4985 -0.5210  0.5040
   49MOL0     H 6431   8.796   8.319   4.108  1.5890 -3.5570  3.6711
   49MOL0     H 6432   8.305   8.419   4.053 -2.9836  0.2839 -0.6097
   49MOL0     H 6433   8.089   8.323   4.146 -0.6678 -0.9819  1.1553
   49MOL0     H 6434   8.047   8.132   4.459 -5.6185  0.3153  2.3061
   49MOL0     H 6435   8.058   7.966   4.396 -5.0665 -0.9889  2.6883
   49MOL0     H 6436   7.845   7.984   4.307 -1.3580 -1.4599  1.7986
   49MOL0     H 6437   7.816   8.149   4.375 -2.8099 -1.3298 -2.1553
   49MOL0     H 6438   7.862   8.010   4.612 -0.6375 -0.8638  1.0862
   49MOL0     H 6439   7.835   7.872   4.492  0.1734 -0.7141  0.3138
   49MOL0     H 6440   7.635   7.973   4.646 -0.7003  1.2284  0.6857
   49MOL0     H 6441   7.649   8.117   4.543 -0.6035  0.2289 -1.3143
   49MOL0     H 6442   7.587   7.844   4.414 -1.7052  0.1558 -2.3974
   49MOL0     H 6443   7.605   7.997   4.338 -0.7803 -0.0743 -0.6952
   49MOL0     H 6444   7.402   8.081   4.468  1.1642  0.4110  0.7911
   49MOL0     H 6445   7.412   7.925   4.562  3.0872 -0.8559 -0.7508
   49MOL0     H 6446   7.426   7.850   4.289  4.4560  1.6803  2.8806
   49MOL0     H 6447   7.284   7.837   4.394  1.6179 -0.0944 -0.0272
   49MOL0     H 6448   7.268   7.964   4.172 -1.0198 -1.0565 -0.0007
   49MOL0     H 6449   7.353   8.096   4.260  0.1307 -0.7656  0.9910
   49MOL0     H 6450   8.301   7.987   4.312 -1.7359 -0.0948  1.2981
   49MOL0     H 6451   8.508   8.096   4.265  1.0062  1.1414 -0.9737
   49MOL0     H 6452   8.701   8.065   3.769 -1.6909 -1.4488  1.5519
   49MOL0     H 6453   8.920   8.037   3.735  0.9127  2.3545 -0.3200
   49MOL0     H 6454   8.128   9.125   4.190  1.3903  3.1872  0.4308
   49MOL0     H 6455   7.944   9.117   4.335  1.1243  3.8555 -0.0088
   49MOL0     H 6456   7.652   8.989   4.577 -1.3153 -0.2915  0.4967
   49MOL0     H 6457   7.439   9.057   4.635 -0.3337 -1.1520  1.4844
   49MOL0     H 6458   7.182   9.187   4.869 -1.2204  1.5649 -1.9468
   49MOL0     H 6459   7.271   9.063   4.785 -1.6668 -0.9109 -1.3661
   49MOL0     H 6460   7.247   9.153   4.577 -0.7071 -1.3578 -0.2049
   49MOL0     H 6461   7.092   9.117   4.662 -1.4544  0.8900  0.5449
   49MOL0     H 6462   7.064   9.302   4.538  2.6347  1.2495 -1.3850
   49MOL0     H 6463   7.194   9.381   4.630 -0.0971 -0.1714 -2.3673
   49MOL0     H 6464   6.958   9.276   4.801  2.1181 -1.3077  0.0074
   49MOL0     H 6465   7.044   9.410   4.813 -0.7472  1.0346  0.0854
   49MOL0     H 6466   6.763   9.528   4.509  1.1952 -2.1480 -0.8328
   49MOL0     H 6467   7.579   9.377   4.875 -0.1518  0.8169 -1.8774
   49MOL0     H 6468   7.812   9.318   4.827 -0.4597 -0.4339  2.3487
   50MOL0     O 6469   3.321   8.223   4.106  0.3458  0.7324 -0.4260
   50MOL0     C 6470   3.356   8.211   3.989  0.7618 -0.4646 -0.2566
   50MOL0     O 6471   3.281   8.169   3.882  0.1379  1.0504  0.9029
   50MOL0     C 6472   3.147   8.147   3.912  0.1772  0.4278  0.0459
   50MOL0     C 6473   3.099   8.034   3.986 -0.0017  0.1711  0.1816
   50MOL0     C 6474   2.957   8.020   4.016 -1.3224  0.1379  0.3499
   50MOL0     C 6475   2.866   8.105   3.953 -0.3552 -0.2636 -1.1691
   50MOL0     O 6476   2.729   8.084   3.978  0.5350  0.1621  0.2787
   50MOL0     C 6477   2.660   8.189   4.049 -0.1796  0.2853  0.7959
   50MOL0     C 6478   2.658   8.153   4.200  0.1930 -0.1099  0.1664
   50MOL0     C 6479   2.589   8.012   4.227  0.3395 -0.8427  0.6131
   50MOL0     C 6480   2.597   7.977   4.372  0.3312  0.0431 -0.4527
   50MOL0     C 6481   2.481   7.889   4.407  0.1285 -0.2867 -0.8114
   50MOL0     C 6482   2.459   7.758   4.331  0.9209  0.0432 -0.9375
   50MOL0     C 6483   2.573   7.650   4.338 -0.5020 -0.4337  1.2166
   50MOL0     C 6484   2.613   7.632   4.483 -0.0017 -0.0438 -0.0714
   50MOL0     N 6485   2.681   7.512   4.508  0.1220  0.2137  0.7372
   50MOL0     C 6486   2.735   7.421   4.413 -0.6612 -0.2748  0.0407
   50MOL0     C 6487   2.780   7.314   4.480 -0.7148 -0.9692  0.5749
   50MOL0     C 6488   2.848   7.195   4.431  0.5550 -0.1276  1.4816
   50MOL0     C 6489   2.992   7.242   4.385 -0.6679  0.4422  0.1759
   50MOL0     C 6490   3.082   7.127   4.349 -0.6213  0.0083  0.2291
   50MOL0     C 6491   3.042   7.030   4.228 -0.0451 -0.4239  0.2393
   50MOL0     O 6492   3.018   7.130   4.120 -0.2782  0.0565  0.2005
   50MOL0     C 6493   2.965   7.084   4.000  0.1439  0.6290  0.0639
   50MOL0     C 6494   2.917   6.946   3.984 -0.0326 -0.1807  0.5553
   50MOL0     C 6495   2.864   6.910   3.864 -0.1433  0.4495  1.0860
   50MOL0     C 6496   2.839   7.001   3.765 -0.0447  0.0051  0.6664
   50MOL0     C 6497   2.772   6.957   3.640 -0.8337  0.7362 -0.3056
   50MOL0     O 6498   2.719   7.062   3.569 -0.0714  0.1511  0.0732
   50MOL0     C 6499   2.633   7.041   3.454 -0.0579  0.0981 -0.2537
   50MOL0     C 6500   2.524   7.125   3.434 -0.3123 -0.7249  0.4080
   50MOL0     C 6501   2.450   7.130   3.316  0.6180 -0.5067  0.0319
   50MOL0     C 6502   2.476   7.032   3.217  0.1941 -0.1795 -0.8780
   50MOL0     O 6503   2.411   7.028   3.102  0.4699  0.4811 -0.0647
   50MOL0     C 6504   2.267   7.028   3.116 -0.3631 -0.1070  0.0462
   50MOL0     C 6505   2.189   7.017   2.982 -0.6874  0.0184  0.6260
   50MOL0     C 6506   2.225   6.894   2.890  0.5452 -0.1518  0.3265
   50MOL0     C 6507   2.125   6.883   2.784 -0.0334 -0.5209 -0.7644
   50MOL0     C 6508   2.141   6.773   2.678 -0.3526 -0.4224 -0.4429
   50MOL0     C 6509   2.039   6.789   2.561  0.5196  0.4851  0.0470
   50MOL0     C 6510   2.053   6.675   2.458  0.5576 -0.3681 -1.4919
   50MOL0     C 6511   2.000   6.729   2.325 -0.1929 -0.2441  0.3934
   50MOL0    Cl 6512   1.853   6.815   2.344  0.1868  0.5769  0.2441
   50MOL0     C 6513   2.586   6.942   3.233 -0.4559 -1.7410 -0.2503
   50MOL0     C 6514   2.667   6.953   3.347  0.6759  0.6692 -0.2126
   50MOL0     O 6515   2.758   6.836   3.614  0.0978 -0.0749  1.0304
   50MOL0     C 6516   2.865   7.136   3.782  0.0864  0.0600  0.4690
   50MOL0     C 6517   2.937   7.174   3.902 -0.3050 -0.0138  0.2307
   50MOL0     N 6518   2.757   7.340   4.611  0.7311  0.7895  0.4390
   50MOL0     N 6519   2.705   7.452   4.626  0.3009 -0.3636  0.4872
   50MOL0     C 6520   2.917   8.196   3.853  0.2446 -0.4370 -0.4643
   50MOL0     C 6521   3.053   8.224   3.851  0.3308  0.5194  0.9613
   50MOL0     C 6522   3.487   8.263   3.950  0.2595 -0.1942  0.0850
   50MOL0     C 6523   3.547   8.373   4.013 -0.4859 -0.4306  0.3953
   50MOL0     C 6524   3.659   8.436   3.981 -1.0310  0.1409  0.0408
   50MOL0     C 6525   3.736   8.377   3.876  0.3880  0.2944  0.1438
   50MOL0     O 6526   3.856   8.437   3.849 -0.0535 -0.3870  0.3773
   50MOL0     C 6527   3.928   8.374   3.736  0.8280  0.8522  0.1914
   50MOL0     C 6528   4.016   8.471   3.663 -1.3741  0.5749 -0.9008
   50MOL0     C 6529   4.139   8.524   3.741  0.0971 -0.5961 -0.0346
   50MOL0     C 6530   4.265   8.434   3.727  0.5411 -0.7039 -0.7301
   50MOL0     C 6531   4.331   8.457   3.598  0.2904 -0.1255 -0.0437
   50MOL0     C 6532   4.389   8.464   3.494 -0.6918  0.0642  0.0402
   50MOL0     C 6533   3.691   8.252   3.818  0.5918  0.4196 -0.6553
   50MOL0     C 6534   3.569   8.199   3.852 -0.1366  0.0529 -0.4738
   50MOL0     H 6535   3.169   7.966   4.033 -0.6054  1.2408  2.7889
   50MOL0     H 6536   2.922   7.928   4.062 -1.1946  0.5835  1.3776
   50MOL0     H 6537   2.558   8.197   4.009  0.6584 -1.9154 -2.0630
   50MOL0     H 6538   2.708   8.287   4.044 -2.3748  1.3631 -2.8297
   50MOL0     H 6539   2.609   8.230   4.261  0.1281 -0.0239  0.0058
   50MOL0     H 6540   2.760   8.159   4.239  0.0908  2.0410  0.2458
   50MOL0     H 6541   2.629   7.933   4.163 -0.8694 -1.1392  0.1994
   50MOL0     H 6542   2.483   8.017   4.203  0.8520  0.0763 -1.7463
   50MOL0     H 6543   2.695   7.930   4.386 -0.5885 -1.5542  0.9966
   50MOL0     H 6544   2.610   8.059   4.444  4.3048 -1.5629  0.9332
   50MOL0     H 6545   2.396   7.957   4.414  0.0375 -0.2135 -2.2787
   50MOL0     H 6546   2.507   7.855   4.508 -3.9131  1.6940  1.1181
   50MOL0     H 6547   2.435   7.788   4.229  1.5786  0.8085 -0.8823
   50MOL0     H 6548   2.371   7.708   4.372  1.9624 -0.1160  1.2713
   50MOL0     H 6549   2.541   7.554   4.297  4.5671 -0.9786 -2.3451
   50MOL0     H 6550   2.655   7.681   4.273 -1.2198 -2.2105 -0.6145
   50MOL0     H 6551   2.528   7.633   4.553  2.0761  1.1700  2.6181
   50MOL0     H 6552   2.676   7.719   4.504 -1.0546  1.1155 -1.5237
   50MOL0     H 6553   2.751   7.442   4.308 -1.9252  0.6112  0.0137
   50MOL0     H 6554   2.796   7.150   4.346 -0.2144 -2.6156  3.1416
   50MOL0     H 6555   2.844   7.117   4.507  0.6258 -2.1476 -0.4709
   50MOL0     H 6556   3.032   7.288   4.476 -1.4778  4.1796 -1.1490
   50MOL0     H 6557   2.982   7.318   4.307  2.9754 -0.0360 -0.9389
   50MOL0     H 6558   3.180   7.163   4.314  0.5773 -5.2560 -3.0675
   50MOL0     H 6559   3.096   7.061   4.435  3.0360  1.4873  0.9518
   50MOL0     H 6560   2.958   6.965   4.252  0.5644 -0.9393  1.0417
   50MOL0     H 6561   3.130   6.975   4.191 -0.4270  0.9137 -2.9513
   50MOL0     H 6562   2.923   6.860   4.049  2.9277 -0.1068  0.4968
   50MOL0     H 6563   2.831   6.808   3.846  0.0524  0.5422  0.1426
   50MOL0     H 6564   2.502   7.196   3.512  0.2333  2.6401 -2.2675
   50MOL0     H 6565   2.370   7.204   3.317  1.1268  0.0902  2.5695
   50MOL0     H 6566   2.241   7.126   3.155 -2.1606 -0.4605 -0.1824
   50MOL0     H 6567   2.227   6.952   3.183  0.4338 -0.5605  0.0263
   50MOL0     H 6568   2.210   7.111   2.931 -1.8552 -0.2126 -0.3188
   50MOL0     H 6569   2.082   7.015   3.005 -1.1864 -0.2839 -1.4951
   50MOL0     H 6570   2.221   6.807   2.955 -3.1706 -1.2677 -1.1531
   50MOL0     H 6571   2.324   6.900   2.842 -0.3714  2.8132 -1.4415
   50MOL0     H 6572   2.028   6.866   2.833  0.8759 -3.1276  0.3088
   50MOL0     H 6573   2.117   6.984   2.742  2.3612  0.8406  1.7591
   50MOL0     H 6574   2.123   6.678   2.729 -2.2026  0.3460  0.4671
   50MOL0     H 6575   2.243   6.772   2.639 -0.6034 -1.7760 -1.1048
   50MOL0     H 6576   2.059   6.884   2.511  3.0119  0.9880  1.8229
   50MOL0     H 6577   1.938   6.778   2.601  1.4531  0.3241  2.5445
   50MOL0     H 6578   2.158   6.646   2.443  1.0577 -0.1312  1.1242
   50MOL0     H 6579   2.000   6.583   2.485  0.1297  0.6283  1.3794
   50MOL0     H 6580   1.985   6.645   2.257  0.1474 -1.1906  1.4590
   50MOL0     H 6581   2.067   6.798   2.272  0.6871 -0.6338  0.9727
   50MOL0     H 6582   2.608   6.870   3.155  2.1400 -2.3118  0.9012
   50MOL0     H 6583   2.755   6.890   3.358 -0.0170  0.0314  2.5599
   50MOL0     H 6584   2.836   7.209   3.708 -1.3501 -1.3389 -0.4080
   50MOL0     H 6585   2.975   7.274   3.917  1.5488 -0.8089  1.1558
   50MOL0     H 6586   2.843   8.257   3.802  0.8463  0.3548 -0.3943
   50MOL0     H 6587   3.084   8.308   3.790  1.2522 -0.3933  0.1232
   50MOL0     H 6588   3.506   8.422   4.100  1.6577 -0.5838  1.5658
   50MOL0     H 6589   3.714   8.515   4.032  1.1304 -1.1588 -0.1311
   50MOL0     H 6590   3.852   8.340   3.665 -2.4547 -0.2841  3.8669
   50MOL0     H 6591   3.981   8.289   3.780  0.1222  0.4406  0.2749
   50MOL0     H 6592   4.065   8.413   3.585  0.9313 -1.7236  2.0345
   50MOL0     H 6593   3.962   8.563   3.638 -0.6989  2.0132  2.3034
   50MOL0     H 6594   4.113   8.535   3.846  2.3268 -0.0333  0.5118
   50MOL0     H 6595   4.160   8.626   3.708 -2.3406 -0.3543 -1.0547
   50MOL0     H 6596   4.338   8.468   3.801 -0.3278 -2.3883  0.9880
   50MOL0     H 6597   4.246   8.326   3.732 -1.0703 -0.4516 -0.8504
   50MOL0     H 6598   4.447   8.465   3.403 -2.0130  1.2011 -0.8275
   50MOL0     H 6599   3.754   8.196   3.750 -0.1402  0.6270 -1.5188
   50MOL0     H 6600   3.535   8.106   3.808 -0.1835 -0.2472  0.1783
   51MOL0     O 6601   3.701   9.628  10.890  0.0335  0.4343 -0.8859
   51MOL0     C 6602   3.753   9.735  10.875 -0.3580 -0.7185 -0.0498
   51MOL0     O 6603   3.721   9.849  10.947 -0.7538  0.4508  0.3595
   51MOL0     C 6604   3.633   9.842  11.044  0.2360  0.6178  0.3794
   51MOL0     C 6605   3.547   9.957  11.045  0.2083 -0.9880  0.2314
   51MOL0     C 6606   3.443   9.958  11.126 -0.1915  0.3800  0.6347
   51MOL0     C 6607   3.443   9.862  11.233  0.4053 -0.0072 -0.4902
   51MOL0     O 6608   3.350   9.879  11.336 -0.5321  0.2676 -0.4466
   51MOL0     C 6609   3.209   9.897  11.300  0.0117 -0.0636 -0.5899
   51MOL0     C 6610   3.144   9.756  11.301  0.2289  0.1868 -0.4934
   51MOL0     C 6611   3.127   9.686  11.444  0.6175 -0.2048 -0.1798
   51MOL0     C 6612   3.041   9.774  11.547  0.5325  0.2346 -0.4915
   51MOL0     C 6613   2.995   9.684  11.671  0.6693 -0.4969  0.3382
   51MOL0     C 6614   2.955   9.775  11.788 -0.0799 -0.9981  0.8664
   51MOL0     C 6615   2.823   9.849  11.767  0.0168 -0.0943  0.5905
   51MOL0     C 6616   2.697   9.758  11.758 -1.3063  0.2357  0.8789
   51MOL0     N 6617   2.579   9.826  11.804 -0.1736 -0.5371 -0.2277
   51MOL0     C 6618   2.546   9.851  11.932  0.9768 -0.0631 -0.3041
   51MOL0     C 6619   2.436   9.934  11.921 -1.4130 -0.3899 -0.2679
   51MOL0     C 6620   2.375  10.010  12.032  0.3517  0.4522 -0.1534
   51MOL0     C 6621   2.228   9.984  12.075  0.3972  1.2256  0.9451
   51MOL0     C 6622   2.180  10.083  12.185  0.4859  0.4056  0.3234
   51MOL0     C 6623   2.045  10.037  12.245 -0.0343  0.2748 -0.5962
   51MOL0     O 6624   1.937  10.095  12.170 -0.3623 -0.3778 -0.0812
   51MOL0     C 6625   1.809  10.054  12.198 -0.1937 -0.6371  0.1000
   51MOL0     C 6626   1.766  10.007  12.320  0.0280 -0.2542  0.1157
   51MOL0     C 6627   1.629   9.980  12.329  0.0689 -0.1033 -0.8242
   51MOL0     C 6628   1.542   9.987  12.213  0.3936 -0.0214  0.2664
   51MOL0     C 6629   1.398   9.955  12.223 -0.3725  0.0998  0.3363
   51MOL0     O 6630   1.348   9.919  12.344 -0.2604  0.0457  0.6346
   51MOL0     C 6631   1.227   9.874  12.340  0.3685 -0.1886 -0.9918
   51MOL0     C 6632   1.127   9.952  12.398  0.3926 -0.6711  1.0168
   51MOL0     C 6633   0.995   9.901  12.401 -0.7205  0.2879  0.0392
   51MOL0     C 6634   0.963   9.782  12.348  0.0333 -0.4799  0.5545
   51MOL0     O 6635   0.828   9.765  12.357  0.0487  0.2767  0.5280
   51MOL0     C 6636   0.775   9.640  12.313 -0.5685 -0.0473  0.4130
   51MOL0     C 6637   0.623   9.655  12.328  0.0811  0.5539  0.6822
   51MOL0     C 6638   0.559   9.514  12.335 -0.0872  0.5424 -0.0771
   51MOL0     C 6639   0.404   9.522  12.349 -1.1222 -0.0920  0.2832
   51MOL0     C 6640   0.359   9.380  12.302  0.1039  0.2035  0.3830
   51MOL0     C 6641   0.205   9.376  12.306 -0.1227 -0.1524  0.7578
   51MOL0     C 6642   0.133   9.359  12.440 -0.5526 -0.6284  1.2070
   51MOL0     C 6643  -0.022   9.347  12.440 -0.1423  0.1369  0.1570
   51MOL0    Cl 6644  -0.068   9.201  12.363  0.3374  0.3861  0.3556
   51MOL0     C 6645   1.065   9.704  12.292 -0.9202  0.1100 -0.2560
   51MOL0     C 6646   1.190   9.750  12.286 -0.8057 -0.5272  0.0832
   51MOL0     O 6647   1.332   9.954  12.121  0.9836  0.6287  0.6175
   51MOL0     C 6648   1.600  10.025  12.094 -0.5451  0.1811 -0.5344
   51MOL0     C 6649   1.727  10.066  12.086 -0.6223  1.0527 -1.3082
   51MOL0     N 6650   2.388   9.926  11.790  0.3882 -0.5252  0.4487
   51MOL0     N 6651   2.481   9.868  11.723  0.3458  0.2646 -0.2823
   51MOL0     C 6652   3.535   9.751  11.238 -0.0482  0.7198  0.1084
   51MOL0     C 6653   3.629   9.741  11.145  0.2716 -0.2335 -0.2290
   51MOL0     C 6654   3.874   9.742  10.790  0.1201 -0.6212 -0.6855
   51MOL0     C 6655   3.920   9.636  10.715 -0.6326  0.5141 -0.1579
   51MOL0     C 6656   4.033   9.643  10.635  0.6163 -0.6949  0.0556
   51MOL0     C 6657   4.103   9.769  10.621 -0.3638  0.1173 -0.7891
   51MOL0     O 6658   4.209   9.781  10.535 -0.4902 -0.1621 -0.4911
   51MOL0     C 6659   4.328   9.842  10.578 -0.0912 -0.1487  0.2454
   51MOL0     C 6660   4.449   9.800  10.507  0.1491 -0.9579 -0.0946
   51MOL0     C 6661   4.431   9.829  10.354 -0.7734 -0.3053 -0.3031
   51MOL0     C 6662   4.561   9.791  10.272  1.1000  0.6450  0.1300
   51MOL0     C 6663   4.648   9.904  10.238  0.1268 -0.6414 -0.0592
   51MOL0     C 6664   4.719   9.998  10.210 -0.3807 -0.6486  0.0831
   51MOL0     C 6665   4.054   9.873  10.695 -1.2223 -0.2756 -0.0328
   51MOL0     C 6666   3.948   9.860  10.783 -0.0907 -0.8428  0.0212
   51MOL0     H 6667   3.546  10.038  10.973 -0.0516  0.6761  2.0119
   51MOL0     H 6668   3.367  10.035  11.127  2.0615  2.7689  2.2688
   51MOL0     H 6669   3.195   9.926  11.195  3.3208 -1.2812 -1.5008
   51MOL0     H 6670   3.173   9.976  11.366  1.0513 -1.8781  2.3296
   51MOL0     H 6671   3.200   9.687  11.237  0.8460  0.7946 -0.6173
   51MOL0     H 6672   3.042   9.774  11.264  0.7165  1.5132 -1.2669
   51MOL0     H 6673   3.223   9.671  11.493  0.2441  0.7644  0.9085
   51MOL0     H 6674   3.067   9.596  11.430 -0.2769  0.0465  1.6777
   51MOL0     H 6675   3.102   9.856  11.584  3.6412 -0.8040 -2.8828
   51MOL0     H 6676   2.958   9.830  11.503 -1.5280  0.7737  3.5826
   51MOL0     H 6677   3.076   9.620  11.707 -0.4952 -0.7614  2.6850
   51MOL0     H 6678   2.911   9.617  11.650  1.2324 -1.4682  1.0939
   51MOL0     H 6679   3.040   9.843  11.799  0.9854 -1.9926 -0.7081
   51MOL0     H 6680   2.950   9.732  11.888 -1.3326  1.1217  1.7738
   51MOL0     H 6681   2.809   9.909  11.857  2.2268  3.0847 -1.0150
   51MOL0     H 6682   2.834   9.912  11.679 -1.8611 -1.3272 -0.6096
   51MOL0     H 6683   2.725   9.668  11.814  1.2092  0.8842  0.7777
   51MOL0     H 6684   2.683   9.735  11.652  0.4709  1.9794  0.2122
   51MOL0     H 6685   2.600   9.821  12.020 -0.3023  2.4795  1.4726
   51MOL0     H 6686   2.378  10.113  11.996 -0.9836  0.6484  0.2458
   51MOL0     H 6687   2.436   9.984  12.119  3.6339  2.3781 -1.6414
   51MOL0     H 6688   2.230   9.883  12.117 -2.5796  0.3628 -0.6427
   51MOL0     H 6689   2.155   9.995  11.994 -2.0840  0.0065  2.8721
   51MOL0     H 6690   2.254  10.102  12.263 -1.7423 -1.3677  3.0730
   51MOL0     H 6691   2.158  10.183  12.145 -1.1515  0.8015  2.0805
   51MOL0     H 6692   2.038  10.083  12.344 -1.0599  1.0530 -1.0182
   51MOL0     H 6693   2.031   9.928  12.248  0.0584  0.2664 -0.4557
   51MOL0     H 6694   1.836  10.002  12.403  1.2728  3.2272 -0.5570
   51MOL0     H 6695   1.579   9.948  12.419 -1.3462 -4.9004 -2.9766
   51MOL0     H 6696   1.138  10.048  12.447  0.1883 -2.1182  4.1008
   51MOL0     H 6697   0.922   9.960  12.456  2.2928  4.2859  0.2082
   51MOL0     H 6698   0.808   9.562  12.382  0.6177  1.4115  1.5410
   51MOL0     H 6699   0.800   9.621  12.208 -2.9705  1.8663 -0.6054
   51MOL0     H 6700   0.590   9.710  12.239  2.6672  1.6284  0.3062
   51MOL0     H 6701   0.599   9.719  12.414  0.6968  2.5137 -0.5478
   51MOL0     H 6702   0.602   9.455  12.416  0.2583  0.3857 -0.3712
   51MOL0     H 6703   0.584   9.482  12.233 -0.6304  3.4152 -1.2170
   51MOL0     H 6704   0.373   9.557  12.447  0.0993  0.3099  0.5427
   51MOL0     H 6705   0.352   9.576  12.270 -1.8458 -0.8317  0.2420
   51MOL0     H 6706   0.394   9.309  12.377 -0.3578  0.1433  0.5466
   51MOL0     H 6707   0.398   9.351  12.204  1.8143  0.3110  1.0044
   51MOL0     H 6708   0.190   9.287  12.243  2.9661  0.8952 -1.7244
   51MOL0     H 6709   0.170   9.461  12.246  1.4774  0.0401  0.0280
   51MOL0     H 6710   0.173   9.269  12.489  2.1758  0.2680  0.7452
   51MOL0     H 6711   0.161   9.442  12.506 -1.1208  0.5516  0.0123
   51MOL0     H 6712  -0.072   9.426  12.383  0.4109 -2.5010 -4.4186
   51MOL0     H 6713  -0.049   9.345  12.546  0.8636 -0.3342  0.4148
   51MOL0     H 6714   1.052   9.617  12.229  0.6650 -0.3029 -0.0621
   51MOL0     H 6715   1.268   9.686  12.246 -3.6654 -1.8703 -4.0729
   51MOL0     H 6716   1.533  10.026  12.009 -1.4348  0.1195  0.1536
   51MOL0     H 6717   1.777  10.095  11.994  0.6318 -0.7078 -1.2426
   51MOL0     H 6718   3.537   9.675  11.315  1.9150  1.0933  0.4976
   51MOL0     H 6719   3.698   9.658  11.153  3.1221  2.1545  3.0116
   51MOL0     H 6720   3.866   9.542  10.728  1.5623 -0.8546 -0.2899
   51MOL0     H 6721   4.073   9.556  10.584 -1.0285 -0.6307 -1.4487
   51MOL0     H 6722   4.337   9.820  10.685  2.3943  1.2305  0.3864
   51MOL0     H 6723   4.328   9.951  10.572  0.1614 -0.2356 -2.1344
   51MOL0     H 6724   4.530   9.865  10.542 -1.4108  1.0370 -0.0488
   51MOL0     H 6725   4.476   9.697  10.530  4.5863  0.1763  0.7855
   51MOL0     H 6726   4.411   9.935  10.336  3.5679  0.3681 -2.2886
   51MOL0     H 6727   4.349   9.762  10.327 -2.3017  0.9983  0.8373
   51MOL0     H 6728   4.613   9.705  10.315  0.0762 -0.2101 -0.2884
   51MOL0     H 6729   4.526   9.761  10.173 -0.8008 -0.0076  0.9440
   51MOL0     H 6730   4.758  10.088  10.167  2.4692 -0.2985  3.0861
   51MOL0     H 6731   4.098   9.972  10.687 -1.1330 -0.1159  1.9522
   51MOL0     H 6732   3.926   9.953  10.834 -0.3975  0.5111 -2.4255
   52MOL0     O 6733   3.353   4.683   8.910 -0.4299 -0.0691 -0.5438
   52MOL0     C 6734   3.446   4.734   8.981  0.0101  0.3976  2.1762
   52MOL0     O 6735   3.433   4.810   9.086  0.2170  0.9167  0.0643
   52MOL0     C 6736   3.303   4.823   9.143 -0.5012 -0.2238  0.2816
   52MOL0     C 6737   3.222   4.921   9.088  0.4536 -0.1833  0.8454
   52MOL0     C 6738   3.085   4.936   9.126  0.1056  0.2816 -0.2923
   52MOL0     C 6739   3.033   4.841   9.216 -0.2621  0.1520 -0.2181
   52MOL0     O 6740   2.894   4.856   9.241 -0.0972 -0.2848 -0.5577
   52MOL0     C 6741   2.839   4.749   9.321 -0.0361 -0.6603  0.5363
   52MOL0     C 6742   2.689   4.784   9.344 -0.9601  0.0309  0.5150
   52MOL0     C 6743   2.617   4.848   9.220 -0.3771 -0.1293  0.1740
   52MOL0     C 6744   2.575   4.733   9.123 -0.6909  0.2907  0.4144
   52MOL0     C 6745   2.436   4.758   9.073  0.5236 -0.8815  0.4979
   52MOL0     C 6746   2.428   4.680   8.937 -0.2251 -0.8275 -0.1787
   52MOL0     C 6747   2.283   4.653   8.900 -0.9588  0.4645 -0.0901
   52MOL0     C 6748   2.222   4.787   8.868  0.6749 -0.8279  0.1755
   52MOL0     N 6749   2.080   4.759   8.831  0.1811  0.2777 -0.3601
   52MOL0     C 6750   2.028   4.674   8.733 -0.7587 -0.0771  0.3752
   52MOL0     C 6751   1.887   4.686   8.739  0.5089 -0.1278  0.1436
   52MOL0     C 6752   1.795   4.636   8.641  0.1248  0.3699  1.0014
   52MOL0     C 6753   1.675   4.554   8.702  0.4014 -0.1078  0.6776
   52MOL0     C 6754   1.576   4.499   8.592 -0.8976 -0.2275  0.3420
   52MOL0     C 6755   1.475   4.404   8.657 -0.4020 -0.7184  0.1254
   52MOL0     O 6756   1.395   4.490   8.736 -0.2061  0.0662 -0.1255
   52MOL0     C 6757   1.305   4.414   8.804 -0.3718 -0.1140 -0.3597
   52MOL0     C 6758   1.344   4.354   8.924  0.0818  0.2373 -0.0970
   52MOL0     C 6759   1.253   4.284   9.002  0.4170 -0.8772 -0.3398
   52MOL0     C 6760   1.112   4.309   8.979 -0.2433 -0.1602 -0.9124
   52MOL0     C 6761   1.017   4.259   9.074  0.0560  0.1093  0.4020
   52MOL0     O 6762   1.076   4.226   9.189 -0.2063 -0.4680  0.3635
   52MOL0     C 6763   1.002   4.170   9.291  0.3229  0.0372  0.4793
   52MOL0     C 6764   0.867   4.187   9.324  0.4977 -0.2175 -0.2557
   52MOL0     C 6765   0.801   4.130   9.432  0.7590 -0.9755 -0.9104
   52MOL0     C 6766   0.878   4.042   9.514  0.0395 -0.1273  0.3827
   52MOL0     O 6767   0.830   3.953   9.605 -0.1766 -0.3197  0.8142
   52MOL0     C 6768   0.688   3.948   9.632 -0.3098  0.8603 -0.9221
   52MOL0     C 6769   0.649   3.814   9.691 -0.1218 -0.6215  0.0769
   52MOL0     C 6770   0.673   3.691   9.593  0.1149 -0.5607 -0.1996
   52MOL0     C 6771   0.616   3.566   9.646  0.1619 -0.3826 -0.1512
   52MOL0     C 6772   0.580   3.457   9.550  0.0457  0.1280 -1.0686
   52MOL0     C 6773   0.544   3.330   9.636 -0.2865 -0.6819  0.5411
   52MOL0     C 6774   0.478   3.213   9.568 -1.1674  0.0541  0.0866
   52MOL0     C 6775   0.345   3.234   9.492  0.4469 -0.2859  0.2658
   52MOL0    Cl 6776   0.282   3.079   9.422 -0.0063 -0.0553 -0.2819
   52MOL0     C 6777   1.008   4.025   9.478  0.0056 -0.5489 -0.1696
   52MOL0     C 6778   1.079   4.112   9.390 -0.2971 -0.0678  0.9417
   52MOL0     O 6779   0.899   4.239   9.043 -0.4938 -0.1268  0.1673
   52MOL0     C 6780   1.074   4.368   8.854 -0.7739  1.0343 -0.1791
   52MOL0     C 6781   1.168   4.419   8.768  0.2565 -0.5252  0.0182
   52MOL0     N 6782   1.859   4.768   8.846  0.0387 -0.0089 -1.3211
   52MOL0     N 6783   1.974   4.804   8.899 -0.3272 -0.3675 -0.3134
   52MOL0     C 6784   3.116   4.744   9.266  0.0131  0.3694 -0.5385
   52MOL0     C 6785   3.252   4.734   9.229 -0.3566 -0.3161  0.2908
   52MOL0     C 6786   3.580   4.707   8.924  0.1008 -0.2583  0.1120
   52MOL0     C 6787   3.603   4.623   8.812 -0.5868  0.8841 -0.2359
   52MOL0     C 6788   3.727   4.595   8.759 -0.4489 -0.1325 -0.5770
   52MOL0     C 6789   3.844   4.659   8.812 -0.0731 -0.4283 -0.0295
   52MOL0     O 6790   3.967   4.644   8.740  0.0199 -1.1687 -0.6140
   52MOL0     C 6791   4.084   4.676   8.813 -0.7798  0.1011  0.2687
   52MOL0     C 6792   4.198   4.669   8.717 -0.0894  0.1102 -0.6268
   52MOL0     C 6793   4.189   4.750   8.586  0.5146 -1.0555 -0.7740
   52MOL0     C 6794   4.191   4.658   8.463 -0.3488 -0.0713  1.1917
   52MOL0     C 6795   4.211   4.734   8.340 -0.5737 -0.0746  0.1509
   52MOL0     C 6796   4.251   4.798   8.248 -0.8833 -1.0912  0.6887
   52MOL0     C 6797   3.829   4.739   8.930  0.2280 -0.3636  1.1874
   52MOL0     C 6798   3.690   4.772   8.976  0.0680  0.7461  0.1303
   52MOL0     H 6799   3.250   4.993   9.012 -1.4458 -0.5142 -0.2046
   52MOL0     H 6800   3.017   5.008   9.083 -0.9237 -0.7644 -0.4668
   52MOL0     H 6801   2.888   4.748   9.419 -0.7065  0.0365  0.8833
   52MOL0     H 6802   2.851   4.650   9.274  1.6006 -0.9728  1.5093
   52MOL0     H 6803   2.677   4.855   9.426  0.8050 -0.3590  1.1432
   52MOL0     H 6804   2.641   4.689   9.368  0.9689 -0.5841  2.1463
   52MOL0     H 6805   2.654   4.942   9.179 -1.9193  0.5777  0.3420
   52MOL0     H 6806   2.518   4.879   9.255  0.4189  1.8756  0.7692
   52MOL0     H 6807   2.645   4.721   9.039  0.0596 -2.7416  1.3437
   52MOL0     H 6808   2.575   4.642   9.185  1.2216 -0.0963 -0.0783
   52MOL0     H 6809   2.404   4.860   9.053  2.4445 -0.3334  0.0275
   52MOL0     H 6810   2.369   4.715   9.148 -0.7405 -0.4664 -0.3807
   52MOL0     H 6811   2.481   4.585   8.949 -0.9040 -1.0142  1.7769
   52MOL0     H 6812   2.472   4.749   8.864 -1.7989  0.8601  0.3676
   52MOL0     H 6813   2.280   4.579   8.820  0.4405  0.8257 -0.4981
   52MOL0     H 6814   2.230   4.609   8.985  0.6248 -2.8966 -0.6869
   52MOL0     H 6815   2.270   4.844   8.788 -0.9304 -1.3305 -1.2009
   52MOL0     H 6816   2.218   4.856   8.953 -0.2657  1.4854 -1.6406
   52MOL0     H 6817   2.073   4.612   8.657 -3.5853  0.5263 -1.9877
   52MOL0     H 6818   1.844   4.567   8.571 -0.5939  0.6300  0.2152
   52MOL0     H 6819   1.758   4.714   8.574 -0.2805 -0.2472  0.4977
   52MOL0     H 6820   1.630   4.621   8.776  1.5292 -0.6578  1.9043
   52MOL0     H 6821   1.730   4.475   8.753  2.7703  2.1772  1.9558
   52MOL0     H 6822   1.520   4.588   8.564 -3.6378 -0.6178  3.9018
   52MOL0     H 6823   1.629   4.441   8.516 -1.5676 -2.3209  1.4052
   52MOL0     H 6824   1.517   4.326   8.720 -3.9896 -1.6488  1.6503
   52MOL0     H 6825   1.420   4.348   8.581 -2.6222  0.8472  0.4607
   52MOL0     H 6826   1.450   4.340   8.942  0.1213 -1.0525 -1.1504
   52MOL0     H 6827   1.301   4.242   9.090  1.3912  0.1247 -0.3822
   52MOL0     H 6828   0.804   4.259   9.273 -0.6342 -1.0581 -0.0919
   52MOL0     H 6829   0.693   4.134   9.432  0.7181 -1.9064 -1.3730
   52MOL0     H 6830   0.631   3.947   9.538  0.2268  2.0323 -1.2797
   52MOL0     H 6831   0.645   4.029   9.692 -1.3085 -0.2577 -0.0841
   52MOL0     H 6832   0.542   3.818   9.713 -0.2788  2.1678 -0.7514
   52MOL0     H 6833   0.698   3.798   9.787  0.2866  1.6593  0.3173
   52MOL0     H 6834   0.779   3.679   9.567 -0.2613  0.2633 -2.2991
   52MOL0     H 6835   0.632   3.715   9.495  1.1378 -1.1208 -0.7829
   52MOL0     H 6836   0.680   3.542   9.731 -2.1499  1.0678  2.1715
   52MOL0     H 6837   0.519   3.578   9.695 -1.1581 -2.8115 -1.9665
   52MOL0     H 6838   0.666   3.430   9.488 -2.0007 -1.6690 -3.3095
   52MOL0     H 6839   0.510   3.483   9.470  1.9147  1.2438 -2.4339
   52MOL0     H 6840   0.485   3.343   9.727 -0.5525 -2.5823  0.6786
   52MOL0     H 6841   0.643   3.298   9.669  1.2796  0.6693 -2.4518
   52MOL0     H 6842   0.555   3.168   9.504  0.2066 -1.5449  2.7135
   52MOL0     H 6843   0.460   3.135   9.641  1.1561 -0.4090  0.2465
   52MOL0     H 6844   0.358   3.308   9.414  1.7844 -0.9550 -0.1917
   52MOL0     H 6845   0.269   3.284   9.552  0.3804  0.4326 -0.4044
   52MOL0     H 6846   1.072   3.945   9.513  1.8188 -0.4633 -2.9531
   52MOL0     H 6847   1.186   4.103   9.375 -0.2408 -0.0209  1.3020
   52MOL0     H 6848   0.967   4.380   8.845 -1.1704 -0.2131  2.1673
   52MOL0     H 6849   1.144   4.449   8.667  2.2979 -1.3818 -0.7770
   52MOL0     H 6850   3.086   4.667   9.337  0.4105  0.4045 -0.3273
   52MOL0     H 6851   3.301   4.644   9.265 -2.5905 -2.1476 -1.0038
   52MOL0     H 6852   3.526   4.564   8.763  2.2864 -2.3907 -1.1723
   52MOL0     H 6853   3.739   4.554   8.659 -1.3032 -0.0691 -0.7171
   52MOL0     H 6854   4.091   4.612   8.901  0.5897  0.6202  0.5567
   52MOL0     H 6855   4.076   4.776   8.858  1.5776  0.8837 -0.9206
   52MOL0     H 6856   4.297   4.683   8.761  1.4237 -6.9594 -0.6475
   52MOL0     H 6857   4.192   4.563   8.691 -3.0560  0.6288 -2.5896
   52MOL0     H 6858   4.275   4.817   8.587 -1.9611  2.4100 -0.7633
   52MOL0     H 6859   4.104   4.816   8.606  0.8414 -1.3103  1.8388
   52MOL0     H 6860   4.269   4.582   8.469 -0.0583  0.0789 -0.2799
   52MOL0     H 6861   4.097   4.602   8.468 -0.7621  0.5822  0.9438
   52MOL0     H 6862   4.284   4.865   8.170 -0.7426  0.8315  2.3286
   52MOL0     H 6863   3.905   4.786   8.992  0.0734 -0.5367  1.5115
   52MOL0     H 6864   3.687   4.843   9.058 -1.7705  2.4698 -1.3307
   53MOL0     O 6865   1.740  10.384   5.640  0.6513  0.2105 -0.6950
   53MOL0     C 6866   1.758  10.427   5.527 -0.3529  0.2652 -0.7904
   53MOL0     O 6867   1.667  10.480   5.433 -0.7657  0.3006 -0.1932
   53MOL0     C 6868   1.535  10.494   5.479 -1.5318  0.1983  0.3401
   53MOL0     C 6869   1.450  10.389   5.475  0.0855 -0.2135  0.1327
   53MOL0     C 6870   1.321  10.411   5.505  1.1244  0.3087  0.9433
   53MOL0     C 6871   1.273  10.532   5.541 -0.1943  0.2941 -0.2051
   53MOL0     O 6872   1.156  10.540   5.606  1.0453  0.1281 -1.2706
   53MOL0     C 6873   1.164  10.454   5.730  0.2379 -0.2949 -0.1025
   53MOL0     C 6874   1.085  10.538   5.832  0.3508 -0.4102 -0.1111
   53MOL0     C 6875   1.051  10.462   5.959  0.5442 -0.1823  1.0220
   53MOL0     C 6876   1.176  10.435   6.038 -0.1860 -0.3662 -0.8790
   53MOL0     C 6877   1.151  10.344   6.167  0.1532  0.3927  0.9215
   53MOL0     C 6878   1.130  10.197   6.110 -0.0699 -0.7414 -0.8853
   53MOL0     C 6879   1.118  10.089   6.217 -0.3032 -0.5291  0.8407
   53MOL0     C 6880   1.005  10.123   6.313 -0.0192  0.4187 -0.9160
   53MOL0     N 6881   0.875  10.149   6.247 -0.0301 -0.1563 -0.6193
   53MOL0     C 6882   0.821  10.277   6.222 -1.1187  0.1827 -1.6036
   53MOL0     C 6883   0.691  10.264   6.209 -0.5976  0.1801  0.1136
   53MOL0     C 6884   0.582  10.369   6.199 -0.4667  0.1212  0.1793
   53MOL0     C 6885   0.607  10.453   6.071 -0.1341 -0.0675 -0.5085
   53MOL0     C 6886   0.564  10.369   5.952 -0.3780  1.1552 -0.0174
   53MOL0     C 6887   0.575  10.437   5.816  0.1202 -0.0427  0.7077
   53MOL0     O 6888   0.526  10.573   5.830 -0.3623  0.4250 -0.0159
   53MOL0     C 6889   0.391  10.604   5.812  0.2589  0.0639 -0.6367
   53MOL0     C 6890   0.353  10.736   5.835 -1.0235  0.1414 -0.1559
   53MOL0     C 6891   0.219  10.772   5.805 -0.3471 -0.3306 -0.8555
   53MOL0     C 6892   0.120  10.685   5.771 -0.0977 -0.8375 -0.0914
   53MOL0     C 6893  -0.020  10.720   5.762 -0.1318 -0.9159  0.7885
   53MOL0     O 6894  -0.049  10.856   5.776 -0.1921  0.5205 -0.0049
   53MOL0     C 6895  -0.170  10.903   5.819  0.0937  0.5025 -0.4735
   53MOL0     C 6896  -0.207  11.029   5.757  0.1103 -0.3734  0.2705
   53MOL0     C 6897  -0.333  11.092   5.781  0.1943 -0.4879 -0.3765
   53MOL0     C 6898  -0.420  11.029   5.877 -0.7019  0.4934  0.0473
   53MOL0     O 6899  -0.544  11.067   5.921  0.4353 -0.5203  1.1244
   53MOL0     C 6900  -0.618  11.155   5.839  0.5418  0.9440 -0.0739
   53MOL0     C 6901  -0.767  11.159   5.884 -0.5435 -0.0776 -1.3894
   53MOL0     C 6902  -0.852  11.250   5.787 -0.0044 -0.1434  0.3943
   53MOL0     C 6903  -1.005  11.233   5.828 -0.3424  0.9661 -0.6201
   53MOL0     C 6904  -1.088  11.318   5.733 -0.4150 -0.5163  0.5617
   53MOL0     C 6905  -1.239  11.301   5.782 -0.5623 -0.2441  1.0544
   53MOL0     C 6906  -1.325  11.392   5.701  0.0603 -0.1587 -0.3851
   53MOL0     C 6907  -1.484  11.386   5.710 -0.2952  1.0324  0.3641
   53MOL0    Cl 6908  -1.541  11.344   5.875  0.3077  0.2258 -0.0853
   53MOL0     C 6909  -0.382  10.914   5.943  0.1158  0.1516 -0.6826
   53MOL0     C 6910  -0.261  10.851   5.916 -0.8352 -0.6725  0.4016
   53MOL0     O 6911  -0.102  10.637   5.744  0.0043  0.1519  0.4091
   53MOL0     C 6912   0.165  10.553   5.753  0.2798 -0.7417  0.6621
   53MOL0     C 6913   0.296  10.513   5.774  0.0354  0.0184 -0.8050
   53MOL0     N 6914   0.661  10.128   6.224  0.0908  0.1430  0.0244
   53MOL0     N 6915   0.774  10.058   6.245  0.4275  0.3704  0.2199
   53MOL0     C 6916   1.358  10.634   5.545 -0.1064 -0.4160  0.3532
   53MOL0     C 6917   1.496  10.617   5.526  0.8714 -0.0543 -0.2089
   53MOL0     C 6918   1.903  10.422   5.486  0.1646  1.0555 -0.4411
   53MOL0     C 6919   2.000  10.364   5.569  0.2211  0.3339  0.9568
   53MOL0     C 6920   2.139  10.367   5.527  0.0588  0.0743 -0.0916
   53MOL0     C 6921   2.174  10.405   5.397  0.8423  0.6540 -0.8008
   53MOL0     O 6922   2.295  10.396   5.353  0.4165  0.0009  0.3761
   53MOL0     C 6923   2.370  10.515   5.325 -0.6489  0.0138 -0.3017
   53MOL0     C 6924   2.465  10.556   5.437  0.0730  0.5663  0.4473
   53MOL0     C 6925   2.542  10.432   5.499  0.5276 -1.0661 -0.0348
   53MOL0     C 6926   2.663  10.466   5.589  0.3455 -0.1116 -0.5459
   53MOL0     C 6927   2.777  10.524   5.524 -0.3332  0.4600 -0.5740
   53MOL0     C 6928   2.875  10.569   5.474 -0.2758  0.4997 -0.3198
   53MOL0     C 6929   2.076  10.454   5.319 -0.2469  0.2419 -0.1653
   53MOL0     C 6930   1.939  10.463   5.359  1.1781  0.6562 -0.9722
   53MOL0     H 6931   1.494  10.296   5.442  2.6528  0.5451  1.1302
   53MOL0     H 6932   1.259  10.322   5.507 -1.3611  1.8839  4.0711
   53MOL0     H 6933   1.264  10.436   5.770 -0.9699  0.7122  3.9337
   53MOL0     H 6934   1.118  10.356   5.718  0.8161 -0.3984 -1.5763
   53MOL0     H 6935   1.002  10.575   5.771  3.0357  0.0152 -3.8459
   53MOL0     H 6936   1.133  10.633   5.856 -0.2567  0.2014 -1.2367
   53MOL0     H 6937   1.009  10.365   5.929  3.7452 -1.5048  0.4486
   53MOL0     H 6938   0.989  10.540   6.004  0.5533  1.2080 -1.2228
   53MOL0     H 6939   1.251  10.392   5.971  1.5525 -1.2630  1.4918
   53MOL0     H 6940   1.217  10.535   6.054  0.7746 -0.4507 -2.5510
   53MOL0     H 6941   1.058  10.372   6.218 -1.2849  0.2558 -1.4690
   53MOL0     H 6942   1.242  10.350   6.226  0.6597 -0.7995  0.2918
   53MOL0     H 6943   1.213  10.167   6.046 -0.5463  1.4159 -2.6295
   53MOL0     H 6944   1.046  10.208   6.040  0.3932  3.8715 -0.9801
   53MOL0     H 6945   1.098   9.988   6.178  0.6644 -0.8001  1.0293
   53MOL0     H 6946   1.219  10.081   6.256  0.6944  0.0825 -1.4328
   53MOL0     H 6947   1.021  10.217   6.366 -1.6022  0.0015  0.3598
   53MOL0     H 6948   0.991  10.048   6.390  1.0288  0.5435 -0.5848
   53MOL0     H 6949   0.854  10.380   6.228 -0.8913  0.1213 -1.7959
   53MOL0     H 6950   0.578  10.429   6.291 -0.3069  0.1464  0.1711
   53MOL0     H 6951   0.491  10.310   6.197 -0.5440 -0.0565  3.2041
   53MOL0     H 6952   0.714  10.477   6.067  0.4296 -2.4447 -2.3270
   53MOL0     H 6953   0.553  10.548   6.082  1.3830  0.8197 -0.4149
   53MOL0     H 6954   0.628  10.280   5.944 -0.4105  1.2838 -2.0350
   53MOL0     H 6955   0.460  10.343   5.972 -0.6299  0.3197 -2.2143
   53MOL0     H 6956   0.526  10.366   5.748  1.1262  0.5213 -0.6393
   53MOL0     H 6957   0.681  10.442   5.790 -0.1365  0.6520 -0.2373
   53MOL0     H 6958   0.427  10.807   5.869  0.3452 -1.4246  0.3092
   53MOL0     H 6959   0.186  10.875   5.807 -0.1700 -0.2304 -2.1272
   53MOL0     H 6960  -0.144  11.066   5.677  0.0302  2.8585  1.5479
   53MOL0     H 6961  -0.383  11.178   5.736 -0.6810 -0.5636  0.4215
   53MOL0     H 6962  -0.619  11.110   5.739  1.9690 -1.4524  0.9028
   53MOL0     H 6963  -0.582  11.257   5.827  2.0108  0.5049  0.4015
   53MOL0     H 6964  -0.767  11.198   5.986  1.3333  2.5069 -2.2666
   53MOL0     H 6965  -0.812  11.060   5.879  2.8110 -1.7591 -1.2142
   53MOL0     H 6966  -0.835  11.226   5.682  0.2660 -0.7500  0.5727
   53MOL0     H 6967  -0.821  11.354   5.802 -0.8535  0.0593  0.8519
   53MOL0     H 6968  -1.027  11.126   5.819  3.2716  0.0307  0.0336
   53MOL0     H 6969  -1.019  11.267   5.931 -0.2876 -3.6279  1.1607
   53MOL0     H 6970  -1.079  11.287   5.629 -1.7604 -2.3690  0.9564
   53MOL0     H 6971  -1.048  11.420   5.740 -2.0653  0.0523  3.8630
   53MOL0     H 6972  -1.242  11.337   5.886  1.6582  2.2719  0.3666
   53MOL0     H 6973  -1.270  11.197   5.777  1.2692 -0.8599  1.7204
   53MOL0     H 6974  -1.285  11.494   5.707  0.3055 -0.2532 -0.3957
   53MOL0     H 6975  -1.314  11.374   5.593  3.0730  3.0925 -0.7918
   53MOL0     H 6976  -1.516  11.309   5.640  0.3173  1.0956  0.0065
   53MOL0     H 6977  -1.525  11.482   5.676  1.5497  0.9316 -2.4555
   53MOL0     H 6978  -0.455  10.879   6.015 -0.7830  2.6497 -0.2838
   53MOL0     H 6979  -0.242  10.755   5.962 -0.6957 -0.6698  0.3499
   53MOL0     H 6980   0.088  10.488   5.712  0.5733 -1.6812  1.5638
   53MOL0     H 6981   0.323  10.412   5.745 -1.5060  0.0349 -2.4353
   53MOL0     H 6982   1.326  10.729   5.585  1.9666  0.6660 -0.3954
   53MOL0     H 6983   1.565  10.700   5.528 -0.2265  0.8874 -0.0119
   53MOL0     H 6984   1.963  10.310   5.656 -1.0107  0.4589  0.5404
   53MOL0     H 6985   2.211  10.311   5.586 -1.7962 -2.1431  0.2105
   53MOL0     H 6986   2.302  10.597   5.304 -0.6988  0.9980  3.0609
   53MOL0     H 6987   2.432  10.496   5.237  3.2649 -2.2130  2.5532
   53MOL0     H 6988   2.544  10.618   5.393 -1.8774  1.0519 -2.6106
   53MOL0     H 6989   2.415  10.612   5.517 -0.8494  0.7648 -0.2549
   53MOL0     H 6990   2.578  10.360   5.425  1.6719 -1.1404  0.5710
   53MOL0     H 6991   2.469  10.381   5.563 -2.7334  1.8044 -1.1277
   53MOL0     H 6992   2.629  10.536   5.666 -0.0521 -1.8518  0.9466
   53MOL0     H 6993   2.685  10.371   5.638 -0.3687 -0.5175 -0.9885
   53MOL0     H 6994   2.967  10.602   5.431  1.6320 -0.7198  2.5037
   53MOL0     H 6995   2.109  10.482   5.219  0.7538  0.9531  0.3394
   53MOL0     H 6996   1.866  10.508   5.291  0.2964  0.0769 -0.4339
   54MOL0     O 6997   2.054   9.906   6.827 -0.2246  0.0041 -0.4671
   54MOL0     C 6998   2.153   9.833   6.817  0.6159  0.3087 -0.3571
   54MOL0     O 6999   2.154   9.691   6.817 -0.0131  0.2517  0.6595
   54MOL0     C 7000   2.024   9.640   6.816 -0.8396  0.6909 -0.2827
   54MOL0     C 7001   1.980   9.570   6.701  0.0391  0.6595 -0.0109
   54MOL0     C 7002   1.860   9.497   6.710  1.1019 -0.5577  0.2479
   54MOL0     C 7003   1.779   9.502   6.828  0.4928 -0.1124  0.4146
   54MOL0     O 7004   1.666   9.429   6.828 -0.2387  0.3730 -0.2312
   54MOL0     C 7005   1.596   9.415   6.960  0.3645 -0.2597 -0.2131
   54MOL0     C 7006   1.502   9.304   6.940  0.6018 -0.5656 -0.3621
   54MOL0     C 7007   1.484   9.220   7.077 -0.5020 -0.5766 -0.8562
   54MOL0     C 7008   1.396   9.095   7.045  0.4745  0.1089  0.3867
   54MOL0     C 7009   1.411   8.975   7.133 -0.5931  0.2281 -0.6569
   54MOL0     C 7010   1.316   8.862   7.093 -0.3676  0.0415  0.7733
   54MOL0     C 7011   1.353   8.723   7.154 -0.6729 -0.0234  0.1593
   54MOL0     C 7012   1.237   8.647   7.193 -0.4749  0.0504 -0.5213
   54MOL0     N 7013   1.279   8.531   7.269 -0.0835  0.4338 -0.0246
   54MOL0     C 7014   1.276   8.509   7.399  0.3619 -0.4163  0.3034
   54MOL0     C 7015   1.258   8.375   7.415 -0.2164  0.0724 -0.4434
   54MOL0     C 7016   1.236   8.305   7.545  0.1426 -0.2861  0.4334
   54MOL0     C 7017   1.097   8.259   7.557  0.2351 -0.0076  0.0129
   54MOL0     C 7018   1.097   8.123   7.608 -0.0957 -0.5311 -0.3850
   54MOL0     C 7019   0.955   8.089   7.661  0.6564  0.6944 -0.0818
   54MOL0     O 7020   0.915   8.167   7.783 -0.0606 -0.2362  0.1704
   54MOL0     C 7021   0.793   8.154   7.844  0.0069  0.1547 -0.4073
   54MOL0     C 7022   0.671   8.119   7.774  0.0999  0.2032 -1.1181
   54MOL0     C 7023   0.553   8.129   7.849  0.1345  0.7750  0.7286
   54MOL0     C 7024   0.546   8.177   7.989  0.0892  1.1077  0.6166
   54MOL0     C 7025   0.421   8.209   8.049  0.2150 -0.5281 -1.2939
   54MOL0     O 7026   0.310   8.204   7.982 -0.1083 -0.9434 -0.2523
   54MOL0     C 7027   0.188   8.208   8.048  0.7523  0.3926  0.3793
   54MOL0     C 7028   0.081   8.132   8.005  0.1062  1.4779 -1.2103
   54MOL0     C 7029  -0.046   8.129   8.074  0.2461 -0.1667 -0.0390
   54MOL0     C 7030  -0.071   8.215   8.177  0.0304 -0.5696 -0.4571
   54MOL0     O 7031  -0.179   8.211   8.253 -0.1379 -0.5528 -0.4004
   54MOL0     C 7032  -0.297   8.130   8.219 -0.2393 -0.9043 -0.0116
   54MOL0     C 7033  -0.427   8.197   8.289 -0.4805 -0.5419  1.0842
   54MOL0     C 7034  -0.507   8.276   8.187  0.0230  0.2772  0.5567
   54MOL0     C 7035  -0.645   8.269   8.234  0.3698  0.0564  0.4930
   54MOL0     C 7036  -0.758   8.298   8.134 -0.2528  0.4230  0.2972
   54MOL0     C 7037  -0.902   8.300   8.207  0.0035  0.7456  0.5891
   54MOL0     C 7038  -0.953   8.160   8.240  0.6010 -0.7039  0.3852
   54MOL0     C 7039  -1.085   8.163   8.325 -0.1032 -0.5432  0.7530
   54MOL0    Cl 7040  -1.141   7.994   8.369  0.0857  0.0951  0.6802
   54MOL0     C 7041   0.030   8.309   8.204 -1.1542 -0.2570 -0.0805
   54MOL0     C 7042   0.158   8.305   8.146  0.3796 -0.5949  0.5657
   54MOL0     O 7043   0.426   8.221   8.173 -0.0283  0.8184 -0.2195
   54MOL0     C 7044   0.668   8.189   8.052  0.2579 -0.3382 -1.0193
   54MOL0     C 7045   0.788   8.183   7.986 -0.9061 -0.2749  0.7379
   54MOL0     N 7046   1.274   8.321   7.295  0.1804 -0.0527 -0.4632
   54MOL0     N 7047   1.298   8.406   7.210 -0.1975 -0.4380  0.6540
   54MOL0     C 7048   1.820   9.585   6.935  0.7554  0.4618  0.6925
   54MOL0     C 7049   1.948   9.637   6.934 -0.6760  0.4938 -0.2134
   54MOL0     C 7050   2.292   9.887   6.825  0.7293  0.1477  0.4212
   54MOL0     C 7051   2.317  10.025   6.797  0.6529  0.2536 -0.0114
   54MOL0     C 7052   2.446  10.078   6.820  0.2438 -0.2771  0.7134
   54MOL0     C 7053   2.546  10.000   6.875  0.6891  0.4546 -0.0780
   54MOL0     O 7054   2.657  10.054   6.934  0.3223  0.8357  0.1581
   54MOL0     C 7055   2.775  10.035   6.854 -0.9476 -1.3986 -0.1110
   54MOL0     C 7056   2.772  10.117   6.729  0.0216  0.2728  0.0178
   54MOL0     C 7057   2.889  10.099   6.641 -0.3767 -0.0263 -0.2543
   54MOL0     C 7058   2.875  10.174   6.516  0.4431 -0.1112 -1.2440
   54MOL0     C 7059   2.780  10.106   6.419 -0.1775  0.2620  0.0605
   54MOL0     C 7060   2.724  10.070   6.318 -0.0654 -0.3921  0.1618
   54MOL0     C 7061   2.514   9.870   6.904  0.1729  0.0789 -0.3572
   54MOL0     C 7062   2.390   9.809   6.883 -0.0956 -0.0344 -0.3934
   54MOL0     H 7063   2.042   9.571   6.611 -0.5829 -0.3201 -0.4615
   54MOL0     H 7064   1.836   9.430   6.628 -1.0043  1.7623 -1.1594
   54MOL0     H 7065   1.555   9.509   6.999  1.0124 -0.1287  0.1794
   54MOL0     H 7066   1.664   9.383   7.040  1.3701  0.3279 -0.8130
   54MOL0     H 7067   1.527   9.241   6.854 -1.0685 -0.3822 -1.0247
   54MOL0     H 7068   1.407   9.353   6.916  0.7826  2.3163  3.7377
   54MOL0     H 7069   1.435   9.288   7.147 -0.1503  1.6731 -2.7011
   54MOL0     H 7070   1.587   9.191   7.101 -0.2665  1.2525  0.5923
   54MOL0     H 7071   1.293   9.121   7.069  0.1048  0.4024 -1.3265
   54MOL0     H 7072   1.401   9.073   6.937 -1.4433  1.8273 -0.1193
   54MOL0     H 7073   1.394   9.007   7.236 -0.4940  0.8443 -0.8325
   54MOL0     H 7074   1.514   8.939   7.133 -0.6296  0.0594  0.7017
   54MOL0     H 7075   1.323   8.856   6.984 -2.4543  2.1622  0.4538
   54MOL0     H 7076   1.214   8.893   7.120  0.7108  1.3988  3.6596
   54MOL0     H 7077   1.424   8.670   7.090  0.3553  2.5024 -0.9491
   54MOL0     H 7078   1.411   8.742   7.245 -0.3817 -2.3253  0.5010
   54MOL0     H 7079   1.189   8.609   7.102  0.1239 -0.9945 -0.4188
   54MOL0     H 7080   1.163   8.704   7.250 -0.8853  0.9506 -1.9088
   54MOL0     H 7081   1.261   8.582   7.478  0.6981 -1.3909  1.3056
   54MOL0     H 7082   1.273   8.358   7.633  0.1912 -3.0708  2.2198
   54MOL0     H 7083   1.307   8.222   7.547 -0.4708 -0.8136  1.5836
   54MOL0     H 7084   1.057   8.259   7.455  0.0597 -0.1561  0.0796
   54MOL0     H 7085   1.035   8.325   7.617 -0.2439 -0.1083 -0.3622
   54MOL0     H 7086   1.117   8.048   7.532  2.2755 -0.1102 -0.2418
   54MOL0     H 7087   1.166   8.110   7.692  0.3889 -1.0854 -0.8594
   54MOL0     H 7088   0.947   7.981   7.679 -0.4569  0.9259  0.9377
   54MOL0     H 7089   0.883   8.117   7.584  1.3017  1.9337 -0.2569
   54MOL0     H 7090   0.681   8.084   7.671  1.8148 -1.0755 -0.5627
   54MOL0     H 7091   0.458   8.124   7.795  1.5259  0.9257 -1.9076
   54MOL0     H 7092   0.077   8.065   7.920 -0.9382 -2.0771  1.3885
   54MOL0     H 7093  -0.116   8.049   8.052  0.2105 -0.3064  0.5829
   54MOL0     H 7094  -0.291   8.030   8.263 -2.8355 -0.2375  2.1822
   54MOL0     H 7095  -0.309   8.128   8.110 -0.8815  3.3875 -0.2008
   54MOL0     H 7096  -0.397   8.260   8.373  0.0309  2.1905 -1.0037
   54MOL0     H 7097  -0.481   8.107   8.321 -0.3562 -0.8744  0.3760
   54MOL0     H 7098  -0.494   8.222   8.092 -0.0621 -2.1405  1.8515
   54MOL0     H 7099  -0.469   8.377   8.169 -0.4730 -0.0296 -3.1769
   54MOL0     H 7100  -0.674   8.171   8.271  3.6519 -1.2464 -0.0494
   54MOL0     H 7101  -0.652   8.342   8.315 -2.5543  1.0886 -0.5540
   54MOL0     H 7102  -0.769   8.225   8.053 -0.6812  1.0688 -0.2324
   54MOL0     H 7103  -0.735   8.393   8.086 -1.1159  0.1389 -0.7202
   54MOL0     H 7104  -0.967   8.342   8.131 -0.7948 -2.7254 -0.8363
   54MOL0     H 7105  -0.910   8.373   8.288  0.3985  0.6256  0.7417
   54MOL0     H 7106  -0.974   8.106   8.148 -3.9703  0.7140  0.3467
   54MOL0     H 7107  -0.877   8.111   8.302  0.8108 -1.2387 -0.2850
   54MOL0     H 7108  -1.155   8.223   8.266  2.2628  1.5938 -0.0393
   54MOL0     H 7109  -1.063   8.212   8.421  0.6607  0.4939  0.0636
   54MOL0     H 7110   0.006   8.391   8.272  1.2793  0.4844 -0.0172
   54MOL0     H 7111   0.229   8.384   8.166  0.3243 -0.8512  1.8967
   54MOL0     H 7112   0.671   8.235   8.151  0.9380 -1.1256 -0.6579
   54MOL0     H 7113   0.877   8.220   8.036 -1.5390 -1.6460  3.0233
   54MOL0     H 7114   1.770   9.584   7.031  2.0980  0.6697  1.4249
   54MOL0     H 7115   1.989   9.664   7.030 -0.1906 -1.3660  0.1378
   54MOL0     H 7116   2.236  10.089   6.761  1.9013  1.3608 -0.9682
   54MOL0     H 7117   2.471  10.183   6.811 -3.3756  0.9326  2.6529
   54MOL0     H 7118   2.810   9.933   6.837  0.7831 -0.9068  0.2780
   54MOL0     H 7119   2.860  10.083   6.902  1.3564 -0.7767 -4.3361
   54MOL0     H 7120   2.688  10.086   6.665  1.5096 -2.8217 -0.6581
   54MOL0     H 7121   2.771  10.224   6.751  0.5157  0.0471  1.1827
   54MOL0     H 7122   2.906   9.995   6.613  0.0454  0.3047 -1.2433
   54MOL0     H 7123   2.975  10.136   6.698  0.3514 -0.2771 -1.1884
   54MOL0     H 7124   2.831  10.273   6.534 -2.0637 -1.3887  0.0932
   54MOL0     H 7125   2.974  10.177   6.468 -0.1733 -0.5613 -2.5978
   54MOL0     H 7126   2.675  10.028   6.232 -0.5725 -4.2371  2.1196
   54MOL0     H 7127   2.590   9.808   6.950  1.5001  0.5192 -1.8618
   54MOL0     H 7128   2.381   9.706   6.915 -1.9472  0.5931  1.3056
   55MOL0     O 7129   5.250   1.578   0.443 -0.6951  0.7587 -0.2992
   55MOL0     C 7130   5.359   1.591   0.502 -0.0192  0.0564 -0.6189
   55MOL0     O 7131   5.418   1.709   0.545  0.9068 -0.1096  0.7712
   55MOL0     C 7132   5.376   1.835   0.508 -1.0327  0.1618  0.3744
   55MOL0     C 7133   5.251   1.884   0.556 -0.3876  0.9607 -0.5912
   55MOL0     C 7134   5.207   2.009   0.522  0.5394  0.3356  0.1548
   55MOL0     C 7135   5.290   2.099   0.444 -0.2581  0.3507 -0.4205
   55MOL0     O 7136   5.239   2.228   0.419  0.8120  0.4391  0.3956
   55MOL0     C 7137   5.335   2.335   0.450  0.5296  0.7193 -0.2890
   55MOL0     C 7138   5.351   2.435   0.333  1.0426 -0.3024  0.2806
   55MOL0     C 7139   5.226   2.525   0.308 -0.3944 -0.1524 -0.3274
   55MOL0     C 7140   5.083   2.457   0.304  0.3163 -0.1597  0.5036
   55MOL0     C 7141   4.983   2.547   0.231  0.1376  0.6049  0.5503
   55MOL0     C 7142   4.838   2.492   0.234 -0.1248 -0.5647  0.7266
   55MOL0     C 7143   4.740   2.567   0.141 -0.2309 -0.1225  0.9345
   55MOL0     C 7144   4.740   2.714   0.181 -0.3182 -0.7692 -0.1206
   55MOL0     N 7145   4.661   2.793   0.077  0.2726 -0.9731  0.5342
   55MOL0     C 7146   4.597   2.738  -0.034 -0.1513 -0.1160 -0.0366
   55MOL0     C 7147   4.558   2.840  -0.112 -0.1861  0.7050  0.0889
   55MOL0     C 7148   4.478   2.816  -0.237  0.1487  0.2006 -0.2729
   55MOL0     C 7149   4.335   2.749  -0.231 -0.6984 -0.2395 -0.3666
   55MOL0     C 7150   4.249   2.815  -0.122  0.8064 -0.1849 -0.4870
   55MOL0     C 7151   4.118   2.743  -0.118  0.0464  0.2731  0.8498
   55MOL0     O 7152   4.038   2.830  -0.046  0.3812  0.7138  0.4438
   55MOL0     C 7153   3.904   2.826  -0.065  0.0695 -0.9682 -0.1508
   55MOL0     C 7154   3.827   2.922  -0.004  0.7348  1.0182 -0.1460
   55MOL0     C 7155   3.695   2.925  -0.003  1.0186 -0.0449 -0.7797
   55MOL0     C 7156   3.623   2.817  -0.056  0.7699  0.6885 -0.1805
   55MOL0     C 7157   3.479   2.809  -0.069 -0.8725 -1.4817 -0.4823
   55MOL0     O 7158   3.427   2.715  -0.150  0.6710 -0.3511 -0.9695
   55MOL0     C 7159   3.290   2.690  -0.155  0.3971 -0.2764  0.9937
   55MOL0     C 7160   3.208   2.689  -0.041 -0.3413 -0.4026  1.1471
   55MOL0     C 7161   3.072   2.672  -0.058  0.0238 -0.5531  0.6500
   55MOL0     C 7162   3.017   2.644  -0.185  0.0348 -0.7686 -0.6830
   55MOL0     O 7163   2.888   2.645  -0.208  0.1146 -0.5491 -0.5390
   55MOL0     C 7164   2.800   2.594  -0.114 -0.2988 -0.0047 -0.1946
   55MOL0     C 7165   2.655   2.607  -0.158 -0.1895  0.2207  0.0687
   55MOL0     C 7166   2.553   2.620  -0.050  0.2074 -0.5747  0.1359
   55MOL0     C 7167   2.422   2.643  -0.120 -0.0796 -0.3080 -1.3015
   55MOL0     C 7168   2.307   2.668  -0.014 -0.2413  0.7925  0.1465
   55MOL0     C 7169   2.165   2.700  -0.074 -0.5266 -0.6722  0.1901
   55MOL0     C 7170   2.078   2.718   0.049  0.1880  0.4685 -0.7595
   55MOL0     C 7171   1.926   2.741   0.011  0.2699 -0.4556 -0.0640
   55MOL0    Cl 7172   1.913   2.891  -0.089  0.4852  0.5359 -0.8269
   55MOL0     C 7173   3.102   2.635  -0.296  0.6922 -0.3610 -1.0118
   55MOL0     C 7174   3.238   2.660  -0.286  0.3437  0.1834  0.0292
   55MOL0     O 7175   3.423   2.901  -0.013  0.9903 -0.4991 -0.4468
   55MOL0     C 7176   3.697   2.714  -0.128  0.0811 -0.3921  0.1559
   55MOL0     C 7177   3.833   2.722  -0.132 -0.7610 -0.8308  0.7902
   55MOL0     N 7178   4.609   2.954  -0.054 -0.1402  0.0308 -0.6897
   55MOL0     N 7179   4.672   2.924   0.051  0.0393  0.1489  0.3556
   55MOL0     C 7180   5.415   2.050   0.390  0.1880  0.2690 -0.3888
   55MOL0     C 7181   5.460   1.916   0.424  0.1472  0.3992 -0.2921
   55MOL0     C 7182   5.433   1.470   0.546 -0.1165  1.0211  0.6474
   55MOL0     C 7183   5.362   1.347   0.522  0.3140  0.5573  1.3295
   55MOL0     C 7184   5.425   1.225   0.532 -0.1430  0.3034 -0.2035
   55MOL0     C 7185   5.556   1.218   0.577  0.0752  0.0153  0.4955
   55MOL0     O 7186   5.615   1.093   0.587 -0.0091  0.3070 -0.0820
   55MOL0     C 7187   5.733   1.085   0.675  0.1856  0.5181 -0.2784
   55MOL0     C 7188   5.861   1.092   0.596 -1.1703  0.3715  0.1129
   55MOL0     C 7189   5.885   0.966   0.514  0.0570 -0.3575  0.5055
   55MOL0     C 7190   5.790   0.939   0.403 -0.0336  0.1005 -0.1325
   55MOL0     C 7191   5.845   0.826   0.328  0.3255  1.3764  0.9543
   55MOL0     C 7192   5.868   0.711   0.281  0.2199 -0.4837 -0.7215
   55MOL0     C 7193   5.623   1.338   0.607  0.0893  0.7896  0.4484
   55MOL0     C 7194   5.569   1.461   0.600  0.8384 -0.3391 -0.4095
   55MOL0     H 7195   5.181   1.818   0.608  0.2561  1.7774  1.4271
   55MOL0     H 7196   5.100   2.022   0.539  0.6144  1.8258 -0.3111
   55MOL0     H 7197   5.428   2.287   0.482 -0.4207  0.1235  1.7167
   55MOL0     H 7198   5.294   2.390   0.535 -5.1308  0.6911 -2.5610
   55MOL0     H 7199   5.373   2.372   0.246  0.1628 -0.8667  0.4533
   55MOL0     H 7200   5.433   2.503   0.358 -0.7456  1.3877  1.9065
   55MOL0     H 7201   5.231   2.557   0.203  2.3938 -0.4846 -0.3783
   55MOL0     H 7202   5.228   2.607   0.379  2.0245  0.4824 -1.0288
   55MOL0     H 7203   5.089   2.362   0.251  3.2941  0.3951 -0.3679
   55MOL0     H 7204   5.046   2.441   0.406 -0.1406 -0.6347  0.2621
   55MOL0     H 7205   5.020   2.551   0.128 -0.1140  1.1164  0.4735
   55MOL0     H 7206   4.988   2.642   0.286  2.0875 -0.8171  3.0327
   55MOL0     H 7207   4.799   2.476   0.335  0.8329  0.2180  1.2435
   55MOL0     H 7208   4.832   2.390   0.196 -1.7915  0.1856 -1.2349
   55MOL0     H 7209   4.768   2.557   0.035 -3.0490 -1.4030  0.2113
   55MOL0     H 7210   4.639   2.525   0.141 -0.4505  0.3336 -0.6973
   55MOL0     H 7211   4.842   2.754   0.181  0.6325 -2.9974 -1.6631
   55MOL0     H 7212   4.691   2.735   0.276  1.8659  0.4059  0.8009
   55MOL0     H 7213   4.560   2.638  -0.054  1.7347 -0.8671 -0.0108
   55MOL0     H 7214   4.528   2.740  -0.297  0.7321  0.9077 -0.6962
   55MOL0     H 7215   4.484   2.900  -0.306  1.8148 -1.4405 -2.2536
   55MOL0     H 7216   4.361   2.647  -0.201  1.4239  0.8899  2.0226
   55MOL0     H 7217   4.294   2.751  -0.332 -2.0775 -0.3292  0.1727
   55MOL0     H 7218   4.304   2.816  -0.028 -0.4436  2.1550  0.2863
   55MOL0     H 7219   4.232   2.923  -0.133 -0.8483  0.0089  2.8159
   55MOL0     H 7220   4.117   2.646  -0.066 -1.8278  1.6328  3.6357
   55MOL0     H 7221   4.074   2.743  -0.218  1.8708  1.4915 -0.0078
   55MOL0     H 7222   3.864   3.007   0.053 -0.8602  1.1969  0.6793
   55MOL0     H 7223   3.637   2.999   0.052  3.8927  0.4124  1.9241
   55MOL0     H 7224   3.260   2.704   0.053 -0.6226  0.8552  1.1197
   55MOL0     H 7225   3.007   2.694   0.026 -2.4765 -1.4441 -0.9388
   55MOL0     H 7226   2.799   2.632  -0.012 -0.2369 -0.4451 -0.0298
   55MOL0     H 7227   2.817   2.488  -0.094 -0.2142 -0.1386 -0.9551
   55MOL0     H 7228   2.629   2.531  -0.232 -0.7853  1.0058 -0.5384
   55MOL0     H 7229   2.645   2.704  -0.207 -1.5269  0.4153  0.6748
   55MOL0     H 7230   2.576   2.707   0.013  2.1269 -1.8997  1.3424
   55MOL0     H 7231   2.548   2.531   0.014  3.9124  0.3778  2.0341
   55MOL0     H 7232   2.426   2.729  -0.187 -0.6158  2.0825  1.5470
   55MOL0     H 7233   2.398   2.552  -0.176 -0.0465 -0.1343 -1.6028
   55MOL0     H 7234   2.348   2.747   0.050  2.4402 -0.5153  0.2029
   55MOL0     H 7235   2.282   2.578   0.043 -2.5118  1.5498  0.4261
   55MOL0     H 7236   2.131   2.616  -0.135  1.7866  0.0807 -2.3542
   55MOL0     H 7237   2.167   2.792  -0.133  0.2251 -0.9642 -0.2514
   55MOL0     H 7238   2.099   2.626   0.105  0.1831  0.0558 -1.4183
   55MOL0     H 7239   2.106   2.799   0.117  0.8148 -1.3129  1.2170
   55MOL0     H 7240   1.851   2.746   0.090 -1.0610 -2.5360 -1.1125
   55MOL0     H 7241   1.903   2.656  -0.055 -0.3181  1.3366 -2.2915
   55MOL0     H 7242   3.058   2.606  -0.391  0.6271  4.1342 -2.5988
   55MOL0     H 7243   3.300   2.659  -0.376 -2.2770  3.1189 -2.0131
   55MOL0     H 7244   3.645   2.641  -0.190  2.4691 -1.8905 -0.2445
   55MOL0     H 7245   3.892   2.659  -0.198 -3.7747  0.0967 -3.2040
   55MOL0     H 7246   5.466   2.126   0.332 -0.0020  0.1338 -0.7328
   55MOL0     H 7247   5.557   1.875   0.395 -0.1273  1.0700 -2.3661
   55MOL0     H 7248   5.259   1.348   0.488  0.5456  0.2397  0.5966
   55MOL0     H 7249   5.365   1.138   0.507  1.8294 -0.6828 -1.8063
   55MOL0     H 7250   5.735   0.984   0.718 -0.5557 -0.3299 -2.1271
   55MOL0     H 7251   5.724   1.151   0.762 -1.9329  0.2292 -0.2339
   55MOL0     H 7252   5.866   1.180   0.531 -1.1330 -1.3624 -2.3750
   55MOL0     H 7253   5.943   1.090   0.667  1.7251  1.0689 -2.9595
   55MOL0     H 7254   5.881   0.879   0.580 -0.8601 -0.6671  0.0591
   55MOL0     H 7255   5.987   0.977   0.475 -0.1110 -2.5520 -0.7381
   55MOL0     H 7256   5.687   0.929   0.439 -0.0578  1.6021  0.2587
   55MOL0     H 7257   5.773   1.017   0.329 -1.0883 -2.4114 -2.7225
   55MOL0     H 7258   5.882   0.611   0.245 -2.2278 -2.0254  2.1277
   55MOL0     H 7259   5.724   1.331   0.646  0.2299 -2.1736 -0.2307
   55MOL0     H 7260   5.622   1.555   0.609 -0.0824  0.0792  1.0712
   56MOL0     O 7261   2.850   6.971   8.017  1.0076 -0.2226 -0.1554
   56MOL0     C 7262   2.957   6.909   7.999  1.0285  0.0677  0.5848
   56MOL0     O 7263   2.996   6.799   8.067 -0.1784  0.1142  0.4632
   56MOL0     C 7264   2.920   6.732   8.162 -0.2022  0.9144 -0.0091
   56MOL0     C 7265   2.779   6.706   8.155 -0.1762 -0.8415 -1.0627
   56MOL0     C 7266   2.709   6.654   8.261 -0.2808  1.1807 -0.3181
   56MOL0     C 7267   2.786   6.602   8.373 -0.8495 -0.5128 -0.6076
   56MOL0     O 7268   2.735   6.544   8.489  0.1766  0.8485  0.2218
   56MOL0     C 7269   2.594   6.525   8.503 -0.3475  0.5745 -0.9506
   56MOL0     C 7270   2.562   6.464   8.635 -0.1595 -1.1718 -0.3630
   56MOL0     C 7271   2.415   6.437   8.648 -0.1233 -0.1084 -0.3227
   56MOL0     C 7272   2.378   6.334   8.768  1.1109 -0.8462 -0.0256
   56MOL0     C 7273   2.229   6.327   8.792 -0.9450  1.0669 -0.0421
   56MOL0     C 7274   2.140   6.292   8.673 -0.3592 -0.3786  0.9728
   56MOL0     C 7275   1.994   6.306   8.706 -1.1382  0.5340  0.0994
   56MOL0     C 7276   1.896   6.274   8.597 -1.1281  0.0827 -0.4708
   56MOL0     N 7277   1.763   6.260   8.653 -0.6188 -0.3733 -0.9712
   56MOL0     C 7278   1.717   6.154   8.711  0.5344  0.6153  0.5958
   56MOL0     C 7279   1.602   6.182   8.772  0.7638 -0.3730 -0.5510
   56MOL0     C 7280   1.522   6.098   8.870 -0.4763 -0.3627  0.1667
   56MOL0     C 7281   1.387   6.076   8.801  0.3509 -0.7648  0.6929
   56MOL0     C 7282   1.328   5.944   8.853  0.3560 -0.1948  0.3681
   56MOL0     C 7283   1.183   5.926   8.806 -0.7058 -1.5996 -0.1267
   56MOL0     O 7284   1.141   5.795   8.845 -0.2319  0.3272 -0.3990
   56MOL0     C 7285   1.016   5.756   8.860  0.5567 -0.7509  0.3526
   56MOL0     C 7286   0.898   5.818   8.813  0.9658  0.1630  0.4266
   56MOL0     C 7287   0.771   5.774   8.866  0.8838  0.0017 -0.5807
   56MOL0     C 7288   0.765   5.655   8.937 -1.2390 -0.1354 -0.8209
   56MOL0     C 7289   0.638   5.615   8.998 -0.2351  0.2007  0.0167
   56MOL0     O 7290   0.643   5.512   9.090  0.8680  0.1062 -0.6907
   56MOL0     C 7291   0.524   5.464   9.145  1.1640  0.1995  0.7972
   56MOL0     C 7292   0.545   5.361   9.240 -0.1882 -0.9926  0.5121
   56MOL0     C 7293   0.440   5.286   9.293 -0.1810 -0.5959  1.3157
   56MOL0     C 7294   0.308   5.300   9.244 -0.0360  0.5221 -0.5257
   56MOL0     O 7295   0.202   5.223   9.288 -0.5318 -0.5027 -0.1527
   56MOL0     C 7296   0.241   5.088   9.325  0.1412  0.2801  0.1338
   56MOL0     C 7297   0.115   4.995   9.326  0.1691 -0.0765 -0.0204
   56MOL0     C 7298   0.056   4.972   9.186  0.5067  0.0988 -0.1575
   56MOL0     C 7299  -0.049   4.866   9.192  0.1287 -0.1415  0.7173
   56MOL0     C 7300  -0.084   4.819   9.051 -1.0720 -0.1695  0.1035
   56MOL0     C 7301  -0.117   4.930   8.958 -0.2392 -0.6927 -0.5217
   56MOL0     C 7302  -0.210   4.883   8.850  0.1358  0.5550  0.5384
   56MOL0     C 7303  -0.181   4.756   8.778  0.0662  0.4005 -0.5010
   56MOL0    Cl 7304  -0.080   4.784   8.634  0.2525  0.1328  0.4557
   56MOL0     C 7305   0.287   5.396   9.152 -0.8241 -0.8748  0.7448
   56MOL0     C 7306   0.388   5.475   9.102 -0.2017  0.3900  0.1493
   56MOL0     O 7307   0.544   5.684   8.975  0.3690  0.5439 -0.7424
   56MOL0     C 7308   0.882   5.580   8.967  0.0203  0.3882 -0.9150
   56MOL0     C 7309   1.007   5.640   8.940 -0.0198 -0.2229  0.5699
   56MOL0     N 7310   1.575   6.316   8.745  0.1830  0.0691  0.4448
   56MOL0     N 7311   1.674   6.360   8.668  0.7465  0.4008  0.4093
   56MOL0     C 7312   2.927   6.592   8.365 -0.1130  0.2094  0.6005
   56MOL0     C 7313   2.992   6.662   8.261 -0.1415 -0.4574 -0.9339
   56MOL0     C 7314   3.043   6.964   7.897  0.4179 -0.1147  0.0723
   56MOL0     C 7315   3.159   6.900   7.868 -0.6403 -1.1864  0.1523
   56MOL0     C 7316   3.244   6.947   7.768 -0.1423  0.6017 -0.0183
   56MOL0     C 7317   3.210   7.045   7.686 -0.3421 -0.9595 -0.5545
   56MOL0     O 7318   3.302   7.110   7.611 -0.4786 -0.4448 -0.1554
   56MOL0     C 7319   3.409   7.176   7.681 -0.0850  0.0867 -0.2483
   56MOL0     C 7320   3.419   7.297   7.611 -0.7161 -0.4767  0.8889
   56MOL0     C 7321   3.468   7.309   7.466  0.3765 -0.9708  0.0145
   56MOL0     C 7322   3.607   7.252   7.430 -0.5077  0.4829  0.0701
   56MOL0     C 7323   3.716   7.325   7.497 -0.4027  0.0699 -0.4159
   56MOL0     C 7324   3.801   7.369   7.560 -0.7547 -0.3467 -0.3739
   56MOL0     C 7325   3.094   7.115   7.716  0.1636  0.8743  0.5277
   56MOL0     C 7326   3.010   7.072   7.823 -0.2503 -0.8047 -0.4849
   56MOL0     H 7327   2.735   6.748   8.066 -0.4370  2.4408  0.4449
   56MOL0     H 7328   2.602   6.647   8.276  0.0918  1.3245  3.1624
   56MOL0     H 7329   2.552   6.460   8.426  2.0925 -1.0097 -1.0346
   56MOL0     H 7330   2.536   6.618   8.509 -2.2444 -0.6570  1.3580
   56MOL0     H 7331   2.604   6.528   8.713  0.4287 -1.3107 -0.5674
   56MOL0     H 7332   2.616   6.369   8.636  0.8471 -0.6044  0.2412
   56MOL0     H 7333   2.379   6.393   8.554 -1.0083 -0.7446  0.3032
   56MOL0     H 7334   2.359   6.529   8.669 -1.4289 -1.2661  1.4528
   56MOL0     H 7335   2.408   6.231   8.747 -2.0916 -1.6079 -1.4028
   56MOL0     H 7336   2.418   6.369   8.864 -0.9838 -0.4233  0.7478
   56MOL0     H 7337   2.199   6.427   8.826 -1.6492  0.6375  0.6170
   56MOL0     H 7338   2.217   6.256   8.874  0.0183  0.1848 -0.6474
   56MOL0     H 7339   2.165   6.194   8.632  1.4424  0.7550 -0.8171
   56MOL0     H 7340   2.157   6.368   8.596 -3.4557 -0.0343  0.4757
   56MOL0     H 7341   1.980   6.235   8.788 -0.4475  0.6235  0.3049
   56MOL0     H 7342   1.983   6.408   8.746 -2.1105  0.5605 -0.2113
   56MOL0     H 7343   1.915   6.181   8.543 -0.1426 -0.5544  0.9285
   56MOL0     H 7344   1.906   6.359   8.529 -2.1692 -0.6270 -1.5601
   56MOL0     H 7345   1.751   6.051   8.722 -1.6074 -0.2418 -0.1751
   56MOL0     H 7346   1.501   6.168   8.951 -1.4330 -0.1240 -0.2617
   56MOL0     H 7347   1.585   6.017   8.905 -0.9993 -1.2548 -0.8959
   56MOL0     H 7348   1.396   6.062   8.693 -0.3174 -0.8527  0.6438
   56MOL0     H 7349   1.320   6.159   8.826 -0.7928 -1.0091 -1.3018
   56MOL0     H 7350   1.387   5.861   8.813 -1.9460 -2.2059  0.8952
   56MOL0     H 7351   1.339   5.936   8.962  3.5606  1.0375  0.2475
   56MOL0     H 7352   1.184   5.935   8.697  0.9487  2.3739  0.0290
   56MOL0     H 7353   1.118   6.006   8.841  1.6300  0.6478 -0.5942
   56MOL0     H 7354   0.894   5.902   8.744 -0.1335 -2.7099 -3.3495
   56MOL0     H 7355   0.685   5.837   8.848  1.0163  1.1935  2.3369
   56MOL0     H 7356   0.647   5.346   9.274 -0.1883  0.9831  1.5246
   56MOL0     H 7357   0.467   5.210   9.366 -0.5346  0.1897  2.2898
   56MOL0     H 7358   0.278   5.095   9.428  2.7642 -0.3761 -0.6977
   56MOL0     H 7359   0.317   5.055   9.254 -0.6169 -2.3930  0.4482
   56MOL0     H 7360   0.050   5.057   9.389  1.3618  1.2809 -0.0818
   56MOL0     H 7361   0.140   4.903   9.379 -1.1886  0.0733  0.9494
   56MOL0     H 7362   0.136   4.930   9.126  1.1737 -0.8174  1.3215
   56MOL0     H 7363   0.022   5.068   9.146  1.8099  0.5759 -0.1657
   56MOL0     H 7364  -0.018   4.789   9.263 -2.2565 -0.4798  1.4635
   56MOL0     H 7365  -0.136   4.908   9.242  0.7945  1.8378  0.2991
   56MOL0     H 7366  -0.180   4.767   9.059 -0.8897 -0.3892  1.0043
   56MOL0     H 7367  -0.003   4.753   9.019  0.9171  1.0432  2.2728
   56MOL0     H 7368  -0.030   4.983   8.918 -1.4227  1.2487 -0.6587
   56MOL0     H 7369  -0.171   5.002   9.020 -1.2744 -3.4832  2.0077
   56MOL0     H 7370  -0.308   4.864   8.894 -0.7568  1.2283 -1.0893
   56MOL0     H 7371  -0.224   4.958   8.772  0.1140 -1.0330 -1.0475
   56MOL0     H 7372  -0.278   4.718   8.746 -0.8356  1.6268  0.6481
   56MOL0     H 7373  -0.129   4.679   8.834 -0.0552  1.0889  0.5885
   56MOL0     H 7374   0.190   5.409   9.104 -0.8439 -1.1043  0.7169
   56MOL0     H 7375   0.360   5.534   9.015 -0.4934  0.0399  0.0031
   56MOL0     H 7376   0.869   5.488   9.024 -0.0422  0.5125 -0.7256
   56MOL0     H 7377   1.105   5.597   8.960  0.3593  0.0337 -0.6255
   56MOL0     H 7378   2.981   6.533   8.438 -3.1073 -2.4034  0.8955
   56MOL0     H 7379   3.099   6.667   8.275  0.0094 -0.8120 -1.8846
   56MOL0     H 7380   3.187   6.812   7.924 -1.0194 -0.5256  1.4114
   56MOL0     H 7381   3.343   6.901   7.766 -0.5295 -0.2459 -1.2111
   56MOL0     H 7382   3.503   7.121   7.677  0.2708  0.1735  3.4453
   56MOL0     H 7383   3.376   7.190   7.784  0.0775  2.2086 -0.4387
   56MOL0     H 7384   3.318   7.337   7.623 -1.1715 -1.4168  0.2831
   56MOL0     H 7385   3.482   7.361   7.674 -0.1406 -1.3498  1.2127
   56MOL0     H 7386   3.474   7.415   7.441 -2.2865 -1.1908 -2.0331
   56MOL0     H 7387   3.393   7.272   7.395  3.3773  0.4189 -4.2146
   56MOL0     H 7388   3.616   7.144   7.446  2.6963 -0.0243 -3.7993
   56MOL0     H 7389   3.628   7.260   7.323 -1.6586 -3.6960 -0.6793
   56MOL0     H 7390   3.884   7.402   7.618 -3.9231  1.7951  3.4104
   56MOL0     H 7391   3.065   7.208   7.668  0.6354  1.7945  1.9679
   56MOL0     H 7392   2.918   7.123   7.848 -0.3128  0.0918 -2.3716
   57MOL0     O 7393  10.556   8.132   8.869  0.2991 -0.0002  0.4725
   57MOL0     C 7394  10.585   8.215   8.780  0.0129  0.6801 -0.3539
   57MOL0     O 7395  10.486   8.268   8.700  0.9404 -0.6474  1.0409
   57MOL0     C 7396  10.349   8.237   8.694 -1.0521 -0.6137  0.1713
   57MOL0     C 7397  10.266   8.340   8.655  0.8642 -1.3174 -0.2574
   57MOL0     C 7398  10.134   8.319   8.648  0.4181  0.4739 -0.5525
   57MOL0     C 7399  10.076   8.201   8.690 -0.3873 -0.4872  0.8211
   57MOL0     O 7400   9.938   8.189   8.720 -0.7829 -0.6835 -0.3002
   57MOL0     C 7401   9.872   8.106   8.619  0.0437  0.0272 -0.5803
   57MOL0     C 7402   9.727   8.104   8.665 -0.3440  0.8450  0.6605
   57MOL0     C 7403   9.643   8.007   8.578  0.1712 -0.0700  0.0761
   57MOL0     C 7404   9.522   7.949   8.645  0.1707 -0.8533 -0.1044
   57MOL0     C 7405   9.432   7.860   8.554  0.7179 -0.9925 -0.3293
   57MOL0     C 7406   9.508   7.737   8.525 -0.3238  0.3641  0.4614
   57MOL0     C 7407   9.422   7.642   8.436  0.8202  0.2483  0.7949
   57MOL0     C 7408   9.420   7.495   8.483  0.1267 -0.1984  0.4698
   57MOL0     N 7409   9.338   7.417   8.392 -0.3075 -0.6165 -0.6425
   57MOL0     C 7410   9.196   7.431   8.390 -1.1683  0.2116 -0.5626
   57MOL0     C 7411   9.165   7.354   8.276 -0.6773 -0.4675 -0.7262
   57MOL0     C 7412   9.032   7.337   8.212 -0.0696  0.1701  0.4478
   57MOL0     C 7413   8.917   7.341   8.315 -0.6348  0.0411 -0.1680
   57MOL0     C 7414   8.770   7.324   8.260 -1.0178  0.3997  0.3547
   57MOL0     C 7415   8.666   7.381   8.347 -0.4650 -0.3064  1.3848
   57MOL0     O 7416   8.544   7.336   8.293 -0.1214 -1.2380 -0.9001
   57MOL0     C 7417   8.424   7.387   8.342 -0.5331  0.3857 -0.5475
   57MOL0     C 7418   8.314   7.302   8.322  0.3217  0.3136  0.3339
   57MOL0     C 7419   8.186   7.338   8.358 -0.2578 -0.5495 -0.7434
   57MOL0     C 7420   8.166   7.443   8.440 -0.0758  0.2378 -0.2378
   57MOL0     C 7421   8.036   7.476   8.495  0.1127 -0.3509 -0.7920
   57MOL0     O 7422   8.032   7.569   8.594  0.7345 -0.1455  0.4202
   57MOL0     C 7423   7.906   7.614   8.629  0.0710  1.2149 -0.7596
   57MOL0     C 7424   7.818   7.534   8.710 -0.1456 -0.0954  0.2524
   57MOL0     C 7425   7.686   7.569   8.737  0.3078 -0.7627 -0.5639
   57MOL0     C 7426   7.630   7.693   8.691  0.3962  0.2788  0.6815
   57MOL0     O 7427   7.499   7.724   8.712 -0.1512 -0.0495 -0.4836
   57MOL0     C 7428   7.466   7.856   8.709  1.1021 -0.3760  0.4466
   57MOL0     C 7429   7.318   7.885   8.759 -0.0301  0.1482 -0.4371
   57MOL0     C 7430   7.207   7.810   8.688 -0.8834 -0.5479  0.6784
   57MOL0     C 7431   7.079   7.827   8.760  1.2556 -0.3098  0.0665
   57MOL0     C 7432   6.957   7.768   8.674 -0.3764 -0.0608 -0.3782
   57MOL0     C 7433   6.824   7.778   8.761 -0.6716  0.0033 -0.2886
   57MOL0     C 7434   6.713   7.819   8.675  0.6844  0.3469 -0.0046
   57MOL0     C 7435   6.698   7.970   8.657  0.1894 -0.3170  0.2114
   57MOL0    Cl 7436   6.697   8.052   8.818 -0.0263 -0.7165 -0.2503
   57MOL0     C 7437   7.715   7.777   8.615 -0.3655  0.2132  0.5426
   57MOL0     C 7438   7.857   7.739   8.590 -0.6562  0.0265  0.0248
   57MOL0     O 7439   7.941   7.414   8.447 -0.2704  0.3593 -0.4005
   57MOL0     C 7440   8.281   7.524   8.470  0.0577 -0.5520  0.4883
   57MOL0     C 7441   8.401   7.509   8.406 -0.0512  0.8754 -0.0287
   57MOL0     N 7442   9.274   7.320   8.223 -0.5632  0.1460 -0.7800
   57MOL0     N 7443   9.377   7.358   8.277 -0.3638 -0.1067 -0.5384
   57MOL0     C 7444  10.158   8.092   8.730 -0.6769 -1.0827  0.2856
   57MOL0     C 7445  10.293   8.106   8.720  0.7069 -0.0392  0.9023
   57MOL0     C 7446  10.721   8.250   8.751 -0.8153 -0.6475 -0.5544
   57MOL0     C 7447  10.832   8.199   8.825 -0.1216  0.3446 -0.1627
   57MOL0     C 7448  10.956   8.249   8.804  0.1254  0.0760 -0.9911
   57MOL0     C 7449  10.987   8.334   8.698  0.0389 -0.3021  1.0102
   57MOL0     O 7450  11.112   8.398   8.665 -0.0870 -1.0650 -0.5465
   57MOL0     C 7451  11.197   8.441   8.772  0.0313  0.8637 -0.2993
   57MOL0     C 7452  11.317   8.519   8.708  0.2509 -0.0270 -0.8939
   57MOL0     C 7453  11.425   8.533   8.815 -0.2787  0.4681 -0.1777
   57MOL0     C 7454  11.570   8.572   8.777 -0.0165  0.5811  0.3699
   57MOL0     C 7455  11.659   8.580   8.887  0.2239 -0.0287 -0.8207
   57MOL0     C 7456  11.726   8.612   8.985  0.2397  0.7965  0.3714
   57MOL0     C 7457  10.879   8.376   8.614 -0.4912  0.4019 -0.2666
   57MOL0     C 7458  10.745   8.333   8.639  0.3040 -0.0146  0.6094
   57MOL0     H 7459  10.293   8.441   8.626 -1.5409 -0.1306  1.3220
   57MOL0     H 7460  10.077   8.410   8.633 -0.7818 -0.1419  0.0720
   57MOL0     H 7461   9.909   8.003   8.623 -2.9828 -1.2005 -1.4680
   57MOL0     H 7462   9.891   8.143   8.518 -1.4112  2.1115 -0.1737
   57MOL0     H 7463   9.697   8.209   8.654  0.5675  0.9801 -0.7716
   57MOL0     H 7464   9.715   8.070   8.768 -0.6774 -3.2013 -0.5481
   57MOL0     H 7465   9.711   7.925   8.550  2.0090  1.2767  0.3849
   57MOL0     H 7466   9.623   8.058   8.484  1.4520 -3.1223 -2.0310
   57MOL0     H 7467   9.568   7.890   8.725 -2.2299 -2.1144  0.4136
   57MOL0     H 7468   9.457   8.025   8.689  0.1919 -1.0294  0.2362
   57MOL0     H 7469   9.401   7.921   8.469  3.4998  0.6904 -0.2481
   57MOL0     H 7470   9.344   7.843   8.617  1.0744 -0.8335  0.2153
   57MOL0     H 7471   9.525   7.687   8.621  0.6659 -0.1346  0.0350
   57MOL0     H 7472   9.609   7.745   8.486 -1.0353 -1.3236 -1.9321
   57MOL0     H 7473   9.319   7.678   8.436  0.9125  0.5154  0.9417
   57MOL0     H 7474   9.464   7.637   8.335  0.5009  0.3520  0.6550
   57MOL0     H 7475   9.375   7.488   8.582 -1.4679  1.0519 -0.1334
   57MOL0     H 7476   9.522   7.455   8.472 -0.3970 -1.4388 -0.1969
   57MOL0     H 7477   9.120   7.490   8.440 -1.4321  0.1978 -0.9456
   57MOL0     H 7478   9.038   7.250   8.146 -1.1125 -0.8273  1.6257
   57MOL0     H 7479   9.019   7.423   8.145 -0.1175  1.2081  1.7626
   57MOL0     H 7480   8.921   7.444   8.353 -0.5208  0.1997 -0.6088
   57MOL0     H 7481   8.940   7.268   8.393  1.4378  0.2415 -0.5235
   57MOL0     H 7482   8.759   7.369   8.161  1.2643  3.5371  1.3880
   57MOL0     H 7483   8.764   7.214   8.261  3.5283 -0.1708 -2.5144
   57MOL0     H 7484   8.669   7.490   8.342  4.1392 -0.2725 -0.6411
   57MOL0     H 7485   8.677   7.350   8.451 -0.0301  2.4383  2.2269
   57MOL0     H 7486   8.322   7.203   8.279 -4.2553 -0.3514  0.5018
   57MOL0     H 7487   8.104   7.273   8.328  0.0974 -0.8904 -0.9841
   57MOL0     H 7488   7.848   7.435   8.743 -1.1608 -0.0195  1.4760
   57MOL0     H 7489   7.616   7.508   8.793 -0.8658  0.0161 -1.1261
   57MOL0     H 7490   7.477   7.885   8.604  0.6591  1.0306  0.7600
   57MOL0     H 7491   7.535   7.924   8.759  0.8873  0.0770  0.1442
   57MOL0     H 7492   7.297   7.992   8.757 -0.4461  0.1173  1.2285
   57MOL0     H 7493   7.313   7.858   8.865 -0.5907  1.6061 -0.0714
   57MOL0     H 7494   7.244   7.707   8.678 -0.6387 -0.4446  0.5148
   57MOL0     H 7495   7.185   7.848   8.587 -0.8729 -1.5960  0.2642
   57MOL0     H 7496   7.061   7.783   8.859 -1.6101  1.2321  0.3583
   57MOL0     H 7497   7.066   7.934   8.779 -0.0430 -0.5367  0.6360
   57MOL0     H 7498   6.980   7.662   8.665  1.2437  0.1655  0.6611
   57MOL0     H 7499   6.962   7.819   8.577 -0.3147 -3.7353 -2.5033
   57MOL0     H 7500   6.833   7.848   8.844 -3.5751 -0.1204  0.2296
   57MOL0     H 7501   6.801   7.679   8.802 -3.5523  1.0235  0.7546
   57MOL0     H 7502   6.719   7.773   8.576  1.5216 -0.7691  0.5226
   57MOL0     H 7503   6.621   7.776   8.716  0.5630  0.5521 -0.0642
   57MOL0     H 7504   6.604   7.982   8.603 -1.1420 -2.4860  1.9159
   57MOL0     H 7505   6.780   8.015   8.599 -1.9103  2.2502 -0.9588
   57MOL0     H 7506   7.680   7.865   8.563 -1.7044 -1.8435 -2.2718
   57MOL0     H 7507   7.925   7.797   8.529  1.7893 -0.7437  1.8522
   57MOL0     H 7508   8.272   7.608   8.537 -2.3051 -1.0479  0.8718
   57MOL0     H 7509   8.480   7.583   8.415  0.1736  0.5368  0.8418
   57MOL0     H 7510  10.103   8.008   8.771 -1.6520  0.6469  2.7431
   57MOL0     H 7511  10.351   8.017   8.743  1.5002  0.2169 -0.0274
   57MOL0     H 7512  10.828   8.127   8.906 -0.2656 -1.5165 -1.7276
   57MOL0     H 7513  11.032   8.233   8.880 -0.9417  4.7213  1.4600
   57MOL0     H 7514  11.243   8.351   8.814  1.9306  1.9200 -0.0090
   57MOL0     H 7515  11.151   8.503   8.849 -1.4312 -1.7221  1.0249
   57MOL0     H 7516  11.357   8.470   8.619  2.7715  2.7781 -1.4543
   57MOL0     H 7517  11.282   8.619   8.678 -3.8550 -1.2866 -0.9132
   57MOL0     H 7518  11.424   8.436   8.866  3.3044  0.1440 -0.4673
   57MOL0     H 7519  11.398   8.615   8.883  0.9164 -0.3544  1.3616
   57MOL0     H 7520  11.604   8.506   8.697  0.5402 -0.2915  1.3042
   57MOL0     H 7521  11.555   8.673   8.737  3.1581  1.3708  0.9683
   57MOL0     H 7522  11.801   8.614   9.062  0.4594  2.4861  0.1422
   57MOL0     H 7523  10.912   8.449   8.542  0.8588  2.7047  2.4948
   57MOL0     H 7524  10.666   8.373   8.576  1.5754  0.2462 -0.8727
   58MOL0     O 7525   6.130   3.518   4.195 -0.0693  0.1411 -0.4218
   58MOL0     C 7526   6.163   3.458   4.089  0.5196 -1.1961  0.4642
   58MOL0     O 7527   6.085   3.432   3.976 -0.3293  0.1076  0.0409
   58MOL0     C 7528   5.952   3.461   3.964  0.5044 -0.0305 -0.4775
   58MOL0     C 7529   5.895   3.583   4.020 -0.3370 -0.7308 -0.4938
   58MOL0     C 7530   5.759   3.601   4.004 -0.5295 -1.2087 -0.7120
   58MOL0     C 7531   5.674   3.507   3.947 -0.1325  1.2025 -0.0060
   58MOL0     O 7532   5.546   3.525   3.924 -0.1235  0.0184 -0.7212
   58MOL0     C 7533   5.454   3.578   4.017  0.6172 -0.1442  0.2937
   58MOL0     C 7534   5.451   3.498   4.139  0.0035  0.6347  0.2461
   58MOL0     C 7535   5.325   3.515   4.231 -0.5045 -0.3121 -0.2298
   58MOL0     C 7536   5.208   3.426   4.184  0.5541 -0.1025 -0.3400
   58MOL0     C 7537   5.110   3.426   4.303  0.2070 -0.5136 -0.4224
   58MOL0     C 7538   4.977   3.375   4.255 -0.4447 -0.5656 -0.5465
   58MOL0     C 7539   4.895   3.349   4.382 -0.5509 -0.6021 -0.3967
   58MOL0     C 7540   4.778   3.259   4.360 -0.5903  0.6239  0.5423
   58MOL0     N 7541   4.648   3.324   4.348  0.0754 -0.0442 -0.4100
   58MOL0     C 7542   4.602   3.417   4.431  0.9765 -0.0076 -1.0324
   58MOL0     C 7543   4.470   3.423   4.400  0.0557 -0.1545 -0.3482
   58MOL0     C 7544   4.382   3.532   4.435  0.9494 -0.3714 -1.3785
   58MOL0     C 7545   4.278   3.489   4.541  0.9896 -0.3454 -0.0153
   58MOL0     C 7546   4.185   3.603   4.575 -0.4346 -0.4040  0.1827
   58MOL0     C 7547   4.102   3.559   4.702  0.5758  0.1438 -0.1546
   58MOL0     O 7548   4.026   3.677   4.746 -0.1031  0.0853 -0.5103
   58MOL0     C 7549   3.907   3.672   4.817 -0.3345  0.4606 -0.3421
   58MOL0     C 7550   3.820   3.783   4.809 -0.1185 -0.4509  0.4582
   58MOL0     C 7551   3.689   3.780   4.858  0.8008 -0.9488  0.5927
   58MOL0     C 7552   3.637   3.659   4.906  0.0797  0.6589  0.2098
   58MOL0     C 7553   3.495   3.655   4.933 -1.0878 -0.7584  0.5826
   58MOL0     O 7554   3.419   3.767   4.893 -0.4961  0.6588 -0.0001
   58MOL0     C 7555   3.283   3.773   4.923  0.0245  0.1399  0.4436
   58MOL0     C 7556   3.196   3.857   4.851  0.1464  0.1869 -0.1731
   58MOL0     C 7557   3.062   3.856   4.878  0.2086  0.1857  0.0418
   58MOL0     C 7558   2.997   3.782   4.976  0.5664 -0.6656  0.3220
   58MOL0     O 7559   2.865   3.789   4.993  0.5212 -0.2173  0.5274
   58MOL0     C 7560   2.806   3.669   5.050  0.1693  0.1157  0.6648
   58MOL0     C 7561   2.657   3.644   5.020  0.0664 -0.3211  0.1739
   58MOL0     C 7562   2.584   3.744   5.121 -0.3477  1.4962  0.3071
   58MOL0     C 7563   2.430   3.732   5.106  0.5306 -0.2738  0.5981
   58MOL0     C 7564   2.341   3.810   5.214 -0.0236  0.0055  0.0480
   58MOL0     C 7565   2.192   3.757   5.222 -1.0188 -0.5248  0.1069
   58MOL0     C 7566   2.102   3.817   5.334 -0.1875  0.3996  0.1953
   58MOL0     C 7567   2.164   3.832   5.467 -0.4106  0.4177  0.2439
   58MOL0    Cl 7568   2.162   3.662   5.537  0.0735  0.2251  0.3478
   58MOL0     C 7569   3.086   3.710   5.062 -0.8804 -0.5594 -1.0408
   58MOL0     C 7570   3.221   3.705   5.029 -0.3943  1.1186 -0.0036
   58MOL0     O 7571   3.441   3.546   4.972 -0.4816  0.6662  0.1856
   58MOL0     C 7572   3.719   3.539   4.913 -0.3929 -0.7512  0.2458
   58MOL0     C 7573   3.846   3.547   4.871 -0.7029 -0.1690  0.2564
   58MOL0     N 7574   4.433   3.337   4.303  0.0878  0.1961 -0.1248
   58MOL0     N 7575   4.545   3.277   4.271 -0.4344  0.0231  0.8198
   58MOL0     C 7576   5.730   3.390   3.898 -0.0005 -0.9322 -0.8466
   58MOL0     C 7577   5.866   3.370   3.901 -0.0005 -0.2095 -0.5675
   58MOL0     C 7578   6.300   3.423   4.081 -0.1957  0.6891 -0.3887
   58MOL0     C 7579   6.360   3.362   3.968 -0.5920  0.1719  0.0778
   58MOL0     C 7580   6.493   3.325   3.964  0.2719  0.6062  0.1028
   58MOL0     C 7581   6.573   3.362   4.065 -0.3907  0.3984 -0.2320
   58MOL0     O 7582   6.703   3.328   4.069 -0.0795 -0.4438  0.1379
   58MOL0     C 7583   6.763   3.234   3.976 -1.2402  0.2161  0.1189
   58MOL0     C 7584   6.910   3.218   4.021  0.0854 -0.2941 -0.7436
   58MOL0     C 7585   7.000   3.110   3.938  0.2749  0.6103 -0.1631
   58MOL0     C 7586   7.071   3.182   3.820  0.0823 -0.5334 -0.1473
   58MOL0     C 7587   7.131   3.083   3.733 -0.5730 -0.5357  0.4078
   58MOL0     C 7588   7.178   3.002   3.656  0.0240  0.0231 -0.2183
   58MOL0     C 7589   6.529   3.438   4.170  0.0047  0.0780 -0.9564
   58MOL0     C 7590   6.394   3.467   4.183  0.7331  0.0775  0.0527
   58MOL0     H 7591   5.942   3.656   4.084  0.2076 -0.9578 -0.6282
   58MOL0     H 7592   5.716   3.698   4.028  0.7313  0.1844 -3.6156
   58MOL0     H 7593   5.363   3.580   3.957 -0.5267 -2.1326  1.8361
   58MOL0     H 7594   5.467   3.682   4.051 -1.1067 -0.3085  1.6015
   58MOL0     H 7595   5.538   3.514   4.204  0.6240 -2.2344  0.2415
   58MOL0     H 7596   5.464   3.392   4.116  2.4417  1.1465 -1.1632
   58MOL0     H 7597   5.292   3.619   4.232  0.9083  0.1725  1.8437
   58MOL0     H 7598   5.365   3.488   4.329 -0.3906  0.3858 -0.0808
   58MOL0     H 7599   5.164   3.465   4.091  1.5232  0.1019 -0.7207
   58MOL0     H 7600   5.241   3.324   4.167 -1.3514 -0.5107 -2.0395
   58MOL0     H 7601   5.111   3.526   4.346  2.9774 -0.9196  0.6840
   58MOL0     H 7602   5.145   3.349   4.373 -1.5864 -2.1558 -1.2251
   58MOL0     H 7603   4.995   3.282   4.200 -1.4926 -1.3634  0.4339
   58MOL0     H 7604   4.937   3.441   4.178  0.5979 -0.7984 -1.3171
   58MOL0     H 7605   4.969   3.304   4.448 -0.8064 -1.2218 -0.5225
   58MOL0     H 7606   4.862   3.438   4.436  0.0489  0.3894 -1.6073
   58MOL0     H 7607   4.780   3.207   4.456  1.0228  1.0002  0.7447
   58MOL0     H 7608   4.803   3.186   4.283  2.1514 -0.9639  2.7415
   58MOL0     H 7609   4.653   3.470   4.510 -0.5453 -1.2310  0.8476
   58MOL0     H 7610   4.322   3.577   4.355 -1.9631 -1.0621  0.2853
   58MOL0     H 7611   4.449   3.612   4.468  0.5138 -0.7105  0.4570
   58MOL0     H 7612   4.334   3.466   4.632  1.2458  2.0336  0.5050
   58MOL0     H 7613   4.207   3.418   4.498  1.3977  0.3880 -1.9951
   58MOL0     H 7614   4.242   3.693   4.594  1.2294 -1.4484  0.3111
   58MOL0     H 7615   4.116   3.623   4.492  0.4931  2.8790  0.0745
   58MOL0     H 7616   4.172   3.529   4.781 -1.5331  0.2563  1.8777
   58MOL0     H 7617   4.032   3.476   4.702 -1.7202  1.9660  1.0751
   58MOL0     H 7618   3.858   3.869   4.756 -0.9088 -0.5529 -0.3007
   58MOL0     H 7619   3.631   3.871   4.870 -1.0211 -1.8719 -0.6438
   58MOL0     H 7620   3.243   3.914   4.771 -3.1474  2.8117 -0.4543
   58MOL0     H 7621   2.999   3.922   4.819  0.3268 -2.1819 -3.0273
   58MOL0     H 7622   2.837   3.661   5.155  1.5779  1.9632  0.4367
   58MOL0     H 7623   2.851   3.586   4.995 -3.4571 -1.7477  0.2001
   58MOL0     H 7624   2.627   3.541   5.044  1.2590 -0.0310  3.6017
   58MOL0     H 7625   2.624   3.667   4.919 -1.7944 -1.3461  0.5083
   58MOL0     H 7626   2.619   3.847   5.111  2.5556  0.8373  2.3190
   58MOL0     H 7627   2.618   3.725   5.223 -1.9918  2.3087  1.0386
   58MOL0     H 7628   2.391   3.759   5.007 -1.6431  1.4445  1.8307
   58MOL0     H 7629   2.414   3.624   5.116 -0.8857 -0.2471 -0.9110
   58MOL0     H 7630   2.352   3.919   5.206  0.3992 -0.1690 -2.4985
   58MOL0     H 7631   2.383   3.777   5.310  0.9768 -3.1692 -1.3652
   58MOL0     H 7632   2.217   3.651   5.235  0.8630 -0.3402 -1.4416
   58MOL0     H 7633   2.138   3.772   5.128  0.8341  4.3242 -0.4743
   58MOL0     H 7634   2.073   3.914   5.292  1.6170  0.4276 -1.1292
   58MOL0     H 7635   2.013   3.755   5.345  1.2261 -1.3186  3.2599
   58MOL0     H 7636   2.115   3.904   5.533  1.7365  0.0515  2.3751
   58MOL0     H 7637   2.267   3.870   5.465  0.9565 -2.9855  0.0145
   58MOL0     H 7638   3.046   3.665   5.152 -0.1611 -2.8125 -1.7899
   58MOL0     H 7639   3.292   3.658   5.097 -0.0982 -1.3466 -1.8810
   58MOL0     H 7640   3.678   3.445   4.949 -3.2717  1.0880  2.2913
   58MOL0     H 7641   3.906   3.457   4.881  1.2335  1.1024  0.7178
   58MOL0     H 7642   5.655   3.321   3.860 -3.1608  0.9237  1.5811
   58MOL0     H 7643   5.921   3.284   3.864 -1.9124 -1.5345 -0.4883
   58MOL0     H 7644   6.291   3.333   3.890 -1.8472 -0.5672  1.4117
   58MOL0     H 7645   6.539   3.281   3.876 -0.9673  2.4516 -1.5541
   58MOL0     H 7646   6.763   3.274   3.875  2.7252 -0.6946 -0.3923
   58MOL0     H 7647   6.697   3.146   3.980 -1.5117  0.4357  0.5824
   58MOL0     H 7648   6.955   3.318   4.017 -2.2497  1.1112  2.9347
   58MOL0     H 7649   6.904   3.181   4.124 -2.0030 -3.8073 -1.9458
   58MOL0     H 7650   6.943   3.025   3.900  1.0814  0.0979 -0.2562
   58MOL0     H 7651   7.081   3.066   3.997  0.5031  1.3957  0.1251
   58MOL0     H 7652   7.007   3.255   3.768  1.7417  3.9805  3.4318
   58MOL0     H 7653   7.145   3.247   3.869  0.1150 -0.2696 -0.5391
   58MOL0     H 7654   7.221   2.928   3.591 -1.7374 -1.1044 -0.1495
   58MOL0     H 7655   6.598   3.476   4.245  0.1149 -0.0489 -0.9938
   58MOL0     H 7656   6.355   3.527   4.266  1.1907 -1.8454  1.7403
   59MOL0     O 7657   9.454   0.082  10.723  0.1052 -0.2822 -0.4701
   59MOL0     C 7658   9.525   0.121  10.814 -0.1276 -0.0568 -0.2567
   59MOL0     O 7659   9.654   0.077  10.847  0.4691 -0.9978 -0.3336
   59MOL0     C 7660   9.718  -0.025  10.781 -0.2156 -0.1620 -0.1269
   59MOL0     C 7661   9.858  -0.010  10.791  0.2643  0.6106  0.0940
   59MOL0     C 7662   9.937  -0.117  10.747  0.3766  0.2568  0.6021
   59MOL0     C 7663   9.882  -0.231  10.679  0.2091 -0.8118  0.6917
   59MOL0     O 7664   9.949  -0.339  10.625  0.9529 -0.7486  0.5548
   59MOL0     C 7665  10.091  -0.327  10.603 -0.1812 -0.8808  0.6515
   59MOL0     C 7666  10.165  -0.355  10.731 -0.7942  0.6554 -1.2226
   59MOL0     C 7667  10.126  -0.488  10.801  0.0989  0.0323  0.3882
   59MOL0     C 7668  10.007  -0.476  10.900 -0.5588  0.7464  0.0223
   59MOL0     C 7669   9.910  -0.594  10.906  0.2951 -0.0130 -0.8020
   59MOL0     C 7670   9.831  -0.592  11.036 -0.0983  0.6344 -0.1827
   59MOL0     C 7671   9.753  -0.725  11.055 -0.1438  0.1079 -0.4740
   59MOL0     C 7672   9.684  -0.739  11.197  0.0997  1.1352  0.4686
   59MOL0     N 7673   9.563  -0.832  11.169 -0.8531 -0.4653 -0.3309
   59MOL0     C 7674   9.441  -0.787  11.113 -0.3917  0.2034  0.3639
   59MOL0     C 7675   9.357  -0.883  11.146  0.6716  0.8069  0.5756
   59MOL0     C 7676   9.212  -0.899  11.092 -0.1141  0.6412  0.0271
   59MOL0     C 7677   9.101  -0.845  11.184 -0.7613 -0.2084 -0.3781
   59MOL0     C 7678   9.087  -0.696  11.163 -0.0505 -0.3654 -0.3905
   59MOL0     C 7679   8.968  -0.637  11.244  0.2351 -0.2595  0.2918
   59MOL0     O 7680   8.948  -0.498  11.207  0.2969 -0.2365  0.1817
   59MOL0     C 7681   8.887  -0.467  11.095  0.3745  0.2137  0.0071
   59MOL0     C 7682   8.947  -0.362  11.019 -0.0976 -0.6378  0.0397
   59MOL0     C 7683   8.895  -0.331  10.888 -0.1189  0.3079  0.0246
   59MOL0     C 7684   8.784  -0.407  10.831 -1.0545  0.1852 -1.0424
   59MOL0     C 7685   8.737  -0.383  10.697 -0.1694  0.4368 -0.2670
   59MOL0     O 7686   8.796  -0.292  10.617 -0.3757  0.2563 -0.4732
   59MOL0     C 7687   8.762  -0.265  10.499  0.1015 -0.1507  0.4663
   59MOL0     C 7688   8.745  -0.349  10.387 -0.7377 -0.0740 -0.3285
   59MOL0     C 7689   8.725  -0.300  10.253  0.0665  0.3992 -0.1211
   59MOL0     C 7690   8.719  -0.166  10.233 -0.0442  0.2080  0.0013
   59MOL0     O 7691   8.696  -0.141  10.097 -0.2628 -0.1939 -1.3422
   59MOL0     C 7692   8.785  -0.051  10.040 -0.6605 -0.9653 -0.5312
   59MOL0     C 7693   8.736  -0.007   9.899  1.1496 -0.1585 -0.3547
   59MOL0     C 7694   8.591   0.021   9.890  0.0610 -0.3462  0.4845
   59MOL0     C 7695   8.537   0.139   9.970 -0.4605 -0.4287 -0.1685
   59MOL0     C 7696   8.622   0.271   9.972  0.8351  0.8659  0.0218
   59MOL0     C 7697   8.565   0.367  10.081  0.3508  0.3033  0.0376
   59MOL0     C 7698   8.428   0.425  10.050 -0.2863  0.7730  0.8131
   59MOL0     C 7699   8.417   0.480   9.910  0.3385  0.6308  0.3257
   59MOL0    Cl 7700   8.283   0.594   9.881  0.3866 -0.5127 -0.0152
   59MOL0     C 7701   8.733  -0.077  10.345 -0.5286  0.0118  0.4736
   59MOL0     C 7702   8.762  -0.128  10.473  0.1725 -0.0235 -0.9341
   59MOL0     O 7703   8.640  -0.451  10.660 -0.3184 -0.2378  0.3750
   59MOL0     C 7704   8.725  -0.506  10.911  0.3220 -0.1833 -0.2453
   59MOL0     C 7705   8.777  -0.540  11.039  0.5183  0.0362 -1.0010
   59MOL0     N 7706   9.415  -0.984  11.221  0.1975 -0.9404  0.5871
   59MOL0     N 7707   9.538  -0.949  11.236  0.0930 -0.2262  0.7129
   59MOL0     C 7708   9.741  -0.239  10.683 -0.6139  0.1198 -0.2625
   59MOL0     C 7709   9.661  -0.139  10.723  0.1116  0.2225  0.1993
   59MOL0     C 7710   9.482   0.239  10.891 -0.3255 -1.0665  0.2637
   59MOL0     C 7711   9.550   0.292  11.002 -0.1261  0.0774 -0.0021
   59MOL0     C 7712   9.510   0.423  11.048 -0.0615  0.6713 -0.0175
   59MOL0     C 7713   9.409   0.502  10.985 -0.9434 -0.2263 -0.1052
   59MOL0     O 7714   9.382   0.627  11.049  0.0655 -0.3598 -0.3059
   59MOL0     C 7715   9.270   0.709  11.003 -1.5981  0.5110  0.2123
   59MOL0     C 7716   9.152   0.666  11.084  0.4123  0.0478 -0.3919
   59MOL0     C 7717   9.035   0.761  11.048  0.2542  0.7735  0.2741
   59MOL0     C 7718   8.903   0.714  11.095  0.6721  0.3579  0.1167
   59MOL0     C 7719   8.872   0.575  11.042 -0.2579  0.3961 -0.3020
   59MOL0     C 7720   8.855   0.456  11.006  0.3233 -0.6615  0.6559
   59MOL0     C 7721   9.342   0.442  10.876  0.4898 -0.4298 -0.7549
   59MOL0     C 7722   9.387   0.319  10.824 -0.2483  0.5806  0.5056
   59MOL0     H 7723   9.890   0.079  10.843  1.9822  0.9203 -1.3862
   59MOL0     H 7724  10.045  -0.100  10.750  0.4468 -0.0893  0.1744
   59MOL0     H 7725  10.126  -0.228  10.572 -2.6927  0.5651  2.1093
   59MOL0     H 7726  10.126  -0.402  10.531 -0.9619  1.3346 -2.2333
   59MOL0     H 7727  10.145  -0.278  10.807  2.1990  0.8657 -0.5047
   59MOL0     H 7728  10.274  -0.351  10.719 -0.5651  0.5710  0.4750
   59MOL0     H 7729  10.214  -0.529  10.852  0.0332 -1.2720 -0.4989
   59MOL0     H 7730  10.102  -0.554  10.717 -2.3815  3.2663 -1.6628
   59MOL0     H 7731  10.055  -0.466  10.998 -0.1395  1.1113 -0.2193
   59MOL0     H 7732   9.941  -0.392  10.874  1.9001  2.1027 -2.3312
   59MOL0     H 7733   9.963  -0.685  10.875  0.2226  0.0041 -0.9800
   59MOL0     H 7734   9.837  -0.579  10.826 -1.3965  3.4136  1.2088
   59MOL0     H 7735   9.763  -0.506  11.033  1.3655  1.8863  1.0113
   59MOL0     H 7736   9.890  -0.579  11.126 -2.3051 -1.0335  1.6165
   59MOL0     H 7737   9.685  -0.743  10.971 -2.1868  3.9486  0.1215
   59MOL0     H 7738   9.810  -0.818  11.044  0.5143  0.2305  1.5718
   59MOL0     H 7739   9.649  -0.638  11.223  3.5769  3.4480 -2.7135
   59MOL0     H 7740   9.751  -0.772  11.278  0.0143  1.2838  0.6013
   59MOL0     H 7741   9.421  -0.692  11.064 -0.4755 -0.2666 -0.5281
   59MOL0     H 7742   9.184  -1.001  11.064  0.0017  0.6395 -0.0869
   59MOL0     H 7743   9.207  -0.849  10.994  3.1096 -0.0867 -0.6416
   59MOL0     H 7744   9.127  -0.883  11.283  1.7188  0.6422 -0.6345
   59MOL0     H 7745   9.005  -0.888  11.155 -2.6135  2.6897  1.0541
   59MOL0     H 7746   9.174  -0.638  11.195 -0.2175 -2.1019  3.7758
   59MOL0     H 7747   9.061  -0.684  11.057 -1.7615  0.1829  0.0464
   59MOL0     H 7748   9.002  -0.627  11.347  2.1998 -1.2687 -0.2002
   59MOL0     H 7749   8.878  -0.699  11.237  0.9298 -1.1183 -2.8352
   59MOL0     H 7750   9.034  -0.308  11.056 -0.1474 -0.4427 -0.1229
   59MOL0     H 7751   8.950  -0.259  10.829  0.5088 -0.3282 -0.1860
   59MOL0     H 7752   8.752  -0.454  10.413  0.9297 -0.0921 -0.7144
   59MOL0     H 7753   8.716  -0.359  10.162  1.3372  0.9380 -0.6178
   59MOL0     H 7754   8.885  -0.095  10.046 -0.6270 -0.7001  1.5045
   59MOL0     H 7755   8.800   0.039  10.100 -0.2672 -1.0527 -0.4973
   59MOL0     H 7756   8.745  -0.091   9.828 -0.5316 -1.8943  1.3684
   59MOL0     H 7757   8.792   0.080   9.862 -1.0787  1.5524  0.1286
   59MOL0     H 7758   8.530  -0.066   9.917  0.5919 -0.9309 -0.1486
   59MOL0     H 7759   8.564   0.049   9.787 -1.6631  0.8962  1.2223
   59MOL0     H 7760   8.437   0.164   9.931 -1.1974  0.7211  2.2535
   59MOL0     H 7761   8.525   0.111  10.075 -1.9853  1.0853  0.1109
   59MOL0     H 7762   8.629   0.314   9.872  1.7540  1.2310  0.2340
   59MOL0     H 7763   8.729   0.261   9.992  1.6058  3.8793 -1.9149
   59MOL0     H 7764   8.636   0.450  10.097  1.8938 -0.7954 -0.8311
   59MOL0     H 7765   8.560   0.323  10.181  2.4567 -1.2742 -0.4841
   59MOL0     H 7766   8.358   0.344  10.069  1.1931 -1.9249 -3.7084
   59MOL0     H 7767   8.412   0.508  10.120 -1.4535  1.9646 -0.7782
   59MOL0     H 7768   8.411   0.399   9.837  0.0245  1.6190 -0.7804
   59MOL0     H 7769   8.508   0.536   9.885 -0.0346  0.7267 -0.8617
   59MOL0     H 7770   8.719   0.030  10.334 -3.7850 -0.1720  1.6888
   59MOL0     H 7771   8.783  -0.056  10.552 -0.4584 -2.9548  2.1192
   59MOL0     H 7772   8.645  -0.569  10.874 -0.2660 -0.4481  1.3932
   59MOL0     H 7773   8.727  -0.625  11.083  2.5606 -2.0198 -2.4079
   59MOL0     H 7774   9.690  -0.324  10.640 -1.7994  0.9570 -0.5695
   59MOL0     H 7775   9.552  -0.140  10.728  0.1024  0.1804 -0.0332
   59MOL0     H 7776   9.632   0.233  11.042  0.1549 -0.0175 -0.6963
   59MOL0     H 7777   9.562   0.451  11.139  3.1429  1.6633 -1.9858
   59MOL0     H 7778   9.242   0.669  10.905 -4.0531 -2.7049  1.9936
   59MOL0     H 7779   9.292   0.815  11.013 -0.9983  0.4324 -0.2136
   59MOL0     H 7780   9.138   0.561  11.058  0.4963 -1.7843  5.5235
   59MOL0     H 7781   9.162   0.658  11.193 -2.0187  1.1331 -0.0157
   59MOL0     H 7782   9.027   0.780  10.941 -1.8102  0.9601  0.4278
   59MOL0     H 7783   9.064   0.858  11.090 -1.0276  0.7412  1.3200
   59MOL0     H 7784   8.909   0.702  11.204  2.3542 -1.0721 -0.0996
   59MOL0     H 7785   8.826   0.784  11.061 -1.7427 -2.1694  0.0550
   59MOL0     H 7786   8.852   0.350  10.999  0.0687 -0.6749  0.9604
   59MOL0     H 7787   9.268   0.495  10.816  1.0934  2.1234  0.5960
   59MOL0     H 7788   9.333   0.286  10.736  1.6635 -0.1740 -0.4448
   60MOL0     O 7789   3.974  10.518   7.736 -0.4499 -0.6334 -0.3202
   60MOL0     C 7790   3.954  10.407   7.770 -0.9267  0.3333 -0.3830
   60MOL0     O 7791   4.048  10.317   7.782 -0.0015  0.0161 -0.8506
   60MOL0     C 7792   4.184  10.341   7.751  1.3051  0.0166  0.1789
   60MOL0     C 7793   4.262  10.266   7.665 -0.4318  0.7082  0.0085
   60MOL0     C 7794   4.398  10.294   7.652  0.5616  0.3407  0.4545
   60MOL0     C 7795   4.463  10.411   7.705 -0.7791 -0.3925 -0.3224
   60MOL0     O 7796   4.596  10.455   7.694 -0.1009 -0.2698  0.6442
   60MOL0     C 7797   4.683  10.381   7.613  0.5816 -0.1976  0.2508
   60MOL0     C 7798   4.819  10.445   7.616 -0.4643  0.1662  0.0975
   60MOL0     C 7799   4.897  10.397   7.485  0.7775  0.4944  0.4799
   60MOL0     C 7800   5.032  10.454   7.468 -0.4401 -0.3996  0.7131
   60MOL0     C 7801   5.120  10.390   7.365  0.7286  0.6995  0.1348
   60MOL0     C 7802   5.162  10.253   7.405  0.5873 -0.0392  0.7154
   60MOL0     C 7803   5.287  10.257   7.490 -0.3184  0.4149 -0.8375
   60MOL0     C 7804   5.351  10.117   7.526  0.3171 -0.2232  0.0166
   60MOL0     N 7805   5.503  10.111   7.518  1.3714  0.3351  0.0377
   60MOL0     C 7806   5.585  10.201   7.579  1.1405  0.1323  0.1501
   60MOL0     C 7807   5.701  10.136   7.584 -0.3466  0.0757  0.6035
   60MOL0     C 7808   5.815  10.186   7.654  0.2400 -0.0792 -0.1468
   60MOL0     C 7809   5.914  10.251   7.553 -0.3348 -0.0505 -0.1341
   60MOL0     C 7810   6.020  10.328   7.622 -0.2356  1.0136  0.4109
   60MOL0     C 7811   6.125  10.378   7.514  0.2051 -0.4520 -0.3754
   60MOL0     O 7812   6.217  10.461   7.594  0.3065  0.2813 -0.0063
   60MOL0     C 7813   6.348  10.454   7.569  0.4065  0.5448  0.3591
   60MOL0     C 7814   6.441  10.453   7.672  0.1634 -1.0867 -0.2001
   60MOL0     C 7815   6.576  10.440   7.654 -0.1684 -0.5296 -0.7234
   60MOL0     C 7816   6.634  10.437   7.525 -0.9836  0.8874  0.4100
   60MOL0     C 7817   6.779  10.437   7.490 -0.4774  0.1153 -0.1642
   60MOL0     O 7818   6.805  10.482   7.362 -0.2273  0.1352 -0.3728
   60MOL0     C 7819   6.939  10.530   7.341  0.0233 -0.5612  0.5453
   60MOL0     C 7820   7.040  10.446   7.324 -1.3066 -0.1328  0.2262
   60MOL0     C 7821   7.176  10.496   7.312  0.4519  0.9951 -0.1846
   60MOL0     C 7822   7.202  10.633   7.306 -0.2107  0.0429 -0.1842
   60MOL0     O 7823   7.334  10.683   7.277  0.9895 -0.7485 -0.0322
   60MOL0     C 7824   7.372  10.817   7.317  0.0477  0.5794  0.7429
   60MOL0     C 7825   7.522  10.820   7.300 -0.1866  0.5086  0.4550
   60MOL0     C 7826   7.585  10.959   7.297  0.2897 -0.7691 -0.7634
   60MOL0     C 7827   7.733  10.949   7.301  0.9402  0.0027 -0.2546
   60MOL0     C 7828   7.799  10.909   7.177 -0.2268  0.8738 -0.6475
   60MOL0     C 7829   7.951  10.889   7.196  0.4550 -0.4303 -0.9531
   60MOL0     C 7830   8.025  10.878   7.052  0.1153  0.8589  0.0055
   60MOL0     C 7831   8.114  10.996   7.006 -0.5121 -0.5983  0.0228
   60MOL0    Cl 7832   8.161  11.000   6.830  0.1871  0.3627  0.6835
   60MOL0     C 7833   7.086  10.716   7.298  0.2443 -0.3867  0.7615
   60MOL0     C 7834   6.959  10.668   7.326 -0.2042 -0.4978 -0.8976
   60MOL0     O 7835   6.859  10.424   7.580 -0.0230 -0.7946  0.1487
   60MOL0     C 7836   6.540  10.441   7.421  0.3338 -0.1673  0.5387
   60MOL0     C 7837   6.398  10.429   7.440  0.4361 -0.1195 -0.3710
   60MOL0     N 7838   5.687  10.022   7.510 -0.6777  0.0233  0.3409
   60MOL0     N 7839   5.564  10.008   7.471  0.1001  0.6049  0.6408
   60MOL0     C 7840   4.374  10.487   7.792  0.2985 -0.1055 -0.9054
   60MOL0     C 7841   4.248  10.445   7.817  0.8300 -0.2188 -0.3040
   60MOL0     C 7842   3.821  10.352   7.803 -0.3400 -0.3750 -0.9754
   60MOL0     C 7843   3.806  10.216   7.846 -0.1668  0.1630  0.5194
   60MOL0     C 7844   3.674  10.164   7.866 -0.2000 -0.3091 -0.2177
   60MOL0     C 7845   3.563  10.239   7.828  0.1704  0.4126 -0.0758
   60MOL0     O 7846   3.435  10.194   7.837 -0.4539  1.1313  0.3220
   60MOL0     C 7847   3.394  10.111   7.733  0.0060 -0.2936  0.3610
   60MOL0     C 7848   3.381  10.180   7.599  0.3995 -0.0177 -0.1148
   60MOL0     C 7849   3.272  10.297   7.615 -0.2518  0.3593  0.4494
   60MOL0     C 7850   3.260  10.395   7.496  0.1097 -0.1862 -0.0455
   60MOL0     C 7851   3.372  10.492   7.493 -0.4303 -0.4529  0.6147
   60MOL0     C 7852   3.465  10.569   7.460 -1.0400  0.1427  0.0874
   60MOL0     C 7853   3.581  10.370   7.788  1.6704 -0.0806  0.4777
   60MOL0     C 7854   3.711  10.426   7.782  0.4010  0.7146  0.5113
   60MOL0     H 7855   4.216  10.179   7.619  0.4775 -0.7200  1.6847
   60MOL0     H 7856   4.448  10.215   7.597  0.4027 -1.4755  2.7894
   60MOL0     H 7857   4.640  10.409   7.516 -1.3781  1.2094  1.4620
   60MOL0     H 7858   4.680  10.273   7.627 -0.5361 -0.1262  0.6546
   60MOL0     H 7859   4.872  10.420   7.708 -0.5884  4.3663  1.5223
   60MOL0     H 7860   4.808  10.554   7.610  2.8848  0.5421 -1.3956
   60MOL0     H 7861   4.842  10.417   7.393  1.5644 -0.6128 -0.2459
   60MOL0     H 7862   4.905  10.289   7.500 -0.7533 -0.0189 -1.9173
   60MOL0     H 7863   5.017  10.554   7.426  2.7187 -0.9080 -2.0687
   60MOL0     H 7864   5.083  10.445   7.564  0.7339  0.1082  0.1506
   60MOL0     H 7865   5.203  10.453   7.332 -0.4637  1.3963 -1.6354
   60MOL0     H 7866   5.063  10.371   7.273  1.4656  0.0969 -0.2108
   60MOL0     H 7867   5.192  10.202   7.313  0.3079  0.9295  0.0787
   60MOL0     H 7868   5.083  10.191   7.450 -0.2318  2.0368  2.3029
   60MOL0     H 7869   5.366  10.322   7.451  1.3588 -0.8998  0.1728
   60MOL0     H 7870   5.264  10.300   7.588  2.8057 -1.3429  0.8433
   60MOL0     H 7871   5.300  10.051   7.455  1.0732  1.0962 -1.8080
   60MOL0     H 7872   5.321  10.081   7.625  0.5142  0.5122  0.3453
   60MOL0     H 7873   5.560  10.299   7.620  3.1502  0.7239  0.0771
   60MOL0     H 7874   5.865  10.105   7.708 -0.3225  0.0707  0.6158
   60MOL0     H 7875   5.793  10.260   7.732 -1.3334 -2.1439  1.4724
   60MOL0     H 7876   5.866  10.330   7.494  2.8922  1.6361 -0.6808
   60MOL0     H 7877   5.957  10.171   7.492  2.3996  2.1027 -1.2360
   60MOL0     H 7878   5.966  10.416   7.658 -1.5415  0.1736  0.5331
   60MOL0     H 7879   6.068  10.265   7.697 -1.2286 -0.6903 -0.3296
   60MOL0     H 7880   6.081  10.440   7.435 -1.3292 -0.6118  0.3365
   60MOL0     H 7881   6.191  10.295   7.486  1.0083 -0.6499  1.9200
   60MOL0     H 7882   6.406  10.466   7.774  0.0187 -4.1674  0.2325
   60MOL0     H 7883   6.646  10.443   7.737 -0.9061  1.5965 -0.1093
   60MOL0     H 7884   7.034  10.341   7.351 -0.5548 -0.0514  0.7115
   60MOL0     H 7885   7.266  10.435   7.306  0.1300  0.4551 -5.9735
   60MOL0     H 7886   7.340  10.825   7.421  0.2907  0.2063  0.8468
   60MOL0     H 7887   7.340  10.902   7.255  0.9300  0.4727  0.1258
   60MOL0     H 7888   7.536  10.767   7.205 -1.2886  0.4513  0.3118
   60MOL0     H 7889   7.567  10.760   7.380  1.1798  3.7057  2.2794
   60MOL0     H 7890   7.556  11.022   7.381 -2.9105  2.2582 -3.7827
   60MOL0     H 7891   7.554  11.003   7.202 -1.1945 -1.6811 -0.7374
   60MOL0     H 7892   7.766  11.052   7.314 -0.9244  0.4155  1.8548
   60MOL0     H 7893   7.767  10.881   7.380 -0.2784  1.8803  2.0023
   60MOL0     H 7894   7.780  10.987   7.103 -0.8965  0.3104 -1.0823
   60MOL0     H 7895   7.761  10.815   7.135  2.2763 -0.2403 -0.6180
   60MOL0     H 7896   7.964  10.796   7.251 -3.2696  0.3536  1.5772
   60MOL0     H 7897   7.999  10.969   7.253 -2.6809  1.7561 -1.1475
   60MOL0     H 7898   8.087  10.787   7.054  1.1531  1.5596  1.2205
   60MOL0     H 7899   7.961  10.846   6.969 -0.1691 -2.1801  1.2781
   60MOL0     H 7900   8.206  10.985   7.064  0.8894 -2.7408 -2.3591
   60MOL0     H 7901   8.073  11.096   7.022  1.8346  0.4991 -0.3931
   60MOL0     H 7902   7.105  10.821   7.275  5.0868 -1.0811  0.4291
   60MOL0     H 7903   6.871  10.732   7.326 -1.5453 -2.2598 -1.7334
   60MOL0     H 7904   6.573  10.427   7.318 -1.1646  2.1038 -0.3389
   60MOL0     H 7905   6.334  10.411   7.355 -0.1022  1.3033 -0.2985
   60MOL0     H 7906   4.420  10.575   7.835 -2.0529  0.1080  1.4098
   60MOL0     H 7907   4.184  10.508   7.878  0.1630  1.1083 -2.2905
   60MOL0     H 7908   3.887  10.145   7.855  1.5859  2.2495  2.4949
   60MOL0     H 7909   3.646  10.065   7.902 -0.6293 -0.5264 -1.1076
   60MOL0     H 7910   3.292  10.082   7.761 -0.7131  0.3536 -1.4945
   60MOL0     H 7911   3.470  10.036   7.709  1.7962  1.8684 -1.1490
   60MOL0     H 7912   3.480  10.215   7.566  0.2902  0.4358  0.0247
   60MOL0     H 7913   3.336  10.108   7.530  1.9305 -0.3969 -0.7593
   60MOL0     H 7914   3.291  10.362   7.701  1.6370  1.3146 -0.6259
   60MOL0     H 7915   3.174  10.251   7.631 -0.1555  0.0224  0.0979
   60MOL0     H 7916   3.263  10.333   7.406 -0.3291  0.3446 -0.4307
   60MOL0     H 7917   3.159  10.437   7.491 -0.3469 -0.8314  2.4157
   60MOL0     H 7918   3.532  10.647   7.432 -1.9788  2.1259  2.9536
   60MOL0     H 7919   3.498  10.428   7.749  1.4148 -1.6778 -1.4839
   60MOL0     H 7920   3.714  10.530   7.750 -0.4012  0.3406 -0.9023
   61MOL0     O 7921   1.261   6.081   9.275  0.0364  0.3349  0.2507
   61MOL0     C 7922   1.226   6.162   9.195 -0.4092 -0.0928 -0.0775
   61MOL0     O 7923   1.101   6.163   9.140  0.5950 -0.8328 -0.9028
   61MOL0     C 7924   1.007   6.080   9.192 -0.3835 -0.4854  0.0585
   61MOL0     C 7925   0.917   6.134   9.278  0.4396 -0.3695 -0.1127
   61MOL0     C 7926   0.812   6.056   9.335  0.5842 -0.7536  1.0550
   61MOL0     C 7927   0.810   5.920   9.310  0.7548  0.2455  0.2314
   61MOL0     O 7928   0.730   5.821   9.366  0.3771 -0.0109  0.0021
   61MOL0     C 7929   0.604   5.860   9.423  0.9339 -0.2224  0.1772
   61MOL0     C 7930   0.538   5.731   9.467  1.3378 -0.4655  1.3759
   61MOL0     C 7931   0.389   5.772   9.513 -1.4952  0.2303  0.1461
   61MOL0     C 7932   0.330   5.650   9.579  0.8269  0.8701 -0.9042
   61MOL0     C 7933   0.198   5.676   9.650  0.2512  0.5400  0.5436
   61MOL0     C 7934   0.125   5.545   9.690  0.5778 -0.0023  0.8615
   61MOL0     C 7935   0.108   5.443   9.568 -0.6380 -0.6726 -0.2635
   61MOL0     C 7936  -0.008   5.356   9.604 -0.8074  0.6732 -0.0008
   61MOL0     N 7937  -0.128   5.377   9.526 -0.5946  0.2297 -0.6825
   61MOL0     C 7938  -0.124   5.370   9.395 -0.6343 -0.0598 -0.0473
   61MOL0     C 7939  -0.248   5.424   9.359 -0.1058  0.5380 -0.1821
   61MOL0     C 7940  -0.297   5.444   9.220 -0.4746  0.2740 -0.5231
   61MOL0     C 7941  -0.421   5.365   9.194  0.8715  0.1402 -0.4666
   61MOL0     C 7942  -0.394   5.216   9.180  0.9367  0.7310  0.8745
   61MOL0     C 7943  -0.534   5.144   9.170 -0.1974 -0.4586  0.7527
   61MOL0     O 7944  -0.570   5.164   9.034  0.2089  0.8285 -0.0900
   61MOL0     C 7945  -0.702   5.163   8.993 -0.7934 -0.7173 -0.4782
   61MOL0     C 7946  -0.815   5.178   9.069 -0.8923 -0.3608 -0.2544
   61MOL0     C 7947  -0.941   5.189   9.009  1.2328  0.8848 -0.0031
   61MOL0     C 7948  -0.970   5.165   8.870  0.8190 -0.0579 -0.4015
   61MOL0     C 7949  -1.108   5.164   8.808 -0.1242 -1.0788  0.8624
   61MOL0     O 7950  -1.212   5.133   8.898 -0.2843  0.1814 -0.2594
   61MOL0     C 7951  -1.331   5.100   8.845  0.4281  0.0277  1.1655
   61MOL0     C 7952  -1.391   4.982   8.878  1.0523  0.6362 -0.8406
   61MOL0     C 7953  -1.524   4.955   8.842  0.0590  0.2357 -0.2088
   61MOL0     C 7954  -1.596   5.049   8.761  0.4701  0.0758 -0.8889
   61MOL0     O 7955  -1.722   5.039   8.708  0.6194  0.5507  0.4911
   61MOL0     C 7956  -1.812   4.997   8.808  0.6717  0.7864  0.0998
   61MOL0     C 7957  -1.891   5.118   8.850 -0.0950  0.0319 -0.8373
   61MOL0     C 7958  -2.001   5.084   8.953  0.0563 -0.5937 -0.1613
   61MOL0     C 7959  -2.064   5.224   8.966 -0.1322 -0.8497  1.0537
   61MOL0     C 7960  -2.149   5.234   9.095  0.7282  0.7517  0.0190
   61MOL0     C 7961  -2.239   5.358   9.096  0.3499 -0.6395 -0.2871
   61MOL0     C 7962  -2.369   5.352   9.008  0.5032 -0.1743  0.1736
   61MOL0     C 7963  -2.460   5.482   9.024 -0.0623  0.7947  0.5480
   61MOL0    Cl 7964  -2.619   5.429   8.949  0.1938  0.2411 -0.0909
   61MOL0     C 7965  -1.529   5.169   8.723 -0.9024  0.0346 -0.0717
   61MOL0     C 7966  -1.400   5.194   8.776  0.4436  0.2472  0.0283
   61MOL0     O 7967  -1.115   5.181   8.690  0.8143  0.1117  0.3602
   61MOL0     C 7968  -0.851   5.149   8.797 -0.5529  0.9606 -0.8782
   61MOL0     C 7969  -0.719   5.146   8.855 -0.0213  0.0283  0.0270
   61MOL0     N 7970  -0.321   5.426   9.478 -0.6857 -0.5495 -0.8651
   61MOL0     N 7971  -0.243   5.417   9.585  0.7142  0.6390  0.6056
   61MOL0     C 7972   0.914   5.872   9.234  0.4072  0.8225  0.5860
   61MOL0     C 7973   1.001   5.946   9.163 -0.2273 -1.1317  0.4101
   61MOL0     C 7974   1.322   6.272   9.175  0.5539  0.3614  0.0503
   61MOL0     C 7975   1.451   6.279   9.242  0.1419  0.9998 -0.2601
   61MOL0     C 7976   1.530   6.391   9.228 -0.4808 -0.1545 -0.2099
   61MOL0     C 7977   1.493   6.501   9.151 -0.1375 -0.7071 -0.6453
   61MOL0     O 7978   1.569   6.616   9.156 -0.6470 -0.4827  0.0745
   61MOL0     C 7979   1.654   6.636   9.048  0.1503 -0.4935  0.8655
   61MOL0     C 7980   1.812   6.627   9.079  0.8720  0.2561 -0.7708
   61MOL0     C 7981   1.876   6.503   9.028 -0.3111  0.3363  0.2436
   61MOL0     C 7982   2.016   6.461   9.103  1.0830  1.1584  0.4815
   61MOL0     C 7983   1.997   6.417   9.244 -0.0063 -0.0230  0.9737
   61MOL0     C 7984   1.975   6.388   9.362 -0.3064 -0.3148  0.4874
   61MOL0     C 7985   1.372   6.496   9.084 -0.2681  0.6055 -0.5626
   61MOL0     C 7986   1.290   6.386   9.097  0.8522  0.5190 -0.1342
   61MOL0     H 7987   0.917   6.240   9.302 -1.8540 -0.8447  2.5067
   61MOL0     H 7988   0.752   6.100   9.413 -1.5905  0.3814 -1.1028
   61MOL0     H 7989   0.549   5.914   9.345  0.5339  0.6754  1.0524
   61MOL0     H 7990   0.611   5.923   9.512 -1.1186 -1.4893  1.3259
   61MOL0     H 7991   0.598   5.680   9.543  0.2870  0.2259  2.7331
   61MOL0     H 7992   0.540   5.662   9.382  2.4963  1.2797 -0.0938
   61MOL0     H 7993   0.330   5.803   9.427 -2.8350  1.1227  1.3372
   61MOL0     H 7994   0.397   5.856   9.583 -0.3243 -0.3103  0.6981
   61MOL0     H 7995   0.328   5.571   9.503  1.1021 -1.4224  1.3443
   61MOL0     H 7996   0.403   5.598   9.642  1.0856 -0.3431 -2.1573
   61MOL0     H 7997   0.142   5.729   9.573 -0.6056 -0.9060  0.1179
   61MOL0     H 7998   0.198   5.743   9.736 -1.4144  1.3546 -0.0397
   61MOL0     H 7999   0.022   5.575   9.713  1.2070  4.8605 -1.4431
   61MOL0     H 8000   0.176   5.510   9.781  0.9901 -1.1530  0.2055
   61MOL0     H 8001   0.079   5.499   9.478  2.2738 -0.4892 -1.2080
   61MOL0     H 8002   0.194   5.381   9.540  0.4035  0.5628  0.0878
   61MOL0     H 8003  -0.030   5.357   9.712  1.1049 -0.0709  0.4403
   61MOL0     H 8004   0.031   5.255   9.588  1.6979  1.3626  1.2316
   61MOL0     H 8005  -0.047   5.340   9.325  0.4771 -0.2231  1.2001
   61MOL0     H 8006  -0.217   5.417   9.151 -2.2267 -1.8363 -1.8603
   61MOL0     H 8007  -0.325   5.549   9.213  0.4859  0.7122  1.4434
   61MOL0     H 8008  -0.469   5.406   9.104 -0.4459  0.9029  0.5532
   61MOL0     H 8009  -0.498   5.373   9.271 -1.5633 -1.7219 -2.5208
   61MOL0     H 8010  -0.322   5.188   9.103 -1.0165  1.0852 -1.1627
   61MOL0     H 8011  -0.354   5.177   9.275  0.6761 -0.5734  0.4659
   61MOL0     H 8012  -0.601   5.180   9.249  0.4119  0.9804  0.6419
   61MOL0     H 8013  -0.520   5.036   9.180  1.4881 -0.3344  0.1484
   61MOL0     H 8014  -0.815   5.189   9.177 -0.0662 -0.5589 -0.2322
   61MOL0     H 8015  -1.024   5.209   9.076  0.4545  0.2357 -0.7461
   61MOL0     H 8016  -1.340   4.916   8.947  1.6003 -2.1162 -3.6352
   61MOL0     H 8017  -1.568   4.857   8.860  2.7928 -0.9128  0.8561
   61MOL0     H 8018  -1.762   4.951   8.894  0.2338  0.4410  0.1728
   61MOL0     H 8019  -1.883   4.924   8.769  1.5393  0.1819 -0.3741
   61MOL0     H 8020  -1.931   5.175   8.765  1.9972  2.7079 -0.1809
   61MOL0     H 8021  -1.822   5.190   8.896 -0.3655  1.3425 -2.3947
   61MOL0     H 8022  -1.954   5.046   9.043 -0.7435  1.6923  1.3161
   61MOL0     H 8023  -2.078   5.014   8.920 -1.1646  1.3371 -1.6910
   61MOL0     H 8024  -1.988   5.301   8.985  0.4441 -1.1190 -0.0345
   61MOL0     H 8025  -2.122   5.250   8.877  2.1521  2.2930  0.2802
   61MOL0     H 8026  -2.075   5.243   9.174  1.6343  1.2648 -0.8680
   61MOL0     H 8027  -2.219   5.153   9.115  0.6087 -0.0336 -3.0512
   61MOL0     H 8028  -2.183   5.442   9.054 -0.6512 -1.3987 -3.3405
   61MOL0     H 8029  -2.272   5.380   9.198  2.1981 -2.0562  0.6768
   61MOL0     H 8030  -2.328   5.355   8.906  3.9455 -0.7136  1.4036
   61MOL0     H 8031  -2.416   5.256   9.030  0.7270 -0.1124  0.9443
   61MOL0     H 8032  -2.411   5.565   8.973  0.2440 -1.1184 -2.5461
   61MOL0     H 8033  -2.467   5.504   9.131  0.8925  0.1519  0.7575
   61MOL0     H 8034  -1.578   5.241   8.659 -0.1838 -0.1737 -0.8771
   61MOL0     H 8035  -1.358   5.291   8.753  3.6360 -0.9139  0.4567
   61MOL0     H 8036  -0.854   5.126   8.691  1.8199  0.3137 -0.8646
   61MOL0     H 8037  -0.634   5.122   8.791  0.6023 -2.5856  1.6853
   61MOL0     H 8038   0.904   5.765   9.224 -2.7836  1.1164 -0.6634
   61MOL0     H 8039   1.056   5.902   9.081 -0.6282 -1.2129  0.1810
   61MOL0     H 8040   1.485   6.201   9.309  0.1450  0.7283 -0.5747
   61MOL0     H 8041   1.627   6.386   9.275 -0.9206 -2.4356  0.5402
   61MOL0     H 8042   1.618   6.728   9.000 -0.4408 -0.5290  1.2302
   61MOL0     H 8043   1.627   6.560   8.975 -0.0586 -0.1210  0.5523
   61MOL0     H 8044   1.865   6.714   9.040  2.5275  1.0571  2.8338
   61MOL0     H 8045   1.826   6.649   9.185  1.5714  3.8891 -1.4556
   61MOL0     H 8046   1.880   6.517   8.919 -1.3019  0.7551  0.2502
   61MOL0     H 8047   1.806   6.421   9.048 -0.8726  1.1171  1.6386
   61MOL0     H 8048   2.063   6.384   9.041  2.4022  1.9846  0.4313
   61MOL0     H 8049   2.090   6.542   9.103  3.3263 -0.7676 -1.1068
   61MOL0     H 8050   1.951   6.377   9.466 -0.1813  1.6229  0.7594
   61MOL0     H 8051   1.343   6.572   9.013 -0.5091  2.0207  0.9917
   61MOL0     H 8052   1.196   6.375   9.042 -0.4271 -0.3867  2.1040
   62MOL0     O 8053   5.664   4.285   5.366 -0.0240  0.6970 -0.4691
   62MOL0     C 8054   5.658   4.384   5.293  0.5724 -0.0956 -0.0778
   62MOL0     O 8055   5.544   4.462   5.273  0.1780  0.2134 -0.2459
   62MOL0     C 8056   5.434   4.432   5.352 -0.7255 -0.6866  0.1038
   62MOL0     C 8057   5.403   4.503   5.467 -0.5219  0.7464  0.0956
   62MOL0     C 8058   5.290   4.461   5.545 -0.4355 -0.3056 -0.0828
   62MOL0     C 8059   5.220   4.353   5.508  0.4548 -0.3166 -0.2027
   62MOL0     O 8060   5.097   4.319   5.571 -0.3104  0.9332 -0.1314
   62MOL0     C 8061   4.972   4.377   5.537  0.1584 -0.0174  0.4222
   62MOL0     C 8062   4.855   4.321   5.624 -0.7249  0.7863 -0.2575
   62MOL0     C 8063   4.739   4.416   5.626  0.2833 -0.3127 -0.2107
   62MOL0     C 8064   4.615   4.366   5.713 -0.5816  1.0010  1.0362
   62MOL0     C 8065   4.500   4.456   5.716  0.2236 -0.9195  0.5750
   62MOL0     C 8066   4.446   4.498   5.578  0.6872 -1.0042  0.0727
   62MOL0     C 8067   4.314   4.584   5.587  0.6422  1.0675  0.2519
   62MOL0     C 8068   4.272   4.640   5.447 -0.0470  0.3435  0.1253
   62MOL0     N 8069   4.377   4.707   5.368 -0.1247  0.0622 -0.4952
   62MOL0     C 8070   4.471   4.634   5.295  0.2232 -0.0342  0.4693
   62MOL0     C 8071   4.525   4.738   5.223  0.7219 -0.3675 -0.4335
   62MOL0     C 8072   4.616   4.707   5.105  0.2540 -0.5229 -0.2213
   62MOL0     C 8073   4.766   4.708   5.127 -0.2558  0.0150  0.3656
   62MOL0     C 8074   4.834   4.591   5.053 -0.0120 -0.1071 -0.3104
   62MOL0     C 8075   4.983   4.593   5.072  0.7848 -0.1184  0.4643
   62MOL0     O 8076   5.054   4.711   5.022  0.4745  0.0105 -0.2054
   62MOL0     C 8077   5.184   4.701   4.979 -0.1192  1.4732 -0.8769
   62MOL0     C 8078   5.218   4.780   4.870 -0.1361  1.5233 -0.5715
   62MOL0     C 8079   5.350   4.783   4.825 -0.9952 -1.2204 -0.9386
   62MOL0     C 8080   5.451   4.704   4.887 -0.5839 -0.1882  0.2913
   62MOL0     C 8081   5.593   4.716   4.850 -0.0165 -0.2966  0.1848
   62MOL0     O 8082   5.633   4.841   4.807 -0.3163 -0.4411  0.0970
   62MOL0     C 8083   5.758   4.860   4.747  0.2501  0.4267 -0.9221
   62MOL0     C 8084   5.759   4.886   4.612  0.8124 -0.0720 -0.7742
   62MOL0     C 8085   5.881   4.872   4.540  0.3628  0.0880  0.6253
   62MOL0     C 8086   6.010   4.860   4.611 -0.1333  0.6286  0.2633
   62MOL0     O 8087   6.129   4.860   4.555 -0.4296 -0.3034  0.6426
   62MOL0     C 8088   6.134   4.802   4.422  0.0883 -0.3100 -0.1733
   62MOL0     C 8089   6.280   4.768   4.382  0.1083  0.4540 -0.3996
   62MOL0     C 8090   6.325   4.642   4.457 -0.1431 -0.7804  0.9897
   62MOL0     C 8091   6.461   4.586   4.404  0.2122 -0.0243 -0.0830
   62MOL0     C 8092   6.484   4.451   4.464  0.0274 -0.4948 -0.6550
   62MOL0     C 8093   6.631   4.418   4.423  0.7567  0.3418  0.1510
   62MOL0     C 8094   6.738   4.485   4.514  0.1994  0.5149 -0.3779
   62MOL0     C 8095   6.865   4.442   4.456 -0.6741 -0.4331  0.0715
   62MOL0    Cl 8096   6.993   4.491   4.569 -0.2349 -0.2952 -0.0075
   62MOL0     C 8097   6.001   4.863   4.753  0.1900  1.4643 -0.2550
   62MOL0     C 8098   5.878   4.857   4.820  0.9250  0.4698 -0.2444
   62MOL0     O 8099   5.667   4.618   4.865 -0.2543 -0.3780  0.6559
   62MOL0     C 8100   5.414   4.619   4.991  0.4592  0.1768  0.4974
   62MOL0     C 8101   5.286   4.619   5.045  0.0111 -0.1048 -0.3523
   62MOL0     N 8102   4.459   4.862   5.253  0.5597 -0.3632 -0.3683
   62MOL0     N 8103   4.378   4.837   5.344 -0.5232 -0.7523 -0.3724
   62MOL0     C 8104   5.251   4.284   5.391 -0.2764  0.4142  0.0340
   62MOL0     C 8105   5.367   4.315   5.321 -0.0752 -0.2925  0.7300
   62MOL0     C 8106   5.766   4.414   5.208  0.0548 -0.1701 -0.9110
   62MOL0     C 8107   5.782   4.540   5.158  0.8086  0.5430  1.0253
   62MOL0     C 8108   5.893   4.572   5.073  0.3873  0.3696  0.5536
   62MOL0     C 8109   5.994   4.480   5.053 -0.5245  0.4237 -0.5814
   62MOL0     O 8110   6.111   4.503   4.976 -0.6176  0.0691 -0.0899
   62MOL0     C 8111   6.217   4.578   5.028  0.1749 -0.1765 -0.4164
   62MOL0     C 8112   6.310   4.599   4.909 -0.1205  0.5277 -0.4158
   62MOL0     C 8113   6.434   4.691   4.935 -0.4664  0.0456 -0.2246
   62MOL0     C 8114   6.544   4.703   4.824 -0.7426 -1.2774  0.6914
   62MOL0     C 8115   6.632   4.809   4.864 -0.2744  0.3951 -0.3784
   62MOL0     C 8116   6.705   4.897   4.907 -0.6554  0.6142 -0.5611
   62MOL0     C 8117   5.969   4.348   5.090 -0.5768  0.1005 -0.1872
   62MOL0     C 8118   5.861   4.317   5.171 -0.6872  0.2038  0.0154
   62MOL0     H 8119   5.466   4.584   5.502 -1.2502  0.1299  3.1669
   62MOL0     H 8120   5.256   4.529   5.622 -1.4388 -0.1278 -0.6625
   62MOL0     H 8121   4.945   4.373   5.431 -0.9893  0.2718  0.6861
   62MOL0     H 8122   4.975   4.484   5.558 -1.3934 -0.1944  1.7338
   62MOL0     H 8123   4.893   4.305   5.725 -0.5451 -2.7820 -0.7928
   62MOL0     H 8124   4.827   4.226   5.577  2.1599 -0.8713  1.1080
   62MOL0     H 8125   4.718   4.442   5.522  2.1541  5.7472  0.5152
   62MOL0     H 8126   4.759   4.516   5.665  4.4459 -1.2455  0.5573
   62MOL0     H 8127   4.583   4.271   5.670  0.7450 -0.2690  2.7197
   62MOL0     H 8128   4.660   4.350   5.812  1.0877  0.1724  0.1813
   62MOL0     H 8129   4.526   4.541   5.780 -1.7297 -0.1360  0.4045
   62MOL0     H 8130   4.420   4.407   5.771  1.4005 -1.1168  2.1772
   62MOL0     H 8131   4.434   4.403   5.527  0.1158 -0.7011 -0.3630
   62MOL0     H 8132   4.531   4.554   5.537  1.9196 -1.8087  1.4109
   62MOL0     H 8133   4.234   4.522   5.628 -0.2041  1.0627 -1.3444
   62MOL0     H 8134   4.337   4.669   5.653  1.0820 -0.3188  1.9537
   62MOL0     H 8135   4.187   4.708   5.452  0.7887  1.3463  1.8996
   62MOL0     H 8136   4.240   4.550   5.394 -0.9484  1.6365 -1.6083
   62MOL0     H 8137   4.485   4.527   5.295 -2.4152 -0.4564  0.1280
   62MOL0     H 8138   4.586   4.785   5.035  2.0047  1.0936  0.7393
   62MOL0     H 8139   4.583   4.608   5.072 -0.0824 -0.1242 -1.0963
   62MOL0     H 8140   4.800   4.692   5.230  2.8452  2.6737 -0.1024
   62MOL0     H 8141   4.808   4.804   5.097  3.4863 -1.3383  0.6198
   62MOL0     H 8142   4.796   4.497   5.092 -1.4629  0.6285  0.1407
   62MOL0     H 8143   4.811   4.602   4.946 -1.3078  2.0609  0.1119
   62MOL0     H 8144   5.030   4.505   5.028  5.0785  1.8061  0.7056
   62MOL0     H 8145   4.999   4.573   5.178  1.8163  1.7046  0.6991
   62MOL0     H 8146   5.150   4.831   4.801 -0.9129  1.8314  0.4019
   62MOL0     H 8147   5.376   4.829   4.730  0.1930 -0.4138 -0.2479
   62MOL0     H 8148   5.663   4.892   4.560 -3.1791 -2.9211  5.0871
   62MOL0     H 8149   5.897   4.865   4.433  1.2465 -0.7509  0.7952
   62MOL0     H 8150   6.083   4.871   4.355  1.2315  0.8829  0.1372
   62MOL0     H 8151   6.075   4.710   4.413  0.8654 -1.0982  1.9529
   62MOL0     H 8152   6.351   4.846   4.414  0.2090  0.3124 -0.2795
   62MOL0     H 8153   6.284   4.759   4.273 -0.0189  1.4761 -0.5074
   62MOL0     H 8154   6.246   4.569   4.441  0.0925 -1.1733  1.5666
   62MOL0     H 8155   6.325   4.664   4.564 -1.5239  0.2384  0.8025
   62MOL0     H 8156   6.464   4.585   4.295 -1.2554 -0.3763 -0.1429
   62MOL0     H 8157   6.547   4.653   4.415  2.9124 -2.9015 -2.0690
   62MOL0     H 8158   6.407   4.382   4.429  1.5298 -1.5096 -2.1055
   62MOL0     H 8159   6.476   4.465   4.572 -0.6957  0.9419 -0.8609
   62MOL0     H 8160   6.662   4.447   4.322 -0.4074 -0.6919 -0.5266
   62MOL0     H 8161   6.637   4.309   4.429  0.9659  0.4067  1.2386
   62MOL0     H 8162   6.722   4.593   4.518 -3.2834  0.2175 -2.2422
   62MOL0     H 8163   6.715   4.441   4.611 -3.4915  0.0386 -1.3037
   62MOL0     H 8164   6.875   4.484   4.355 -0.1923  1.0510  0.7108
   62MOL0     H 8165   6.874   4.333   4.444 -1.9897 -0.5276 -0.2214
   62MOL0     H 8166   6.090   4.853   4.814 -0.8295  0.7754  1.1495
   62MOL0     H 8167   5.861   4.850   4.927  0.2627 -1.4497 -0.4528
   62MOL0     H 8168   5.486   4.564   5.049 -0.1206 -2.3179 -1.0152
   62MOL0     H 8169   5.276   4.554   5.131  2.5156 -1.7677 -1.1988
   62MOL0     H 8170   5.181   4.206   5.365 -0.6952  1.2353 -1.3821
   62MOL0     H 8171   5.396   4.269   5.228  1.0228  0.5101  0.6525
   62MOL0     H 8172   5.723   4.631   5.169  0.1089  0.2615 -0.1375
   62MOL0     H 8173   5.911   4.672   5.033  0.3087  0.6476  1.2028
   62MOL0     H 8174   6.272   4.528   5.107 -1.4266  0.2827  1.0562
   62MOL0     H 8175   6.182   4.676   5.062 -2.8786 -0.8627 -1.2030
   62MOL0     H 8176   6.350   4.504   4.872  4.3530  1.9718  0.2014
   62MOL0     H 8177   6.255   4.649   4.828  1.0147 -0.6053 -1.9594
   62MOL0     H 8178   6.485   4.638   5.017 -2.0779 -0.7177  0.3271
   62MOL0     H 8179   6.382   4.781   4.968 -1.1428 -1.3211  2.7913
   62MOL0     H 8180   6.615   4.619   4.816  1.0288  0.2850 -1.1558
   62MOL0     H 8181   6.506   4.730   4.725  1.4356  2.9046  0.7906
   62MOL0     H 8182   6.765   4.982   4.934  1.7950 -0.5916 -1.9099
   62MOL0     H 8183   6.038   4.264   5.086  0.3281  0.7555  0.9135
   62MOL0     H 8184   5.844   4.212   5.193  3.6375 -0.6420  0.1279
   63MOL0     O 8185  10.340   2.100   5.066 -0.5551 -0.2692  1.1868
   63MOL0     C 8186  10.374   2.218   5.060 -0.2061  0.0338 -1.0740
   63MOL0     O 8187  10.285   2.321   5.027 -1.0843  0.1639  0.1867
   63MOL0     C 8188  10.151   2.291   4.992  0.6712 -0.0058  0.2029
   63MOL0     C 8189  10.120   2.185   4.902  0.4759  0.7540  0.2543
   63MOL0     C 8190   9.998   2.175   4.841  0.6572  0.3564 -0.0481
   63MOL0     C 8191   9.898   2.267   4.867  0.3554  0.4517  0.0311
   63MOL0     O 8192   9.772   2.270   4.808  0.1656  0.4447 -1.1477
   63MOL0     C 8193   9.724   2.148   4.749  0.3089 -0.2451 -0.0761
   63MOL0     C 8194   9.582   2.176   4.706 -0.0476 -0.1038 -0.3270
   63MOL0     C 8195   9.481   2.179   4.823  0.1739 -0.2259 -0.0151
   63MOL0     C 8196   9.339   2.221   4.795 -0.4025 -0.5711 -0.5800
   63MOL0     C 8197   9.239   2.195   4.914 -0.7379  0.3643  0.2384
   63MOL0     C 8198   9.100   2.219   4.847 -1.3694  0.4896  0.1548
   63MOL0     C 8199   8.992   2.172   4.932 -1.0547 -0.2200 -0.1854
   63MOL0     C 8200   8.862   2.214   4.879  0.1298 -0.6698  0.0131
   63MOL0     N 8201   8.763   2.182   4.980 -0.1179 -0.2311 -0.3689
   63MOL0     C 8202   8.740   2.067   5.052 -0.2162  1.5708  0.0582
   63MOL0     C 8203   8.629   2.088   5.120 -0.1365 -0.4947 -0.0938
   63MOL0     C 8204   8.568   1.982   5.205  0.4374  0.7181 -0.4365
   63MOL0     C 8205   8.472   1.875   5.131  0.1153  0.4348  0.3911
   63MOL0     C 8206   8.389   1.788   5.226 -0.5607  0.4815 -0.0652
   63MOL0     C 8207   8.315   1.670   5.162 -0.4976  0.0564  0.8419
   63MOL0     O 8208   8.233   1.718   5.054  0.5607 -0.2916  0.4981
   63MOL0     C 8209   8.102   1.737   5.082 -0.5921  0.1202  0.6107
   63MOL0     C 8210   8.028   1.719   4.964 -0.2869 -1.3060 -0.3957
   63MOL0     C 8211   7.889   1.728   4.973 -0.6141  0.1934 -0.7131
   63MOL0     C 8212   7.821   1.726   5.093 -0.4821  0.4967 -0.3379
   63MOL0     C 8213   7.676   1.701   5.094  0.5156  0.2303 -0.0194
   63MOL0     O 8214   7.621   1.632   5.197  0.4758  0.0898  0.3953
   63MOL0     C 8215   7.486   1.574   5.178  0.4493 -0.7575 -0.5631
   63MOL0     C 8216   7.453   1.438   5.167 -0.0639 -0.2486 -0.3004
   63MOL0     C 8217   7.318   1.395   5.162  0.5888  0.2948 -0.5826
   63MOL0     C 8218   7.209   1.488   5.174 -0.1684 -0.8750 -0.0567
   63MOL0     O 8219   7.084   1.437   5.161  0.5824  0.4605 -0.2454
   63MOL0     C 8220   6.972   1.514   5.107  1.5635  0.8197 -0.7900
   63MOL0     C 8221   6.865   1.555   5.211 -1.0050 -0.0768  0.9368
   63MOL0     C 8222   6.804   1.683   5.164  0.9859  0.3042  0.1234
   63MOL0     C 8223   6.685   1.729   5.238 -0.3326 -0.1995  0.4879
   63MOL0     C 8224   6.713   1.762   5.384  0.7654  0.3136 -0.4729
   63MOL0     C 8225   6.579   1.761   5.459  0.2197 -0.0085 -0.2860
   63MOL0     C 8226   6.593   1.823   5.603  0.2488  0.4887  0.1199
   63MOL0     C 8227   6.479   1.775   5.704 -0.5985 -0.0068  0.1411
   63MOL0    Cl 8228   6.330   1.849   5.639  0.0812 -0.0508 -0.0361
   63MOL0     C 8229   7.246   1.625   5.186  0.5476 -0.0530 -0.2563
   63MOL0     C 8230   7.375   1.664   5.196  0.4387  0.1682 -0.1333
   63MOL0     O 8231   7.613   1.722   4.992  0.2738  0.8284  0.3753
   63MOL0     C 8232   7.899   1.736   5.218 -0.3134  0.0598  0.2211
   63MOL0     C 8233   8.036   1.743   5.203 -0.2792  0.1990  0.4029
   63MOL0     N 8234   8.587   2.219   5.100  0.7333  0.0860  0.1200
   63MOL0     N 8235   8.677   2.272   5.021  0.4812  0.2942  0.2508
   63MOL0     C 8236   9.926   2.376   4.959  0.3514 -0.6587  0.3166
   63MOL0     C 8237  10.047   2.382   5.015  0.4817  0.8569 -0.3528
   63MOL0     C 8238  10.505   2.253   5.108 -0.4441  0.0231 -1.2974
   63MOL0     C 8239  10.602   2.156   5.082 -0.7466  0.0742 -0.0701
   63MOL0     C 8240  10.737   2.210   5.094 -0.3974 -0.2074  0.3962
   63MOL0     C 8241  10.789   2.338   5.150 -0.0564  0.3139  0.8183
   63MOL0     O 8242  10.915   2.391   5.175 -0.7318 -0.3562  0.0804
   63MOL0     C 8243  11.028   2.303   5.166  0.0131 -0.4219 -0.0626
   63MOL0     C 8244  11.025   2.191   5.267 -0.5003  0.3684  0.3020
   63MOL0     C 8245  11.092   2.059   5.217 -0.0346 -0.4748  0.3810
   63MOL0     C 8246  11.163   1.995   5.338 -0.4321  0.9884  0.1159
   63MOL0     C 8247  11.279   1.924   5.284  0.0473  1.4477  0.2719
   63MOL0     C 8248  11.385   1.894   5.231 -0.8328  0.3894 -0.7293
   63MOL0     C 8249  10.677   2.412   5.188  0.0569 -0.6522  0.9040
   63MOL0     C 8250  10.539   2.371   5.172  0.3449 -0.7306 -0.3309
   63MOL0     H 8251  10.187   2.102   4.882  3.4073  1.6365  4.8827
   63MOL0     H 8252   9.982   2.086   4.781 -3.2141  0.7911  0.0708
   63MOL0     H 8253   9.723   2.067   4.822  2.6408  0.9502  1.4102
   63MOL0     H 8254   9.775   2.135   4.654  0.6011  0.2843  0.0036
   63MOL0     H 8255   9.561   2.089   4.643  2.6895  0.8214 -2.7828
   63MOL0     H 8256   9.579   2.260   4.636  1.6691  2.2165  2.1540
   63MOL0     H 8257   9.520   2.242   4.903 -2.0849 -2.0268  2.6883
   63MOL0     H 8258   9.500   2.079   4.862  2.3786  0.7023  1.4455
   63MOL0     H 8259   9.339   2.328   4.773 -0.3074  0.2493  2.8456
   63MOL0     H 8260   9.317   2.155   4.711  1.4871 -2.4749  0.3359
   63MOL0     H 8261   9.249   2.278   4.986  2.4872  1.4256 -1.2225
   63MOL0     H 8262   9.243   2.094   4.956 -0.6762  0.2159 -0.1217
   63MOL0     H 8263   9.093   2.144   4.767  0.0034 -3.6467  3.5552
   63MOL0     H 8264   9.089   2.322   4.811  2.0218  1.5917  1.8935
   63MOL0     H 8265   8.996   2.064   4.923 -0.5009 -0.1750 -0.5102
   63MOL0     H 8266   9.004   2.213   5.032  2.6922 -1.5432  0.0422
   63MOL0     H 8267   8.845   2.152   4.790 -0.0326  2.7845 -2.5347
   63MOL0     H 8268   8.856   2.320   4.852  0.9613 -0.8108 -0.7646
   63MOL0     H 8269   8.797   1.975   5.042 -1.3790  1.0383 -2.2348
   63MOL0     H 8270   8.499   2.023   5.280  1.4940  1.7117  0.0154
   63MOL0     H 8271   8.642   1.920   5.257 -1.5504 -3.3426 -2.0085
   63MOL0     H 8272   8.537   1.812   5.070  0.9234  0.5918  1.0747
   63MOL0     H 8273   8.397   1.930   5.073 -2.2630 -1.3680  1.5824
   63MOL0     H 8274   8.461   1.742   5.293  0.8815 -2.0070 -3.0452
   63MOL0     H 8275   8.311   1.846   5.276 -1.2115  0.2504 -0.7834
   63MOL0     H 8276   8.255   1.624   5.241 -0.4671  0.7148  1.2548
   63MOL0     H 8277   8.387   1.594   5.129  0.6426  0.8316  1.4843
   63MOL0     H 8278   8.077   1.704   4.868  0.1387 -3.1861  0.0577
   63MOL0     H 8279   7.836   1.706   4.881 -2.5867  0.6847  0.2429
   63MOL0     H 8280   7.536   1.369   5.159  2.2259  1.9056  2.6588
   63MOL0     H 8281   7.294   1.289   5.151 -0.7885  0.5127  0.1035
   63MOL0     H 8282   6.940   1.467   5.013  1.9238  0.5187 -0.7658
   63MOL0     H 8283   7.022   1.606   5.077 -1.0648  2.1559 -1.3402
   63MOL0     H 8284   6.922   1.580   5.301  0.2062  1.2382 -0.1589
   63MOL0     H 8285   6.789   1.477   5.221  0.5903 -2.4824 -3.2722
   63MOL0     H 8286   6.772   1.667   5.061 -2.7048 -0.7766  1.2646
   63MOL0     H 8287   6.873   1.767   5.156  0.8499  0.3565 -0.5685
   63MOL0     H 8288   6.641   1.820   5.197  2.8340  0.8850 -0.8037
   63MOL0     H 8289   6.605   1.654   5.228 -0.7325 -0.0521  2.2463
   63MOL0     H 8290   6.744   1.867   5.384 -1.4955  1.0662  1.6765
   63MOL0     H 8291   6.778   1.684   5.425 -3.9657 -3.1113  1.3567
   63MOL0     H 8292   6.541   1.659   5.459  2.5695 -0.9700  1.4086
   63MOL0     H 8293   6.511   1.835   5.415 -0.2422  0.8687  1.8020
   63MOL0     H 8294   6.681   1.772   5.643 -1.3403 -2.0796  0.5355
   63MOL0     H 8295   6.596   1.932   5.592 -4.1363  0.7723 -0.1962
   63MOL0     H 8296   6.505   1.793   5.809  1.4276 -3.6963  0.4342
   63MOL0     H 8297   6.459   1.668   5.699 -1.4767  0.1986 -3.0171
   63MOL0     H 8298   7.177   1.709   5.178 -0.3637 -0.3199  3.0970
   63MOL0     H 8299   7.399   1.769   5.208  1.7726  0.0501 -1.4697
   63MOL0     H 8300   7.842   1.735   5.310 -3.0889  3.1187 -1.2742
   63MOL0     H 8301   8.093   1.749   5.295  0.3892 -1.7060  0.1641
   63MOL0     H 8302   9.852   2.452   4.981 -0.5921 -1.5697  0.3781
   63MOL0     H 8303  10.060   2.458   5.091  1.9543  0.0304  0.2756
   63MOL0     H 8304  10.574   2.063   5.033 -1.0497  0.7762 -1.2785
   63MOL0     H 8305  10.822   2.147   5.067 -0.5922 -0.0360 -0.6400
   63MOL0     H 8306  11.119   2.354   5.198  0.0554  0.5417 -1.6375
   63MOL0     H 8307  11.038   2.261   5.066 -0.2545 -0.3720 -0.1095
   63MOL0     H 8308  11.061   2.223   5.365  1.1491  0.8402 -0.4328
   63MOL0     H 8309  10.919   2.164   5.271 -0.5629 -0.7060 -3.9738
   63MOL0     H 8310  11.152   2.070   5.127 -1.2774  0.0432 -0.4175
   63MOL0     H 8311  11.011   1.990   5.188 -0.8635  0.5869  0.1077
   63MOL0     H 8312  11.207   2.057   5.417  1.7709 -2.7921  2.1659
   63MOL0     H 8313  11.100   1.924   5.392 -0.1761  2.0344  1.8650
   63MOL0     H 8314  11.474   1.851   5.190  0.2398 -0.0608  1.8681
   63MOL0     H 8315  10.693   2.506   5.240 -0.3536  0.1502 -0.3595
   63MOL0     H 8316  10.465   2.436   5.218  0.6277 -0.4577 -0.2545
   64MOL0     O 8317   6.921  11.222   4.316  0.1733 -0.0609 -0.8766
   64MOL0     C 8318   6.875  11.144   4.229 -1.3692 -0.6903  0.0365
   64MOL0     O 8319   6.823  11.183   4.111 -0.2034 -0.2597 -0.6243
   64MOL0     C 8320   6.811  11.319   4.096 -0.1996  0.1107 -0.5280
   64MOL0     C 8321   6.897  11.380   4.005  0.2515  0.9631  0.0991
   64MOL0     C 8322   6.883  11.516   3.956  0.1388  0.5345 -1.1938
   64MOL0     C 8323   6.784  11.591   4.015  0.4913  0.6655 -0.6217
   64MOL0     O 8324   6.756  11.719   3.967 -0.6212  0.0051  0.1024
   64MOL0     C 8325   6.865  11.815   3.965 -0.5502 -1.0365 -0.1907
   64MOL0     C 8326   6.793  11.948   3.974 -0.4282 -0.1294  0.3959
   64MOL0     C 8327   6.902  12.055   3.971 -0.9590  0.2158 -0.6611
   64MOL0     C 8328   6.864  12.203   4.005 -0.3075  0.7606  0.3595
   64MOL0     C 8329   6.992  12.286   3.995  0.2173 -0.0539 -0.1226
   64MOL0     C 8330   6.965  12.435   4.031  0.6038 -0.1550 -0.0170
   64MOL0     C 8331   6.892  12.453   4.171 -0.2450  0.2875 -0.6715
   64MOL0     C 8332   6.941  12.583   4.236  0.3260 -0.7058 -0.3656
   64MOL0     N 8333   6.863  12.610   4.365  0.6302  0.2621  0.0532
   64MOL0     C 8334   6.897  12.614   4.501  0.2896  0.4729 -0.3648
   64MOL0     C 8335   6.786  12.635   4.564 -0.0482 -0.7878  0.0501
   64MOL0     C 8336   6.762  12.671   4.712 -1.2851 -0.1507  0.0608
   64MOL0     C 8337   6.638  12.621   4.772  0.2354 -0.1362  0.4835
   64MOL0     C 8338   6.569  12.737   4.850 -0.7245  1.0838  0.0886
   64MOL0     C 8339   6.426  12.681   4.882  0.1188 -0.0198 -0.5724
   64MOL0     O 8340   6.351  12.785   4.957  0.1106  0.1708  0.7855
   64MOL0     C 8341   6.338  12.783   5.088 -0.5101 -0.1473 -0.0503
   64MOL0     C 8342   6.423  12.692   5.170  1.2377  0.4267  0.4293
   64MOL0     C 8343   6.410  12.700   5.306 -0.2578  0.7452 -0.7539
   64MOL0     C 8344   6.302  12.766   5.370 -0.0646  0.3582  0.4869
   64MOL0     C 8345   6.281  12.767   5.515 -0.1296  0.3975 -0.6194
   64MOL0     O 8346   6.162  12.818   5.559 -0.2789  0.7263  0.6233
   64MOL0     C 8347   6.140  12.853   5.690  0.8603  0.2608 -0.5693
   64MOL0     C 8348   6.093  12.980   5.706 -0.1930 -0.0900  0.0939
   64MOL0     C 8349   6.036  13.012   5.827  0.6402  0.8010 -0.0986
   64MOL0     C 8350   6.038  12.926   5.932 -0.0701  0.1218  0.4928
   64MOL0     O 8351   5.992  12.973   6.058 -0.1700  0.4750  0.0582
   64MOL0     C 8352   5.945  13.104   6.074  1.8097  0.4103  0.3450
   64MOL0     C 8353   5.905  13.120   6.225  0.5182  0.4556  0.6449
   64MOL0     C 8354   5.800  13.010   6.268 -0.2238  0.6837  0.4157
   64MOL0     C 8355   5.756  13.023   6.406 -0.5611 -0.0360 -0.1853
   64MOL0     C 8356   5.625  12.948   6.418 -0.4562 -0.2761 -0.6107
   64MOL0     C 8357   5.604  12.892   6.560 -0.3033  0.5309  0.1918
   64MOL0     C 8358   5.471  12.809   6.561 -0.0815  0.8400  0.5651
   64MOL0     C 8359   5.458  12.738   6.693 -0.5614 -0.4832 -0.5084
   64MOL0    Cl 8360   5.317  12.623   6.702  0.0717 -0.3472 -0.2214
   64MOL0     C 8361   6.097  12.807   5.923 -0.3071  0.0192  0.3734
   64MOL0     C 8362   6.146  12.757   5.799  0.8596 -0.8074  0.1366
   64MOL0     O 8363   6.370  12.714   5.584 -0.5406  0.1484  0.0855
   64MOL0     C 8364   6.226  12.847   5.286  0.4390 -1.0123 -0.7296
   64MOL0     C 8365   6.246  12.858   5.152  1.2629  0.8343  0.2850
   64MOL0     N 8366   6.678  12.661   4.473  1.0240 -0.4859 -0.3109
   64MOL0     N 8367   6.732  12.651   4.357 -0.3293  0.2999  0.7575
   64MOL0     C 8368   6.699  11.530   4.108 -0.0992 -0.9694 -0.2266
   64MOL0     C 8369   6.713  11.396   4.150  0.0368 -0.2164 -0.0418
   64MOL0     C 8370   6.902  11.001   4.248 -0.0351 -0.9336  0.0054
   64MOL0     C 8371   6.942  10.956   4.367  0.5665  0.8220 -0.2005
   64MOL0     C 8372   6.963  10.814   4.396  0.0681 -0.7772 -0.3495
   64MOL0     C 8373   6.963  10.724   4.287  0.6257 -0.4714 -0.2734
   64MOL0     O 8374   6.982  10.593   4.303  1.0677 -0.9690  0.3195
   64MOL0     C 8375   7.112  10.548   4.264 -0.7071 -0.5723  0.4997
   64MOL0     C 8376   7.209  10.564   4.381 -0.0639  0.9171 -0.3404
   64MOL0     C 8377   7.350  10.508   4.349 -0.5188  0.2329 -0.1613
   64MOL0     C 8378   7.448  10.518   4.465 -0.6794 -0.6881 -0.2819
   64MOL0     C 8379   7.477  10.655   4.490 -0.6120  0.2446 -0.4783
   64MOL0     C 8380   7.474  10.774   4.506 -0.1647  0.7896 -0.6845
   64MOL0     C 8381   6.925  10.769   4.160  0.4405  0.9580  0.1372
   64MOL0     C 8382   6.896  10.908   4.145  1.2990  0.2392 -0.5626
   64MOL0     H 8383   6.976  11.318   3.965 -2.0183 -0.5756 -2.3181
   64MOL0     H 8384   6.956  11.553   3.886  0.9274 -0.1799 -0.7696
   64MOL0     H 8385   6.921  11.809   3.870  0.6095  0.4893  0.3439
   64MOL0     H 8386   6.926  11.789   4.052  1.0000 -1.5805 -1.3782
   64MOL0     H 8387   6.757  11.943   4.077  3.2257 -0.4330  1.8071
   64MOL0     H 8388   6.703  11.964   3.912 -0.0442  1.4356  0.1963
   64MOL0     H 8389   6.928  12.059   3.865 -0.9416  2.6106 -0.6205
   64MOL0     H 8390   6.979  12.020   4.041 -2.1691  0.4445  0.8477
   64MOL0     H 8391   6.789  12.249   3.940 -0.9663  0.8962  1.1878
   64MOL0     H 8392   6.832  12.197   4.110  2.4206 -1.5841  1.1816
   64MOL0     H 8393   7.036  12.280   3.895  0.0281  1.0447 -0.2882
   64MOL0     H 8394   7.058  12.239   4.069  4.1141  1.2115 -2.5207
   64MOL0     H 8395   6.902  12.485   3.957 -1.5544  4.0633  4.1802
   64MOL0     H 8396   7.061  12.487   4.028  0.9339 -0.6906  0.8685
   64MOL0     H 8397   6.783  12.454   4.180 -0.1171 -1.2836  2.2619
   64MOL0     H 8398   6.910  12.365   4.234  0.8312  1.1523  0.2672
   64MOL0     H 8399   6.931  12.663   4.162 -2.6892 -0.6786 -0.0459
   64MOL0     H 8400   7.049  12.585   4.256  0.4760  2.1393 -1.0244
   64MOL0     H 8401   6.997  12.602   4.543  0.4797  2.1680 -0.2327
   64MOL0     H 8402   6.759  12.780   4.698  2.3153 -0.0943 -1.5554
   64MOL0     H 8403   6.851  12.650   4.773 -0.7967  0.8381 -0.2826
   64MOL0     H 8404   6.647  12.540   4.845 -3.6016 -1.0688  0.1234
   64MOL0     H 8405   6.566  12.588   4.696 -1.4275  1.5294  1.2635
   64MOL0     H 8406   6.625  12.748   4.943  0.7052 -0.8175 -0.5004
   64MOL0     H 8407   6.558  12.834   4.801 -5.2421  1.0911  0.7185
   64MOL0     H 8408   6.433  12.587   4.938 -1.0107 -0.6196 -1.3907
   64MOL0     H 8409   6.364  12.655   4.796 -0.5576  0.0705 -0.1181
   64MOL0     H 8410   6.499  12.628   5.126  2.1620  2.2648 -0.7379
   64MOL0     H 8411   6.487  12.655   5.368 -0.9274 -0.0214 -0.4668
   64MOL0     H 8412   6.085  13.050   5.624 -0.4600 -1.1487 -0.8047
   64MOL0     H 8413   5.997  13.113   5.831 -2.2060 -0.2495  1.1851
   64MOL0     H 8414   5.866  13.117   5.999  0.9778  0.8802  1.2862
   64MOL0     H 8415   6.025  13.172   6.045  0.9641  0.9137 -0.9032
   64MOL0     H 8416   5.854  13.215   6.242  1.2376  0.8195  0.7759
   64MOL0     H 8417   5.989  13.114   6.295 -0.4918  1.7569  2.0385
   64MOL0     H 8418   5.831  12.908   6.243 -1.5559  0.4252 -0.2876
   64MOL0     H 8419   5.713  13.036   6.208 -0.4444  0.9802  0.8577
   64MOL0     H 8420   5.842  12.990   6.464  2.3574  1.9056 -3.0776
   64MOL0     H 8421   5.746  13.125   6.444  1.6553  0.0172  0.3822
   64MOL0     H 8422   5.633  12.868   6.344  4.3823 -1.0662  0.4763
   64MOL0     H 8423   5.539  13.015   6.406 -1.0704 -0.7478  0.8473
   64MOL0     H 8424   5.595  12.975   6.631  1.1718  0.5891  0.3452
   64MOL0     H 8425   5.692  12.835   6.592 -0.3583  0.5355  0.3513
   64MOL0     H 8426   5.387  12.876   6.537  1.4571  1.7119 -3.0514
   64MOL0     H 8427   5.471  12.742   6.475  0.2498 -0.0105  1.2177
   64MOL0     H 8428   5.457  12.803   6.780  3.7908  0.9141 -1.2922
   64MOL0     H 8429   5.554  12.687   6.700 -0.4797 -0.2755 -0.1054
   64MOL0     H 8430   6.117  12.746   6.011  2.4060  2.0668  1.2979
   64MOL0     H 8431   6.182  12.655   5.789  1.9595 -0.3141 -1.5069
   64MOL0     H 8432   6.138  12.898   5.324  1.2068  0.3850 -0.7388
   64MOL0     H 8433   6.166  12.899   5.091 -2.2489 -4.3789  0.7400
   64MOL0     H 8434   6.621  11.587   4.158 -0.2355 -2.0337  0.8267
   64MOL0     H 8435   6.638  11.347   4.211 -0.3754  1.7533  1.1459
   64MOL0     H 8436   6.948  11.019   4.456 -1.1217 -1.0483  1.3296
   64MOL0     H 8437   6.992  10.769   4.490  0.5484 -2.0866 -1.0837
   64MOL0     H 8438   7.152  10.603   4.178  0.2731  2.1534  2.5530
   64MOL0     H 8439   7.100  10.441   4.245 -1.2168 -0.4173 -0.1015
   64MOL0     H 8440   7.216  10.672   4.400 -3.0681  0.9355  1.4655
   64MOL0     H 8441   7.164  10.508   4.463  0.9833 -0.3470 -0.5989
   64MOL0     H 8442   7.389  10.565   4.264 -1.2260 -0.1223 -0.7373
   64MOL0     H 8443   7.343  10.402   4.322  0.4381  0.6660 -2.3670
   64MOL0     H 8444   7.419  10.476   4.562 -0.2091  1.6814  0.9585
   64MOL0     H 8445   7.536  10.473   4.420 -0.2289 -1.3325  1.1822
   64MOL0     H 8446   7.459  10.880   4.508  1.3859  1.0227  0.9669
   64MOL0     H 8447   6.913  10.703   4.076 -1.0031  2.9228 -1.2984
   64MOL0     H 8448   6.861  10.939   4.047 -0.4658  2.2590  0.6087
   65MOL0     O 8449   1.475  10.691   4.019  0.2611 -0.3787  0.4637
   65MOL0     C 8450   1.421  10.795   3.976  0.5377 -0.9549  0.1473
   65MOL0     O 8451   1.470  10.922   3.997 -0.3923  0.4324  0.8955
   65MOL0     C 8452   1.600  10.931   4.041 -0.5319  0.7961  0.2337
   65MOL0     C 8453   1.618  11.024   4.148 -0.0934 -0.4333  0.5160
   65MOL0     C 8454   1.745  11.066   4.185 -0.0405 -0.3751  0.6717
   65MOL0     C 8455   1.859  11.006   4.131  0.1382 -0.5076  0.6417
   65MOL0     O 8456   1.978  11.052   4.168 -0.4298  1.3011  0.3833
   65MOL0     C 8457   2.018  11.182   4.122 -1.1552  0.1100  0.1878
   65MOL0     C 8458   2.145  11.167   4.035 -0.3261  0.2578  0.1157
   65MOL0     C 8459   2.194  11.302   3.979 -0.2048 -0.1871  0.4177
   65MOL0     C 8460   2.337  11.342   4.029  0.8265  0.7091 -0.6855
   65MOL0     C 8461   2.392  11.462   3.948 -0.0141 -0.6685  0.2053
   65MOL0     C 8462   2.534  11.483   3.997  0.5270 -0.9914 -0.0234
   65MOL0     C 8463   2.614  11.603   3.946 -0.4820 -0.1788 -0.4907
   65MOL0     C 8464   2.607  11.611   3.796 -0.4537 -0.0798 -0.2400
   65MOL0     N 8465   2.634  11.756   3.746 -0.3290  0.3393 -0.3626
   65MOL0     C 8466   2.733  11.831   3.806 -0.4325 -0.1313  0.2655
   65MOL0     C 8467   2.735  11.937   3.722 -0.8102  0.2851 -0.9808
   65MOL0     C 8468   2.848  12.036   3.729  0.2813  0.3101 -0.4013
   65MOL0     C 8469   2.884  12.113   3.593  0.2281 -1.1668  0.2924
   65MOL0     C 8470   2.994  12.225   3.611 -0.6925  0.5664  0.7003
   65MOL0     C 8471   3.119  12.177   3.690 -0.3529  0.3010  0.6454
   65MOL0     O 8472   3.207  12.083   3.615  0.2102 -0.4853 -0.1962
   65MOL0     C 8473   3.281  12.133   3.510 -0.2453  1.3918  0.0899
   65MOL0     C 8474   3.295  12.050   3.398  0.1896  0.5444  0.2320
   65MOL0     C 8475   3.395  12.071   3.304  0.6111  1.5252  0.3530
   65MOL0     C 8476   3.467  12.189   3.305 -0.3983  0.5841 -0.4587
   65MOL0     C 8477   3.582  12.214   3.220 -0.2051 -0.3068  0.6745
   65MOL0     O 8478   3.683  12.297   3.256  0.0912  0.2049  0.8420
   65MOL0     C 8479   3.768  12.352   3.157 -0.0402 -0.0727  0.5843
   65MOL0     C 8480   3.720  12.400   3.030 -0.2249 -1.1734  0.1499
   65MOL0     C 8481   3.804  12.467   2.940  0.9671 -0.8417  0.6916
   65MOL0     C 8482   3.936  12.496   2.970 -0.0310  0.2272 -0.2165
   65MOL0     O 8483   4.011  12.548   2.873  0.2169  0.1911  0.4240
   65MOL0     C 8484   4.052  12.460   2.770  0.8333 -0.1078  0.7447
   65MOL0     C 8485   4.163  12.360   2.803  0.1145  0.0195 -0.3895
   65MOL0     C 8486   4.294  12.443   2.784  0.4459 -0.0981 -0.7431
   65MOL0     C 8487   4.310  12.549   2.890  0.6865 -0.5489  0.3108
   65MOL0     C 8488   4.453  12.592   2.892 -0.2297  0.1836  0.7190
   65MOL0     C 8489   4.484  12.689   3.006 -0.6641 -0.6802 -0.5334
   65MOL0     C 8490   4.634  12.716   3.022  0.2721  0.2704 -0.0749
   65MOL0     C 8491   4.720  12.735   2.897 -1.0703 -0.3548  0.2258
   65MOL0    Cl 8492   4.899  12.724   2.941  0.4319  0.0396 -0.0705
   65MOL0     C 8493   3.987  12.458   3.095 -0.5096 -0.5541 -0.3911
   65MOL0     C 8494   3.909  12.383   3.186  0.7379 -0.6595 -0.5014
   65MOL0     O 8495   3.569  12.174   3.106  0.3658 -0.5865  0.0300
   65MOL0     C 8496   3.441  12.280   3.403  0.3428 -0.2013  0.2813
   65MOL0     C 8497   3.345  12.255   3.508 -0.4174  0.5403  0.1969
   65MOL0     N 8498   2.647  11.925   3.625  0.3458  0.6589  0.3025
   65MOL0     N 8499   2.591  11.810   3.632 -0.5839 -0.1227 -0.5830
   65MOL0     C 8500   1.836  10.913   4.023  0.4287  0.4253 -0.0844
   65MOL0     C 8501   1.712  10.879   3.972 -0.0311 -0.2368  0.9896
   65MOL0     C 8502   1.298  10.768   3.891 -0.7737  0.2820  0.2706
   65MOL0     C 8503   1.236  10.882   3.831  0.6640  0.0597 -0.4427
   65MOL0     C 8504   1.118  10.870   3.755 -0.0866 -0.4047  1.0644
   65MOL0     C 8505   1.048  10.745   3.750  0.7998  1.1565 -0.4593
   65MOL0     O 8506   0.922  10.724   3.705  0.0404 -0.4840  1.0065
   65MOL0     C 8507   0.873  10.838   3.620 -0.0266 -0.7364 -0.5206
   65MOL0     C 8508   0.742  10.790   3.547 -0.1524 -0.1016 -0.0103
   65MOL0     C 8509   0.641  10.893   3.483 -0.8209  1.4434  1.4647
   65MOL0     C 8510   0.611  10.844   3.343 -0.5991 -0.3880 -0.0709
   65MOL0     C 8511   0.552  10.954   3.255 -0.1725  0.1700  0.8278
   65MOL0     C 8512   0.509  11.050   3.196 -1.0278  0.9087  0.3769
   65MOL0     C 8513   1.109  10.642   3.814  1.1283  1.1472 -0.5136
   65MOL0     C 8514   1.232  10.645   3.872 -0.0006 -0.3031 -1.1079
   65MOL0     H 8515   1.521  11.058   4.185 -1.1845  0.9731 -3.1909
   65MOL0     H 8516   1.758  11.130   4.272  0.8240 -1.1850  1.1584
   65MOL0     H 8517   2.043  11.244   4.208 -0.9562  2.5979 -1.5440
   65MOL0     H 8518   1.945  11.239   4.063 -0.4236  1.5496  0.6172
   65MOL0     H 8519   2.134  11.100   3.949 -2.2846  3.4861 -2.3957
   65MOL0     H 8520   2.217  11.127   4.107 -0.7742 -0.5501  0.1321
   65MOL0     H 8521   2.115  11.373   4.006 -0.4425  1.1397 -3.1819
   65MOL0     H 8522   2.184  11.297   3.870 -1.8539 -0.5564  0.5464
   65MOL0     H 8523   2.333  11.360   4.137 -2.0384 -0.4181 -0.5136
   65MOL0     H 8524   2.399  11.253   4.017 -1.8545 -1.3455 -0.1935
   65MOL0     H 8525   2.335  11.554   3.960 -0.0340 -0.6724  0.1400
   65MOL0     H 8526   2.398  11.442   3.841  0.6263  1.0865 -0.1135
   65MOL0     H 8527   2.590  11.392   3.975  0.5134 -1.0257  0.0864
   65MOL0     H 8528   2.532  11.497   4.105  2.3271  1.3998 -0.2157
   65MOL0     H 8529   2.575  11.693   3.994  0.9367  0.7243 -0.9630
   65MOL0     H 8530   2.715  11.597   3.987 -1.0463 -0.2925  0.9441
   65MOL0     H 8531   2.511  11.577   3.755 -0.2647 -0.8512 -0.0446
   65MOL0     H 8532   2.682  11.544   3.754  0.6349 -0.7842  2.6105
   65MOL0     H 8533   2.801  11.810   3.887 -1.9558 -3.0214  0.9349
   65MOL0     H 8534   2.936  11.975   3.753  0.3235 -0.0459 -1.4438
   65MOL0     H 8535   2.819  12.105   3.809  1.2908  0.5460 -0.2227
   65MOL0     H 8536   2.802  12.166   3.545  0.7661  0.9140  1.5106
   65MOL0     H 8537   2.926  12.051   3.513  1.4432  2.1625 -1.8766
   65MOL0     H 8538   3.022  12.259   3.511 -0.6514  0.2576  0.6092
   65MOL0     H 8539   2.942  12.312   3.655 -1.7568  0.6556 -0.6706
   65MOL0     H 8540   3.094  12.110   3.773  2.3846  0.9381  2.1208
   65MOL0     H 8541   3.178  12.261   3.727 -0.2178 -0.1390  1.4703
   65MOL0     H 8542   3.242  11.955   3.390 -0.8382  1.2496 -2.9267
   65MOL0     H 8543   3.429  12.001   3.228 -0.8595  1.3374 -0.1483
   65MOL0     H 8544   3.614  12.397   3.012 -0.2866  0.9112 -0.1331
   65MOL0     H 8545   3.755  12.506   2.851  0.4012  0.4999  1.5685
   65MOL0     H 8546   4.077  12.527   2.687 -0.7030 -0.0618  0.2915
   65MOL0     H 8547   3.969  12.404   2.724 -0.2467  2.1522 -0.2210
   65MOL0     H 8548   4.175  12.284   2.725  3.3076  0.2551 -0.2665
   65MOL0     H 8549   4.151  12.300   2.894  1.2235 -4.0965 -2.6770
   65MOL0     H 8550   4.296  12.489   2.685 -3.2518  0.5228 -0.6787
   65MOL0     H 8551   4.376  12.370   2.784 -0.0705 -0.9053  3.4307
   65MOL0     H 8552   4.243  12.626   2.853  0.9404 -1.3178 -1.9497
   65MOL0     H 8553   4.273  12.504   2.983 -1.1413  0.9893  0.3828
   65MOL0     H 8554   4.468  12.644   2.796 -1.9016  0.3179  0.5094
   65MOL0     H 8555   4.518  12.504   2.902  1.5994  1.5923  1.8681
   65MOL0     H 8556   4.450  12.658   3.105 -3.5793  0.8941 -0.9380
   65MOL0     H 8557   4.433  12.785   2.995  1.3619  0.4718 -0.2728
   65MOL0     H 8558   4.659  12.799   3.088  0.2962 -2.4216  3.5649
   65MOL0     H 8559   4.666  12.622   3.069 -1.5704 -0.5285 -0.3467
   65MOL0     H 8560   4.695  12.831   2.850  1.7662  1.3919  1.9286
   65MOL0     H 8561   4.711  12.659   2.820 -1.1352 -2.5055  2.2498
   65MOL0     H 8562   4.088  12.492   3.114 -0.4776  0.2736 -1.8559
   65MOL0     H 8563   3.954  12.345   3.277  0.0585 -1.8988 -0.6637
   65MOL0     H 8564   3.489  12.376   3.414 -0.9604  0.6216 -0.9395
   65MOL0     H 8565   3.328  12.331   3.583 -1.4409 -0.3219  0.8618
   65MOL0     H 8566   1.927  10.874   3.976 -0.4879 -2.9800  0.7117
   65MOL0     H 8567   1.702  10.816   3.884 -1.3225  0.0063  0.9473
   65MOL0     H 8568   1.278  10.982   3.844  2.4611  0.0937 -4.9124
   65MOL0     H 8569   1.075  10.966   3.731  0.2975 -0.5963 -0.4603
   65MOL0     H 8570   0.947  10.864   3.544 -0.3213 -0.2655 -0.6511
   65MOL0     H 8571   0.847  10.918   3.691 -3.4730 -1.0851 -1.2203
   65MOL0     H 8572   0.781  10.722   3.471  0.1752  0.1635 -0.0828
   65MOL0     H 8573   0.676  10.722   3.601 -2.3218 -0.1763 -2.5723
   65MOL0     H 8574   0.676  10.997   3.483 -0.6532  1.4109 -0.2221
   65MOL0     H 8575   0.549  10.897   3.542 -3.0823 -0.3172 -1.6664
   65MOL0     H 8576   0.698  10.797   3.297  1.3667  0.7698  2.2993
   65MOL0     H 8577   0.530  10.770   3.344  0.7584 -1.9868 -1.5213
   65MOL0     H 8578   0.475  11.134   3.139 -0.0267 -0.2545 -2.0664
   65MOL0     H 8579   1.056  10.547   3.813  2.3729  0.4327 -1.9276
   65MOL0     H 8580   1.275  10.553   3.910  1.3214  0.1028 -1.5749
   66MOL0     O 8581   7.445   9.576   2.423  0.1068  0.5280  0.0767
   66MOL0     C 8582   7.476   9.462   2.383  1.1626 -0.3890 -0.2487
   66MOL0     O 8583   7.395   9.380   2.309 -0.0660 -0.3082  0.0032
   66MOL0     C 8584   7.293   9.440   2.241  1.2474  0.4606  1.2757
   66MOL0     C 8585   7.321   9.535   2.145  0.0702  0.6253 -0.1167
   66MOL0     C 8586   7.223   9.590   2.067 -0.2831  0.4764  1.1229
   66MOL0     C 8587   7.089   9.555   2.068 -0.3784  0.1307 -0.2348
   66MOL0     O 8588   6.989   9.604   1.985 -0.2551  0.6974 -0.5915
   66MOL0     C 8589   6.851   9.590   2.046 -0.0441 -1.1170  0.3685
   66MOL0     C 8590   6.775   9.693   1.966 -0.3938 -0.1438 -0.3823
   66MOL0     C 8591   6.623   9.664   1.973 -0.5469 -0.3295  0.0069
   66MOL0     C 8592   6.563   9.740   1.855 -0.1587  0.1818  0.2346
   66MOL0     C 8593   6.412   9.743   1.884 -0.0026 -0.0330 -0.1007
   66MOL0     C 8594   6.337   9.849   1.795 -1.0319  0.1743  0.5804
   66MOL0     C 8595   6.344   9.823   1.639  0.0746 -0.5403 -0.6284
   66MOL0     C 8596   6.272   9.696   1.595  1.1670 -0.0709 -0.6524
   66MOL0     N 8597   6.228   9.693   1.454  0.4360 -0.3438 -0.1245
   66MOL0     C 8598   6.304   9.724   1.350  0.2528 -0.0936 -1.0525
   66MOL0     C 8599   6.228   9.752   1.246  0.2786 -0.1411  1.2380
   66MOL0     C 8600   6.271   9.767   1.106  0.7316  0.7800 -0.3903
   66MOL0     C 8601   6.261   9.631   1.039 -0.6993  0.2041 -0.4579
   66MOL0     C 8602   6.295   9.640   0.887  0.5570 -0.0864  0.2920
   66MOL0     C 8603   6.177   9.709   0.813  0.3918  0.7114 -0.7116
   66MOL0     O 8604   6.208   9.707   0.672 -0.0382 -0.3304 -0.9425
   66MOL0     C 8605   6.116   9.680   0.575  0.2432  0.0246  0.1962
   66MOL0     C 8606   6.145   9.706   0.443 -0.3700 -0.4522  0.1804
   66MOL0     C 8607   6.061   9.678   0.330 -0.4545 -0.6173  0.3351
   66MOL0     C 8608   5.942   9.616   0.345 -0.3638 -0.6777  0.1897
   66MOL0     C 8609   5.868   9.551   0.238 -0.0321 -0.0282 -0.7471
   66MOL0     O 8610   5.937   9.551   0.124 -0.0832 -0.3725 -0.5386
   66MOL0     C 8611   5.886   9.499   0.010 -0.7917  0.0470 -0.6303
   66MOL0     C 8612   5.789   9.396  -0.009  0.7793 -0.4888  0.0543
   66MOL0     C 8613   5.739   9.362  -0.133 -0.4881  0.2839  0.3799
   66MOL0     C 8614   5.804   9.422  -0.253  0.7384  0.1253  0.1962
   66MOL0     O 8615   5.763   9.376  -0.380 -0.0656 -0.2234 -0.0537
   66MOL0     C 8616   5.708   9.479  -0.459  0.3640 -0.5186 -0.0228
   66MOL0     C 8617   5.707   9.439  -0.605 -0.0604  0.0365 -1.0832
   66MOL0     C 8618   5.675   9.289  -0.635  0.7805 -0.8128 -1.1326
   66MOL0     C 8619   5.644   9.278  -0.785  0.1473 -0.1964 -0.3755
   66MOL0     C 8620   5.635   9.137  -0.833  0.6053  0.4487  0.3899
   66MOL0     C 8621   5.526   9.062  -0.759  0.5677  1.4728  0.3966
   66MOL0     C 8622   5.500   8.923  -0.829  0.0727 -1.0223  0.4439
   66MOL0     C 8623   5.389   8.841  -0.756 -0.2577 -0.4295 -0.0185
   66MOL0    Cl 8624   5.355   8.696  -0.843  0.2325 -0.1720 -0.0772
   66MOL0     C 8625   5.902   9.513  -0.239 -0.2400  0.6231 -0.3006
   66MOL0     C 8626   5.942   9.552  -0.110  0.0875 -0.0423  0.5636
   66MOL0     O 8627   5.753   9.520   0.262  0.0085 -0.5923  0.0744
   66MOL0     C 8628   5.897   9.598   0.479  0.0850  0.6898  0.5373
   66MOL0     C 8629   5.983   9.629   0.591 -0.6211 -0.3064  0.1286
   66MOL0     N 8630   6.099   9.729   1.286 -0.2777  0.3720 -0.3173
   66MOL0     N 8631   6.100   9.707   1.413  0.6912 -0.4908 -0.2458
   66MOL0     C 8632   7.063   9.434   2.150  0.0311 -0.6504  0.1042
   66MOL0     C 8633   7.164   9.380   2.239  0.1906 -0.3099  0.3570
   66MOL0     C 8634   7.612   9.421   2.419 -0.0244  0.6753  1.8438
   66MOL0     C 8635   7.634   9.291   2.482 -0.0212 -0.3862 -0.1107
   66MOL0     C 8636   7.757   9.272   2.552  0.1700 -0.6638 -0.2541
   66MOL0     C 8637   7.861   9.363   2.547 -0.4907  1.6229 -1.0525
   66MOL0     O 8638   7.981   9.343   2.605 -0.5525  0.3966 -0.9478
   66MOL0     C 8639   8.059   9.226   2.568  0.5010  0.5835  0.1075
   66MOL0     C 8640   8.181   9.207   2.662 -0.4347  1.1061 -0.1852
   66MOL0     C 8641   8.252   9.078   2.657 -0.4816 -0.2139  0.7914
   66MOL0     C 8642   8.332   9.056   2.524 -0.3506 -0.5621 -0.4075
   66MOL0     C 8643   8.468   9.110   2.534 -0.4188  0.4244  0.8084
   66MOL0     C 8644   8.582   9.146   2.555  0.3501 -0.6394  0.1922
   66MOL0     C 8645   7.842   9.481   2.479  0.5735 -0.1304 -0.8365
   66MOL0     C 8646   7.720   9.510   2.412 -0.0261 -0.2782  0.0566
   66MOL0     H 8647   7.424   9.569   2.132 -0.4443  1.1369 -3.7131
   66MOL0     H 8648   7.260   9.672   2.006 -2.9621  2.5258  2.0763
   66MOL0     H 8649   6.851   9.612   2.154 -3.4262 -0.5566  0.3578
   66MOL0     H 8650   6.815   9.491   2.019 -0.8186 -0.0398 -3.0494
   66MOL0     H 8651   6.811   9.676   1.864  1.2343  2.6586 -0.3793
   66MOL0     H 8652   6.781   9.800   1.989 -0.5471 -0.7211  2.7705
   66MOL0     H 8653   6.582   9.687   2.072  0.7125 -0.6553  0.6226
   66MOL0     H 8654   6.600   9.559   1.954  0.5011 -1.3262  3.5646
   66MOL0     H 8655   6.607   9.838   1.837  2.2184 -0.7893  0.3809
   66MOL0     H 8656   6.568   9.678   1.765  1.8171  2.2349 -1.1792
   66MOL0     H 8657   6.400   9.752   1.993  4.8373 -0.7787  0.7060
   66MOL0     H 8658   6.370   9.643   1.868 -1.3572  0.3724  0.7042
   66MOL0     H 8659   6.387   9.946   1.803 -0.1603 -0.3250  1.3653
   66MOL0     H 8660   6.235   9.874   1.823 -1.4876  0.0810 -0.9230
   66MOL0     H 8661   6.302   9.909   1.586 -2.2592 -2.0480 -1.3656
   66MOL0     H 8662   6.448   9.811   1.606  0.1882 -0.1481 -0.4107
   66MOL0     H 8663   6.184   9.678   1.657 -0.1720 -2.6206 -3.1144
   66MOL0     H 8664   6.334   9.609   1.621 -3.3379 -4.0495 -1.8722
   66MOL0     H 8665   6.411   9.719   1.361  0.1916 -0.6168 -0.6321
   66MOL0     H 8666   6.373   9.807   1.101  0.7640  1.2703  2.2976
   66MOL0     H 8667   6.197   9.835   1.062  0.6821  1.3959  0.5956
   66MOL0     H 8668   6.173   9.570   1.061 -0.1274 -0.0808  1.2025
   66MOL0     H 8669   6.336   9.567   1.087  0.1905  2.0281  0.6911
   66MOL0     H 8670   6.382   9.706   0.882  0.9005 -0.5868 -0.9663
   66MOL0     H 8671   6.322   9.539   0.855  1.7132 -0.3349  1.9399
   66MOL0     H 8672   6.169   9.812   0.848 -0.4465  0.1664  0.7669
   66MOL0     H 8673   6.081   9.662   0.838  1.7329 -3.1177 -1.9177
   66MOL0     H 8674   6.247   9.734   0.420 -0.9443 -1.3176 -4.3584
   66MOL0     H 8675   6.115   9.699   0.238 -0.7602  0.0746  0.3058
   66MOL0     H 8676   5.737   9.351   0.075  0.4348 -0.9487 -0.3956
   66MOL0     H 8677   5.660   9.288  -0.144  0.7221 -1.0949  0.6483
   66MOL0     H 8678   5.774   9.566  -0.450 -2.2631  2.0339 -3.0176
   66MOL0     H 8679   5.605   9.509  -0.436 -0.5400  0.0420 -4.0785
   66MOL0     H 8680   5.809   9.460  -0.639 -1.5776  4.2171 -3.9229
   66MOL0     H 8681   5.641   9.514  -0.650 -1.5312 -1.7807 -2.0604
   66MOL0     H 8682   5.590   9.249  -0.579  2.4896 -0.9235  1.5375
   66MOL0     H 8683   5.770   9.249  -0.600 -0.2777 -0.0882  3.1513
   66MOL0     H 8684   5.557   9.340  -0.809 -0.7299 -0.8021  1.0788
   66MOL0     H 8685   5.722   9.326  -0.844 -0.7453  1.1373 -0.5282
   66MOL0     H 8686   5.723   9.074  -0.824  0.8902  0.6704 -0.7423
   66MOL0     H 8687   5.617   9.149  -0.940 -1.5499 -0.0966  0.6344
   66MOL0     H 8688   5.434   9.121  -0.771  2.4434  4.2870 -1.5370
   66MOL0     H 8689   5.553   9.043  -0.655 -2.2243  0.6495  1.0674
   66MOL0     H 8690   5.467   8.949  -0.930  0.5933 -1.0083  0.2753
   66MOL0     H 8691   5.596   8.871  -0.828 -0.6821 -2.5218 -0.2456
   66MOL0     H 8692   5.294   8.893  -0.743 -0.2356 -0.1330 -0.9245
   66MOL0     H 8693   5.424   8.813  -0.657 -0.1202 -2.6659 -0.6383
   66MOL0     H 8694   5.953   9.536  -0.332  3.4141  1.5995  1.7388
   66MOL0     H 8695   6.018   9.629  -0.106 -2.3078  2.8969 -3.5232
   66MOL0     H 8696   5.795   9.570   0.502  0.9570 -0.9762  2.7944
   66MOL0     H 8697   5.949   9.615   0.694  1.3628  2.0922  1.2329
   66MOL0     H 8698   6.970   9.378   2.150 -1.0203  1.0192 -1.0262
   66MOL0     H 8699   7.147   9.280   2.278 -0.4408  0.2728  1.6252
   66MOL0     H 8700   7.561   9.210   2.487  0.0930 -0.5417 -0.9294
   66MOL0     H 8701   7.770   9.180   2.610  0.1079 -0.9711 -0.7220
   66MOL0     H 8702   8.097   9.233   2.466  0.6453  1.1308  0.1914
   66MOL0     H 8703   7.991   9.142   2.582 -0.0952  0.9768 -0.3668
   66MOL0     H 8704   8.249   9.289   2.637 -0.8156  1.3354 -0.4768
   66MOL0     H 8705   8.146   9.226   2.764 -2.5921  2.0178 -1.0139
   66MOL0     H 8706   8.181   8.995   2.658 -0.3451 -0.3385  0.2937
   66MOL0     H 8707   8.323   9.074   2.740  0.4352 -0.8486  0.0023
   66MOL0     H 8708   8.352   8.950   2.505  1.0178 -0.2398 -0.8988
   66MOL0     H 8709   8.279   9.090   2.435 -2.3393  0.4939  1.0970
   66MOL0     H 8710   8.682   9.179   2.578 -0.1459  1.9800 -0.9949
   66MOL0     H 8711   7.927   9.548   2.482  0.7217 -0.3266  0.8616
   66MOL0     H 8712   7.709   9.609   2.369  1.3738 -0.9758 -2.0291
   67MOL0     O 8713   8.491   8.230   7.302  0.4969 -0.4011  0.4039
   67MOL0     C 8714   8.483   8.216   7.425  0.4089 -0.3300  0.2501
   67MOL0     O 8715   8.361   8.192   7.496  0.4623 -0.5431 -0.3507
   67MOL0     C 8716   8.249   8.205   7.422 -0.0465  0.1706  0.8276
   67MOL0     C 8717   8.192   8.097   7.350  0.2691  0.3462  0.1750
   67MOL0     C 8718   8.073   8.107   7.269 -0.7606 -0.4805 -0.5693
   67MOL0     C 8719   8.026   8.235   7.258 -0.8600 -0.7800  0.4808
   67MOL0     O 8720   7.918   8.271   7.182 -0.3544 -0.5008  0.0772
   67MOL0     C 8721   7.789   8.243   7.245 -0.0102  0.6324 -1.0959
   67MOL0     C 8722   7.718   8.373   7.232 -0.5274  0.4717  0.8317
   67MOL0     C 8723   7.563   8.349   7.227  0.8240  0.1598 -1.6358
   67MOL0     C 8724   7.490   8.484   7.226  0.5934 -0.0874  0.4533
   67MOL0     C 8725   7.335   8.473   7.213  0.3070  0.7618 -0.3790
   67MOL0     C 8726   7.254   8.599   7.173  0.7262  0.4748  0.2483
   67MOL0     C 8727   7.268   8.697   7.293  1.2271  0.3810  0.0497
   67MOL0     C 8728   7.151   8.671   7.387  0.2857  0.7990  0.1548
   67MOL0     N 8729   7.024   8.744   7.348 -0.6630 -0.2780  1.1132
   67MOL0     C 8730   6.979   8.866   7.408  0.4328 -0.2888 -1.1560
   67MOL0     C 8731   6.858   8.887   7.357 -0.0000  0.4826 -0.2607
   67MOL0     C 8732   6.766   8.988   7.410  0.5778  0.3415 -0.2980
   67MOL0     C 8733   6.648   9.011   7.319 -0.0575 -0.9114  0.8645
   67MOL0     C 8734   6.579   9.134   7.387  0.3251  0.3834 -0.7570
   67MOL0     C 8735   6.453   9.152   7.311  0.0246 -0.1320  0.4213
   67MOL0     O 8736   6.357   9.053   7.342 -0.4111  0.0593 -0.0804
   67MOL0     C 8737   6.231   9.106   7.351 -0.4639 -1.2720  0.4720
   67MOL0     C 8738   6.168   9.176   7.247  0.3664  0.0591  0.4247
   67MOL0     C 8739   6.038   9.226   7.258 -0.3595  0.7734  0.5997
   67MOL0     C 8740   5.968   9.220   7.378  0.5294 -0.2371  0.2246
   67MOL0     C 8741   5.842   9.286   7.400 -0.5916 -0.2098  0.3245
   67MOL0     O 8742   5.795   9.272   7.528 -0.7571  0.2334  0.5834
   67MOL0     C 8743   5.684   9.352   7.557 -0.8301  0.4866  0.7753
   67MOL0     C 8744   5.695   9.486   7.558 -0.8203 -1.1198 -0.5697
   67MOL0     C 8745   5.583   9.562   7.592  0.6607  0.0372 -0.0431
   67MOL0     C 8746   5.461   9.501   7.643 -0.2102 -0.4338  0.1993
   67MOL0     O 8747   5.361   9.579   7.684  0.5617  0.4088  0.6617
   67MOL0     C 8748   5.276   9.632   7.581  0.2033  0.1902 -0.7801
   67MOL0     C 8749   5.182   9.531   7.526  1.2198 -0.5284  0.2159
   67MOL0     C 8750   5.074   9.476   7.631  0.8440  0.6260  0.3497
   67MOL0     C 8751   4.987   9.361   7.578 -0.2797 -0.4371  0.9342
   67MOL0     C 8752   4.870   9.328   7.672  0.2391 -0.4351  0.5041
   67MOL0     C 8753   4.927   9.259   7.794 -1.3806  0.4040  1.0878
   67MOL0     C 8754   4.816   9.242   7.884 -0.2082  0.3201  0.8118
   67MOL0     C 8755   4.838   9.140   7.990  0.9058 -0.3619 -0.0066
   67MOL0    Cl 8756   4.683   9.094   8.062 -0.0923 -0.0183 -0.1738
   67MOL0     C 8757   5.462   9.355   7.636 -0.1338  0.7504  0.0803
   67MOL0     C 8758   5.570   9.288   7.585 -0.2846 -0.3826 -0.7453
   67MOL0     O 8759   5.786   9.349   7.307  0.2645 -0.1299  0.1193
   67MOL0     C 8760   6.027   9.143   7.485 -0.0757 -0.3530  0.6909
   67MOL0     C 8761   6.157   9.091   7.466  1.0051  0.0578  0.1156
   67MOL0     N 8762   6.831   8.781   7.273 -0.1940  0.5086  0.0128
   67MOL0     N 8763   6.931   8.697   7.269  0.3946  0.2088 -0.1911
   67MOL0     C 8764   8.080   8.344   7.329  0.7032  0.7950  0.6446
   67MOL0     C 8765   8.191   8.328   7.411 -0.6792  0.0412  0.8887
   67MOL0     C 8766   8.608   8.228   7.505  0.7068 -0.0920 -0.0412
   67MOL0     C 8767   8.722   8.286   7.448  0.0036  0.3209 -0.3717
   67MOL0     C 8768   8.849   8.287   7.507 -0.0612  0.4511  0.1141
   67MOL0     C 8769   8.853   8.236   7.633 -0.6715  0.0712 -0.6555
   67MOL0     O 8770   8.978   8.246   7.693 -0.0551 -0.2245  0.1325
   67MOL0     C 8771   8.980   8.229   7.831 -0.4021 -0.2438  0.3040
   67MOL0     C 8772   9.129   8.233   7.883 -0.6259 -0.0465 -1.1933
   67MOL0     C 8773   9.152   8.218   8.038  0.7467 -0.4623  0.2245
   67MOL0     C 8774   9.297   8.174   8.073  0.0306 -0.5230 -0.2151
   67MOL0     C 8775   9.399   8.285   8.062  0.4847  0.5182  0.9551
   67MOL0     C 8776   9.482   8.373   8.065 -0.0511  0.6364  0.8543
   67MOL0     C 8777   8.747   8.184   7.702 -0.2665 -0.1999  0.2682
   67MOL0     C 8778   8.627   8.181   7.639 -0.0449  0.4856 -0.0892
   67MOL0     H 8779   8.224   7.994   7.340 -2.6028 -0.6516  0.3777
   67MOL0     H 8780   8.027   8.032   7.206  0.9680 -1.6917 -0.4619
   67MOL0     H 8781   7.793   8.223   7.353  0.5739 -5.4185 -1.9239
   67MOL0     H 8782   7.744   8.153   7.202 -2.1160  1.3080 -0.4257
   67MOL0     H 8783   7.754   8.431   7.146  2.6318 -1.5254  0.6278
   67MOL0     H 8784   7.740   8.436   7.318  0.1131  2.0710 -0.4371
   67MOL0     H 8785   7.543   8.300   7.322  0.1480  0.8425 -1.4155
   67MOL0     H 8786   7.531   8.286   7.143 -1.1885 -0.2083 -0.6515
   67MOL0     H 8787   7.519   8.545   7.311 -0.1884 -0.4238  0.9668
   67MOL0     H 8788   7.529   8.534   7.137  1.7098  0.0874  1.0222
   67MOL0     H 8789   7.307   8.429   7.309  2.1331 -1.8157 -0.9100
   67MOL0     H 8790   7.317   8.389   7.146 -4.6146 -0.2054  1.6742
   67MOL0     H 8791   7.147   8.575   7.164  0.4311  1.3922  1.1131
   67MOL0     H 8792   7.286   8.643   7.078 -0.4020  2.0245  0.5333
   67MOL0     H 8793   7.358   8.681   7.354  1.1082 -1.2020 -0.1494
   67MOL0     H 8794   7.263   8.798   7.250  2.6742 -0.0912 -1.3223
   67MOL0     H 8795   7.171   8.697   7.491 -0.0517 -0.8990  0.6783
   67MOL0     H 8796   7.134   8.563   7.395  2.3739  0.4142 -0.0292
   67MOL0     H 8797   7.032   8.932   7.476  0.2555 -1.4883  0.1881
   67MOL0     H 8798   6.824   9.080   7.420  1.6143 -0.4455  1.4301
   67MOL0     H 8799   6.744   8.954   7.511 -0.5298 -0.5216 -0.8025
   67MOL0     H 8800   6.584   8.923   7.317  0.5255 -1.3448 -0.8153
   67MOL0     H 8801   6.681   9.044   7.220 -2.9479  0.6428  0.3255
   67MOL0     H 8802   6.551   9.118   7.491 -1.2116 -1.0799 -1.3502
   67MOL0     H 8803   6.637   9.226   7.373 -0.9577  1.0027 -2.3113
   67MOL0     H 8804   6.468   9.161   7.203 -1.6474  2.3224  0.3017
   67MOL0     H 8805   6.428   9.256   7.335  2.5585  0.3615  1.2565
   67MOL0     H 8806   6.220   9.192   7.153  1.0302  1.2344  0.9724
   67MOL0     H 8807   5.993   9.270   7.170  1.0799  1.8838  0.3760
   67MOL0     H 8808   5.791   9.534   7.540 -1.6445  1.1680  0.7320
   67MOL0     H 8809   5.583   9.670   7.589  0.4283  0.0716  1.0225
   67MOL0     H 8810   5.342   9.663   7.499  2.0789 -1.3371  0.0707
   67MOL0     H 8811   5.224   9.725   7.605  0.2485  0.0349 -0.0544
   67MOL0     H 8812   5.238   9.444   7.491  0.4494 -0.0422 -2.5212
   67MOL0     H 8813   5.137   9.574   7.436  0.7211 -0.4078  0.5142
   67MOL0     H 8814   5.013   9.561   7.662  0.3637 -0.1707  1.6553
   67MOL0     H 8815   5.126   9.439   7.720 -1.1070  0.7500  1.6072
   67MOL0     H 8816   4.941   9.399   7.486  1.0952 -1.5859 -0.2706
   67MOL0     H 8817   5.050   9.273   7.565  1.3706  0.8987 -0.7981
   67MOL0     H 8818   4.809   9.255   7.618 -0.3842  1.3831 -1.3650
   67MOL0     H 8819   4.814   9.417   7.702  2.3961 -0.1771  4.4945
   67MOL0     H 8820   5.000   9.318   7.851 -0.9275 -0.8187  1.8144
   67MOL0     H 8821   4.976   9.165   7.767  1.0665  1.6015  1.1027
   67MOL0     H 8822   4.781   9.342   7.914  1.3451  2.0703 -2.6363
   67MOL0     H 8823   4.732   9.200   7.828 -0.3910  1.6535  0.0491
   67MOL0     H 8824   4.900   9.185   8.068 -0.4868  0.9938  0.3634
   67MOL0     H 8825   4.892   9.049   7.960 -0.8535 -1.9287  1.3875
   67MOL0     H 8826   5.367   9.310   7.667 -1.1385  3.4254  1.1557
   67MOL0     H 8827   5.565   9.181   7.569  0.7576 -0.4851 -0.4974
   67MOL0     H 8828   5.977   9.112   7.576 -0.5243 -2.1985 -0.1357
   67MOL0     H 8829   6.207   9.021   7.533  1.2857 -1.4136 -1.5485
   67MOL0     H 8830   8.022   8.436   7.334 -1.4433 -0.4397 -0.3357
   67MOL0     H 8831   8.241   8.398   7.477  0.4024  0.3860 -0.2616
   67MOL0     H 8832   8.720   8.309   7.342 -1.0910 -1.3969 -0.7580
   67MOL0     H 8833   8.929   8.324   7.444 -1.0146  2.8478  0.1941
   67MOL0     H 8834   8.944   8.127   7.849 -3.6379  0.4483 -1.4171
   67MOL0     H 8835   8.913   8.297   7.884 -1.5737 -1.3557  0.3058
   67MOL0     H 8836   9.200   8.161   7.841 -0.5001 -2.8936  3.2569
   67MOL0     H 8837   9.166   8.330   7.850 -0.7675  0.8794  1.1885
   67MOL0     H 8838   9.088   8.138   8.073  0.9618 -0.0121  1.6976
   67MOL0     H 8839   9.136   8.318   8.079 -3.1908 -0.1889 -1.5151
   67MOL0     H 8840   9.290   8.136   8.175 -2.5670  0.9465  0.2351
   67MOL0     H 8841   9.328   8.095   8.005  2.2398 -0.3544  0.5146
   67MOL0     H 8842   9.558   8.448   8.062  1.2825 -0.7055 -0.9063
   67MOL0     H 8843   8.739   8.146   7.803 -0.4503 -0.5118  0.1370
   67MOL0     H 8844   8.544   8.136   7.691 -2.4322  2.9155 -1.5365
   68MOL0     O 8845   0.157   0.767   0.317 -0.0155  0.2288  0.1848
   68MOL0     C 8846   0.041   0.723   0.299  0.5394 -0.0444 -0.4614
   68MOL0     O 8847  -0.005   0.597   0.296 -0.9011 -0.1526  0.0211
   68MOL0     C 8848   0.072   0.492   0.326 -0.0881  0.3844  0.6315
   68MOL0     C 8849   0.175   0.488   0.422  0.0530 -0.4008  0.8091
   68MOL0     C 8850   0.259   0.377   0.428  0.3042  0.8904 -0.8138
   68MOL0     C 8851   0.239   0.265   0.345  0.7207 -0.0770 -0.2295
   68MOL0     O 8852   0.326   0.160   0.365 -0.5790 -0.0325 -0.5776
   68MOL0     C 8853   0.355   0.064   0.270  0.2214 -0.0609 -0.4425
   68MOL0     C 8854   0.431  -0.052   0.332  0.3488 -0.9476  0.0840
   68MOL0     C 8855   0.359  -0.100   0.460 -0.4324 -1.0977  0.0468
   68MOL0     C 8856   0.429  -0.215   0.522  0.3591 -0.5642  0.0992
   68MOL0     C 8857   0.571  -0.182   0.588  1.0918  0.1300  0.2137
   68MOL0     C 8858   0.612  -0.301   0.662 -0.6494 -1.0241 -0.1034
   68MOL0     C 8859   0.742  -0.278   0.742  0.1312 -0.0909  0.2789
   68MOL0     C 8860   0.784  -0.413   0.798 -0.5643  0.1650 -0.1091
   68MOL0     N 8861   0.914  -0.416   0.871  0.2595  0.7718 -1.0842
   68MOL0     C 8862   0.980  -0.527   0.902  0.8371  0.0310  0.5648
   68MOL0     C 8863   1.086  -0.499   0.986  0.4935 -0.0206 -0.9346
   68MOL0     C 8864   1.184  -0.595   1.049  0.2976 -0.1602  0.2943
   68MOL0     C 8865   1.235  -0.552   1.184  0.6416  0.3136  0.2906
   68MOL0     C 8866   1.129  -0.588   1.300  0.2259 -0.4332 -0.1950
   68MOL0     C 8867   1.112  -0.480   1.406 -0.0826  0.1942  0.3519
   68MOL0     O 8868   0.987  -0.507   1.479  0.6456  0.4297 -0.2248
   68MOL0     C 8869   0.869  -0.470   1.415  0.5560  0.4109  0.0802
   68MOL0     C 8870   0.759  -0.463   1.493 -0.2369  0.2351  0.1366
   68MOL0     C 8871   0.635  -0.418   1.452  0.2642 -0.7706 -0.5695
   68MOL0     C 8872   0.621  -0.368   1.318  0.4745 -0.5374 -0.2131
   68MOL0     C 8873   0.490  -0.309   1.280  0.6972  0.1349  0.4386
   68MOL0     O 8874   0.485  -0.246   1.162  0.3956 -0.0499  0.1477
   68MOL0     C 8875   0.361  -0.233   1.103 -0.6392  0.9751 -1.0132
   68MOL0     C 8876   0.241  -0.319   1.107 -0.3949 -0.2456 -0.2663
   68MOL0     C 8877   0.129  -0.288   1.037  0.3044 -0.8939 -0.5352
   68MOL0     C 8878   0.125  -0.173   0.954 -0.5127 -0.2917  0.1867
   68MOL0     O 8879   0.034  -0.130   0.860 -0.2804  0.9871  0.4424
   68MOL0     C 8880  -0.045  -0.240   0.803 -0.0335  1.2936 -0.4391
   68MOL0     C 8881  -0.129  -0.205   0.684 -0.4715  0.1306  0.1436
   68MOL0     C 8882  -0.041  -0.138   0.570  0.0199 -0.1631  0.1792
   68MOL0     C 8883  -0.135  -0.093   0.462  0.4200 -0.4088 -0.0603
   68MOL0     C 8884  -0.060  -0.032   0.345 -0.0982  0.1138 -0.6450
   68MOL0     C 8885  -0.157   0.021   0.245  0.2468  0.2572  0.2932
   68MOL0     C 8886  -0.241  -0.095   0.179  0.0672 -1.0892  0.4627
   68MOL0     C 8887  -0.300  -0.058   0.049 -0.5418 -0.4253 -0.3112
   68MOL0    Cl 8888  -0.385  -0.213   0.001  0.6234  0.8518 -0.1178
   68MOL0     C 8889   0.230  -0.086   0.960 -0.6105  1.2323  0.4524
   68MOL0     C 8890   0.346  -0.113   1.035 -0.3437 -0.5071 -0.4001
   68MOL0     O 8891   0.396  -0.336   1.356  0.1501 -0.9966  0.1600
   68MOL0     C 8892   0.735  -0.369   1.237 -0.2658 -0.4085  1.2100
   68MOL0     C 8893   0.860  -0.414   1.282 -0.1216  0.6770 -0.4526
   68MOL0     N 8894   1.099  -0.360   0.980  0.7322 -0.6836  0.5282
   68MOL0     N 8895   0.997  -0.311   0.904 -0.4993  0.4881 -1.3755
   68MOL0     C 8896   0.137   0.271   0.256  0.1735  0.1015  0.4234
   68MOL0     C 8897   0.050   0.384   0.244 -0.3715  0.5160 -0.2948
   68MOL0     C 8898  -0.055   0.817   0.257  0.9758  0.0181  0.0835
   68MOL0     C 8899  -0.192   0.784   0.248  0.1989 -0.1274 -0.6230
   68MOL0     C 8900  -0.280   0.872   0.202  0.0468  0.0854 -0.6177
   68MOL0     C 8901  -0.245   1.011   0.181  2.3448  0.1217  0.3019
   68MOL0     O 8902  -0.337   1.096   0.135 -0.6403  0.4996 -0.1084
   68MOL0     C 8903  -0.385   1.071   0.009 -0.4072 -0.0743 -0.6636
   68MOL0     C 8904  -0.533   1.095  -0.001 -0.1796  0.2174 -0.9804
   68MOL0     C 8905  -0.567   1.243   0.040 -0.9648  1.0499  0.3875
   68MOL0     C 8906  -0.710   1.254   0.094  0.2861 -0.9385 -0.1153
   68MOL0     C 8907  -0.820   1.203   0.008 -0.1473 -0.9142 -0.1675
   68MOL0     C 8908  -0.912   1.170  -0.065 -0.2742 -0.7395 -0.4004
   68MOL0     C 8909  -0.114   1.051   0.196 -0.3441  0.7669  0.6317
   68MOL0     C 8910  -0.024   0.953   0.228  0.2001  0.0868 -0.0812
   68MOL0     H 8911   0.207   0.575   0.479  0.6316 -0.8388  1.1648
   68MOL0     H 8912   0.345   0.374   0.495 -2.8218  0.6202  3.6245
   68MOL0     H 8913   0.415   0.114   0.193 -0.2760  1.2327 -0.0112
   68MOL0     H 8914   0.263   0.034   0.221 -2.7591  4.1630  1.9696
   68MOL0     H 8915   0.527  -0.008   0.360  0.8256 -1.5227 -0.6119
   68MOL0     H 8916   0.431  -0.141   0.267 -1.4428 -0.6600 -0.3772
   68MOL0     H 8917   0.259  -0.126   0.425 -1.3199  2.5696 -0.5495
   68MOL0     H 8918   0.344  -0.019   0.532  0.0709 -1.2732  0.3587
   68MOL0     H 8919   0.356  -0.241   0.599 -0.1849  0.3352 -0.1086
   68MOL0     H 8920   0.446  -0.301   0.456 -0.1229 -2.7751  2.6891
   68MOL0     H 8921   0.564  -0.086   0.640  1.5907 -0.1752  0.8636
   68MOL0     H 8922   0.652  -0.165   0.516  0.2164  2.1123 -0.3634
   68MOL0     H 8923   0.636  -0.372   0.583 -0.8240 -0.0475 -1.0691
   68MOL0     H 8924   0.535  -0.336   0.731  0.0637 -0.5661  0.9574
   68MOL0     H 8925   0.823  -0.248   0.675 -1.6747 -0.0201 -2.0005
   68MOL0     H 8926   0.725  -0.199   0.815 -2.9916  3.0858 -3.3972
   68MOL0     H 8927   0.783  -0.477   0.709 -1.6184  0.8455 -0.6173
   68MOL0     H 8928   0.706  -0.454   0.864  0.9108 -0.9989  0.9706
   68MOL0     H 8929   0.946  -0.624   0.868 -1.8868 -0.3690  3.8251
   68MOL0     H 8930   1.280  -0.600   0.996 -0.2855 -6.0106 -0.9404
   68MOL0     H 8931   1.158  -0.701   1.051  1.4641 -0.6466 -3.0313
   68MOL0     H 8932   1.264  -0.446   1.186 -0.0384  0.5577 -1.4523
   68MOL0     H 8933   1.326  -0.603   1.216  0.4546 -0.1851  0.0411
   68MOL0     H 8934   1.033  -0.601   1.249 -2.0033 -0.2000  3.5349
   68MOL0     H 8935   1.143  -0.685   1.349  1.6704 -0.1803 -0.0566
   68MOL0     H 8936   1.122  -0.380   1.364  1.5797 -0.4201 -0.8050
   68MOL0     H 8937   1.197  -0.486   1.475  0.6314  0.9039 -0.4536
   68MOL0     H 8938   0.762  -0.501   1.595 -3.8984  3.9257  1.9464
   68MOL0     H 8939   0.551  -0.422   1.520 -1.1211 -1.2027 -2.2346
   68MOL0     H 8940   0.243  -0.405   1.173  0.6477  1.4236  2.0171
   68MOL0     H 8941   0.040  -0.350   1.043 -1.2859  1.4008  2.0121
   68MOL0     H 8942  -0.115  -0.274   0.880 -1.1888  1.9524 -1.1549
   68MOL0     H 8943   0.019  -0.324   0.776 -3.5645 -1.3177 -1.4334
   68MOL0     H 8944  -0.214  -0.145   0.717 -3.2831 -3.2280 -0.3200
   68MOL0     H 8945  -0.177  -0.294   0.643 -0.7080  1.3040 -2.2586
   68MOL0     H 8946   0.027  -0.214   0.531  4.3085  1.5743  3.3666
   68MOL0     H 8947  -0.001  -0.046   0.615 -5.3151  0.9630  3.6019
   68MOL0     H 8948  -0.184  -0.183   0.422 -0.2871  0.7265 -1.8520
   68MOL0     H 8949  -0.209  -0.026   0.505  0.5589  1.3819 -2.3903
   68MOL0     H 8950   0.016  -0.096   0.300  0.1477 -2.2996  2.8428
   68MOL0     H 8951  -0.001   0.055   0.375  1.6761 -0.9147 -1.0037
   68MOL0     H 8952  -0.100   0.086   0.177  0.3853 -0.3933 -0.2268
   68MOL0     H 8953  -0.236   0.077   0.295  0.4127  1.6875 -0.9515
   68MOL0     H 8954  -0.168  -0.174   0.162  0.6322 -0.4938  0.0931
   68MOL0     H 8955  -0.318  -0.130   0.249  0.6338 -2.6983  0.3219
   68MOL0     H 8956  -0.224  -0.044  -0.028 -1.1305 -1.3909 -1.0893
   68MOL0     H 8957  -0.365   0.029   0.058 -0.2030  0.0693 -2.1373
   68MOL0     H 8958   0.238   0.007   0.905  3.1786  0.2259 -1.0255
   68MOL0     H 8959   0.421  -0.035   1.033 -0.1276 -0.7072 -0.2747
   68MOL0     H 8960   0.744  -0.337   1.133  0.1375  1.8839  1.8871
   68MOL0     H 8961   0.948  -0.398   1.221  0.1714 -3.5115 -1.4216
   68MOL0     H 8962   0.117   0.192   0.186 -2.4395  0.7193  0.3858
   68MOL0     H 8963  -0.031   0.387   0.171 -1.7601 -1.0637  1.0721
   68MOL0     H 8964  -0.224   0.681   0.258 -1.0055  0.2506 -0.5091
   68MOL0     H 8965  -0.380   0.834   0.181  0.5231 -0.7107 -1.5412
   68MOL0     H 8966  -0.376   0.963  -0.007 -3.9730 -1.0360  2.2277
   68MOL0     H 8967  -0.335   1.120  -0.075 -3.1183  1.2373 -1.6172
   68MOL0     H 8968  -0.569   1.070  -0.102 -3.4507 -0.4961  0.2504
   68MOL0     H 8969  -0.594   1.027   0.058  0.2584 -0.2666 -1.0745
   68MOL0     H 8970  -0.559   1.304  -0.051 -1.4333  1.9293  0.9254
   68MOL0     H 8971  -0.492   1.280   0.111  0.1344 -2.5231  1.2791
   68MOL0     H 8972  -0.700   1.187   0.180 -2.0883 -1.1796  0.0310
   68MOL0     H 8973  -0.720   1.361   0.115  0.0720 -0.9557 -0.1352
   68MOL0     H 8974  -0.998   1.143  -0.122  0.2393  1.7871 -2.5970
   68MOL0     H 8975  -0.080   1.154   0.187  2.3659 -0.1444 -0.5278
   68MOL0     H 8976   0.082   0.970   0.243 -0.2637  0.1708  4.2716
   69MOL0     O 8977   2.839   7.302  10.721 -0.7687  1.0811 -0.1007
   69MOL0     C 8978   2.906   7.256  10.806  0.0830 -0.4892 -0.1061
   69MOL0     O 8979   2.897   7.292  10.937  0.2786 -0.4688  1.0855
   69MOL0     C 8980   2.806   7.387  10.970  0.5890  0.2684  0.0845
   69MOL0     C 8981   2.693   7.368  11.040 -0.4008  0.2056 -0.2285
   69MOL0     C 8982   2.613   7.478  11.094  0.3512 -0.3788 -0.2231
   69MOL0     C 8983   2.657   7.610  11.076  0.3384  0.1441  0.4090
   69MOL0     O 8984   2.582   7.713  11.130  0.1677  0.2764  0.4240
   69MOL0     C 8985   2.619   7.714  11.273 -0.0286 -0.0381  0.5108
   69MOL0     C 8986   2.527   7.783  11.373  0.1128 -1.6249  0.2255
   69MOL0     C 8987   2.382   7.777  11.336 -0.4051  0.2712  0.0657
   69MOL0     C 8988   2.331   7.637  11.332  0.5732  0.2849 -0.0035
   69MOL0     C 8989   2.174   7.640  11.314 -0.1117  0.0971  0.6879
   69MOL0     C 8990   2.136   7.646  11.166  0.0274  0.8059  0.1222
   69MOL0     C 8991   1.987   7.648  11.137 -0.1305 -0.0577  0.6655
   69MOL0     C 8992   1.947   7.663  10.993  0.6347  0.3294  0.1482
   69MOL0     N 8993   1.803   7.674  10.984 -0.4106 -0.1245 -0.0059
   69MOL0     C 8994   1.724   7.563  10.986  0.6850  0.1852 -0.0460
   69MOL0     C 8995   1.600   7.615  10.958  0.2531  1.1804 -0.2664
   69MOL0     C 8996   1.473   7.529  10.945  0.1389  0.3750  0.7108
   69MOL0     C 8997   1.489   7.465  10.809  0.9237 -0.3986 -0.7010
   69MOL0     C 8998   1.353   7.415  10.760 -0.3981 -0.0350  0.0192
   69MOL0     C 8999   1.288   7.323  10.853  0.2436 -0.2569 -0.0178
   69MOL0     O 9000   1.207   7.230  10.782  0.3486 -1.0892  0.1938
   69MOL0     C 9001   1.077   7.220  10.819  0.2054 -0.2287  0.0391
   69MOL0     C 9002   1.027   7.233  10.952  0.0895  0.6726  0.8730
   69MOL0     C 9003   0.891   7.246  10.975  0.7738 -0.5417  0.7311
   69MOL0     C 9004   0.798   7.227  10.871  0.1801 -0.0440  0.0916
   69MOL0     C 9005   0.659   7.219  10.881  1.0808  0.8566 -0.5915
   69MOL0     O 9006   0.617   7.142  10.990 -0.5161 -0.0518  0.4607
   69MOL0     C 9007   0.477   7.122  10.999  0.7878  0.3286 -0.1963
   69MOL0     C 9008   0.408   7.149  11.120  0.3162  0.1810  0.0666
   69MOL0     C 9009   0.273   7.135  11.146  0.1063 -0.2994  0.2921
   69MOL0     C 9010   0.192   7.077  11.042 -0.3454 -0.5110 -0.2318
   69MOL0     O 9011   0.053   7.056  11.070 -0.2553  0.2517  0.1681
   69MOL0     C 9012  -0.043   7.006  10.985  0.3073 -0.7389 -1.4843
   69MOL0     C 9013  -0.160   6.958  11.069 -0.7167 -0.6264 -1.5581
   69MOL0     C 9014  -0.301   6.980  11.002  0.0663  0.4715  0.1067
   69MOL0     C 9015  -0.358   7.122  11.042  0.2721  0.0701  0.8694
   69MOL0     C 9016  -0.485   7.168  10.958 -0.2578 -0.1471 -0.2428
   69MOL0     C 9017  -0.605   7.085  11.005 -0.5606  0.1305  0.6296
   69MOL0     C 9018  -0.732   7.153  10.963 -0.0855 -0.0073  0.5373
   69MOL0     C 9019  -0.846   7.061  10.974 -0.1107 -0.0802 -0.0406
   69MOL0    Cl 9020  -0.997   7.135  10.918  0.4973  0.0822  0.0866
   69MOL0     C 9021   0.253   7.026  10.926 -0.1676 -0.1549  0.6909
   69MOL0     C 9022   0.391   7.051  10.902 -1.3509 -0.7043  0.6224
   69MOL0     O 9023   0.584   7.279  10.805  0.6366 -0.0813  0.5117
   69MOL0     C 9024   0.848   7.202  10.743  0.5405  0.9515 -0.0054
   69MOL0     C 9025   0.990   7.197  10.715 -0.1418 -0.3109  0.2644
   69MOL0     N 9026   1.608   7.745  10.947  0.3004 -0.0214 -0.0524
   69MOL0     N 9027   1.727   7.781  10.965 -0.3356  0.0947 -0.1426
   69MOL0     C 9028   2.772   7.632  11.003  0.6515 -0.1299 -0.3584
   69MOL0     C 9029   2.844   7.516  10.949 -0.1754 -0.6705 -0.0040
   69MOL0     C 9030   2.982   7.130  10.770  0.6816 -0.1285 -0.0753
   69MOL0     C 9031   3.062   7.055  10.865 -0.1437  0.6476  0.4170
   69MOL0     C 9032   3.139   6.947  10.824  0.5467  1.1736  0.1124
   69MOL0     C 9033   3.120   6.884  10.697 -0.0044 -0.9067 -0.3640
   69MOL0     O 9034   3.152   6.760  10.654  0.6240  0.2056 -0.9593
   69MOL0     C 9035   3.241   6.680  10.743 -0.3070 -0.0611  0.6432
   69MOL0     C 9036   3.384   6.720  10.745 -0.8404 -1.2025 -0.4576
   69MOL0     C 9037   3.463   6.699  10.614  0.6967  0.4342 -0.7379
   69MOL0     C 9038   3.424   6.571  10.535 -0.1885  0.4113  0.1327
   69MOL0     C 9039   3.517   6.557  10.432 -0.0472 -0.1800  1.0145
   69MOL0     C 9040   3.597   6.546  10.341  0.2198  0.4869  0.0115
   69MOL0     C 9041   3.039   6.956  10.607  0.3748  0.2930 -1.3967
   69MOL0     C 9042   2.980   7.081  10.634  0.2917  0.6904  0.5346
   69MOL0     H 9043   2.670   7.266  11.070 -0.4187 -0.6079 -2.7308
   69MOL0     H 9044   2.524   7.466  11.155  0.5723  4.4499  1.4363
   69MOL0     H 9045   2.710   7.774  11.281 -0.1614  0.2633 -0.2209
   69MOL0     H 9046   2.641   7.611  11.302  0.0949 -1.2842 -3.4294
   69MOL0     H 9047   2.557   7.886  11.352 -1.4396 -1.6960 -2.9438
   69MOL0     H 9048   2.542   7.747  11.475 -2.5566 -2.6325  0.3311
   69MOL0     H 9049   2.364   7.828  11.241 -0.7731 -0.2273 -0.1358
   69MOL0     H 9050   2.326   7.829  11.414 -1.8324 -2.6259  1.1421
   69MOL0     H 9051   2.372   7.585  11.245  0.3002  0.7403 -0.4085
   69MOL0     H 9052   2.354   7.587  11.427  3.2622  1.0723 -0.1627
   69MOL0     H 9053   2.117   7.708  11.378  0.6583  1.0204  0.4126
   69MOL0     H 9054   2.136   7.544  11.350  0.2557 -0.6275 -0.7676
   69MOL0     H 9055   2.184   7.561  11.118  1.7416  0.1848  2.7184
   69MOL0     H 9056   2.189   7.737  11.135  1.5321  0.9275  2.7114
   69MOL0     H 9057   1.954   7.553  11.180  0.8483 -1.4955 -1.5935
   69MOL0     H 9058   1.935   7.731  11.186 -2.8582 -1.3872  0.1936
   69MOL0     H 9059   1.990   7.579  10.938 -1.2721 -0.7682  0.2424
   69MOL0     H 9060   1.987   7.752  10.943 -2.5134  0.0771 -3.1509
   69MOL0     H 9061   1.755   7.461  11.007 -0.9554 -0.5228 -0.9281
   69MOL0     H 9062   1.387   7.596  10.946  1.3310  1.9544  1.5304
   69MOL0     H 9063   1.457   7.449  11.018  3.7553  0.8993  2.3285
   69MOL0     H 9064   1.562   7.384  10.813  0.4152 -0.8353  3.0128
   69MOL0     H 9065   1.524   7.544  10.741  1.1591  3.4184  3.3602
   69MOL0     H 9066   1.279   7.490  10.732 -1.4336 -1.0973 -0.1972
   69MOL0     H 9067   1.379   7.358  10.671  0.0383  3.5025 -2.3182
   69MOL0     H 9068   1.241   7.382  10.932 -4.6091 -1.7191 -1.4408
   69MOL0     H 9069   1.359   7.260  10.907 -0.3693 -3.2077 -2.3229
   69MOL0     H 9070   1.104   7.246  11.028  0.7533  3.4667 -0.1546
   69MOL0     H 9071   0.862   7.270  11.077 -2.0015 -0.7956  0.0719
   69MOL0     H 9072   0.468   7.212  11.185  0.3264 -0.0708  0.3017
   69MOL0     H 9073   0.224   7.156  11.241  0.1209 -1.5257  0.5976
   69MOL0     H 9074  -0.006   6.915  10.937 -1.1504 -1.5589 -1.0917
   69MOL0     H 9075  -0.075   7.089  10.921 -0.6838 -0.5846 -0.8131
   69MOL0     H 9076  -0.162   7.011  11.164 -1.9764 -2.6608 -0.3731
   69MOL0     H 9077  -0.153   6.855  11.107 -1.9235 -0.2216 -0.1416
   69MOL0     H 9078  -0.364   6.893  11.020  2.3550 -0.9536  1.7046
   69MOL0     H 9079  -0.287   6.971  10.893 -0.0213  0.1743  0.1188
   69MOL0     H 9080  -0.381   7.142  11.147  1.0098  1.3484  0.8140
   69MOL0     H 9081  -0.278   7.193  11.019 -0.9209  0.5226 -2.3708
   69MOL0     H 9082  -0.462   7.153  10.852 -1.6242  1.2424 -0.7706
   69MOL0     H 9083  -0.491   7.277  10.967  0.7325 -0.2564  4.0827
   69MOL0     H 9084  -0.598   7.089  11.114  0.4979 -0.5588  0.6077
   69MOL0     H 9085  -0.597   6.984  10.963  0.4904  1.1467 -1.7857
   69MOL0     H 9086  -0.758   7.247  11.013 -1.5699 -0.0553 -0.1082
   69MOL0     H 9087  -0.728   7.187  10.859  2.0013  2.2188  1.2452
   69MOL0     H 9088  -0.862   7.037  11.080  2.5636 -1.3298  0.1690
   69MOL0     H 9089  -0.826   6.976  10.908  2.9634  0.8948 -0.5548
   69MOL0     H 9090   0.195   6.974  10.851  2.1982 -0.0459 -1.3433
   69MOL0     H 9091   0.442   7.021  10.810  3.1052  0.3105  2.4794
   69MOL0     H 9092   0.777   7.194  10.661 -0.0558 -0.2703  0.6052
   69MOL0     H 9093   1.033   7.197  10.615  1.3277  0.8137  0.8457
   69MOL0     H 9094   2.798   7.727  10.959 -1.2316 -0.2755 -1.9447
   69MOL0     H 9095   2.931   7.543  10.890 -0.5649 -0.6448 -0.5794
   69MOL0     H 9096   3.065   7.073  10.972 -0.5401  0.1075  0.5221
   69MOL0     H 9097   3.198   6.894  10.899 -1.7842 -1.0064  0.5499
   69MOL0     H 9098   3.240   6.580  10.700  1.1386  0.5563 -0.9356
   69MOL0     H 9099   3.192   6.681  10.841 -3.5443  0.0414 -0.8466
   69MOL0     H 9100   3.385   6.827  10.766 -2.6280 -1.1984 -0.2996
   69MOL0     H 9101   3.430   6.674  10.833  1.2933  2.2500  0.4424
   69MOL0     H 9102   3.566   6.688  10.649  0.2069  0.5426  0.8202
   69MOL0     H 9103   3.459   6.790  10.553  1.7377  2.6021  2.2245
   69MOL0     H 9104   3.440   6.482  10.596  0.5194  0.7793  0.4936
   69MOL0     H 9105   3.323   6.578  10.494  0.6292  1.0777 -1.9188
   69MOL0     H 9106   3.672   6.522  10.268  0.4069  0.9147  0.0595
   69MOL0     H 9107   3.024   6.896  10.517 -1.0633 -0.5325 -0.6360
   69MOL0     H 9108   2.923   7.123  10.552 -0.4061 -1.0659  0.0857
   70MOL0     O 9109   2.340   7.387   4.329  0.0525 -0.2364 -0.1895
   70MOL0     C 9110   2.260   7.299   4.362 -0.0195  0.8564 -0.4888
   70MOL0     O 9111   2.130   7.273   4.326 -0.1004  0.4047  0.2551
   70MOL0     C 9112   2.086   7.367   4.239 -0.7526  0.4756  0.5377
   70MOL0     C 9113   2.134   7.421   4.118  0.3885  0.4074 -0.6440
   70MOL0     C 9114   2.055   7.502   4.039 -0.2153  0.2346  0.6004
   70MOL0     C 9115   1.921   7.522   4.072  0.7090 -0.0640  0.3887
   70MOL0     O 9116   1.831   7.581   3.989  0.1311 -0.6655  0.3309
   70MOL0     C 9117   1.866   7.718   3.953  0.3302  0.1374  0.6052
   70MOL0     C 9118   1.734   7.791   3.898  1.4744 -0.0682 -0.7954
   70MOL0     C 9119   1.596   7.726   3.952 -0.2136 -0.2847  0.0608
   70MOL0     C 9120   1.566   7.780   4.096  0.2916  0.0880 -0.1764
   70MOL0     C 9121   1.416   7.744   4.137  0.3692 -0.6613 -0.3388
   70MOL0     C 9122   1.309   7.826   4.067 -0.8942  0.0363  0.3992
   70MOL0     C 9123   1.165   7.798   4.129  0.2287  0.5856  0.4070
   70MOL0     C 9124   1.102   7.669   4.087 -0.4888  0.1841  0.3820
   70MOL0     N 9125   0.990   7.632   4.180 -0.8622 -0.0328  0.0538
   70MOL0     C 9126   1.009   7.522   4.269 -0.2638  0.0876 -1.1326
   70MOL0     C 9127   0.891   7.528   4.332  0.8654 -0.1309  0.4957
   70MOL0     C 9128   0.838   7.417   4.413 -0.3124 -0.6443 -0.3447
   70MOL0     C 9129   0.830   7.287   4.342  0.1478  0.3221  0.1253
   70MOL0     C 9130   0.758   7.303   4.211  0.1850  0.6859 -0.2462
   70MOL0     C 9131   0.597   7.315   4.223  0.0863  0.0765  0.1571
   70MOL0     O 9132   0.537   7.228   4.134 -0.6140  0.6209 -0.0968
   70MOL0     C 9133   0.406   7.251   4.107 -1.2398  0.0909 -0.6150
   70MOL0     C 9134   0.324   7.324   4.196  0.4941 -0.0827 -1.1172
   70MOL0     C 9135   0.193   7.352   4.163  0.1145 -0.6454  1.0457
   70MOL0     C 9136   0.135   7.290   4.044  0.1028 -0.4071 -0.3750
   70MOL0     C 9137  -0.014   7.310   4.018  0.2234 -0.1824  0.1234
   70MOL0     O 9138  -0.089   7.350   4.118  0.9073 -0.6083 -0.0215
   70MOL0     C 9139  -0.221   7.370   4.113 -0.1364 -1.5205  0.4444
   70MOL0     C 9140  -0.276   7.462   4.209 -0.0771 -0.1448  0.1509
   70MOL0     C 9141  -0.409   7.502   4.203  0.0899 -0.0201 -0.2173
   70MOL0     C 9142  -0.491   7.434   4.115  0.2820 -0.1105 -0.0460
   70MOL0     O 9143  -0.626   7.459   4.121 -0.7942  0.0545 -0.7083
   70MOL0     C 9144  -0.683   7.592   4.103  0.2721  1.5113  0.5406
   70MOL0     C 9145  -0.807   7.572   4.013  0.4726  1.0278 -0.2923
   70MOL0     C 9146  -0.889   7.699   3.995 -0.1278 -0.1980  0.2688
   70MOL0     C 9147  -0.997   7.668   3.892  0.9097 -0.2972 -0.5146
   70MOL0     C 9148  -1.086   7.788   3.878 -0.5987 -0.7214  0.0104
   70MOL0     C 9149  -1.178   7.762   3.758 -0.1423  0.1788  0.3070
   70MOL0     C 9150  -1.255   7.890   3.704  0.5283  0.6469  0.0797
   70MOL0     C 9151  -1.403   7.875   3.741  0.1307 -0.1664  0.7275
   70MOL0    Cl 9152  -1.476   8.029   3.683  0.0961 -0.1839  0.1835
   70MOL0     C 9153  -0.443   7.346   4.011  1.0609  0.7767 -0.6077
   70MOL0     C 9154  -0.306   7.319   4.015 -0.2733 -1.0200 -0.5847
   70MOL0     O 9155  -0.038   7.314   3.898  0.7606  0.3534 -0.4331
   70MOL0     C 9156   0.220   7.227   3.952 -0.3607 -0.9668  0.5025
   70MOL0     C 9157   0.351   7.210   3.981 -0.8360  0.0121  0.1817
   70MOL0     N 9158   0.820   7.642   4.294  0.0235 -0.6695  0.5658
   70MOL0     N 9159   0.882   7.702   4.209  0.0651 -0.8741  0.7150
   70MOL0     C 9160   1.877   7.469   4.189 -0.6484 -0.8723 -0.4987
   70MOL0     C 9161   1.954   7.397   4.272 -0.5249  0.5056  0.5475
   70MOL0     C 9162   2.302   7.192   4.458 -0.4462 -0.3954 -0.0380
   70MOL0     C 9163   2.433   7.192   4.502 -0.3498  0.0559 -0.1958
   70MOL0     C 9164   2.479   7.117   4.608 -0.5392  0.4428  0.0436
   70MOL0     C 9165   2.393   7.023   4.667 -0.2324  0.4660 -0.0693
   70MOL0     O 9166   2.439   6.938   4.762 -0.5778 -0.3116 -0.6466
   70MOL0     C 9167   2.380   6.809   4.779 -0.1908  0.0936 -0.7278
   70MOL0     C 9168   2.479   6.695   4.798  0.2900 -0.5080 -0.6814
   70MOL0     C 9169   2.528   6.678   4.942  1.1610 -0.2029 -0.5026
   70MOL0     C 9170   2.631   6.569   4.940 -0.7125  0.5316  0.1877
   70MOL0     C 9171   2.663   6.507   5.065 -0.2744  0.3179 -0.5187
   70MOL0     C 9172   2.680   6.447   5.167 -0.1157  0.4487 -0.4851
   70MOL0     C 9173   2.255   7.022   4.633  0.2461 -0.3190 -0.1314
   70MOL0     C 9174   2.211   7.105   4.521 -0.3264 -0.1292 -1.0230
   70MOL0     H 9175   2.234   7.402   4.082  0.1807  0.3421 -1.1939
   70MOL0     H 9176   2.100   7.543   3.949  0.9331 -2.4281 -0.1132
   70MOL0     H 9177   1.948   7.723   3.881 -0.3377 -1.0791 -0.2778
   70MOL0     H 9178   1.902   7.753   4.050 -0.1443 -1.4730  1.3877
   70MOL0     H 9179   1.730   7.779   3.789  0.5249  1.3442 -0.9411
   70MOL0     H 9180   1.737   7.898   3.917  0.6612  0.2091 -2.1052
   70MOL0     H 9181   1.597   7.617   3.950  0.4854 -0.2969  0.5472
   70MOL0     H 9182   1.511   7.753   3.888 -1.1581 -1.4687  0.7782
   70MOL0     H 9183   1.634   7.730   4.165  1.0857  0.9178 -0.3463
   70MOL0     H 9184   1.579   7.889   4.103 -2.4751  0.5579 -0.8238
   70MOL0     H 9185   1.398   7.776   4.240  0.1334 -1.2641 -0.1904
   70MOL0     H 9186   1.379   7.642   4.132 -5.0349  0.7381  2.7700
   70MOL0     H 9187   1.321   7.818   3.959  3.2455 -0.1535  0.7350
   70MOL0     H 9188   1.324   7.931   4.094  0.4832 -0.5369  2.0081
   70MOL0     H 9189   1.189   7.783   4.235  1.1994 -0.5541  0.0480
   70MOL0     H 9190   1.101   7.880   4.096 -0.3229  0.2755  0.6883
   70MOL0     H 9191   1.180   7.593   4.096 -0.6395 -0.0108  0.0515
   70MOL0     H 9192   1.080   7.672   3.980  0.5465  0.2856  0.1570
   70MOL0     H 9193   1.091   7.452   4.286 -0.3930  0.6342  2.3601
   70MOL0     H 9194   0.739   7.449   4.450  1.1315  1.8261  1.7591
   70MOL0     H 9195   0.902   7.399   4.500  0.2074 -0.4484 -0.6839
   70MOL0     H 9196   0.797   7.207   4.408  2.5165  1.0648  2.4087
   70MOL0     H 9197   0.933   7.261   4.316  0.4795 -0.1520  1.8134
   70MOL0     H 9198   0.803   7.374   4.141 -2.1175  0.6009 -1.9453
   70MOL0     H 9199   0.774   7.219   4.142 -0.9151 -0.0479  0.3657
   70MOL0     H 9200   0.569   7.419   4.201 -2.9397 -1.0323 -1.7954
   70MOL0     H 9201   0.560   7.299   4.324  2.0279 -2.0838  0.5916
   70MOL0     H 9202   0.365   7.362   4.289 -2.3811  2.1115 -0.6210
   70MOL0     H 9203   0.137   7.402   4.242  0.0911  0.3488  0.4021
   70MOL0     H 9204  -0.207   7.508   4.278  1.3469  0.1939 -1.4234
   70MOL0     H 9205  -0.443   7.573   4.277  4.3354  0.0301  1.9669
   70MOL0     H 9206  -0.605   7.648   4.051  2.5098 -1.5040  0.4258
   70MOL0     H 9207  -0.701   7.633   4.203  2.3350 -1.4002  2.2461
   70MOL0     H 9208  -0.858   7.488   4.060 -0.0239  1.3897 -0.1839
   70MOL0     H 9209  -0.784   7.530   3.915 -0.7446 -0.5923  0.0779
   70MOL0     H 9210  -0.833   7.784   3.957  0.2646  0.0821  1.4258
   70MOL0     H 9211  -0.936   7.728   4.090 -1.3494 -1.9196  0.2520
   70MOL0     H 9212  -0.959   7.633   3.796  2.5047 -0.4695  0.1568
   70MOL0     H 9213  -1.059   7.585   3.928 -0.4029  1.7589  2.4535
   70MOL0     H 9214  -1.017   7.872   3.864 -0.2591 -1.3288 -2.4965
   70MOL0     H 9215  -1.137   7.816   3.971 -0.3436  0.3096 -0.1411
   70MOL0     H 9216  -1.244   7.676   3.756 -0.5904  0.4562  2.0358
   70MOL0     H 9217  -1.103   7.744   3.680 -0.6219 -0.4512 -0.0088
   70MOL0     H 9218  -1.219   7.986   3.740 -3.4202  2.9808 -1.5645
   70MOL0     H 9219  -1.240   7.877   3.596  0.4608  0.0260  0.1415
   70MOL0     H 9220  -1.429   7.876   3.847 -1.9584  0.4689  0.2641
   70MOL0     H 9221  -1.439   7.778   3.703 -0.6950 -0.0404  1.1582
   70MOL0     H 9222  -0.505   7.321   3.926  0.5111 -0.8989  0.2511
   70MOL0     H 9223  -0.269   7.260   3.932 -1.0043 -2.0118 -0.2138
   70MOL0     H 9224   0.183   7.205   3.852 -0.8957  1.1957  0.1610
   70MOL0     H 9225   0.422   7.164   3.912  0.1134 -1.4897  2.0529
   70MOL0     H 9226   1.777   7.488   4.229  0.3401  1.6111  1.0008
   70MOL0     H 9227   1.910   7.339   4.353  0.4001  3.2971  3.2693
   70MOL0     H 9228   2.503   7.269   4.469 -1.0678  1.7396  1.9659
   70MOL0     H 9229   2.575   7.145   4.650  0.1773  1.5948 -2.2146
   70MOL0     H 9230   2.298   6.782   4.712 -0.3952 -1.0041 -0.0661
   70MOL0     H 9231   2.329   6.811   4.876  1.5400  3.8517  0.2868
   70MOL0     H 9232   2.426   6.602   4.778 -0.5848 -0.1374 -0.1480
   70MOL0     H 9233   2.565   6.705   4.731  0.5419  1.7830 -0.1196
   70MOL0     H 9234   2.454   6.647   5.016 -0.9201  2.9212 -1.0543
   70MOL0     H 9235   2.574   6.768   4.985  0.8962 -0.0406 -0.5585
   70MOL0     H 9236   2.603   6.489   4.870 -3.0345  1.3652  0.0812
   70MOL0     H 9237   2.729   6.604   4.905  1.4617 -2.9276  2.1935
   70MOL0     H 9238   2.704   6.391   5.256 -0.5853  3.5128  1.7359
   70MOL0     H 9239   2.181   6.963   4.686  1.7332 -0.1214  2.3008
   70MOL0     H 9240   2.103   7.099   4.510 -0.9611  2.2958  2.3465
   71MOL0     O 9241   3.908   7.822  10.255  0.1200  0.1422  0.4367
   71MOL0     C 9242   3.841   7.818  10.151 -0.5653 -0.4532 -0.2971
   71MOL0     O 9243   3.715   7.873  10.129 -0.2000 -0.3760  1.0203
   71MOL0     C 9244   3.647   7.904  10.243 -0.5864 -0.5010  0.8952
   71MOL0     C 9245   3.588   7.798  10.317 -0.9096 -0.2017 -0.8347
   71MOL0     C 9246   3.532   7.838  10.438 -0.7313 -0.2714  0.3160
   71MOL0     C 9247   3.529   7.973  10.485 -0.2129  1.3222 -0.0620
   71MOL0     O 9248   3.431   7.991  10.585  0.7225  0.0041  0.9701
   71MOL0     C 9249   3.343   8.101  10.570  0.4728  0.2467  0.6961
   71MOL0     C 9250   3.263   8.108  10.695  0.6630 -0.1115  0.0502
   71MOL0     C 9251   3.166   8.235  10.715  0.2675  0.7711 -0.2836
   71MOL0     C 9252   3.026   8.210  10.645 -0.1504 -0.1264 -0.3007
   71MOL0     C 9253   2.932   8.330  10.688 -0.4011 -0.0884 -0.0670
   71MOL0     C 9254   2.972   8.450  10.607  0.0384 -0.7137 -0.7419
   71MOL0     C 9255   2.885   8.565  10.648  0.7256  0.6014  0.0829
   71MOL0     C 9256   2.729   8.536  10.663 -0.6591  0.4725  0.2001
   71MOL0     N 9257   2.646   8.652  10.659 -0.0315 -1.0806  0.6112
   71MOL0     C 9258   2.639   8.757  10.747 -0.8456  0.1764 -0.6471
   71MOL0     C 9259   2.533   8.830  10.705  1.2844  0.1204 -0.5599
   71MOL0     C 9260   2.474   8.950  10.773 -0.4396  0.9569  0.1998
   71MOL0     C 9261   2.391   9.034  10.664  0.3809 -1.6374  0.5706
   71MOL0     C 9262   2.473   9.148  10.586 -0.2702  0.1639 -0.1325
   71MOL0     C 9263   2.608   9.102  10.520  0.7136  0.2585  0.7164
   71MOL0     O 9264   2.714   9.066  10.613 -0.3355  0.1341 -0.5935
   71MOL0     C 9265   2.828   9.006  10.570  0.0505 -0.2284 -0.1090
   71MOL0     C 9266   2.926   8.971  10.668  0.1176  0.6916  0.1214
   71MOL0     C 9267   3.026   8.882  10.634 -0.1140 -0.7782  0.5784
   71MOL0     C 9268   3.049   8.849  10.493  0.5963  0.4228 -0.3291
   71MOL0     C 9269   3.155   8.758  10.458  0.2576  0.2193 -0.4900
   71MOL0     O 9270   3.160   8.704  10.332 -1.1090 -0.2159 -0.3979
   71MOL0     C 9271   3.282   8.653  10.303 -0.4148 -0.0507  0.5068
   71MOL0     C 9272   3.360   8.704  10.194  0.2742 -0.2951 -0.2963
   71MOL0     C 9273   3.478   8.639  10.147  0.0954  0.4308  0.4072
   71MOL0     C 9274   3.532   8.532  10.221 -0.6031 -0.2388 -0.3319
   71MOL0     O 9275   3.655   8.486  10.192  0.4447  0.3748  0.5634
   71MOL0     C 9276   3.721   8.525  10.067  0.1243 -0.4310  0.2262
   71MOL0     C 9277   3.863   8.487  10.075  0.7047  0.2485 -0.4279
   71MOL0     C 9278   3.880   8.344  10.129 -0.3017 -0.3742 -1.1672
   71MOL0     C 9279   4.030   8.311  10.115  0.6425 -0.0985 -0.3778
   71MOL0     C 9280   4.051   8.161  10.144 -0.1808 -0.3543  0.7869
   71MOL0     C 9281   4.204   8.124  10.139 -0.6546 -1.1949 -0.5861
   71MOL0     C 9282   4.241   7.979  10.140 -0.5901  0.2915  0.1359
   71MOL0     C 9283   4.364   7.949  10.055 -0.4639  0.6606  0.5660
   71MOL0    Cl 9284   4.373   7.771  10.023 -0.2042  0.2367 -0.1498
   71MOL0     C 9285   3.469   8.484  10.327 -0.4784 -0.5219  0.7331
   71MOL0     C 9286   3.335   8.539  10.364  0.1115  0.6118  0.8020
   71MOL0     O 9287   3.234   8.735  10.549 -0.0020 -0.5199 -0.0077
   71MOL0     C 9288   2.960   8.886  10.396  0.1281 -0.1000 -0.3593
   71MOL0     C 9289   2.845   8.964  10.436  0.2886 -0.6503  0.1055
   71MOL0     N 9290   2.492   8.785  10.581  0.1932 -0.2248 -0.0858
   71MOL0     N 9291   2.549   8.666  10.566 -0.2675 -0.9919 -0.3112
   71MOL0     C 9292   3.587   8.074  10.406  0.3606  0.1718  0.6899
   71MOL0     C 9293   3.642   8.031  10.287  0.2726 -0.1935  0.1172
   71MOL0     C 9294   3.903   7.746  10.029 -0.4434  0.1777 -1.0200
   71MOL0     C 9295   4.001   7.649  10.052  0.5435 -0.3724 -0.3858
   71MOL0     C 9296   4.056   7.583   9.946  0.7299 -0.5558  0.0154
   71MOL0     C 9297   4.015   7.614   9.809 -0.1679  0.9284  0.1720
   71MOL0     O 9298   4.058   7.530   9.704 -0.3888  0.4457  0.8168
   71MOL0     C 9299   4.006   7.561   9.578  0.3458 -0.6208  0.5485
   71MOL0     C 9300   4.041   7.463   9.459  0.1399 -0.5119 -0.3771
   71MOL0     C 9301   4.195   7.414   9.459 -0.1426 -1.4997 -0.5837
   71MOL0     C 9302   4.214   7.297   9.351  0.3697 -0.8127  0.0826
   71MOL0     C 9303   4.343   7.218   9.365  0.4110  0.7281  0.4927
   71MOL0     C 9304   4.454   7.175   9.380 -0.3114  1.2896  1.0051
   71MOL0     C 9305   3.925   7.720   9.797 -0.3200 -0.2434 -0.4541
   71MOL0     C 9306   3.865   7.780   9.901  1.0891  0.1392  0.0673
   71MOL0     H 9307   3.577   7.696  10.280  2.6567 -1.5614  1.2823
   71MOL0     H 9308   3.471   7.760  10.482 -4.1785  1.7675 -0.4159
   71MOL0     H 9309   3.273   8.092  10.487  0.3037  0.4320  0.8196
   71MOL0     H 9310   3.399   8.194  10.562  3.6052 -1.4481  1.2680
   71MOL0     H 9311   3.334   8.101  10.779  0.0638 -1.9803  0.4506
   71MOL0     H 9312   3.204   8.016  10.694  1.5636 -0.6919 -0.4557
   71MOL0     H 9313   3.222   8.326  10.690  0.9044  0.5712  0.3866
   71MOL0     H 9314   3.142   8.244  10.821  0.4959 -1.9558  0.0710
   71MOL0     H 9315   3.015   8.200  10.537 -2.5315 -0.8049 -0.0617
   71MOL0     H 9316   2.989   8.117  10.690 -4.8443  1.6504  0.0910
   71MOL0     H 9317   2.959   8.350  10.792 -1.4777  3.0182 -0.2755
   71MOL0     H 9318   2.828   8.295  10.685 -0.4980  0.2573 -1.4932
   71MOL0     H 9319   2.954   8.430  10.501  1.0061 -2.8516 -0.5618
   71MOL0     H 9320   3.077   8.475  10.627  0.1342 -2.1482  0.7795
   71MOL0     H 9321   2.919   8.612  10.740 -2.3705  1.6425  0.8124
   71MOL0     H 9322   2.887   8.638  10.567 -0.0258 -2.0552 -2.5147
   71MOL0     H 9323   2.721   8.484  10.759  0.4653  1.2434  0.7313
   71MOL0     H 9324   2.703   8.464  10.585  2.7551 -2.1553  1.2488
   71MOL0     H 9325   2.705   8.773  10.832 -1.6252  0.3810 -0.0654
   71MOL0     H 9326   2.555   9.008  10.815  0.7472  0.6308 -1.5212
   71MOL0     H 9327   2.411   8.917  10.857  1.2790 -0.2615  1.0772
   71MOL0     H 9328   2.310   9.091  10.710 -0.8175 -3.0247  0.2769
   71MOL0     H 9329   2.339   8.968  10.594  2.1981 -0.7397 -1.7748
   71MOL0     H 9330   2.409   9.198  10.513 -0.0313  1.5060  0.5481
   71MOL0     H 9331   2.494   9.226  10.660  0.7650 -0.4344  0.2213
   71MOL0     H 9332   2.635   9.176  10.444 -0.6240 -0.8566 -0.9175
   71MOL0     H 9333   2.574   9.009  10.474 -1.0739  0.8451  0.7844
   71MOL0     H 9334   2.899   9.008  10.766  0.4443 -1.3588  1.0320
   71MOL0     H 9335   3.092   8.845  10.712 -2.2097  1.9556  3.9523
   71MOL0     H 9336   3.313   8.785  10.140  1.6018  0.4598 -0.3552
   71MOL0     H 9337   3.515   8.679  10.053 -1.2188  0.9338  0.0802
   71MOL0     H 9338   3.708   8.633  10.053  0.2072  0.0375  3.0927
   71MOL0     H 9339   3.688   8.471   9.978  1.1296 -0.3052 -0.2335
   71MOL0     H 9340   3.920   8.555  10.139  0.9544  1.3204 -1.7382
   71MOL0     H 9341   3.906   8.485   9.974 -0.8404  1.2059 -1.1429
   71MOL0     H 9342   3.828   8.269  10.069  2.0502 -1.6740 -1.7320
   71MOL0     H 9343   3.854   8.341  10.235 -2.6036 -2.7341 -1.7158
   71MOL0     H 9344   4.063   8.322  10.011  1.4179 -0.5641 -0.1867
   71MOL0     H 9345   4.095   8.366  10.184 -1.4370 -0.0024  1.6156
   71MOL0     H 9346   4.014   8.105  10.058  0.6444 -1.2018  0.9555
   71MOL0     H 9347   3.999   8.126  10.233  0.5666  0.2284  1.4743
   71MOL0     H 9348   4.245   8.177  10.225  2.2052 -1.0199 -1.9411
   71MOL0     H 9349   4.244   8.162  10.044  0.6305 -0.7166  0.1249
   71MOL0     H 9350   4.269   7.951  10.242 -0.0341  2.8915  0.7666
   71MOL0     H 9351   4.147   7.927  10.123 -0.9582  0.5374  1.3485
   71MOL0     H 9352   4.451   7.982  10.112  0.1754  0.4139 -0.2522
   71MOL0     H 9353   4.359   7.996   9.956 -0.1789 -0.5309 -0.0314
   71MOL0     H 9354   3.513   8.404  10.385  2.9297  1.8024  1.6901
   71MOL0     H 9355   3.293   8.473  10.439 -0.2142 -3.8166 -2.8167
   71MOL0     H 9356   2.947   8.863  10.291 -2.8547  1.5966 -0.4823
   71MOL0     H 9357   2.764   8.982  10.366 -0.3667  2.1129  1.4236
   71MOL0     H 9358   3.586   8.178  10.439 -1.4633  0.6793 -0.7826
   71MOL0     H 9359   3.684   8.112  10.228 -0.6897 -0.1251 -0.4974
   71MOL0     H 9360   4.030   7.613  10.150 -0.3940  0.1035  0.0865
   71MOL0     H 9361   4.115   7.497   9.972 -1.5800 -0.9699  5.0505
   71MOL0     H 9362   4.047   7.657   9.544  1.3146  0.1368  3.5519
   71MOL0     H 9363   3.898   7.577   9.587  0.6563  1.5241  1.0447
   71MOL0     H 9364   3.978   7.376   9.480 -1.3205  0.8014  0.9273
   71MOL0     H 9365   4.008   7.493   9.359 -0.5053 -5.9230 -2.1226
   71MOL0     H 9366   4.225   7.381   9.559 -4.7021  0.1664  1.6159
   71MOL0     H 9367   4.259   7.494   9.421 -3.0651 -0.3141 -3.5033
   71MOL0     H 9368   4.123   7.236   9.346  0.5165 -0.9091 -3.1416
   71MOL0     H 9369   4.224   7.334   9.249  0.6422 -0.8951  0.0791
   71MOL0     H 9370   4.552   7.134   9.368 -0.7105  0.5452  0.2615
   71MOL0     H 9371   3.884   7.746   9.700 -2.4765 -1.9706 -0.0811
   71MOL0     H 9372   3.779   7.845   9.890 -0.4785 -1.6143  1.2664
   72MOL0     O 9373   7.296   9.024   7.464  0.3209  0.1308 -0.3973
   72MOL0     C 9374   7.359   8.971   7.550 -0.0116  0.0741  0.0367
   72MOL0     O 9375   7.320   8.970   7.683 -0.0512 -0.0458 -0.3437
   72MOL0     C 9376   7.213   9.051   7.708  0.5109 -0.5027  0.1608
   72MOL0     C 9377   7.092   8.994   7.745  0.6464 -0.2539  0.2898
   72MOL0     C 9378   6.971   9.067   7.761  0.5974 -0.6759  0.2188
   72MOL0     C 9379   6.979   9.204   7.755  0.6714 -0.1062 -0.4029
   72MOL0     O 9380   6.864   9.277   7.782  0.3080 -0.1391 -0.4538
   72MOL0     C 9381   6.781   9.308   7.672  0.5218  0.1236 -0.2252
   72MOL0     C 9382   6.731   9.453   7.690  0.5607  0.4180 -0.8254
   72MOL0     C 9383   6.650   9.499   7.572 -0.6094  0.1802 -1.0235
   72MOL0     C 9384   6.598   9.641   7.588 -0.5175  1.2520 -0.5001
   72MOL0     C 9385   6.466   9.666   7.662 -0.1836 -0.4826  0.4699
   72MOL0     C 9386   6.354   9.573   7.630 -0.5682 -0.0414 -0.6446
   72MOL0     C 9387   6.239   9.601   7.717  0.1352 -0.6416  0.2641
   72MOL0     C 9388   6.107   9.594   7.642  0.5694  0.6474  0.1183
   72MOL0     N 9389   6.004   9.640   7.741  0.1818  0.4498  0.3998
   72MOL0     C 9390   5.924   9.758   7.742  0.4558  0.7102  0.3798
   72MOL0     C 9391   5.854   9.744   7.853 -0.2461  0.9508 -0.3550
   72MOL0     C 9392   5.781   9.844   7.929 -0.1050 -0.3253 -0.1406
   72MOL0     C 9393   5.629   9.823   7.909  0.2612 -0.4645  0.3332
   72MOL0     C 9394   5.567   9.719   8.009  0.1140  0.8691  0.6220
   72MOL0     C 9395   5.413   9.730   8.011 -0.0153  1.2801 -0.9631
   72MOL0     O 9396   5.385   9.853   8.069  0.3934 -0.0965 -0.3407
   72MOL0     C 9397   5.294   9.860   8.163  0.4873 -0.3367 -0.2799
   72MOL0     C 9398   5.184   9.775   8.171 -0.0778 -0.9429 -0.1194
   72MOL0     C 9399   5.093   9.793   8.276  0.2929 -0.8026 -0.0505
   72MOL0     C 9400   5.105   9.893   8.372  0.3577 -1.3754 -0.2180
   72MOL0     C 9401   5.011   9.906   8.490 -0.2429  0.5454  0.3503
   72MOL0     O 9402   5.041  10.007   8.584  0.3688 -0.2658 -0.7871
   72MOL0     C 9403   4.943  10.034   8.680  0.4999  0.2833 -0.2411
   72MOL0     C 9404   4.839  10.118   8.645  0.2198  0.7600  0.0757
   72MOL0     C 9405   4.740  10.150   8.743 -0.0114  0.4994 -0.2327
   72MOL0     C 9406   4.739  10.075   8.875  0.3372 -0.3901  0.5873
   72MOL0     O 9407   4.658  10.091   8.988  0.6327  0.0519  0.1817
   72MOL0     C 9408   4.549  10.184   8.981 -0.3229  0.9274  0.7010
   72MOL0     C 9409   4.448  10.156   8.870 -0.3757  0.3847  0.7455
   72MOL0     C 9410   4.305  10.148   8.917  0.0099 -0.6308  0.8516
   72MOL0     C 9411   4.266  10.029   9.003  0.6841  1.1079  0.3497
   72MOL0     C 9412   4.133  10.065   9.083 -0.2480  0.8488 -0.6846
   72MOL0     C 9413   4.147  10.000   9.230  0.6742 -0.4328 -0.0681
   72MOL0     C 9414   4.013  10.020   9.292 -0.1417  0.8103  0.5420
   72MOL0     C 9415   3.981   9.967   9.429 -0.4648  0.3454 -0.4668
   72MOL0    Cl 9416   3.800   9.980   9.454 -0.1699 -0.0816 -0.2813
   72MOL0     C 9417   4.833   9.983   8.887 -0.8630  0.8890  0.4707
   72MOL0     C 9418   4.945   9.972   8.801 -0.5677  0.0703 -0.6911
   72MOL0     O 9419   4.929   9.823   8.503 -0.0920  0.4297 -0.3463
   72MOL0     C 9420   5.218   9.975   8.363  0.9542 -0.2289  0.6700
   72MOL0     C 9421   5.305   9.963   8.252  0.0519  0.3516 -0.0828
   72MOL0     N 9422   5.888   9.625   7.915 -0.1164 -0.2269 -0.0185
   72MOL0     N 9423   5.976   9.563   7.855  0.8906  0.3634  0.4332
   72MOL0     C 9424   7.095   9.274   7.727 -0.1498 -0.6820 -0.0212
   72MOL0     C 9425   7.211   9.194   7.691  0.2512  0.6982 -0.4860
   72MOL0     C 9426   7.478   8.907   7.513  0.4359  0.3998  0.0757
   72MOL0     C 9427   7.535   8.923   7.391 -0.5677 -0.6522  0.0773
   72MOL0     C 9428   7.657   8.857   7.363 -0.6627 -0.3257  0.5800
   72MOL0     C 9429   7.715   8.773   7.460  0.2806 -0.4863  0.9534
   72MOL0     O 9430   7.839   8.731   7.424 -0.5391  0.7785 -0.5944
   72MOL0     C 9431   7.929   8.677   7.526  0.0819 -1.2121 -1.0312
   72MOL0     C 9432   8.066   8.709   7.496  0.0653  0.0642  0.1105
   72MOL0     C 9433   8.158   8.674   7.623  0.2791 -0.4013  1.1085
   72MOL0     C 9434   8.293   8.725   7.619 -0.2077 -1.0923 -0.3721
   72MOL0     C 9435   8.376   8.645   7.519 -0.2929  0.2557  1.3186
   72MOL0     C 9436   8.420   8.574   7.428 -0.4983 -0.1824  0.3920
   72MOL0     C 9437   7.655   8.757   7.584  0.2682  0.4817  0.3619
   72MOL0     C 9438   7.534   8.822   7.607 -0.8412 -0.4868 -1.0081
   72MOL0     H 9439   7.092   8.887   7.760  1.7726 -0.7360 -2.5019
   72MOL0     H 9440   6.875   9.024   7.786  0.0866  0.4477  0.2364
   72MOL0     H 9441   6.701   9.234   7.659 -0.3014  1.0109 -0.3172
   72MOL0     H 9442   6.833   9.303   7.576 -0.3503 -2.4845 -0.6507
   72MOL0     H 9443   6.813   9.525   7.702  1.6737 -1.1388  1.6714
   72MOL0     H 9444   6.679   9.452   7.786 -1.1224 -4.0977 -1.5761
   72MOL0     H 9445   6.568   9.428   7.559 -0.9751  0.6644 -1.3841
   72MOL0     H 9446   6.708   9.484   7.481  0.8681 -1.6455  0.1412
   72MOL0     H 9447   6.671   9.701   7.643  0.6713  1.3342 -2.0926
   72MOL0     H 9448   6.572   9.678   7.488 -1.0947  1.2653 -0.3496
   72MOL0     H 9449   6.439   9.764   7.622  0.9647 -0.7220 -0.9990
   72MOL0     H 9450   6.490   9.667   7.769  1.6596  0.0425  0.0939
   72MOL0     H 9451   6.390   9.471   7.650 -0.5318 -0.2732 -1.7892
   72MOL0     H 9452   6.322   9.591   7.527 -0.0672  0.7903 -0.6634
   72MOL0     H 9453   6.237   9.527   7.797 -1.3683 -0.6642  0.2295
   72MOL0     H 9454   6.245   9.704   7.755 -1.4300 -0.8476  1.1454
   72MOL0     H 9455   6.087   9.487   7.637 -0.5443  0.8960 -1.0754
   72MOL0     H 9456   6.116   9.645   7.546  4.2269  0.8771  0.4337
   72MOL0     H 9457   5.941   9.841   7.675  1.7854 -0.4697 -0.8173
   72MOL0     H 9458   5.813   9.945   7.902 -0.7621 -0.2911 -0.8341
   72MOL0     H 9459   5.803   9.827   8.034  0.6838  0.9382 -0.0798
   72MOL0     H 9460   5.608   9.788   7.808  0.7238  2.8234 -1.0595
   72MOL0     H 9461   5.565   9.912   7.913 -3.5584 -2.6821 -3.6027
   72MOL0     H 9462   5.615   9.624   7.983 -1.5934  0.3382 -0.7690
   72MOL0     H 9463   5.598   9.747   8.110 -0.3398  0.6642  0.8205
   72MOL0     H 9464   5.379   9.649   8.076 -0.9117  0.6670 -2.1747
   72MOL0     H 9465   5.367   9.727   7.912 -2.4862  1.6721  0.0982
   72MOL0     H 9466   5.169   9.695   8.099 -0.2539  0.0674 -1.2402
   72MOL0     H 9467   5.010   9.724   8.275  0.6451 -1.2448  0.4157
   72MOL0     H 9468   4.836  10.163   8.547  0.0555  0.2207 -0.1691
   72MOL0     H 9469   4.662  10.219   8.713 -1.3024 -1.8529 -2.7156
   72MOL0     H 9470   4.574  10.289   8.964 -2.7263  1.4182 -0.2637
   72MOL0     H 9471   4.499  10.171   9.077 -0.8477  0.3625  0.3582
   72MOL0     H 9472   4.461  10.060   8.820 -3.1570  0.7747 -0.9396
   72MOL0     H 9473   4.462  10.225   8.786 -1.2545 -2.2533 -1.7192
   72MOL0     H 9474   4.239  10.146   8.830  2.9912 -2.6085 -1.5860
   72MOL0     H 9475   4.291  10.240   8.974 -2.8388 -1.2334  1.2771
   72MOL0     H 9476   4.247   9.937   8.947 -1.7049  1.5802  0.2730
   72MOL0     H 9477   4.343  10.013   9.079  1.8583  2.5461 -0.4855
   72MOL0     H 9478   4.045  10.036   9.025  0.5212 -0.0940 -1.4307
   72MOL0     H 9479   4.123  10.172   9.101 -0.6607  0.4867  1.5297
   72MOL0     H 9480   4.222  10.049   9.293 -1.2229  0.5937  1.5198
   72MOL0     H 9481   4.169   9.893   9.217  0.8915 -0.4642  0.5284
   72MOL0     H 9482   3.986  10.126   9.286  0.7578  0.9706 -2.2410
   72MOL0     H 9483   3.945   9.976   9.217  0.5436  0.3019  0.2143
   72MOL0     H 9484   4.039  10.024   9.502  0.6359 -0.4919 -0.6692
   72MOL0     H 9485   4.012   9.865   9.454  0.1842  0.5415 -0.4584
   72MOL0     H 9486   4.835   9.923   8.978  1.4297  0.8620  0.4722
   72MOL0     H 9487   5.039   9.921   8.816 -0.2287  1.1808  1.4509
   72MOL0     H 9488   5.234  10.045   8.444 -0.4984 -0.9958  1.6567
   72MOL0     H 9489   5.395  10.023   8.245  1.3838 -0.9963  3.3488
   72MOL0     H 9490   7.090   9.382   7.738  1.8497 -0.4758 -0.7920
   72MOL0     H 9491   7.307   9.239   7.670  1.1885 -0.5161  0.8822
   72MOL0     H 9492   7.490   8.985   7.314 -1.0182 -0.5825  0.3941
   72MOL0     H 9493   7.711   8.880   7.272 -0.8486 -1.3758  0.1899
   72MOL0     H 9494   7.914   8.571   7.547  2.3369 -1.0423  2.2255
   72MOL0     H 9495   7.904   8.721   7.623 -1.2397 -1.2063 -1.3568
   72MOL0     H 9496   8.091   8.643   7.412  1.6562 -1.2698  1.5601
   72MOL0     H 9497   8.073   8.810   7.454  0.7702  0.2894  0.7537
   72MOL0     H 9498   8.154   8.568   7.650 -0.7931 -0.6679  0.0276
   72MOL0     H 9499   8.122   8.732   7.708 -2.4868 -0.2948 -0.0363
   72MOL0     H 9500   8.289   8.829   7.585  1.2486 -0.1931  1.9338
   72MOL0     H 9501   8.333   8.720   7.721 -0.8617 -2.4648 -0.1606
   72MOL0     H 9502   8.457   8.505   7.356  1.0381 -0.5653  1.5066
   72MOL0     H 9503   7.689   8.698   7.669 -1.9535 -1.2740  0.1174
   72MOL0     H 9504   7.485   8.810   7.703  1.3668 -2.3765 -0.0346
   73MOL0     O 9505   5.065   7.165   4.757  0.0761  0.1371 -0.8934
   73MOL0     C 9506   5.013   7.272   4.778 -0.4190 -0.9935 -0.4115
   73MOL0     O 9507   4.882   7.299   4.788  0.1584  0.6426  0.2424
   73MOL0     C 9508   4.789   7.201   4.777  1.1234  0.7451  0.7112
   73MOL0     C 9509   4.802   7.062   4.795 -0.0481  1.1884  0.4751
   73MOL0     C 9510   4.706   6.972   4.752  0.5378 -0.4325  0.5657
   73MOL0     C 9511   4.577   7.017   4.718  0.0547 -0.5971  0.0507
   73MOL0     O 9512   4.473   6.926   4.702 -0.3879 -0.2710  0.4322
   73MOL0     C 9513   4.366   6.922   4.794 -0.1303 -0.6362  0.1649
   73MOL0     C 9514   4.331   6.773   4.827 -1.0258 -0.4199  1.5553
   73MOL0     C 9515   4.230   6.761   4.934  0.1855  0.1431  0.0002
   73MOL0     C 9516   4.235   6.615   4.992  0.3939 -0.9321 -0.7325
   73MOL0     C 9517   4.129   6.570   5.096  0.1106 -0.8330  0.0446
   73MOL0     C 9518   4.105   6.420   5.101  0.0852 -0.1810  0.1470
   73MOL0     C 9519   4.237   6.344   5.117 -0.3015  0.4550 -0.4955
   73MOL0     C 9520   4.305   6.365   5.256 -0.9577 -0.7212  0.6649
   73MOL0     N 9521   4.424   6.278   5.252  0.0440  0.7954  0.3270
   73MOL0     C 9522   4.527   6.300   5.343 -0.4740  0.5109  0.7854
   73MOL0     C 9523   4.614   6.196   5.315  0.3584  0.4109  0.2218
   73MOL0     C 9524   4.752   6.179   5.369  0.3271 -0.2673  0.6485
   73MOL0     C 9525   4.870   6.244   5.292 -1.2073 -0.9439  1.2318
   73MOL0     C 9526   4.884   6.188   5.146 -0.2571  0.2166 -0.8807
   73MOL0     C 9527   5.018   6.243   5.086  0.9394  0.1452 -0.5444
   73MOL0     O 9528   5.033   6.378   5.052  0.4964  0.1607 -0.0103
   73MOL0     C 9529   5.157   6.438   5.063 -0.4324  0.7017  0.2849
   73MOL0     C 9530   5.158   6.564   5.120  0.2847  0.3883 -0.3538
   73MOL0     C 9531   5.270   6.644   5.143  0.0536 -0.2368 -0.6773
   73MOL0     C 9532   5.399   6.593   5.110 -0.1015 -0.2346  0.8978
   73MOL0     C 9533   5.526   6.671   5.124  0.2669  0.3838 -0.1107
   73MOL0     O 9534   5.647   6.602   5.110  0.6378 -0.1811 -0.3766
   73MOL0     C 9535   5.775   6.644   5.162 -0.0604 -0.6997  0.0528
   73MOL0     C 9536   5.807   6.695   5.294 -0.1354 -0.5246  0.1140
   73MOL0     C 9537   5.942   6.721   5.325  0.2186  0.0193 -0.2213
   73MOL0     C 9538   6.045   6.693   5.231 -0.2214  0.6560 -1.0164
   73MOL0     O 9539   6.181   6.695   5.266 -0.3977  0.2518  0.3465
   73MOL0     C 9540   6.223   6.692   5.405 -0.3677  0.1487  0.4843
   73MOL0     C 9541   6.380   6.697   5.413 -0.3662 -0.0074 -0.4426
   73MOL0     C 9542   6.431   6.826   5.367 -0.4479 -0.2077  0.0094
   73MOL0     C 9543   6.583   6.844   5.390  0.3009  0.3541 -0.4153
   73MOL0     C 9544   6.658   6.732   5.311 -0.0988 -0.0844 -0.4634
   73MOL0     C 9545   6.812   6.770   5.310 -0.3946  0.4407  0.2823
   73MOL0     C 9546   6.894   6.679   5.215 -0.2839 -0.2870  0.8194
   73MOL0     C 9547   6.984   6.742   5.109  0.0376 -0.5051 -0.7433
   73MOL0    Cl 9548   6.938   6.905   5.059  0.0031 -0.0663 -0.3518
   73MOL0     C 9549   6.004   6.634   5.114 -0.2882 -0.1317 -0.4541
   73MOL0     C 9550   5.877   6.621   5.073 -0.6035 -0.0939  0.4340
   73MOL0     O 9551   5.519   6.784   5.159 -0.7468 -0.4320  0.1650
   73MOL0     C 9552   5.390   6.458   5.047  0.3565  0.0168 -0.0860
   73MOL0     C 9553   5.275   6.385   5.030 -0.4697  0.4344  0.0992
   73MOL0     N 9554   4.549   6.105   5.233  0.3687  0.3490  1.4837
   73MOL0     N 9555   4.430   6.156   5.198  0.1557 -0.7322 -0.7849
   73MOL0     C 9556   4.558   7.154   4.703  0.4512 -0.8690 -0.0429
   73MOL0     C 9557   4.667   7.239   4.721  0.5763  0.3071 -1.0149
   73MOL0     C 9558   5.117   7.386   4.781  0.7863 -0.4049  0.0375
   73MOL0     C 9559   5.063   7.516   4.786  1.1798  0.5263 -0.8420
   73MOL0     C 9560   5.143   7.628   4.782  0.5084 -0.6792 -0.0433
   73MOL0     C 9561   5.278   7.622   4.772  0.2443  0.1617  2.1318
   73MOL0     O 9562   5.337   7.747   4.764 -0.3561 -0.4641 -0.2756
   73MOL0     C 9563   5.473   7.776   4.714 -0.0230 -0.3234  0.6710
   73MOL0     C 9564   5.469   7.799   4.567  0.2899  0.5487 -0.3764
   73MOL0     C 9565   5.588   7.880   4.519  0.2063  0.3231  0.1246
   73MOL0     C 9566   5.620   7.874   4.370 -0.5908  0.4708 -1.1111
   73MOL0     C 9567   5.523   7.928   4.283  0.2547 -0.3261  0.9997
   73MOL0     C 9568   5.432   7.981   4.225 -0.2328 -1.2510 -0.2855
   73MOL0     C 9569   5.338   7.495   4.767  0.2146  1.7627 -1.0733
   73MOL0     C 9570   5.259   7.370   4.771 -0.3343  0.4672  0.8502
   73MOL0     H 9571   4.897   7.021   4.828  0.0657  3.1050  2.8636
   73MOL0     H 9572   4.734   6.868   4.751  0.0767 -0.6041 -1.7922
   73MOL0     H 9573   4.283   6.979   4.750  1.4408 -0.0318 -2.2456
   73MOL0     H 9574   4.390   6.968   4.890  0.6684  0.4946 -0.5369
   73MOL0     H 9575   4.424   6.722   4.855 -1.9381 -4.0610 -1.3582
   73MOL0     H 9576   4.296   6.725   4.735  0.7931 -4.1413  2.6260
   73MOL0     H 9577   4.129   6.780   4.896 -0.1357 -2.4778 -0.6805
   73MOL0     H 9578   4.250   6.829   5.017  1.2480 -0.7500  0.5040
   73MOL0     H 9579   4.208   6.561   4.900 -0.4960  2.7106 -2.8456
   73MOL0     H 9580   4.337   6.589   5.023  0.5881 -0.8928 -1.3151
   73MOL0     H 9581   4.034   6.618   5.071  1.0973  1.1762 -0.0270
   73MOL0     H 9582   4.172   6.611   5.188  1.1573  0.2665 -0.9119
   73MOL0     H 9583   4.063   6.392   5.004 -1.2865 -0.8453  0.8977
   73MOL0     H 9584   4.036   6.391   5.180 -0.2107  0.3405  0.0846
   73MOL0     H 9585   4.195   6.243   5.113 -0.2900  0.4084  0.3625
   73MOL0     H 9586   4.308   6.365   5.036  1.7716 -1.6482  0.6507
   73MOL0     H 9587   4.242   6.331   5.338  0.8787 -0.9220  2.0706
   73MOL0     H 9588   4.323   6.469   5.285 -4.1595 -0.4759  2.1827
   73MOL0     H 9589   4.541   6.386   5.409 -1.1135  1.0770  0.2012
   73MOL0     H 9590   4.776   6.074   5.386 -0.3520 -0.6608 -0.6710
   73MOL0     H 9591   4.747   6.223   5.469 -2.1095 -0.6469  0.7567
   73MOL0     H 9592   4.967   6.228   5.341 -0.1964 -3.1040 -1.2455
   73MOL0     H 9593   4.852   6.352   5.290 -1.5106 -0.9926  1.4563
   73MOL0     H 9594   4.893   6.079   5.140  1.0419  0.3627 -1.9824
   73MOL0     H 9595   4.796   6.215   5.087  1.2775  1.4178 -2.7529
   73MOL0     H 9596   5.047   6.183   5.000  2.2188 -1.1678  0.7489
   73MOL0     H 9597   5.094   6.210   5.157  0.1882 -0.7649 -0.1358
   73MOL0     H 9598   5.063   6.603   5.156 -0.5626 -2.5884  0.9718
   73MOL0     H 9599   5.251   6.735   5.199  0.6329 -1.7233  2.1360
   73MOL0     H 9600   5.724   6.723   5.359 -0.1239 -2.9748  1.2704
   73MOL0     H 9601   5.963   6.770   5.419  3.4004 -2.5444  0.6004
   73MOL0     H 9602   6.194   6.604   5.463  1.1252 -1.9436 -1.7378
   73MOL0     H 9603   6.184   6.778   5.459  0.4625 -0.6824  2.5152
   73MOL0     H 9604   6.412   6.630   5.333  1.5805  0.1824  0.1337
   73MOL0     H 9605   6.413   6.661   5.512  0.4515 -3.1140 -1.7075
   73MOL0     H 9606   6.382   6.909   5.418  0.6205  0.7802 -0.5270
   73MOL0     H 9607   6.413   6.841   5.260  0.5395 -4.0729 -0.8488
   73MOL0     H 9608   6.612   6.941   5.347 -1.4922 -0.0514 -2.7494
   73MOL0     H 9609   6.605   6.845   5.497 -0.6848 -1.4186 -0.1607
   73MOL0     H 9610   6.610   6.723   5.213  1.2386  0.2734 -1.1725
   73MOL0     H 9611   6.650   6.635   5.359 -2.1650 -0.3081 -1.1361
   73MOL0     H 9612   6.858   6.764   5.409 -1.6411  0.7980  0.8907
   73MOL0     H 9613   6.811   6.873   5.274 -0.4345  0.9680  1.7277
   73MOL0     H 9614   6.956   6.617   5.280  0.3786  0.6537  1.1121
   73MOL0     H 9615   6.818   6.616   5.168 -2.4315  1.9411  1.0599
   73MOL0     H 9616   6.983   6.663   5.033  1.3075 -2.4514  1.1451
   73MOL0     H 9617   7.083   6.743   5.154 -0.0046 -0.7588 -0.6425
   73MOL0     H 9618   6.085   6.598   5.051 -0.1510 -1.3337  0.3825
   73MOL0     H 9619   5.850   6.588   4.973  0.9385  2.2504 -0.8392
   73MOL0     H 9620   5.489   6.426   5.018 -0.1657 -0.7940 -1.0144
   73MOL0     H 9621   5.284   6.294   4.972 -0.3813  0.7875 -0.4562
   73MOL0     H 9622   4.460   7.194   4.678  0.6963 -0.9058 -1.0865
   73MOL0     H 9623   4.665   7.345   4.700  5.0871  0.4699 -1.5804
   73MOL0     H 9624   4.956   7.533   4.783  1.1909  1.2423  1.2982
   73MOL0     H 9625   5.103   7.726   4.760  1.5513 -0.5732 -1.6657
   73MOL0     H 9626   5.547   7.698   4.731  0.4486  0.0928  0.5654
   73MOL0     H 9627   5.503   7.868   4.764  0.4806 -0.4073  0.5308
   73MOL0     H 9628   5.462   7.702   4.516 -2.9654  1.7819 -2.6226
   73MOL0     H 9629   5.379   7.851   4.532  0.5271  0.4420 -1.1635
   73MOL0     H 9630   5.679   7.849   4.571 -0.3518 -3.4445 -0.8809
   73MOL0     H 9631   5.566   7.986   4.539  1.8289  0.4658  1.3699
   73MOL0     H 9632   5.714   7.930   4.368  0.7685 -1.3919  2.2956
   73MOL0     H 9633   5.638   7.769   4.343 -5.2896 -1.0751  0.6262
   73MOL0     H 9634   5.344   8.008   4.169 -0.5120 -1.8894 -0.1582
   73MOL0     H 9635   5.445   7.486   4.751  0.3746  2.6541 -0.5652
   73MOL0     H 9636   5.296   7.268   4.759 -0.4327  0.5736 -0.5257
   74MOL0     O 9637   2.348   6.298   4.551 -0.0241  0.0304  0.3764
   74MOL0     C 9638   2.434   6.216   4.552 -0.8652 -0.1465 -0.0183
   74MOL0     O 9639   2.425   6.101   4.495 -0.0774 -0.2785  0.1810
   74MOL0     C 9640   2.297   6.045   4.470  0.2295  0.8829  0.1505
   74MOL0     C 9641   2.198   6.049   4.566  0.6183 -1.2940  0.2707
   74MOL0     C 9642   2.079   5.970   4.542  0.0725 -0.1990 -0.2712
   74MOL0     C 9643   2.057   5.906   4.422 -0.2514  0.6315 -1.1124
   74MOL0     O 9644   1.945   5.831   4.410  0.2638 -0.9511  0.5597
   74MOL0     C 9645   1.869   5.857   4.282 -0.2055  0.2360  0.2909
   74MOL0     C 9646   1.713   5.852   4.315 -0.2970  1.2983  0.1744
   74MOL0     C 9647   1.623   5.861   4.195  0.1350 -0.0838  0.2330
   74MOL0     C 9648   1.607   6.000   4.153 -1.0284  0.5006  0.1449
   74MOL0     C 9649   1.497   6.037   4.049  0.1026 -0.1570 -0.1860
   74MOL0     C 9650   1.445   6.185   4.051  0.2040 -0.0745 -0.1998
   74MOL0     C 9651   1.560   6.289   4.065  1.1825  0.2354  0.4672
   74MOL0     C 9652   1.637   6.288   3.942  0.1043 -0.3740  0.4842
   74MOL0     N 9653   1.727   6.404   3.936 -0.6274  1.2332 -0.4248
   74MOL0     C 9654   1.696   6.516   3.876 -0.2276 -0.7520  1.2151
   74MOL0     C 9655   1.819   6.577   3.846 -0.3930  0.6535  0.4092
   74MOL0     C 9656   1.845   6.707   3.774  0.0812 -0.1069  0.4767
   74MOL0     C 9657   1.845   6.670   3.628 -0.0206  0.5234  0.6513
   74MOL0     C 9658   1.821   6.793   3.543 -0.1769  0.3397 -0.5495
   74MOL0     C 9659   1.956   6.843   3.480  0.8138  0.3818 -0.2958
   74MOL0     O 9660   1.953   6.983   3.435 -0.0417  1.2388 -0.9887
   74MOL0     C 9661   1.874   7.034   3.335 -0.0586  0.7050 -0.0671
   74MOL0     C 9662   1.875   7.169   3.339  0.6722 -1.3137  0.0019
   74MOL0     C 9663   1.788   7.249   3.264 -0.0494 -0.0717 -0.3006
   74MOL0     C 9664   1.708   7.177   3.165  0.1860 -0.1497 -0.7815
   74MOL0     C 9665   1.615   7.247   3.077 -1.1737  0.3377  0.0993
   74MOL0     O 9666   1.619   7.382   3.077 -0.3945  0.1663 -0.3273
   74MOL0     C 9667   1.560   7.456   2.977  0.0786  0.2788 -0.3903
   74MOL0     C 9668   1.421   7.480   2.977  0.7716  0.0912  0.2615
   74MOL0     C 9669   1.367   7.538   2.861  0.0422 -0.5586 -0.2713
   74MOL0     C 9670   1.447   7.576   2.753 -0.1700 -0.1673  0.9327
   74MOL0     O 9671   1.387   7.647   2.645 -0.3007 -0.0123 -0.0889
   74MOL0     C 9672   1.415   7.783   2.672 -0.3299  0.9837 -0.0932
   74MOL0     C 9673   1.376   7.865   2.550  0.5761  0.6250 -0.4178
   74MOL0     C 9674   1.478   7.867   2.443  0.1309 -0.2874 -1.1866
   74MOL0     C 9675   1.586   7.967   2.487 -0.5274 -0.2087 -0.4165
   74MOL0     C 9676   1.707   7.946   2.402 -0.4153 -0.6529  0.1858
   74MOL0     C 9677   1.819   8.046   2.438  1.3114 -0.0893 -0.3254
   74MOL0     C 9678   1.924   8.071   2.327  0.0647 -0.0674 -0.3876
   74MOL0     C 9679   2.026   8.169   2.379  0.2690 -0.1334  0.5050
   74MOL0    Cl 9680   2.134   8.215   2.237 -0.0149  0.0683 -0.4148
   74MOL0     C 9681   1.586   7.560   2.765 -0.6058 -0.1310  0.2940
   74MOL0     C 9682   1.647   7.506   2.876  0.6786  0.5789  1.2109
   74MOL0     O 9683   1.553   7.176   3.000  0.2372 -0.3178  0.1993
   74MOL0     C 9684   1.727   7.034   3.153 -0.1735 -0.1859  0.3145
   74MOL0     C 9685   1.811   6.965   3.235 -0.3709 -0.5043  0.2823
   74MOL0     N 9686   1.931   6.497   3.891  0.1281  0.2940  0.0645
   74MOL0     N 9687   1.862   6.399   3.939  0.2470  0.3067 -0.6189
   74MOL0     C 9688   2.150   5.917   4.320 -0.0901  0.9559 -0.0016
   74MOL0     C 9689   2.272   5.970   4.350  0.0546  0.2951 -0.1928
   74MOL0     C 9690   2.574   6.255   4.594 -0.2042  0.5012 -0.6029
   74MOL0     C 9691   2.640   6.368   4.556 -0.5804  0.1890 -0.8732
   74MOL0     C 9692   2.767   6.404   4.596 -1.0638  0.1192  1.1120
   74MOL0     C 9693   2.840   6.320   4.678 -0.6898 -0.3141 -0.6081
   74MOL0     O 9694   2.959   6.351   4.733 -0.0562 -0.8651 -0.5392
   74MOL0     C 9695   3.029   6.463   4.668 -0.8010 -1.0776  0.8816
   74MOL0     C 9696   3.169   6.484   4.719 -0.8943 -0.0286 -0.5174
   74MOL0     C 9697   3.185   6.477   4.870 -0.2058 -0.3468  1.0480
   74MOL0     C 9698   3.315   6.555   4.904  0.5305  0.0308 -0.5152
   74MOL0     C 9699   3.354   6.501   5.036 -0.4017 -0.8633 -0.9551
   74MOL0     C 9700   3.396   6.456   5.141 -0.1660 -0.3024 -0.3117
   74MOL0     C 9701   2.774   6.196   4.721 -0.1603 -0.5472 -0.6299
   74MOL0     C 9702   2.642   6.164   4.681  1.3002 -0.6856 -0.0023
   74MOL0     H 9703   2.227   6.101   4.657  1.3201 -0.6063 -0.3375
   74MOL0     H 9704   2.010   5.979   4.625 -0.9266  1.9812 -1.2562
   74MOL0     H 9705   1.899   5.782   4.209 -0.1793  1.3120 -0.8205
   74MOL0     H 9706   1.887   5.957   4.242  1.5536  1.2451  3.2686
   74MOL0     H 9707   1.688   5.934   4.382 -0.6576  1.8772 -0.6603
   74MOL0     H 9708   1.686   5.758   4.365  1.0041 -0.2066 -1.7973
   74MOL0     H 9709   1.523   5.820   4.213  1.1738 -3.0525 -0.1307
   74MOL0     H 9710   1.678   5.807   4.116  1.0347  2.4466 -0.9875
   74MOL0     H 9711   1.584   6.063   4.239  0.3567  1.3602 -0.0736
   74MOL0     H 9712   1.707   6.038   4.130 -0.9221 -0.6681 -1.5037
   74MOL0     H 9713   1.414   5.966   4.064 -1.0878  1.3460  0.7039
   74MOL0     H 9714   1.541   6.023   3.950 -1.3517  3.5795 -1.5444
   74MOL0     H 9715   1.382   6.192   4.140  0.8693 -0.0347  0.2799
   74MOL0     H 9716   1.377   6.210   3.969  2.6522  2.0118 -1.7479
   74MOL0     H 9717   1.516   6.389   4.070  3.4150  1.3434 -0.6652
   74MOL0     H 9718   1.630   6.267   4.146  3.6445  0.9769 -1.3467
   74MOL0     H 9719   1.564   6.280   3.861  0.7345  2.3341 -0.4584
   74MOL0     H 9720   1.701   6.200   3.938 -0.3197 -0.7602  1.7527
   74MOL0     H 9721   1.600   6.554   3.842  0.1132 -0.5854  0.4166
   74MOL0     H 9722   1.943   6.741   3.810 -0.2381 -1.4028  2.8134
   74MOL0     H 9723   1.772   6.782   3.807  0.5342  0.0963  1.0298
   74MOL0     H 9724   1.760   6.604   3.611 -0.7246  1.6000 -0.1059
   74MOL0     H 9725   1.933   6.612   3.598 -0.5929 -1.0555  1.9128
   74MOL0     H 9726   1.760   6.768   3.456  3.5906  2.8849 -4.3442
   74MOL0     H 9727   1.774   6.871   3.605 -0.8305  0.8698 -1.6768
   74MOL0     H 9728   1.989   6.769   3.407  1.4810  1.9913 -1.7037
   74MOL0     H 9729   2.024   6.843   3.566 -0.4348  2.4012  0.7786
   74MOL0     H 9730   1.930   7.221   3.417 -0.0084  0.3543 -0.5785
   74MOL0     H 9731   1.790   7.356   3.283  0.3514 -0.3310  1.3205
   74MOL0     H 9732   1.360   7.424   3.048  1.0349 -2.8728 -1.6551
   74MOL0     H 9733   1.264   7.564   2.838  0.5368  1.8189 -0.0638
   74MOL0     H 9734   1.518   7.803   2.701 -0.5134 -0.4882  1.7645
   74MOL0     H 9735   1.346   7.810   2.753 -0.5359  1.8044 -0.5236
   74MOL0     H 9736   1.363   7.971   2.570 -1.0144  0.1784  1.1355
   74MOL0     H 9737   1.277   7.836   2.513  0.2927 -0.3135  1.0203
   74MOL0     H 9738   1.442   7.901   2.345  1.7527 -1.1949 -2.1344
   74MOL0     H 9739   1.518   7.766   2.429  1.9079  0.3329 -0.8054
   74MOL0     H 9740   1.546   8.068   2.487  0.8473  0.8095  6.0489
   74MOL0     H 9741   1.612   7.967   2.593  0.3468  2.0638 -0.5736
   74MOL0     H 9742   1.688   7.960   2.295  1.4885  0.5524 -0.0431
   74MOL0     H 9743   1.744   7.844   2.407  0.2741 -0.4410 -0.4831
   74MOL0     H 9744   1.875   8.006   2.523  2.3789  4.6444  1.5012
   74MOL0     H 9745   1.786   8.144   2.474  1.3325  1.8221 -4.8519
   74MOL0     H 9746   1.977   7.979   2.301 -0.0297  0.7563 -3.9829
   74MOL0     H 9747   1.879   8.099   2.231 -1.1910 -3.1900 -0.8257
   74MOL0     H 9748   2.082   8.137   2.468  0.5628 -0.8722  0.0591
   74MOL0     H 9749   1.965   8.254   2.412 -2.3407 -2.2224  1.4823
   74MOL0     H 9750   1.652   7.604   2.690 -3.1603  0.4486 -1.7611
   74MOL0     H 9751   1.755   7.499   2.878  0.6613  0.2023  0.9633
   74MOL0     H 9752   1.667   6.982   3.080 -0.6862 -0.2524  0.7787
   74MOL0     H 9753   1.829   6.858   3.230  3.6906 -0.0043  0.9330
   74MOL0     H 9754   2.140   5.883   4.218  3.9082  0.2475 -0.3106
   74MOL0     H 9755   2.345   5.966   4.270 -0.1401  0.7528 -0.3987
   74MOL0     H 9756   2.577   6.429   4.491 -0.9161 -1.0285 -1.7326
   74MOL0     H 9757   2.808   6.499   4.565  0.6884 -0.5988  1.1176
   74MOL0     H 9758   2.976   6.559   4.674  3.2691  1.5964 -1.2798
   74MOL0     H 9759   3.028   6.453   4.559 -0.3739  2.3521  0.4360
   74MOL0     H 9760   3.232   6.401   4.686 -4.5777 -2.4704 -2.0201
   74MOL0     H 9761   3.202   6.582   4.683 -2.2177  0.0638 -1.5459
   74MOL0     H 9762   3.182   6.373   4.905 -0.6301 -0.5118  0.5333
   74MOL0     H 9763   3.107   6.529   4.927  1.3924  0.2966  2.7685
   74MOL0     H 9764   3.394   6.550   4.828 -1.3044  0.7165 -2.5524
   74MOL0     H 9765   3.306   6.664   4.908 -0.1177  0.1306 -3.0453
   74MOL0     H 9766   3.428   6.394   5.222 -0.6360  0.3086  0.3527
   74MOL0     H 9767   2.822   6.128   4.791 -2.4311  0.3653  1.9569
   74MOL0     H 9768   2.594   6.077   4.724  1.4402 -0.9307 -0.3353
   75MOL0     O 9769  11.270   5.602   7.987  0.3558 -0.6554  0.5302
   75MOL0     C 9770  11.368   5.571   8.049  0.2661  0.2054 -0.0981
   75MOL0     O 9771  11.371   5.492   8.158 -0.0261 -0.1612  0.3737
   75MOL0     C 9772  11.253   5.426   8.177 -0.3621  0.0110  0.4004
   75MOL0     C 9773  11.234   5.295   8.143 -0.7113 -0.0042  0.0740
   75MOL0     C 9774  11.114   5.221   8.168  0.0008  0.6418  0.7580
   75MOL0     C 9775  11.009   5.284   8.246  1.1995  0.1789 -0.2227
   75MOL0     O 9776  10.892   5.222   8.277  0.2227  0.0641 -0.6058
   75MOL0     C 9777  10.895   5.083   8.295 -0.1949  0.4512  0.1305
   75MOL0     C 9778  10.764   5.041   8.359  0.4781  0.0943 -0.1402
   75MOL0     C 9779  10.627   5.068   8.288 -0.6840 -0.4082  0.4092
   75MOL0     C 9780  10.513   5.009   8.371 -0.5016 -0.9365 -0.9116
   75MOL0     C 9781  10.376   5.057   8.323  1.3868 -0.2571 -0.7635
   75MOL0     C 9782  10.261   4.986   8.403 -0.4303 -0.4944  0.4993
   75MOL0     C 9783  10.129   5.037   8.344  0.0772 -0.0869  0.5379
   75MOL0     C 9784  10.000   4.964   8.399  0.3859 -0.1001  0.6030
   75MOL0     N 9785   9.879   5.015   8.333 -0.2960 -0.2325 -0.0470
   75MOL0     C 9786   9.760   5.038   8.393 -0.1173  0.0902  0.3392
   75MOL0     C 9787   9.686   5.098   8.297  0.5986  0.0557 -0.6740
   75MOL0     C 9788   9.550   5.158   8.310  0.7289 -0.0496  0.2180
   75MOL0     C 9789   9.440   5.058   8.282  0.4812 -0.4223 -0.2586
   75MOL0     C 9790   9.440   4.951   8.385  0.4673 -0.0267  0.5731
   75MOL0     C 9791   9.314   4.864   8.372  0.1523  0.0376  0.8685
   75MOL0     O 9792   9.190   4.923   8.412 -0.3213 -0.0696 -0.4081
   75MOL0     C 9793   9.158   4.909   8.543 -1.0265 -0.2204  0.1779
   75MOL0     C 9794   9.049   4.986   8.580  0.0881 -0.2928 -0.2409
   75MOL0     C 9795   8.996   4.979   8.711  0.8074 -0.4065  0.2401
   75MOL0     C 9796   9.048   4.887   8.804 -0.4996 -0.6365 -0.3035
   75MOL0     C 9797   8.987   4.883   8.944  0.6377 -0.2563  0.4353
   75MOL0     O 9798   8.868   4.943   8.952 -0.3615  0.4823  0.3150
   75MOL0     C 9799   8.770   4.897   9.028  0.1751  0.2083 -0.5613
   75MOL0     C 9800   8.765   4.788   9.110 -0.0757  0.1815  0.4942
   75MOL0     C 9801   8.651   4.756   9.186  0.3957 -0.5063  0.1547
   75MOL0     C 9802   8.563   4.863   9.211  0.1737 -0.5399 -0.6065
   75MOL0     O 9803   8.459   4.837   9.297  0.7004 -0.4123  0.0257
   75MOL0     C 9804   8.354   4.937   9.318 -0.0451  0.3468  0.6298
   75MOL0     C 9805   8.249   4.928   9.211  0.3439 -0.0811  0.1014
   75MOL0     C 9806   8.135   4.830   9.250  0.8668  0.2099 -0.2071
   75MOL0     C 9807   8.048   4.783   9.127 -0.9566 -0.7929 -1.0383
   75MOL0     C 9808   8.125   4.693   9.024 -0.8254 -0.3257 -1.3116
   75MOL0     C 9809   8.042   4.691   8.900  0.7484 -0.5830 -0.1873
   75MOL0     C 9810   7.935   4.582   8.887  0.5395  0.3302  0.4206
   75MOL0     C 9811   7.986   4.478   8.781 -0.2023  0.3348  0.8806
   75MOL0    Cl 9812   7.989   4.540   8.603 -0.1464 -0.3816 -0.2820
   75MOL0     C 9813   8.563   4.973   9.126  1.1596  0.5867  0.1554
   75MOL0     C 9814   8.665   4.985   9.026 -0.4372 -0.3794 -0.4247
   75MOL0     O 9815   9.047   4.833   9.044  0.4839 -0.3832  0.5439
   75MOL0     C 9816   9.172   4.824   8.768  0.1594  0.2081  0.5115
   75MOL0     C 9817   9.226   4.841   8.638  0.0546 -0.2941  0.0814
   75MOL0     N 9818   9.745   5.087   8.178  0.0457  0.5263  0.7187
   75MOL0     N 9819   9.866   5.031   8.202 -0.7586  0.0833  0.1218
   75MOL0     C 9820  11.026   5.422   8.264 -0.6664  0.0251  0.4375
   75MOL0     C 9821  11.145   5.496   8.235 -0.0870  0.4326  0.3412
   75MOL0     C 9822  11.488   5.656   8.030  0.5546  0.7986  0.3474
   75MOL0     C 9823  11.490   5.744   7.921 -0.3999 -0.0076 -0.0422
   75MOL0     C 9824  11.599   5.832   7.895  0.4458 -0.4803  0.2871
   75MOL0     C 9825  11.716   5.808   7.966  0.3753 -0.0573 -0.3434
   75MOL0     O 9826  11.829   5.874   7.943  0.6657 -0.8167  0.0547
   75MOL0     C 9827  11.863   5.888   7.801  0.4799  0.0696 -0.7997
   75MOL0     C 9828  12.006   5.930   7.796  0.1589 -0.7462  0.2764
   75MOL0     C 9829  12.029   6.063   7.867 -1.1770 -0.3191 -0.1602
   75MOL0     C 9830  12.161   6.114   7.819 -0.3545 -0.5888  0.6954
   75MOL0     C 9831  12.208   6.226   7.903  0.9532  0.1384  0.2479
   75MOL0     C 9832  12.254   6.322   7.961 -0.5037 -0.6712 -0.1094
   75MOL0     C 9833  11.717   5.713   8.074  0.4435 -0.4055 -0.1809
   75MOL0     C 9834  11.603   5.636   8.102  0.1893  0.2512  0.2067
   75MOL0     H 9835  11.314   5.257   8.080 -1.8702  1.1962 -2.2418
   75MOL0     H 9836  11.114   5.115   8.145  0.5532  0.4422  1.6159
   75MOL0     H 9837  10.973   5.056   8.367  0.0556 -1.4871 -0.7851
   75MOL0     H 9838  10.912   5.030   8.201 -0.0837 -1.7978  1.3480
   75MOL0     H 9839  10.752   5.087   8.458 -0.5173  0.5550 -0.4598
   75MOL0     H 9840  10.760   4.934   8.379  0.5700  0.3971  1.7154
   75MOL0     H 9841  10.634   5.021   8.189 -0.2108  0.2739  0.1073
   75MOL0     H 9842  10.602   5.173   8.268 -0.1230 -0.5328 -1.0458
   75MOL0     H 9843  10.516   4.900   8.373 -1.2132 -0.9623 -0.8842
   75MOL0     H 9844  10.520   5.039   8.476 -0.2501 -5.0178  0.3839
   75MOL0     H 9845  10.366   5.033   8.216 -2.5519  0.8360 -0.7939
   75MOL0     H 9846  10.371   5.165   8.337  0.4488  0.3821 -4.6677
   75MOL0     H 9847  10.268   5.006   8.510  0.4471 -1.6909  0.6838
   75MOL0     H 9848  10.270   4.879   8.382 -1.6938 -0.2716 -1.4480
   75MOL0     H 9849  10.119   5.145   8.355  1.0225  0.4696 -2.9567
   75MOL0     H 9850  10.131   5.023   8.235 -3.3904 -0.4487  0.4038
   75MOL0     H 9851   9.996   4.972   8.508 -0.4552  0.8249  0.5181
   75MOL0     H 9852  10.009   4.858   8.374 -0.5477  0.1000 -0.6731
   75MOL0     H 9853   9.737   5.025   8.498 -0.4511 -1.7758  0.0802
   75MOL0     H 9854   9.528   5.243   8.244 -0.3353  0.8086  1.6235
   75MOL0     H 9855   9.538   5.197   8.411  1.1467  2.1968 -0.5442
   75MOL0     H 9856   9.446   5.019   8.180  0.2132  2.2715 -1.3923
   75MOL0     H 9857   9.342   5.105   8.297  0.2278 -1.0208  0.0020
   75MOL0     H 9858   9.515   4.876   8.357 -2.9420 -3.6624  0.3595
   75MOL0     H 9859   9.434   4.980   8.490 -1.9047  0.5805  0.3182
   75MOL0     H 9860   9.323   4.762   8.409 -1.5579 -0.0446  1.1127
   75MOL0     H 9861   9.297   4.848   8.265 -1.6939 -2.0310  1.4087
   75MOL0     H 9862   9.014   5.061   8.510 -0.4710 -0.4425 -0.1263
   75MOL0     H 9863   8.909   5.041   8.724 -0.0644 -1.3980 -0.6874
   75MOL0     H 9864   8.844   4.718   9.084 -1.4939 -1.7033  0.9643
   75MOL0     H 9865   8.628   4.664   9.239 -0.5702  0.2366  1.0913
   75MOL0     H 9866   8.402   5.035   9.325  0.9727 -0.1217  0.3591
   75MOL0     H 9867   8.313   4.924   9.418  0.9040 -1.8263  0.7900
   75MOL0     H 9868   8.297   4.914   9.114  1.8439  0.8882  0.6629
   75MOL0     H 9869   8.194   5.023   9.208 -5.0895 -2.7985  0.6521
   75MOL0     H 9870   8.071   4.884   9.320  3.8504  2.5830  0.9005
   75MOL0     H 9871   8.174   4.733   9.283 -1.2782 -1.7449 -2.9189
   75MOL0     H 9872   7.957   4.740   9.172 -1.4185  0.0117 -1.1899
   75MOL0     H 9873   8.025   4.877   9.076  0.5144  0.6452  0.8195
   75MOL0     H 9874   8.157   4.591   9.049  1.4812 -0.0028 -2.6762
   75MOL0     H 9875   8.221   4.741   9.008 -0.0808 -1.1917  0.3317
   75MOL0     H 9876   8.109   4.689   8.813  0.9528  0.5742 -0.0785
   75MOL0     H 9877   7.996   4.790   8.895  1.8934  0.0953  1.8705
   75MOL0     H 9878   7.911   4.529   8.980  1.2193 -3.1706 -1.2480
   75MOL0     H 9879   7.841   4.633   8.863  2.1755  3.4896  0.1632
   75MOL0     H 9880   7.917   4.395   8.791  1.5169 -0.8834  3.6683
   75MOL0     H 9881   8.086   4.443   8.808 -0.6594  0.0550  2.2817
   75MOL0     H 9882   8.490   5.054   9.126  1.7139  1.1213 -1.2592
   75MOL0     H 9883   8.661   5.070   8.958 -2.2644  0.1008  0.2032
   75MOL0     H 9884   9.228   4.754   8.830  2.0097  1.4019  0.2559
   75MOL0     H 9885   9.324   4.796   8.627 -0.1171 -0.5584 -0.4219
   75MOL0     H 9886  10.951   5.486   8.309  1.4182  4.0582 -1.2685
   75MOL0     H 9887  11.146   5.603   8.250  1.9236  0.3865  0.7407
   75MOL0     H 9888  11.406   5.750   7.852  0.7497 -1.5357 -1.6556
   75MOL0     H 9889  11.576   5.906   7.819 -2.3132  0.4666  1.8868
   75MOL0     H 9890  11.797   5.959   7.750  0.1857  1.5296  1.4812
   75MOL0     H 9891  11.868   5.790   7.751  2.6657  0.8004 -2.1635
   75MOL0     H 9892  12.079   5.861   7.840 -0.1679 -0.0980  1.8951
   75MOL0     H 9893  12.035   5.946   7.691 -0.8430  1.9039  0.3189
   75MOL0     H 9894  12.033   6.035   7.973 -2.9426 -1.0651 -0.2633
   75MOL0     H 9895  11.955   6.143   7.866  0.5076  1.2959 -0.5878
   75MOL0     H 9896  12.235   6.033   7.818 -1.5668 -1.7242 -0.3128
   75MOL0     H 9897  12.161   6.149   7.716  1.2820 -1.5717  0.3290
   75MOL0     H 9898  12.275   6.416   8.008 -1.0301 -0.4356 -0.3305
   75MOL0     H 9899  11.814   5.718   8.123  0.9053 -1.9330 -0.8491
   75MOL0     H 9900  11.616   5.570   8.187  0.9848 -0.0575 -0.1430
   76MOL0     O 9901   9.602   9.167   4.855 -0.5159 -0.1939  0.5672
   76MOL0     C 9902   9.569   9.121   4.967  0.1961  0.4918 -0.2628
   76MOL0     O 9903   9.656   9.069   5.059 -0.2247 -0.4156  0.6461
   76MOL0     C 9904   9.794   9.057   5.033  0.5856 -0.6614 -0.0684
   76MOL0     C 9905   9.875   9.164   5.062  0.2040 -0.4653  0.2047
   76MOL0     C 9906  10.012   9.161   5.021 -0.4460  0.3882 -0.2708
   76MOL0     C 9907  10.069   9.050   4.965  0.0946  0.3924  0.4366
   76MOL0     O 9908  10.207   9.054   4.956 -0.2558  0.6298  0.2151
   76MOL0     C 9909  10.288   8.930   4.938 -0.2088  0.6381 -0.0081
   76MOL0     C 9910  10.434   8.967   4.878 -0.3521 -0.2155 -0.6860
   76MOL0     C 9911  10.423   9.106   4.804  0.0514 -0.0446  0.4456
   76MOL0     C 9912  10.533   9.135   4.711  0.2292  0.4116 -0.0597
   76MOL0     C 9913  10.495   9.214   4.584 -0.4189 -1.1191  0.1636
   76MOL0     C 9914  10.480   9.365   4.619  0.4294  0.3809 -0.4410
   76MOL0     C 9915  10.434   9.454   4.500  0.2865  0.9566  0.8674
   76MOL0     C 9916  10.388   9.590   4.544  0.6274 -0.0641 -0.2210
   76MOL0     N 9917  10.262   9.609   4.619 -0.5818  0.4973  0.0453
   76MOL0     C 9918  10.271   9.602   4.760  0.2631  0.5005  0.6373
   76MOL0     C 9919  10.143   9.583   4.791 -0.2336  0.6218 -1.2312
   76MOL0     C 9920  10.089   9.559   4.924  0.2933  0.8457  0.1148
   76MOL0     C 9921   9.929   9.580   4.935 -0.7526 -0.1434 -0.1629
   76MOL0     C 9922   9.890   9.731   4.940 -0.1790  0.4185  0.6184
   76MOL0     C 9923   9.733   9.736   4.970 -0.5814 -0.0914 -0.3837
   76MOL0     O 9924   9.712   9.748   5.112 -0.2059 -0.2208 -0.0561
   76MOL0     C 9925   9.590   9.795   5.154 -0.7090 -0.2782  0.0681
   76MOL0     C 9926   9.475   9.836   5.071  0.3840  0.4812 -1.1084
   76MOL0     C 9927   9.355   9.891   5.119  0.9362  0.0582  0.3815
   76MOL0     C 9928   9.337   9.908   5.254 -0.2615  0.1667  0.2897
   76MOL0     C 9929   9.216   9.958   5.304 -0.1439  0.1825  0.0645
   76MOL0     O 9930   9.192   9.949   5.443 -0.4946 -0.1059  0.0252
   76MOL0     C 9931   9.099  10.030   5.512 -0.5705  0.0996  0.2122
   76MOL0     C 9932   9.056   9.985   5.634  0.5531 -0.7904 -0.2389
   76MOL0     C 9933   8.971  10.048   5.717 -0.5903  0.3989  0.0339
   76MOL0     C 9934   8.923  10.182   5.678 -0.4036 -0.1962  0.5753
   76MOL0     O 9935   8.867  10.263   5.770 -0.2280  0.2665  0.9368
   76MOL0     C 9936   8.739  10.213   5.803 -0.2276  0.0963 -0.2305
   76MOL0     C 9937   8.678  10.298   5.918  0.5048  0.1483 -0.1750
   76MOL0     C 9938   8.541  10.243   5.961 -0.9490 -0.4151  0.3397
   76MOL0     C 9939   8.479  10.302   6.088  0.3840  0.3012  0.0585
   76MOL0     C 9940   8.360  10.401   6.077 -0.0046  0.0247  0.0282
   76MOL0     C 9941   8.320  10.449   6.215 -0.3326  0.6577 -0.7528
   76MOL0     C 9942   8.195  10.529   6.230  0.2005  0.6889  0.7810
   76MOL0     C 9943   8.203  10.645   6.136  0.1516 -0.0584  1.1044
   76MOL0    Cl 9944   8.071  10.771   6.176  0.0086 -0.4473 -0.1083
   76MOL0     C 9945   8.957  10.234   5.553  0.0840  0.3755 -0.0441
   76MOL0     C 9946   9.042  10.156   5.471  0.7428 -0.0358 -0.7901
   76MOL0     O 9947   9.133  10.004   5.224  0.5745 -0.1392 -0.1620
   76MOL0     C 9948   9.448   9.876   5.347 -0.1590  0.2937 -0.3177
   76MOL0     C 9949   9.567   9.809   5.292  0.8169 -0.9683 -0.7289
   76MOL0     N 9950  10.061   9.603   4.681 -0.0211  0.4221  0.3783
   76MOL0     N 9951  10.133   9.611   4.575 -0.0822 -0.0049 -0.1940
   76MOL0     C 9952   9.990   8.933   4.954  0.5814  0.9788 -1.0691
   76MOL0     C 9953   9.853   8.943   4.982 -0.0602  0.2940  0.7369
   76MOL0     C 9954   9.432   9.117   5.013  0.9966 -0.5265 -0.1711
   76MOL0     C 9955   9.324   9.160   4.929 -0.6673 -0.7130  0.6199
   76MOL0     C 9956   9.193   9.160   4.967 -0.0938  0.2074  0.2109
   76MOL0     C 9957   9.156   9.110   5.087 -0.1416 -0.3034  0.7464
   76MOL0     O 9958   9.021   9.101   5.117 -0.7053  0.0517  0.3767
   76MOL0     C 9959   8.966   9.045   5.238  0.5713  0.6804  0.0066
   76MOL0     C 9960   8.963   9.153   5.353  0.5406  1.1542  0.3584
   76MOL0     C 9961   8.861   9.138   5.464  0.2208 -0.7761 -0.6154
   76MOL0     C 9962   8.911   9.044   5.570  0.3777  0.1904 -0.3486
   76MOL0     C 9963   8.927   8.905   5.524  0.1599 -0.0010  0.0396
   76MOL0     C 9964   8.930   8.786   5.478  0.7200  0.3096 -0.0179
   76MOL0     C 9965   9.253   9.086   5.182 -0.2094  0.5684  0.2092
   76MOL0     C 9966   9.391   9.079   5.144  0.3490 -0.5128 -0.6118
   76MOL0     H 9967   9.835   9.257   5.102  4.5579  1.9690 -0.4717
   76MOL0     H 9968  10.078   9.242   5.050 -1.4569  0.0125  3.5208
   76MOL0     H 9969  10.240   8.865   4.864 -1.1121  2.0661 -0.7219
   76MOL0     H 9970  10.292   8.876   5.032  2.3710  3.0233  1.3960
   76MOL0     H 9971  10.479   8.893   4.811  1.6523  1.9100 -1.8704
   76MOL0     H 9972  10.501   8.975   4.964  0.0833  0.6597 -1.0951
   76MOL0     H 9973  10.406   9.181   4.883 -1.2496 -1.3729  1.4704
   76MOL0     H 9974  10.332   9.105   4.744  1.5129 -0.6720 -1.9118
   76MOL0     H 9975  10.607   9.189   4.772  0.2187  1.0130 -0.5646
   76MOL0     H 9976  10.578   9.042   4.675 -1.7742 -0.0114 -1.6765
   76MOL0     H 9977  10.396   9.180   4.551 -0.6473 -0.3938  0.0938
   76MOL0     H 9978  10.573   9.209   4.508  0.5577  0.2453  1.0422
   76MOL0     H 9979  10.566   9.409   4.671 -1.4366 -0.0378  3.3934
   76MOL0     H 9980  10.403   9.354   4.697  0.6441 -1.4403 -0.4443
   76MOL0     H 9981  10.508   9.468   4.420  0.2512 -0.0564  0.6482
   76MOL0     H 9982  10.348   9.404   4.455  1.6545  0.4587 -1.3602
   76MOL0     H 9983  10.377   9.648   4.452  1.2158  0.3694 -0.0189
   76MOL0     H 9984  10.464   9.633   4.610  3.2934 -1.9659 -1.8076
   76MOL0     H 9985  10.357   9.600   4.827 -0.5582  1.0361  1.7418
   76MOL0     H 9986  10.147   9.625   4.987 -2.2533  0.9396  2.5657
   76MOL0     H 9987  10.120   9.459   4.956  1.0399  1.4368  1.2513
   76MOL0     H 9988   9.904   9.524   5.025 -3.1633 -1.4733 -1.5587
   76MOL0     H 9989   9.877   9.524   4.857  1.0100 -2.1690  0.0084
   76MOL0     H 9990   9.945   9.789   5.015  1.0319 -0.5896  0.5242
   76MOL0     H 9991   9.893   9.776   4.840  1.0572  1.2721  1.0166
   76MOL0     H 9992   9.665   9.664   4.923 -1.4039  0.5625 -0.2371
   76MOL0     H 9993   9.702   9.832   4.927 -2.9326 -0.5279  0.1974
   76MOL0     H 9994   9.496   9.828   4.965  0.5017  1.2469 -1.1484
   76MOL0     H 9995   9.271   9.905   5.052 -0.8820 -0.2362  2.5087
   76MOL0     H 9996   9.101   9.889   5.660 -0.1957 -0.5831  2.0451
   76MOL0     H 9997   8.949  10.008   5.816 -0.3615 -1.4462 -0.6248
   76MOL0     H 9998   8.745  10.107   5.831  0.5257  0.2395  0.1671
   76MOL0     H 9999   8.660  10.226   5.729  0.7038  0.9742 -1.0838
   76MOL0     H10000   8.662  10.402   5.888  2.7009  0.8013  0.7383
   76MOL0     H10001   8.744  10.302   6.005  0.8432 -0.1416 -0.4176
   76MOL0     H10002   8.551  10.134   5.968 -1.3570 -0.7593 -2.9242
   76MOL0     H10003   8.473  10.275   5.881  2.6398  2.9007 -1.7179
   76MOL0     H10004   8.460  10.214   6.151 -0.1857  0.8563  0.6799
   76MOL0     H10005   8.549  10.353   6.156  0.8126  0.0153 -0.1672
   76MOL0     H10006   8.273  10.354   6.030 -1.7897  3.4808 -0.4375
   76MOL0     H10007   8.394  10.476   6.005  0.9409 -0.9676 -0.6022
   76MOL0     H10008   8.398  10.510   6.261  0.7305 -0.5394 -0.8902
   76MOL0     H10009   8.307  10.363   6.282 -0.8434 -0.5016 -2.2757
   76MOL0     H10010   8.113  10.463   6.201  2.1592 -0.8764 -1.6983
   76MOL0     H10011   8.179  10.569   6.330  0.2356  1.9099  0.3163
   76MOL0     H10012   8.189  10.609   6.034 -4.2539  3.6906  0.0538
   76MOL0     H10013   8.303  10.689   6.141 -0.2960  1.0714  0.4165
   76MOL0     H10014   8.917  10.325   5.509  2.2550  0.1632 -2.6909
   76MOL0     H10015   9.067  10.193   5.372 -1.0398  1.4193 -0.7515
   76MOL0     H10016   9.442   9.912   5.449  0.8092 -2.6280  0.8883
   76MOL0     H10017   9.642   9.796   5.369 -0.8085 -1.2264  0.8759
   76MOL0     H10018  10.021   8.832   4.930 -3.4306  0.2320 -4.0513
   76MOL0     H10019   9.802   8.848   4.967 -1.0951  0.9484  0.0201
   76MOL0     H10020   9.336   9.179   4.822  2.1954 -3.2872  0.3466
   76MOL0     H10021   9.120   9.173   4.888  2.2653  0.0411 -2.1657
   76MOL0     H10022   9.020   8.955   5.269 -0.9205  0.0408  0.8657
   76MOL0     H10023   8.866   9.010   5.210  1.1238 -2.9493  1.8969
   76MOL0     H10024   9.067   9.159   5.388  0.7744  0.0780 -0.0989
   76MOL0     H10025   8.942   9.249   5.306 -1.3949  1.3328  1.4601
   76MOL0     H10026   8.760   9.113   5.430  0.2941  1.4851 -2.7711
   76MOL0     H10027   8.852   9.235   5.515 -2.9780 -1.0375 -0.4890
   76MOL0     H10028   9.005   9.079   5.613 -0.2361 -0.0069  1.1893
   76MOL0     H10029   8.849   9.030   5.659  1.8766  1.5085  0.9584
   76MOL0     H10030   8.923   8.689   5.433 -1.9480  1.3835 -2.1688
   76MOL0     H10031   9.230   9.059   5.284 -0.1795  2.4105  0.7341
   76MOL0     H10032   9.462   9.046   5.220 -1.1993 -1.9999  0.2557
   77MOL0     O10033  10.046   5.109   5.516 -0.1010 -0.2487  0.3933
   77MOL0     C10034  10.088   5.021   5.593  0.0099 -0.0514 -0.2582
   77MOL0     O10035  10.019   4.961   5.692  0.4246 -0.4971 -0.1898
   77MOL0     C10036   9.886   4.954   5.704  0.4939 -0.3570  0.0662
   77MOL0     C10037   9.793   4.993   5.611 -0.9430 -0.2215  0.3525
   77MOL0     C10038   9.655   4.972   5.631 -0.6843  0.0937  0.9999
   77MOL0     C10039   9.617   4.906   5.744  1.0550 -0.3808 -0.2701
   77MOL0     O10040   9.481   4.876   5.757  0.5953  1.0810  0.7040
   77MOL0     C10041   9.430   4.817   5.878  0.5213 -0.6736  0.2633
   77MOL0     C10042   9.280   4.795   5.862  0.3707  0.1953  0.3385
   77MOL0     C10043   9.207   4.727   5.980  1.0030 -0.2003 -0.1682
   77MOL0     C10044   9.069   4.698   5.923  0.4180  0.0570  0.3324
   77MOL0     C10045   8.968   4.666   6.030 -0.0056 -0.5517  0.0037
   77MOL0     C10046   8.867   4.555   5.967 -0.9690  0.1461  1.1119
   77MOL0     C10047   8.763   4.519   6.057 -0.0282 -0.2170  0.0238
   77MOL0     C10048   8.659   4.636   6.058 -0.0643  0.1519  0.4067
   77MOL0     N10049   8.535   4.598   6.120 -0.1284 -0.0456 -0.4051
   77MOL0     C10050   8.415   4.569   6.057  0.5080 -1.8090 -1.0821
   77MOL0     C10051   8.328   4.512   6.141 -0.9634 -1.0052 -1.0372
   77MOL0     C10052   8.187   4.462   6.114 -0.6583 -0.0162 -0.1621
   77MOL0     C10053   8.078   4.563   6.075  0.3719 -0.2694  0.0093
   77MOL0     C10054   7.960   4.500   5.987 -0.2288 -0.3368 -0.4111
   77MOL0     C10055   7.906   4.366   6.041 -0.2100 -0.2341  0.2372
   77MOL0     O10056   7.853   4.381   6.175 -0.1164  0.8459  0.6131
   77MOL0     C10057   7.713   4.366   6.190  0.0639 -0.7204  0.4625
   77MOL0     C10058   7.636   4.480   6.215 -0.4329  0.7828  0.5232
   77MOL0     C10059   7.493   4.471   6.240  0.3477 -0.3955  0.1591
   77MOL0     C10060   7.439   4.341   6.235  0.5413 -0.4115  0.0259
   77MOL0     C10061   7.295   4.314   6.257 -0.2934 -0.3123 -0.0084
   77MOL0     O10062   7.260   4.182   6.250  0.2594 -0.0242  0.6672
   77MOL0     C10063   7.126   4.167   6.269  0.3828  0.6607  0.3088
   77MOL0     C10064   7.028   4.170   6.167  0.6711 -0.4458 -0.6255
   77MOL0     C10065   6.895   4.140   6.188 -0.3380  0.5984  0.4672
   77MOL0     C10066   6.858   4.088   6.308 -0.1000 -0.3229 -0.2591
   77MOL0     O10067   6.723   4.048   6.304  0.6107  0.5065  0.0560
   77MOL0     C10068   6.656   4.020   6.430  0.6386 -0.6655 -0.5007
   77MOL0     C10069   6.506   4.028   6.429  0.6648  1.0946  0.0728
   77MOL0     C10070   6.444   3.999   6.563  0.6090 -1.0525  0.3101
   77MOL0     C10071   6.481   4.114   6.663 -0.0248 -0.0101  0.3911
   77MOL0     C10072   6.378   4.112   6.777  0.0425 -0.5412 -1.3078
   77MOL0     C10073   6.410   4.007   6.889 -0.3913  0.2774  0.2032
   77MOL0     C10074   6.287   4.001   6.989  0.9317 -1.0935  0.2041
   77MOL0     C10075   6.328   3.927   7.115 -0.0061  0.2684 -0.3800
   77MOL0    Cl10076   6.483   3.977   7.202  0.1680 -0.0224 -0.1590
   77MOL0     C10077   6.954   4.073   6.415 -0.0910 -0.1443 -0.5511
   77MOL0     C10078   7.090   4.124   6.390  0.4263 -0.3130 -0.4397
   77MOL0     O10079   7.219   4.410   6.284 -0.6003 -0.1701  0.1197
   77MOL0     C10080   7.526   4.237   6.197  0.3885  0.1065 -0.7627
   77MOL0     C10081   7.664   4.246   6.183  0.2417 -0.7680 -0.0016
   77MOL0     N10082   8.412   4.499   6.260  0.7117  0.4187 -0.6184
   77MOL0     N10083   8.528   4.545   6.249  0.2036  0.0760  0.5746
   77MOL0     C10084   9.707   4.863   5.840 -0.5643  0.1133 -0.6217
   77MOL0     C10085   9.839   4.895   5.822 -0.0771  0.7470 -0.4748
   77MOL0     C10086  10.227   4.968   5.569 -0.1939 -0.2756  0.1008
   77MOL0     C10087  10.291   4.895   5.670 -0.6424 -0.0464 -0.0072
   77MOL0     C10088  10.429   4.861   5.659  0.4054  0.0888 -0.4461
   77MOL0     C10089  10.497   4.896   5.545  0.7477 -0.0773 -0.6962
   77MOL0     O10090  10.623   4.843   5.540  0.2175  0.2205  0.3205
   77MOL0     C10091  10.721   4.880   5.438 -0.3089  0.0072 -0.7462
   77MOL0     C10092  10.865   4.855   5.473 -0.4495  0.8338 -1.3070
   77MOL0     C10093  10.915   4.935   5.601  0.9856  0.1047 -0.7306
   77MOL0     C10094  11.041   4.883   5.669 -0.2679  0.3149 -0.2758
   77MOL0     C10095  11.169   4.907   5.585  0.3505  0.3140 -0.2534
   77MOL0     C10096  11.268   4.926   5.517 -0.1721  0.9067  0.4683
   77MOL0     C10097  10.439   4.972   5.444 -0.5604 -0.4515 -0.1560
   77MOL0     C10098  10.310   5.009   5.460 -0.6094 -0.3118  0.3129
   77MOL0     H10099   9.823   5.036   5.516  0.0638  0.1937  0.8456
   77MOL0     H10100   9.584   4.999   5.554 -2.7531  1.0504  3.1016
   77MOL0     H10101   9.444   4.899   5.950 -1.9831  1.8565 -1.8735
   77MOL0     H10102   9.480   4.722   5.898 -1.4124 -1.4263  1.9022
   77MOL0     H10103   9.265   4.738   5.770  0.5894  1.8762 -0.7731
   77MOL0     H10104   9.241   4.897   5.852 -1.6668 -0.6203 -0.6015
   77MOL0     H10105   9.207   4.791   6.068  0.1724 -0.5288  0.0785
   77MOL0     H10106   9.243   4.627   6.005 -3.5787 -2.0890 -0.0121
   77MOL0     H10107   9.029   4.774   5.855  1.7052 -1.5607 -2.4316
   77MOL0     H10108   9.082   4.619   5.848  0.3029 -0.0665  0.4419
   77MOL0     H10109   8.925   4.755   6.076 -0.2365 -1.1372  0.9500
   77MOL0     H10110   9.012   4.610   6.113 -0.0814 -0.5413  0.0505
   77MOL0     H10111   8.922   4.466   5.934 -0.4581  0.1518  1.9222
   77MOL0     H10112   8.832   4.606   5.877  0.0906 -1.6806 -0.4007
   77MOL0     H10113   8.710   4.431   6.019 -1.2106 -1.3544  3.8266
   77MOL0     H10114   8.798   4.505   6.160 -0.3649  1.1777  0.3451
   77MOL0     H10115   8.635   4.663   5.955  0.8063  0.9399  0.4016
   77MOL0     H10116   8.690   4.726   6.111 -1.3213  0.9315 -0.1501
   77MOL0     H10117   8.400   4.599   5.954  0.9899  1.2723 -0.3715
   77MOL0     H10118   8.150   4.413   6.205  2.5404 -1.0232  0.7308
   77MOL0     H10119   8.202   4.389   6.033 -0.2919 -1.1496  0.8984
   77MOL0     H10120   8.124   4.640   6.012  1.0388 -2.3434 -2.1642
   77MOL0     H10121   8.037   4.601   6.170 -3.6830 -1.6192 -0.9910
   77MOL0     H10122   7.871   4.563   5.987  0.6211  1.0537 -3.5749
   77MOL0     H10123   7.999   4.503   5.885  1.7149  1.6311  0.3180
   77MOL0     H10124   7.977   4.283   6.041  0.1583  0.0225 -1.6575
   77MOL0     H10125   7.829   4.341   5.968  0.1488  1.2067 -0.6920
   77MOL0     H10126   7.691   4.573   6.208 -1.6095  1.4839  0.1545
   77MOL0     H10127   7.434   4.557   6.270 -2.0697 -1.8137 -0.2304
   77MOL0     H10128   7.051   4.207   6.067  0.7907  0.8394 -0.1347
   77MOL0     H10129   6.812   4.144   6.117 -1.3262 -1.0440  1.4493
   77MOL0     H10130   6.684   4.092   6.508 -0.4869 -1.6847  0.8946
   77MOL0     H10131   6.688   3.921   6.461 -1.1900 -1.3987 -0.8431
   77MOL0     H10132   6.465   3.954   6.360 -2.3006  1.6571  1.1203
   77MOL0     H10133   6.483   4.128   6.391 -0.3685  1.1703  0.8604
   77MOL0     H10134   6.488   3.902   6.590 -0.3366 -1.6925 -0.3505
   77MOL0     H10135   6.337   3.991   6.544  0.3793 -1.6040  1.6785
   77MOL0     H10136   6.579   4.100   6.710 -0.5673  2.8710  2.6922
   77MOL0     H10137   6.480   4.209   6.609  1.5835 -0.8491 -1.2125
   77MOL0     H10138   6.281   4.087   6.732 -0.5757 -2.0094  0.7021
   77MOL0     H10139   6.367   4.209   6.827  4.8923 -0.2489 -0.2982
   77MOL0     H10140   6.500   4.045   6.939  0.5781 -1.3656 -0.2210
   77MOL0     H10141   6.424   3.910   6.839 -2.2869  0.9131 -1.7367
   77MOL0     H10142   6.265   4.101   7.027 -0.7415 -1.6462  0.7496
   77MOL0     H10143   6.195   3.965   6.942  0.4180 -1.1151  1.2080
   77MOL0     H10144   6.331   3.819   7.100  0.4819  0.2494 -0.1647
   77MOL0     H10145   6.249   3.933   7.191  0.9831  1.7950  0.5745
   77MOL0     H10146   6.917   4.041   6.511  0.2848  3.1602  0.8324
   77MOL0     H10147   7.161   4.104   6.470  0.8867 -0.2972 -0.8375
   77MOL0     H10148   7.496   4.135   6.176  2.3153 -0.4505 -0.9766
   77MOL0     H10149   7.736   4.168   6.161  1.7149  0.5712 -0.1643
   77MOL0     H10150   9.676   4.811   5.930  0.9900  3.5658  2.1613
   77MOL0     H10151   9.900   4.898   5.912 -0.6571  0.9376 -0.0772
   77MOL0     H10152  10.240   4.863   5.761 -0.0453  3.1400  1.5839
   77MOL0     H10153  10.465   4.805   5.745  0.2284  1.5008  0.5794
   77MOL0     H10154  10.715   4.989   5.430 -3.7544  0.4282  3.7183
   77MOL0     H10155  10.706   4.826   5.344  1.2530  1.4044 -1.8768
   77MOL0     H10156  10.868   4.747   5.488 -0.7393  0.9081 -0.7030
   77MOL0     H10157  10.938   4.878   5.394  1.9260  3.5948  1.3923
   77MOL0     H10158  10.839   4.926   5.680  1.7884 -3.7408 -0.1937
   77MOL0     H10159  10.936   5.037   5.570  1.8255 -1.1830 -5.0226
   77MOL0     H10160  11.057   4.927   5.768 -1.4712 -1.5960  0.8325
   77MOL0     H10161  11.034   4.777   5.695 -2.4906 -0.2010 -2.5573
   77MOL0     H10162  11.365   4.932   5.473  0.5903 -1.2493  1.6995
   77MOL0     H10163  10.493   4.995   5.353 -1.5474  0.3049 -0.5610
   77MOL0     H10164  10.279   5.069   5.375  1.4269 -1.2931 -1.2006
   78MOL0     O10165   9.591   5.411   8.554 -0.4094  0.3841  0.3342
   78MOL0     C10166   9.510   5.475   8.616  1.0864 -0.8112 -0.5649
   78MOL0     O10167   9.536   5.559   8.707  0.0917  0.3210  0.1041
   78MOL0     C10168   9.670   5.580   8.739  0.4741 -0.0767  0.5892
   78MOL0     C10169   9.733   5.521   8.853 -0.1194  0.2797  0.2923
   78MOL0     C10170   9.868   5.533   8.880  0.4481 -0.0787  0.7420
   78MOL0     C10171   9.952   5.597   8.786 -0.8772  0.1954 -0.4775
   78MOL0     O10172  10.096   5.621   8.804  0.5502  0.2989  0.7304
   78MOL0     C10173  10.171   5.508   8.858  0.1564 -0.2842 -0.4337
   78MOL0     C10174  10.310   5.558   8.867 -0.0519  0.2958 -0.1513
   78MOL0     C10175  10.357   5.549   9.009 -0.7051  0.2128 -0.5560
   78MOL0     C10176  10.511   5.558   9.024  0.0233 -0.3625  0.6635
   78MOL0     C10177  10.575   5.545   9.161 -0.2703 -0.0373 -0.1612
   78MOL0     C10178  10.553   5.669   9.246 -0.3800 -0.7499 -0.0870
   78MOL0     C10179  10.623   5.648   9.379 -0.6220 -0.2974  0.1388
   78MOL0     C10180  10.555   5.567   9.479  0.0444  0.7659 -0.1843
   78MOL0     N10181  10.606   5.430   9.469 -1.0968 -0.6632  0.2646
   78MOL0     C10182  10.732   5.388   9.525  0.1891  0.5622 -0.3798
   78MOL0     C10183  10.720   5.253   9.506 -0.5952 -0.0207 -0.9925
   78MOL0     C10184  10.826   5.145   9.532 -0.0917  0.4613  0.0006
   78MOL0     C10185  10.824   5.095   9.680  1.0104 -0.0621 -0.3117
   78MOL0     C10186  10.898   5.188   9.775 -0.2876  0.1938 -0.1853
   78MOL0     C10187  10.887   5.115   9.918  0.1565  0.2025 -0.0138
   78MOL0     O10188  10.750   5.121   9.954  0.4994  0.9504  0.0357
   78MOL0     C10189  10.694   5.049  10.053  1.0473 -0.4969  0.2686
   78MOL0     C10190  10.555   5.050  10.063 -0.0164 -0.0452 -0.5629
   78MOL0     C10191  10.486   4.994  10.169  0.1901  0.4451 -0.7581
   78MOL0     C10192  10.552   4.942  10.277  0.0600  0.0058 -0.2907
   78MOL0     C10193  10.471   4.880  10.385  0.1439  0.2399 -1.0984
   78MOL0     O10194  10.338   4.857  10.364 -0.3452 -0.3120  0.4280
   78MOL0     C10195  10.265   4.785  10.446 -0.1592  0.8244 -0.1527
   78MOL0     C10196  10.198   4.674  10.397 -0.0827 -0.2698  0.3125
   78MOL0     C10197  10.116   4.595  10.485 -0.0711 -0.6656  0.0955
   78MOL0     C10198  10.111   4.629  10.617 -0.3428  0.5326  0.4481
   78MOL0     O10199  10.040   4.545  10.695  0.1275 -0.8612  0.3385
   78MOL0     C10200  10.014   4.570  10.834  0.0476 -0.7091 -0.7487
   78MOL0     C10201   9.930   4.455  10.869  0.1099  0.7574 -1.4393
   78MOL0     C10202   9.913   4.431  11.027  0.3360  0.6113  0.2048
   78MOL0     C10203   9.824   4.311  11.049  0.2907 -0.7071 -0.2917
   78MOL0     C10204   9.763   4.326  11.189  0.3482 -0.1601  0.3748
   78MOL0     C10205   9.679   4.446  11.214  0.3253 -0.4485 -0.1500
   78MOL0     C10206   9.604   4.422  11.340 -0.1187  0.4802 -0.3759
   78MOL0     C10207   9.684   4.458  11.462 -0.1531  0.8495 -0.1606
   78MOL0    Cl10208   9.605   4.422  11.617  0.1961  0.4609 -0.1929
   78MOL0     C10209  10.168   4.742  10.663 -0.0070 -0.5537 -0.0308
   78MOL0     C10210  10.259   4.815  10.588  0.1741  0.0604 -0.6191
   78MOL0     O10211  10.531   4.844  10.490 -0.1406  0.7955 -0.3793
   78MOL0     C10212  10.693   4.957  10.278  0.0943 -0.3207 -0.6274
   78MOL0     C10213  10.763   5.002  10.166 -0.1373  0.3658 -0.4025
   78MOL0     N10214  10.591   5.228   9.450 -0.0398 -0.0281  0.0172
   78MOL0     N10215  10.525   5.335   9.431 -0.6102 -0.3086  0.8657
   78MOL0     C10216   9.893   5.650   8.673 -0.9833 -0.1504 -0.2931
   78MOL0     C10217   9.754   5.647   8.650 -0.1913  0.0656  0.2827
   78MOL0     C10218   9.363   5.457   8.595 -0.2708 -0.0435  0.9927
   78MOL0     C10219   9.261   5.509   8.673 -0.1262  0.2030  0.5853
   78MOL0     C10220   9.125   5.481   8.642  0.6792 -0.4856 -0.3311
   78MOL0     C10221   9.093   5.426   8.514 -0.2445 -0.4675  0.0002
   78MOL0     O10222   8.967   5.400   8.465  0.1983  0.4718 -0.3238
   78MOL0     C10223   8.864   5.465   8.543 -0.4536  0.0545 -0.6716
   78MOL0     C10224   8.727   5.451   8.477 -0.0128 -0.4537  0.2844
   78MOL0     C10225   8.709   5.514   8.335  0.3116 -0.0637 -0.4942
   78MOL0     C10226   8.575   5.485   8.277  0.3009  0.7542  0.0616
   78MOL0     C10227   8.559   5.341   8.251 -0.6536 -0.3398  0.0306
   78MOL0     C10228   8.557   5.229   8.211  0.7873  0.2600  0.1914
   78MOL0     C10229   9.198   5.385   8.440  0.2539  0.1722 -0.1935
   78MOL0     C10230   9.324   5.395   8.472 -0.5698  0.5971 -0.0435
   78MOL0     H10231   9.660   5.470   8.915  0.0707  0.0840  0.3561
   78MOL0     H10232   9.897   5.493   8.977 -1.7489  0.9616  1.8983
   78MOL0     H10233  10.164   5.426   8.786 -4.2050 -2.1545  1.7387
   78MOL0     H10234  10.130   5.470   8.952 -2.4229 -0.7723 -1.6551
   78MOL0     H10235  10.310   5.665   8.844 -2.0377  0.9601  2.4686
   78MOL0     H10236  10.377   5.510   8.795  1.6421  4.2664 -1.4864
   78MOL0     H10237  10.333   5.453   9.055  0.0459  1.3454  2.4526
   78MOL0     H10238  10.307   5.619   9.077 -0.6276  0.0517 -0.3315
   78MOL0     H10239  10.557   5.485   8.957  0.0636  0.9842 -0.8444
   78MOL0     H10240  10.540   5.657   8.986 -1.3633  0.2503  1.1410
   78MOL0     H10241  10.683   5.528   9.157  0.4394  3.5844  0.4569
   78MOL0     H10242  10.536   5.451   9.203 -3.0009  1.2538  0.4152
   78MOL0     H10243  10.446   5.687   9.257 -0.3235 -0.6507  0.3213
   78MOL0     H10244  10.589   5.763   9.203  0.1903 -0.7298  0.4173
   78MOL0     H10245  10.730   5.638   9.361 -1.2043 -1.9682 -3.1389
   78MOL0     H10246  10.619   5.741   9.436 -0.2631  1.0130 -1.8558
   78MOL0     H10247  10.450   5.569   9.446  0.0037 -0.1896 -0.1428
   78MOL0     H10248  10.558   5.608   9.580 -0.2789 -1.8654  0.9562
   78MOL0     H10249  10.799   5.437   9.594 -1.3202 -0.2650  1.7825
   78MOL0     H10250  10.926   5.188   9.521 -0.7532  2.0177 -0.2133
   78MOL0     H10251  10.809   5.058   9.468  0.3951 -1.5826  2.5313
   78MOL0     H10252  10.850   4.988   9.685 -2.6137 -1.0340  0.9617
   78MOL0     H10253  10.719   5.111   9.707  0.9326 -1.9058  0.6465
   78MOL0     H10254  11.006   5.194   9.759 -0.3358 -0.1852 -0.7054
   78MOL0     H10255  10.857   5.289   9.778  0.7267  0.6214 -0.5005
   78MOL0     H10256  10.953   5.151   9.999  1.4196 -1.5060 -0.2359
   78MOL0     H10257  10.906   5.008   9.909 -3.2405 -0.6265  1.2463
   78MOL0     H10258  10.489   5.083   9.984 -4.1704 -5.9202 -0.1769
   78MOL0     H10259  10.378   4.995  10.172  0.2077  1.2948  0.3908
   78MOL0     H10260  10.208   4.646  10.292 -0.7784  0.1963  0.1198
   78MOL0     H10261  10.074   4.505  10.441  1.1168  0.1175 -2.8772
   78MOL0     H10262   9.969   4.668  10.850 -0.9288 -1.4350  1.2487
   78MOL0     H10263  10.104   4.565  10.896 -0.6661 -0.9143  0.2870
   78MOL0     H10264   9.975   4.366  10.824 -1.4769  0.5325 -2.7019
   78MOL0     H10265   9.829   4.460  10.826 -1.3514  1.9951  1.7958
   78MOL0     H10266   9.891   4.529  11.071 -1.0451  0.6153 -0.4296
   78MOL0     H10267  10.005   4.409  11.083 -1.5967 -2.7703  2.4127
   78MOL0     H10268   9.746   4.309  10.973 -0.2281 -0.5579  0.2317
   78MOL0     H10269   9.884   4.220  11.042  1.8537  0.2724 -0.1904
   78MOL0     H10270   9.835   4.325  11.272  1.7134  2.9199 -0.6237
   78MOL0     H10271   9.709   4.235  11.215 -2.0174  1.5331  1.8028
   78MOL0     H10272   9.626   4.468  11.121  0.5593  1.7467  0.1764
   78MOL0     H10273   9.740   4.535  11.233  1.8609 -0.8045 -2.8631
   78MOL0     H10274   9.517   4.487  11.328  0.5458  1.3255 -0.6418
   78MOL0     H10275   9.570   4.318  11.354  3.1615 -0.8176 -1.1951
   78MOL0     H10276   9.704   4.565  11.473  2.6736  0.3462  0.4281
   78MOL0     H10277   9.782   4.408  11.460 -1.1636 -1.4559  2.4924
   78MOL0     H10278  10.154   4.762  10.769 -0.8239  0.0686 -0.2401
   78MOL0     H10279  10.310   4.905  10.623  0.3922 -1.2377  2.8340
   78MOL0     H10280  10.742   4.913  10.365  0.2823  0.6068 -0.2494
   78MOL0     H10281  10.871   4.997  10.164 -0.0407 -4.7004 -4.9602
   78MOL0     H10282   9.957   5.699   8.601 -1.5447  0.0313 -0.6765
   78MOL0     H10283   9.710   5.682   8.557  1.1635  0.0204 -0.3958
   78MOL0     H10284   9.300   5.554   8.764  1.9234 -2.7295  1.2763
   78MOL0     H10285   9.050   5.509   8.717 -1.0647 -1.5982 -1.5791
   78MOL0     H10286   8.885   5.571   8.559  0.0392  0.3072 -2.6782
   78MOL0     H10287   8.867   5.424   8.644  0.8515 -1.5255 -1.3034
   78MOL0     H10288   8.699   5.346   8.479 -2.7070  0.1885  1.0674
   78MOL0     H10289   8.656   5.507   8.539  0.3389  1.6605 -1.1167
   78MOL0     H10290   8.788   5.483   8.265  0.2261 -0.3710 -0.4520
   78MOL0     H10291   8.711   5.624   8.337 -0.1513 -0.0558 -0.4926
   78MOL0     H10292   8.490   5.513   8.339 -1.1467 -3.1185  0.0666
   78MOL0     H10293   8.563   5.550   8.190 -1.5742  3.1961  1.9587
   78MOL0     H10294   8.559   5.133   8.163 -0.5233  0.8077 -1.0567
   78MOL0     H10295   9.174   5.351   8.340  2.2446  0.5330 -0.8370
   78MOL0     H10296   9.387   5.374   8.387  1.0250  1.7479  0.7924
   79MOL0     O10297   9.267   9.769   5.881  0.2420 -0.7096 -1.3643
   79MOL0     C10298   9.394   9.771   5.893  0.0809 -0.5426  0.7620
   79MOL0     O10299   9.475   9.813   6.007 -0.0666  0.5209 -0.0824
   79MOL0     C10300   9.414   9.828   6.133 -0.7704  0.0482 -0.5297
   79MOL0     C10301   9.308   9.752   6.192 -0.3017  0.5615  0.6046
   79MOL0     C10302   9.261   9.781   6.319  0.6892  0.2910  1.0499
   79MOL0     C10303   9.300   9.891   6.389 -0.0878  0.1138  0.4481
   79MOL0     O10304   9.236   9.909   6.509 -0.1241  0.2910  0.2491
   79MOL0     C10305   9.303   9.994   6.597  0.0093 -0.0502 -0.1394
   79MOL0     C10306   9.214  10.006   6.719 -0.6714 -0.6008  1.4403
   79MOL0     C10307   9.089  10.096   6.683  0.3654  0.3449 -0.2923
   79MOL0     C10308   8.989  10.103   6.798  0.1819  0.2181 -0.3357
   79MOL0     C10309   8.894  10.222   6.808 -0.4307  0.9836 -1.1929
   79MOL0     C10310   8.815  10.228   6.949 -0.1058 -0.2560  0.4838
   79MOL0     C10311   8.698  10.126   6.963 -0.7326 -0.0468 -0.7326
   79MOL0     C10312   8.575  10.150   6.874  0.2097  0.3660 -0.7048
   79MOL0     N10313   8.459  10.064   6.915  0.5485 -0.2203 -0.6149
   79MOL0     C10314   8.376  10.094   7.020  0.2650  0.4816 -1.0133
   79MOL0     C10315   8.289   9.988   7.016  0.1725 -0.1191 -0.5537
   79MOL0     C10316   8.194   9.964   7.129  0.6532 -0.4196  0.5141
   79MOL0     C10317   8.104  10.084   7.152 -0.9325 -0.2497  0.1334
   79MOL0     C10318   8.054  10.097   7.299 -0.9240  0.8929  0.5050
   79MOL0     C10319   7.922  10.175   7.301  0.7383 -0.2821  0.2511
   79MOL0     O10320   7.939  10.296   7.243  0.5260  0.8523  0.8627
   79MOL0     C10321   7.980  10.405   7.316 -0.9436  0.7849  0.1954
   79MOL0     C10322   8.113  10.444   7.290 -0.3867  0.9309 -0.8473
   79MOL0     C10323   8.181  10.540   7.351  0.6771  0.6719 -0.7994
   79MOL0     C10324   8.123  10.594   7.474 -1.0445 -0.6989  0.0072
   79MOL0     C10325   8.202  10.687   7.553  0.5693 -0.0691  0.6245
   79MOL0     O10326   8.170  10.692   7.684 -0.1974 -0.2354 -0.2708
   79MOL0     C10327   8.218  10.801   7.750  0.2112  0.5456 -0.7491
   79MOL0     C10328   8.340  10.798   7.807 -0.7197 -0.6553 -0.0608
   79MOL0     C10329   8.392  10.905   7.872 -0.3146 -0.4704  1.2783
   79MOL0     C10330   8.318  11.025   7.878  0.3953 -0.6959 -0.4815
   79MOL0     O10331   8.359  11.147   7.936 -0.0143  0.5046  0.4408
   79MOL0     C10332   8.504  11.168   7.960  0.6880  0.5477  0.2739
   79MOL0     C10333   8.544  11.301   8.028  0.2047  0.2045  0.1536
   79MOL0     C10334   8.698  11.311   8.040  1.2594 -0.8701 -0.1013
   79MOL0     C10335   8.766  11.322   7.902 -0.6288 -0.3477  0.0559
   79MOL0     C10336   8.916  11.338   7.919  0.4342  0.2629  0.9997
   79MOL0     C10337   8.991  11.327   7.790 -0.8822 -0.2530  0.1653
   79MOL0     C10338   9.136  11.308   7.813 -0.0930  0.7708  0.0410
   79MOL0     C10339   9.201  11.297   7.677  0.3466 -0.2058  0.9610
   79MOL0    Cl10340   9.386  11.276   7.671 -0.0983  0.0640 -0.1190
   79MOL0     C10341   8.186  11.027   7.825 -0.2500  0.5161 -0.7251
   79MOL0     C10342   8.138  10.923   7.756  0.7012 -0.0979 -0.1938
   79MOL0     O10343   8.291  10.744   7.488  0.0252  0.5630  0.0184
   79MOL0     C10344   7.992  10.557   7.504  0.1944 -0.6076  0.7323
   79MOL0     C10345   7.919  10.467   7.425 -0.3590 -0.4613 -0.5433
   79MOL0     N10346   8.311   9.910   6.908  0.4633  0.4962  0.6394
   79MOL0     N10347   8.414   9.962   6.843 -0.4142  0.4183 -0.3919
   79MOL0     C10348   9.407   9.967   6.330 -0.3637  0.1948 -0.2432
   79MOL0     C10349   9.466   9.936   6.205  0.3857 -0.7123 -0.3132
   79MOL0     C10350   9.463   9.713   5.777 -0.5447 -0.3357  0.8915
   79MOL0     C10351   9.602   9.689   5.778  0.2266 -0.1315 -0.5116
   79MOL0     C10352   9.663   9.628   5.670 -0.3263 -0.3074  0.2678
   79MOL0     C10353   9.593   9.587   5.555  0.8145  0.4741 -0.7839
   79MOL0     O10354   9.669   9.530   5.444  0.6809 -0.1043 -0.0570
   79MOL0     C10355   9.616   9.439   5.346 -0.0802  0.5254  0.6383
   79MOL0     C10356   9.533   9.319   5.420  0.6304 -0.9673  0.3387
   79MOL0     C10357   9.602   9.237   5.530  0.7206  0.0493  0.1683
   79MOL0     C10358   9.509   9.133   5.587 -0.3626 -0.1269 -0.4238
   79MOL0     C10359   9.572   9.040   5.681 -0.7212 -0.2254 -0.2562
   79MOL0     C10360   9.628   8.960   5.756 -0.5965  0.0147 -0.3924
   79MOL0     C10361   9.455   9.610   5.557 -0.6118 -0.0707  0.0310
   79MOL0     C10362   9.397   9.666   5.665 -0.4436 -0.4078  0.2725
   79MOL0     H10363   9.261   9.667   6.144 -2.4922  0.9762  1.8976
   79MOL0     H10364   9.184   9.718   6.363  0.4301  0.5064  0.9071
   79MOL0     H10365   9.321  10.096   6.561 -0.8170 -0.4792 -1.8336
   79MOL0     H10366   9.400   9.955   6.631  1.6283  3.2119 -0.5926
   79MOL0     H10367   9.273  10.040   6.805  1.6008 -1.1189  0.1862
   79MOL0     H10368   9.181   9.907   6.753 -1.5167 -2.0274 -2.8967
   79MOL0     H10369   9.038  10.055   6.596  0.7533 -0.5766 -0.0966
   79MOL0     H10370   9.117  10.201   6.674 -0.2543  0.7476  1.8039
   79MOL0     H10371   8.926  10.014   6.809 -0.7066  1.0411  1.9178
   79MOL0     H10372   9.045  10.100   6.892 -0.8500  2.5297  0.4081
   79MOL0     H10373   8.818  10.230   6.729 -1.9745 -0.7867  0.0445
   79MOL0     H10374   8.953  10.313   6.792 -1.9709  1.7291 -3.1379
   79MOL0     H10375   8.778  10.329   6.970  0.8883 -0.0342  1.2586
   79MOL0     H10376   8.892  10.201   7.022  1.7682 -0.0605 -1.3095
   79MOL0     H10377   8.746  10.030   6.940 -3.0724 -1.3172 -0.5915
   79MOL0     H10378   8.668  10.130   7.068  0.5248 -0.0754 -0.3562
   79MOL0     H10379   8.607  10.125   6.772 -0.5929 -0.6443 -0.7284
   79MOL0     H10380   8.534  10.251   6.879  0.1491  0.3299 -0.4783
   79MOL0     H10381   8.377  10.178   7.088 -0.2181 -0.5485  0.2997
   79MOL0     H10382   8.252   9.949   7.221  0.2851  1.6358  1.1257
   79MOL0     H10383   8.135   9.874   7.109  0.7800 -0.6401  1.0994
   79MOL0     H10384   8.018  10.072   7.086 -1.0930  4.3393 -0.8443
   79MOL0     H10385   8.148  10.181   7.127 -0.6075 -0.5543 -0.5089
   79MOL0     H10386   8.021  10.004   7.345  0.5063  0.3827  0.5538
   79MOL0     H10387   8.139  10.143   7.350  0.1173 -0.2554 -0.1270
   79MOL0     H10388   7.895  10.184   7.407 -0.7107 -1.9571  0.0843
   79MOL0     H10389   7.834  10.127   7.256  0.1104  1.4368 -0.4347
   79MOL0     H10390   8.168  10.400   7.207  2.4994  0.5028  1.1547
   79MOL0     H10391   8.267  10.584   7.303  1.2615 -0.2970 -0.6638
   79MOL0     H10392   8.398  10.708   7.791 -0.7800 -0.8286  0.6658
   79MOL0     H10393   8.495  10.898   7.905  1.1436  2.0177 -2.1314
   79MOL0     H10394   8.554  11.166   7.862  0.1563 -0.5221  0.0044
   79MOL0     H10395   8.541  11.077   8.008 -2.3534 -1.9759 -1.7749
   79MOL0     H10396   8.509  11.317   8.130  0.9319 -3.5192  1.1488
   79MOL0     H10397   8.510  11.382   7.963 -0.4937  2.6890  3.3412
   79MOL0     H10398   8.737  11.221   8.089  3.3673  1.3467  2.5689
   79MOL0     H10399   8.719  11.397   8.104 -0.5442 -1.5685  1.5351
   79MOL0     H10400   8.740  11.233   7.844  0.4936 -0.3182 -0.5313
   79MOL0     H10401   8.732  11.411   7.850  2.2044 -0.2637 -1.8716
   79MOL0     H10402   8.948  11.253   7.980 -1.9764 -0.5754  1.2144
   79MOL0     H10403   8.941  11.424   7.981 -0.4589  0.1511  1.5262
   79MOL0     H10404   8.973  11.423   7.741  0.3648  0.2449  0.6445
   79MOL0     H10405   8.948  11.245   7.731 -2.0864  0.3867  0.1116
   79MOL0     H10406   9.175  11.394   7.868  1.9889  1.1890 -1.9220
   79MOL0     H10407   9.140  11.213   7.868 -0.9529  0.4755 -0.3886
   79MOL0     H10408   9.179  11.384   7.615  1.5602 -1.3245 -1.1692
   79MOL0     H10409   9.156  11.210   7.628  3.0217 -1.1867  0.0562
   79MOL0     H10410   8.140  11.124   7.829  1.1014  1.1334  1.1938
   79MOL0     H10411   8.042  10.935   7.707  0.7564 -2.5472 -1.0548
   79MOL0     H10412   7.950  10.609   7.590  1.8416  0.3490  1.0076
   79MOL0     H10413   7.821  10.443   7.466 -0.9771  3.3166  0.5367
   79MOL0     H10414   9.432  10.066   6.367 -1.2960  1.5120 -2.8604
   79MOL0     H10415   9.553   9.990   6.170  1.1206 -2.2775 -0.9941
   79MOL0     H10416   9.657   9.728   5.863 -0.3734  0.2872 -0.3089
   79MOL0     H10417   9.770   9.614   5.667  0.2612  3.3548 -2.6269
   79MOL0     H10418   9.701   9.397   5.290  1.2645  0.6652  2.4752
   79MOL0     H10419   9.552   9.486   5.271  2.2259  2.4143 -0.2786
   79MOL0     H10420   9.439   9.360   5.458  1.7146  3.1847 -0.9283
   79MOL0     H10421   9.511   9.252   5.337 -1.4747  0.4688 -0.3498
   79MOL0     H10422   9.639   9.309   5.604  0.2777  0.2000  0.2454
   79MOL0     H10423   9.694   9.192   5.490  1.2995  1.9690 -0.7982
   79MOL0     H10424   9.432   9.176   5.652 -0.8337  0.5768 -1.4276
   79MOL0     H10425   9.455   9.078   5.510  0.3486 -2.8157  0.8814
   79MOL0     H10426   9.698   8.897   5.807 -0.1412  1.0443  0.2670
   79MOL0     H10427   9.395   9.591   5.469  0.0343  0.1090 -0.4533
   79MOL0     H10428   9.296   9.705   5.659  0.4112  2.0610  0.6073
   80MOL0     O10429   5.148   1.209   1.248  0.5798  0.0199 -0.3522
   80MOL0     C10430   5.189   1.092   1.229 -0.1430 -0.6494 -0.0286
   80MOL0     O10431   5.134   0.999   1.152  0.1473  0.0746 -0.3869
   80MOL0     C10432   5.004   1.019   1.119  0.4129  0.2355 -0.0424
   80MOL0     C10433   4.961   1.021   0.988  0.4648 -0.4046 -0.0332
   80MOL0     C10434   4.825   1.040   0.955 -1.3540  0.3090  0.3326
   80MOL0     C10435   4.726   1.056   1.056  0.7085  0.3790 -1.0358
   80MOL0     O10436   4.600   1.075   1.024  1.1606  0.3913  0.4554
   80MOL0     C10437   4.570   1.179   0.934 -0.0351 -0.6607  0.2222
   80MOL0     C10438   4.426   1.232   0.939  0.2851 -0.3666  0.2578
   80MOL0     C10439   4.310   1.131   0.945 -0.9511 -0.0964 -0.7380
   80MOL0     C10440   4.185   1.198   0.899  0.2322 -0.1266  0.1086
   80MOL0     C10441   4.067   1.104   0.945  0.1194 -0.6814  0.4727
   80MOL0     C10442   3.933   1.188   0.939 -0.2802 -0.0955 -0.5180
   80MOL0     C10443   3.804   1.111   0.987  1.2019  0.8736 -0.8015
   80MOL0     C10444   3.792   0.969   0.919 -0.8983  0.8400  0.0581
   80MOL0     N10445   3.654   0.917   0.919  0.2778  0.8551  0.1170
   80MOL0     C10446   3.613   0.839   1.022  0.1348  0.3186 -0.4397
   80MOL0     C10447   3.473   0.821   1.007  0.0423 -0.2158 -0.0020
   80MOL0     C10448   3.373   0.751   1.093 -0.0575  0.5874  0.2972
   80MOL0     C10449   3.233   0.823   1.081 -0.1908  1.5998 -0.3816
   80MOL0     C10450   3.123   0.744   1.137  0.9123  0.7222  0.7290
   80MOL0     C10451   2.987   0.803   1.125  0.0277  0.5059 -0.3083
   80MOL0     O10452   2.903   0.728   1.207  0.9135 -0.1182 -0.1504
   80MOL0     C10453   2.772   0.764   1.245 -0.5962  0.5466 -0.0850
   80MOL0     C10454   2.711   0.664   1.326 -0.7827 -1.0041 -0.4875
   80MOL0     C10455   2.574   0.677   1.350 -0.0997  0.3951 -0.4338
   80MOL0     C10456   2.503   0.790   1.301  0.5646  0.2018  0.1665
   80MOL0     C10457   2.356   0.802   1.320 -0.6753 -0.6028 -0.9571
   80MOL0     O10458   2.288   0.892   1.241  0.0458 -0.1564 -0.0264
   80MOL0     C10459   2.149   0.875   1.225 -0.0030 -0.7130 -0.5448
   80MOL0     C10460   2.070   0.995   1.218 -0.3624 -0.3006  0.6165
   80MOL0     C10461   1.935   0.985   1.194  0.3304  0.1102  0.2974
   80MOL0     C10462   1.870   0.861   1.194 -0.4135 -0.3475 -0.4835
   80MOL0     O10463   1.738   0.867   1.161  0.3837  0.5882  1.1275
   80MOL0     C10464   1.682   0.744   1.107  0.3647  0.5207 -0.7968
   80MOL0     C10465   1.541   0.766   1.053 -0.4725 -0.7029  0.7347
   80MOL0     C10466   1.419   0.767   1.143 -0.2288  0.5907  0.4245
   80MOL0     C10467   1.294   0.758   1.046 -0.2783  0.2068 -0.4295
   80MOL0     C10468   1.163   0.738   1.117 -0.6319 -0.1603  0.0033
   80MOL0     C10469   1.041   0.740   1.021 -0.6552  0.6789  0.0045
   80MOL0     C10470   0.919   0.692   1.098 -0.0028 -0.5320 -0.0984
   80MOL0     C10471   0.790   0.717   1.016 -0.2441  0.2574  0.0612
   80MOL0    Cl10472   0.655   0.636   1.078  0.2217 -0.1961 -0.6747
   80MOL0     C10473   1.948   0.750   1.198 -1.2575 -0.1612  0.6870
   80MOL0     C10474   2.086   0.758   1.219 -0.2512  0.1751  0.2960
   80MOL0     O10475   2.301   0.735   1.403  0.0720 -0.1111  0.1925
   80MOL0     C10476   2.567   0.876   1.215 -0.3723  0.5568  0.3457
   80MOL0     C10477   2.700   0.866   1.184 -0.9728 -0.3662  0.6778
   80MOL0     N10478   3.449   0.885   0.886 -0.0476 -0.4929 -0.6167
   80MOL0     N10479   3.548   0.943   0.837  0.3137  0.7714 -0.5137
   80MOL0     C10480   4.770   1.044   1.193 -0.4776 -0.8698 -0.4018
   80MOL0     C10481   4.911   1.030   1.223 -0.0348  0.5432  0.3820
   80MOL0     C10482   5.305   1.050   1.309 -0.4627 -0.0263  0.0754
   80MOL0     C10483   5.322   0.912   1.335 -0.1434  0.2799 -0.4408
   80MOL0     C10484   5.433   0.874   1.415  0.3830 -0.1900 -0.1474
   80MOL0     C10485   5.524   0.966   1.459  0.6283 -0.1954 -1.0003
   80MOL0     O10486   5.624   0.937   1.545 -0.2244 -0.5892 -0.6816
   80MOL0     C10487   5.750   0.916   1.479 -0.0111  0.2444 -0.1623
   80MOL0     C10488   5.867   0.870   1.575  0.2438 -0.0695  0.0394
   80MOL0     C10489   5.988   0.792   1.520 -0.2265 -1.3849  0.2937
   80MOL0     C10490   6.117   0.798   1.612  0.3456 -0.7578  0.4295
   80MOL0     C10491   6.212   0.681   1.601  0.1035 -0.3005 -0.3431
   80MOL0     C10492   6.289   0.584   1.586 -0.0622  0.0232 -0.6089
   80MOL0     C10493   5.510   1.106   1.425  0.6340  0.2221  0.1272
   80MOL0     C10494   5.396   1.148   1.354 -1.7570  0.2238  0.5018
   80MOL0     H10495   5.041   1.035   0.915 -0.1647  1.9504 -0.3299
   80MOL0     H10496   4.804   1.043   0.848 -0.4175  1.4158  0.1555
   80MOL0     H10497   4.584   1.148   0.830  0.7565 -0.4431  0.2527
   80MOL0     H10498   4.642   1.261   0.944 -1.0433  0.1207  1.3163
   80MOL0     H10499   4.412   1.302   0.857 -1.7909 -0.4871  0.4450
   80MOL0     H10500   4.409   1.286   1.033 -4.8875 -0.1865 -0.4792
   80MOL0     H10501   4.288   1.099   1.047 -1.8017  1.2163 -0.4907
   80MOL0     H10502   4.328   1.048   0.875 -2.0579 -2.4307  1.5858
   80MOL0     H10503   4.179   1.294   0.950  1.4705 -0.5639  1.1497
   80MOL0     H10504   4.187   1.220   0.792  0.0011  2.9510  0.6460
   80MOL0     H10505   4.086   1.051   1.039  3.0277 -1.1227 -0.2619
   80MOL0     H10506   4.067   1.025   0.869 -1.0795  0.5448 -0.8668
   80MOL0     H10507   3.911   1.208   0.834 -1.4077 -2.5965 -0.8485
   80MOL0     H10508   3.942   1.279   0.998  0.8380  0.7076 -1.8950
   80MOL0     H10509   3.802   1.104   1.096  0.7801 -1.0485 -0.9012
   80MOL0     H10510   3.721   1.176   0.959  0.7666  1.1534  1.0390
   80MOL0     H10511   3.865   0.902   0.967  2.2293  2.4737 -2.0224
   80MOL0     H10512   3.828   0.981   0.816  1.4365  1.0006  0.8371
   80MOL0     H10513   3.674   0.790   1.097 -0.7775  2.8732  2.1595
   80MOL0     H10514   3.409   0.750   1.196  1.6711 -2.2655 -0.2436
   80MOL0     H10515   3.353   0.648   1.064 -1.3173  0.4004  1.7224
   80MOL0     H10516   3.202   0.838   0.977 -1.1606  0.1143 -0.3401
   80MOL0     H10517   3.243   0.917   1.136  1.6768  1.7704 -0.9254
   80MOL0     H10518   3.123   0.652   1.078 -3.1346  1.6066 -0.9344
   80MOL0     H10519   3.140   0.717   1.242  1.0099 -1.6644  0.1551
   80MOL0     H10520   2.960   0.805   1.019  0.4942 -0.7131 -0.4692
   80MOL0     H10521   2.989   0.909   1.153 -0.6070  0.2348  0.7928
   80MOL0     H10522   2.776   0.591   1.373 -1.2908 -0.5217  0.9888
   80MOL0     H10523   2.519   0.603   1.407  1.8669 -1.1151 -0.3840
   80MOL0     H10524   2.126   1.088   1.220 -1.5443  0.4516 -0.0173
   80MOL0     H10525   1.870   1.068   1.170  1.4878  1.0820  0.4336
   80MOL0     H10526   1.659   0.677   1.190  0.1781  1.2807 -0.2282
   80MOL0     H10527   1.739   0.707   1.021 -1.2517  2.1915 -2.6585
   80MOL0     H10528   1.520   0.686   0.982 -0.4688 -2.1769  2.3183
   80MOL0     H10529   1.549   0.853   0.988  0.5573 -1.9673 -0.9109
   80MOL0     H10530   1.418   0.856   1.206 -1.2375  2.0303 -1.5232
   80MOL0     H10531   1.424   0.673   1.198 -0.7975 -1.0898 -2.1978
   80MOL0     H10532   1.286   0.848   0.984  0.2765  1.5025  1.3017
   80MOL0     H10533   1.310   0.677   0.974  0.1069  0.4736 -0.6498
   80MOL0     H10534   1.148   0.823   1.185 -1.0745 -1.3105  1.3898
   80MOL0     H10535   1.177   0.647   1.177 -1.3895 -2.4268 -3.0273
   80MOL0     H10536   1.065   0.689   0.927  0.2684 -0.6540  0.9267
   80MOL0     H10537   1.032   0.845   0.993  1.0023  0.3513 -2.0826
   80MOL0     H10538   0.936   0.591   1.137  0.5354  0.6610  3.0375
   80MOL0     H10539   0.902   0.757   1.184 -1.2077 -1.5147  0.4268
   80MOL0     H10540   0.797   0.672   0.917 -0.9492  1.4755 -0.5643
   80MOL0     H10541   0.769   0.824   1.020 -1.0218  0.0846  1.3572
   80MOL0     H10542   1.909   0.649   1.201 -4.7742  0.7243 -4.0701
   80MOL0     H10543   2.150   0.671   1.222  0.6132  0.7663 -0.2798
   80MOL0     H10544   2.517   0.961   1.169  2.3202  1.3825 -1.2886
   80MOL0     H10545   2.733   0.935   1.107 -0.8977 -0.4351  0.6480
   80MOL0     H10546   4.702   1.074   1.271 -0.0785 -2.6338  0.6606
   80MOL0     H10547   4.929   1.029   1.330 -0.4245  0.4089  0.4471
   80MOL0     H10548   5.245   0.840   1.307  0.5893  0.3138 -2.8195
   80MOL0     H10549   5.446   0.769   1.435  4.2391 -0.5550 -3.3451
   80MOL0     H10550   5.774   1.014   1.438 -1.5121  2.0974  2.9803
   80MOL0     H10551   5.729   0.845   1.398 -0.4222 -0.5806  0.6406
   80MOL0     H10552   5.913   0.960   1.618 -1.3533 -0.6178  3.2155
   80MOL0     H10553   5.826   0.813   1.659  0.3318 -0.0990  0.0627
   80MOL0     H10554   6.021   0.829   1.422  1.8444 -1.2872  0.9752
   80MOL0     H10555   5.960   0.687   1.504 -1.4742 -1.3284  1.9046
   80MOL0     H10556   6.162   0.891   1.575 -2.5812  0.3554 -0.6181
   80MOL0     H10557   6.095   0.804   1.719 -0.7483  0.7107  0.1579
   80MOL0     H10558   6.343   0.493   1.568 -0.1370  0.0224 -0.8272
   80MOL0     H10559   5.581   1.179   1.463 -0.9861  1.0124  1.7872
   80MOL0     H10560   5.382   1.255   1.346  1.1676  0.5679 -3.1830
   81MOL0     O10561   6.079   6.410   3.467 -0.9472 -0.4047  0.4889
   81MOL0     C10562   6.064   6.352   3.361  0.4509  0.3425 -0.2202
   81MOL0     O10563   5.944   6.297   3.314 -0.0525 -0.7783 -0.6131
   81MOL0     C10564   5.827   6.306   3.386  0.4697 -0.8900  1.1272
   81MOL0     C10565   5.804   6.320   3.527 -0.9418 -0.0121 -0.8735
   81MOL0     C10566   5.676   6.309   3.583 -0.4382  0.4254  0.1398
   81MOL0     C10567   5.565   6.302   3.500 -0.1282  0.7030  0.9797
   81MOL0     O10568   5.451   6.284   3.570  0.3246  0.2487  0.4930
   81MOL0     C10569   5.329   6.335   3.517 -0.4303  0.2994 -0.5725
   81MOL0     C10570   5.212   6.289   3.615  0.4515  0.3563 -0.3632
   81MOL0     C10571   5.067   6.289   3.564 -1.3838 -0.2187  0.2510
   81MOL0     C10572   4.997   6.421   3.584  0.4524 -0.6691 -0.7406
   81MOL0     C10573   4.860   6.425   3.516  0.7651 -0.7544 -0.2686
   81MOL0     C10574   4.801   6.568   3.507 -0.2124 -0.6138  0.4776
   81MOL0     C10575   4.786   6.635   3.643  0.0344  0.5977 -0.3726
   81MOL0     C10576   4.769   6.779   3.644 -0.3597  0.5564 -0.1709
   81MOL0     N10577   4.645   6.819   3.602  0.3283 -1.1404 -0.0928
   81MOL0     C10578   4.591   6.802   3.477  0.2113 -0.8532 -0.7637
   81MOL0     C10579   4.464   6.846   3.490  0.7721 -0.6463 -0.9424
   81MOL0     C10580   4.370   6.846   3.379  0.7117 -1.0841  0.1389
   81MOL0     C10581   4.284   6.710   3.381  1.0919 -1.0293  0.3723
   81MOL0     C10582   4.195   6.702   3.258 -0.1955 -0.6107 -0.3565
   81MOL0     C10583   4.110   6.576   3.272  0.0804  0.1942 -0.2196
   81MOL0     O10584   4.136   6.490   3.156  0.5380  0.2099 -0.7785
   81MOL0     C10585   4.058   6.373   3.161 -0.0305 -0.1226  0.1159
   81MOL0     C10586   3.953   6.344   3.254 -0.4465 -0.7130  0.2174
   81MOL0     C10587   3.882   6.223   3.254  0.1856  0.1962 -0.8970
   81MOL0     C10588   3.912   6.119   3.157 -0.7547 -0.1146  0.1854
   81MOL0     C10589   3.835   5.992   3.148 -0.4683 -0.3043 -0.2995
   81MOL0     O10590   3.719   5.989   3.206  0.0756  0.6064  0.6617
   81MOL0     C10591   3.643   5.872   3.220  0.9294  0.0570 -0.7884
   81MOL0     C10592   3.698   5.750   3.248  0.0677  0.6508 -0.4610
   81MOL0     C10593   3.624   5.627   3.269 -0.7168 -0.1389 -1.0764
   81MOL0     C10594   3.487   5.632   3.247 -0.3760  0.2426 -0.3923
   81MOL0     O10595   3.391   5.531   3.256 -0.4854 -0.0956 -0.2296
   81MOL0     C10596   3.447   5.401   3.276  0.8890  0.0857  0.1520
   81MOL0     C10597   3.347   5.286   3.246  0.4670  0.5828 -0.5439
   81MOL0     C10598   3.224   5.259   3.335 -0.1553 -0.3515 -0.7493
   81MOL0     C10599   3.128   5.145   3.283 -0.4418 -0.7127 -1.1614
   81MOL0     C10600   2.992   5.158   3.369 -0.0557  0.5174 -0.3184
   81MOL0     C10601   2.902   5.036   3.355  0.1289  0.0996 -0.4612
   81MOL0     C10602   2.859   5.051   3.206 -0.7098  0.1248  0.2713
   81MOL0     C10603   2.724   5.111   3.212  1.0986 -0.9185  0.0475
   81MOL0    Cl10604   2.599   4.996   3.277 -0.5504  0.0417  0.5470
   81MOL0     C10605   3.432   5.758   3.213  1.4964  0.3403 -0.5000
   81MOL0     C10606   3.502   5.882   3.214 -0.4033  1.2352 -0.8959
   81MOL0     O10607   3.888   5.900   3.089 -0.1181  0.5474 -0.4718
   81MOL0     C10608   4.023   6.149   3.072 -0.3536  0.1366 -0.4879
   81MOL0     C10609   4.095   6.269   3.072  0.7133  0.4583 -0.8951
   81MOL0     N10610   4.443   6.887   3.617 -0.0931  0.0228 -0.3319
   81MOL0     N10611   4.550   6.880   3.682  0.1926 -0.0286 -0.9747
   81MOL0     C10612   5.578   6.305   3.358  0.0017  1.4407 -0.2534
   81MOL0     C10613   5.713   6.304   3.311  0.1743 -0.0862 -0.3266
   81MOL0     C10614   6.193   6.324   3.290 -1.0662 -0.3096  0.2594
   81MOL0     C10615   6.187   6.258   3.169  0.0713  0.0651 -0.3352
   81MOL0     C10616   6.308   6.222   3.101  0.0633  0.5265 -0.0264
   81MOL0     C10617   6.433   6.257   3.151  0.3884  0.5310  0.2775
   81MOL0     O10618   6.536   6.208   3.074 -0.8626 -0.2059  0.1146
   81MOL0     C10619   6.662   6.175   3.137  0.2901 -0.6970  0.1599
   81MOL0     C10620   6.766   6.282   3.120  0.5144  0.3000  0.5094
   81MOL0     C10621   6.885   6.282   3.202 -0.2040  0.7044  0.9477
   81MOL0     C10622   6.965   6.410   3.191  0.0564  0.6902 -0.0531
   81MOL0     C10623   6.899   6.522   3.260  0.1718 -0.6376  0.2448
   81MOL0     C10624   6.858   6.611   3.331  0.5751  0.1002 -0.7418
   81MOL0     C10625   6.435   6.354   3.247 -0.2678 -0.9685 -0.0982
   81MOL0     C10626   6.324   6.384   3.325 -0.4050  0.2934 -0.3034
   81MOL0     H10627   5.890   6.319   3.593 -1.6103 -1.3205  0.0179
   81MOL0     H10628   5.654   6.306   3.690 -0.9539  1.1411  0.0615
   81MOL0     H10629   5.317   6.290   3.418 -0.2982 -0.5093 -0.2306
   81MOL0     H10630   5.330   6.444   3.510  1.9434  0.2810 -1.1514
   81MOL0     H10631   5.222   6.346   3.707  1.9196  0.3980 -0.5243
   81MOL0     H10632   5.227   6.187   3.651 -0.5164  0.8599  1.5973
   81MOL0     H10633   5.012   6.209   3.615 -0.7148 -0.8688 -0.0247
   81MOL0     H10634   5.076   6.271   3.457  0.6798 -0.8909  0.4849
   81MOL0     H10635   4.986   6.423   3.693  1.8738  2.2819 -0.5608
   81MOL0     H10636   5.054   6.506   3.545 -1.0395  0.1710 -1.1774
   81MOL0     H10637   4.793   6.361   3.574  1.5797 -0.1671  1.3844
   81MOL0     H10638   4.868   6.394   3.412 -0.0873  3.3819 -1.7560
   81MOL0     H10639   4.705   6.555   3.457  0.5204 -0.6031 -0.9812
   81MOL0     H10640   4.853   6.637   3.440  0.7491  2.1262  3.7088
   81MOL0     H10641   4.692   6.594   3.684 -1.1359  1.6006 -1.9459
   81MOL0     H10642   4.872   6.620   3.709 -0.1399  3.1009  0.5264
   81MOL0     H10643   4.845   6.821   3.577  1.8027  1.0559  2.4146
   81MOL0     H10644   4.791   6.811   3.746  1.1948  0.1529 -0.3535
   81MOL0     H10645   4.634   6.769   3.383  0.9708  0.8871 -1.0564
   81MOL0     H10646   4.421   6.849   3.282  2.1435 -2.1946  0.8193
   81MOL0     H10647   4.302   6.932   3.385  1.2596 -0.5714 -0.6981
   81MOL0     H10648   4.212   6.712   3.463 -0.5784 -2.2542 -0.9606
   81MOL0     H10649   4.352   6.624   3.384  3.9181  1.0722  0.4199
   81MOL0     H10650   4.127   6.787   3.259  0.9105  0.3056 -0.8986
   81MOL0     H10651   4.259   6.696   3.169  1.5356  3.7890  0.3378
   81MOL0     H10652   4.008   6.605   3.294  0.8295  0.7846  2.9431
   81MOL0     H10653   4.139   6.518   3.360 -2.6041  0.2664  0.7981
   81MOL0     H10654   3.920   6.416   3.328 -0.2126  2.5720 -2.5977
   81MOL0     H10655   3.794   6.202   3.314  0.6574  0.1886 -0.2031
   81MOL0     H10656   3.807   5.748   3.250  0.1003 -1.2842 -1.5613
   81MOL0     H10657   3.666   5.531   3.296  0.3401  0.7338  0.5211
   81MOL0     H10658   3.478   5.391   3.380  0.8007 -0.4845  0.1241
   81MOL0     H10659   3.536   5.384   3.214  1.7909  0.4556  1.3091
   81MOL0     H10660   3.418   5.203   3.243  2.5373  2.2681 -1.0925
   81MOL0     H10661   3.299   5.318   3.153 -1.0332  0.4286  0.1467
   81MOL0     H10662   3.167   5.353   3.331  2.6701  1.6109  1.1099
   81MOL0     H10663   3.266   5.228   3.431 -0.5531  0.0344 -0.4507
   81MOL0     H10664   3.117   5.160   3.175  1.0382 -3.8333 -1.8346
   81MOL0     H10665   3.174   5.049   3.306  0.2398  0.3318  2.5447
   81MOL0     H10666   2.943   5.250   3.336  0.9463  0.8935 -0.8103
   81MOL0     H10667   3.017   5.164   3.476 -0.6253  2.6415 -0.2568
   81MOL0     H10668   2.816   5.046   3.421  0.9748 -0.1018  0.7005
   81MOL0     H10669   2.954   4.941   3.372 -0.6423 -0.7634 -2.5391
   81MOL0     H10670   2.916   5.120   3.143 -2.0241  2.0942  1.1193
   81MOL0     H10671   2.854   4.950   3.165  3.7063  0.0520 -0.5938
   81MOL0     H10672   2.705   5.143   3.109 -0.3635  0.3447  0.6721
   81MOL0     H10673   2.733   5.201   3.274  2.4317 -0.5615 -0.6243
   81MOL0     H10674   3.324   5.764   3.204  1.1108  2.8856  3.3312
   81MOL0     H10675   3.457   5.979   3.195  0.1587  1.6411 -0.1720
   81MOL0     H10676   4.048   6.066   3.006 -0.8906 -3.5870  3.5210
   81MOL0     H10677   4.169   6.296   2.997 -1.7012 -0.2490 -3.7681
   81MOL0     H10678   5.487   6.300   3.299 -0.2609 -1.5057  0.2249
   81MOL0     H10679   5.730   6.304   3.204 -0.0174  1.5304 -0.3880
   81MOL0     H10680   6.091   6.225   3.130  0.6129 -1.0406 -0.7767
   81MOL0     H10681   6.311   6.164   3.009  1.7489  0.6286 -0.0823
   81MOL0     H10682   6.705   6.085   3.094 -2.0862 -1.8665  0.0310
   81MOL0     H10683   6.648   6.160   3.245 -0.9497 -1.0488 -0.0331
   81MOL0     H10684   6.787   6.279   3.013 -0.4203 -3.1591  0.2925
   81MOL0     H10685   6.713   6.377   3.133 -2.8283 -1.1690 -1.0212
   81MOL0     H10686   6.951   6.199   3.174 -1.3887  0.2425 -0.6330
   81MOL0     H10687   6.856   6.281   3.308  0.6145  0.2724  1.1784
   81MOL0     H10688   7.055   6.381   3.246 -1.1648 -0.8069  1.2788
   81MOL0     H10689   6.984   6.425   3.085 -1.5126  2.2622 -0.1628
   81MOL0     H10690   6.834   6.696   3.393 -4.8299  0.9335 -3.3858
   81MOL0     H10691   6.532   6.399   3.267 -1.2467  1.5015 -0.5319
   81MOL0     H10692   6.332   6.462   3.400  1.3213 -1.6396  1.6281
   82MOL0     O10693   6.443   8.149   6.966 -0.3424 -0.2546  0.1351
   82MOL0     C10694   6.567   8.143   6.946  0.0243 -0.5005  0.2768
   82MOL0     O10695   6.640   8.230   6.874 -0.9899 -0.3665  0.4031
   82MOL0     C10696   6.553   8.312   6.795  0.2674  0.6172  0.1500
   82MOL0     C10697   6.522   8.442   6.827 -0.0378  0.0822 -0.1151
   82MOL0     C10698   6.430   8.512   6.741 -0.5226 -0.0389 -0.3227
   82MOL0     C10699   6.365   8.450   6.635  0.1439 -0.6807 -0.7056
   82MOL0     O10700   6.288   8.527   6.550  0.2667  0.7962  0.1972
   82MOL0     C10701   6.344   8.659   6.514  0.2234 -0.4380  0.1205
   82MOL0     C10702   6.273   8.719   6.389  0.2537  0.4264  0.2502
   82MOL0     C10703   6.363   8.832   6.334 -0.3198  0.9254 -0.1001
   82MOL0     C10704   6.332   8.873   6.194  0.2962 -0.3494  0.2434
   82MOL0     C10705   6.191   8.908   6.169 -0.0357 -0.5434 -0.0808
   82MOL0     C10706   6.120   8.810   6.064  0.7608  0.1665  0.1970
   82MOL0     C10707   5.980   8.867   6.033  0.2962  0.5491  0.0589
   82MOL0     C10708   5.910   8.789   5.915  0.0690 -0.0201 -0.9861
   82MOL0     N10709   5.771   8.824   5.903  0.2043  0.3130  0.1239
   82MOL0     C10710   5.667   8.753   5.951  0.7079 -0.0226  0.7938
   82MOL0     C10711   5.562   8.821   5.904 -0.0675 -0.5506 -0.2069
   82MOL0     C10712   5.409   8.784   5.907 -0.8050  0.4578  0.2852
   82MOL0     C10713   5.393   8.639   5.868 -0.5226  0.5805  0.3210
   82MOL0     C10714   5.248   8.615   5.865  0.4892  0.0999 -0.1890
   82MOL0     C10715   5.224   8.475   5.816 -0.3738 -0.7433 -0.3609
   82MOL0     O10716   5.095   8.445   5.756  0.1714 -0.3494 -0.2758
   82MOL0     C10717   4.982   8.435   5.833  0.6145  0.2283 -1.7020
   82MOL0     C10718   4.854   8.453   5.762  0.0826  0.3088 -0.3987
   82MOL0     C10719   4.736   8.414   5.829  0.4066 -0.0572 -0.5813
   82MOL0     C10720   4.732   8.369   5.962 -0.6439 -0.0904  0.8899
   82MOL0     C10721   4.613   8.342   6.037  0.4430 -0.5142 -1.6241
   82MOL0     O10722   4.622   8.249   6.135 -0.3581 -0.6592  0.2956
   82MOL0     C10723   4.512   8.177   6.181 -0.4173 -0.8322  0.4983
   82MOL0     C10724   4.539   8.110   6.299  0.0573 -0.0022  0.5814
   82MOL0     C10725   4.434   8.045   6.365  0.3264 -0.7633 -0.3164
   82MOL0     C10726   4.303   8.040   6.319  0.0329  0.3059 -0.3897
   82MOL0     O10727   4.199   7.979   6.391  1.1951  0.0503  0.4725
   82MOL0     C10728   4.148   7.857   6.326  1.1858  0.1605  0.0211
   82MOL0     C10729   3.997   7.848   6.339 -0.2318 -0.4074  0.4014
   82MOL0     C10730   3.964   7.779   6.474  0.6563  0.5738  0.0309
   82MOL0     C10731   4.000   7.617   6.459  0.4963  0.0771  0.4238
   82MOL0     C10732   3.961   7.533   6.585 -0.5628 -1.5141  0.4932
   82MOL0     C10733   4.001   7.385   6.577  0.8388  0.7501 -0.3168
   82MOL0     C10734   3.976   7.317   6.709  0.4562 -0.5905 -0.1416
   82MOL0     C10735   4.013   7.164   6.704  0.3982 -0.0714 -0.0058
   82MOL0    Cl10736   4.180   7.127   6.648 -0.1134  0.7532 -0.0833
   82MOL0     C10737   4.285   8.101   6.194 -0.0826  1.0294 -0.1713
   82MOL0     C10738   4.383   8.163   6.123 -0.2267  0.5610  0.7420
   82MOL0     O10739   4.509   8.396   6.000 -0.5189  0.2816 -0.8810
   82MOL0     C10740   4.856   8.356   6.021 -0.6971  0.4815 -0.4362
   82MOL0     C10741   4.975   8.385   5.962  0.5575 -0.6607  0.3436
   82MOL0     N10742   5.603   8.940   5.825  0.6462  0.1172 -0.8922
   82MOL0     N10743   5.732   8.940   5.837  0.8435 -0.0312  0.3338
   82MOL0     C10744   6.396   8.319   6.608  0.0191 -0.3493  0.7533
   82MOL0     C10745   6.484   8.250   6.690 -0.3371  0.6045  0.1156
   82MOL0     C10746   6.652   8.034   6.987  0.4054  0.5352 -0.4156
   82MOL0     C10747   6.792   8.042   6.977  0.2397  0.1786  0.6619
   82MOL0     C10748   6.871   7.932   7.010 -0.1367  0.5348  0.2870
   82MOL0     C10749   6.822   7.816   7.057  0.2676  0.1849 -0.7368
   82MOL0     O10750   6.896   7.707   7.099 -0.8931 -0.0338  0.2959
   82MOL0     C10751   7.023   7.723   7.169 -0.7723 -0.1895  0.2108
   82MOL0     C10752   7.111   7.596   7.129  0.0080 -0.4192 -0.0869
   82MOL0     C10753   7.095   7.492   7.238  0.4215  0.8987 -0.1397
   82MOL0     C10754   7.016   7.367   7.188  0.1999 -0.5389  0.3373
   82MOL0     C10755   6.994   7.278   7.301 -0.1794  0.1590  0.7189
   82MOL0     C10756   7.002   7.200   7.393  0.0144  0.4130 -0.1624
   82MOL0     C10757   6.685   7.807   7.061 -0.2585  0.4356 -0.6624
   82MOL0     C10758   6.605   7.914   7.047  0.0636 -0.2247  0.3584
   82MOL0     H10759   6.562   8.489   6.916 -0.6161  2.2457 -0.9412
   82MOL0     H10760   6.403   8.614   6.765  2.0723  0.2692  1.7954
   82MOL0     H10761   6.450   8.643   6.493  0.2464 -1.0500  0.6766
   82MOL0     H10762   6.335   8.724   6.602 -3.2354  1.9269 -1.7454
   82MOL0     H10763   6.181   8.765   6.426  0.4269  0.1702  0.9951
   82MOL0     H10764   6.252   8.648   6.308  1.4940 -0.6862  0.8690
   82MOL0     H10765   6.467   8.799   6.337  0.1005  2.0517 -1.1676
   82MOL0     H10766   6.356   8.918   6.401  1.2176 -0.9393  2.6273
   82MOL0     H10767   6.393   8.954   6.152 -1.3215 -0.1868 -1.9535
   82MOL0     H10768   6.357   8.792   6.125  2.5497 -1.0308  1.7539
   82MOL0     H10769   6.187   9.000   6.110  0.2926 -1.0373 -0.9015
   82MOL0     H10770   6.141   8.915   6.265 -1.8841  4.4191 -1.1358
   82MOL0     H10771   6.107   8.711   6.108 -0.9315  0.2016 -0.1731
   82MOL0     H10772   6.188   8.805   5.979  2.6858 -0.4854  1.7015
   82MOL0     H10773   5.918   8.856   6.123 -2.7788 -1.8309 -2.1075
   82MOL0     H10774   5.991   8.973   6.007 -2.5541  1.0047  0.3043
   82MOL0     H10775   5.912   8.683   5.940  1.2072 -0.2260 -1.8563
   82MOL0     H10776   5.959   8.805   5.818 -1.1310  2.1588 -1.3044
   82MOL0     H10777   5.668   8.675   6.026  1.4299  1.5135  2.4946
   82MOL0     H10778   5.347   8.838   5.835 -2.4376 -0.3763  1.0182
   82MOL0     H10779   5.365   8.819   6.001 -1.5031  0.4497 -0.0313
   82MOL0     H10780   5.444   8.571   5.936 -0.5347 -1.4908 -1.6237
   82MOL0     H10781   5.449   8.634   5.774  0.7142  4.6303  0.6480
   82MOL0     H10782   5.193   8.629   5.959  0.3472 -0.4879 -0.1800
   82MOL0     H10783   5.197   8.686   5.799 -1.4752 -2.9254 -2.1662
   82MOL0     H10784   5.248   8.405   5.896 -0.9283 -0.9405 -0.3626
   82MOL0     H10785   5.296   8.454   5.737  1.5517  0.2179  1.0452
   82MOL0     H10786   4.853   8.486   5.658 -1.0136  0.1961 -0.4370
   82MOL0     H10787   4.651   8.430   5.763  0.2116 -1.1720 -0.6173
   82MOL0     H10788   4.639   8.118   6.340  0.1038 -0.6580  0.5929
   82MOL0     H10789   4.470   8.007   6.460 -0.1329  2.9797  1.5742
   82MOL0     H10790   4.195   7.770   6.373  1.9058  0.5784  0.0745
   82MOL0     H10791   4.190   7.843   6.226 -0.1096 -2.5416 -0.2546
   82MOL0     H10792   3.963   7.781   6.259 -1.5732  0.9100 -0.1691
   82MOL0     H10793   3.947   7.945   6.336 -1.0490 -0.8365 -0.8364
   82MOL0     H10794   3.858   7.801   6.490  0.7984  0.5571  1.0055
   82MOL0     H10795   4.014   7.826   6.559 -3.4340  1.1243  2.4128
   82MOL0     H10796   3.932   7.570   6.387  1.6126 -2.6746  1.0582
   82MOL0     H10797   4.103   7.600   6.429  0.3794  1.5881 -0.9441
   82MOL0     H10798   3.853   7.539   6.601 -0.5895 -2.6141  0.8232
   82MOL0     H10799   4.009   7.579   6.672  1.8824 -0.4618 -1.2946
   82MOL0     H10800   4.106   7.383   6.547  1.2625 -0.1213  1.1353
   82MOL0     H10801   3.933   7.344   6.502  0.3025 -2.8804  1.9147
   82MOL0     H10802   4.034   7.369   6.786 -1.6205  0.3440  0.8695
   82MOL0     H10803   3.871   7.326   6.740  0.5264  0.5012 -0.1979
   82MOL0     H10804   3.934   7.115   6.647  0.9212 -0.7799 -0.1414
   82MOL0     H10805   4.008   7.115   6.801  2.5668 -2.6513 -1.0574
   82MOL0     H10806   4.197   8.072   6.136  2.3729 -4.3541 -1.8736
   82MOL0     H10807   4.368   8.205   6.024  0.4933  0.5126  0.6039
   82MOL0     H10808   4.866   8.327   6.125 -0.0660 -0.5209 -0.7685
   82MOL0     H10809   5.064   8.351   6.014  0.6304  0.5246  1.0251
   82MOL0     H10810   6.329   8.273   6.536  2.7003  0.2965 -2.4065
   82MOL0     H10811   6.499   8.144   6.672 -0.2485  0.4258  1.1891
   82MOL0     H10812   6.837   8.138   6.955 -0.9521  0.9410  1.4336
   82MOL0     H10813   6.977   7.946   6.994 -0.0712  0.3478  0.5518
   82MOL0     H10814   7.003   7.722   7.276 -1.6450 -0.2355  0.0506
   82MOL0     H10815   7.070   7.817   7.137 -0.2557 -0.4733  0.1115
   82MOL0     H10816   7.086   7.567   7.027  0.2701 -1.5882  0.1690
   82MOL0     H10817   7.213   7.627   7.107 -0.3251 -1.5427 -3.9555
   82MOL0     H10818   7.057   7.527   7.335 -2.8922  0.2738 -1.0578
   82MOL0     H10819   7.192   7.445   7.257 -0.0014  0.2152  0.3888
   82MOL0     H10820   6.921   7.380   7.135 -0.5256 -3.1121  0.9056
   82MOL0     H10821   7.068   7.299   7.120  0.2289 -0.5577  0.3776
   82MOL0     H10822   7.002   7.131   7.474 -2.0214  1.7654  1.0864
   82MOL0     H10823   6.644   7.714   7.098  1.2410  0.7316  2.0360
   82MOL0     H10824   6.501   7.888   7.067 -1.4355  3.4513 -1.6950
   83MOL0     O10825   0.452   3.208   3.086  0.5739  0.0689  0.6435
   83MOL0     C10826   0.355   3.219   3.003  0.1619  0.1283 -0.3343
   83MOL0     O10827   0.381   3.262   2.880  0.5171 -0.6165  0.6315
   83MOL0     C10828   0.500   3.280   2.820  0.1400  0.5075 -0.3257
   83MOL0     C10829   0.612   3.342   2.880 -0.5492 -0.0596  0.3347
   83MOL0     C10830   0.727   3.362   2.806 -0.3237 -0.3270  0.1992
   83MOL0     C10831   0.730   3.333   2.663  0.3543  0.1268  0.5889
   83MOL0     O10832   0.838   3.379   2.608  0.2082 -0.2810 -0.1240
   83MOL0     C10833   0.874   3.354   2.468 -0.6156  0.6921  0.0462
   83MOL0     C10834   0.969   3.468   2.412 -0.6471 -0.7358  0.0068
   83MOL0     C10835   1.069   3.425   2.302  0.7337  0.1064  0.1166
   83MOL0     C10836   1.168   3.543   2.259 -0.4086 -0.4960 -0.0130
   83MOL0     C10837   1.274   3.501   2.146  0.3175  0.5353 -0.0966
   83MOL0     C10838   1.374   3.598   2.098  0.9385  0.0137 -0.6918
   83MOL0     C10839   1.480   3.528   2.016 -0.2287 -0.1164  0.0481
   83MOL0     C10840   1.591   3.626   1.982 -0.2934  0.2353 -0.1012
   83MOL0     N10841   1.725   3.559   1.959 -0.0677  0.0081  0.8778
   83MOL0     C10842   1.764   3.509   1.836 -0.4142  0.5754  0.5952
   83MOL0     C10843   1.860   3.420   1.863  0.2009  0.0786 -0.2658
   83MOL0     C10844   1.942   3.354   1.758  0.4091 -0.4424 -0.1671
   83MOL0     C10845   2.061   3.435   1.722 -0.9513 -0.9189  0.3190
   83MOL0     C10846   2.183   3.400   1.809  0.5645  0.4204 -0.7750
   83MOL0     C10847   2.281   3.512   1.834  0.0111  0.3519  0.2300
   83MOL0     O10848   2.333   3.547   1.702 -0.0649  0.1809 -0.3669
   83MOL0     C10849   2.467   3.514   1.685  0.1725  0.3470  0.8665
   83MOL0     C10850   2.535   3.410   1.752  0.1380 -0.0481  0.4275
   83MOL0     C10851   2.672   3.390   1.730 -0.8291  0.6369  0.0469
   83MOL0     C10852   2.738   3.451   1.626  0.1756 -0.1494 -0.3094
   83MOL0     C10853   2.889   3.423   1.609  0.9989  0.0677  0.1404
   83MOL0     O10854   2.931   3.318   1.681  0.2746 -0.2193  0.0680
   83MOL0     C10855   3.064   3.290   1.707  0.3714 -1.1748 -0.0604
   83MOL0     C10856   3.175   3.298   1.619 -0.4064 -0.5860  0.0977
   83MOL0     C10857   3.307   3.261   1.667 -0.1410  0.3683  0.2457
   83MOL0     C10858   3.328   3.213   1.791 -0.9113  1.0500  0.0424
   83MOL0     O10859   3.452   3.161   1.827 -0.3502  0.0773 -0.5052
   83MOL0     C10860   3.540   3.092   1.734  0.2520  0.0460 -0.0847
   83MOL0     C10861   3.668   3.099   1.797 -0.8677  0.1473  0.4996
   83MOL0     C10862   3.765   3.025   1.702 -0.5293 -0.4242 -0.0092
   83MOL0     C10863   3.905   3.013   1.756 -0.3170 -0.4502  0.1125
   83MOL0     C10864   3.974   2.895   1.684 -0.3776 -0.1105  0.3506
   83MOL0     C10865   4.112   2.881   1.745 -0.1679 -0.0431 -0.5758
   83MOL0     C10866   4.187   2.756   1.706  0.2280  0.4626 -0.4073
   83MOL0     C10867   4.156   2.632   1.803  0.3277 -0.5603 -0.5132
   83MOL0    Cl10868   4.227   2.475   1.746  0.2839  0.0666 -0.3762
   83MOL0     C10869   3.227   3.202   1.884  0.3066 -0.3468  0.3965
   83MOL0     C10870   3.098   3.243   1.845  1.0823  0.4479 -0.2765
   83MOL0     O10871   2.954   3.485   1.520  0.5060 -0.0401 -0.5923
   83MOL0     C10872   2.673   3.547   1.551  0.1142  0.1329  0.4014
   83MOL0     C10873   2.542   3.582   1.586 -0.0518  0.5434 -0.6334
   83MOL0     N10874   1.891   3.420   1.997 -0.1535 -0.9778 -0.4968
   83MOL0     N10875   1.818   3.512   2.049  0.3315 -0.3128 -0.6448
   83MOL0     C10876   0.619   3.264   2.600 -0.6884 -0.0686 -0.3874
   83MOL0     C10877   0.506   3.249   2.681 -0.2053  0.6125 -0.0175
   83MOL0     C10878   0.212   3.209   3.045 -0.2968  0.0011  0.4021
   83MOL0     C10879   0.184   3.181   3.175  0.3745  0.4498 -0.3409
   83MOL0     C10880   0.057   3.153   3.226  0.5876  0.7313  0.9426
   83MOL0     C10881  -0.052   3.159   3.131  0.3521 -0.2308 -1.2987
   83MOL0     O10882  -0.184   3.155   3.181  0.2491 -0.3431  0.2675
   83MOL0     C10883  -0.287   3.140   3.091 -0.1641 -0.7902  0.0451
   83MOL0     C10884  -0.420   3.133   3.168 -0.2720  0.1267  0.3880
   83MOL0     C10885  -0.439   3.261   3.243 -0.4708 -0.7257 -1.1155
   83MOL0     C10886  -0.571   3.263   3.316 -0.2318 -0.4801 -0.3705
   83MOL0     C10887  -0.686   3.330   3.247  0.2855  0.3901  0.9106
   83MOL0     C10888  -0.794   3.374   3.191  0.0146  1.1603 -0.5952
   83MOL0     C10889  -0.026   3.181   2.996 -0.4151  0.1479  0.3136
   83MOL0     C10890   0.106   3.205   2.955 -0.0586 -0.2253  0.4996
   83MOL0     H10891   0.602   3.364   2.986 -0.3877 -0.9385  0.5420
   83MOL0     H10892   0.816   3.398   2.858 -0.8077 -0.6832  1.3040
   83MOL0     H10893   0.796   3.346   2.393  1.4299 -3.4571 -1.9663
   83MOL0     H10894   0.925   3.257   2.475 -0.4540  0.8983  2.8865
   83MOL0     H10895   1.029   3.506   2.496 -2.3030 -1.8705  1.7884
   83MOL0     H10896   0.906   3.546   2.371  0.0181 -0.4954 -0.5823
   83MOL0     H10897   1.013   3.384   2.217 -0.1895 -0.8812  1.1702
   83MOL0     H10898   1.123   3.337   2.338 -1.2481 -0.5924  1.5631
   83MOL0     H10899   1.103   3.619   2.215  0.2642 -1.4246 -2.8184
   83MOL0     H10900   1.214   3.594   2.344 -4.1303  0.3395  1.7183
   83MOL0     H10901   1.220   3.469   2.056  0.1307  0.3603  0.0762
   83MOL0     H10902   1.321   3.414   2.193  1.5542  0.9829 -0.4776
   83MOL0     H10903   1.431   3.635   2.184  1.7829  2.3048 -2.1442
   83MOL0     H10904   1.334   3.683   2.042  0.7486  1.9074  2.1092
   83MOL0     H10905   1.526   3.448   2.075 -2.8095 -3.2802 -1.8701
   83MOL0     H10906   1.446   3.479   1.925 -0.6839  1.3617 -0.6144
   83MOL0     H10907   1.601   3.687   2.072  3.4706 -0.2820 -0.0197
   83MOL0     H10908   1.563   3.692   1.900 -1.4178  0.6036  0.5546
   83MOL0     H10909   1.707   3.523   1.745 -0.7882 -0.0086  0.7320
   83MOL0     H10910   1.881   3.339   1.669  1.0714 -0.7038 -0.5817
   83MOL0     H10911   1.970   3.256   1.798 -1.4673 -0.7733  0.4414
   83MOL0     H10912   2.043   3.543   1.718 -3.4017 -1.1956  1.7898
   83MOL0     H10913   2.095   3.407   1.622  3.0068  0.6588  1.0659
   83MOL0     H10914   2.141   3.391   1.909  0.0142  2.2814 -0.8028
   83MOL0     H10915   2.241   3.313   1.777  2.6562  1.5397 -0.2541
   83MOL0     H10916   2.346   3.476   1.914 -1.7822  2.6238  2.9097
   83MOL0     H10917   2.217   3.592   1.873 -0.5472 -1.3426  3.0364
   83MOL0     H10918   2.491   3.342   1.824  1.4547 -1.4552 -0.0332
   83MOL0     H10919   2.729   3.316   1.784  0.1947  1.9288  0.7852
   83MOL0     H10920   3.167   3.346   1.522  4.2024  0.0050 -0.2214
   83MOL0     H10921   3.392   3.276   1.601 -0.9249  0.4730 -0.7607
   83MOL0     H10922   3.548   3.139   1.635  0.8196 -1.7637 -0.9345
   83MOL0     H10923   3.504   2.991   1.713  0.1592  0.6101 -3.2065
   83MOL0     H10924   3.661   3.049   1.894 -2.8557 -0.8596 -0.1121
   83MOL0     H10925   3.701   3.203   1.808  1.5441 -0.5576  0.4951
   83MOL0     H10926   3.778   3.058   1.598  1.8301  0.3275  0.4673
   83MOL0     H10927   3.716   2.927   1.701  0.2633 -0.9872  3.3173
   83MOL0     H10928   3.973   3.096   1.740  1.4700 -1.8392  0.1735
   83MOL0     H10929   3.900   3.003   1.864 -0.9318  2.9767  0.4959
   83MOL0     H10930   3.992   2.913   1.578 -2.3401  0.8935  0.1417
   83MOL0     H10931   3.916   2.804   1.701 -1.0099  0.2116 -0.0376
   83MOL0     H10932   4.093   2.876   1.853 -2.4555  0.2541 -0.9201
   83MOL0     H10933   4.164   2.975   1.723  1.6720 -1.1847 -1.4081
   83MOL0     H10934   4.168   2.722   1.604  0.2255 -0.2171 -0.1858
   83MOL0     H10935   4.295   2.770   1.695  0.1939 -0.1636 -1.7319
   83MOL0     H10936   4.048   2.623   1.812  0.4358 -0.5182  1.0803
   83MOL0     H10937   4.194   2.648   1.904  0.3224  0.0837 -0.6097
   83MOL0     H10938   3.256   3.161   1.980 -0.2786 -0.9226  0.3287
   83MOL0     H10939   3.024   3.249   1.924  0.7107  0.0426 -0.5874
   83MOL0     H10940   2.720   3.593   1.465  0.0804  0.5466  0.6022
   83MOL0     H10941   2.494   3.660   1.529 -1.4773  1.4620  1.6783
   83MOL0     H10942   0.621   3.236   2.495 -3.5210  0.4548 -0.6669
   83MOL0     H10943   0.425   3.201   2.627 -1.5851 -1.1485  3.3408
   83MOL0     H10944   0.264   3.181   3.249 -0.2806 -0.8427  0.4076
   83MOL0     H10945   0.043   3.141   3.333  1.3822 -5.7824  0.7486
   83MOL0     H10946  -0.280   3.042   3.044 -1.4768 -0.5323 -0.7626
   83MOL0     H10947  -0.283   3.231   3.031  0.5617  1.0368  2.6767
   83MOL0     H10948  -0.502   3.118   3.097 -0.0974 -0.2007  0.2542
   83MOL0     H10949  -0.417   3.056   3.245 -0.7706  1.7126  2.0834
   83MOL0     H10950  -0.418   3.348   3.180  3.3036 -0.2529  0.4963
   83MOL0     H10951  -0.358   3.285   3.313 -2.2601 -2.7600  1.8384
   83MOL0     H10952  -0.606   3.167   3.353  1.3034  0.0640  2.8541
   83MOL0     H10953  -0.550   3.330   3.400  0.9876  1.2873 -1.9979
   83MOL0     H10954  -0.882   3.410   3.142 -3.4272 -3.7622  1.1574
   83MOL0     H10955  -0.107   3.171   2.925  1.0807 -0.0753 -1.4380
   83MOL0     H10956   0.125   3.206   2.848 -0.6121 -1.8309  0.3566
   84MOL0     O10957   5.212   9.766   5.884  0.0373  0.6119  0.6522
   84MOL0     C10958   5.295   9.680   5.913  0.6953  0.1376  0.0042
   84MOL0     O10959   5.416   9.678   5.862 -0.2047  0.0947 -0.3475
   84MOL0     C10960   5.445   9.752   5.751  0.8090  0.2331  0.4018
   84MOL0     C10961   5.391   9.704   5.624  0.1470 -1.0057  0.1093
   84MOL0     C10962   5.413   9.793   5.515  0.8961 -0.3364  0.2509
   84MOL0     C10963   5.460   9.923   5.524  0.9303  0.0738 -0.1431
   84MOL0     O10964   5.466  10.006   5.417 -0.5760  0.2930  0.0212
   84MOL0     C10965   5.496   9.949   5.282  0.0733  0.4249  0.3684
   84MOL0     C10966   5.492  10.075   5.185  0.1587 -0.9300  0.5938
   84MOL0     C10967   5.596  10.184   5.219 -0.2402  0.6916  0.3677
   84MOL0     C10968   5.570  10.306   5.125 -0.7707  0.7553  0.1260
   84MOL0     C10969   5.613  10.273   4.982  0.0852 -0.5030 -0.4712
   84MOL0     C10970   5.764  10.262   4.979 -0.4076  1.5377 -0.3028
   84MOL0     C10971   5.822  10.296   4.838  0.4224 -0.2209  0.0489
   84MOL0     C10972   5.793  10.183   4.733  0.6236  0.4537 -0.0324
   84MOL0     N10973   5.822  10.218   4.599 -0.4615 -0.1669 -0.6068
   84MOL0     C10974   5.935  10.207   4.523  0.5588  0.5036  0.5861
   84MOL0     C10975   5.904  10.251   4.397  0.2867  0.0397  0.1096
   84MOL0     C10976   5.993  10.274   4.279 -0.3253  0.9601 -0.1664
   84MOL0     C10977   6.151  10.259   4.318  0.9470 -1.6623  0.3442
   84MOL0     C10978   6.243  10.285   4.199  0.4497  0.2103 -0.6484
   84MOL0     C10979   6.223  10.410   4.116  0.3960 -1.1617 -0.0899
   84MOL0     O10980   6.210  10.536   4.192 -0.4588  0.0833  0.2877
   84MOL0     C10981   6.167  10.648   4.132  0.1876 -0.2934 -0.5372
   84MOL0     C10982   6.188  10.681   4.000  0.2365 -0.4179 -0.8647
   84MOL0     C10983   6.166  10.816   3.946  0.3767  0.1467 -0.8635
   84MOL0     C10984   6.121  10.918   4.034  0.1023  0.0646  0.2059
   84MOL0     C10985   6.115  11.059   3.998 -0.3638  0.0712  0.6098
   84MOL0     O10986   6.116  11.084   3.862 -0.0537 -0.3333  0.7027
   84MOL0     C10987   6.060  11.186   3.801  0.1278 -1.2773  0.2443
   84MOL0     C10988   6.082  11.200   3.662  0.2082 -0.1217 -0.5366
   84MOL0     C10989   6.017  11.296   3.586  0.7162 -0.6936  0.0517
   84MOL0     C10990   5.945  11.401   3.643 -0.0266 -0.7902 -0.2622
   84MOL0     O10991   5.888  11.506   3.568 -0.1463 -1.0730 -0.0631
   84MOL0     C10992   5.892  11.480   3.422  0.3860 -0.1121 -0.4055
   84MOL0     C10993   5.833  11.602   3.346  0.7355  0.1415  0.9121
   84MOL0     C10994   5.835  11.576   3.194  0.1022 -1.1095  0.2853
   84MOL0     C10995   5.770  11.698   3.113 -0.7939  0.2917  0.7633
   84MOL0     C10996   5.793  11.695   2.965  0.2943 -0.6007  0.4988
   84MOL0     C10997   5.949  11.712   2.933  0.3188  0.1057 -0.2122
   84MOL0     C10998   5.970  11.715   2.778  0.6151 -0.2189  0.1865
   84MOL0     C10999   6.127  11.699   2.759  0.2857 -0.0551  0.5293
   84MOL0    Cl11000   6.231  11.843   2.777  0.2655  0.3488 -0.0951
   84MOL0     C11001   5.930  11.402   3.784 -0.6060  0.2788 -0.0842
   84MOL0     C11002   5.993  11.302   3.861  0.3688  0.2879  0.5608
   84MOL0     O11003   6.107  11.143   4.085  0.5067  0.0323  0.0343
   84MOL0     C11004   6.088  10.876   4.162  0.0218  0.1470 -0.1979
   84MOL0     C11005   6.107  10.743   4.214  0.6815 -0.2345 -0.3322
   84MOL0     N11006   5.763  10.274   4.403  0.0346  0.0083 -0.2981
   84MOL0     N11007   5.716  10.239   4.521 -0.0934 -0.2390  0.3231
   84MOL0     C11008   5.520   9.959   5.644  0.0177  0.6983 -0.3320
   84MOL0     C11009   5.502   9.878   5.758 -0.4193  0.5539  0.0546
   84MOL0     C11010   5.255   9.570   5.989  0.0104 -0.2841 -1.2163
   84MOL0     C11011   5.357   9.479   6.029 -0.5441  0.0499 -0.7500
   84MOL0     C11012   5.323   9.373   6.112 -0.4319 -0.0553 -0.2831
   84MOL0     C11013   5.199   9.342   6.156  0.0488 -0.8825  0.2662
   84MOL0     O11014   5.177   9.224   6.229  0.0125 -0.2146  0.1617
   84MOL0     C11015   5.103   9.252   6.350  1.1721 -0.3712  0.3206
   84MOL0     C11016   4.970   9.188   6.351  0.5627 -0.6668 -0.2772
   84MOL0     C11017   4.907   9.189   6.494 -0.6095  0.4713 -0.3018
   84MOL0     C11018   4.804   9.081   6.498 -0.1536 -0.9518 -0.0329
   84MOL0     C11019   4.713   9.066   6.616 -0.0085 -0.7205 -0.1225
   84MOL0     C11020   4.630   9.054   6.709  0.2362  0.2726  0.2581
   84MOL0     C11021   5.096   9.432   6.119  0.3131 -0.7071  0.5516
   84MOL0     C11022   5.118   9.548   6.034  0.3430 -0.0069  0.2308
   84MOL0     H11023   5.335   9.614   5.601 -2.6028 -0.3650  3.5108
   84MOL0     H11024   5.372   9.764   5.419 -0.7046  0.9023  0.5035
   84MOL0     H11025   5.413   9.885   5.252 -0.9084  1.8130 -0.0094
   84MOL0     H11026   5.599   9.912   5.277 -0.9902 -2.6883 -0.7416
   84MOL0     H11027   5.392  10.118   5.191  0.5967  0.8166 -2.6010
   84MOL0     H11028   5.503  10.044   5.081  0.7614  0.3152  0.2635
   84MOL0     H11029   5.699  10.151   5.198 -0.6169  0.8783 -2.0021
   84MOL0     H11030   5.581  10.222   5.320  2.8133  2.0116  0.4577
   84MOL0     H11031   5.462  10.320   5.114 -0.8182  0.3718  0.1069
   84MOL0     H11032   5.615  10.398   5.163 -2.6765  2.4570 -1.4807
   84MOL0     H11033   5.598  10.370   4.932  0.3048 -0.2172  0.0119
   84MOL0     H11034   5.570  10.188   4.929  2.8489 -2.6237  0.4327
   84MOL0     H11035   5.792  10.164   5.018 -4.5052  0.0315 -0.6478
   84MOL0     H11036   5.802  10.347   5.035 -0.4469  2.0312 -1.0092
   84MOL0     H11037   5.782  10.394   4.810 -0.5847 -0.4806  0.5264
   84MOL0     H11038   5.931  10.305   4.846  0.7339 -0.2990 -3.0235
   84MOL0     H11039   5.689  10.152   4.744  0.3707  1.8548  2.2216
   84MOL0     H11040   5.847  10.090   4.755 -0.9419 -0.8705 -1.5067
   84MOL0     H11041   6.026  10.180   4.577 -0.3339  1.1562  2.4990
   84MOL0     H11042   5.961  10.373   4.246 -1.2291  0.1570 -1.8913
   84MOL0     H11043   5.983  10.202   4.197  0.7974  0.6807 -0.0780
   84MOL0     H11044   6.177  10.157   4.348  1.0281 -2.0014 -0.8060
   84MOL0     H11045   6.170  10.330   4.399  0.1019 -1.3259  0.2597
   84MOL0     H11046   6.345  10.290   4.240 -0.7408  3.2174  2.4265
   84MOL0     H11047   6.236  10.203   4.126 -0.5256  0.9584 -1.4246
   84MOL0     H11048   6.131  10.396   4.060 -1.2865  3.2766  1.0767
   84MOL0     H11049   6.307  10.423   4.047 -0.3219  1.3180 -0.5797
   84MOL0     H11050   6.209  10.599   3.933  1.3596 -0.4196 -0.5261
   84MOL0     H11051   6.199  10.834   3.844  3.3913 -0.2909 -0.0567
   84MOL0     H11052   6.143  11.117   3.629  2.9469  1.2575  0.7087
   84MOL0     H11053   6.048  11.297   3.482 -0.5554  5.1736 -0.5856
   84MOL0     H11054   5.815  11.403   3.410 -0.0315 -0.1030  1.8009
   84MOL0     H11055   5.991  11.460   3.380  1.8694 -0.1872  2.8043
   84MOL0     H11056   5.901  11.683   3.373  2.1259 -0.7302  0.1624
   84MOL0     H11057   5.735  11.622   3.390  0.6830  1.7653  0.1185
   84MOL0     H11058   5.779  11.486   3.169 -0.8359 -0.0348 -1.7212
   84MOL0     H11059   5.938  11.559   3.161  0.7186 -0.4773  1.7971
   84MOL0     H11060   5.662  11.688   3.097 -0.3351 -0.2745 -2.8672
   84MOL0     H11061   5.799  11.797   3.149 -1.8786  0.0554  2.3556
   84MOL0     H11062   5.730  11.772   2.920  0.0827 -0.5490  0.8813
   84MOL0     H11063   5.751  11.601   2.929 -1.1575  0.8367 -1.8133
   84MOL0     H11064   5.995  11.622   2.974  0.3590  1.5117  3.1152
   84MOL0     H11065   5.986  11.805   2.978 -1.8835  1.6679 -1.3729
   84MOL0     H11066   5.922  11.625   2.740 -0.7939  0.3099  0.6515
   84MOL0     H11067   5.935  11.810   2.737  0.2293 -1.1051 -1.6677
   84MOL0     H11068   6.144  11.676   2.653 -0.2697  2.4190 -0.1649
   84MOL0     H11069   6.166  11.626   2.831  0.6017 -0.7947 -0.3724
   84MOL0     H11070   5.873  11.482   3.829 -1.0436  0.8449 -1.5652
   84MOL0     H11071   5.969  11.304   3.967 -0.6979 -1.2926  0.3749
   84MOL0     H11072   6.062  10.944   4.242 -0.8472 -2.5539  1.9477
   84MOL0     H11073   6.095  10.722   4.319  1.7912  3.4092  0.6410
   84MOL0     H11074   5.565  10.054   5.670  0.7430  0.3661 -0.3706
   84MOL0     H11075   5.535   9.919   5.852  0.7801  0.2561 -0.2136
   84MOL0     H11076   5.459   9.503   6.000  0.2776 -1.4645  0.7684
   84MOL0     H11077   5.405   9.313   6.149  0.3230  1.4945  0.6163
   84MOL0     H11078   5.089   9.360   6.358 -1.3641 -0.2878 -3.0930
   84MOL0     H11079   5.154   9.211   6.438 -1.9230 -3.6651  0.8038
   84MOL0     H11080   4.900   9.213   6.270  0.0038 -3.3714 -0.7212
   84MOL0     H11081   4.985   9.084   6.321 -0.0170 -0.8704  0.1117
   84MOL0     H11082   4.864   9.288   6.510 -1.5498 -0.4009  3.6175
   84MOL0     H11083   4.982   9.183   6.573  1.6481 -3.0416 -2.4711
   84MOL0     H11084   4.738   9.103   6.414 -1.0884 -2.4225  0.2715
   84MOL0     H11085   4.854   8.984   6.487  2.6597 -0.3074  4.4592
   84MOL0     H11086   4.545   9.065   6.773  1.7069  1.8758  2.0774
   84MOL0     H11087   4.989   9.415   6.132 -0.2921  2.4766  0.6081
   84MOL0     H11088   5.034   9.611   6.007 -0.2892 -0.0717  1.9124
   85MOL0     O11089   9.000   9.796   3.160  0.4815  0.3544 -0.9250
   85MOL0     C11090   9.114   9.764   3.188  1.1279 -0.0866 -0.8953
   85MOL0     O11091   9.150   9.634   3.211  0.1452  0.3289  0.4119
   85MOL0     C11092   9.047   9.549   3.251  0.3834  0.4999  0.2426
   85MOL0     C11093   8.964   9.469   3.172 -1.1313 -0.0345 -0.6480
   85MOL0     C11094   8.858   9.405   3.222  0.2161 -0.4746 -0.2420
   85MOL0     C11095   8.824   9.399   3.355  0.4989 -0.0093  0.0446
   85MOL0     O11096   8.702   9.341   3.395  0.5218  0.0995 -0.1156
   85MOL0     C11097   8.653   9.381   3.524  0.6258  1.0978 -0.4429
   85MOL0     C11098   8.526   9.301   3.544  0.7182  0.6420 -0.8332
   85MOL0     C11099   8.465   9.326   3.684  0.7345  0.1020 -0.5808
   85MOL0     C11100   8.343   9.241   3.706 -0.1544  0.1273  1.3825
   85MOL0     C11101   8.283   9.277   3.840  0.4724 -0.0281 -0.2901
   85MOL0     C11102   8.180   9.183   3.887 -0.6123  0.7998  0.2398
   85MOL0     C11103   8.045   9.179   3.812  0.5890 -0.1480  0.3721
   85MOL0     C11104   7.963   9.314   3.826  0.0973  0.3601 -0.6940
   85MOL0     N11105   7.909   9.344   3.957 -0.6548 -0.5676 -0.0976
   85MOL0     C11106   7.828   9.253   4.026 -0.2496 -1.0579  0.6704
   85MOL0     C11107   7.808   9.323   4.137 -0.2903  0.6398 -0.1512
   85MOL0     C11108   7.730   9.273   4.252 -0.3146 -0.1817  0.2203
   85MOL0     C11109   7.603   9.362   4.286  0.0834  0.4589 -0.1335
   85MOL0     C11110   7.556   9.338   4.426 -0.0131  0.4217  0.6864
   85MOL0     C11111   7.473   9.458   4.473  0.2396  0.8447 -0.0398
   85MOL0     O11112   7.345   9.448   4.408 -0.1006 -0.4153 -0.2316
   85MOL0     C11113   7.278   9.564   4.365  0.4572  0.4460  1.0355
   85MOL0     C11114   7.139   9.574   4.380 -0.3695 -0.5959 -1.2787
   85MOL0     C11115   7.074   9.687   4.333  0.2234  0.4106 -0.8138
   85MOL0     C11116   7.140   9.796   4.279 -0.0572 -0.2639 -0.4639
   85MOL0     C11117   7.077   9.925   4.250 -1.0163 -0.0689 -0.9409
   85MOL0     O11118   6.945   9.936   4.276 -0.1175  0.4637 -0.6160
   85MOL0     C11119   6.889  10.056   4.279  0.2937 -0.3151  1.3947
   85MOL0     C11120   6.887  10.135   4.398  0.4480 -0.4376  0.6648
   85MOL0     C11121   6.817  10.253   4.397  0.3724  0.1101  0.3233
   85MOL0     C11122   6.741  10.293   4.282 -0.7752 -1.4633 -0.3469
   85MOL0     O11123   6.677  10.414   4.295 -0.7463  0.7139  0.3746
   85MOL0     C11124   6.657  10.505   4.179  1.2454  0.5479  0.1014
   85MOL0     C11125   6.598  10.635   4.227 -0.1460 -0.5381  0.4970
   85MOL0     C11126   6.561  10.720   4.104  0.4685  0.0424 -0.1564
   85MOL0     C11127   6.512  10.860   4.158 -0.5399 -0.2924  0.6214
   85MOL0     C11128   6.506  10.961   4.047  0.2203 -0.7457  0.1091
   85MOL0     C11129   6.451  11.093   4.089 -0.3114  0.1314 -0.7187
   85MOL0     C11130   6.438  11.198   3.980 -0.3600 -0.3022  0.0761
   85MOL0     C11131   6.366  11.325   4.011  0.1584 -0.7338  0.0583
   85MOL0    Cl11132   6.373  11.414   3.863 -0.5075 -0.4332  0.5140
   85MOL0     C11133   6.739  10.213   4.170 -0.1127 -0.4243 -0.0154
   85MOL0     C11134   6.822  10.100   4.168  0.0916  0.7878 -1.0149
   85MOL0     O11135   7.153  10.016   4.221 -0.2086 -0.3790 -1.1494
   85MOL0     C11136   7.285   9.791   4.270 -0.9873 -0.8712 -1.4211
   85MOL0     C11137   7.345   9.677   4.318 -0.0244  0.3381  0.0411
   85MOL0     N11138   7.879   9.446   4.142  0.9564 -0.6381  0.4866
   85MOL0     N11139   7.932   9.460   4.028  0.2905  0.0842 -0.6621
   85MOL0     C11140   8.906   9.475   3.442  0.0744 -0.3584  1.0281
   85MOL0     C11141   9.006   9.557   3.384 -0.4994  0.3587 -0.8498
   85MOL0     C11142   9.228   9.864   3.192  0.3277 -0.7350  0.3450
   85MOL0     C11143   9.220   9.987   3.133  0.5794  0.1042 -0.5258
   85MOL0     C11144   9.317  10.081   3.134 -0.6591  0.1258 -0.7407
   85MOL0     C11145   9.436  10.048   3.184  0.0268 -0.9007  0.1896
   85MOL0     O11146   9.532  10.140   3.195  0.5367 -0.1014 -0.2717
   85MOL0     C11147   9.606  10.175   3.076 -0.0575 -0.8750 -0.3833
   85MOL0     C11148   9.751  10.146   3.116 -0.8596  0.5806 -1.0559
   85MOL0     C11149   9.823  10.255   3.182  0.5404 -0.3782 -0.4326
   85MOL0     C11150   9.969  10.239   3.210 -0.5457  0.2712 -0.0068
   85MOL0     C11151  10.024  10.358   3.274 -0.6993  0.5886 -0.3070
   85MOL0     C11152  10.072  10.459   3.321  0.1957  0.4165 -0.1259
   85MOL0     C11153   9.462   9.918   3.230  0.6847 -1.1934 -0.1867
   85MOL0     C11154   9.354   9.834   3.237  0.8425 -0.2722 -0.9834
   85MOL0     H11155   8.984   9.463   3.065  0.4803  1.6772 -0.4830
   85MOL0     H11156   8.791   9.346   3.159 -1.7203  1.6364 -0.2825
   85MOL0     H11157   8.629   9.487   3.524 -2.8117  0.4429  0.4677
   85MOL0     H11158   8.730   9.347   3.594  2.8755 -0.0949 -3.2839
   85MOL0     H11159   8.554   9.196   3.535  0.5151  0.6259 -1.2731
   85MOL0     H11160   8.457   9.324   3.463  0.1038  0.5365 -0.3497
   85MOL0     H11161   8.432   9.430   3.696 -0.7286 -0.0233 -2.8056
   85MOL0     H11162   8.538   9.298   3.760 -1.3753  0.9578  1.9328
   85MOL0     H11163   8.270   9.262   3.627  0.4466 -1.1130  0.4477
   85MOL0     H11164   8.363   9.133   3.702 -0.1459  0.1411 -1.9525
   85MOL0     H11165   8.250   9.381   3.834 -2.7979 -1.0067 -1.2270
   85MOL0     H11166   8.354   9.280   3.923 -1.0315  2.9115  1.0751
   85MOL0     H11167   8.167   9.196   3.995  0.9272  1.9292  0.3310
   85MOL0     H11168   8.217   9.080   3.876 -4.7514 -0.7752 -0.8095
   85MOL0     H11169   8.065   9.158   3.707 -0.7724  0.7903 -0.1038
   85MOL0     H11170   7.987   9.093   3.849 -0.2661  0.4426  0.4202
   85MOL0     H11171   7.876   9.312   3.760 -0.5297  1.3015  0.0899
   85MOL0     H11172   8.025   9.395   3.785  0.9733 -0.2997 -0.7120
   85MOL0     H11173   7.790   9.156   3.997 -0.3664 -0.3886 -1.6171
   85MOL0     H11174   7.791   9.252   4.340 -0.3368 -1.4772 -0.0504
   85MOL0     H11175   7.693   9.175   4.224  1.3960 -1.4564  2.1000
   85MOL0     H11176   7.531   9.336   4.207  1.6647 -0.3035 -1.3755
   85MOL0     H11177   7.630   9.468   4.282  2.4911  0.0575  2.6833
   85MOL0     H11178   7.494   9.248   4.432  1.6851 -0.8781 -0.1736
   85MOL0     H11179   7.642   9.327   4.493 -0.2670 -0.5288  0.8731
   85MOL0     H11180   7.530   9.550   4.457  0.7687  0.8534  1.6896
   85MOL0     H11181   7.459   9.452   4.581  0.3906 -0.6677 -0.0839
   85MOL0     H11182   7.085   9.493   4.428  1.5525  0.2364  2.7125
   85MOL0     H11183   6.970   9.717   4.345  0.9426  3.1676 -0.6630
   85MOL0     H11184   6.924  10.102   4.494 -0.9876  1.1591  1.8291
   85MOL0     H11185   6.814  10.309   4.490 -0.0416  0.3316  0.1835
   85MOL0     H11186   6.576  10.454   4.125  1.6772 -0.8546  0.7309
   85MOL0     H11187   6.747  10.517   4.118  0.7410  1.3003 -0.5290
   85MOL0     H11188   6.681  10.683   4.279 -0.9572  1.0586  0.3942
   85MOL0     H11189   6.512  10.620   4.294 -0.5291 -0.1612  0.0967
   85MOL0     H11190   6.479  10.680   4.044  0.2593 -1.7548  1.2716
   85MOL0     H11191   6.652  10.738   4.046  0.0573  2.5513 -0.1603
   85MOL0     H11192   6.409  10.859   4.194 -1.0595 -1.2737 -0.7635
   85MOL0     H11193   6.583  10.891   4.235  0.2971  2.0502 -0.9956
   85MOL0     H11194   6.440  10.939   3.962  0.2660  0.3085 -0.2052
   85MOL0     H11195   6.608  10.984   4.012  2.2022 -3.9973  3.0700
   85MOL0     H11196   6.512  11.143   4.165 -2.6445  1.1987  0.5844
   85MOL0     H11197   6.353  11.071   4.133 -0.4485  1.1902 -0.4639
   85MOL0     H11198   6.543  11.219   3.955 -0.9586  0.5368 -2.0086
   85MOL0     H11199   6.396  11.162   3.885  2.6019 -2.1522 -0.6960
   85MOL0     H11200   6.415  11.379   4.093  0.5339 -1.0272  0.0257
   85MOL0     H11201   6.260  11.302   4.028  0.1724 -0.2047  0.9174
   85MOL0     H11202   6.678  10.233   4.083 -0.4003  0.0964  0.2985
   85MOL0     H11203   6.831  10.028   4.087 -3.1946  0.0725 -0.8695
   85MOL0     H11204   7.348   9.870   4.230 -0.3852  0.2049  1.4348
   85MOL0     H11205   7.451   9.690   4.299  0.4156 -0.3767  1.7782
   85MOL0     H11206   8.902   9.466   3.550  2.5352 -2.9848  1.0164
   85MOL0     H11207   9.066   9.621   3.448  0.8973 -3.8203  2.4152
   85MOL0     H11208   9.125  10.002   3.083 -0.8166 -1.9822  1.3509
   85MOL0     H11209   9.295  10.174   3.082  3.2636  2.4684  1.3481
   85MOL0     H11210   9.591  10.281   3.054  2.6042 -0.2999  0.3523
   85MOL0     H11211   9.571  10.121   2.987  1.8363  0.4286 -1.9896
   85MOL0     H11212   9.759  10.053   3.173  1.2320  0.6036 -1.2414
   85MOL0     H11213   9.803  10.120   3.024  1.1883 -0.4829  0.3084
   85MOL0     H11214   9.771  10.282   3.275  0.1296 -1.1854 -0.4207
   85MOL0     H11215   9.815  10.342   3.116  0.3001  0.4323  0.6418
   85MOL0     H11216   9.980  10.141   3.257  0.4414 -0.2693 -1.3204
   85MOL0     H11217  10.019  10.228   3.113 -0.2664  1.9478 -0.0913
   85MOL0     H11218  10.106  10.548   3.371  0.7437 -0.6700  1.4953
   85MOL0     H11219   9.555   9.882   3.272 -1.0040 -2.0477  3.1864
   85MOL0     H11220   9.376   9.734   3.273  1.4600  0.1506 -0.1718
   86MOL0     O11221   5.256   3.064   8.363  0.6062  0.7809  0.5505
   86MOL0     C11222   5.348   2.985   8.394  0.1410 -0.0025  0.0560
   86MOL0     O11223   5.345   2.906   8.507 -0.8741 -0.5074 -0.1635
   86MOL0     C11224   5.261   2.930   8.609 -0.7741 -0.2890  0.1275
   86MOL0     C11225   5.215   2.815   8.676  0.0207 -0.3693 -0.0096
   86MOL0     C11226   5.126   2.829   8.786  0.2802 -0.5979  0.3420
   86MOL0     C11227   5.097   2.949   8.838  0.5783 -0.5679 -0.3370
   86MOL0     O11228   5.009   2.965   8.936 -0.0876  0.0777 -0.2555
   86MOL0     C11229   4.871   2.952   8.908 -0.2496 -0.2020  0.1124
   86MOL0     C11230   4.820   3.044   8.792 -0.5174  0.5338  0.4441
   86MOL0     C11231   4.685   2.997   8.728  0.4994 -0.8464 -0.8858
   86MOL0     C11232   4.570   3.043   8.824 -0.8943  0.3323 -0.4673
   86MOL0     C11233   4.432   3.022   8.751 -0.1946 -0.1625  0.1232
   86MOL0     C11234   4.326   3.035   8.855  0.8514 -0.7230 -0.2795
   86MOL0     C11235   4.196   3.097   8.794  0.7907  0.1660 -0.0243
   86MOL0     C11236   4.089   3.062   8.907  0.8645  1.0245  0.1915
   86MOL0     N11237   3.955   3.134   8.886  0.4927  0.4757 -0.4689
   86MOL0     C11238   3.894   3.144   8.764  0.9750 -0.0024 -0.6088
   86MOL0     C11239   3.762   3.178   8.791 -0.2747 -0.2609 -0.1174
   86MOL0     C11240   3.649   3.207   8.700  0.3278  0.4111  0.0502
   86MOL0     C11241   3.516   3.165   8.768 -0.1001 -0.2107 -0.8118
   86MOL0     C11242   3.445   3.294   8.827  0.3519 -0.4384  0.3928
   86MOL0     C11243   3.308   3.274   8.896 -0.3345 -0.7148 -1.1593
   86MOL0     O11244   3.236   3.168   8.830 -0.2987 -0.4582 -1.1049
   86MOL0     C11245   3.117   3.125   8.888  0.3449  0.0578  0.4683
   86MOL0     C11246   2.999   3.126   8.810 -0.3022  0.5354  0.5133
   86MOL0     C11247   2.878   3.076   8.867 -0.2011 -0.5074 -0.8306
   86MOL0     C11248   2.887   3.054   9.012 -0.2636 -0.5291 -0.3828
   86MOL0     C11249   2.763   3.023   9.080 -0.1376  0.6843 -1.4411
   86MOL0     O11250   2.741   3.093   9.198 -0.2081 -0.0575  0.2499
   86MOL0     C11251   2.628   3.060   9.262  0.3767 -0.3146 -0.0774
   86MOL0     C11252   2.512   3.138   9.247 -0.4870 -0.4220  0.4536
   86MOL0     C11253   2.405   3.121   9.323  0.4925  0.0708 -0.8613
   86MOL0     C11254   2.394   3.009   9.408  1.0496  0.9054  0.3363
   86MOL0     O11255   2.281   2.997   9.479 -0.6690  0.9074  0.2693
   86MOL0     C11256   2.155   2.985   9.405 -0.1861 -0.2057  0.9097
   86MOL0     C11257   2.060   2.906   9.489  0.6415 -0.2838 -0.2508
   86MOL0     C11258   1.907   2.919   9.441 -0.0326  0.0561 -0.1617
   86MOL0     C11259   1.860   2.849   9.312  0.1029 -0.5036 -0.1704
   86MOL0     C11260   1.705   2.865   9.290 -0.5914 -0.2768 -0.1867
   86MOL0     C11261   1.607   2.816   9.401  0.9997 -0.7520  0.1253
   86MOL0     C11262   1.467   2.834   9.337  0.0394 -0.8680 -1.3928
   86MOL0     C11263   1.359   2.775   9.425  0.7908  0.1953 -0.5755
   86MOL0    Cl11264   1.204   2.757   9.341 -0.4812 -0.0045 -0.1773
   86MOL0     C11265   2.498   2.920   9.421  0.0384 -0.3059  0.9728
   86MOL0     C11266   2.620   2.946   9.352 -0.4863 -0.4538  0.2202
   86MOL0     O11267   2.685   2.949   9.024 -0.4743  1.0051  0.1854
   86MOL0     C11268   2.995   3.078   9.089  0.1551 -1.1396 -0.4170
   86MOL0     C11269   3.110   3.101   9.023 -0.5954 -0.7201 -0.4832
   86MOL0     N11270   3.751   3.203   8.928  0.9091 -0.1453  0.3172
   86MOL0     N11271   3.865   3.173   8.988 -0.0270  0.4170 -0.6764
   86MOL0     C11272   5.144   3.059   8.780  0.5272 -0.8245 -0.0636
   86MOL0     C11273   5.215   3.056   8.657 -0.0240 -0.0638 -0.0085
   86MOL0     C11274   5.460   2.965   8.306  0.6793 -0.1514 -0.1889
   86MOL0     C11275   5.561   2.872   8.343 -0.0136  0.4100  0.2069
   86MOL0     C11276   5.672   2.843   8.256 -0.2661 -0.7570 -0.5421
   86MOL0     C11277   5.674   2.903   8.134 -0.0722  0.3945 -0.2228
   86MOL0     O11278   5.778   2.893   8.046 -0.2601 -0.1312  0.5300
   86MOL0     C11279   5.910   2.875   8.076  0.1941  0.1043 -0.2731
   86MOL0     C11280   5.992   2.960   7.986  1.1117 -0.1829  0.5967
   86MOL0     C11281   6.135   2.939   8.035  1.1199  0.1469 -0.5474
   86MOL0     C11282   6.223   3.032   7.960  0.2855  0.4616 -0.4156
   86MOL0     C11283   6.361   2.998   7.971 -0.6800 -0.0368 -0.1132
   86MOL0     C11284   6.481   2.982   8.006  0.7307  0.5494  1.1654
   86MOL0     C11285   5.577   3.004   8.096 -0.5672  0.4519 -1.1070
   86MOL0     C11286   5.466   3.026   8.180 -1.2443 -0.2140  0.7485
   86MOL0     H11287   5.241   2.719   8.633 -1.4050 -0.3609 -0.9866
   86MOL0     H11288   5.084   2.738   8.829 -0.3456 -1.7387 -2.4907
   86MOL0     H11289   4.819   2.970   9.002  1.0855 -0.2301  0.8838
   86MOL0     H11290   4.847   2.852   8.872 -2.6890  1.2694 -2.7143
   86MOL0     H11291   4.896   3.034   8.713  0.9179 -2.5245  2.0469
   86MOL0     H11292   4.824   3.147   8.828  0.6520 -0.0180  2.0014
   86MOL0     H11293   4.686   2.887   8.722  2.0465 -0.8053 -2.0792
   86MOL0     H11294   4.674   3.030   8.625  1.7498  0.6875 -0.5644
   86MOL0     H11295   4.573   2.973   8.908  0.5979  2.9360  1.8032
   86MOL0     H11296   4.591   3.144   8.860 -1.5428  0.4882 -0.5183
   86MOL0     H11297   4.421   2.919   8.717  2.0867 -0.4919  0.1977
   86MOL0     H11298   4.425   3.073   8.654 -2.4036 -1.3122 -0.3777
   86MOL0     H11299   4.350   3.090   8.947 -0.2207 -2.2957  0.9937
   86MOL0     H11300   4.303   2.937   8.896  1.7717 -0.3383  1.2192
   86MOL0     H11301   4.216   3.205   8.795  1.2202  0.1358 -2.1547
   86MOL0     H11302   4.164   3.065   8.695  1.3768 -1.2127  0.2173
   86MOL0     H11303   4.128   3.091   9.005  2.3786  1.2727 -0.4633
   86MOL0     H11304   4.081   2.954   8.914 -0.6684  1.1960  1.7386
   86MOL0     H11305   3.942   3.139   8.667  3.2477  2.3807  0.2834
   86MOL0     H11306   3.650   3.160   8.601 -1.1596 -0.2214  0.2999
   86MOL0     H11307   3.647   3.312   8.673 -3.9161 -0.2575 -3.2149
   86MOL0     H11308   3.524   3.093   8.850 -1.2593  0.2496 -0.2771
   86MOL0     H11309   3.447   3.132   8.690 -2.6214  3.7366 -0.5216
   86MOL0     H11310   3.504   3.349   8.901 -0.4780  0.3976  0.4627
   86MOL0     H11311   3.440   3.364   8.743  2.0270 -2.1599 -1.2555
   86MOL0     H11312   3.261   3.372   8.899  1.5622  0.2454  1.7976
   86MOL0     H11313   3.336   3.251   9.000  1.6918 -6.7709 -2.6131
   86MOL0     H11314   3.000   3.138   8.702 -0.2935 -1.1346  0.2962
   86MOL0     H11315   2.783   3.075   8.816 -1.0452  0.4614  0.6283
   86MOL0     H11316   2.513   3.222   9.177 -4.6226 -0.4485  0.1297
   86MOL0     H11317   2.333   3.198   9.299  0.5450  0.2804 -0.3646
   86MOL0     H11318   2.160   2.927   9.313  0.4366  0.9328  0.2022
   86MOL0     H11319   2.111   3.083   9.382  3.0419  0.3528 -4.5538
   86MOL0     H11320   2.059   2.949   9.590  1.7045  0.5024 -0.5612
   86MOL0     H11321   2.099   2.804   9.498 -0.3896 -0.6235  0.7315
   86MOL0     H11322   1.892   3.028   9.443  1.8777  0.4770 -2.6234
   86MOL0     H11323   1.840   2.874   9.514 -0.7388  0.8233 -0.3210
   86MOL0     H11324   1.910   2.891   9.224  1.1677  2.2909  1.6457
   86MOL0     H11325   1.891   2.744   9.315 -1.1909 -0.8778  1.3755
   86MOL0     H11326   1.683   2.831   9.188  4.3005  1.7423 -2.2312
   86MOL0     H11327   1.695   2.971   9.264 -0.8744 -0.2256  0.1215
   86MOL0     H11328   1.622   2.881   9.488  1.0682 -0.1809 -0.3090
   86MOL0     H11329   1.626   2.710   9.421 -2.3087 -1.9995 -2.3521
   86MOL0     H11330   1.441   2.940   9.330  3.6336  0.8468  4.2771
   86MOL0     H11331   1.460   2.792   9.236 -0.7388 -0.5031 -1.4959
   86MOL0     H11332   1.336   2.840   9.510 -2.8333 -2.4549  0.7320
   86MOL0     H11333   1.404   2.685   9.467  1.4027  1.0684  0.6835
   86MOL0     H11334   2.492   2.834   9.487  1.8085 -2.9472 -2.0222
   86MOL0     H11335   2.709   2.888   9.373 -1.4775 -2.7109 -1.4376
   86MOL0     H11336   2.988   3.060   9.195 -4.3314  2.2440  0.1673
   86MOL0     H11337   3.201   3.106   9.082 -1.6595 -0.1347  1.2072
   86MOL0     H11338   5.101   3.155   8.804 -2.4393 -1.2879 -2.7365
   86MOL0     H11339   5.239   3.153   8.615 -0.3117 -0.5374 -1.3364
   86MOL0     H11340   5.548   2.822   8.439  0.0437 -1.3138 -0.6351
   86MOL0     H11341   5.746   2.770   8.286  0.1844 -0.6005 -1.2527
   86MOL0     H11342   5.930   2.767   8.070 -2.7653 -0.5003 -1.6186
   86MOL0     H11343   5.928   2.912   8.177  0.7180  2.8747 -1.2892
   86MOL0     H11344   5.977   2.923   7.884  1.1952  1.4722 -0.0608
   86MOL0     H11345   5.952   3.062   7.994  0.7877 -0.2269 -0.3211
   86MOL0     H11346   6.165   2.835   8.023  2.7298  0.5961 -0.6143
   86MOL0     H11347   6.145   2.956   8.142  1.2949 -0.1150 -0.5234
   86MOL0     H11348   6.199   3.026   7.853  2.6634 -0.8754 -0.9429
   86MOL0     H11349   6.213   3.132   8.002  0.2175 -0.0745  0.8884
   86MOL0     H11350   6.588   2.982   8.016  0.9451 -0.7281 -0.5387
   86MOL0     H11351   5.584   3.048   7.997  3.4636 -0.0044 -1.1687
   86MOL0     H11352   5.393   3.099   8.147  0.6010  0.9458 -1.0372
   87MOL0     O11353   6.973   8.660  10.566  0.1788  0.0110 -0.2313
   87MOL0     C11354   6.897   8.566  10.542  1.0278 -0.0726  0.7743
   87MOL0     O11355   6.932   8.438  10.516 -0.4059 -0.4543 -0.1939
   87MOL0     C11356   7.066   8.410  10.515 -0.1185 -0.0844  0.0935
   87MOL0     C11357   7.109   8.317  10.605 -0.1303  0.0393 -1.1971
   87MOL0     C11358   7.227   8.253  10.592 -0.2349 -0.1293 -0.1462
   87MOL0     C11359   7.316   8.278  10.493 -0.0830 -0.0914  0.1042
   87MOL0     O11360   7.437   8.206  10.507 -0.0519 -0.3504 -0.2855
   87MOL0     C11361   7.507   8.178  10.385 -0.6923  0.2892 -0.1111
   87MOL0     C11362   7.632   8.113  10.426 -0.0874  0.2304  0.5618
   87MOL0     C11363   7.713   8.065  10.297  0.0571  0.0270 -0.6869
   87MOL0     C11364   7.811   7.953  10.325 -0.2270  0.1217 -0.5082
   87MOL0     C11365   7.879   7.964  10.460  0.1255 -0.9820  0.2762
   87MOL0     C11366   7.978   7.843  10.489 -0.8353 -0.8629 -0.3894
   87MOL0     C11367   8.059   7.864  10.624  0.3085 -1.2028 -0.2300
   87MOL0     C11368   8.140   7.744  10.651 -0.5581  1.1090 -1.1333
   87MOL0     N11369   8.234   7.751  10.761  0.1586 -0.4491  0.2128
   87MOL0     C11370   8.284   7.638  10.834  0.1850  0.7457 -0.0506
   87MOL0     C11371   8.350   7.694  10.942  0.1882  0.5666 -0.7523
   87MOL0     C11372   8.423   7.627  11.049  0.6285 -0.3750  0.1656
   87MOL0     C11373   8.327   7.578  11.160  0.1096  0.2046 -0.2849
   87MOL0     C11374   8.298   7.687  11.254  0.2468  0.1197  0.1997
   87MOL0     C11375   8.194   7.661  11.355  0.4834 -0.9053  0.2176
   87MOL0     O11376   8.205   7.528  11.420  0.0235 -0.5157 -0.4932
   87MOL0     C11377   8.222   7.529  11.558 -0.1887  0.1470  0.3942
   87MOL0     C11378   8.186   7.412  11.626 -0.5841  0.1552 -0.4146
   87MOL0     C11379   8.192   7.408  11.762 -0.3239  0.1554  0.4738
   87MOL0     C11380   8.232   7.515  11.840 -0.6007 -0.9807  0.0007
   87MOL0     C11381   8.224   7.519  11.985  0.1651 -0.6722  0.6175
   87MOL0     O11382   8.111   7.463  12.048  0.4140  0.6849 -0.4733
   87MOL0     C11383   8.081   7.508  12.174  0.4259  0.6631  0.1236
   87MOL0     C11384   8.173   7.489  12.277  0.4326  0.0320  0.6315
   87MOL0     C11385   8.140   7.512  12.410 -0.5061  0.1405  0.1298
   87MOL0     C11386   8.008   7.522  12.442  1.1479  0.7609 -0.9168
   87MOL0     O11387   7.980   7.541  12.573  0.3977 -0.1844 -0.0213
   87MOL0     C11388   7.942   7.417  12.641 -0.2391  0.4080  0.2441
   87MOL0     C11389   7.908   7.452  12.785 -0.4756 -0.3028  0.6251
   87MOL0     C11390   7.796   7.561  12.790  0.2158 -0.2853  0.4277
   87MOL0     C11391   7.763   7.610  12.935 -0.6747  0.1002  0.4112
   87MOL0     C11392   7.651   7.726  12.917 -0.0078  0.1502 -0.6133
   87MOL0     C11393   7.620   7.792  13.049 -0.1718  0.4878 -0.2939
   87MOL0     C11394   7.576   7.703  13.163  0.6837  0.2456  0.5758
   87MOL0     C11395   7.500   7.784  13.276  1.2181 -0.1845 -0.2303
   87MOL0    Cl11396   7.347   7.694  13.329  0.3462 -0.2179 -0.4938
   87MOL0     C11397   7.909   7.534  12.349 -0.5219  0.2514  0.9479
   87MOL0     C11398   7.945   7.517  12.214 -0.1866  0.2614  0.2032
   87MOL0     O11399   8.312   7.585  12.046  0.4239 -0.0665 -0.1993
   87MOL0     C11400   8.277   7.629  11.772 -0.1169  0.4004 -1.2684
   87MOL0     C11401   8.283   7.632  11.632 -0.1577  0.2019 -0.0851
   87MOL0     N11402   8.344   7.830  10.932  0.5688 -0.9615  0.5217
   87MOL0     N11403   8.262   7.864  10.836 -0.0188  0.5537 -0.2888
   87MOL0     C11404   7.282   8.382  10.411 -0.2668  0.1217  0.1466
   87MOL0     C11405   7.154   8.439  10.415 -0.7054 -1.2928 -0.9898
   87MOL0     C11406   6.751   8.601  10.570 -0.3470  0.1113  0.1055
   87MOL0     C11407   6.650   8.515  10.553  0.0376 -0.5306  0.3845
   87MOL0     C11408   6.513   8.541  10.573  0.1015 -0.0269 -0.4507
   87MOL0     C11409   6.474   8.672  10.611 -0.4883 -0.4424 -0.2689
   87MOL0     O11410   6.353   8.728  10.647  0.2920  0.7964 -0.1966
   87MOL0     C11411   6.229   8.661  10.627 -0.8522  0.5272 -0.1841
   87MOL0     C11412   6.108   8.755  10.651  0.1671 -0.0578 -0.2892
   87MOL0     C11413   6.103   8.872  10.548 -0.2034  0.8728 -0.5604
   87MOL0     C11414   5.982   8.962  10.571  0.0214 -0.3126 -0.9768
   87MOL0     C11415   5.974   9.040  10.696  0.1781  0.0764 -0.4541
   87MOL0     C11416   5.967   9.092  10.804  0.2835 -0.0172 -0.5471
   87MOL0     C11417   6.582   8.762  10.628  0.1762  0.8528 -0.0177
   87MOL0     C11418   6.711   8.732  10.601 -0.0384  0.7687 -0.2492
   87MOL0     H11419   7.050   8.284  10.690  0.6993  3.1291  0.7294
   87MOL0     H11420   7.256   8.168  10.654  0.7195 -0.2776 -0.7862
   87MOL0     H11421   7.527   8.264  10.321  0.9915 -1.4791 -2.1210
   87MOL0     H11422   7.441   8.111  10.331  2.2943 -2.6305 -0.4914
   87MOL0     H11423   7.608   8.020  10.479  1.5570 -3.2691 -4.0961
   87MOL0     H11424   7.694   8.182  10.483 -0.2143 -0.8068  2.0039
   87MOL0     H11425   7.768   8.154  10.262  1.4745 -1.1847 -1.7048
   87MOL0     H11426   7.645   8.033  10.218  0.2525 -2.4596  0.0554
   87MOL0     H11427   7.755   7.860  10.334  0.8678 -0.3524  3.2606
   87MOL0     H11428   7.890   7.948  10.250  0.1267 -0.1525 -0.1201
   87MOL0     H11429   7.805   7.971  10.540  0.7890  0.8897  0.7743
   87MOL0     H11430   7.935   8.058  10.462  0.4837 -1.1638 -0.4879
   87MOL0     H11431   8.046   7.859  10.404 -0.0684  2.3533  0.6882
   87MOL0     H11432   7.927   7.746  10.492 -0.1718 -1.2650  3.7568
   87MOL0     H11433   8.119   7.955  10.613  0.0716 -0.6649  2.3276
   87MOL0     H11434   7.982   7.881  10.699 -1.0810 -1.2183 -1.5887
   87MOL0     H11435   8.211   7.731  10.569 -1.2682 -1.4911 -1.4039
   87MOL0     H11436   8.069   7.662  10.662 -1.0581  1.8811  2.4784
   87MOL0     H11437   8.275   7.532  10.813  1.6497  1.0032 -2.4000
   87MOL0     H11438   8.493   7.701  11.089  1.3306 -0.0980 -1.4720
   87MOL0     H11439   8.488   7.548  11.009  1.7866 -0.0408  1.3429
   87MOL0     H11440   8.367   7.494  11.217 -1.0923  0.7984  1.5196
   87MOL0     H11441   8.239   7.531  11.116  0.0525 -1.6533  1.6736
   87MOL0     H11442   8.391   7.721  11.302  1.1312 -3.0752  0.9682
   87MOL0     H11443   8.263   7.770  11.192 -1.6356  0.0461  1.0812
   87MOL0     H11444   8.100   7.660  11.300  1.5704 -0.2164 -1.7405
   87MOL0     H11445   8.187   7.745  11.425 -0.2352 -0.2399 -0.6251
   87MOL0     H11446   8.167   7.321  11.569  1.2403  1.0214 -2.5184
   87MOL0     H11447   8.149   7.329  11.823 -2.3634  1.1930  0.4698
   87MOL0     H11448   8.271   7.459  12.241 -0.2498 -0.0607 -1.2388
   87MOL0     H11449   8.218   7.511  12.485 -0.4452  1.7452  0.1154
   87MOL0     H11450   8.032   7.355  12.637 -0.8617 -0.5227  0.3120
   87MOL0     H11451   7.863   7.364  12.587  2.8949 -0.0266 -4.5588
   87MOL0     H11452   7.994   7.497  12.836 -0.7903 -0.0235  0.9176
   87MOL0     H11453   7.879   7.368  12.850 -2.5516 -0.8736 -0.9407
   87MOL0     H11454   7.709   7.520  12.737 -0.4524  3.4367 -1.6954
   87MOL0     H11455   7.815   7.650  12.729  3.0617  2.3307  4.5322
   87MOL0     H11456   7.737   7.531  13.006  0.2072 -0.3500  0.2363
   87MOL0     H11457   7.849   7.660  12.980  1.1932 -1.4329 -1.2643
   87MOL0     H11458   7.562   7.691  12.865 -0.3544  1.8660 -1.2078
   87MOL0     H11459   7.698   7.805  12.858  4.0419 -1.4057  0.1483
   87MOL0     H11460   7.537   7.861  13.032  1.7143  2.5274 -1.9056
   87MOL0     H11461   7.698   7.866  13.071 -0.4466  0.9757 -0.9175
   87MOL0     H11462   7.512   7.623  13.125  1.9289 -0.2378 -0.5981
   87MOL0     H11463   7.661   7.647  13.203  0.3140 -0.1210  0.8652
   87MOL0     H11464   7.465   7.878  13.233 -1.3890 -0.0444  1.9599
   87MOL0     H11465   7.570   7.820  13.352 -0.1727 -1.5910  1.8109
   87MOL0     H11466   7.810   7.573  12.369  0.4696  3.4033  0.2866
   87MOL0     H11467   7.871   7.522  12.136  0.4342 -1.1236 -0.5196
   87MOL0     H11468   8.314   7.707  11.837  1.1313 -1.6780  0.6100
   87MOL0     H11469   8.330   7.720  11.592  0.4963 -0.1124 -0.0173
   87MOL0     H11470   7.346   8.404  10.326  0.5177  0.2274  0.7576
   87MOL0     H11471   7.121   8.498  10.330  0.5037 -0.7454 -1.0964
   87MOL0     H11472   6.681   8.414  10.531  1.1985  0.0985 -1.1012
   87MOL0     H11473   6.447   8.467  10.529  0.4859  1.3466 -3.6084
   87MOL0     H11474   6.219   8.577  10.696  0.0866  1.1316  0.7390
   87MOL0     H11475   6.222   8.625  10.524  2.5491 -3.1831  0.6228
   87MOL0     H11476   6.016   8.698  10.637  1.5971 -2.2658 -1.4160
   87MOL0     H11477   6.110   8.794  10.753 -3.6754 -1.6784  0.5682
   87MOL0     H11478   6.102   8.828  10.448 -3.2064  0.2997 -0.3504
   87MOL0     H11479   6.190   8.937  10.557  1.7366 -1.5674 -0.6050
   87MOL0     H11480   5.990   9.026  10.483 -0.4006 -4.4023 -4.3335
   87MOL0     H11481   5.890   8.905  10.553 -0.1751 -0.6775  0.9192
   87MOL0     H11482   5.959   9.125  10.905  3.0236 -1.7953  0.3654
   87MOL0     H11483   6.557   8.857  10.674  0.1199 -0.3416  2.6088
   87MOL0     H11484   6.785   8.805  10.633  1.4876 -1.0860  0.6681
   88MOL0     O11485   7.105   8.925   9.482 -0.3592 -0.3391  0.3435
   88MOL0     C11486   7.105   8.859   9.373  0.1649  0.4087 -0.0210
   88MOL0     O11487   6.996   8.818   9.301 -0.2279  0.0501  0.9258
   88MOL0     C11488   6.871   8.854   9.346 -0.8342  0.2332 -0.6544
   88MOL0     C11489   6.839   8.989   9.335  0.2274 -0.0351 -0.9793
   88MOL0     C11490   6.713   9.032   9.394 -0.3865  1.1909  0.3485
   88MOL0     C11491   6.633   8.936   9.461  1.4141 -0.8126 -1.1393
   88MOL0     O11492   6.514   8.966   9.526  0.6303  0.0556 -0.5556
   88MOL0     C11493   6.449   9.091   9.497 -1.0838  0.5932 -0.8210
   88MOL0     C11494   6.304   9.098   9.525 -0.3332  0.7711 -0.2938
   88MOL0     C11495   6.268   9.084   9.670 -0.2294  0.3362  0.5291
   88MOL0     C11496   6.116   9.088   9.700  0.2218  1.0896  0.6641
   88MOL0     C11497   6.089   9.103   9.848  0.2633 -0.8692  0.1564
   88MOL0     C11498   5.978   9.005   9.886  0.4364  0.2296  0.4848
   88MOL0     C11499   5.973   8.982  10.040  0.9367  0.2418  0.0847
   88MOL0     C11500   5.926   9.103  10.119  0.7348  0.0423 -0.7735
   88MOL0     N11501   5.793   9.163  10.080  0.5471  0.6831  0.2150
   88MOL0     C11502   5.788   9.290  10.041 -0.6307 -0.7389 -0.0067
   88MOL0     C11503   5.661   9.322  10.074 -0.0640 -0.4807 -0.0484
   88MOL0     C11504   5.607   9.454  10.037 -0.8985  0.0906  0.4702
   88MOL0     C11505   5.467   9.452   9.979  0.4464 -0.3979 -0.7831
   88MOL0     C11506   5.377   9.550  10.052 -0.1641 -0.2381 -0.5435
   88MOL0     C11507   5.338   9.518  10.197  0.7923 -0.6562 -0.5555
   88MOL0     O11508   5.257   9.630  10.226  0.4848 -0.4762 -0.0826
   88MOL0     C11509   5.166   9.625  10.331 -0.4717  0.3754  0.4305
   88MOL0     C11510   5.183   9.547  10.446  0.3251  0.9830 -0.2162
   88MOL0     C11511   5.076   9.542  10.545 -0.5290  0.5404 -1.3611
   88MOL0     C11512   4.960   9.624  10.527 -0.0155  0.1006 -1.2719
   88MOL0     C11513   4.860   9.615  10.631  0.6531 -0.0784  0.2603
   88MOL0     O11514   4.900   9.564  10.749  0.3517  0.2537 -0.3743
   88MOL0     C11515   4.804   9.525  10.832 -0.8009  0.3498 -0.1957
   88MOL0     C11516   4.755   9.392  10.822  0.3055  0.4365  0.1830
   88MOL0     C11517   4.655   9.343  10.907 -0.4056 -0.0255 -0.3926
   88MOL0     C11518   4.608   9.424  11.004  0.9544 -0.8427  0.7863
   88MOL0     O11519   4.517   9.367  11.084 -0.4274 -0.0528 -0.3078
   88MOL0     C11520   4.488   9.436  11.203 -0.0185  0.5282  0.2725
   88MOL0     C11521   4.374   9.354  11.273 -1.1574 -0.0867 -0.3757
   88MOL0     C11522   4.355   9.412  11.419  1.4706  0.2732  0.3800
   88MOL0     C11523   4.246   9.328  11.492 -0.8024  0.1747 -1.2408
   88MOL0     C11524   4.234   9.375  11.641  1.2441  0.0679 -0.6610
   88MOL0     C11525   4.091   9.337  11.691  0.1999  0.2561  0.0630
   88MOL0     C11526   4.066   9.369  11.835 -0.4812  0.3491  0.9855
   88MOL0     C11527   3.917   9.351  11.872 -0.9022 -0.4216  0.1805
   88MOL0    Cl11528   3.853   9.187  11.824  0.1546 -0.0185  0.1440
   88MOL0     C11529   4.657   9.559  11.018  0.2020  1.3762 -0.0593
   88MOL0     C11530   4.749   9.609  10.927  0.1166 -0.1059  0.7441
   88MOL0     O11531   4.745   9.651  10.596 -0.2848  0.1883  0.1318
   88MOL0     C11532   4.942   9.688  10.408 -0.7412  0.6152  0.6702
   88MOL0     C11533   5.048   9.694  10.314  0.3152 -0.4159  0.0654
   88MOL0     N11534   5.593   9.210  10.131 -0.0182 -0.1771  1.3604
   88MOL0     N11535   5.678   9.115  10.131  0.2141  0.0036 -0.9075
   88MOL0     C11536   6.667   8.800   9.457 -0.2294  0.3702 -0.6805
   88MOL0     C11537   6.788   8.756   9.394 -0.2079  0.6614 -0.9139
   88MOL0     C11538   7.237   8.832   9.299 -0.1105  0.2221 -0.2953
   88MOL0     C11539   7.363   8.891   9.334  0.6436  0.9604 -0.0683
   88MOL0     C11540   7.487   8.856   9.268 -0.0674 -0.3323 -0.8787
   88MOL0     C11541   7.490   8.774   9.158  0.0316  0.5800  0.1474
   88MOL0     O11542   7.596   8.731   9.085 -0.9088 -0.0864 -0.0873
   88MOL0     C11543   7.732   8.773   9.108 -0.6184 -0.0992 -0.2481
   88MOL0     C11544   7.763   8.922   9.098 -0.4076 -0.2490 -0.5984
   88MOL0     C11545   7.701   9.006   8.981 -0.3481  0.0402  0.1283
   88MOL0     C11546   7.724   9.162   8.995  0.2968 -0.3959 -0.9864
   88MOL0     C11547   7.603   9.213   9.067  0.1358 -0.6284  0.2060
   88MOL0     C11548   7.517   9.260   9.146 -0.0526 -0.0710  0.5203
   88MOL0     C11549   7.369   8.710   9.129  0.1729 -0.6031  0.4991
   88MOL0     C11550   7.242   8.746   9.185  0.0198  0.2584  0.0120
   88MOL0     H11551   6.912   9.045   9.278  1.3001  0.5176  0.8789
   88MOL0     H11552   6.680   9.135   9.386 -0.7466  0.9831 -1.2073
   88MOL0     H11553   6.455   9.116   9.390  0.9569  1.5210 -0.5587
   88MOL0     H11554   6.505   9.167   9.553 -1.3090  0.0962  0.0809
   88MOL0     H11555   6.263   9.013   9.469  1.9927  0.0409 -0.9902
   88MOL0     H11556   6.253   9.188   9.488  0.3452  1.5096  0.5212
   88MOL0     H11557   6.301   9.165   9.736 -1.4028 -0.4687  2.1820
   88MOL0     H11558   6.312   8.990   9.704  0.9790  0.3711 -0.8447
   88MOL0     H11559   6.070   9.174   9.650 -2.1957  1.2315  2.9281
   88MOL0     H11560   6.081   8.995   9.653  1.1207  1.9485 -1.8623
   88MOL0     H11561   6.082   9.205   9.887 -4.6806 -1.2758  1.0095
   88MOL0     H11562   6.173   9.066   9.907  1.1097  0.2553 -0.3080
   88MOL0     H11563   5.999   8.905   9.848 -2.5166 -0.0805 -0.6280
   88MOL0     H11564   5.878   9.019   9.842 -0.0372 -5.2730 -0.9989
   88MOL0     H11565   5.908   8.898  10.062  1.6115 -0.9985 -2.2555
   88MOL0     H11566   6.077   8.964  10.069  1.9881  0.6386 -2.9828
   88MOL0     H11567   5.994   9.187  10.100 -1.9440  2.7285  0.5842
   88MOL0     H11568   5.911   9.079  10.224  0.3097  0.1430 -0.8094
   88MOL0     H11569   5.867   9.339   9.985 -2.5640 -3.5522 -6.1522
   88MOL0     H11570   5.687   9.494   9.974 -1.4740  1.2723  0.4559
   88MOL0     H11571   5.613   9.519  10.126  1.7480 -0.5750  0.8489
   88MOL0     H11572   5.423   9.352   9.983  1.1977 -0.7034  2.9271
   88MOL0     H11573   5.474   9.483   9.874 -0.0468  2.7508  0.0044
   88MOL0     H11574   5.423   9.649  10.053  0.7446 -0.6463 -0.5403
   88MOL0     H11575   5.283   9.561   9.998  0.3593  1.7170 -1.1123
   88MOL0     H11576   5.428   9.503  10.256  1.5262  1.1354 -1.1538
   88MOL0     H11577   5.282   9.425  10.212  0.8615 -0.7875 -1.0883
   88MOL0     H11578   5.273   9.488  10.456 -0.8101 -0.6194  0.8847
   88MOL0     H11579   5.089   9.485  10.636  0.5483 -0.7668 -2.2889
   88MOL0     H11580   4.778   9.317  10.746  0.7016  2.9955 -2.4006
   88MOL0     H11581   4.613   9.245  10.889  3.1793 -1.6300 -0.7941
   88MOL0     H11582   4.448   9.537  11.188  1.1025  1.0271  0.5525
   88MOL0     H11583   4.570   9.444  11.274 -0.8221 -1.7229  1.5663
   88MOL0     H11584   4.418   9.256  11.293  0.7761  0.9810  0.9826
   88MOL0     H11585   4.288   9.359  11.207 -1.5051  5.4642  0.0047
   88MOL0     H11586   4.331   9.516  11.397  0.8863 -0.3911 -2.6061
   88MOL0     H11587   4.452   9.402  11.469  0.9808  2.3604  1.8699
   88MOL0     H11588   4.144   9.326  11.453 -1.5100  0.7138  0.5185
   88MOL0     H11589   4.279   9.224  11.496  1.7266  0.7868 -3.1252
   88MOL0     H11590   4.264   9.477  11.665 -0.6110 -0.0153  2.5896
   88MOL0     H11591   4.291   9.301  11.698  1.5233  2.4239  2.3472
   88MOL0     H11592   4.062   9.233  11.672 -1.1083  0.0450  2.7209
   88MOL0     H11593   4.015   9.388  11.631 -2.0124 -1.6159  1.1119
   88MOL0     H11594   4.138   9.310  11.892  0.3389  1.5189  1.1835
   88MOL0     H11595   4.089   9.471  11.865  1.1695  0.2267  0.2850
   88MOL0     H11596   3.853   9.424  11.823  2.4560  2.7842  0.0761
   88MOL0     H11597   3.915   9.357  11.981  1.3897 -3.0666  0.4871
   88MOL0     H11598   4.616   9.628  11.090  0.3959  1.5262 -0.0898
   88MOL0     H11599   4.780   9.712  10.938  1.4456 -0.4008 -0.0281
   88MOL0     H11600   4.858   9.754  10.390 -1.7267 -0.3135  1.6284
   88MOL0     H11601   5.042   9.753  10.222  0.0380 -4.0071 -2.4121
   88MOL0     H11602   6.595   8.733   9.503  1.1288 -1.1775 -0.7587
   88MOL0     H11603   6.827   8.655   9.383 -0.6557 -0.0762  2.8714
   88MOL0     H11604   7.364   8.965   9.413 -2.2904 -1.3973  2.4308
   88MOL0     H11605   7.575   8.906   9.307  0.4300 -0.5164 -1.7363
   88MOL0     H11606   7.797   8.713   9.044  1.3231 -0.9342  2.3170
   88MOL0     H11607   7.766   8.746   9.208 -1.7569  0.9652  0.4498
   88MOL0     H11608   7.740   8.979   9.188  0.0543  2.7718 -2.2743
   88MOL0     H11609   7.872   8.925   9.095 -0.3029 -0.5538  1.4150
   88MOL0     H11610   7.595   8.980   8.985  0.0577 -1.7009  3.9576
   88MOL0     H11611   7.753   8.966   8.893  0.2609 -0.8503  0.8661
   88MOL0     H11612   7.813   9.186   9.053 -2.4100  1.2162  2.9089
   88MOL0     H11613   7.729   9.194   8.890 -0.1964 -0.7835 -1.1320
   88MOL0     H11614   7.444   9.294   9.216 -0.5116  2.8921 -1.2041
   88MOL0     H11615   7.368   8.645   9.043 -0.1324  1.9614 -1.5775
   88MOL0     H11616   7.153   8.695   9.150 -1.6597  3.2918 -0.4551
   89MOL0     O11617   9.354  11.154   0.117 -0.1791 -0.5475 -0.3227
   89MOL0     C11618   9.411  11.261   0.146 -0.0418  0.3725 -0.3904
   89MOL0     O11619   9.408  11.371   0.073  0.8204  0.2084  0.6843
   89MOL0     C11620   9.314  11.367  -0.034 -0.4163 -0.7070 -0.8799
   89MOL0     C11621   9.357  11.396  -0.158  0.8305  0.0785 -0.9173
   89MOL0     C11622   9.260  11.396  -0.265  0.6047  0.0368 -0.4851
   89MOL0     C11623   9.123  11.369  -0.234  0.1864 -0.1768 -0.4307
   89MOL0     O11624   9.024  11.380  -0.332  0.1579 -0.2297 -0.4543
   89MOL0     C11625   8.879  11.347  -0.325 -1.0127  0.0714 -0.0411
   89MOL0     C11626   8.816  11.373  -0.458  1.1977 -0.7770 -0.0238
   89MOL0     C11627   8.672  11.416  -0.442 -0.5332 -0.0070  0.5813
   89MOL0     C11628   8.601  11.437  -0.572  0.2294  0.6465 -0.1204
   89MOL0     C11629   8.448  11.477  -0.566  0.1615 -0.1387 -0.4324
   89MOL0     C11630   8.365  11.436  -0.689  0.0973  0.0774 -0.7274
   89MOL0     C11631   8.358  11.541  -0.808  0.5051  0.9298 -0.1189
   89MOL0     C11632   8.255  11.649  -0.769  1.1441  0.0109  0.1556
   89MOL0     N11633   8.222  11.725  -0.895 -1.1853  0.2228  0.4183
   89MOL0     C11634   8.224  11.865  -0.915  0.2462  0.1144 -0.5534
   89MOL0     C11635   8.170  11.893  -1.036 -0.0044 -0.6459  0.2679
   89MOL0     C11636   8.162  12.026  -1.109 -1.5451  0.0872  0.0321
   89MOL0     C11637   8.026  12.068  -1.150  0.0728  0.0613 -0.1460
   89MOL0     C11638   7.960  12.140  -1.031  0.6129  0.4261 -0.5686
   89MOL0     C11639   7.822  12.182  -1.061  0.4079 -0.4677 -0.3276
   89MOL0     O11640   7.831  12.272  -1.170 -0.5451 -0.1369  0.2663
   89MOL0     C11641   7.708  12.303  -1.228 -0.7512  0.0267 -0.9812
   89MOL0     C11642   7.697  12.303  -1.363  0.1366 -0.4651 -0.5662
   89MOL0     C11643   7.576  12.345  -1.417  0.2207  0.0087  0.3508
   89MOL0     C11644   7.459  12.367  -1.339 -0.4608 -0.3582  0.0387
   89MOL0     C11645   7.330  12.412  -1.400 -0.5186  0.6356  0.6109
   89MOL0     O11646   7.234  12.419  -1.308 -0.4243 -0.6724  0.3707
   89MOL0     C11647   7.105  12.451  -1.336  0.8616  1.5562 -0.1782
   89MOL0     C11648   7.035  12.458  -1.455  0.0355  0.3665  0.0395
   89MOL0     C11649   6.894  12.480  -1.460 -0.3679 -1.2999  0.8429
   89MOL0     C11650   6.821  12.512  -1.338  0.1698  0.2325  0.0292
   89MOL0     O11651   6.690  12.542  -1.346  0.0918  0.1200  0.6080
   89MOL0     C11652   6.600  12.446  -1.288  0.0236 -0.3107  0.3470
   89MOL0     C11653   6.456  12.494  -1.268  0.3798 -0.8092 -0.3039
   89MOL0     C11654   6.409  12.553  -1.395 -0.5913 -0.9120 -0.2713
   89MOL0     C11655   6.254  12.589  -1.407 -0.0850  0.4462 -0.2985
   89MOL0     C11656   6.180  12.454  -1.396  0.3843 -0.1728 -0.3719
   89MOL0     C11657   6.036  12.472  -1.449  0.0072  0.6223  1.3009
   89MOL0     C11658   5.944  12.535  -1.339  0.5518 -0.1169  0.7984
   89MOL0     C11659   5.799  12.520  -1.393 -0.0256 -0.2656  0.2228
   89MOL0    Cl11660   5.698  12.598  -1.267 -0.4500 -0.0232 -0.0580
   89MOL0     C11661   6.902  12.517  -1.222  0.6195  0.7716  0.2952
   89MOL0     C11662   7.035  12.478  -1.219  0.4302  0.6024  0.2526
   89MOL0     O11663   7.328  12.464  -1.512 -0.2441 -0.3334  0.0361
   89MOL0     C11664   7.479  12.364  -1.199 -0.2239  0.3030  0.5371
   89MOL0     C11665   7.598  12.344  -1.148 -0.2793 -0.0405 -0.2924
   89MOL0     N11666   8.144  11.767  -1.091 -0.1650  0.0076 -0.6396
   89MOL0     N11667   8.169  11.671  -1.010 -0.8884  0.3769  0.0677
   89MOL0     C11668   9.082  11.346  -0.106 -0.3277  0.1396  0.2056
   89MOL0     C11669   9.174  11.351  -0.004 -0.0111 -1.3439 -0.4837
   89MOL0     C11670   9.495  11.267   0.263  0.1140  0.2181  0.6895
   89MOL0     C11671   9.535  11.388   0.320 -0.5661  1.0124  0.1258
   89MOL0     C11672   9.616  11.380   0.439  0.2174  0.0612 -0.0555
   89MOL0     C11673   9.663  11.257   0.489  0.3534  0.2440 -0.0551
   89MOL0     O11674   9.733  11.271   0.607 -0.5382  0.0759  0.7327
   89MOL0     C11675   9.818  11.163   0.658 -0.5856  0.1747 -0.0629
   89MOL0     C11676   9.919  11.210   0.762  0.4934 -1.0285 -1.0405
   89MOL0     C11677   9.865  11.240   0.904  0.5805  0.1141 -0.7014
   89MOL0     C11678   9.759  11.140   0.961 -0.2184  0.3263  0.4610
   89MOL0     C11679   9.628  11.191   0.938 -0.0455 -0.1740 -0.3716
   89MOL0     C11680   9.517  11.242   0.919 -0.1252 -0.1395 -0.3083
   89MOL0     C11681   9.626  11.135   0.430  0.1099 -0.5218 -0.2979
   89MOL0     C11682   9.544  11.132   0.324 -0.1357 -0.7503  0.3737
   89MOL0     H11683   9.462  11.401  -0.185  0.9418 -2.6599 -1.2307
   89MOL0     H11684   9.284  11.409  -0.370  1.3876  1.9422 -0.1200
   89MOL0     H11685   8.840  11.404  -0.240  4.6497 -0.3306  3.3098
   89MOL0     H11686   8.861  11.240  -0.311  0.3548  0.0778  2.3334
   89MOL0     H11687   8.828  11.287  -0.524 -0.9685 -0.9979 -0.1952
   89MOL0     H11688   8.878  11.449  -0.507  0.7421  1.0794  2.0914
   89MOL0     H11689   8.654  11.497  -0.371 -1.9713  0.1987  0.0240
   89MOL0     H11690   8.614  11.336  -0.395 -4.5631 -1.2118 -5.3180
   89MOL0     H11691   8.652  11.504  -0.642 -1.0700 -0.7995 -2.5899
   89MOL0     H11692   8.597  11.334  -0.609  3.0770 -0.2830  1.8474
   89MOL0     H11693   8.444  11.584  -0.545 -0.1550 -0.7689  3.3421
   89MOL0     H11694   8.393  11.423  -0.489  0.1041  0.2372 -0.2100
   89MOL0     H11695   8.263  11.419  -0.654 -0.6688  3.9860 -0.5935
   89MOL0     H11696   8.400  11.340  -0.728 -0.3715  0.2198 -1.5289
   89MOL0     H11697   8.455  11.583  -0.836  0.0692  3.1835  1.4563
   89MOL0     H11698   8.315  11.484  -0.890 -4.2448  0.2230  2.4919
   89MOL0     H11699   8.298  11.724  -0.701 -2.9828  3.2078 -0.3304
   89MOL0     H11700   8.166  11.611  -0.719 -0.2719 -0.5590 -2.6153
   89MOL0     H11701   8.269  11.947  -0.860  0.5467 -0.3715 -0.0627
   89MOL0     H11702   8.219  12.028  -1.202 -1.4370  2.9336  0.0987
   89MOL0     H11703   8.203  12.107  -1.048  1.4801 -1.8125  0.7375
   89MOL0     H11704   7.980  11.971  -1.170  0.3502  0.2270 -1.6867
   89MOL0     H11705   8.019  12.127  -1.242 -1.4267  1.9010  1.0591
   89MOL0     H11706   7.955  12.076  -0.943  0.7090 -0.1418 -0.9690
   89MOL0     H11707   8.015  12.230  -1.003 -3.1642  2.5770  0.6176
   89MOL0     H11708   7.780  12.231  -0.973 -0.5522 -0.6206 -0.6948
   89MOL0     H11709   7.761  12.097  -1.093 -0.8745  0.8036 -1.3735
   89MOL0     H11710   7.794  12.292  -1.412  0.5760 -2.4267  0.6344
   89MOL0     H11711   7.568  12.367  -1.523  0.6876  1.5668  0.6191
   89MOL0     H11712   7.074  12.434  -1.554 -0.3710 -1.0843  0.2051
   89MOL0     H11713   6.837  12.478  -1.553  3.2160  0.9315 -1.6572
   89MOL0     H11714   6.640  12.421  -1.189 -0.8952  1.1102  1.1136
   89MOL0     H11715   6.588  12.364  -1.359  1.3529  1.1486 -1.6947
   89MOL0     H11716   6.444  12.576  -1.197  0.7254 -0.3799 -0.7272
   89MOL0     H11717   6.390  12.412  -1.240 -0.8951  0.4516  0.4495
   89MOL0     H11718   6.429  12.488  -1.481 -0.6303 -1.9626  0.5109
   89MOL0     H11719   6.461  12.649  -1.408  0.4347 -1.5955 -1.4015
   89MOL0     H11720   6.224  12.635  -1.312  2.8840  0.4167  0.7712
   89MOL0     H11721   6.237  12.644  -1.500 -0.1965 -0.9612 -1.1294
   89MOL0     H11722   6.185  12.408  -1.297  0.5972 -0.5853 -0.5722
   89MOL0     H11723   6.231  12.386  -1.466  0.7973  2.4395 -2.7911
   89MOL0     H11724   5.999  12.378  -1.491 -1.3963  0.0217  3.7088
   89MOL0     H11725   6.051  12.534  -1.538  1.2436  0.0119  1.0504
   89MOL0     H11726   5.974  12.480  -1.250  1.7786  1.8621  1.6763
   89MOL0     H11727   5.971  12.641  -1.334  0.1445  0.0377 -0.0343
   89MOL0     H11728   5.771  12.415  -1.398 -3.9848  0.5189  2.1746
   89MOL0     H11729   5.795  12.571  -1.490  2.6218 -0.9935 -0.3511
   89MOL0     H11730   6.845  12.544  -1.133 -2.4032  0.1182 -1.3204
   89MOL0     H11731   7.087  12.453  -1.128  2.7747 -3.0526 -1.8379
   89MOL0     H11732   7.394  12.370  -1.131 -1.4312  0.0992 -0.8836
   89MOL0     H11733   7.601  12.341  -1.040  0.0576 -1.3518 -0.3207
   89MOL0     H11734   8.977  11.339  -0.078 -0.7613  3.2548 -0.3422
   89MOL0     H11735   9.135  11.333   0.096  1.1184  1.1088  0.4933
   89MOL0     H11736   9.503  11.485   0.285 -1.8349  0.0527 -1.5086
   89MOL0     H11737   9.625  11.464   0.508 -0.3274 -0.4772  0.6857
   89MOL0     H11738   9.875  11.127   0.572  0.7567  5.6270 -1.8641
   89MOL0     H11739   9.756  11.085   0.705 -0.1801  0.0957  0.3457
   89MOL0     H11740   9.995  11.134   0.782  1.7988  0.6874  1.0317
   89MOL0     H11741   9.963  11.304   0.726  1.8204 -2.0390 -2.2042
   89MOL0     H11742   9.819  11.339   0.913  1.5645  0.4062  3.0922
   89MOL0     H11743   9.947  11.242   0.977  0.9370  1.3067 -1.1076
   89MOL0     H11744   9.766  11.043   0.912 -0.7876  0.1120  0.8012
   89MOL0     H11745   9.762  11.127   1.070 -0.3703 -3.4854  0.1337
   89MOL0     H11746   9.426  11.295   0.898  1.3084  1.3200 -3.3911
   89MOL0     H11747   9.655  11.043   0.478  1.0079  0.2686  0.7214
   89MOL0     H11748   9.511  11.040   0.276 -0.4456  0.6170 -2.2046
   90MOL0     O11749   4.609   6.745  11.321  0.3116 -1.0985  0.0514
   90MOL0     C11750   4.681   6.818  11.390  0.1788  0.9489  0.7750
   90MOL0     O11751   4.646   6.911  11.481 -0.3525 -0.4324 -0.0777
   90MOL0     C11752   4.519   6.941  11.501  0.3262  0.1935 -0.9303
   90MOL0     C11753   4.490   7.006  11.625  0.2011 -0.1415  0.7919
   90MOL0     C11754   4.360   7.056  11.653 -0.8224  0.3030 -0.5736
   90MOL0     C11755   4.253   7.032  11.566 -0.4002  0.6965  0.7561
   90MOL0     O11756   4.118   7.067  11.584  0.2640 -0.2474  0.1254
   90MOL0     C11757   4.082   7.108  11.714 -0.1521  0.2796 -0.1220
   90MOL0     C11758   3.930   7.118  11.738 -0.0410 -0.4268 -0.7397
   90MOL0     C11759   3.902   7.162  11.884  0.0910  1.2536  0.5579
   90MOL0     C11760   3.761   7.234  11.872 -0.1315  0.2110 -0.4604
   90MOL0     C11761   3.683   7.259  11.997 -0.4621  0.2293  0.0624
   90MOL0     C11762   3.751   7.364  12.083 -0.8306 -0.0531 -0.3254
   90MOL0     C11763   3.645   7.443  12.164  0.3183 -0.0632 -0.0954
   90MOL0     C11764   3.713   7.528  12.272 -0.5027 -0.4511 -0.1428
   90MOL0     N11765   3.624   7.634  12.327 -0.2868  0.3657  0.1086
   90MOL0     C11766   3.518   7.614  12.403 -1.0908  0.1218 -1.1957
   90MOL0     C11767   3.469   7.742  12.426  0.1838 -0.2793  0.5364
   90MOL0     C11768   3.340   7.770  12.499 -0.1674 -0.3923  0.1796
   90MOL0     C11769   3.230   7.815  12.400 -0.2446  0.4117  0.2624
   90MOL0     C11770   3.130   7.906  12.475 -0.9275  0.3067  0.1660
   90MOL0     C11771   3.002   7.929  12.387 -0.3923 -0.1257  0.0461
   90MOL0     O11772   2.909   7.832  12.426  0.0335  0.1953  1.3875
   90MOL0     C11773   2.792   7.838  12.357  0.2474 -0.1094 -0.5195
   90MOL0     C11774   2.703   7.741  12.400  0.0719  0.2259  0.5146
   90MOL0     C11775   2.577   7.726  12.337 -0.3645  0.1272 -0.7507
   90MOL0     C11776   2.536   7.815  12.243  0.2073 -0.3890 -0.1639
   90MOL0     C11777   2.398   7.813  12.182  0.5943 -0.3075  0.3108
   90MOL0     O11778   2.301   7.728  12.230  0.1180  0.3346  0.3683
   90MOL0     C11779   2.169   7.747  12.191 -0.4569 -0.3251 -0.2568
   90MOL0     C11780   2.083   7.775  12.295 -0.1240  0.0766  1.3649
   90MOL0     C11781   1.941   7.798  12.272 -0.1017  0.4340 -0.0572
   90MOL0     C11782   1.893   7.782  12.146  0.4547 -0.7017 -0.1873
   90MOL0     O11783   1.761   7.789  12.113 -0.4571 -0.5240 -0.2327
   90MOL0     C11784   1.740   7.919  12.057  0.4655  0.3007 -0.4667
   90MOL0     C11785   1.614   7.921  11.969  0.4725 -1.0923 -0.3004
   90MOL0     C11786   1.542   8.063  11.971 -0.4182 -0.2227  0.7472
   90MOL0     C11787   1.455   8.070  11.845  0.0928  0.4525 -0.3223
   90MOL0     C11788   1.348   8.180  11.862 -0.9989  0.1884 -0.0616
   90MOL0     C11789   1.284   8.203  11.734  0.5165 -0.2753  0.1658
   90MOL0     C11790   1.182   8.322  11.759 -0.0234  0.0139  0.2800
   90MOL0     C11791   1.125   8.357  11.621  0.4513  0.3832  0.0834
   90MOL0    Cl11792   1.013   8.229  11.566 -0.3003 -0.4523  0.0079
   90MOL0     C11793   1.981   7.760  12.039 -0.4103  0.1381 -0.3867
   90MOL0     C11794   2.116   7.744  12.059 -0.0095 -0.4451 -0.3333
   90MOL0     O11795   2.380   7.895  12.097  0.7370 -0.8799 -0.2045
   90MOL0     C11796   2.630   7.912  12.205  0.3340  0.1351  0.3425
   90MOL0     C11797   2.756   7.931  12.263  0.3134  0.4306  0.0225
   90MOL0     N11798   3.553   7.841  12.376  0.0061  0.1617 -0.1100
   90MOL0     N11799   3.656   7.763  12.336  0.9202 -0.4061  0.3779
   90MOL0     C11800   4.281   6.967  11.448 -0.2392  1.3770  0.7350
   90MOL0     C11801   4.413   6.924  11.414 -0.4271 -0.1259  0.2375
   90MOL0     C11802   4.821   6.805  11.352 -1.3360  0.3222  0.3703
   90MOL0     C11803   4.913   6.849  11.443  0.4050 -0.9537 -0.0294
   90MOL0     C11804   5.048   6.849  11.407 -0.0244  0.1749  0.1423
   90MOL0     C11805   5.094   6.798  11.290  0.5915  0.3942  0.0362
   90MOL0     O11806   5.231   6.805  11.262  0.6026 -0.2105 -0.0647
   90MOL0     C11807   5.279   6.692  11.185  0.0976 -0.8032  0.7552
   90MOL0     C11808   5.428   6.671  11.236  1.1488  0.0476  0.1956
   90MOL0     C11809   5.504   6.574  11.150  0.2634 -0.7254  0.7622
   90MOL0     C11810   5.637   6.550  11.221 -0.1757  0.4619 -0.2008
   90MOL0     C11811   5.719   6.437  11.178 -0.0528  0.1656  1.0350
   90MOL0     C11812   5.792   6.343  11.148  0.4230  0.1605 -0.4238
   90MOL0     C11813   4.997   6.751  11.202 -1.1903  0.7416 -0.7548
   90MOL0     C11814   4.864   6.760  11.228 -0.5813 -1.3748  0.1170
   90MOL0     H11815   4.561   7.027  11.705  0.8901 -0.9191  0.4017
   90MOL0     H11816   4.345   7.109  11.746  1.3110  1.0544 -0.5856
   90MOL0     H11817   4.132   7.202  11.741 -0.8817  0.2627  1.3397
   90MOL0     H11818   4.124   7.036  11.784  0.1000  0.0690 -0.4837
   90MOL0     H11819   3.880   7.022  11.719 -2.8267 -0.1036  3.6148
   90MOL0     H11820   3.901   7.187  11.657  0.9161  0.9261  0.0255
   90MOL0     H11821   3.989   7.220  11.915  0.1682  2.0639 -1.1153
   90MOL0     H11822   3.899   7.072  11.947 -0.8529  0.1570 -0.9809
   90MOL0     H11823   3.783   7.327  11.820 -1.8252  0.7792 -0.2313
   90MOL0     H11824   3.700   7.179  11.799 -0.4525  1.4465 -1.1445
   90MOL0     H11825   3.674   7.168  12.056  1.3791  0.3016  0.5067
   90MOL0     H11826   3.587   7.308  11.979 -0.3237  0.5916  0.2961
   90MOL0     H11827   3.803   7.437  12.020 -1.0733  0.4020 -0.0072
   90MOL0     H11828   3.815   7.312  12.155  0.0340  0.5965 -0.6109
   90MOL0     H11829   3.587   7.508  12.098  0.4006  1.2989  1.1226
   90MOL0     H11830   3.581   7.369  12.214  0.1412  0.9966  1.3192
   90MOL0     H11831   3.800   7.578  12.227 -0.6458  1.5139  1.5867
   90MOL0     H11832   3.745   7.458  12.350  0.6801 -0.2165 -0.3994
   90MOL0     H11833   3.482   7.518  12.440 -0.4621  0.1558 -0.4609
   90MOL0     H11834   3.368   7.835  12.582 -2.9200  3.1587 -1.4113
   90MOL0     H11835   3.292   7.683  12.544 -1.3008  0.0619 -0.1237
   90MOL0     H11836   3.177   7.730  12.357  2.4013 -3.0664  3.2376
   90MOL0     H11837   3.283   7.866  12.319  1.0973  2.8452  2.5185
   90MOL0     H11838   3.099   7.875  12.575 -1.6891  0.4305 -0.0236
   90MOL0     H11839   3.168   8.007  12.491  0.0571  0.4720 -2.6369
   90MOL0     H11840   3.025   7.918  12.280 -0.6712 -1.7415  0.1149
   90MOL0     H11841   2.975   8.033  12.406  0.0310  0.3762 -1.8306
   90MOL0     H11842   2.734   7.662  12.468 -1.6266 -1.9553 -1.0461
   90MOL0     H11843   2.510   7.647  12.371 -3.0985  1.0477 -3.5859
   90MOL0     H11844   2.126   7.768  12.394 -0.3770 -2.5571  1.3647
   90MOL0     H11845   1.879   7.824  12.357  0.2473  0.0439  0.3196
   90MOL0     H11846   1.824   7.957  11.998  2.9186 -0.1861  2.4804
   90MOL0     H11847   1.732   7.991  12.139 -0.1479  1.3224 -1.3838
   90MOL0     H11848   1.546   7.845  12.008  2.6080 -2.3556  1.1560
   90MOL0     H11849   1.645   7.897  11.866 -0.7478 -1.3123 -0.6247
   90MOL0     H11850   1.615   8.143  11.972  0.9736 -1.4013 -0.5382
   90MOL0     H11851   1.487   8.065  12.065  2.0873  1.2526  2.2695
   90MOL0     H11852   1.524   8.098  11.765  2.3114  0.9700  1.6519
   90MOL0     H11853   1.401   7.978  11.820 -1.3561  1.6215 -1.7345
   90MOL0     H11854   1.402   8.272  11.884  2.9739 -1.3956 -2.0912
   90MOL0     H11855   1.279   8.169  11.946  1.3522  0.7477  2.0582
   90MOL0     H11856   1.233   8.110  11.705  0.4597 -0.4230  0.7387
   90MOL0     H11857   1.359   8.229  11.658  2.0935 -0.5163  1.5721
   90MOL0     H11858   1.104   8.283  11.825  1.2709  0.3397  2.1086
   90MOL0     H11859   1.234   8.411  11.798  1.3129 -1.1415  1.2745
   90MOL0     H11860   1.216   8.358  11.560  1.5180  0.5956  1.6143
   90MOL0     H11861   1.076   8.455  11.633 -0.2998  0.5275 -3.2082
   90MOL0     H11862   1.942   7.750  11.938 -2.8672  2.3203  0.2449
   90MOL0     H11863   2.183   7.731  11.974 -0.0297  0.9650 -0.6007
   90MOL0     H11864   2.611   7.975  12.119  1.6170 -0.0884 -0.1333
   90MOL0     H11865   2.822   8.009  12.226  0.4616  1.2389  1.9055
   90MOL0     H11866   4.199   6.945  11.380  0.6226 -2.9397  0.7755
   90MOL0     H11867   4.424   6.876  11.317 -1.1659 -4.1245  1.9130
   90MOL0     H11868   4.887   6.886  11.542 -1.0003 -0.8096 -0.4343
   90MOL0     H11869   5.121   6.909  11.460  0.3959  1.2111 -1.5511
   90MOL0     H11870   5.280   6.727  11.081 -1.1225  1.3874  1.4178
   90MOL0     H11871   5.220   6.600  11.190 -1.2923 -0.2915 -2.8234
   90MOL0     H11872   5.479   6.768  11.231 -2.4155  2.2028  1.4716
   90MOL0     H11873   5.413   6.629  11.335 -2.1537 -0.9900 -0.6148
   90MOL0     H11874   5.519   6.621  11.053  0.3803  1.3583  1.7438
   90MOL0     H11875   5.447   6.482  11.134 -0.3092 -0.2409 -0.0980
   90MOL0     H11876   5.705   6.634  11.202  4.6736 -3.2650 -1.2913
   90MOL0     H11877   5.611   6.533  11.326 -0.7318 -2.3536 -0.7158
   90MOL0     H11878   5.840   6.257  11.106 -2.3798 -1.5992 -0.3121
   90MOL0     H11879   5.022   6.716  11.102 -1.0693  2.5504 -1.3843
   90MOL0     H11880   4.793   6.731  11.151 -0.0446  0.7959 -1.2516
   91MOL0     O11881   6.673   4.940   3.097 -0.7225 -0.8758 -0.3241
   91MOL0     C11882   6.713   4.832   3.082  1.4232  0.6014 -0.5188
   91MOL0     O11883   6.642   4.715   3.036  0.2108 -0.1912 -0.5861
   91MOL0     C11884   6.513   4.723   3.006  0.3211  0.0913  0.1635
   91MOL0     C11885   6.413   4.770   3.096  1.0312 -0.4331 -0.2671
   91MOL0     C11886   6.283   4.792   3.052 -0.8556 -0.1518 -0.1436
   91MOL0     C11887   6.246   4.756   2.921  0.0077 -0.1951 -0.3791
   91MOL0     O11888   6.127   4.765   2.860  0.3345  0.0246  0.4475
   91MOL0     C11889   6.001   4.796   2.919  0.1493 -0.2558  0.4459
   91MOL0     C11890   5.947   4.676   2.986 -0.1693 -0.2334 -0.1209
   91MOL0     C11891   5.832   4.716   3.080 -0.3883 -0.2452  0.1502
   91MOL0     C11892   5.750   4.600   3.123  0.5895  0.2840  0.4150
   91MOL0     C11893   5.618   4.643   3.191  0.0526 -0.2776 -0.4083
   91MOL0     C11894   5.512   4.536   3.188 -0.9651  0.2648  0.0422
   91MOL0     C11895   5.401   4.566   3.291  0.3029  0.6243 -0.4560
   91MOL0     C11896   5.326   4.439   3.321  1.0878 -0.7908 -0.0789
   91MOL0     N11897   5.202   4.412   3.248 -0.1691 -0.2349  0.3385
   91MOL0     C11898   5.090   4.474   3.279 -0.3418 -0.2994 -0.4550
   91MOL0     C11899   5.001   4.436   3.181 -0.1573  0.6203 -0.4677
   91MOL0     C11900   4.851   4.468   3.167  0.5367  0.7246  0.3930
   91MOL0     C11901   4.755   4.378   3.246 -0.3817 -0.2526  0.0780
   91MOL0     C11902   4.752   4.423   3.391  0.1328  0.2794  0.0770
   91MOL0     C11903   4.629   4.351   3.469  0.0267  0.6623  0.0192
   91MOL0     O11904   4.624   4.211   3.432 -0.7132  0.1407 -0.4919
   91MOL0     C11905   4.513   4.151   3.472 -0.3041 -0.2084  0.1943
   91MOL0     C11906   4.420   4.195   3.562  0.1774  0.1267  0.4207
   91MOL0     C11907   4.301   4.121   3.579 -0.6476  0.1533  0.7941
   91MOL0     C11908   4.275   4.011   3.494  0.0678 -0.2376  0.0129
   91MOL0     C11909   4.145   3.933   3.506 -0.7240 -0.0418 -0.8247
   91MOL0     O11910   4.135   3.823   3.421  0.2525 -0.9648 -1.1973
   91MOL0     C11911   4.023   3.741   3.449  0.5930 -0.7228 -0.0930
   91MOL0     C11912   3.930   3.713   3.344 -0.2069 -0.4277  0.2161
   91MOL0     C11913   3.815   3.634   3.363  0.1739 -0.7378 -0.0415
   91MOL0     C11914   3.786   3.588   3.488  1.2548 -1.2352 -0.5522
   91MOL0     O11915   3.675   3.517   3.507  0.4588 -0.2583 -0.0485
   91MOL0     C11916   3.634   3.436   3.400  0.2261 -0.7176 -1.3159
   91MOL0     C11917   3.543   3.318   3.463 -0.0928  0.5414 -0.2203
   91MOL0     C11918   3.397   3.359   3.473  0.3076  0.1904  1.1337
   91MOL0     C11919   3.316   3.235   3.517  0.4409 -0.1670 -0.1121
   91MOL0     C11920   3.170   3.270   3.550 -0.0651 -0.6872 -0.0315
   91MOL0     C11921   3.097   3.141   3.589 -0.2473  0.5590 -0.2538
   91MOL0     C11922   3.167   3.070   3.701 -0.0105  0.3064 -0.9463
   91MOL0     C11923   3.082   3.050   3.831 -1.1450  0.2329  0.1656
   91MOL0    Cl11924   2.922   2.975   3.798  0.1460 -0.4705  0.1837
   91MOL0     C11925   3.864   3.610   3.592 -0.0636  0.5062  0.0695
   91MOL0     C11926   3.982   3.685   3.577  0.8159 -0.2337 -0.0165
   91MOL0     O11927   4.069   3.965   3.597 -0.4807  0.8873 -0.6217
   91MOL0     C11928   4.370   3.975   3.400  0.0705 -0.6161 -0.3697
   91MOL0     C11929   4.482   4.044   3.393 -0.3429 -0.3887 -0.1867
   91MOL0     N11930   5.071   4.354   3.096 -1.2319  0.1329 -0.7649
   91MOL0     N11931   5.192   4.344   3.133  0.1936  0.3882 -0.4637
   91MOL0     C11932   6.342   4.698   2.833  0.5390 -0.7176  0.5318
   91MOL0     C11933   6.468   4.688   2.877  0.3014  0.4015  0.2676
   91MOL0     C11934   6.860   4.808   3.097 -0.1352 -0.9034  0.8467
   91MOL0     C11935   6.943   4.922   3.120  0.6726  0.0046  0.1578
   91MOL0     C11936   7.081   4.911   3.138 -0.3522 -0.0169 -0.3053
   91MOL0     C11937   7.144   4.785   3.135 -0.9062 -0.0011 -0.1783
   91MOL0     O11938   7.284   4.780   3.138  0.0063 -0.1404  0.0770
   91MOL0     C11939   7.350   4.855   3.247 -0.9285 -0.2791  0.6734
   91MOL0     C11940   7.444   4.753   3.337  0.2102  0.5787  0.4632
   91MOL0     C11941   7.596   4.747   3.314 -0.7779  0.1465 -0.3082
   91MOL0     C11942   7.619   4.630   3.221 -0.5932  0.8484 -0.8607
   91MOL0     C11943   7.751   4.636   3.160  0.4984 -0.6923 -0.3789
   91MOL0     C11944   7.862   4.643   3.115 -0.5408  0.4355 -0.9128
   91MOL0     C11945   7.066   4.666   3.104 -0.0355 -0.3975  0.0698
   91MOL0     C11946   6.925   4.684   3.087  0.2687 -0.1043  0.6894
   91MOL0     H11947   6.430   4.786   3.202 -1.7715  0.1168  0.1922
   91MOL0     H11948   6.201   4.837   3.108  1.9834  4.8380  0.5766
   91MOL0     H11949   5.927   4.837   2.849  0.4048 -0.7778 -0.1382
   91MOL0     H11950   6.010   4.870   2.999  1.3600 -1.0535  1.0710
   91MOL0     H11951   6.027   4.630   3.046 -0.9130 -0.9647  0.3164
   91MOL0     H11952   5.919   4.607   2.906  0.7334  3.2640 -3.7901
   91MOL0     H11953   5.765   4.787   3.030  0.1923 -0.5118 -1.0328
   91MOL0     H11954   5.865   4.763   3.173 -0.0840 -1.9890  0.9701
   91MOL0     H11955   5.731   4.539   3.034 -0.0059  1.0642 -0.0070
   91MOL0     H11956   5.810   4.546   3.196 -1.2268 -2.7839 -0.1686
   91MOL0     H11957   5.566   4.728   3.145 -0.8247 -1.4521 -1.6875
   91MOL0     H11958   5.658   4.679   3.286 -0.2573 -1.6091  0.2459
   91MOL0     H11959   5.549   4.434   3.203 -1.4770 -0.5209 -3.2459
   91MOL0     H11960   5.472   4.531   3.086  2.5981 -1.0028 -1.4835
   91MOL0     H11961   5.452   4.606   3.379 -1.7791  2.1994  0.0940
   91MOL0     H11962   5.330   4.643   3.259  3.2115  4.0327  0.6692
   91MOL0     H11963   5.301   4.448   3.428  0.8901  2.1903 -0.2870
   91MOL0     H11964   5.399   4.358   3.327  1.6481 -0.3258 -0.4908
   91MOL0     H11965   5.084   4.547   3.359  0.2520  0.2514 -0.9077
   91MOL0     H11966   4.833   4.454   3.060  2.5731  0.3815  0.0379
   91MOL0     H11967   4.833   4.572   3.195 -3.8972  0.4892 -0.9269
   91MOL0     H11968   4.799   4.279   3.254  0.4862  0.1448  0.3580
   91MOL0     H11969   4.660   4.374   3.192 -1.0580  1.2675  1.0768
   91MOL0     H11970   4.847   4.394   3.436  0.2503  2.2264  1.2043
   91MOL0     H11971   4.730   4.529   3.407  0.2163 -0.0538  2.7580
   91MOL0     H11972   4.546   4.415   3.438 -0.1047  0.8493  0.7415
   91MOL0     H11973   4.633   4.357   3.578 -1.0885 -0.2582  0.1275
   91MOL0     H11974   4.440   4.284   3.621 -3.8652  1.3762  0.2254
   91MOL0     H11975   4.231   4.144   3.659 -2.7441  2.0953 -1.4241
   91MOL0     H11976   3.945   3.763   3.249 -3.3981  0.9333  0.2942
   91MOL0     H11977   3.750   3.632   3.276  1.2784  2.0251 -1.0453
   91MOL0     H11978   3.714   3.394   3.338  1.9169  1.6979 -0.9200
   91MOL0     H11979   3.568   3.495   3.336  1.2420 -1.2945 -2.9562
   91MOL0     H11980   3.587   3.279   3.555 -1.9580  3.9380  2.3386
   91MOL0     H11981   3.554   3.243   3.384 -1.1952  1.1889 -1.0275
   91MOL0     H11982   3.359   3.380   3.373 -1.0467 -1.8896  1.1545
   91MOL0     H11983   3.368   3.449   3.527 -0.8696  1.4368 -1.3860
   91MOL0     H11984   3.324   3.149   3.449 -1.0924 -2.1029  2.0098
   91MOL0     H11985   3.370   3.201   3.606 -0.2160 -1.3610 -0.1436
   91MOL0     H11986   3.127   3.317   3.461 -3.7597 -0.8389  1.4618
   91MOL0     H11987   3.156   3.348   3.626  0.7752  0.3189 -0.8894
   91MOL0     H11988   3.100   3.067   3.508  2.3163  0.6440 -0.3169
   91MOL0     H11989   2.992   3.166   3.607 -0.7263  0.1604 -2.1849
   91MOL0     H11990   3.212   2.976   3.669  0.8344  0.4597 -0.2547
   91MOL0     H11991   3.251   3.127   3.741 -1.0327  0.2977  1.4415
   91MOL0     H11992   3.066   3.141   3.889  0.9465 -0.1741  1.4697
   91MOL0     H11993   3.146   2.979   3.885  0.0520  0.8703 -0.3874
   91MOL0     H11994   3.836   3.554   3.681 -3.6297  1.4256 -0.3171
   91MOL0     H11995   4.053   3.691   3.659 -3.2623 -0.8729  3.9483
   91MOL0     H11996   4.363   3.888   3.336 -0.2960 -0.5213 -0.4616
   91MOL0     H11997   4.559   4.018   3.321  1.3822 -3.4329  2.4885
   91MOL0     H11998   6.314   4.666   2.734 -0.8293 -0.2884  0.7650
   91MOL0     H11999   6.534   4.630   2.813 -0.5199 -2.5403  1.9085
   91MOL0     H12000   6.893   5.018   3.122 -0.2335 -0.3984 -1.3913
   91MOL0     H12001   7.138   5.004   3.145  1.2179 -1.0481  1.6429
   91MOL0     H12002   7.281   4.907   3.314 -1.2078 -0.5544  0.6032
   91MOL0     H12003   7.401   4.935   3.192 -1.9746 -2.4225 -3.8640
   91MOL0     H12004   7.429   4.804   3.433 -3.5141  0.1198  0.2600
   91MOL0     H12005   7.409   4.650   3.339  2.1355 -0.1254  3.0016
   91MOL0     H12006   7.650   4.725   3.406 -2.0026 -1.3029  0.1160
   91MOL0     H12007   7.624   4.842   3.269  1.3308 -0.0501  0.4804
   91MOL0     H12008   7.607   4.542   3.284 -1.9597  0.3580 -1.7523
   91MOL0     H12009   7.545   4.626   3.141 -1.2723 -1.6331 -0.2049
   91MOL0     H12010   7.957   4.629   3.069 -0.4839 -0.0960 -0.6394
   91MOL0     H12011   7.116   4.570   3.092  0.5166 -0.0804 -0.2243
   91MOL0     H12012   6.861   4.603   3.052 -1.0338  1.4278 -0.6113
   92MOL0     O12013   7.031   6.733   5.874 -0.2385  0.4900 -0.3622
   92MOL0     C12014   7.096   6.814   5.943 -0.2787 -0.3052  0.0331
   92MOL0     O12015   7.048   6.887   6.058  0.0982 -0.6490 -0.0052
   92MOL0     C12016   6.926   6.866   6.120  0.1658 -0.5007 -0.7395
   92MOL0     C12017   6.828   6.783   6.086  0.0950 -0.0415  0.2792
   92MOL0     C12018   6.722   6.766   6.178 -0.2720  0.3239 -0.0656
   92MOL0     C12019   6.718   6.835   6.299 -0.2514 -0.0735 -0.1307
   92MOL0     O12020   6.623   6.826   6.396  0.8016  0.5496 -0.0263
   92MOL0     C12021   6.495   6.776   6.365  0.1127 -0.3689 -0.6462
   92MOL0     C12022   6.387   6.801   6.480 -0.4645 -0.1773  0.8900
   92MOL0     C12023   6.258   6.734   6.437  0.2284  0.5467 -0.2888
   92MOL0     C12024   6.149   6.753   6.551 -1.4731 -0.0886  0.0309
   92MOL0     C12025   6.015   6.699   6.501  0.0792 -0.2820 -1.3237
   92MOL0     C12026   5.995   6.559   6.568 -0.1022 -0.5492  0.3948
   92MOL0     C12027   5.853   6.514   6.519 -1.0854  0.2749 -0.3329
   92MOL0     C12028   5.815   6.398   6.602 -1.0459  1.5408 -0.7224
   92MOL0     N12029   5.677   6.357   6.566 -0.1345 -0.3188  0.4377
   92MOL0     C12030   5.566   6.375   6.641  0.8463  0.7502  0.1220
   92MOL0     C12031   5.468   6.301   6.567  0.2357 -0.6290  0.0726
   92MOL0     C12032   5.330   6.273   6.604 -0.2181  0.9393  0.5175
   92MOL0     C12033   5.328   6.174   6.714 -0.7130  0.3508  0.3324
   92MOL0     C12034   5.206   6.077   6.720  0.2512 -0.6467  0.4378
   92MOL0     C12035   5.140   6.068   6.855 -0.4405  0.5101 -0.0970
   92MOL0     O12036   5.069   6.194   6.878  0.1777 -0.0245 -0.0337
   92MOL0     C12037   4.981   6.200   6.984 -0.4397 -1.3889  0.1312
   92MOL0     C12038   4.966   6.105   7.090 -1.2270 -0.6540 -0.0068
   92MOL0     C12039   4.862   6.115   7.193  0.0973 -0.5920 -0.6565
   92MOL0     C12040   4.769   6.220   7.185 -0.1426 -0.1243  1.2249
   92MOL0     C12041   4.652   6.221   7.275 -0.1644 -0.3731 -0.2508
   92MOL0     O12042   4.579   6.334   7.284 -0.1738 -0.4652 -0.2084
   92MOL0     C12043   4.467   6.320   7.351 -0.4712  0.0207  0.2149
   92MOL0     C12044   4.471   6.326   7.492  1.0772 -0.8695  0.2803
   92MOL0     C12045   4.363   6.295   7.567 -0.0977 -0.2346 -0.3512
   92MOL0     C12046   4.233   6.280   7.503  0.0398  0.2838 -0.1060
   92MOL0     O12047   4.126   6.269   7.589 -0.3347  0.3939  0.2883
   92MOL0     C12048   4.006   6.341   7.551  1.0573  0.0041  0.4292
   92MOL0     C12049   3.900   6.264   7.483 -1.1853  0.9664 -0.9742
   92MOL0     C12050   3.831   6.184   7.589 -0.0407  0.5215  0.1954
   92MOL0     C12051   3.748   6.261   7.686  0.1267 -0.3432  0.2075
   92MOL0     C12052   3.668   6.174   7.781 -0.4513 -0.4221  0.5798
   92MOL0     C12053   3.523   6.206   7.788  0.3264 -0.0874  0.3721
   92MOL0     C12054   3.445   6.088   7.849  0.0184 -0.1148  0.3404
   92MOL0     C12055   3.294   6.119   7.833  0.0892  1.7737 -0.0875
   92MOL0    Cl12056   3.239   6.076   7.658 -0.1608  0.2996  0.4484
   92MOL0     C12057   4.225   6.271   7.365  0.5256 -0.5237  0.0490
   92MOL0     C12058   4.339   6.280   7.291  0.2255  0.1329  0.4840
   92MOL0     O12059   4.631   6.110   7.320  0.3391 -0.7231 -0.5205
   92MOL0     C12060   4.785   6.313   7.080 -0.1271  0.8096 -0.0041
   92MOL0     C12061   4.889   6.309   6.982  0.1632  0.7552  0.2726
   92MOL0     N12062   5.530   6.246   6.460 -0.4140 -0.4446  0.4554
   92MOL0     N12063   5.645   6.294   6.450 -0.2518  0.5745 -0.4422
   92MOL0     C12064   6.817   6.916   6.340  0.3121  0.0200  0.4285
   92MOL0     C12065   6.923   6.938   6.248  0.0975  1.0182 -0.5278
   92MOL0     C12066   7.241   6.836   5.909 -0.5821  0.3270 -0.8770
   92MOL0     C12067   7.277   6.879   5.786  0.5448  0.1643  0.6731
   92MOL0     C12068   7.414   6.905   5.753  0.1296 -0.1611  0.0951
   92MOL0     C12069   7.513   6.897   5.854  1.2212 -0.6767  0.2678
   92MOL0     O12070   7.637   6.946   5.823  0.3017 -0.6694 -0.2665
   92MOL0     C12071   7.694   6.901   5.706 -0.2226  0.3758  1.4281
   92MOL0     C12072   7.841   6.951   5.696  0.4192 -0.3656  0.5248
   92MOL0     C12073   7.897   6.940   5.554  0.2541 -0.1688 -0.0055
   92MOL0     C12074   8.052   6.979   5.549  0.7837 -0.0166 -0.1937
   92MOL0     C12075   8.079   6.984   5.402 -0.9278 -0.0593  0.7997
   92MOL0     C12076   8.102   6.979   5.280  0.2272  0.7417 -0.0329
   92MOL0     C12077   7.476   6.840   5.981  0.1734 -0.0335  0.3842
   92MOL0     C12078   7.338   6.816   6.007  0.1181  0.2883  0.2018
   92MOL0     H12079   6.830   6.708   6.007  2.3597 -1.2156  1.3841
   92MOL0     H12080   6.645   6.693   6.156  1.1640 -1.9007  1.8220
   92MOL0     H12081   6.500   6.667   6.350 -2.6380 -0.8280  1.0153
   92MOL0     H12082   6.454   6.822   6.275 -2.4380 -0.7225  0.2333
   92MOL0     H12083   6.374   6.908   6.493 -1.8605 -0.0128 -1.2583
   92MOL0     H12084   6.420   6.752   6.572  0.4830  0.7809  1.0797
   92MOL0     H12085   6.286   6.630   6.423 -0.5477  0.4919 -1.6103
   92MOL0     H12086   6.226   6.778   6.342 -0.6674  0.2567 -0.1282
   92MOL0     H12087   6.191   6.715   6.645 -2.5705 -2.1867 -0.2436
   92MOL0     H12088   6.136   6.858   6.576 -0.2798 -0.0767  0.6860
   92MOL0     H12089   6.007   6.694   6.392 -3.7213 -0.6427 -1.1716
   92MOL0     H12090   5.935   6.755   6.550 -2.3784 -2.2644 -2.7696
   92MOL0     H12091   6.008   6.562   6.676 -1.2814 -3.6814  0.7432
   92MOL0     H12092   6.067   6.485   6.533  0.9587  0.8279 -0.4404
   92MOL0     H12093   5.779   6.594   6.529 -0.8131  0.4883  0.0256
   92MOL0     H12094   5.852   6.499   6.411 -2.0618  2.0429 -0.6061
   92MOL0     H12095   5.824   6.425   6.707  0.2228 -1.0762 -0.0833
   92MOL0     H12096   5.884   6.314   6.591 -3.7482 -0.7744 -1.2782
   92MOL0     H12097   5.552   6.427   6.735  3.3629  1.1795  0.3373
   92MOL0     H12098   5.286   6.229   6.513  0.1636 -1.2862  1.3669
   92MOL0     H12099   5.268   6.359   6.632  0.0166  2.2852 -2.6093
   92MOL0     H12100   5.322   6.232   6.807 -1.2794 -3.0902  2.6323
   92MOL0     H12101   5.418   6.112   6.721 -0.7884 -0.1947 -2.5810
   92MOL0     H12102   5.128   6.115   6.654  2.6308  1.9378 -1.1189
   92MOL0     H12103   5.228   5.977   6.683 -2.2520 -1.4805  1.0329
   92MOL0     H12104   5.198   6.057   6.948  0.0198 -1.0195 -0.5252
   92MOL0     H12105   5.066   5.987   6.854  0.7920 -0.7194 -2.7494
   92MOL0     H12106   5.033   6.020   7.090 -0.4392 -0.0680 -1.3772
   92MOL0     H12107   4.856   6.038   7.268  2.2331 -0.3185 -0.1481
   92MOL0     H12108   4.564   6.348   7.543 -0.6551 -1.0510  3.8195
   92MOL0     H12109   4.360   6.299   7.675 -0.3644 -0.8918 -0.3301
   92MOL0     H12110   4.030   6.429   7.490 -1.9171  0.2621 -0.5432
   92MOL0     H12111   3.964   6.384   7.643 -1.7458  0.2443 -0.8384
   92MOL0     H12112   3.949   6.199   7.410  0.6945  1.2066  0.0186
   92MOL0     H12113   3.820   6.328   7.443 -3.3306 -0.4202  0.9078
   92MOL0     H12114   3.911   6.134   7.645  0.3240 -1.0316 -1.5960
   92MOL0     H12115   3.777   6.112   7.527  0.8587 -0.2208  0.2430
   92MOL0     H12116   3.806   6.328   7.750  0.1439 -3.0025  3.2424
   92MOL0     H12117   3.677   6.313   7.621 -1.1796 -0.6882  1.3017
   92MOL0     H12118   3.709   6.191   7.882 -0.6109 -2.2293  0.9726
   92MOL0     H12119   3.689   6.071   7.754  1.2423  0.3344 -1.2629
   92MOL0     H12120   3.497   6.205   7.682  0.0791 -3.1298  0.3547
   92MOL0     H12121   3.505   6.300   7.840  1.2928 -0.6132  1.7357
   92MOL0     H12122   3.477   5.991   7.811  1.7324  0.3827  0.4246
   92MOL0     H12123   3.476   6.084   7.954 -0.4107 -1.0729  0.4343
   92MOL0     H12124   3.265   6.221   7.859 -1.7170  1.1794  0.4404
   92MOL0     H12125   3.233   6.051   7.894  1.5031  1.9319  1.5777
   92MOL0     H12126   4.134   6.270   7.306  1.0261 -0.4590 -0.7414
   92MOL0     H12127   4.324   6.285   7.184 -0.1932 -2.7687  0.3294
   92MOL0     H12128   4.717   6.398   7.083 -0.0852  0.8628 -0.4990
   92MOL0     H12129   4.883   6.375   6.896 -2.5131 -1.5682 -1.5191
   92MOL0     H12130   6.815   6.981   6.428  2.1134  0.5786  0.1055
   92MOL0     H12131   7.008   6.999   6.276  2.2001 -1.7020 -0.5686
   92MOL0     H12132   7.203   6.912   5.714 -1.3646 -0.0904  2.4207
   92MOL0     H12133   7.424   6.956   5.658  1.3935 -2.8089 -1.2902
   92MOL0     H12134   7.634   6.937   5.622  0.1168 -1.9445  0.1194
   92MOL0     H12135   7.685   6.793   5.698 -1.1332  0.5466 -0.3922
   92MOL0     H12136   7.849   7.057   5.723 -0.5665 -0.2910  0.5500
   92MOL0     H12137   7.898   6.887   5.764 -1.0912 -1.9677  0.3376
   92MOL0     H12138   7.832   7.008   5.499 -3.1571 -3.0562  0.0948
   92MOL0     H12139   7.891   6.842   5.506 -0.1949  1.0296 -2.5597
   92MOL0     H12140   8.056   7.079   5.595 -1.8559  0.1735 -0.2356
   92MOL0     H12141   8.128   6.921   5.602  2.7067  2.0608 -0.4829
   92MOL0     H12142   8.128   6.991   5.177  0.5212  3.4697  0.2853
   92MOL0     H12143   7.555   6.808   6.047  0.0471 -2.1118 -0.3939
   92MOL0     H12144   7.312   6.781   6.106  1.5648 -1.1432  0.1137
   93MOL0     O12145   1.688   6.585   1.888  0.5920 -0.1077  0.4963
   93MOL0     C12146   1.762   6.518   1.816 -0.8066 -0.0261  0.3710
   93MOL0     O12147   1.742   6.475   1.685  0.0778 -0.5984 -0.4653
   93MOL0     C12148   1.616   6.503   1.634  0.7293 -0.4228  0.4488
   93MOL0     C12149   1.601   6.591   1.533 -0.6109 -0.3896 -0.2522
   93MOL0     C12150   1.477   6.611   1.479  0.2442  0.0128  0.5725
   93MOL0     C12151   1.352   6.548   1.522 -0.1802 -0.5665 -0.6393
   93MOL0     O12152   1.231   6.575   1.465  0.3771  0.1250 -0.0088
   93MOL0     C12153   1.172   6.701   1.509 -0.1745  0.1717  1.2467
   93MOL0     C12154   1.089   6.686   1.639  0.0501  0.4559 -0.1362
   93MOL0     C12155   0.963   6.602   1.601  0.5404 -0.0395  0.3003
   93MOL0     C12156   0.894   6.551   1.730 -0.9450 -0.2653 -0.0106
   93MOL0     C12157   0.752   6.495   1.695 -0.1261 -0.0449  0.3065
   93MOL0     C12158   0.749   6.362   1.624 -0.5563 -0.3038  0.4325
   93MOL0     C12159   0.605   6.310   1.624 -0.7833 -0.7014 -0.3204
   93MOL0     C12160   0.589   6.191   1.527  0.4326 -0.3221 -0.6520
   93MOL0     N12161   0.465   6.122   1.532  0.9236  0.2197 -0.5742
   93MOL0     C12162   0.354   6.124   1.451  0.3463 -0.3259  0.2924
   93MOL0     C12163   0.257   6.055   1.514  0.9694  0.3313  0.0633
   93MOL0     C12164   0.123   6.028   1.464  0.6128 -0.2841 -0.1866
   93MOL0     C12165   0.124   5.968   1.317 -1.4907  0.4968 -0.7699
   93MOL0     C12166   0.014   5.880   1.281  0.9022 -0.0921  0.0944
   93MOL0     C12167  -0.110   5.966   1.235 -0.6546  0.2379 -1.0077
   93MOL0     O12168  -0.093   6.021   1.100  0.2333 -0.3191  0.2914
   93MOL0     C12169  -0.200   6.105   1.053 -0.4597 -0.1379 -0.1111
   93MOL0     C12170  -0.184   6.170   0.934  0.0896  0.1920 -0.4762
   93MOL0     C12171  -0.284   6.248   0.871 -0.2964  0.9824 -0.0233
   93MOL0     C12172  -0.409   6.246   0.937 -0.1407 -0.1608  0.5481
   93MOL0     C12173  -0.516   6.339   0.873 -0.1870  0.0248  0.2478
   93MOL0     O12174  -0.635   6.324   0.913 -0.0855  0.1164 -0.5928
   93MOL0     C12175  -0.733   6.411   0.875  0.8078 -0.0762 -0.2202
   93MOL0     C12176  -0.795   6.412   0.745 -1.1169 -0.6093  0.2223
   93MOL0     C12177  -0.910   6.491   0.726  0.0467 -0.4710 -0.3279
   93MOL0     C12178  -0.970   6.560   0.834 -0.2990  0.4646  0.1455
   93MOL0     O12179  -1.082   6.631   0.792 -0.2306  0.4979 -0.5674
   93MOL0     C12180  -1.093   6.768   0.833  0.3742 -0.4307  0.1288
   93MOL0     C12181  -1.241   6.805   0.834  0.6292 -0.5649  0.9062
   93MOL0     C12182  -1.307   6.770   0.697 -0.0375  0.2741  0.3130
   93MOL0     C12183  -1.429   6.847   0.671  0.1536  0.0990 -0.5021
   93MOL0     C12184  -1.529   6.753   0.600 -0.8000 -0.9165 -0.6546
   93MOL0     C12185  -1.653   6.849   0.563  0.9871  0.5832  0.1859
   93MOL0     C12186  -1.759   6.752   0.499  1.3062  0.0821  0.0350
   93MOL0     C12187  -1.892   6.826   0.456 -0.5987 -0.8203  0.1548
   93MOL0    Cl12188  -1.846   6.923   0.304 -0.4613 -0.2284 -0.1185
   93MOL0     C12189  -0.909   6.566   0.958  0.2302  0.0213 -0.1433
   93MOL0     C12190  -0.795   6.492   0.975  0.4709  0.9511 -0.5395
   93MOL0     O12191  -0.470   6.426   0.794  0.3839  0.5996  0.1925
   93MOL0     C12192  -0.418   6.199   1.072 -0.0181  0.1849  0.4080
   93MOL0     C12193  -0.321   6.111   1.119  0.0647  0.3872 -0.4126
   93MOL0     N12194   0.316   6.006   1.633 -0.0549 -0.1439  0.0210
   93MOL0     N12195   0.437   6.027   1.631  0.3156  0.1924 -0.5608
   93MOL0     C12196   1.371   6.467   1.629  0.0014  0.7896 -0.2608
   93MOL0     C12197   1.494   6.449   1.686 -1.2489  0.0021  0.1870
   93MOL0     C12198   1.887   6.484   1.883 -0.4303 -0.0713 -0.6540
   93MOL0     C12199   2.005   6.471   1.812 -0.2255  0.0479  0.6946
   93MOL0     C12200   2.114   6.414   1.870 -1.1932 -0.1966 -0.2819
   93MOL0     C12201   2.121   6.400   2.010  0.8001  0.8517 -0.3267
   93MOL0     O12202   2.226   6.364   2.085  0.3899  0.3868 -0.0864
   93MOL0     C12203   2.360   6.384   2.035  0.4921 -1.0794 -0.6290
   93MOL0     C12204   2.426   6.239   1.999  1.2276 -0.1869  0.3843
   93MOL0     C12205   2.421   6.155   2.120 -0.2468  1.0881  0.0925
   93MOL0     C12206   2.507   6.211   2.240 -0.4824  0.6716 -0.3804
   93MOL0     C12207   2.653   6.192   2.210  0.9153  0.7464 -0.2152
   93MOL0     C12208   2.766   6.164   2.185  0.5156  0.5086 -0.4206
   93MOL0     C12209   2.010   6.441   2.089 -0.2354  0.6279 -0.3413
   93MOL0     C12210   1.896   6.488   2.020  0.3601 -0.6905 -0.2211
   93MOL0     H12211   1.694   6.628   1.492  0.0690 -1.2268  0.5044
   93MOL0     H12212   1.465   6.672   1.389  1.4649  2.5145  1.9817
   93MOL0     H12213   1.118   6.748   1.427 -0.7091  3.3575  3.2411
   93MOL0     H12214   1.250   6.774   1.534  0.4396  0.1012 -0.3695
   93MOL0     H12215   1.052   6.778   1.686 -0.1283  0.0517  0.5258
   93MOL0     H12216   1.150   6.639   1.718 -0.1915  0.0436 -0.1941
   93MOL0     H12217   0.978   6.523   1.527 -1.1631  2.2210 -2.7271
   93MOL0     H12218   0.895   6.673   1.551  1.7263 -0.7377 -2.5155
   93MOL0     H12219   0.954   6.486   1.795  0.4820  1.0685  0.0631
   93MOL0     H12220   0.872   6.646   1.779  1.1389  1.3493 -1.9727
   93MOL0     H12221   0.691   6.566   1.639 -1.7041 -1.4759  0.1242
   93MOL0     H12222   0.689   6.479   1.783 -3.2904 -0.5118 -1.8689
   93MOL0     H12223   0.806   6.289   1.683 -0.3084  0.8577  1.6571
   93MOL0     H12224   0.789   6.376   1.522 -1.1608 -1.4790  0.0152
   93MOL0     H12225   0.574   6.281   1.725 -2.2552 -0.5926 -0.7234
   93MOL0     H12226   0.533   6.388   1.599  2.7620  2.4159 -1.7594
   93MOL0     H12227   0.664   6.116   1.549  0.8088  0.6495  1.6106
   93MOL0     H12228   0.604   6.224   1.423  2.9772  1.0069  0.0554
   93MOL0     H12229   0.350   6.170   1.353  1.7012  0.7274  0.7116
   93MOL0     H12230   0.072   6.124   1.458  0.0369 -0.6672 -2.5099
   93MOL0     H12231   0.079   5.955   1.532  1.9061 -1.4821 -0.5846
   93MOL0     H12232   0.224   5.926   1.300 -0.7709  0.1145  3.3538
   93MOL0     H12233   0.128   6.053   1.248  1.9554  0.2622 -1.0658
   93MOL0     H12234   0.037   5.815   1.196  2.6586  1.6060 -0.8145
   93MOL0     H12235   0.009   5.811   1.366  0.3686 -4.7068 -3.3015
   93MOL0     H12236  -0.123   6.049   1.306  1.0245  1.0866 -1.6219
   93MOL0     H12237  -0.193   5.895   1.230  0.1055 -0.5545 -4.0587
   93MOL0     H12238  -0.085   6.160   0.891  1.8386 -0.5492  3.3056
   93MOL0     H12239  -0.256   6.315   0.790  2.3253 -1.8905 -1.7110
   93MOL0     H12240  -0.749   6.349   0.671 -0.5425  1.6220 -1.4113
   93MOL0     H12241  -0.978   6.502   0.642 -3.1084  2.6122  2.2702
   93MOL0     H12242  -1.031   6.836   0.773  0.7316  0.9050  1.9213
   93MOL0     H12243  -1.072   6.776   0.940  1.0957 -1.9071  0.1139
   93MOL0     H12244  -1.241   6.913   0.855 -0.6004 -0.9327  3.2196
   93MOL0     H12245  -1.302   6.748   0.905 -0.1765 -1.0382 -0.1381
   93MOL0     H12246  -1.324   6.662   0.707 -5.0476  0.7470 -0.3784
   93MOL0     H12247  -1.246   6.798   0.611 -0.0440  2.2620  0.9174
   93MOL0     H12248  -1.470   6.890   0.763  3.4683  2.1791  0.1873
   93MOL0     H12249  -1.422   6.935   0.606 -1.6838  0.6534 -0.0110
   93MOL0     H12250  -1.566   6.671   0.663  0.1528 -1.7316 -1.1282
   93MOL0     H12251  -1.484   6.710   0.510 -3.1128 -3.2792 -0.8018
   93MOL0     H12252  -1.631   6.932   0.495 -0.4045  1.1637  0.4154
   93MOL0     H12253  -1.709   6.889   0.648 -1.2817 -2.2828  0.1674
   93MOL0     H12254  -1.721   6.696   0.413 -0.8891 -0.4621 -0.6491
   93MOL0     H12255  -1.786   6.674   0.571 -0.9187 -1.3374 -2.1860
   93MOL0     H12256  -1.921   6.894   0.536 -0.4293  1.2149 -1.4447
   93MOL0     H12257  -1.972   6.755   0.433 -1.6542  0.3568  0.1011
   93MOL0     H12258  -0.947   6.626   1.040 -1.0259 -2.8141  1.4876
   93MOL0     H12259  -0.748   6.478   1.071 -1.1447 -3.7381 -0.1311
   93MOL0     H12260  -0.507   6.221   1.131 -1.8064 -1.8250 -1.3715
   93MOL0     H12261  -0.338   6.054   1.210  1.0428 -2.8547 -2.0996
   93MOL0     H12262   1.278   6.435   1.675  0.5827  0.4250  0.6792
   93MOL0     H12263   1.491   6.387   1.775  4.3690  0.3307  0.9608
   93MOL0     H12264   2.002   6.488   1.705  0.4760  3.6006  1.0980
   93MOL0     H12265   2.194   6.389   1.800 -1.3924  0.5602 -0.7986
   93MOL0     H12266   2.421   6.428   2.115  0.9410 -0.1018 -1.4825
   93MOL0     H12267   2.367   6.444   1.944  0.0264  1.6701  1.0152
   93MOL0     H12268   2.370   6.198   1.914  1.0650 -0.4845  0.6293
   93MOL0     H12269   2.527   6.253   1.959  1.0929 -1.7360 -0.6181
   93MOL0     H12270   2.466   6.060   2.090 -1.3529 -0.1920  2.2541
   93MOL0     H12271   2.320   6.134   2.155 -0.5936  1.1677 -0.8421
   93MOL0     H12272   2.488   6.314   2.268  2.3672  0.9498  0.9049
   93MOL0     H12273   2.490   6.150   2.329  2.6895 -2.1976 -1.4872
   93MOL0     H12274   2.869   6.141   2.163  0.9293 -2.3761  3.4307
   93MOL0     H12275   2.016   6.438   2.197  0.5072 -3.9041 -0.2990
   93MOL0     H12276   1.804   6.506   2.074 -1.6214 -3.0435 -2.5464
   94MOL0     O12277   0.769   6.591   5.394  0.5255  0.4697  0.1144
   94MOL0     C12278   0.755   6.710   5.390  0.5899  0.6713 -0.4327
   94MOL0     O12279   0.643   6.775   5.340 -0.0834  0.2606 -0.2845
   94MOL0     C12280   0.528   6.719   5.308  1.6208 -0.4139  0.0781
   94MOL0     C12281   0.456   6.620   5.380 -0.2236 -1.4606 -0.6325
   94MOL0     C12282   0.327   6.578   5.344 -0.2436 -0.4436  0.4029
   94MOL0     C12283   0.258   6.642   5.236  0.1662 -1.0131  0.9937
   94MOL0     O12284   0.132   6.605   5.196  0.7111  0.5743 -0.2434
   94MOL0     C12285   0.114   6.462   5.182  0.3740  0.4685  0.8449
   94MOL0     C12286   0.002   6.433   5.081  0.6359 -0.5344  0.6201
   94MOL0     C12287  -0.131   6.438   5.152  0.4430 -0.1810  0.7915
   94MOL0     C12288  -0.243   6.389   5.051 -0.3561 -0.5569 -0.1105
   94MOL0     C12289  -0.391   6.400   5.108  1.0198 -0.5636 -1.0828
   94MOL0     C12290  -0.452   6.525   5.051 -0.1820 -0.7248  0.5579
   94MOL0     C12291  -0.577   6.563   5.134  0.3504 -0.7603 -0.4366
   94MOL0     C12292  -0.695   6.479   5.098 -0.0657 -0.1947  0.5451
   94MOL0     N12293  -0.780   6.539   4.992  0.2244 -0.0119  0.2313
   94MOL0     C12294  -0.867   6.637   5.018 -0.4869  0.9930 -1.2875
   94MOL0     C12295  -0.903   6.679   4.903  0.1707  0.4507  0.6092
   94MOL0     C12296  -1.033   6.748   4.865 -0.8627  0.1196 -0.1778
   94MOL0     C12297  -1.146   6.640   4.869 -0.2077 -0.0285 -0.4546
   94MOL0     C12298  -1.282   6.701   4.900  0.1373  0.6110 -0.5947
   94MOL0     C12299  -1.398   6.597   4.881  0.3285 -0.1719 -0.1895
   94MOL0     O12300  -1.404   6.571   4.745 -0.7242 -0.0426  0.0153
   94MOL0     C12301  -1.479   6.636   4.660  1.0456 -0.1772 -0.2933
   94MOL0     C12302  -1.562   6.748   4.682  0.4447  0.1659 -0.1406
   94MOL0     C12303  -1.632   6.800   4.581 -0.0459  0.3697  0.3184
   94MOL0     C12304  -1.628   6.744   4.445 -0.3934 -0.6331 -1.5251
   94MOL0     C12305  -1.719   6.806   4.346 -0.5544  0.2793  0.0225
   94MOL0     O12306  -1.840   6.867   4.374 -0.1947 -0.5486 -0.7234
   94MOL0     C12307  -1.909   6.908   4.270 -0.2252 -0.4593  0.0643
   94MOL0     C12308  -2.030   6.851   4.245  0.8556 -0.1579  0.0300
   94MOL0     C12309  -2.122   6.910   4.162 -0.2501  0.1226  0.4463
   94MOL0     C12310  -2.089   7.032   4.099  0.9956 -0.1078  0.9080
   94MOL0     O12311  -2.172   7.078   4.001 -0.0458 -0.4229  0.2481
   94MOL0     C12312  -2.301   7.130   4.041  0.2382 -0.2684 -0.0321
   94MOL0     C12313  -2.350   7.199   3.913  0.9673  0.4839  0.9386
   94MOL0     C12314  -2.454   7.309   3.952 -0.7119 -0.1255  0.9308
   94MOL0     C12315  -2.580   7.251   4.013 -1.2369  0.0166  0.6231
   94MOL0     C12316  -2.693   7.342   4.028 -0.8521 -0.2764  0.6442
   94MOL0     C12317  -2.799   7.296   4.118 -0.3702  0.6457 -0.0648
   94MOL0     C12318  -2.879   7.187   4.041 -0.2503 -0.4111 -0.4058
   94MOL0     C12319  -2.989   7.128   4.141 -0.7538  0.8149  1.0005
   94MOL0    Cl12320  -3.113   7.243   4.209  0.0180  0.0857 -0.0998
   94MOL0     C12321  -1.971   7.101   4.126  0.3581 -0.1498 -0.3987
   94MOL0     C12322  -1.881   7.037   4.215 -1.0169 -0.0074 -0.6981
   94MOL0     O12323  -1.674   6.789   4.231  0.7130 -0.6852  0.5597
   94MOL0     C12324  -1.541   6.636   4.418 -0.7275 -0.0494 -0.7007
   94MOL0     C12325  -1.469   6.587   4.530  0.9993  0.2598 -0.6952
   94MOL0     N12326  -0.836   6.617   4.804  0.8675  0.0220  0.2777
   94MOL0     N12327  -0.753   6.532   4.863 -0.2744 -0.5399 -0.1633
   94MOL0     C12328   0.317   6.755   5.171  0.9732  0.0926 -0.4583
   94MOL0     C12329   0.447   6.790   5.218  0.9436 -0.3851  0.6340
   94MOL0     C12330   0.870   6.797   5.434  0.1993 -0.1905  0.3632
   94MOL0     C12331   0.992   6.739   5.457 -0.2351 -0.7299 -0.1862
   94MOL0     C12332   1.102   6.811   5.506 -1.0561 -0.0518 -0.5664
   94MOL0     C12333   1.101   6.945   5.515  0.0899 -0.2484 -0.1365
   94MOL0     O12334   1.226   7.005   5.553  0.8000  0.1575 -0.0124
   94MOL0     C12335   1.248   7.150   5.557  0.2150 -0.4268  0.1694
   94MOL0     C12336   1.386   7.174   5.593  0.6698 -0.1508 -0.0244
   94MOL0     C12337   1.405   7.319   5.602  0.2552 -0.3755 -0.3411
   94MOL0     C12338   1.557   7.348   5.637 -0.2516  0.9975  0.4849
   94MOL0     C12339   1.567   7.312   5.779  0.0785 -0.3722  0.2534
   94MOL0     C12340   1.579   7.266   5.887 -0.1727 -0.2068  0.2953
   94MOL0     C12341   0.994   7.014   5.465 -0.6811  0.4053 -0.2036
   94MOL0     C12342   0.876   6.940   5.430 -0.1032  0.0524 -0.2863
   94MOL0     H12343   0.501   6.573   5.467  1.0046  0.8609  0.0719
   94MOL0     H12344   0.295   6.503   5.415  3.7916 -0.4995  2.4685
   94MOL0     H12345   0.091   6.417   5.279 -0.2864 -1.2458 -0.0638
   94MOL0     H12346   0.205   6.418   5.140  0.6227  0.7153  1.1130
   94MOL0     H12347   0.000   6.330   5.044 -4.1108 -1.3347  2.3691
   94MOL0     H12348   0.010   6.512   5.006 -0.4917 -1.4310 -0.4970
   94MOL0     H12349  -0.144   6.541   5.185 -1.3136  0.1019 -0.6452
   94MOL0     H12350  -0.131   6.384   5.247  0.0979  1.5376  1.7941
   94MOL0     H12351  -0.229   6.453   4.964  4.0215  0.4982  1.1423
   94MOL0     H12352  -0.227   6.282   5.033 -0.5177 -0.9085  1.6464
   94MOL0     H12353  -0.392   6.420   5.215 -1.0786 -0.8297 -1.0255
   94MOL0     H12354  -0.455   6.314   5.086 -0.4511 -0.5538  2.5078
   94MOL0     H12355  -0.484   6.518   4.947  0.1958  0.6546  0.3250
   94MOL0     H12356  -0.380   6.607   5.058 -2.8803  1.8665  0.1765
   94MOL0     H12357  -0.561   6.553   5.242  2.2016 -0.6051 -0.6647
   94MOL0     H12358  -0.612   6.666   5.123  0.7902 -0.5758 -0.1251
   94MOL0     H12359  -0.744   6.476   5.196  0.1937  0.1112  0.6866
   94MOL0     H12360  -0.669   6.375   5.078 -0.3451  0.0170 -1.0732
   94MOL0     H12361  -0.912   6.660   5.114  1.3169 -1.1357  0.1684
   94MOL0     H12362  -1.022   6.803   4.771  2.1903 -1.1223 -0.6595
   94MOL0     H12363  -1.053   6.817   4.947  0.4354 -0.8501  0.9855
   94MOL0     H12364  -1.117   6.560   4.937  1.3832 -1.1477 -2.3567
   94MOL0     H12365  -1.146   6.600   4.767 -0.4930  1.4954 -1.0942
   94MOL0     H12366  -1.270   6.736   5.003  1.5245  2.1546 -1.2311
   94MOL0     H12367  -1.311   6.797   4.855 -0.4597  0.4969 -0.4695
   94MOL0     H12368  -1.488   6.631   4.933 -0.7112 -0.9113 -1.4332
   94MOL0     H12369  -1.372   6.504   4.932 -1.6042  0.4008  2.0135
   94MOL0     H12370  -1.566   6.800   4.777  0.1818 -1.1938  0.6230
   94MOL0     H12371  -1.694   6.889   4.589 -1.2860 -0.5498  1.3629
   94MOL0     H12372  -2.041   6.756   4.296 -3.3669 -0.3690 -0.9593
   94MOL0     H12373  -2.220   6.864   4.147  0.0415  0.3226 -2.7649
   94MOL0     H12374  -2.279   7.206   4.117 -0.3055  0.5239 -0.6586
   94MOL0     H12375  -2.373   7.057   4.080  0.6599 -2.6915 -3.3526
   94MOL0     H12376  -2.409   7.131   3.851  0.6054 -0.0460  1.8305
   94MOL0     H12377  -2.273   7.244   3.851 -0.3885 -0.5917 -1.7016
   94MOL0     H12378  -2.474   7.376   3.868  2.0633 -0.7938 -0.3633
   94MOL0     H12379  -2.412   7.375   4.028 -0.8836  0.3872  0.5861
   94MOL0     H12380  -2.607   7.170   3.944  2.8831  1.3457 -3.0306
   94MOL0     H12381  -2.558   7.215   4.114 -1.9119 -0.3503  0.6420
   94MOL0     H12382  -2.724   7.384   3.931  0.8834 -1.5592 -0.5148
   94MOL0     H12383  -2.647   7.430   4.074 -3.7363  1.2724  0.8383
   94MOL0     H12384  -2.873   7.373   4.144 -1.5333 -0.7583  0.9369
   94MOL0     H12385  -2.759   7.253   4.211 -0.5944 -1.4670 -0.8983
   94MOL0     H12386  -2.928   7.238   3.958 -0.1204 -1.6691 -1.2730
   94MOL0     H12387  -2.803   7.115   4.010  1.0163  1.6379 -2.3230
   94MOL0     H12388  -2.920   7.086   4.215  0.4499  0.3435 -0.3417
   94MOL0     H12389  -3.035   7.041   4.094  3.2723 -0.5314 -0.9408
   94MOL0     H12390  -1.933   7.185   4.069 -0.5618  0.5422 -0.0255
   94MOL0     H12391  -1.785   7.084   4.236 -0.4721 -1.5496  0.4698
   94MOL0     H12392  -1.535   6.597   4.317  3.7820  0.6690 -0.9023
   94MOL0     H12393  -1.405   6.503   4.504  0.7903  0.0775 -0.6158
   94MOL0     H12394   0.259   6.817   5.103 -2.5148  0.1967  2.3645
   94MOL0     H12395   0.501   6.878   5.186  5.0969 -1.6704  3.1859
   94MOL0     H12396   1.019   6.636   5.440  4.2243  0.7656 -5.0797
   94MOL0     H12397   1.192   6.754   5.529  0.6521  1.2043 -3.5423
   94MOL0     H12398   1.187   7.190   5.639  0.2878 -2.0915  1.0886
   94MOL0     H12399   1.223   7.194   5.460 -2.9474 -0.1444  0.9889
   94MOL0     H12400   1.422   7.112   5.676 -0.0209  0.7967  1.0024
   94MOL0     H12401   1.436   7.134   5.504 -0.6392 -1.2712 -0.2824
   94MOL0     H12402   1.345   7.354   5.687  0.8772  0.6720 -0.3275
   94MOL0     H12403   1.371   7.372   5.513 -3.4938 -1.0096  0.5398
   94MOL0     H12404   1.629   7.290   5.578  2.5030  1.2523  3.3139
   94MOL0     H12405   1.575   7.456   5.635 -0.8237  1.0896 -0.1375
   94MOL0     H12406   1.585   7.229   5.988  0.3336 -0.0230  0.3337
   94MOL0     H12407   0.997   7.122   5.449  2.3988  0.6897  1.5418
   94MOL0     H12408   0.786   6.993   5.398 -1.4047 -1.4462  0.7569
   95MOL0     O12409   1.467   2.002   6.901 -0.8898  0.6600  0.9249
   95MOL0     C12410   1.374   1.984   6.816 -0.5451 -0.8272  0.5817
   95MOL0     O12411   1.391   1.954   6.685  0.4350  0.2043 -0.8894
   95MOL0     C12412   1.515   1.937   6.640  0.2760  0.2125  0.4485
   95MOL0     C12413   1.535   1.815   6.566  0.6573  1.8448 -0.5261
   95MOL0     C12414   1.652   1.787   6.498 -0.4696  0.3579 -0.3735
   95MOL0     C12415   1.762   1.880   6.514  0.0787  1.0571  0.2063
   95MOL0     O12416   1.875   1.832   6.447 -0.7005  0.0028 -0.2789
   95MOL0     C12417   1.947   1.922   6.362  0.7061  1.2096 -0.2184
   95MOL0     C12418   2.064   1.842   6.288  0.1878  0.0032 -0.6090
   95MOL0     C12419   2.166   1.927   6.227 -0.2746  0.0488  0.6304
   95MOL0     C12420   2.281   1.828   6.177 -0.2597 -0.5099 -0.3793
   95MOL0     C12421   2.380   1.903   6.091 -0.9337 -0.9534 -0.0146
   95MOL0     C12422   2.482   1.804   6.023 -0.6232  0.0164 -0.0321
   95MOL0     C12423   2.585   1.740   6.114  0.2149  0.2503  0.4466
   95MOL0     C12424   2.690   1.647   6.036  0.3462  0.0959 -0.1887
   95MOL0     N12425   2.626   1.570   5.930 -0.8554  0.3629 -0.0339
   95MOL0     C12426   2.629   1.598   5.789  1.2067 -0.0256 -0.6961
   95MOL0     C12427   2.534   1.516   5.742 -0.5788  0.8944  0.3872
   95MOL0     C12428   2.489   1.518   5.594  0.3323 -0.5011 -1.7329
   95MOL0     C12429   2.337   1.501   5.599  0.2298  0.0947  0.1062
   95MOL0     C12430   2.306   1.355   5.567 -0.2386 -0.1816  0.1196
   95MOL0     C12431   2.151   1.347   5.554  0.3047  0.7859  0.8384
   95MOL0     O12432   2.108   1.214   5.533  0.7545  0.1563 -0.0382
   95MOL0     C12433   1.974   1.188   5.511  0.4263 -0.7739  0.2396
   95MOL0     C12434   1.944   1.101   5.413 -0.8618  0.3753 -0.0808
   95MOL0     C12435   1.814   1.070   5.369  0.2375 -0.9732 -0.5001
   95MOL0     C12436   1.702   1.127   5.440  0.0270  0.1123 -0.0874
   95MOL0     C12437   1.562   1.087   5.399 -0.4513  0.7077 -0.6263
   95MOL0     O12438   1.466   1.170   5.449 -0.0488  0.0650 -0.2231
   95MOL0     C12439   1.329   1.146   5.419  0.1856 -0.7322  0.2211
   95MOL0     C12440   1.233   1.186   5.513  0.8581 -0.0305  0.1849
   95MOL0     C12441   1.094   1.182   5.490 -0.3291 -0.7740  0.1453
   95MOL0     C12442   1.053   1.135   5.365 -0.3697  0.2140  0.1587
   95MOL0     O12443   0.917   1.117   5.348 -0.1489  0.0158  0.6510
   95MOL0     C12444   0.819   1.218   5.379 -0.1415  0.8001 -0.1686
   95MOL0     C12445   0.688   1.161   5.347  0.5562  0.6504  0.5678
   95MOL0     C12446   0.574   1.250   5.381  0.2419  0.2404  0.0598
   95MOL0     C12447   0.591   1.406   5.360 -0.6997  0.6582 -0.0672
   95MOL0     C12448   0.486   1.467   5.434  0.9122  0.2626  0.1767
   95MOL0     C12449   0.357   1.468   5.344  0.0906 -0.9773 -0.3781
   95MOL0     C12450   0.241   1.551   5.399 -0.4438 -0.8417 -0.2940
   95MOL0     C12451   0.282   1.700   5.420  0.5228  0.1004  0.8385
   95MOL0    Cl12452   0.385   1.769   5.282 -0.0607 -0.2479 -0.2255
   95MOL0     C12453   1.144   1.086   5.275 -0.1974  0.8108 -0.2120
   95MOL0     C12454   1.283   1.100   5.298  0.5267 -0.0188 -0.3526
   95MOL0     O12455   1.543   0.988   5.325 -0.5164 -0.3769 -0.3739
   95MOL0     C12456   1.734   1.223   5.546 -0.3580 -0.1208 -0.0019
   95MOL0     C12457   1.867   1.249   5.579  1.2038  0.6958 -0.2337
   95MOL0     N12458   2.491   1.429   5.840 -0.1044 -1.2603  0.1120
   95MOL0     N12459   2.531   1.477   5.959 -0.2323 -0.6618  0.4429
   95MOL0     C12460   1.742   2.002   6.586  0.6950 -0.9921 -0.4102
   95MOL0     C12461   1.621   2.036   6.641 -0.2817  0.3673 -0.3123
   95MOL0     C12462   1.239   2.006   6.861 -0.0271 -0.0824  0.8106
   95MOL0     C12463   1.213   2.027   6.997 -0.4601 -0.7160  0.1868
   95MOL0     C12464   1.081   2.038   7.042 -0.0221 -0.5358 -0.1474
   95MOL0     C12465   0.967   2.033   6.962  0.7762  0.0005  0.7869
   95MOL0     O12466   0.841   2.042   7.022  0.2125 -1.1819  0.1608
   95MOL0     C12467   0.734   2.034   6.935 -0.0424  0.3109 -0.3195
   95MOL0     C12468   0.604   2.048   6.994 -0.7525 -0.6124 -0.1637
   95MOL0     C12469   0.599   1.971   7.125 -0.6481  0.2125 -0.5196
   95MOL0     C12470   0.460   1.983   7.182 -0.2327 -0.2297 -0.5079
   95MOL0     C12471   0.452   1.911   7.314  0.4812  0.1952 -0.2152
   95MOL0     C12472   0.445   1.832   7.403 -0.8362  0.5491 -0.0761
   95MOL0     C12473   0.997   2.034   6.821  0.6369  0.3375  0.0942
   95MOL0     C12474   1.130   2.025   6.767  0.0634 -0.0329 -1.0923
   95MOL0     H12475   1.456   1.741   6.562 -0.7670  3.3233 -0.2798
   95MOL0     H12476   1.672   1.694   6.447  0.6117  0.3322  0.0708
   95MOL0     H12477   1.981   2.012   6.413  4.0571  2.2875 -3.8436
   95MOL0     H12478   1.878   1.962   6.287 -2.7692 -2.5044  0.6494
   95MOL0     H12479   2.024   1.786   6.203  0.2869 -3.0618  1.2161
   95MOL0     H12480   2.124   1.772   6.347 -1.1882 -0.4067  0.3410
   95MOL0     H12481   2.214   1.999   6.293  1.5253 -0.2307 -0.2992
   95MOL0     H12482   2.118   1.984   6.146  0.2804  0.0833  0.3155
   95MOL0     H12483   2.335   1.788   6.263 -1.9585  0.4497  1.1909
   95MOL0     H12484   2.238   1.745   6.119  0.4183 -0.1955 -1.3675
   95MOL0     H12485   2.431   1.974   6.157  0.6437 -2.5768  0.6230
   95MOL0     H12486   2.316   1.953   6.018 -0.9501 -0.4793  0.3241
   95MOL0     H12487   2.522   1.865   5.942 -0.2932 -0.4673 -0.2433
   95MOL0     H12488   2.426   1.722   5.976 -0.1536 -0.4036  0.1334
   95MOL0     H12489   2.641   1.818   6.165 -0.9947  0.7866  0.9977
   95MOL0     H12490   2.537   1.678   6.191  3.0079 -3.0142 -0.1947
   95MOL0     H12491   2.737   1.580   6.108  2.1352  0.4278 -0.9933
   95MOL0     H12492   2.761   1.719   5.995 -0.9067  1.9759  0.7933
   95MOL0     H12493   2.680   1.678   5.737 -2.3991  0.7623 -3.4591
   95MOL0     H12494   2.544   1.440   5.540  0.4383 -1.4613 -0.2923
   95MOL0     H12495   2.517   1.610   5.542  2.0264 -0.8877 -1.5702
   95MOL0     H12496   2.291   1.563   5.521  3.4877  1.4609 -0.9132
   95MOL0     H12497   2.281   1.531   5.688 -1.4104 -0.7177 -0.6051
   95MOL0     H12498   2.337   1.334   5.465  0.7448 -0.6143  0.4912
   95MOL0     H12499   2.355   1.287   5.638  1.4136  1.2047  0.3743
   95MOL0     H12500   2.113   1.404   5.469 -0.0985 -2.4634 -1.3578
   95MOL0     H12501   2.108   1.387   5.646  0.1729  1.1339  0.6259
   95MOL0     H12502   2.032   1.058   5.367 -2.0040  0.7601 -2.8297
   95MOL0     H12503   1.802   0.994   5.292 -0.4011 -0.4982 -0.8814
   95MOL0     H12504   1.262   1.222   5.611  0.9636  1.1256 -0.2560
   95MOL0     H12505   1.018   1.210   5.562 -2.5457 -1.1032 -1.9583
   95MOL0     H12506   0.829   1.302   5.310 -1.4323  0.4011 -0.8896
   95MOL0     H12507   0.827   1.258   5.480  1.2102  2.0896 -0.7593
   95MOL0     H12508   0.677   1.069   5.404 -0.1518  0.2030 -0.2665
   95MOL0     H12509   0.678   1.134   5.241 -2.2772  2.1196  0.3707
   95MOL0     H12510   0.553   1.227   5.485 -0.7618 -0.8527 -0.3606
   95MOL0     H12511   0.485   1.215   5.326 -1.0828  2.2757  0.7791
   95MOL0     H12512   0.687   1.439   5.401 -0.6728  0.4952  0.0021
   95MOL0     H12513   0.606   1.440   5.257  2.2356 -0.9895 -0.3015
   95MOL0     H12514   0.520   1.571   5.439  0.3483  0.3948  1.8979
   95MOL0     H12515   0.472   1.440   5.539  2.5298  3.2341  1.3044
   95MOL0     H12516   0.319   1.366   5.341  0.4026 -1.3634  3.6355
   95MOL0     H12517   0.381   1.495   5.241 -2.3168 -0.8391 -0.9574
   95MOL0     H12518   0.170   1.567   5.317  1.2418  0.9735 -1.4882
   95MOL0     H12519   0.198   1.495   5.482  0.9117 -1.3886  0.0583
   95MOL0     H12520   0.349   1.709   5.506  0.7560  0.7297  0.6034
   95MOL0     H12521   0.191   1.760   5.432  0.8811  1.0380 -0.7902
   95MOL0     H12522   1.111   1.052   5.178 -1.5512 -0.8222  0.7628
   95MOL0     H12523   1.344   1.065   5.216 -2.0332 -0.6578 -2.0932
   95MOL0     H12524   1.653   1.267   5.603  1.6107  2.8325  0.7408
   95MOL0     H12525   1.898   1.297   5.672 -3.0278  1.0531  1.2297
   95MOL0     H12526   1.819   2.077   6.593 -2.0774  2.3184 -2.0439
   95MOL0     H12527   1.624   2.138   6.679  0.7029 -0.0326  0.7595
   95MOL0     H12528   1.291   2.040   7.072 -1.1053  1.6536  0.5360
   95MOL0     H12529   1.056   2.041   7.148  2.0892 -2.1695  0.4519
   95MOL0     H12530   0.744   1.935   6.890 -0.5125 -1.8403  3.8289
   95MOL0     H12531   0.749   2.116   6.863 -0.3333  2.5993  2.0718
   95MOL0     H12532   0.596   2.156   7.006  3.2148 -0.2745  0.7288
   95MOL0     H12533   0.536   2.003   6.921  0.3452 -2.2816 -0.2306
   95MOL0     H12534   0.666   2.013   7.200  0.8722 -1.5917 -0.7873
   95MOL0     H12535   0.626   1.870   7.094 -0.5195 -0.4765  1.6927
   95MOL0     H12536   0.434   2.087   7.204  0.0823 -0.5414  1.5685
   95MOL0     H12537   0.387   1.951   7.108  1.3492 -0.4988 -2.0340
   95MOL0     H12538   0.466   1.747   7.464 -2.8782  0.8288  1.1255
   95MOL0     H12539   0.920   2.037   6.745 -0.6950  0.1967  1.3881
   95MOL0     H12540   1.160   2.012   6.663  0.8934 -1.2897 -0.7222
   96MOL0     O12541   3.509   1.180  11.073 -0.7464 -0.2294 -0.3245
   96MOL0     C12542   3.615   1.248  11.096 -0.7387 -0.3941 -0.2910
   96MOL0     O12543   3.648   1.367  11.038 -0.0978 -0.4376 -0.3464
   96MOL0     C12544   3.571   1.428  10.943 -0.5707 -0.3757 -0.0337
   96MOL0     C12545   3.627   1.536  10.892  0.3950 -0.3913  0.7241
   96MOL0     C12546   3.565   1.601  10.788 -0.0764 -0.0620  0.0150
   96MOL0     C12547   3.449   1.569  10.731  1.1166 -0.7499  0.9064
   96MOL0     O12548   3.387   1.631  10.629  0.2066 -0.0974  0.4287
   96MOL0     C12549   3.411   1.772  10.615 -0.1096 -0.4484  0.0701
   96MOL0     C12550   3.308   1.839  10.521 -0.2508 -0.4296 -0.0011
   96MOL0     C12551   3.158   1.810  10.565  0.4565 -0.5186  0.5298
   96MOL0     C12552   3.053   1.871  10.464 -0.7371 -0.3233 -0.2038
   96MOL0     C12553   2.914   1.886  10.526  0.5633  0.0142  0.1537
   96MOL0     C12554   2.880   1.776  10.630  0.6898 -0.3051 -0.2466
   96MOL0     C12555   2.740   1.783  10.689  0.6802 -0.0691 -0.5251
   96MOL0     C12556   2.625   1.755  10.587  0.4227  0.4975  0.0279
   96MOL0     N12557   2.649   1.625  10.521  0.3232 -0.1954 -0.3049
   96MOL0     C12558   2.703   1.602  10.399 -0.4437 -0.3279  1.1049
   96MOL0     C12559   2.727   1.465  10.395  1.2598 -0.9951 -0.3186
   96MOL0     C12560   2.784   1.395  10.279  0.6110 -0.2735 -0.3308
   96MOL0     C12561   2.934   1.378  10.298 -0.0213  0.9590 -0.2244
   96MOL0     C12562   3.009   1.516  10.300  0.3287  0.1885  0.4872
   96MOL0     C12563   3.153   1.479  10.308 -0.1925 -0.1393 -0.5829
   96MOL0     O12564   3.187   1.416  10.435  0.3073 -0.5384 -0.6808
   96MOL0     C12565   3.311   1.363  10.436 -0.1900 -0.0464  0.0582
   96MOL0     C12566   3.332   1.229  10.465  0.1799  0.9087  0.5367
   96MOL0     C12567   3.459   1.180  10.451  0.3590 -0.1875  0.8111
   96MOL0     C12568   3.558   1.252  10.381  0.2084 -0.0148 -0.1820
   96MOL0     C12569   3.692   1.187  10.369  0.1523 -0.2764 -0.6307
   96MOL0     O12570   3.792   1.271  10.338 -0.1786  0.5191 -0.4411
   96MOL0     C12571   3.929   1.228  10.317  0.2206 -0.1751 -0.2162
   96MOL0     C12572   3.980   1.116  10.384  0.8198 -0.4627  1.1964
   96MOL0     C12573   4.108   1.067  10.361 -1.5214  0.1525  0.3012
   96MOL0     C12574   4.194   1.139  10.275 -0.4613  0.6287 -0.5479
   96MOL0     O12575   4.317   1.089  10.249  0.1690  0.0261  0.5252
   96MOL0     C12576   4.387   1.133  10.130 -0.8897  0.4443 -0.5658
   96MOL0     C12577   4.504   1.223  10.168 -0.2784 -0.2805 -0.9014
   96MOL0     C12578   4.616   1.241  10.062 -0.4334 -0.5742  0.2724
   96MOL0     C12579   4.753   1.276  10.131  0.2705  0.4939  0.6403
   96MOL0     C12580   4.881   1.250  10.047 -0.4980  0.5845 -0.3331
   96MOL0     C12581   4.920   1.387   9.967 -0.5462 -0.6072 -0.3385
   96MOL0     C12582   4.958   1.505  10.065 -0.3008  0.6525 -0.4898
   96MOL0     C12583   5.043   1.614  10.004 -0.1576  0.3660 -0.3619
   96MOL0    Cl12584   4.952   1.694   9.866  0.1568  0.2172 -0.0289
   96MOL0     C12585   4.144   1.255  10.213  0.3759 -0.2461  0.9944
   96MOL0     C12586   4.011   1.288  10.221  0.3660 -0.4527 -0.0980
   96MOL0     O12587   3.703   1.066  10.370  0.9662  0.0543 -0.3543
   96MOL0     C12588   3.539   1.392  10.358 -0.1852 -0.1245  0.7506
   96MOL0     C12589   3.415   1.445  10.398 -0.0960  0.2230 -0.0425
   96MOL0     N12590   2.681   1.415  10.514 -0.1708  0.4303  0.2278
   96MOL0     N12591   2.630   1.501  10.588 -0.7147 -0.6190  0.1505
   96MOL0     C12592   3.397   1.448  10.776  0.0811 -0.3186 -0.7286
   96MOL0     C12593   3.450   1.382  10.883 -0.0579 -1.2029 -0.4084
   96MOL0     C12594   3.691   1.189  11.211 -1.3533  0.3383 -0.2693
   96MOL0     C12595   3.829   1.215  11.218  0.3268 -0.7844 -0.4541
   96MOL0     C12596   3.907   1.147  11.313  0.0525  0.0284 -0.0916
   96MOL0     C12597   3.854   1.055  11.403  0.9999  1.0257  0.6931
   96MOL0     O12598   3.935   0.984  11.492  0.2357  1.0607  0.1026
   96MOL0     C12599   3.944   0.843  11.469 -0.1011  0.7757 -0.0261
   96MOL0     C12600   4.060   0.816  11.370 -0.6544 -0.8133 -0.4583
   96MOL0     C12601   4.198   0.855  11.435 -0.4391 -0.0017  0.1675
   96MOL0     C12602   4.332   0.826  11.363 -0.5038  0.4498 -0.6205
   96MOL0     C12603   4.350   0.904  11.240  0.2675  0.1490 -0.1971
   96MOL0     C12604   4.370   0.964  11.135  0.7223 -0.3308  0.2426
   96MOL0     C12605   3.721   1.032  11.389  0.4475 -0.2235  0.0028
   96MOL0     C12606   3.637   1.089  11.291 -0.1777 -0.4675  0.4337
   96MOL0     H12607   3.722   1.578  10.924  1.7887 -2.0162 -1.0598
   96MOL0     H12608   3.615   1.695  10.765  1.5893 -0.4666  1.7565
   96MOL0     H12609   3.514   1.778  10.577  0.5709  0.2084  1.9200
   96MOL0     H12610   3.403   1.820  10.713 -2.5729  0.4675 -0.5269
   96MOL0     H12611   3.319   1.800  10.420 -3.4218 -1.0677 -0.1968
   96MOL0     H12612   3.321   1.947  10.515  0.9109 -0.6197 -1.6176
   96MOL0     H12613   3.142   1.860  10.661 -0.7456  0.7384 -0.2838
   96MOL0     H12614   3.128   1.706  10.579 -3.2711  0.5776  1.9235
   96MOL0     H12615   3.090   1.972  10.443  0.6986 -0.5759  0.9440
   96MOL0     H12616   3.058   1.802  10.379  1.7070  2.6367 -2.6894
   96MOL0     H12617   2.843   1.901  10.444 -0.8869 -0.2105  1.3269
   96MOL0     H12618   2.906   1.983  10.576  0.2738  0.1084 -0.0667
   96MOL0     H12619   2.952   1.797  10.710  0.8057 -1.9356  0.0973
   96MOL0     H12620   2.902   1.674  10.597  0.8509 -1.3659  2.8278
   96MOL0     H12621   2.747   1.697  10.757 -1.1092 -0.5037 -0.8338
   96MOL0     H12622   2.724   1.874  10.746  1.2286 -1.5572  2.1529
   96MOL0     H12623   2.613   1.830  10.508 -0.7337  0.3587  0.0620
   96MOL0     H12624   2.531   1.756  10.643 -0.1409 -0.3133 -0.8606
   96MOL0     H12625   2.724   1.674  10.320 -2.5405 -1.5128 -0.6471
   96MOL0     H12626   2.756   1.463  10.198 -3.5160  0.3289  1.3907
   96MOL0     H12627   2.731   1.300  10.273 -3.7395  1.8267  1.0846
   96MOL0     H12628   2.965   1.319  10.211  0.4687  0.0977  0.5139
   96MOL0     H12629   2.954   1.321  10.389 -0.0909  0.3561 -0.5827
   96MOL0     H12630   2.988   1.575  10.210 -0.0350  0.1197  0.5255
   96MOL0     H12631   2.984   1.570  10.391  3.4502 -0.5068  1.8864
   96MOL0     H12632   3.202   1.576  10.310 -0.4377 -0.0061  1.1266
   96MOL0     H12633   3.188   1.411  10.230 -0.2103 -1.3880  0.4596
   96MOL0     H12634   3.247   1.167  10.491  0.1844  0.6586 -0.0381
   96MOL0     H12635   3.475   1.074  10.470 -2.3661 -0.8044  0.0711
   96MOL0     H12636   3.925   1.067  10.464  0.8820  0.4288  1.8034
   96MOL0     H12637   4.147   0.980  10.413 -0.4233  2.3454  3.4078
   96MOL0     H12638   4.334   1.176  10.045  0.6002  1.4580 -1.0305
   96MOL0     H12639   4.426   1.039  10.089  0.4055 -0.1989  1.9744
   96MOL0     H12640   4.547   1.183  10.260 -1.4791 -0.2460 -0.2931
   96MOL0     H12641   4.469   1.325  10.186 -1.0996 -0.7239  0.1873
   96MOL0     H12642   4.580   1.292   9.971  4.2372 -1.4736 -2.3850
   96MOL0     H12643   4.638   1.144  10.018  0.8174 -0.5330  0.7840
   96MOL0     H12644   4.747   1.374  10.180  1.4591  0.5037  0.8149
   96MOL0     H12645   4.759   1.209  10.216  0.1246  0.0636  0.3159
   96MOL0     H12646   4.857   1.165   9.982 -2.1549 -0.5840  1.7157
   96MOL0     H12647   4.954   1.224  10.124 -0.4607 -0.0343 -0.5639
   96MOL0     H12648   4.828   1.421   9.919  0.1667  0.5076 -0.9454
   96MOL0     H12649   5.005   1.377   9.898  0.2959  1.8615  0.2518
   96MOL0     H12650   4.870   1.538  10.121 -0.8346  0.0688 -0.9728
   96MOL0     H12651   5.020   1.456  10.141 -0.3752  0.4766 -0.5417
   96MOL0     H12652   5.131   1.563   9.964 -1.4688 -1.0738 -1.5417
   96MOL0     H12653   5.082   1.684  10.078 -1.1566 -0.5583  1.0796
   96MOL0     H12654   4.193   1.332  10.154  1.3147 -1.9033 -0.4998
   96MOL0     H12655   3.974   1.378  10.172  1.3041 -0.6643 -1.2372
   96MOL0     H12656   3.611   1.462  10.318 -0.3556  1.5182  3.0914
   96MOL0     H12657   3.404   1.551  10.378 -0.8618  0.3890  1.1754
   96MOL0     H12658   3.316   1.425  10.707  1.3425  1.7321 -3.0698
   96MOL0     H12659   3.399   1.291  10.913  3.1152 -2.4117  1.8345
   96MOL0     H12660   3.896   1.277  11.160  2.2814  0.8375  3.2442
   96MOL0     H12661   4.014   1.168  11.316 -0.5923  3.7877  1.0918
   96MOL0     H12662   3.858   0.796  11.421 -1.5884  2.6559  0.7143
   96MOL0     H12663   3.964   0.783  11.559 -1.0209  0.3351 -0.1060
   96MOL0     H12664   4.058   0.711  11.339  0.5589 -1.6584  2.0357
   96MOL0     H12665   4.050   0.876  11.279 -0.0339  0.5494  0.3407
   96MOL0     H12666   4.215   0.806  11.531  0.4694  1.3232  0.7248
   96MOL0     H12667   4.189   0.962  11.457 -0.4140 -0.4221  2.4285
   96MOL0     H12668   4.415   0.847  11.432 -1.4936 -0.4669  0.9113
   96MOL0     H12669   4.337   0.723  11.327 -1.6427  1.2713 -3.3331
   96MOL0     H12670   4.377   1.021  11.044 -2.2002  2.2424  1.4263
   96MOL0     H12671   3.686   0.959  11.462 -1.6017  0.5720 -0.1167
   96MOL0     H12672   3.531   1.072  11.276 -0.5701  2.1054 -0.0855
   97MOL0     O12673   1.848   5.348   6.816 -0.3173 -0.0490 -0.1171
   97MOL0     C12674   1.945   5.404   6.759 -0.6464  0.4577  0.6006
   97MOL0     O12675   1.940   5.504   6.664 -0.4225 -0.3011  0.9939
   97MOL0     C12676   1.811   5.548   6.630  0.8991  0.5010  0.5196
   97MOL0     C12677   1.798   5.583   6.496 -1.0596  0.1697  0.0920
   97MOL0     C12678   1.684   5.633   6.440 -0.3605 -0.1007 -0.6586
   97MOL0     C12679   1.576   5.647   6.528  0.0491 -0.6233  0.1795
   97MOL0     O12680   1.449   5.694   6.481  0.2419  0.0052 -0.0296
   97MOL0     C12681   1.412   5.660   6.349 -0.1733 -0.8387 -0.6775
   97MOL0     C12682   1.256   5.656   6.337  0.8913  0.2932  0.4702
   97MOL0     C12683   1.200   5.570   6.227 -0.3211  0.5856 -0.0895
   97MOL0     C12684   1.046   5.583   6.218  0.0850 -0.3443 -0.1097
   97MOL0     C12685   0.997   5.724   6.188  0.2317  0.0293 -0.1082
   97MOL0     C12686   0.854   5.714   6.128 -1.3928 -0.1038  0.5269
   97MOL0     C12687   0.768   5.846   6.129  0.3871 -0.0957 -0.1025
   97MOL0     C12688   0.676   5.851   6.253 -0.5525 -0.1103  0.8679
   97MOL0     N12689   0.563   5.760   6.231 -0.4403  0.6355  0.4765
   97MOL0     C12690   0.473   5.765   6.126 -0.3019 -0.3236 -0.5407
   97MOL0     C12691   0.388   5.662   6.142 -0.3772  0.3490  0.5620
   97MOL0     C12692   0.272   5.627   6.046 -0.5161 -1.0255 -0.3116
   97MOL0     C12693   0.339   5.580   5.906  0.8508  0.4882 -0.7098
   97MOL0     C12694   0.232   5.546   5.808  0.5956  0.1699  1.0633
   97MOL0     C12695   0.156   5.416   5.829  0.7187 -0.6908 -0.7116
   97MOL0     O12696   0.109   5.364   5.703  0.0050  0.4514  0.3539
   97MOL0     C12697  -0.016   5.405   5.664  0.2372  0.2769  0.4246
   97MOL0     C12698  -0.109   5.302   5.659 -0.1399 -0.1959  0.1867
   97MOL0     C12699  -0.231   5.331   5.608  0.4092  0.6502  0.7600
   97MOL0     C12700  -0.266   5.455   5.548 -0.1614  0.0755 -0.3420
   97MOL0     C12701  -0.408   5.479   5.501  0.4695  0.0197 -0.3595
   97MOL0     O12702  -0.485   5.367   5.475  0.1040  0.7445 -0.6055
   97MOL0     C12703  -0.616   5.395   5.437 -1.5193  0.6755 -0.5308
   97MOL0     C12704  -0.673   5.346   5.320  0.4123 -0.4344 -0.2898
   97MOL0     C12705  -0.816   5.368   5.304  0.3532  0.0779  0.7460
   97MOL0     C12706  -0.890   5.438   5.400  0.5539  0.7586  0.0738
   97MOL0     O12707  -1.022   5.457   5.363 -0.5482 -0.0584 -0.5907
   97MOL0     C12708  -1.119   5.515   5.460 -0.9398  0.2517 -0.0481
   97MOL0     C12709  -1.252   5.504   5.393  0.3069  0.1371 -0.1894
   97MOL0     C12710  -1.357   5.538   5.493 -0.3284  0.2774  0.5019
   97MOL0     C12711  -1.504   5.556   5.451 -0.0531 -0.3938  0.0854
   97MOL0     C12712  -1.559   5.420   5.392  0.3845 -0.6343  0.6277
   97MOL0     C12713  -1.712   5.423   5.353 -0.2040 -0.4022 -0.7263
   97MOL0     C12714  -1.738   5.534   5.254 -0.2315 -0.0551 -0.8481
   97MOL0     C12715  -1.886   5.527   5.199 -0.0672  0.8794  0.1695
   97MOL0    Cl12716  -1.988   5.646   5.289  0.1897  0.3607  0.3319
   97MOL0     C12717  -0.827   5.500   5.514 -0.4687  0.0544  0.1386
   97MOL0     C12718  -0.693   5.471   5.525  0.0559 -0.6411  0.8963
   97MOL0     O12719  -0.430   5.595   5.465 -0.9081 -0.8148  0.5156
   97MOL0     C12720  -0.164   5.544   5.534 -0.3017 -0.5108 -0.1002
   97MOL0     C12721  -0.035   5.519   5.599 -0.0169 -0.2062  0.1220
   97MOL0     N12722   0.440   5.582   6.251  0.5914 -0.0671 -0.6907
   97MOL0     N12723   0.552   5.642   6.290  0.3339  0.7977  0.7642
   97MOL0     C12724   1.588   5.630   6.664  0.1284  0.3849  0.0062
   97MOL0     C12725   1.705   5.585   6.717 -0.1425  0.3246  1.0936
   97MOL0     C12726   2.081   5.355   6.801  0.6906 -1.2691  0.7462
   97MOL0     C12727   2.096   5.246   6.876 -0.6280 -0.7668 -0.1664
   97MOL0     C12728   2.215   5.221   6.938  0.2273 -0.2511 -0.5958
   97MOL0     C12729   2.331   5.300   6.912  0.7417 -0.1252  0.2941
   97MOL0     O12730   2.450   5.259   6.970 -0.2078  0.1051 -0.1816
   97MOL0     C12731   2.572   5.327   6.938 -0.0873 -0.5937 -0.1261
   97MOL0     C12732   2.692   5.244   6.941 -0.0732 -0.0908  0.4138
   97MOL0     C12733   2.827   5.318   6.964 -0.5983  0.3675 -0.3835
   97MOL0     C12734   2.879   5.388   6.838 -0.5630 -0.5013  1.1310
   97MOL0     C12735   2.953   5.509   6.874  0.3019  0.5071  0.2351
   97MOL0     C12736   3.032   5.593   6.912  0.5640 -0.4453 -0.2116
   97MOL0     C12737   2.319   5.407   6.814 -0.0079  0.2319 -0.3053
   97MOL0     C12738   2.194   5.430   6.757  0.1887  0.2193  0.6236
   97MOL0     H12739   1.882   5.559   6.431 -0.3536 -2.1416  1.7523
   97MOL0     H12740   1.677   5.660   6.336  1.5034 -0.2245 -0.8472
   97MOL0     H12741   1.461   5.565   6.330  1.6501 -0.5068  1.8831
   97MOL0     H12742   1.456   5.743   6.292  1.7581  1.4067  3.6245
   97MOL0     H12743   1.227   5.760   6.319 -0.0994  0.5116  2.9279
   97MOL0     H12744   1.201   5.629   6.428 -0.3749  1.3998  0.0683
   97MOL0     H12745   1.224   5.463   6.234  0.9137  0.8071 -0.6119
   97MOL0     H12746   1.238   5.600   6.129  0.3873 -0.3816 -0.1302
   97MOL0     H12747   1.007   5.525   6.134  1.5308  0.4433 -1.3975
   97MOL0     H12748   1.006   5.554   6.315  1.5301 -0.2575  0.5434
   97MOL0     H12749   1.059   5.781   6.118  0.7608  1.4262  1.4323
   97MOL0     H12750   0.992   5.787   6.278 -0.2957  2.5792 -1.8315
   97MOL0     H12751   0.800   5.632   6.176  0.9292 -1.2556  1.3439
   97MOL0     H12752   0.867   5.700   6.020 -0.0859  3.0198  0.1691
   97MOL0     H12753   0.826   5.939   6.124  1.2506 -0.5211  1.4968
   97MOL0     H12754   0.693   5.840   6.050 -0.1530 -1.1836  0.4759
   97MOL0     H12755   0.635   5.952   6.253 -1.2218 -0.3658  0.2203
   97MOL0     H12756   0.736   5.827   6.340 -2.5552 -2.8362  1.6566
   97MOL0     H12757   0.465   5.848   6.056  1.0592 -1.1553 -1.7408
   97MOL0     H12758   0.219   5.721   6.027 -1.2390 -0.4991  3.5148
   97MOL0     H12759   0.201   5.552   6.082 -0.8718 -0.8924 -0.7301
   97MOL0     H12760   0.390   5.488   5.934 -2.9365 -1.0844  1.7218
   97MOL0     H12761   0.418   5.647   5.870  1.5751  1.1811  1.9714
   97MOL0     H12762   0.154   5.623   5.808 -2.8773 -2.9032  4.3542
   97MOL0     H12763   0.293   5.540   5.718 -0.4370 -0.0535  0.3612
   97MOL0     H12764   0.074   5.430   5.900  2.7030 -3.1998  2.3851
   97MOL0     H12765   0.216   5.348   5.891 -0.2929 -0.4770  0.5465
   97MOL0     H12766  -0.082   5.207   5.704  1.1417  0.6757  1.3221
   97MOL0     H12767  -0.298   5.245   5.605  0.9210  0.1385  2.5241
   97MOL0     H12768  -0.611   5.295   5.247  1.0595  0.8730 -0.6823
   97MOL0     H12769  -0.873   5.345   5.214 -0.6146 -0.8008  1.5690
   97MOL0     H12770  -1.085   5.614   5.490 -3.1342  1.3897 -1.0971
   97MOL0     H12771  -1.129   5.451   5.548 -0.4666 -0.7857 -0.7239
   97MOL0     H12772  -1.268   5.411   5.337  0.5530  1.5682 -2.8072
   97MOL0     H12773  -1.253   5.581   5.315 -3.8485  1.0494  0.5051
   97MOL0     H12774  -1.333   5.627   5.551  4.2256 -0.3248 -0.0830
   97MOL0     H12775  -1.348   5.457   5.567  1.2615  2.5707  3.0111
   97MOL0     H12776  -1.565   5.588   5.536 -0.6519  1.9311 -1.1069
   97MOL0     H12777  -1.497   5.642   5.383 -0.8708 -2.0236 -2.1811
   97MOL0     H12778  -1.545   5.334   5.458 -0.5031 -2.9504 -2.0120
   97MOL0     H12779  -1.500   5.391   5.304  1.5278  1.7752  0.5001
   97MOL0     H12780  -1.753   5.441   5.453  1.7675 -0.4940  0.1477
   97MOL0     H12781  -1.744   5.322   5.327  3.3965 -2.6921  2.6525
   97MOL0     H12782  -1.711   5.633   5.292  2.4082 -0.5831 -1.1444
   97MOL0     H12783  -1.677   5.508   5.167  1.9200 -0.8058  0.7960
   97MOL0     H12784  -1.931   5.429   5.216  2.7891 -0.3269  1.4730
   97MOL0     H12785  -1.880   5.549   5.092  4.2690 -0.2099 -0.0337
   97MOL0     H12786  -0.881   5.556   5.589 -0.9279 -3.3767  2.5930
   97MOL0     H12787  -0.656   5.511   5.618  3.9747 -0.8163 -0.4033
   97MOL0     H12788  -0.166   5.633   5.472  1.5950 -0.7827 -0.6251
   97MOL0     H12789   0.045   5.592   5.592 -1.7989  1.7983 -0.5741
   97MOL0     H12790   1.511   5.680   6.722 -0.1120 -0.3370  0.3115
   97MOL0     H12791   1.710   5.575   6.825 -0.8771  1.2066  1.2222
   97MOL0     H12792   2.012   5.180   6.891  0.8393 -2.5833  0.4319
   97MOL0     H12793   2.229   5.138   7.006  0.3124  2.1078  2.4693
   97MOL0     H12794   2.580   5.410   7.009 -2.6458  0.8500 -1.3910
   97MOL0     H12795   2.577   5.378   6.841 -0.5028  1.5649  0.9213
   97MOL0     H12796   2.692   5.169   7.020  0.9483 -2.0089 -1.2838
   97MOL0     H12797   2.701   5.199   6.841  0.9285 -0.3786  0.6217
   97MOL0     H12798   2.909   5.261   7.008  0.3781  0.5606 -1.8397
   97MOL0     H12799   2.817   5.395   7.040  0.5719  0.9008 -0.7465
   97MOL0     H12800   2.950   5.326   6.782  2.3655  4.8054 -1.9081
   97MOL0     H12801   2.799   5.417   6.770  0.2998  3.6026  1.6156
   97MOL0     H12802   3.110   5.655   6.951  2.7194 -2.3045 -1.3333
   97MOL0     H12803   2.404   5.462   6.774  0.6973 -1.3613 -1.1156
   97MOL0     H12804   2.192   5.495   6.670  2.5710 -0.8810 -0.3558
   98MOL0     O12805   2.307   0.679   2.342  0.5859 -0.1756  0.7363
   98MOL0     C12806   2.271   0.782   2.390  0.6187 -0.2360 -0.3028
   98MOL0     O12807   2.309   0.823   2.522  0.1299  0.3661  0.0448
   98MOL0     C12808   2.414   0.754   2.581 -0.4965 -0.8019  0.5870
   98MOL0     C12809   2.556   0.789   2.562  0.2449  0.0755 -0.4345
   98MOL0     C12810   2.656   0.730   2.642 -0.5581 -0.0770 -0.4087
   98MOL0     C12811   2.622   0.639   2.740  0.6164  0.8598 -0.3553
   98MOL0     O12812   2.735   0.585   2.806  0.0277 -0.6138 -0.0313
   98MOL0     C12813   2.729   0.498   2.918  0.3293  0.3493 -0.0423
   98MOL0     C12814   2.693   0.579   3.045 -0.3368  0.7912 -0.7480
   98MOL0     C12815   2.767   0.721   3.070 -0.5715  0.3750 -0.0566
   98MOL0     C12816   2.918   0.714   3.054  0.6244 -0.0283 -0.1747
   98MOL0     C12817   2.980   0.859   3.053  0.5647  0.5757  0.4824
   98MOL0     C12818   3.125   0.863   3.007  0.5447  0.2691 -0.0336
   98MOL0     C12819   3.197   0.998   3.035  0.4444  0.4260 -0.2371
   98MOL0     C12820   3.305   1.030   2.936 -0.7292 -0.6248 -0.4160
   98MOL0     N12821   3.352   1.174   2.953  0.6195 -1.1456 -0.2205
   98MOL0     C12822   3.405   1.254   2.852  0.2037  0.0927 -0.0840
   98MOL0     C12823   3.436   1.369   2.917 -1.0028  0.9465  0.2009
   98MOL0     C12824   3.454   1.498   2.833  1.2571  0.2945 -0.4700
   98MOL0     C12825   3.602   1.489   2.789  0.0118 -0.1546  0.4204
   98MOL0     C12826   3.720   1.475   2.890 -0.8589 -0.0468 -0.3409
   98MOL0     C12827   3.736   1.596   2.975 -0.4903  0.1307  0.4218
   98MOL0     O12828   3.797   1.704   2.902  0.8965  0.2413 -0.5056
   98MOL0     C12829   3.915   1.713   2.845 -0.3324  0.2657 -0.1787
   98MOL0     C12830   4.026   1.628   2.877 -0.5933  0.0864 -0.4259
   98MOL0     C12831   4.154   1.653   2.833  0.6571 -0.6455  0.3947
   98MOL0     C12832   4.176   1.765   2.748 -0.4331 -0.1044 -0.7447
   98MOL0     C12833   4.305   1.799   2.699 -0.9367 -0.0997  0.3329
   98MOL0     O12834   4.314   1.918   2.635 -0.3497  0.3174 -0.3316
   98MOL0     C12835   4.426   1.970   2.576 -0.0512 -0.6278 -1.4073
   98MOL0     C12836   4.547   1.960   2.645 -0.2818 -0.5456 -0.2962
   98MOL0     C12837   4.663   1.991   2.576 -0.7958 -0.7432 -0.2817
   98MOL0     C12838   4.662   2.069   2.458  0.1462  0.8928  0.2207
   98MOL0     O12839   4.779   2.118   2.418  0.8565 -0.7841 -0.0951
   98MOL0     C12840   4.788   2.156   2.281  0.0333 -0.1603 -0.0968
   98MOL0     C12841   4.937   2.186   2.245  0.2130  0.1953  0.4989
   98MOL0     C12842   4.988   2.315   2.307  0.7436 -0.1756  0.2699
   98MOL0     C12843   5.136   2.329   2.276  0.5821  1.6518 -0.3732
   98MOL0     C12844   5.180   2.459   2.343 -0.3306  0.1911  0.2534
   98MOL0     C12845   5.330   2.479   2.290  0.1490  0.5616  0.1606
   98MOL0     C12846   5.410   2.573   2.386  0.6088  0.4914  0.2090
   98MOL0     C12847   5.563   2.570   2.376  0.6221  1.0494 -0.9705
   98MOL0    Cl12848   5.635   2.441   2.469  0.1133  0.3900  0.1156
   98MOL0     C12849   4.542   2.079   2.388 -0.4496 -0.2221  0.2837
   98MOL0     C12850   4.423   2.029   2.447  0.6941  0.4408  0.0691
   98MOL0     O12851   4.398   1.716   2.715  0.6728 -0.2842  0.0580
   98MOL0     C12852   4.066   1.840   2.719  0.1333 -0.9315  0.1333
   98MOL0     C12853   3.934   1.817   2.763 -0.5643  0.2387  0.4935
   98MOL0     N12854   3.420   1.340   3.043  0.8022 -0.7139  0.4316
   98MOL0     N12855   3.382   1.229   3.072 -0.7029 -0.1830  0.3065
   98MOL0     C12856   2.486   0.604   2.751  0.1406 -0.0367 -0.5186
   98MOL0     C12857   2.381   0.664   2.672  0.3679  0.2634 -0.3643
   98MOL0     C12858   2.158   0.851   2.323 -0.1117 -0.5772  0.3471
   98MOL0     C12859   2.105   0.970   2.384  0.7026  0.4014  0.4533
   98MOL0     C12860   1.986   1.030   2.333 -0.6665  0.2842 -0.4174
   98MOL0     C12861   1.920   0.980   2.220 -1.0406 -0.2925  0.0862
   98MOL0     O12862   1.809   1.038   2.166 -0.0137 -0.7342 -0.5073
   98MOL0     C12863   1.759   0.988   2.040 -0.2483 -0.9518 -0.3928
   98MOL0     C12864   1.657   1.093   1.984  0.1948 -0.2395  0.2341
   98MOL0     C12865   1.550   1.017   1.908 -0.2446 -0.9985  0.3414
   98MOL0     C12866   1.456   1.127   1.840 -0.3381  0.5753  0.6994
   98MOL0     C12867   1.511   1.187   1.716 -0.2440 -0.2779  0.2834
   98MOL0     C12868   1.543   1.243   1.611 -1.0216  0.6624 -0.7277
   98MOL0     C12869   1.979   0.866   2.163  0.4889  0.3049 -0.0629
   98MOL0     C12870   2.089   0.797   2.211  0.3147  0.0762 -0.1199
   98MOL0     H12871   2.580   0.865   2.488 -1.2712  0.5301 -0.4760
   98MOL0     H12872   2.758   0.759   2.619 -0.2769 -0.4367  0.3434
   98MOL0     H12873   2.830   0.455   2.926  0.8884  1.9242  2.9400
   98MOL0     H12874   2.673   0.405   2.908  2.4237 -0.7226 -3.8821
   98MOL0     H12875   2.717   0.510   3.126  1.7885  0.2611 -1.7562
   98MOL0     H12876   2.586   0.602   3.037 -0.8134 -1.8543 -3.9612
   98MOL0     H12877   2.757   0.750   3.175  1.1871  1.5031 -0.1587
   98MOL0     H12878   2.725   0.798   3.005 -0.0879  0.9330  0.2728
   98MOL0     H12879   2.968   0.648   3.125  1.2521 -0.5902 -1.1051
   98MOL0     H12880   2.934   0.669   2.955 -0.6412  1.1317 -0.9475
   98MOL0     H12881   2.967   0.894   3.156 -1.2285 -0.8874  0.7930
   98MOL0     H12882   2.920   0.923   2.988 -2.5934 -2.1399  0.4288
   98MOL0     H12883   3.136   0.837   2.901 -1.1895  0.6698 -0.3472
   98MOL0     H12884   3.174   0.779   3.059 -1.6404 -0.5595  0.8036
   98MOL0     H12885   3.130   1.085   3.031 -1.7026 -1.1451 -0.3724
   98MOL0     H12886   3.230   0.987   3.139 -1.1232  2.9709  0.6269
   98MOL0     H12887   3.261   1.022   2.836 -2.6338 -1.0457  0.4132
   98MOL0     H12888   3.385   0.961   2.963 -0.6983 -1.2783 -2.0309
   98MOL0     H12889   3.401   1.228   2.746 -0.0056  0.7366 -0.2357
   98MOL0     H12890   3.440   1.591   2.889 -1.0199 -0.6524  0.6499
   98MOL0     H12891   3.380   1.494   2.753  1.1377 -1.7451 -0.3126
   98MOL0     H12892   3.619   1.574   2.722 -4.4398 -0.9712 -2.1691
   98MOL0     H12893   3.608   1.400   2.727  1.6750  0.6961 -0.6957
   98MOL0     H12894   3.708   1.380   2.942 -0.2022  0.7493  1.3269
   98MOL0     H12895   3.812   1.463   2.833 -2.9257 -1.5233 -3.6970
   98MOL0     H12896   3.798   1.575   3.063 -1.1545  1.1979  1.1729
   98MOL0     H12897   3.638   1.612   3.023 -0.9722 -3.5852  0.9821
   98MOL0     H12898   4.018   1.553   2.955  2.0465  1.0166  0.8655
   98MOL0     H12899   4.227   1.577   2.856  1.4097 -0.2308 -0.5584
   98MOL0     H12900   4.561   1.906   2.738 -0.2863 -4.7070 -2.4818
   98MOL0     H12901   4.758   1.959   2.617 -0.0396  1.6156 -0.0154
   98MOL0     H12902   4.739   2.253   2.268  3.8838  2.1073  0.4636
   98MOL0     H12903   4.761   2.076   2.212 -0.7279  1.1622 -1.4014
   98MOL0     H12904   4.920   2.189   2.137 -3.3581  0.9933  0.9324
   98MOL0     H12905   4.997   2.102   2.282 -1.2019 -0.9232  0.3862
   98MOL0     H12906   4.981   2.316   2.416 -0.1073  0.0862  0.2180
   98MOL0     H12907   4.942   2.407   2.271 -1.6892 -1.8222 -1.1574
   98MOL0     H12908   5.193   2.244   2.312 -2.4899  0.0593  1.1727
   98MOL0     H12909   5.136   2.335   2.167 -1.8766 -2.8210 -0.8400
   98MOL0     H12910   5.185   2.458   2.452  2.8819  1.4511  0.2366
   98MOL0     H12911   5.107   2.536   2.315 -1.3351 -0.5392  0.8244
   98MOL0     H12912   5.343   2.505   2.185  2.8797 -2.7670 -0.5047
   98MOL0     H12913   5.385   2.386   2.304 -1.1383 -0.2745 -0.1112
   98MOL0     H12914   5.370   2.674   2.366 -2.7577 -0.5787  0.8476
   98MOL0     H12915   5.374   2.539   2.483 -2.2067 -1.7545 -1.4591
   98MOL0     H12916   5.596   2.666   2.416 -0.7093  1.1609 -0.0791
   98MOL0     H12917   5.592   2.557   2.271 -0.0138 -0.6850 -0.9635
   98MOL0     H12918   4.531   2.135   2.296  2.3254 -0.6191 -0.3775
   98MOL0     H12919   4.330   2.042   2.393  1.2211 -0.6192 -1.1723
   98MOL0     H12920   4.078   1.927   2.656  3.4666 -3.5410 -3.2702
   98MOL0     H12921   3.843   1.860   2.721 -1.0739 -0.3521  0.9683
   98MOL0     H12922   2.464   0.539   2.835  0.0463  0.3772 -0.2188
   98MOL0     H12923   2.277   0.635   2.688  0.6251 -0.3755  0.1783
   98MOL0     H12924   2.163   1.004   2.469 -0.8960 -1.5360  2.4537
   98MOL0     H12925   1.950   1.111   2.397  2.5781  0.8954  0.8037
   98MOL0     H12926   1.715   0.890   2.063 -0.8276 -0.7766 -0.7423
   98MOL0     H12927   1.842   0.979   1.969 -0.6326 -2.5869 -0.6781
   98MOL0     H12928   1.604   1.146   2.064  1.1647 -0.0923  0.7966
   98MOL0     H12929   1.716   1.168   1.930  1.3321  0.0403  1.7892
   98MOL0     H12930   1.481   0.978   1.983 -4.1403  1.9927 -1.3538
   98MOL0     H12931   1.584   0.931   1.849 -0.9261 -1.4871  0.6511
   98MOL0     H12932   1.354   1.092   1.826 -1.4300  3.0418  1.8580
   98MOL0     H12933   1.440   1.206   1.914  2.5276  1.4805  0.4799
   98MOL0     H12934   1.577   1.274   1.515  3.3744 -1.3182 -0.0572
   98MOL0     H12935   1.927   0.808   2.087 -1.3645  3.3527 -1.2799
   98MOL0     H12936   2.118   0.703   2.163 -2.0108  0.6050 -2.8392
   99MOL0     O12937   6.894   4.683   1.143  0.2702 -0.1952  0.5010
   99MOL0     C12938   6.910   4.593   1.222  0.8266 -0.0172 -0.0492
   99MOL0     O12939   7.021   4.566   1.298  0.2935 -0.1110 -0.6516
   99MOL0     C12940   7.141   4.632   1.263 -1.0177  0.4319  0.9028
   99MOL0     C12941   7.187   4.644   1.133  0.1599 -0.8074  0.2744
   99MOL0     C12942   7.303   4.710   1.103  0.8180 -0.2135  0.0600
   99MOL0     C12943   7.384   4.750   1.210 -0.1824 -0.3928  0.2591
   99MOL0     O12944   7.492   4.839   1.206 -0.2870  0.3380 -0.2819
   99MOL0     C12945   7.513   4.894   1.080 -0.0571 -1.3795  0.2217
   99MOL0     C12946   7.613   5.013   1.075 -0.4035 -0.1660 -0.9949
   99MOL0     C12947   7.552   5.153   1.099 -0.8260 -0.5587  0.0460
   99MOL0     C12948   7.479   5.180   1.231 -0.3453  0.5794  1.0453
   99MOL0     C12949   7.409   5.305   1.217  0.0577  1.2884  0.2506
   99MOL0     C12950   7.346   5.361   1.348 -0.4428 -0.4181 -0.2296
   99MOL0     C12951   7.236   5.466   1.322  0.3584  0.8042  0.4751
   99MOL0     C12952   7.091   5.418   1.352 -0.1761 -0.7046  0.8472
   99MOL0     N12953   6.980   5.521   1.330 -0.3696 -0.1883  0.4263
   99MOL0     C12954   6.974   5.647   1.383 -0.3620  0.3159  0.1100
   99MOL0     C12955   6.858   5.693   1.328  1.1338 -0.0848 -0.6111
   99MOL0     C12956   6.784   5.810   1.381  0.2227  0.6443 -0.0012
   99MOL0     C12957   6.654   5.761   1.457  0.5816 -0.6869 -0.4001
   99MOL0     C12958   6.568   5.865   1.530  0.2537 -0.4793 -0.2968
   99MOL0     C12959   6.452   5.799   1.595 -0.0346  0.2250 -0.6908
   99MOL0     O12960   6.390   5.905   1.674  0.2973  0.7939  0.2312
   99MOL0     C12961   6.275   5.875   1.752 -0.0298 -0.2117  0.4672
   99MOL0     C12962   6.216   5.980   1.824 -0.0274  0.5758 -0.7574
   99MOL0     C12963   6.099   5.960   1.900 -0.2068  0.3947 -0.2063
   99MOL0     C12964   6.055   5.825   1.919 -0.2151  0.0222  0.4636
   99MOL0     C12965   5.934   5.800   1.996  0.3152  0.1492  0.2406
   99MOL0     O12966   5.890   5.674   1.995  0.4986 -0.6539 -0.3495
   99MOL0     C12967   5.768   5.640   2.054  0.9323 -0.0666  0.0738
   99MOL0     C12968   5.770   5.531   2.141 -0.0369 -0.5088  0.1057
   99MOL0     C12969   5.652   5.502   2.214  1.0483  0.0076  0.7345
   99MOL0     C12970   5.532   5.570   2.202  0.6818 -0.6922 -0.2631
   99MOL0     O12971   5.421   5.541   2.275 -0.0054 -0.0809  0.0510
   99MOL0     C12972   5.297   5.617   2.251  0.7217 -0.3609 -0.5427
   99MOL0     C12973   5.221   5.595   2.380  0.1093 -0.1235  0.1919
   99MOL0     C12974   5.080   5.672   2.385  0.0380  0.7215  0.4990
   99MOL0     C12975   4.989   5.593   2.487  0.6986  0.4895  0.2174
   99MOL0     C12976   4.840   5.611   2.475  0.9250 -0.2850 -1.0859
   99MOL0     C12977   4.777   5.587   2.612  0.9700 -0.4498  1.8654
   99MOL0     C12978   4.620   5.593   2.596  0.4887 -0.4746 -0.4475
   99MOL0     C12979   4.560   5.541   2.730  0.4007  0.0887  0.0591
   99MOL0    Cl12980   4.385   5.534   2.709 -0.2445  0.5526 -0.0543
   99MOL0     C12981   5.528   5.670   2.100  0.2517  0.2855  0.1944
   99MOL0     C12982   5.646   5.707   2.021 -0.9429  0.1008  0.6657
   99MOL0     O12983   5.889   5.891   2.062 -0.8705 -0.6273  0.2893
   99MOL0     C12984   6.117   5.717   1.856  0.3697  0.1387  0.2815
   99MOL0     C12985   6.225   5.744   1.764  0.3543  0.4746  0.8211
   99MOL0     N12986   6.805   5.615   1.229  0.5419  0.9381 -0.3294
   99MOL0     N12987   6.871   5.510   1.243 -1.0051  0.4709  0.0602
   99MOL0     C12988   7.344   4.721   1.344  1.0221  0.0467  0.0482
   99MOL0     C12989   7.216   4.670   1.370 -1.0736 -0.0746  0.0500
   99MOL0     C12990   6.807   4.492   1.236 -0.1688  0.5078 -0.5952
   99MOL0     C12991   6.679   4.516   1.169  0.3278 -0.3387  0.4786
   99MOL0     C12992   6.566   4.428   1.194  0.2368 -0.8603 -0.3364
   99MOL0     C12993   6.577   4.328   1.285  0.6101 -0.1418  0.3171
   99MOL0     O12994   6.467   4.248   1.294  0.8314  0.4012  0.1645
   99MOL0     C12995   6.493   4.115   1.339  0.1817  0.2706  0.6304
   99MOL0     C12996   6.365   4.039   1.363  0.4671 -0.0403 -0.5788
   99MOL0     C12997   6.294   4.030   1.233 -0.7782  0.1860 -0.5086
   99MOL0     C12998   6.168   3.940   1.249  0.3116 -0.0039 -0.0831
   99MOL0     C12999   6.075   3.974   1.344 -0.3021  0.4732 -0.7611
   99MOL0     C13000   5.981   4.005   1.417  0.0250 -0.1473  0.1068
   99MOL0     C13001   6.696   4.302   1.349  0.1780  0.0526 -0.2262
   99MOL0     C13002   6.809   4.389   1.326 -0.2338  0.5446  0.2685
   99MOL0     H13003   7.127   4.609   1.050 -2.1466  3.7367 -0.3135
   99MOL0     H13004   7.342   4.732   1.004  0.2665 -1.9060 -0.5611
   99MOL0     H13005   7.420   4.925   1.031  1.8136 -1.9073 -4.1404
   99MOL0     H13006   7.557   4.829   1.004  0.7481  1.7633 -2.2491
   99MOL0     H13007   7.660   5.006   0.976  0.6778 -4.3363 -0.3696
   99MOL0     H13008   7.697   5.005   1.145 -2.3863 -2.1261  1.2995
   99MOL0     H13009   7.486   5.181   1.016  0.3765  0.8286 -0.4825
   99MOL0     H13010   7.630   5.226   1.078 -0.9339 -1.0910 -2.4812
   99MOL0     H13011   7.400   5.105   1.243  1.0932 -1.0628  0.7017
   99MOL0     H13012   7.557   5.182   1.308  2.1333 -1.7709 -1.1871
   99MOL0     H13013   7.324   5.281   1.152  1.1327 -1.9522 -0.1710
   99MOL0     H13014   7.473   5.383   1.176  0.0619  0.7444 -0.8124
   99MOL0     H13015   7.427   5.409   1.404 -2.6734  1.6482  1.4523
   99MOL0     H13016   7.312   5.277   1.409  2.0449 -0.3483  1.4027
   99MOL0     H13017   7.260   5.556   1.380  2.9807  1.6865 -1.7268
   99MOL0     H13018   7.238   5.502   1.219  0.0958  0.5968  0.3983
   99MOL0     H13019   7.075   5.397   1.458  1.7467 -1.3788  1.0500
   99MOL0     H13020   7.075   5.322   1.303  0.9472 -0.2407 -0.4947
   99MOL0     H13021   7.031   5.694   1.463 -1.1297  2.7085 -0.6644
   99MOL0     H13022   6.748   5.874   1.300  0.8534  0.6457 -0.2831
   99MOL0     H13023   6.851   5.865   1.447  0.8015 -2.6449  2.4474
   99MOL0     H13024   6.690   5.700   1.541  1.1064  2.1251  1.5734
   99MOL0     H13025   6.601   5.701   1.382 -0.1221  1.1923 -1.4611
   99MOL0     H13026   6.628   5.914   1.608 -1.2275  1.9486 -0.5701
   99MOL0     H13027   6.526   5.935   1.457  1.5508  0.5700 -0.0752
   99MOL0     H13028   6.491   5.716   1.655 -0.2095  0.3333 -0.4281
   99MOL0     H13029   6.375   5.762   1.526  0.3374  0.3750 -1.1907
   99MOL0     H13030   6.247   6.082   1.804 -3.5045  1.7539 -0.7105
   99MOL0     H13031   6.047   6.036   1.956  0.9558  1.2257 -0.2263
   99MOL0     H13032   5.857   5.471   2.167 -0.8479 -1.4755  0.6309
   99MOL0     H13033   5.670   5.428   2.291 -0.3355 -1.2504 -0.0970
   99MOL0     H13034   5.228   5.593   2.169 -2.8023 -1.6932  2.5107
   99MOL0     H13035   5.308   5.725   2.261 -4.3057  0.1587  3.5677
   99MOL0     H13036   5.279   5.632   2.465 -1.2259 -2.2188  2.1390
   99MOL0     H13037   5.204   5.491   2.409 -2.3438  0.7995  2.5460
   99MOL0     H13038   5.028   5.650   2.292  1.3606 -4.9019  0.7011
   99MOL0     H13039   5.089   5.779   2.404  0.1330  0.2088  4.0770
   99MOL0     H13040   4.993   5.484   2.488  0.8408  0.4377 -1.7444
   99MOL0     H13041   5.012   5.624   2.589 -1.1441  0.7922  0.5818
   99MOL0     H13042   4.784   5.554   2.400 -3.3735  0.8360  0.9656
   99MOL0     H13043   4.807   5.712   2.449  0.5151 -0.4105 -1.0603
   99MOL0     H13044   4.790   5.674   2.677 -1.2060  0.3855  1.2773
   99MOL0     H13045   4.808   5.496   2.666  2.2355  0.4917  2.7826
   99MOL0     H13046   4.585   5.696   2.585  0.8873 -0.3154 -0.2461
   99MOL0     H13047   4.585   5.531   2.513 -1.6104 -1.3126  0.9762
   99MOL0     H13048   4.594   5.614   2.804 -0.7749  2.7370 -1.8610
   99MOL0     H13049   4.598   5.441   2.751 -0.8168 -0.9267 -2.2353
   99MOL0     H13050   5.447   5.741   2.085  0.1835  0.7050  2.2388
   99MOL0     H13051   5.643   5.781   1.942  1.6419 -1.7741 -1.3575
   99MOL0     H13052   6.084   5.613   1.859 -1.2405  0.6193  2.4086
   99MOL0     H13053   6.271   5.652   1.728 -0.6268 -0.6269  2.2562
   99MOL0     H13054   7.414   4.741   1.425 -1.2820 -2.4510  2.8769
   99MOL0     H13055   7.194   4.644   1.473  4.6330 -1.3751  1.2934
   99MOL0     H13056   6.667   4.603   1.105 -2.0740  0.6306  2.1389
   99MOL0     H13057   6.469   4.457   1.156 -0.0343 -2.6494 -1.0550
   99MOL0     H13058   6.537   4.098   1.438 -1.3568 -1.9593  1.0145
   99MOL0     H13059   6.557   4.071   1.262 -1.2941 -0.2307 -0.3408
   99MOL0     H13060   6.384   3.939   1.404  0.2293  0.2907  0.3641
   99MOL0     H13061   6.302   4.093   1.434  0.2488 -0.2483 -0.6111
   99MOL0     H13062   6.362   3.988   1.159 -0.3870  3.6682 -2.3547
   99MOL0     H13063   6.260   4.127   1.194  1.1918  0.2030 -2.3965
   99MOL0     H13064   6.113   3.933   1.155 -0.2915 -2.1293  0.3744
   99MOL0     H13065   6.221   3.846   1.270  1.3605  0.9303  1.7543
   99MOL0     H13066   5.907   4.041   1.486 -0.9939  2.0894 -2.0031
   99MOL0     H13067   6.717   4.217   1.412  3.1709 -0.4523 -1.7266
   99MOL0     H13068   6.898   4.370   1.385  0.2214  0.9847 -0.2654
  100MOL0     O13069   5.109   1.317   5.068  0.5475  0.2080  0.3136
  100MOL0     C13070   5.021   1.334   5.134  0.6660 -0.0678 -0.2410
  100MOL0     O13071   5.006   1.281   5.260 -0.5730 -0.6678 -0.8102
  100MOL0     C13072   5.107   1.204   5.308 -0.2313 -0.0100  0.5152
  100MOL0     C13073   5.128   1.211   5.447 -0.2897  0.7810 -0.3655
  100MOL0     C13074   5.228   1.133   5.509 -0.0483  0.3629  0.5619
  100MOL0     C13075   5.301   1.043   5.441  0.3605 -0.9132 -1.0801
  100MOL0     O13076   5.390   0.955   5.493 -0.6030 -0.8331 -0.5668
  100MOL0     C13077   5.430   0.956   5.632 -1.3982 -0.9574 -0.5205
  100MOL0     C13078   5.327   0.892   5.715  0.0680  0.0321 -0.3709
  100MOL0     C13079   5.318   0.743   5.715  0.4627  0.9178 -0.8217
  100MOL0     C13080   5.215   0.694   5.821 -0.6758 -0.1356 -0.1708
  100MOL0     C13081   5.122   0.578   5.779 -0.3912 -0.8040 -0.0984
  100MOL0     C13082   5.004   0.561   5.874 -0.1896  0.3118  0.1665
  100MOL0     C13083   4.928   0.427   5.855  0.6064  0.7071 -0.4643
  100MOL0     C13084   4.799   0.432   5.936  0.7120 -1.1106 -0.3367
  100MOL0     N13085   4.740   0.297   5.927  0.6174  0.5970 -0.0367
  100MOL0     C13086   4.610   0.267   5.892  0.2725  0.0681  0.0903
  100MOL0     C13087   4.592   0.135   5.930 -0.5692 -0.2550 -0.1438
  100MOL0     C13088   4.478   0.028   5.910 -0.0396  0.1773  0.0621
  100MOL0     C13089   4.485  -0.039   5.771 -0.4079 -0.6706  0.1866
  100MOL0     C13090   4.416   0.035   5.656  0.6053 -0.3088 -0.2032
  100MOL0     C13091   4.415  -0.055   5.532  0.0405  0.3926  0.0537
  100MOL0     O13092   4.333  -0.174   5.563  0.2027  0.2980  0.9359
  100MOL0     C13093   4.193  -0.167   5.563  0.3817  0.2448  0.9661
  100MOL0     C13094   4.119  -0.047   5.554  0.4129  0.4061  0.0177
  100MOL0     C13095   3.987  -0.050   5.575 -0.3831  0.4835  0.2128
  100MOL0     C13096   3.927  -0.178   5.602  0.9770 -0.4067  0.7327
  100MOL0     C13097   3.778  -0.191   5.626 -0.3044  0.4552  0.0479
  100MOL0     O13098   3.730  -0.304   5.690 -0.5510 -0.6951  0.1609
  100MOL0     C13099   3.589  -0.316   5.703 -0.7669  0.3215  0.3191
  100MOL0     C13100   3.526  -0.296   5.826 -0.1219  1.0788  0.2588
  100MOL0     C13101   3.400  -0.339   5.844 -0.2736  1.0071 -0.2105
  100MOL0     C13102   3.331  -0.417   5.749  0.0035  0.0765 -0.0398
  100MOL0     O13103   3.203  -0.461   5.753  0.6199  0.2048  0.0623
  100MOL0     C13104   3.102  -0.416   5.842  0.7759  0.2301  0.0084
  100MOL0     C13105   2.964  -0.459   5.789 -0.4345 -0.2395 -0.7470
  100MOL0     C13106   2.848  -0.460   5.895 -0.1257  0.4865  0.4541
  100MOL0     C13107   2.724  -0.507   5.837  0.6890  0.6195 -0.0981
  100MOL0     C13108   2.609  -0.493   5.938  0.2930  0.4212  0.2085
  100MOL0     C13109   2.487  -0.579   5.893  0.6439 -0.0385  0.0707
  100MOL0     C13110   2.414  -0.516   5.774 -0.0104  0.2181 -0.1477
  100MOL0     C13111   2.258  -0.546   5.778  0.4412 -0.8848  0.6630
  100MOL0    Cl13112   2.237  -0.719   5.749 -0.6475  0.2523 -0.1223
  100MOL0     C13113   3.393  -0.437   5.624  0.5550 -0.3078  0.1198
  100MOL0     C13114   3.520  -0.384   5.602 -0.4567 -0.6831  0.6245
  100MOL0     O13115   3.710  -0.089   5.613  0.0972  0.0401  0.3183
  100MOL0     C13116   3.999  -0.301   5.608  0.4792 -1.2514 -0.1167
  100MOL0     C13117   4.135  -0.287   5.588  0.0305  0.4093  0.0155
  100MOL0     N13118   4.704   0.099   6.002 -0.5820 -0.1452  0.2375
  100MOL0     N13119   4.784   0.193   6.003  0.2187  0.2662 -0.3752
  100MOL0     C13120   5.291   1.042   5.303  0.5812 -0.2946 -0.1974
  100MOL0     C13121   5.197   1.118   5.233  0.5267  0.2877  0.1288
  100MOL0     C13122   4.919   1.432   5.085  0.4245 -0.9874  0.2631
  100MOL0     C13123   4.915   1.479   4.954 -0.4071  0.4314  0.0863
  100MOL0     C13124   4.815   1.564   4.908  0.7102  0.2568  0.9667
  100MOL0     C13125   4.717   1.610   4.998 -0.5609 -0.6360  0.3080
  100MOL0     O13126   4.611   1.683   4.959 -0.0877 -0.3693 -0.3276
  100MOL0     C13127   4.581   1.719   4.826 -0.2638 -0.6941 -1.0549
  100MOL0     C13128   4.560   1.868   4.825 -0.1780  0.0161 -0.0944
  100MOL0     C13129   4.448   1.926   4.917  0.5082 -0.2228  0.7003
  100MOL0     C13130   4.355   2.030   4.851  1.0311 -0.2155 -0.1540
  100MOL0     C13131   4.238   1.967   4.776 -0.5588 -1.1696  0.3994
  100MOL0     C13132   4.133   1.932   4.724 -0.4606  0.1160 -0.0301
  100MOL0     C13133   4.720   1.572   5.133  0.6056 -0.0425 -0.9499
  100MOL0     C13134   4.817   1.484   5.172 -0.6090 -0.2591 -0.5682
  100MOL0     H13135   5.080   1.284   5.511 -3.0482 -0.3965 -0.9651
  100MOL0     H13136   5.245   1.132   5.616  3.1071  0.7777  0.1647
  100MOL0     H13137   5.446   1.052   5.682 -1.2231 -0.8800 -0.7259
  100MOL0     H13138   5.517   0.890   5.638 -1.8395 -1.5434 -0.4188
  100MOL0     H13139   5.227   0.926   5.684  0.7423 -0.5181 -3.3837
  100MOL0     H13140   5.342   0.922   5.820 -1.9057  0.4405 -0.1545
  100MOL0     H13141   5.418   0.703   5.733  0.0789  0.3016 -0.0226
  100MOL0     H13142   5.297   0.704   5.615  1.5533 -2.0464 -0.0044
  100MOL0     H13143   5.270   0.659   5.909 -0.3009  0.9222  0.0308
  100MOL0     H13144   5.147   0.774   5.852 -1.3107 -2.1435  4.5340
  100MOL0     H13145   5.182   0.488   5.764  1.4180  0.6171 -1.9575
  100MOL0     H13146   5.077   0.601   5.682  0.4809 -0.4740 -0.4386
  100MOL0     H13147   4.929   0.635   5.845 -1.6026 -1.3126 -0.4653
  100MOL0     H13148   5.037   0.573   5.978  3.2099 -1.0270 -0.6006
  100MOL0     H13149   4.905   0.403   5.751 -1.2385 -1.2290  0.3159
  100MOL0     H13150   4.981   0.344   5.902  3.4248  2.9996  0.7024
  100MOL0     H13151   4.742   0.516   5.895 -1.1766 -1.1395  1.9873
  100MOL0     H13152   4.827   0.464   6.037  1.1847  1.0249 -1.0961
  100MOL0     H13153   4.537   0.323   5.834  0.0111 -0.8515 -0.4820
  100MOL0     H13154   4.377   0.070   5.919 -0.5595 -0.9124 -0.5644
  100MOL0     H13155   4.482  -0.051   5.986  2.0953  0.7863  0.6565
  100MOL0     H13156   4.444  -0.140   5.781 -1.9658 -0.2068 -1.0832
  100MOL0     H13157   4.591  -0.042   5.745 -0.7204 -0.9344 -1.1218
  100MOL0     H13158   4.319   0.086   5.667 -0.3444 -1.7484 -1.4524
  100MOL0     H13159   4.484   0.118   5.636  0.1222  0.7509  2.1906
  100MOL0     H13160   4.508  -0.089   5.486 -1.6180 -0.5327 -2.9496
  100MOL0     H13161   4.365   0.009   5.458 -0.7951  0.4894  0.6827
  100MOL0     H13162   4.165   0.051   5.552  0.6318  0.4286  2.6325
  100MOL0     H13163   3.915   0.030   5.557 -1.3635 -0.4437 -0.1510
  100MOL0     H13164   3.587  -0.262   5.910  0.6967  0.5850 -0.1222
  100MOL0     H13165   3.348  -0.310   5.935 -0.3701  0.9158 -0.2356
  100MOL0     H13166   3.109  -0.312   5.874 -1.8944  0.1340  1.1932
  100MOL0     H13167   3.115  -0.474   5.934 -1.5918  1.1552  1.0246
  100MOL0     H13168   2.972  -0.557   5.741  4.9409  0.3711 -1.7493
  100MOL0     H13169   2.942  -0.383   5.714  1.9722 -0.6676 -1.9660
  100MOL0     H13170   2.834  -0.364   5.945 -2.4730  1.3373 -1.6393
  100MOL0     H13171   2.876  -0.536   5.969 -2.0392  0.6496  1.4173
  100MOL0     H13172   2.703  -0.448   5.747  1.0347 -1.0017 -1.3060
  100MOL0     H13173   2.731  -0.610   5.800  0.6180  1.3795 -2.4460
  100MOL0     H13174   2.579  -0.390   5.960 -1.6353  0.4848 -2.2663
  100MOL0     H13175   2.648  -0.536   6.031  0.5474 -0.1543 -0.1543
  100MOL0     H13176   2.417  -0.577   5.977  1.5863 -0.6519  0.8866
  100MOL0     H13177   2.503  -0.687   5.896  2.0766  0.1727  1.1000
  100MOL0     H13178   2.432  -0.408   5.786  0.4775  0.0015  1.2182
  100MOL0     H13179   2.454  -0.548   5.678 -0.3998 -0.4274 -0.1004
  100MOL0     H13180   2.211  -0.488   5.698  1.0083 -0.3364  0.7202
  100MOL0     H13181   2.208  -0.516   5.871 -0.9265  0.3444 -0.4263
  100MOL0     H13182   3.345  -0.487   5.542 -1.4168 -0.3319  1.2230
  100MOL0     H13183   3.566  -0.396   5.504  3.1667  0.4288  2.0052
  100MOL0     H13184   3.958  -0.399   5.632  3.0515 -2.7287 -1.3468
  100MOL0     H13185   4.189  -0.380   5.595 -0.1925  0.3720  1.6533
  100MOL0     H13186   5.357   0.984   5.239 -1.1814  0.2657 -2.7011
  100MOL0     H13187   5.192   1.117   5.125  0.8860  2.5942  0.0426
  100MOL0     H13188   4.981   1.443   4.876  0.6065 -0.6952  1.4324
  100MOL0     H13189   4.816   1.574   4.800  1.0685 -0.7372  0.8630
  100MOL0     H13190   4.488   1.667   4.800 -1.4079  0.4336  0.6159
  100MOL0     H13191   4.659   1.696   4.753 -1.2288  1.5462 -2.9359
  100MOL0     H13192   4.652   1.915   4.859 -0.5428  3.3514 -3.1474
  100MOL0     H13193   4.551   1.911   4.725  2.3968  3.1677  0.8737
  100MOL0     H13194   4.497   1.972   5.004  0.5641  2.5320 -0.6678
  100MOL0     H13195   4.383   1.847   4.955  2.0616 -1.1894  1.4771
  100MOL0     H13196   4.311   2.097   4.925  0.2249  0.2149 -1.0052
  100MOL0     H13197   4.409   2.096   4.783 -0.2184 -0.3105 -1.2742
  100MOL0     H13198   4.041   1.883   4.701  0.3357 -2.0389  1.0802
  100MOL0     H13199   4.637   1.594   5.199  2.5896  3.9390  0.5670
  100MOL0     H13200   4.816   1.451   5.275 -0.2008  3.5635  0.8126
  101MOL0     O13201   4.960  11.058   0.395 -0.0816  0.5318 -0.7840
  101MOL0     C13202   4.976  10.939   0.357  0.4275  0.0705 -0.3999
  101MOL0     O13203   4.870  10.858   0.326  0.5637  0.6937  0.2512
  101MOL0     C13204   4.742  10.899   0.356 -0.2952  0.2679  0.2378
  101MOL0     C13205   4.696  11.020   0.309 -0.7690 -0.2598  0.3451
  101MOL0     C13206   4.561  11.056   0.301  0.4768  0.5459  0.8378
  101MOL0     C13207   4.477  10.973   0.377 -0.5156 -0.1074  0.7296
  101MOL0     O13208   4.334  10.987   0.370 -0.2147  0.3655 -0.9214
  101MOL0     C13209   4.273  11.115   0.342 -0.2189 -0.5060  0.3743
  101MOL0     C13210   4.134  11.097   0.397 -0.0233 -0.5359  0.2231
  101MOL0     C13211   4.024  11.179   0.324 -0.4942 -0.0725  0.2210
  101MOL0     C13212   3.897  11.176   0.408 -0.4014  0.8167 -0.5821
  101MOL0     C13213   3.775  11.219   0.335  0.5255  0.3054  0.3233
  101MOL0     C13214   3.771  11.371   0.306  0.2434  0.0108 -0.3723
  101MOL0     C13215   3.631  11.416   0.255  0.6212  0.1745  0.0664
  101MOL0     C13216   3.544  11.328   0.155 -0.0471  0.9966  0.1530
  101MOL0     N13217   3.407  11.375   0.146 -0.1750 -0.7478  0.0426
  101MOL0     C13218   3.295  11.290   0.176  0.3173 -0.9905  0.2788
  101MOL0     C13219   3.193  11.365   0.127 -0.6220 -0.3481  0.3597
  101MOL0     C13220   3.051  11.342   0.135 -0.2542 -0.2023  0.5878
  101MOL0     C13221   3.010  11.220   0.057 -0.3445  0.5652  0.7696
  101MOL0     C13222   3.022  11.248  -0.099  0.5336 -0.0458 -1.0382
  101MOL0     C13223   2.965  11.140  -0.188 -0.6482  0.0111  0.1683
  101MOL0     O13224   2.962  11.200  -0.327  0.1994  1.2771  0.9369
  101MOL0     C13225   2.859  11.284  -0.369 -0.7143 -0.0749 -0.0041
  101MOL0     C13226   2.865  11.357  -0.492 -0.6520 -0.1088 -0.0303
  101MOL0     C13227   2.754  11.429  -0.532  0.0142  0.1255 -0.3472
  101MOL0     C13228   2.642  11.452  -0.447  0.7634  0.7458 -0.0879
  101MOL0     C13229   2.528  11.536  -0.479 -0.8257  0.0807  0.6871
  101MOL0     O13230   2.423  11.535  -0.391  0.9212 -0.4372  0.2937
  101MOL0     C13231   2.301  11.590  -0.413 -0.2872  0.3970  0.2396
  101MOL0     C13232   2.260  11.661  -0.529  0.4628 -0.8448 -0.4249
  101MOL0     C13233   2.129  11.709  -0.540 -0.3438  0.4999 -0.2278
  101MOL0     C13234   2.029  11.667  -0.449  0.1406 -0.3280  0.6283
  101MOL0     O13235   1.896  11.706  -0.460  0.9734 -0.1219  0.8947
  101MOL0     C13236   1.869  11.811  -0.555  1.0491 -0.8897 -1.0966
  101MOL0     C13237   1.724  11.861  -0.523 -0.6424  0.0918 -0.5434
  101MOL0     C13238   1.619  11.746  -0.556 -0.6103 -0.6676  0.4831
  101MOL0     C13239   1.482  11.776  -0.501  0.0606 -0.8045  1.0063
  101MOL0     C13240   1.369  11.676  -0.531  0.6663  0.4606 -0.2504
  101MOL0     C13241   1.284  11.711  -0.652  0.6731 -0.0869 -0.0862
  101MOL0     C13242   1.162  11.620  -0.674 -1.2007 -0.1952  0.1439
  101MOL0     C13243   1.050  11.691  -0.766  0.0980 -0.3651 -0.5963
  101MOL0    Cl13244   1.000  11.858  -0.700 -0.1493  0.1102  0.2778
  101MOL0     C13245   2.067  11.585  -0.347  0.2024  0.9672 -0.5264
  101MOL0     C13246   2.204  11.536  -0.334 -0.2483 -0.3410 -0.3563
  101MOL0     O13247   2.529  11.586  -0.595  0.2321 -0.0959  0.5434
  101MOL0     C13248   2.638  11.383  -0.321  0.0145 -0.1585  0.6942
  101MOL0     C13249   2.743  11.296  -0.285  0.3710  0.4260  0.3384
  101MOL0     N13250   3.235  11.486   0.078  0.1247 -0.4093 -0.3112
  101MOL0     N13251   3.361  11.495   0.090 -0.4260  0.2112  1.0464
  101MOL0     C13252   4.515  10.854   0.429  0.0303 -0.3895 -0.8297
  101MOL0     C13253   4.651  10.815   0.419  0.0905 -0.1095 -0.8967
  101MOL0     C13254   5.104  10.881   0.349 -0.3639  0.3321 -0.6071
  101MOL0     C13255   5.208  10.934   0.431 -1.1137  0.7040 -0.7437
  101MOL0     C13256   5.339  10.882   0.420 -1.0696 -0.2424 -1.0133
  101MOL0     C13257   5.367  10.765   0.355 -0.3801  0.0142  0.7432
  101MOL0     O13258   5.493  10.702   0.361 -0.0445 -0.1967 -0.1628
  101MOL0     C13259   5.523  10.564   0.326  0.2176  0.4416  0.3715
  101MOL0     C13260   5.672  10.526   0.349  0.9896 -0.4407 -0.1079
  101MOL0     C13261   5.714  10.579   0.489 -0.7279 -0.6287 -0.5145
  101MOL0     C13262   5.861  10.532   0.506 -0.4999 -0.4509 -0.6677
  101MOL0     C13263   5.905  10.550   0.645  0.5504  1.1318  0.6047
  101MOL0     C13264   5.943  10.562   0.757  0.3990 -0.1687  0.2558
  101MOL0     C13265   5.262  10.714   0.276 -0.0279  0.0775  1.0025
  101MOL0     C13266   5.139  10.771   0.276  0.8293  0.8357  0.7516
  101MOL0     H13267   4.763  11.088   0.258  1.2963 -2.0004  0.6040
  101MOL0     H13268   4.523  11.122   0.224  0.0074  1.1192  1.5497
  101MOL0     H13269   4.259  11.132   0.235  0.7324  0.3189  0.3653
  101MOL0     H13270   4.333  11.202   0.371  1.5381 -0.4008 -3.1323
  101MOL0     H13271   4.140  11.144   0.496 -2.2080  0.7172 -0.1801
  101MOL0     H13272   4.107  10.992   0.410  1.6097 -1.0286 -0.1660
  101MOL0     H13273   4.016  11.126   0.229  2.5510 -1.4888  0.6690
  101MOL0     H13274   4.058  11.282   0.313  1.2489 -0.2870  2.7551
  101MOL0     H13275   3.877  11.079   0.454 -0.0088  1.2522  0.5698
  101MOL0     H13276   3.919  11.230   0.501 -0.5296 -0.1387  0.0156
  101MOL0     H13277   3.690  11.198   0.400  0.2573  1.7423  0.4780
  101MOL0     H13278   3.763  11.157   0.246 -1.2571  0.9257  0.0806
  101MOL0     H13279   3.828  11.384   0.213 -0.6097  0.5856 -0.8307
  101MOL0     H13280   3.818  11.434   0.382  1.0819 -1.0319 -0.0055
  101MOL0     H13281   3.578  11.439   0.348  2.1600  0.8469  0.8085
  101MOL0     H13282   3.648  11.513   0.208  0.6808  0.5154  0.7813
  101MOL0     H13283   3.554  11.224   0.187 -0.7100  0.7160 -0.5155
  101MOL0     H13284   3.586  11.321   0.054 -1.9987 -0.0856 -0.6431
  101MOL0     H13285   3.298  11.188   0.213 -0.3118 -1.2744 -0.4275
  101MOL0     H13286   2.995  11.428   0.097  3.0966  2.4534  1.1940
  101MOL0     H13287   3.017  11.312   0.235 -1.2324 -1.1750 -0.0177
  101MOL0     H13288   2.909  11.185   0.083  0.5445 -2.0525  0.9909
  101MOL0     H13289   3.080  11.144   0.091 -0.1185  0.1733 -0.5301
  101MOL0     H13290   2.964  11.339  -0.119  0.5248  0.5099  1.1817
  101MOL0     H13291   3.126  11.267  -0.124  0.6444 -1.8293 -2.1058
  101MOL0     H13292   2.866  11.101  -0.162 -1.0113 -0.3823 -1.6081
  101MOL0     H13293   3.032  11.054  -0.188  2.5559  2.3058  0.4633
  101MOL0     H13294   2.952  11.334  -0.553 -0.8080 -3.5949  0.8686
  101MOL0     H13295   2.761  11.481  -0.626  0.6422  4.0539  1.6679
  101MOL0     H13296   2.332  11.690  -0.605  1.3971 -0.3423  0.6155
  101MOL0     H13297   2.108  11.773  -0.625  2.5663  0.0257 -1.4211
  101MOL0     H13298   1.881  11.783  -0.660 -1.7023  1.2605 -2.1068
  101MOL0     H13299   1.936  11.894  -0.530  2.0848 -2.6830  2.9037
  101MOL0     H13300   1.702  11.954  -0.575 -0.9257 -1.1346 -2.7037
  101MOL0     H13301   1.726  11.875  -0.414 -1.4199 -1.2066 -0.3423
  101MOL0     H13302   1.645  11.649  -0.513 -2.6459 -1.8843 -0.8581
  101MOL0     H13303   1.618  11.757  -0.665  0.8935 -1.0827  0.4153
  101MOL0     H13304   1.484  11.766  -0.392 -2.0124  0.5876  1.2381
  101MOL0     H13305   1.448  11.876  -0.527 -2.4283 -2.5351 -3.4832
  101MOL0     H13306   1.303  11.665  -0.444 -0.4718 -1.2241 -1.2762
  101MOL0     H13307   1.409  11.574  -0.541 -0.0228  0.2387 -0.7692
  101MOL0     H13308   1.348  11.709  -0.741 -0.9054  1.6623 -1.3523
  101MOL0     H13309   1.258  11.816  -0.634  0.1197  0.4414 -3.2906
  101MOL0     H13310   1.192  11.525  -0.719 -0.2830 -2.0839  4.3353
  101MOL0     H13311   1.105  11.595  -0.584  0.0652  0.3882  1.1442
  101MOL0     H13312   0.955  11.638  -0.756 -0.8549  0.9938 -1.9039
  101MOL0     H13313   1.084  11.685  -0.870  0.1100 -0.4591 -0.5878
  101MOL0     H13314   1.989  11.533  -0.293  0.4609  1.8739  0.7778
  101MOL0     H13315   2.228  11.467  -0.253 -3.5237  3.1808  4.1253
  101MOL0     H13316   2.543  11.389  -0.269  0.3065  0.7180  1.1425
  101MOL0     H13317   2.726  11.240  -0.193 -0.2208  3.7894  2.4648
  101MOL0     H13318   4.446  10.788   0.480 -1.2299  1.8145  0.4762
  101MOL0     H13319   4.689  10.724   0.463 -1.8991  0.3209  2.0288
  101MOL0     H13320   5.197  11.016   0.501 -2.6062  0.6261 -0.8555
  101MOL0     H13321   5.417  10.928   0.480 -2.2129 -0.0891  0.4288
  101MOL0     H13322   5.484  10.554   0.225 -3.0017 -0.9028  1.6332
  101MOL0     H13323   5.472  10.499   0.398 -0.2812  2.2753  1.7690
  101MOL0     H13324   5.699  10.421   0.344  2.9963  0.0651 -0.6661
  101MOL0     H13325   5.733  10.585   0.281  1.7188  0.5637  1.3527
  101MOL0     H13326   5.640  10.540   0.560 -1.0535 -3.3283 -2.2115
  101MOL0     H13327   5.714  10.688   0.502  0.6685 -0.7168  0.3389
  101MOL0     H13328   5.872  10.426   0.483 -0.3801 -0.4726 -0.5138
  101MOL0     H13329   5.925  10.597   0.446  0.2641  0.8751  1.4643
  101MOL0     H13330   5.989  10.580   0.852  2.3081  1.6365 -0.9333
  101MOL0     H13331   5.270  10.620   0.221 -2.8524 -0.5001  1.4019
  101MOL0     H13332   5.071  10.722   0.208  1.4704  0.6544  0.2326
  102MOL0     O13333   3.725   5.509   0.435  0.2155 -0.9147 -0.1195
  102MOL0     C13334   3.611   5.524   0.477  0.1179 -0.1147 -0.3744
  102MOL0     O13335   3.566   5.473   0.603 -0.2545 -0.5015  0.2194
  102MOL0     C13336   3.641   5.382   0.675 -0.6827 -0.2740 -0.7753
  102MOL0     C13337   3.670   5.260   0.608 -0.0167  0.0922  0.7259
  102MOL0     C13338   3.741   5.156   0.688 -0.7649  0.9508 -0.2665
  102MOL0     C13339   3.791   5.183   0.815  0.8756  0.5643 -0.1565
  102MOL0     O13340   3.862   5.099   0.899  0.1483 -0.5977 -0.0826
  102MOL0     C13341   3.851   4.960   0.856  0.9320  0.9132 -0.2454
  102MOL0     C13342   3.875   4.874   0.983  0.5325 -0.2271  0.1098
  102MOL0     C13343   3.759   4.848   1.072 -0.3112 -0.0265  0.4518
  102MOL0     C13344   3.797   4.763   1.190  0.3003  0.0611 -0.2602
  102MOL0     C13345   3.673   4.733   1.274 -0.0249  1.1507 -0.5127
  102MOL0     C13346   3.595   4.846   1.336 -0.4253  0.3800 -0.2902
  102MOL0     C13347   3.457   4.811   1.380  0.3747  0.9169 -0.3767
  102MOL0     C13348   3.374   4.926   1.427 -0.2133  0.4208  0.4133
  102MOL0     N13349   3.244   4.876   1.472  1.0426 -0.4988 -0.1032
  102MOL0     C13350   3.212   4.851   1.599 -0.5478  0.4475 -0.7926
  102MOL0     C13351   3.082   4.847   1.607  0.0769 -0.1295 -0.2311
  102MOL0     C13352   2.996   4.831   1.730 -0.2039  0.1216  0.9063
  102MOL0     C13353   2.944   4.964   1.774 -0.8572 -0.4366 -0.6230
  102MOL0     C13354   2.834   4.954   1.875 -1.3823 -0.4358 -0.5563
  102MOL0     C13355   2.769   5.099   1.893 -0.3042  1.1580 -0.6872
  102MOL0     O13356   2.681   5.091   2.001 -0.2711  0.2963 -0.1394
  102MOL0     C13357   2.551   5.129   1.973 -0.6874 -0.0657 -0.2772
  102MOL0     C13358   2.450   5.043   2.003 -0.2416 -0.0623  0.2534
  102MOL0     C13359   2.316   5.069   1.984  0.1715 -0.4103 -0.5022
  102MOL0     C13360   2.280   5.186   1.916  0.8146  0.6687 -0.2048
  102MOL0     C13361   2.133   5.212   1.878 -0.2301 -0.6572 -0.1380
  102MOL0     O13362   2.043   5.116   1.921 -0.1143  0.0240  0.3168
  102MOL0     C13363   1.922   5.113   1.873 -0.2264  0.3519 -0.7363
  102MOL0     C13364   1.894   5.137   1.735 -0.5917 -0.8318  0.8379
  102MOL0     C13365   1.769   5.146   1.673 -0.0813  0.0798 -0.0161
  102MOL0     C13366   1.662   5.114   1.754  1.6150 -1.8747 -0.2696
  102MOL0     O13367   1.528   5.112   1.713 -0.3430  0.0640  0.7219
  102MOL0     C13368   1.490   5.231   1.645 -0.0634  0.6249  1.1412
  102MOL0     C13369   1.339   5.237   1.635  0.5645 -0.0349  0.1804
  102MOL0     C13370   1.290   5.135   1.526 -0.1310  0.2626  0.4605
  102MOL0     C13371   1.131   5.128   1.524 -0.0963  1.2569 -0.2064
  102MOL0     C13372   1.050   5.249   1.481 -0.0232  0.1677  0.6920
  102MOL0     C13373   1.100   5.304   1.349 -1.2952  0.0670 -0.0930
  102MOL0     C13374   1.023   5.435   1.296  0.1815 -0.8852 -0.5188
  102MOL0     C13375   0.873   5.415   1.308  0.7411  0.0115 -0.1951
  102MOL0    Cl13376   0.819   5.260   1.224  0.1380  0.2570  0.1391
  102MOL0     C13377   1.677   5.084   1.891  0.8103 -0.3914  0.0515
  102MOL0     C13378   1.806   5.073   1.944  0.1370  0.0520 -0.1371
  102MOL0     O13379   2.107   5.310   1.811 -0.2168  0.3480  0.3028
  102MOL0     C13380   2.385   5.282   1.893  0.3475 -1.2497 -0.0232
  102MOL0     C13381   2.517   5.252   1.919 -1.1467 -0.0522  0.9345
  102MOL0     N13382   3.037   4.854   1.484 -0.0061  0.3644  0.1623
  102MOL0     N13383   3.130   4.868   1.401 -0.2788 -0.3673  0.2999
  102MOL0     C13384   3.776   5.311   0.864  0.4143  0.8668 -0.0246
  102MOL0     C13385   3.702   5.408   0.792  0.1565 -0.3929  0.6221
  102MOL0     C13386   3.514   5.611   0.401 -0.1814  0.7115  0.2422
  102MOL0     C13387   3.380   5.613   0.445  0.7571  0.8340 -0.2071
  102MOL0     C13388   3.285   5.692   0.381 -0.1594  0.7363  0.3097
  102MOL0     C13389   3.319   5.773   0.276 -0.5978  0.1125  0.4859
  102MOL0     O13390   3.238   5.871   0.230 -1.1295  0.5835 -0.2967
  102MOL0     C13391   3.214   5.870   0.094  0.0117 -0.4482  0.3682
  102MOL0     C13392   3.070   5.860   0.047  0.1270  0.5577 -0.4195
  102MOL0     C13393   2.984   5.956   0.126  0.8124  0.1928  0.1336
  102MOL0     C13394   2.931   5.905   0.259  0.9585  0.8163  0.0591
  102MOL0     C13395   2.815   5.813   0.232  0.0069 -1.1801  0.0251
  102MOL0     C13396   2.721   5.738   0.217 -0.8387 -0.5771 -0.1334
  102MOL0     C13397   3.457   5.758   0.226  0.3933  0.1236 -0.6648
  102MOL0     C13398   3.551   5.682   0.289 -0.3791  0.5877 -0.1862
  102MOL0     H13399   3.629   5.249   0.508  0.7594  1.0281  0.2831
  102MOL0     H13400   3.775   5.060   0.651  2.4552  2.2448 -0.9992
  102MOL0     H13401   3.933   4.943   0.785  1.4182 -0.5337  0.6333
  102MOL0     H13402   3.751   4.938   0.817  1.4695  0.3961 -1.3857
  102MOL0     H13403   3.953   4.927   1.039  2.1101 -1.7817 -0.5149
  102MOL0     H13404   3.917   4.778   0.952  1.9889 -0.1596  1.7095
  102MOL0     H13405   3.682   4.806   1.006 -0.5729  2.4533 -0.9314
  102MOL0     H13406   3.723   4.946   1.103  2.9879  1.5318 -0.1966
  102MOL0     H13407   3.836   4.667   1.155 -0.5801 -0.2867 -0.3068
  102MOL0     H13408   3.870   4.805   1.261 -1.8146 -1.0778  2.7812
  102MOL0     H13409   3.707   4.677   1.362  1.9681  1.2375 -1.1715
  102MOL0     H13410   3.599   4.670   1.225 -1.3378  1.4453  1.0105
  102MOL0     H13411   3.587   4.929   1.266  0.0454 -1.3055 -2.4443
  102MOL0     H13412   3.660   4.883   1.416 -0.2453 -1.7199  0.5930
  102MOL0     H13413   3.402   4.775   1.293 -2.6772 -1.6398  2.3270
  102MOL0     H13414   3.465   4.731   1.454 -0.7612 -1.1977 -2.4082
  102MOL0     H13415   3.372   5.012   1.360  1.0805 -0.1845 -0.4644
  102MOL0     H13416   3.441   4.959   1.506  0.0651  1.1307 -0.1100
  102MOL0     H13417   3.278   4.842   1.684 -3.0869  2.9825  1.6433
  102MOL0     H13418   3.067   4.795   1.804  2.3816  0.3744 -1.2857
  102MOL0     H13419   2.913   4.764   1.704 -0.5078  0.8553 -0.0811
  102MOL0     H13420   2.905   5.006   1.681  3.3432  0.7308 -2.1158
  102MOL0     H13421   3.026   5.025   1.815  0.3773 -2.6340  0.3837
  102MOL0     H13422   2.756   4.884   1.843 -0.5242 -1.0326 -1.4001
  102MOL0     H13423   2.879   4.927   1.972 -0.0897  1.1189 -0.6789
  102MOL0     H13424   2.722   5.120   1.796  2.5217 -1.2974 -2.7909
  102MOL0     H13425   2.852   5.165   1.919  1.3575 -1.2139  0.4460
  102MOL0     H13426   2.486   4.954   2.052 -1.3406  0.3016  1.8076
  102MOL0     H13427   2.247   4.996   2.025  2.2834 -1.1169  2.0623
  102MOL0     H13428   1.972   5.160   1.664 -0.6790 -3.3237 -0.1578
  102MOL0     H13429   1.754   5.174   1.570  0.1135 -1.3554 -0.4653
  102MOL0     H13430   1.539   5.238   1.547  0.5768 -0.2134  1.3850
  102MOL0     H13431   1.521   5.318   1.704  0.0394  1.8038 -0.5806
  102MOL0     H13432   1.315   5.341   1.613 -0.4699 -0.4949 -1.0354
  102MOL0     H13433   1.302   5.213   1.735  1.1191  2.0804  0.9404
  102MOL0     H13434   1.338   5.039   1.549  1.9589  1.6279  2.1787
  102MOL0     H13435   1.321   5.167   1.426  0.1541  0.2199  0.5348
  102MOL0     H13436   1.115   5.044   1.455  3.0215 -0.7792  1.3297
  102MOL0     H13437   1.091   5.085   1.616  1.5637  1.3947  0.6129
  102MOL0     H13438   1.066   5.324   1.558 -2.4857  1.5083  0.0013
  102MOL0     H13439   0.944   5.225   1.470 -1.3949  6.0388 -4.9987
  102MOL0     H13440   1.086   5.224   1.275 -1.8700 -0.4020  0.5141
  102MOL0     H13441   1.205   5.335   1.355 -1.7176  2.0762 -1.9377
  102MOL0     H13442   1.054   5.524   1.353 -0.5689 -2.5940  2.8513
  102MOL0     H13443   1.053   5.442   1.191 -1.2350 -1.8919 -1.0210
  102MOL0     H13444   0.821   5.495   1.255  1.3333 -0.8107 -2.0751
  102MOL0     H13445   0.850   5.433   1.413  1.3705  1.4312 -0.2853
  102MOL0     H13446   1.597   5.049   1.955 -0.1928  2.2228  0.3607
  102MOL0     H13447   1.821   5.038   2.045 -2.5527 -2.7915 -0.5597
  102MOL0     H13448   2.370   5.389   1.878 -1.8136 -1.5999 -0.6796
  102MOL0     H13449   2.597   5.325   1.918  2.5056 -3.6955  1.0545
  102MOL0     H13450   3.830   5.338   0.954  0.1385  0.9185  0.1257
  102MOL0     H13451   3.691   5.508   0.834 -2.0819 -0.0957 -0.5418
  102MOL0     H13452   3.360   5.558   0.536 -2.6403  0.3016 -1.1445
  102MOL0     H13453   3.184   5.707   0.416  0.1411 -0.7345  1.9395
  102MOL0     H13454   3.273   5.795   0.039  0.7513  1.8598 -2.1881
  102MOL0     H13455   3.258   5.959   0.048 -0.1254 -0.0716  0.9662
  102MOL0     H13456   3.057   5.874  -0.061  1.7325  1.2473 -0.5442
  102MOL0     H13457   3.040   5.757   0.071 -2.1510  0.8084 -1.8242
  102MOL0     H13458   2.897   5.958   0.060 -0.2997  1.3337  1.5685
  102MOL0     H13459   3.027   6.057   0.129  0.7668  0.1868  2.1872
  102MOL0     H13460   2.999   5.840   0.314 -0.3843 -0.8402 -0.1511
  102MOL0     H13461   2.919   5.985   0.333 -1.2680 -0.1018  0.7939
  102MOL0     H13462   2.637   5.674   0.197 -1.1016  0.2505 -1.7934
  102MOL0     H13463   3.492   5.821   0.144  1.2001 -1.4792 -1.5961
  102MOL0     H13464   3.649   5.690   0.244  0.6622  5.4937  2.3541
  103MOL0     O13465   7.555   8.264   0.568 -0.4011 -0.2267  0.8299
  103MOL0     C13466   7.641   8.267   0.654 -0.1373  0.1279  0.3041
  103MOL0     O13467   7.647   8.188   0.764  0.4126  0.1668 -0.4539
  103MOL0     C13468   7.525   8.149   0.818  0.9293  0.0950 -0.3921
  103MOL0     C13469   7.470   8.231   0.922  0.3516 -0.0579  0.1618
  103MOL0     C13470   7.351   8.194   0.989 -0.7797  0.1217 -0.2016
  103MOL0     C13471   7.292   8.064   0.953  0.2893 -0.2251 -0.1647
  103MOL0     O13472   7.163   8.020   0.993  0.8226  0.0577  0.0345
  103MOL0     C13473   7.089   8.122   1.076 -0.2130 -0.2572  0.2139
  103MOL0     C13474   6.940   8.095   1.044 -0.0489  0.4715  0.8444
  103MOL0     C13475   6.845   8.194   1.119  0.0595  0.7803  0.1915
  103MOL0     C13476   6.856   8.188   1.269  0.0885  0.5807  0.4286
  103MOL0     C13477   6.732   8.234   1.349 -0.0242 -0.5115  0.3730
  103MOL0     C13478   6.734   8.188   1.493 -0.7846  0.7892  0.2654
  103MOL0     C13479   6.602   8.230   1.564 -0.4591  0.3703  0.7433
  103MOL0     C13480   6.578   8.155   1.697  1.1554  0.3976  0.5784
  103MOL0     N13481   6.450   8.195   1.761  0.8121  0.1652  0.6291
  103MOL0     C13482   6.449   8.309   1.837 -0.6128  0.1858 -0.3513
  103MOL0     C13483   6.327   8.306   1.899  0.1103  0.4126 -0.0818
  103MOL0     C13484   6.287   8.387   2.027 -0.6853  0.7396  0.2106
  103MOL0     C13485   6.189   8.501   1.998 -0.1310 -0.2341 -0.5468
  103MOL0     C13486   6.082   8.454   1.903  0.9552 -0.2136  0.5038
  103MOL0     C13487   5.948   8.521   1.920  0.3426  0.4521 -0.6688
  103MOL0     O13488   5.894   8.478   2.050  0.9050  0.4418 -0.3843
  103MOL0     C13489   5.763   8.509   2.078 -1.0153  0.6612  0.5358
  103MOL0     C13490   5.650   8.463   2.004  1.0359 -0.2385  0.1096
  103MOL0     C13491   5.526   8.464   2.062 -0.2998  1.0720 -0.4707
  103MOL0     C13492   5.503   8.510   2.197  0.2070  0.3219  1.1625
  103MOL0     C13493   5.367   8.515   2.258  0.0623 -0.3668  0.0453
  103MOL0     O13494   5.265   8.507   2.163  0.1870  0.4924 -0.2748
  103MOL0     C13495   5.131   8.508   2.202  0.7710  1.1029 -0.0712
  103MOL0     C13496   5.042   8.538   2.100 -0.3684 -0.4948 -0.6684
  103MOL0     C13497   4.899   8.550   2.124  0.0857 -0.1351 -0.2137
  103MOL0     C13498   4.854   8.519   2.253 -0.4068 -0.4750  1.0029
  103MOL0     O13499   4.721   8.529   2.290 -0.1590 -0.0117 -0.4963
  103MOL0     C13500   4.634   8.427   2.241 -0.2323  0.6219 -0.0915
  103MOL0     C13501   4.500   8.471   2.284  0.1048  0.4098  0.5846
  103MOL0     C13502   4.396   8.368   2.244 -0.1236  0.7911 -0.1560
  103MOL0     C13503   4.261   8.423   2.282 -0.0716 -0.0826 -0.2847
  103MOL0     C13504   4.230   8.389   2.424  0.5453  0.3660  0.9746
  103MOL0     C13505   4.107   8.471   2.472  0.6146  0.9039  0.1818
  103MOL0     C13506   4.065   8.426   2.611 -0.7955 -0.5984  0.9523
  103MOL0     C13507   3.930   8.480   2.663 -0.1692 -0.5092  0.3419
  103MOL0    Cl13508   3.923   8.477   2.838 -0.2976  0.0024  0.3121
  103MOL0     C13509   4.945   8.477   2.352 -0.7297 -0.4127 -0.1218
  103MOL0     C13510   5.079   8.472   2.325 -0.6163 -0.0137 -0.2910
  103MOL0     O13511   5.357   8.535   2.380 -0.7063  0.0632  0.1183
  103MOL0     C13512   5.614   8.558   2.265 -0.2662  0.5841  0.2250
  103MOL0     C13513   5.744   8.558   2.204 -0.1692  0.3807 -0.4185
  103MOL0     N13514   6.259   8.190   1.862 -0.7467 -0.7746 -0.4401
  103MOL0     N13515   6.333   8.127   1.781 -0.8735  0.6863  1.2693
  103MOL0     C13516   7.354   7.989   0.852  0.3163 -0.3593 -0.5155
  103MOL0     C13517   7.463   8.036   0.782  0.3989 -0.0525  0.2244
  103MOL0     C13518   7.767   8.324   0.608  0.1319  0.0537  0.3403
  103MOL0     C13519   7.780   8.412   0.502  0.0986 -0.0456 -0.7250
  103MOL0     C13520   7.899   8.474   0.467 -0.3014  0.3679 -0.5144
  103MOL0     C13521   8.013   8.435   0.536  0.0146 -0.1349  0.3030
  103MOL0     O13522   8.145   8.459   0.505 -0.3933 -0.1764  0.5444
  103MOL0     C13523   8.178   8.518   0.381  0.2722  0.3927 -0.6908
  103MOL0     C13524   8.283   8.435   0.313 -0.1979  1.4501  0.4955
  103MOL0     C13525   8.405   8.418   0.410  0.2680  0.7534 -0.0956
  103MOL0     C13526   8.497   8.306   0.363 -0.3167  0.6175  0.5441
  103MOL0     C13527   8.639   8.307   0.415  0.0011 -0.3030 -0.3469
  103MOL0     C13528   8.746   8.318   0.464 -0.2244 -0.7390  0.3086
  103MOL0     C13529   8.007   8.362   0.653  0.8666  0.7279 -0.7097
  103MOL0     C13530   7.882   8.296   0.688 -0.5017 -0.9357  0.7933
  103MOL0     H13531   7.536   8.309   0.959  1.3233 -0.0444 -1.4883
  103MOL0     H13532   7.317   8.260   1.068 -1.3961 -0.2306 -0.1680
  103MOL0     H13533   7.115   8.221   1.040  2.0460 -1.0366 -0.4337
  103MOL0     H13534   7.117   8.114   1.181  2.1870  1.6314 -0.1975
  103MOL0     H13535   6.901   7.995   1.066  0.1937  0.0778 -0.4382
  103MOL0     H13536   6.924   8.109   0.937 -3.3830  0.5744  1.2590
  103MOL0     H13537   6.745   8.166   1.084  0.0209 -2.4003  2.4139
  103MOL0     H13538   6.875   8.291   1.078 -0.1972  1.6544  1.9592
  103MOL0     H13539   6.876   8.085   1.301 -1.2349  0.5339  1.1622
  103MOL0     H13540   6.949   8.237   1.299  2.1790 -0.1330 -4.0578
  103MOL0     H13541   6.642   8.196   1.300 -0.5035 -1.2598  1.7640
  103MOL0     H13542   6.712   8.341   1.366 -1.7133 -0.9151  1.2046
  103MOL0     H13543   6.816   8.246   1.537 -1.8243  0.5086  2.7755
  103MOL0     H13544   6.748   8.080   1.491  1.5045  0.9800 -3.9293
  103MOL0     H13545   6.606   8.337   1.584  3.7382  0.6311 -0.4425
  103MOL0     H13546   6.517   8.210   1.498  0.0527  0.6373 -0.0264
  103MOL0     H13547   6.666   8.170   1.760  3.3462 -0.2438 -2.1014
  103MOL0     H13548   6.561   8.048   1.678 -0.9700  0.2171  2.9559
  103MOL0     H13549   6.533   8.377   1.853 -0.3299 -0.1944 -0.2094
  103MOL0     H13550   6.374   8.429   2.077  0.8932 -0.5841 -1.2833
  103MOL0     H13551   6.240   8.318   2.098 -1.5070 -0.0860 -1.0715
  103MOL0     H13552   6.226   8.600   1.972  4.1242 -1.0487  1.5576
  103MOL0     H13553   6.148   8.516   2.099 -0.8857 -3.7283 -0.1874
  103MOL0     H13554   6.109   8.479   1.800  3.0426 -0.2083  1.0016
  103MOL0     H13555   6.066   8.346   1.914 -1.8525 -0.2475 -2.4562
  103MOL0     H13556   5.883   8.482   1.842 -0.8800  1.6170 -0.2708
  103MOL0     H13557   5.947   8.630   1.918  0.5429  0.4579 -0.4608
  103MOL0     H13558   5.668   8.427   1.903  1.4741 -0.0911  0.1314
  103MOL0     H13559   5.445   8.439   1.994  0.7367  0.0819 -1.3794
  103MOL0     H13560   5.086   8.563   2.004 -3.4299 -0.4265 -2.1770
  103MOL0     H13561   4.825   8.572   2.047  0.4080  1.0559 -0.2015
  103MOL0     H13562   4.654   8.337   2.300 -1.6278  1.9460  2.5886
  103MOL0     H13563   4.650   8.407   2.135 -2.0357 -1.3676 -0.0512
  103MOL0     H13564   4.480   8.568   2.237 -0.0240 -0.3631 -1.0208
  103MOL0     H13565   4.498   8.480   2.393 -2.2610 -1.7532  0.8076
  103MOL0     H13566   4.404   8.268   2.288 -2.6653  1.3146  1.7517
  103MOL0     H13567   4.395   8.348   2.137 -0.6014  0.9569 -0.1872
  103MOL0     H13568   4.255   8.529   2.257  2.7102  0.2096 -0.0364
  103MOL0     H13569   4.192   8.378   2.209 -0.7332  1.7266 -0.8301
  103MOL0     H13570   4.314   8.409   2.490  0.9986 -1.4075  0.9896
  103MOL0     H13571   4.217   8.281   2.431 -1.9122  0.5261 -0.1311
  103MOL0     H13572   4.015   8.457   2.415  0.2392 -0.7409  1.1240
  103MOL0     H13573   4.134   8.577   2.477 -0.8699  1.2453  3.1228
  103MOL0     H13574   4.068   8.317   2.609 -0.7323 -0.5942  0.8258
  103MOL0     H13575   4.143   8.464   2.678 -1.8333  5.2050 -0.5753
  103MOL0     H13576   3.850   8.417   2.622 -0.2133 -0.0812 -0.2446
  103MOL0     H13577   3.915   8.581   2.624  1.1489  0.0100  1.1079
  103MOL0     H13578   4.909   8.450   2.451 -2.0413 -0.9593 -0.7197
  103MOL0     H13579   5.144   8.433   2.403 -0.6716 -0.7310 -0.6010
  103MOL0     H13580   5.598   8.608   2.360 -1.6731  1.5637 -0.4991
  103MOL0     H13581   5.828   8.602   2.257 -0.2847  5.1541 -3.5962
  103MOL0     H13582   7.305   7.893   0.835  3.1563 -2.1843  0.7217
  103MOL0     H13583   7.504   7.978   0.700 -0.8022 -0.1970 -0.2992
  103MOL0     H13584   7.686   8.437   0.454 -0.2112  1.1202  0.4266
  103MOL0     H13585   7.895   8.541   0.382  0.1113 -0.4518 -1.1949
  103MOL0     H13586   8.217   8.618   0.403  3.1626 -0.8100  0.1501
  103MOL0     H13587   8.102   8.524   0.303  0.5157 -1.2359 -1.0964
  103MOL0     H13588   8.240   8.337   0.292  1.9692  0.7075 -0.7072
  103MOL0     H13589   8.309   8.482   0.218  1.1989 -1.8507 -0.8860
  103MOL0     H13590   8.374   8.392   0.511 -1.3865  0.8936 -0.5347
  103MOL0     H13591   8.457   8.514   0.412  2.3230 -0.3069  0.1800
  103MOL0     H13592   8.452   8.209   0.386 -1.8707  0.3184 -2.9988
  103MOL0     H13593   8.503   8.303   0.253 -2.0270  0.5740  0.4257
  103MOL0     H13594   8.838   8.348   0.510  0.6945  5.3133 -4.3018
  103MOL0     H13595   8.090   8.339   0.719 -0.6374 -1.3684  0.5776
  103MOL0     H13596   7.881   8.230   0.774 -2.9859  0.7762  2.1988
  104MOL0     O13597   9.278   7.716   4.796  0.2502 -0.3999 -0.7991
  104MOL0     C13598   9.337   7.723   4.691  0.1714  0.1337 -0.3710
  104MOL0     O13599   9.272   7.716   4.574 -0.5656  0.4763 -0.9456
  104MOL0     C13600   9.154   7.651   4.564  0.2216 -0.3706 -0.5013
  104MOL0     C13601   9.131   7.561   4.463 -0.4316 -1.2313 -0.8073
  104MOL0     C13602   9.006   7.511   4.434 -0.1651 -0.4219  0.0070
  104MOL0     C13603   8.886   7.557   4.485  0.7369 -0.7262 -1.1427
  104MOL0     O13604   8.765   7.517   4.447 -0.2304 -0.5081  0.8422
  104MOL0     C13605   8.661   7.598   4.480 -0.1927  0.1431 -0.5640
  104MOL0     C13606   8.532   7.562   4.413  0.0554 -0.6550 -0.6664
  104MOL0     C13607   8.420   7.621   4.486 -0.3908  0.5249  0.5751
  104MOL0     C13608   8.287   7.558   4.432 -0.6790  0.6084 -0.4268
  104MOL0     C13609   8.180   7.620   4.517  0.7300 -0.0388 -0.6936
  104MOL0     C13610   8.047   7.626   4.447  0.2997 -0.2390  0.2592
  104MOL0     C13611   7.982   7.502   4.372  0.5472 -0.6296  0.4741
  104MOL0     C13612   7.842   7.533   4.318 -0.7610  0.3365 -0.8986
  104MOL0     N13613   7.734   7.499   4.408 -1.1287  0.5303 -0.3608
  104MOL0     C13614   7.609   7.557   4.411  0.7281 -1.2534  0.1632
  104MOL0     C13615   7.530   7.478   4.474 -0.2393  0.9122 -1.0054
  104MOL0     C13616   7.394   7.493   4.511  0.1454  0.1610 -0.2232
  104MOL0     C13617   7.293   7.422   4.419 -0.0175  0.4235  0.8631
  104MOL0     C13618   7.201   7.511   4.338 -0.2801 -0.7871 -0.2519
  104MOL0     C13619   7.072   7.433   4.295  0.1001  0.6036  0.2482
  104MOL0     O13620   7.113   7.349   4.183  0.4765 -0.1434  0.1712
  104MOL0     C13621   7.020   7.276   4.122 -0.2724 -0.1335  0.0982
  104MOL0     C13622   6.888   7.316   4.115 -0.6895  1.2781 -0.1167
  104MOL0     C13623   6.793   7.249   4.042 -0.6777  0.0601 -0.2908
  104MOL0     C13624   6.824   7.129   3.980  0.2251  0.2079 -0.2014
  104MOL0     C13625   6.732   7.046   3.911  0.1632  0.1002 -0.9509
  104MOL0     O13626   6.596   7.062   3.936 -0.4820 -0.0901  0.2016
  104MOL0     C13627   6.498   6.972   3.895  0.8038  0.4990 -1.1258
  104MOL0     C13628   6.514   6.829   3.885  0.7043 -1.6831 -0.8896
  104MOL0     C13629   6.414   6.747   3.835 -0.4348  0.2161 -0.4119
  104MOL0     C13630   6.284   6.804   3.816  0.3858 -0.4259 -0.9572
  104MOL0     O13631   6.174   6.736   3.768 -0.0896  0.1206 -0.4133
  104MOL0     C13632   6.162   6.590   3.778  0.0039  0.1934  0.0560
  104MOL0     C13633   6.015   6.545   3.751  0.2202 -0.1293  0.6899
  104MOL0     C13634   5.912   6.644   3.807  0.2418 -1.1906 -0.0548
  104MOL0     C13635   5.771   6.591   3.776 -0.6789  0.2241  0.6241
  104MOL0     C13636   5.661   6.689   3.804 -0.0737 -0.9299 -0.1079
  104MOL0     C13637   5.533   6.619   3.784  0.5158  0.1011  0.4392
  104MOL0     C13638   5.405   6.715   3.810 -0.1649 -0.3266  0.0469
  104MOL0     C13639   5.285   6.673   3.727 -1.3727 -0.2398  0.3383
  104MOL0    Cl13640   5.160   6.801   3.741  0.2819  0.1869  0.0420
  104MOL0     C13641   6.262   6.939   3.834 -0.2231 -0.5686  0.6922
  104MOL0     C13642   6.369   7.025   3.873  0.3625 -0.4034  0.0718
  104MOL0     O13643   6.771   6.973   3.820  0.2069 -0.6959  0.5986
  104MOL0     C13644   6.962   7.087   3.990 -0.3852 -0.3005 -0.1303
  104MOL0     C13645   7.059   7.151   4.067  0.4257 -1.5359  0.2535
  104MOL0     N13646   7.594   7.357   4.504  0.1130  0.1438  0.6495
  104MOL0     N13647   7.722   7.378   4.474  0.7439 -1.6037  0.6233
  104MOL0     C13648   8.913   7.653   4.589 -0.3137  0.5509  0.6762
  104MOL0     C13649   9.040   7.698   4.623  1.4896 -1.1233  0.1953
  104MOL0     C13650   9.487   7.742   4.701  0.9399 -0.5371 -0.2290
  104MOL0     C13651   9.559   7.751   4.822 -0.0312 -0.5992 -1.0641
  104MOL0     C13652   9.704   7.748   4.816  0.6308  0.9925 -1.1508
  104MOL0     C13653   9.773   7.759   4.695  0.8259 -0.2247 -0.0668
  104MOL0     O13654   9.912   7.777   4.678 -0.9069 -0.0703  0.7520
  104MOL0     C13655   9.996   7.725   4.776  0.5696 -0.1697  0.3049
  104MOL0     C13656  10.139   7.739   4.743  0.1176 -0.0395 -0.0276
  104MOL0     C13657  10.222   7.615   4.768  0.6579  0.1953  0.7089
  104MOL0     C13658  10.302   7.618   4.894  1.2058  0.9861  0.1545
  104MOL0     C13659  10.409   7.708   4.914 -0.6730  1.0849  0.7877
  104MOL0     C13660  10.492   7.798   4.932 -0.3125  0.2799  0.0456
  104MOL0     C13661   9.693   7.759   4.576 -0.5936 -0.4341  0.2873
  104MOL0     C13662   9.554   7.750   4.574  0.4012 -0.1182 -0.0747
  104MOL0     H13663   9.206   7.512   4.403 -1.5445 -1.1977 -2.2835
  104MOL0     H13664   8.983   7.442   4.353 -0.6405  1.9318 -1.9969
  104MOL0     H13665   8.679   7.699   4.442  0.1461 -0.3848 -1.8353
  104MOL0     H13666   8.637   7.604   4.587  0.8268  0.3602 -0.3325
  104MOL0     H13667   8.518   7.454   4.410  0.4299 -0.7441  0.4596
  104MOL0     H13668   8.532   7.601   4.311 -0.7890  1.4388  0.0694
  104MOL0     H13669   8.417   7.729   4.470 -2.6207  0.1635 -2.4315
  104MOL0     H13670   8.421   7.614   4.595 -2.9910 -0.4596  0.6029
  104MOL0     H13671   8.279   7.574   4.324  1.2526  2.1084 -0.4149
  104MOL0     H13672   8.290   7.449   4.443  1.2520  0.5069 -1.4951
  104MOL0     H13673   8.196   7.728   4.526  2.0537 -0.3436  1.1621
  104MOL0     H13674   8.175   7.573   4.616  0.7281  2.1117  0.3825
  104MOL0     H13675   8.062   7.704   4.372 -2.1135  0.7993  0.7655
  104MOL0     H13676   7.958   7.664   4.497 -2.1380 -0.9287 -3.1665
  104MOL0     H13677   8.044   7.465   4.289 -0.4837 -3.0684  0.7100
  104MOL0     H13678   7.978   7.420   4.444  1.5011  2.2506  4.1301
  104MOL0     H13679   7.824   7.494   4.217 -0.3723  0.0003 -0.8392
  104MOL0     H13680   7.831   7.640   4.299 -0.8047  0.7019  1.0637
  104MOL0     H13681   7.584   7.654   4.369 -0.9676 -1.7975 -0.1719
  104MOL0     H13682   7.363   7.596   4.531  0.1605 -0.1094  1.3116
  104MOL0     H13683   7.380   7.450   4.611 -0.1813 -0.5001 -0.5465
  104MOL0     H13684   7.215   7.389   4.488 -0.0861  5.6942  3.8424
  104MOL0     H13685   7.332   7.333   4.368  3.0533  0.6986  2.4837
  104MOL0     H13686   7.171   7.597   4.399 -0.3787  0.1067 -1.5221
  104MOL0     H13687   7.264   7.546   4.255 -0.7083  0.8471  0.0845
  104MOL0     H13688   6.989   7.503   4.280  0.2095  0.7237  0.1978
  104MOL0     H13689   7.050   7.364   4.376  0.8076 -1.3119 -1.1194
  104MOL0     H13690   6.856   7.408   4.162  1.4228  2.2628 -0.4972
  104MOL0     H13691   6.693   7.292   4.037 -0.0820  1.6658  0.8757
  104MOL0     H13692   6.613   6.799   3.917  1.8492  1.4743 -1.1382
  104MOL0     H13693   6.434   6.642   3.816 -2.4071 -1.0208  3.4579
  104MOL0     H13694   6.189   6.557   3.879  0.8635  0.1149 -0.1866
  104MOL0     H13695   6.215   6.539   3.697 -2.5680  1.3830 -2.5543
  104MOL0     H13696   5.995   6.449   3.798 -0.9867 -0.4856 -0.5123
  104MOL0     H13697   5.999   6.540   3.643  1.9313 -0.7088  0.4340
  104MOL0     H13698   5.928   6.741   3.760 -0.0208 -2.2211 -2.4408
  104MOL0     H13699   5.931   6.668   3.912  1.1925 -0.9607 -0.2735
  104MOL0     H13700   5.763   6.548   3.676  0.0474  1.2314  0.1062
  104MOL0     H13701   5.752   6.510   3.847 -1.3011  1.8071  2.3436
  104MOL0     H13702   5.667   6.778   3.740  0.7144 -2.1588 -1.8164
  104MOL0     H13703   5.673   6.725   3.906  0.1076 -1.0012 -0.1035
  104MOL0     H13704   5.518   6.544   3.862 -0.4649  1.1935  1.3517
  104MOL0     H13705   5.519   6.572   3.686 -1.5451 -0.4364  0.9463
  104MOL0     H13706   5.384   6.708   3.917 -2.0842 -0.8961 -0.3288
  104MOL0     H13707   5.430   6.819   3.784 -0.3678 -0.0227  0.9986
  104MOL0     H13708   5.260   6.568   3.748  1.1141 -1.2657 -1.3539
  104MOL0     H13709   5.323   6.659   3.625  0.0919 -1.4448  1.0118
  104MOL0     H13710   6.166   6.982   3.808  1.5245  2.5484 -1.1552
  104MOL0     H13711   6.358   7.132   3.870  1.3635 -0.2514  0.9605
  104MOL0     H13712   6.990   6.989   3.951  0.5895 -0.7350  1.5424
  104MOL0     H13713   7.160   7.113   4.077  1.4606  0.4812 -1.7109
  104MOL0     H13714   8.825   7.699   4.634 -1.0675  0.4240 -0.6126
  104MOL0     H13715   9.042   7.787   4.685 -1.4265 -0.7595 -0.1040
  104MOL0     H13716   9.512   7.761   4.919 -1.0589  1.7784 -1.6993
  104MOL0     H13717   9.757   7.755   4.910 -1.2860  0.1294  0.0480
  104MOL0     H13718   9.976   7.617   4.779 -1.3701  0.0837 -1.5066
  104MOL0     H13719   9.978   7.760   4.878  1.9065  3.8544 -0.6478
  104MOL0     H13720  10.146   7.751   4.635  2.7490  0.9700  0.1675
  104MOL0     H13721  10.188   7.825   4.790  1.2912  0.5366 -2.1744
  104MOL0     H13722  10.284   7.586   4.683 -3.8256 -1.0091 -2.5203
  104MOL0     H13723  10.165   7.522   4.765 -0.1314  0.6794 -0.1113
  104MOL0     H13724  10.227   7.636   4.972  1.2748  0.3875  0.3658
  104MOL0     H13725  10.336   7.516   4.913  0.9737  0.8999  0.1098
  104MOL0     H13726  10.569   7.872   4.922 -0.1816 -0.0699 -1.9107
  104MOL0     H13727   9.739   7.777   4.479 -1.4242  2.2771  0.3263
  104MOL0     H13728   9.508   7.755   4.476  1.4046  0.1390 -0.5467
  105MOL0     O13729   1.206   2.931   4.818  0.0929 -0.4481 -0.4799
  105MOL0     C13730   1.242   2.898   4.932  0.7283  1.2329  0.3697
  105MOL0     O13731   1.163   2.899   5.044  0.1956  0.0524  0.7761
  105MOL0     C13732   1.025   2.927   5.042 -1.1868 -0.4082  0.4034
  105MOL0     C13733   0.968   2.955   5.171  1.0206  0.2110 -0.4080
  105MOL0     C13734   0.833   2.968   5.187  0.1760  0.0657 -0.5706
  105MOL0     C13735   0.740   2.952   5.077 -0.1691 -0.4737 -0.2529
  105MOL0     O13736   0.601   2.966   5.091  0.9293  0.4458  0.1442
  105MOL0     C13737   0.517   2.975   4.970  0.7000 -0.5651  0.0730
  105MOL0     C13738   0.372   2.989   5.015  0.3795 -0.1171 -0.8222
  105MOL0     C13739   0.352   3.126   5.088  1.1937 -0.4577 -0.9971
  105MOL0     C13740   0.202   3.152   5.131  0.2265 -0.8487  0.2498
  105MOL0     C13741   0.172   3.243   5.246 -1.1881 -0.1565 -0.7286
  105MOL0     C13742   0.235   3.195   5.378 -0.0372  0.4263 -0.5726
  105MOL0     C13743   0.223   3.306   5.489  0.5291 -0.0888  0.6261
  105MOL0     C13744   0.319   3.428   5.458  0.9092 -0.2020 -0.3803
  105MOL0     N13745   0.457   3.389   5.441 -0.4311  0.5342 -0.6728
  105MOL0     C13746   0.549   3.376   5.549  0.1286  0.1865 -0.3626
  105MOL0     C13747   0.667   3.354   5.488 -0.4509 -0.6691  0.4632
  105MOL0     C13748   0.801   3.336   5.549 -0.0370 -0.5749  0.4011
  105MOL0     C13749   0.830   3.453   5.643 -0.3465  0.6048  0.1968
  105MOL0     C13750   0.831   3.593   5.580  0.0850  0.5148 -0.1609
  105MOL0     C13751   0.932   3.626   5.481 -0.1930 -0.2145  0.8419
  105MOL0     O13752   1.062   3.597   5.532 -0.8850 -0.8393  0.3080
  105MOL0     C13753   1.162   3.642   5.449  0.0729  0.3713  0.1216
  105MOL0     C13754   1.161   3.662   5.312 -0.6983  0.5438  0.5461
  105MOL0     C13755   1.275   3.671   5.237  0.1618 -0.7223 -0.1435
  105MOL0     C13756   1.403   3.683   5.293 -0.1693 -1.0668  0.3599
  105MOL0     C13757   1.526   3.690   5.216 -0.0608 -0.4132 -0.3294
  105MOL0     O13758   1.522   3.629   5.096  0.3732 -0.2504 -0.4407
  105MOL0     C13759   1.629   3.632   5.008  0.3579  0.4909  0.2336
  105MOL0     C13760   1.755   3.690   5.024 -0.4965 -0.0529  0.6114
  105MOL0     C13761   1.856   3.666   4.931  0.3604 -0.1506  0.6982
  105MOL0     C13762   1.824   3.611   4.803  0.7448 -0.8052 -0.6732
  105MOL0     O13763   1.908   3.609   4.704  0.0727 -0.7964  0.3633
  105MOL0     C13764   2.038   3.679   4.713 -0.9915  0.2098 -0.1496
  105MOL0     C13765   2.101   3.680   4.571 -0.2626  0.0056 -0.5765
  105MOL0     C13766   2.257   3.665   4.564  0.3340 -0.5029  0.5505
  105MOL0     C13767   2.326   3.797   4.584  0.6751 -0.9610  0.6943
  105MOL0     C13768   2.318   3.878   4.449 -1.0958 -0.0588 -0.9249
  105MOL0     C13769   2.357   4.029   4.473 -0.2928 -0.3772  0.7071
  105MOL0     C13770   2.367   4.105   4.343  0.2945  0.9871  0.2778
  105MOL0     C13771   2.442   4.236   4.352 -0.2198 -0.2211 -0.9968
  105MOL0    Cl13772   2.377   4.352   4.468 -0.0169 -0.2625  0.2320
  105MOL0     C13773   1.701   3.552   4.784  0.5379  0.7053 -0.5617
  105MOL0     C13774   1.605   3.566   4.889  0.6693 -0.6953  1.0275
  105MOL0     O13775   1.627   3.721   5.280  0.1451  0.2650 -0.6675
  105MOL0     C13776   1.403   3.675   5.436  0.2627  0.6952  0.5384
  105MOL0     C13777   1.286   3.649   5.512  0.4756 -0.3405 -0.1823
  105MOL0     N13778   0.646   3.359   5.351  0.3632 -0.1875  0.5160
  105MOL0     N13779   0.519   3.374   5.323  0.3917  0.5163  0.3318
  105MOL0     C13780   0.794   2.933   4.954  0.2304 -1.0065  0.4284
  105MOL0     C13781   0.931   2.912   4.938 -0.3244  0.6165  0.2459
  105MOL0     C13782   1.384   2.855   4.952  0.1610 -0.0827  0.0864
  105MOL0     C13783   1.433   2.818   5.076 -0.1007 -0.1126 -0.7153
  105MOL0     C13784   1.553   2.757   5.090  0.0409 -0.5920  0.1525
  105MOL0     C13785   1.645   2.761   4.990 -0.6250  0.0512 -0.3918
  105MOL0     O13786   1.772   2.720   5.011  0.2966 -0.5046 -0.1116
  105MOL0     C13787   1.789   2.612   5.105 -1.0626  0.0572  0.3562
  105MOL0     C13788   1.937   2.555   5.103  0.4838  0.7324 -0.2372
  105MOL0     C13789   1.989   2.520   4.961 -0.3210  0.3732 -0.4060
  105MOL0     C13790   2.099   2.413   4.955  0.7337  0.2705 -0.8373
  105MOL0     C13791   2.160   2.395   4.822 -0.9010 -0.4295  0.4809
  105MOL0     C13792   2.207   2.380   4.714  0.1874 -0.8923  0.4513
  105MOL0     C13793   1.613   2.827   4.876 -0.0525  0.2522  0.6789
  105MOL0     C13794   1.479   2.869   4.856  0.0569  0.0930  1.5459
  105MOL0     H13795   1.034   2.953   5.257  1.2404 -0.5414 -0.5868
  105MOL0     H13796   0.805   2.980   5.292  2.8401 -1.6947  0.4462
  105MOL0     H13797   0.530   2.879   4.921  1.5882  0.3464 -1.5614
  105MOL0     H13798   0.535   3.060   4.902  0.0607 -1.9025 -1.8639
  105MOL0     H13799   0.340   2.902   5.074 -0.1516  0.5060 -0.1684
  105MOL0     H13800   0.299   2.983   4.934 -0.7861 -0.2460  0.2004
  105MOL0     H13801   0.393   3.216   5.040  0.7280  0.7306  0.7217
  105MOL0     H13802   0.403   3.116   5.184  1.2109  0.5449 -0.8864
  105MOL0     H13803   0.154   3.190   5.040 -0.0096 -1.9619 -0.1119
  105MOL0     H13804   0.152   3.056   5.148  2.7088 -2.3759 -0.5323
  105MOL0     H13805   0.068   3.249   5.278 -1.2174 -0.7782 -0.6924
  105MOL0     H13806   0.210   3.344   5.226  0.3271 -0.5499  0.0097
  105MOL0     H13807   0.338   3.166   5.356 -0.2170  1.0410 -2.4141
  105MOL0     H13808   0.179   3.117   5.430  2.1939  0.0232  1.4085
  105MOL0     H13809   0.119   3.333   5.503  0.4236  3.0385 -3.8529
  105MOL0     H13810   0.267   3.277   5.585  3.8460  2.2989  0.0085
  105MOL0     H13811   0.303   3.507   5.533  0.4731  2.4118 -3.0254
  105MOL0     H13812   0.284   3.474   5.365 -2.7343 -0.6588  0.6230
  105MOL0     H13813   0.525   3.399   5.652  1.0436  0.1397 -0.1251
  105MOL0     H13814   0.878   3.330   5.472  0.7748  2.3358  0.8606
  105MOL0     H13815   0.811   3.247   5.612  0.1052 -0.4950  0.4906
  105MOL0     H13816   0.929   3.442   5.689  0.5344  1.3931 -1.4363
  105MOL0     H13817   0.770   3.464   5.733 -0.7036  0.8204 -0.0683
  105MOL0     H13818   0.730   3.608   5.539 -0.6681 -1.1950  0.9333
  105MOL0     H13819   0.857   3.657   5.665  3.8219 -1.2470  0.2214
  105MOL0     H13820   0.926   3.730   5.446  1.0468 -0.0762  0.9916
  105MOL0     H13821   0.900   3.570   5.393 -1.7507  0.2876  1.0545
  105MOL0     H13822   1.070   3.639   5.259 -1.9034  3.0368  1.3729
  105MOL0     H13823   1.272   3.658   5.129  1.9280  3.4832 -0.9184
  105MOL0     H13824   1.778   3.756   5.108  1.1591  0.4098 -0.1582
  105MOL0     H13825   1.952   3.701   4.968  0.1879  0.7299  0.3411
  105MOL0     H13826   2.105   3.617   4.774 -0.0124  2.1723  0.8606
  105MOL0     H13827   2.024   3.778   4.757 -1.5994 -0.3310  0.9334
  105MOL0     H13828   2.068   3.772   4.523  0.3407  0.2175 -0.5908
  105MOL0     H13829   2.060   3.593   4.518  1.1601 -1.3047  0.3632
  105MOL0     H13830   2.275   3.634   4.460  2.1215  3.0114 -0.3307
  105MOL0     H13831   2.295   3.591   4.635  0.5591 -1.8777 -0.9515
  105MOL0     H13832   2.279   3.870   4.650 -0.7469  0.5103 -1.7817
  105MOL0     H13833   2.431   3.782   4.608  0.7833 -0.8765  0.2809
  105MOL0     H13834   2.218   3.870   4.407 -1.9808  1.9289  0.6469
  105MOL0     H13835   2.387   3.836   4.375  1.1888 -0.6788  1.3860
  105MOL0     H13836   2.458   4.030   4.514  1.4391 -3.3176 -2.9409
  105MOL0     H13837   2.288   4.075   4.545 -0.6581  0.0556  0.0959
  105MOL0     H13838   2.425   4.053   4.265  1.3197  1.8727  0.4181
  105MOL0     H13839   2.264   4.130   4.319 -0.8017 -0.5635  2.9453
  105MOL0     H13840   2.440   4.274   4.250  2.0208  1.6904 -0.3997
  105MOL0     H13841   2.546   4.228   4.385  0.2225  3.6091 -0.9980
  105MOL0     H13842   1.682   3.511   4.686  2.7368  0.1709 -0.8124
  105MOL0     H13843   1.508   3.520   4.874 -0.3944  1.2706  1.4915
  105MOL0     H13844   1.497   3.671   5.489  0.0637  0.7763  0.8994
  105MOL0     H13845   1.292   3.606   5.611 -0.8476 -2.7138 -1.0505
  105MOL0     H13846   0.724   2.921   4.872  1.5113 -0.2322 -0.8199
  105MOL0     H13847   0.961   2.875   4.840 -2.2238 -4.1197  1.1559
  105MOL0     H13848   1.372   2.824   5.166 -1.0984  2.5288 -1.4641
  105MOL0     H13849   1.582   2.721   5.188  1.8085 -1.5280 -0.6728
  105MOL0     H13850   1.736   2.523   5.066  2.3494 -1.1661 -1.9633
  105MOL0     H13851   1.749   2.646   5.200 -0.9426  2.0795 -0.2833
  105MOL0     H13852   2.005   2.628   5.147  1.8686 -1.6782  1.9007
  105MOL0     H13853   1.948   2.463   5.161  0.6903  1.1281  0.3649
  105MOL0     H13854   2.029   2.618   4.933  1.9015 -0.4487 -0.3727
  105MOL0     H13855   1.897   2.495   4.908  0.0638 -1.9787 -0.0779
  105MOL0     H13856   2.174   2.468   5.013  0.2835  1.5295 -1.3957
  105MOL0     H13857   2.084   2.317   5.005  1.2991  1.3020  1.4786
  105MOL0     H13858   2.253   2.388   4.618 -0.6276 -2.0420 -0.0561
  105MOL0     H13859   1.684   2.834   4.794 -1.4643 -0.1562 -0.6099
  105MOL0     H13860   1.454   2.903   4.756 -1.1190 -0.5090  1.6121
  106MOL0     O13861  11.108   0.380   0.956  0.1706 -0.3464 -0.5274
  106MOL0     C13862  11.126   0.476   1.034 -0.0918 -0.1099  0.2413
  106MOL0     O13863  11.127   0.604   0.999  0.0940  0.1943  0.2351
  106MOL0     C13864  11.076   0.633   0.870  0.8064 -0.8193  0.3981
  106MOL0     C13865  11.158   0.703   0.783  0.5719 -0.6711  0.8941
  106MOL0     C13866  11.106   0.755   0.663  0.6760 -0.3613 -0.6467
  106MOL0     C13867  10.973   0.747   0.634  0.5599  0.9870 -0.2733
  106MOL0     O13868  10.913   0.803   0.517 -0.1196  0.0473  0.2995
  106MOL0     C13869  10.874   0.941   0.535 -0.1913  0.7699 -0.8914
  106MOL0     C13870  10.774   0.987   0.428  0.4387 -0.3834 -0.5444
  106MOL0     C13871  10.630   0.949   0.474  0.7844 -0.4165  0.2938
  106MOL0     C13872  10.528   1.002   0.370 -0.2959  0.5751 -0.2857
  106MOL0     C13873  10.392   0.922   0.383  0.4734  0.3966  0.3556
  106MOL0     C13874  10.292   0.970   0.274 -0.6825 -0.0843  0.3456
  106MOL0     C13875  10.236   1.104   0.324  0.0027  0.1915  0.7207
  106MOL0     C13876  10.121   1.070   0.425  1.2651  0.4009  0.0466
  106MOL0     N13877  10.000   1.007   0.370  0.1962 -0.2219  0.3862
  106MOL0     C13878   9.917   1.069   0.296  0.0678 -0.0076 -0.0603
  106MOL0     C13879   9.803   0.994   0.283 -0.4946 -0.1909 -0.0065
  106MOL0     C13880   9.690   1.031   0.199 -0.6042  0.3429  0.8226
  106MOL0     C13881   9.659   1.177   0.202  0.0415 -0.7911 -0.3921
  106MOL0     C13882   9.548   1.204   0.093 -0.2055  0.4902  0.1771
  106MOL0     C13883   9.416   1.144   0.131 -0.2283  0.3438  0.3139
  106MOL0     O13884   9.398   1.007   0.101  0.3908  0.7073 -0.2202
  106MOL0     C13885   9.277   0.951   0.126  0.7975 -0.0669  0.2322
  106MOL0     C13886   9.163   0.992   0.065 -0.0050  0.3721  0.2838
  106MOL0     C13887   9.040   0.931   0.079  0.1493 -1.2573 -0.8008
  106MOL0     C13888   9.030   0.830   0.181 -0.7391 -0.3807 -0.5472
  106MOL0     C13889   8.899   0.763   0.212 -0.0096 -0.2251 -0.1934
  106MOL0     O13890   8.792   0.821   0.157  0.1585 -0.2675  0.7462
  106MOL0     C13891   8.669   0.765   0.189  0.6931  0.0132  0.0169
  106MOL0     C13892   8.640   0.641   0.128 -0.0806  0.1142 -0.1807
  106MOL0     C13893   8.507   0.591   0.137 -0.3404  0.0152 -0.3067
  106MOL0     C13894   8.401   0.662   0.201  0.5123 -0.0209  0.6750
  106MOL0     O13895   8.271   0.623   0.205  0.3473  0.4476 -0.5929
  106MOL0     C13896   8.229   0.553   0.089  0.9994  0.1402 -0.4303
  106MOL0     C13897   8.077   0.557   0.081 -0.2951  0.4284 -0.3111
  106MOL0     C13898   8.036   0.498  -0.056 -0.8616 -0.3370 -0.1484
  106MOL0     C13899   7.895   0.538  -0.082  0.4364  0.7851 -0.7762
  106MOL0     C13900   7.859   0.575  -0.224  0.0355 -0.6741  0.7922
  106MOL0     C13901   7.873   0.476  -0.335 -0.0310  0.5133  0.1943
  106MOL0     C13902   7.864   0.535  -0.486  0.3288 -0.8450 -0.7741
  106MOL0     C13903   7.993   0.594  -0.547 -0.1853 -0.2789  0.0539
  106MOL0    Cl13904   8.102   0.454  -0.520  0.0540  0.6458  0.1108
  106MOL0     C13905   8.438   0.790   0.262  0.4023 -0.1924  1.3329
  106MOL0     C13906   8.570   0.848   0.251 -0.4666  0.7300  0.3951
  106MOL0     O13907   8.903   0.663   0.284  0.1948 -0.1660 -0.9125
  106MOL0     C13908   9.144   0.787   0.249 -0.4969  0.0098  0.3637
  106MOL0     C13909   9.273   0.850   0.215  0.6161  0.3704 -0.2057
  106MOL0     N13910   9.823   0.881   0.355  0.7895 -0.2279 -0.0606
  106MOL0     N13911   9.944   0.885   0.398  0.8795 -0.2445 -0.5303
  106MOL0     C13912  10.902   0.672   0.726 -0.3902  0.0343  0.1499
  106MOL0     C13913  10.948   0.624   0.841  0.2135  1.1607 -0.8679
  106MOL0     C13914  11.134   0.450   1.179  0.4259  0.5102 -0.6432
  106MOL0     C13915  11.225   0.519   1.252  0.9535  0.1799  1.0984
  106MOL0     C13916  11.249   0.477   1.383 -0.6621  0.0246 -0.4906
  106MOL0     C13917  11.156   0.392   1.446 -0.1202 -0.0093 -0.2291
  106MOL0     O13918  11.176   0.344   1.570 -0.1099  0.4729  0.1252
  106MOL0     C13919  11.272   0.397   1.650  0.1744 -0.6862 -0.4415
  106MOL0     C13920  11.245   0.367   1.795  0.6386  0.6890  0.4012
  106MOL0     C13921  11.227   0.219   1.820  0.1064 -0.5310 -0.4185
  106MOL0     C13922  11.274   0.184   1.962  0.8764  0.2133 -0.0933
  106MOL0     C13923  11.185   0.250   2.064 -0.0876  0.1555 -0.6027
  106MOL0     C13924  11.101   0.301   2.138 -0.4947 -0.2779 -0.3766
  106MOL0     C13925  11.050   0.342   1.375  0.5551  0.3918 -0.1695
  106MOL0     C13926  11.035   0.366   1.244 -0.1197 -0.4578  0.7289
  106MOL0     H13927  11.263   0.711   0.811  0.8557 -0.2259 -0.2418
  106MOL0     H13928  11.165   0.803   0.586 -1.5956  0.3961 -2.0399
  106MOL0     H13929  10.964   1.001   0.518 -0.2509  0.8870 -0.7951
  106MOL0     H13930  10.831   0.954   0.634  2.6284  0.5447  0.4640
  106MOL0     H13931  10.798   0.947   0.330  0.5209  0.3906 -0.8512
  106MOL0     H13932  10.792   1.095   0.416 -2.8088  0.4085  0.5228
  106MOL0     H13933  10.598   0.977   0.575  0.4912 -2.2787  0.7585
  106MOL0     H13934  10.620   0.840   0.464 -2.9302 -0.0952 -1.5298
  106MOL0     H13935  10.512   1.109   0.383 -1.9016  0.7446 -2.9040
  106MOL0     H13936  10.576   0.984   0.273 -0.4993 -3.9573  0.2251
  106MOL0     H13937  10.348   0.931   0.482  1.0133  0.5673  0.5834
  106MOL0     H13938  10.410   0.814   0.373  0.5808  0.1870  2.3899
  106MOL0     H13939  10.209   0.900   0.261 -0.0026 -0.6601 -1.0990
  106MOL0     H13940  10.350   0.979   0.182  2.5515  0.5976  2.2747
  106MOL0     H13941  10.308   1.166   0.377  2.1661 -0.2245 -1.5452
  106MOL0     H13942  10.200   1.161   0.237 -1.9229 -1.4049  0.4012
  106MOL0     H13943  10.090   1.161   0.476 -1.7044  0.0909 -0.9778
  106MOL0     H13944  10.149   0.999   0.503  0.4280  1.2989  1.1968
  106MOL0     H13945   9.939   1.166   0.252 -3.0257  0.3762 -1.0385
  106MOL0     H13946   9.607   0.968   0.233  1.2374 -4.4241 -2.4476
  106MOL0     H13947   9.710   0.999   0.097  1.6937  0.9409  1.0135
  106MOL0     H13948   9.734   1.245   0.161 -1.6059 -0.1670 -2.5835
  106MOL0     H13949   9.625   1.225   0.294  1.7031  0.3202 -0.3208
  106MOL0     H13950   9.533   1.312   0.082 -0.2401  0.5354  0.6302
  106MOL0     H13951   9.583   1.160  -0.001  1.7602  0.5963  0.8325
  106MOL0     H13952   9.342   1.189   0.064 -1.6817 -3.4660 -0.9165
  106MOL0     H13953   9.388   1.159   0.236  1.6523  0.7012  0.7991
  106MOL0     H13954   9.169   1.077  -0.002 -3.5811  2.4393  2.2712
  106MOL0     H13955   8.950   0.969   0.034  0.8668  0.6167 -0.7301
  106MOL0     H13956   8.713   0.577   0.080  1.0683  1.8240 -0.8274
  106MOL0     H13957   8.496   0.493   0.093  1.4006 -0.1486 -0.4314
  106MOL0     H13958   8.248   0.445   0.089 -0.3035 -0.0990 -1.0356
  106MOL0     H13959   8.277   0.594   0.000 -0.1006 -0.6851 -1.4314
  106MOL0     H13960   8.046   0.660   0.101 -4.3821 -0.1239 -2.6571
  106MOL0     H13961   8.037   0.501   0.166 -1.5477  1.0004 -0.4994
  106MOL0     H13962   8.054   0.390  -0.054  0.3331 -0.2398 -2.2458
  106MOL0     H13963   8.092   0.550  -0.135 -2.3184  3.8861  1.3357
  106MOL0     H13964   7.821   0.461  -0.055  1.6649 -0.2857 -0.3633
  106MOL0     H13965   7.873   0.630  -0.026  1.2682  0.3119  0.3810
  106MOL0     H13966   7.919   0.664  -0.244  0.0170 -0.8166  0.0856
  106MOL0     H13967   7.755   0.607  -0.233 -0.0905 -1.4128 -0.7085
  106MOL0     H13968   7.795   0.400  -0.324  0.2036  0.1151 -0.8012
  106MOL0     H13969   7.966   0.420  -0.327  0.2500  1.0331  0.5799
  106MOL0     H13970   7.842   0.463  -0.565  1.6586 -0.0098 -1.9634
  106MOL0     H13971   7.775   0.595  -0.505 -0.2411 -2.2728 -3.1073
  106MOL0     H13972   8.026   0.691  -0.510 -0.8101  0.5764 -1.5570
  106MOL0     H13973   7.969   0.603  -0.653 -1.7385 -1.5483  0.2651
  106MOL0     H13974   8.355   0.839   0.311  1.0647  3.1038 -0.5441
  106MOL0     H13975   8.581   0.944   0.300 -1.9098  1.5268 -0.7485
  106MOL0     H13976   9.148   0.711   0.326  2.3865 -0.1639  0.1829
  106MOL0     H13977   9.362   0.811   0.262  0.5426  1.0399  0.5213
  106MOL0     H13978  10.795   0.668   0.707 -0.4827 -1.2256  0.8379
  106MOL0     H13979  10.877   0.579   0.909  1.6107 -0.3772 -0.3508
  106MOL0     H13980  11.294   0.584   1.200  0.2807  1.2361  1.4994
  106MOL0     H13981  11.334   0.513   1.441 -2.3080  1.8172  0.9198
  106MOL0     H13982  11.275   0.506   1.648  1.9569 -0.6051  2.0298
  106MOL0     H13983  11.372   0.360   1.628  0.6827 -0.0533  0.7187
  106MOL0     H13984  11.323   0.420   1.848  0.2828  1.0171  0.6035
  106MOL0     H13985  11.156   0.423   1.826  0.8158  0.7465  0.8088
  106MOL0     H13986  11.279   0.156   1.748  1.3267 -0.0138 -0.0155
  106MOL0     H13987  11.119   0.211   1.801 -0.1191 -0.0765  0.6033
  106MOL0     H13988  11.260   0.077   1.980 -0.0832  0.3434  0.0132
  106MOL0     H13989  11.379   0.214   1.967  0.2594  2.4984  2.9847
  106MOL0     H13990  11.020   0.345   2.192  0.5435  0.6442  0.4625
  106MOL0     H13991  10.985   0.285   1.440  0.8742  2.1637  1.8284
  106MOL0     H13992  10.954   0.315   1.192 -0.1101  1.5998 -1.4470
  107MOL0     O13993   3.641   4.967   1.738 -0.0372  0.4909 -0.0891
  107MOL0     C13994   3.725   4.882   1.753 -0.4647 -0.2376 -0.1913
  107MOL0     O13995   3.710   4.759   1.814  0.0543 -0.3537  0.6922
  107MOL0     C13996   3.582   4.711   1.846 -0.7095 -0.0913 -0.2386
  107MOL0     C13997   3.534   4.724   1.974  0.5788  0.5862 -0.4868
  107MOL0     C13998   3.407   4.669   2.005  0.7609  0.3319  0.5507
  107MOL0     C13999   3.332   4.597   1.907  0.1422  0.4598  0.6697
  107MOL0     O14000   3.200   4.548   1.921 -0.1673  0.6840  0.0529
  107MOL0     C14001   3.130   4.590   2.044 -0.5939  0.9177  0.2747
  107MOL0     C14002   2.990   4.535   2.037  0.5098 -0.4055  0.5390
  107MOL0     C14003   2.890   4.628   2.108  0.0054 -0.6579  0.0358
  107MOL0     C14004   2.763   4.565   2.163  0.4377 -0.2051  0.0193
  107MOL0     C14005   2.665   4.676   2.196  0.5039  0.7052  0.3566
  107MOL0     C14006   2.541   4.623   2.272 -0.0004  0.1396 -0.7336
  107MOL0     C14007   2.433   4.733   2.280  0.8204  0.2434  0.7436
  107MOL0     C14008   2.300   4.669   2.329 -0.5434 -0.6139 -0.8682
  107MOL0     N14009   2.185   4.757   2.297 -0.4417  0.1001 -0.1699
  107MOL0     C14010   2.062   4.719   2.242 -0.4997  0.4501  0.5725
  107MOL0     C14011   1.981   4.818   2.278  0.3676  0.0844  0.3420
  107MOL0     C14012   1.832   4.803   2.252 -0.0291  0.7816 -0.5117
  107MOL0     C14013   1.759   4.883   2.352  0.2767 -0.6243  0.5261
  107MOL0     C14014   1.608   4.891   2.339 -0.6305  0.3799 -0.6292
  107MOL0     C14015   1.536   4.758   2.376 -0.6284  0.1422 -0.2507
  107MOL0     O14016   1.394   4.771   2.372  0.9452 -0.6325 -0.2049
  107MOL0     C14017   1.321   4.704   2.272  0.1511 -0.6883  0.6425
  107MOL0     C14018   1.370   4.686   2.139 -0.0872  0.3105 -0.1398
  107MOL0     C14019   1.282   4.619   2.043  0.5469 -0.8349 -0.5465
  107MOL0     C14020   1.165   4.565   2.084 -0.2918 -0.8360  0.2387
  107MOL0     C14021   1.082   4.477   1.992 -0.0590  0.8603  0.3184
  107MOL0     O14022   0.963   4.445   2.056  0.0733  0.3663 -0.2652
  107MOL0     C14023   0.866   4.375   1.988 -0.4236  0.7898  0.6149
  107MOL0     C14024   0.756   4.448   1.946  0.5570  0.3355  0.2849
  107MOL0     C14025   0.644   4.389   1.895  0.3977 -0.6791 -0.3596
  107MOL0     C14026   0.637   4.251   1.887  0.6275 -0.7626 -0.4244
  107MOL0     O14027   0.523   4.189   1.857  0.6419  0.0885  0.5446
  107MOL0     C14028   0.414   4.164   1.945  1.0453  0.1980  0.5216
  107MOL0     C14029   0.343   4.294   1.972  0.0560  0.3790  0.3990
  107MOL0     C14030   0.189   4.281   1.987  1.3736  0.3476 -0.3917
  107MOL0     C14031   0.155   4.173   2.102 -0.2977 -0.3771  0.4861
  107MOL0     C14032   0.002   4.149   2.109 -0.4688  1.4123  0.1755
  107MOL0     C14033  -0.070   4.275   2.128  0.8294 -0.1387  0.7920
  107MOL0     C14034  -0.215   4.258   2.176  0.0824  0.9778 -0.9445
  107MOL0     C14035  -0.309   4.242   2.068 -0.1348 -0.2353 -0.6168
  107MOL0    Cl14036  -0.441   4.135   2.136 -0.0264  0.4571 -0.5118
  107MOL0     C14037   0.738   4.175   1.933 -0.2008 -0.2579 -0.0872
  107MOL0     C14038   0.857   4.234   1.982  0.4102  0.2386 -0.4588
  107MOL0     O14039   1.117   4.429   1.880 -0.7047  0.0796  0.2140
  107MOL0     C14040   1.112   4.598   2.216 -0.0019  0.3858 -0.0569
  107MOL0     C14041   1.195   4.661   2.309  0.6714  0.8000  0.6419
  107MOL0     N14042   2.048   4.911   2.355 -0.1645  0.0498 -0.5284
  107MOL0     N14043   2.167   4.865   2.375  0.2947 -0.4267 -0.1071
  107MOL0     C14044   3.389   4.578   1.781 -0.3251  0.4827 -0.6239
  107MOL0     C14045   3.511   4.633   1.751 -0.3449 -0.6391 -0.5807
  107MOL0     C14046   3.858   4.911   1.693  0.3830  0.2553 -0.2877
  107MOL0     C14047   3.974   4.854   1.730  0.1946  0.0019  0.7272
  107MOL0     C14048   4.094   4.892   1.676 -1.2175 -0.1499  0.5898
  107MOL0     C14049   4.103   4.987   1.574  0.3089 -0.0108 -0.6003
  107MOL0     O14050   4.237   5.015   1.527 -0.2805 -0.0272 -0.5309
  107MOL0     C14051   4.256   5.099   1.411 -0.8855 -0.1417  0.1332
  107MOL0     C14052   4.405   5.124   1.393 -0.2697  0.4969  0.3669
  107MOL0     C14053   4.471   5.015   1.314  0.6718 -0.4655  0.5633
  107MOL0     C14054   4.618   5.029   1.289 -0.4369  0.0261 -0.0496
  107MOL0     C14055   4.643   5.117   1.172  0.7953 -0.3652  0.0581
  107MOL0     C14056   4.673   5.203   1.088  1.2449  0.0029 -0.9183
  107MOL0     C14057   3.986   5.027   1.521 -0.2068 -0.7729 -0.1697
  107MOL0     C14058   3.864   4.992   1.576  1.6435  0.7957  0.0113
  107MOL0     H14059   3.568   4.801   2.043  0.4004  1.5888 -1.4776
  107MOL0     H14060   3.368   4.686   2.105  1.5494 -1.7748  1.2728
  107MOL0     H14061   3.111   4.698   2.041 -2.9963  0.5916 -3.9345
  107MOL0     H14062   3.184   4.557   2.133 -0.2893  2.6391  0.7700
  107MOL0     H14063   2.995   4.436   2.084  1.6263 -1.1061 -0.9877
  107MOL0     H14064   2.957   4.528   1.933  1.2992  3.2370 -0.0997
  107MOL0     H14065   2.859   4.699   2.030  0.0966 -0.0481  0.5456
  107MOL0     H14066   2.944   4.680   2.187 -0.3903 -0.2220  0.0247
  107MOL0     H14067   2.724   4.510   2.077  1.4357 -0.5442 -0.2253
  107MOL0     H14068   2.784   4.498   2.247  2.0546 -1.5833 -1.3987
  107MOL0     H14069   2.632   4.714   2.099 -1.7904 -0.1520  0.7257
  107MOL0     H14070   2.710   4.750   2.263  1.9359 -1.3325  1.8047
  107MOL0     H14071   2.571   4.601   2.374  1.5098 -0.5518 -1.3017
  107MOL0     H14072   2.502   4.535   2.221 -0.0498  0.3739 -1.1060
  107MOL0     H14073   2.463   4.814   2.347  0.2113 -0.0210  1.3517
  107MOL0     H14074   2.421   4.774   2.179  3.0434 -3.4268 -1.2557
  107MOL0     H14075   2.307   4.663   2.438  1.8884  1.6122 -0.7932
  107MOL0     H14076   2.287   4.564   2.303  1.4337 -1.9438  2.9249
  107MOL0     H14077   2.042   4.632   2.180  0.9572 -1.3674  2.5112
  107MOL0     H14078   1.804   4.699   2.270  2.8659  0.1990  1.4709
  107MOL0     H14079   1.804   4.835   2.152  1.2279  1.1592 -0.7564
  107MOL0     H14080   1.795   4.985   2.366 -2.5845  0.5690 -0.0733
  107MOL0     H14081   1.780   4.837   2.449  0.1961  0.4903  1.0779
  107MOL0     H14082   1.583   4.969   2.411  1.7729  1.4268 -0.8292
  107MOL0     H14083   1.585   4.919   2.236  0.5113 -0.9203 -1.2693
  107MOL0     H14084   1.556   4.733   2.480  0.3386  1.7577 -0.0111
  107MOL0     H14085   1.568   4.681   2.305  2.7082  1.6780 -0.5907
  107MOL0     H14086   1.470   4.704   2.099 -0.5501 -0.5958 -1.7850
  107MOL0     H14087   1.319   4.605   1.942 -0.6130  1.4410 -1.3572
  107MOL0     H14088   0.769   4.556   1.952  2.8010  0.0986  0.5758
  107MOL0     H14089   0.556   4.447   1.870 -1.5799 -3.9664 -1.6003
  107MOL0     H14090   0.444   4.111   2.036 -0.5150  0.6504  1.3411
  107MOL0     H14091   0.341   4.099   1.896  1.7012 -1.2993  1.4406
  107MOL0     H14092   0.353   4.377   1.901 -3.9146  0.3425 -0.4480
  107MOL0     H14093   0.383   4.335   2.065  2.0896 -1.1311  0.2495
  107MOL0     H14094   0.136   4.239   1.901  0.4810 -2.1532  1.2751
  107MOL0     H14095   0.137   4.375   2.011 -2.8497 -1.4635 -1.4937
  107MOL0     H14096   0.208   4.079   2.084 -1.5451 -1.2163  1.0740
  107MOL0     H14097   0.197   4.219   2.192 -2.0772  4.7262 -0.9590
  107MOL0     H14098  -0.005   4.087   2.199  1.0029  1.7661  0.5544
  107MOL0     H14099  -0.017   4.091   2.018 -2.1005 -0.1167  1.4068
  107MOL0     H14100  -0.066   4.342   2.042  0.5301  1.2930  1.8547
  107MOL0     H14101  -0.020   4.327   2.210 -0.3718  1.5704  0.4961
  107MOL0     H14102  -0.224   4.176   2.248  1.7148  1.5847 -0.0016
  107MOL0     H14103  -0.249   4.351   2.222  0.2257  1.1093 -1.1031
  107MOL0     H14104  -0.260   4.202   1.979  1.4144  0.1720  0.0225
  107MOL0     H14105  -0.366   4.326   2.028 -1.0329 -1.5996 -2.3101
  107MOL0     H14106   0.716   4.071   1.913  0.8952 -0.4626 -0.3084
  107MOL0     H14107   0.934   4.178   2.034 -0.2213 -0.8650 -0.6898
  107MOL0     H14108   1.015   4.582   2.262  0.3898 -3.2464 -0.1744
  107MOL0     H14109   1.157   4.687   2.408 -0.9592 -0.3179  0.3549
  107MOL0     H14110   3.340   4.520   1.703  0.5199  2.5546 -2.7929
  107MOL0     H14111   3.575   4.636   1.664 -0.1518 -0.8769 -0.4474
  107MOL0     H14112   3.969   4.776   1.806 -0.5530 -0.4742  0.2016
  107MOL0     H14113   4.184   4.837   1.703  1.1146  1.4323 -3.2135
  107MOL0     H14114   4.211   5.197   1.431 -2.0735 -1.0811  2.3601
  107MOL0     H14115   4.208   5.044   1.329 -1.5939 -5.1718  3.4653
  107MOL0     H14116   4.426   5.215   1.335 -2.5190  0.7206 -0.1770
  107MOL0     H14117   4.446   5.124   1.495  1.4054 -2.6861 -0.1880
  107MOL0     H14118   4.420   5.007   1.217 -3.7354 -0.3275  2.6043
  107MOL0     H14119   4.442   4.923   1.365  2.9374 -1.1643  0.6766
  107MOL0     H14120   4.669   5.069   1.378  0.1436 -2.8640  1.0300
  107MOL0     H14121   4.660   4.931   1.268  0.1909  0.2882 -0.0261
  107MOL0     H14122   4.691   5.288   1.025  2.4570 -0.0031 -0.6159
  107MOL0     H14123   3.997   5.088   1.432 -0.2593 -1.3268 -0.5663
  107MOL0     H14124   3.771   5.037   1.542  0.5302 -0.5200  1.1975
  108MOL0     O14125   2.157   0.923   3.742  0.1565 -0.1291  0.3870
  108MOL0     C14126   2.173   0.966   3.854 -0.5073 -0.5038  0.0438
  108MOL0     O14127   2.081   0.979   3.947  0.2822 -0.6374 -0.3090
  108MOL0     C14128   1.953   0.943   3.912 -0.2101 -0.2523  0.5042
  108MOL0     C14129   1.878   1.035   3.840  0.1750 -0.1765  0.5151
  108MOL0     C14130   1.738   0.998   3.815 -0.1789  0.0076 -0.2435
  108MOL0     C14131   1.684   0.876   3.864 -0.8800  0.0008  1.0527
  108MOL0     O14132   1.560   0.830   3.828 -0.0517 -0.0434  0.5254
  108MOL0     C14133   1.455   0.925   3.814 -0.4292 -0.8834  0.6288
  108MOL0     C14134   1.321   0.851   3.797 -0.7506 -0.0054  0.0213
  108MOL0     C14135   1.295   0.778   3.925  0.4841 -0.0583  0.3844
  108MOL0     C14136   1.243   0.876   4.028  0.2149 -0.7625  0.6250
  108MOL0     C14137   1.234   0.811   4.170  0.6856 -0.2755 -0.0997
  108MOL0     C14138   1.127   0.872   4.254  0.0963 -0.5012  0.7660
  108MOL0     C14139   1.116   1.033   4.261  0.1805 -0.6730 -0.6334
  108MOL0     C14140   0.986   1.074   4.330 -1.0426 -0.1470 -0.0542
  108MOL0     N14141   0.983   1.216   4.357 -0.2956 -0.9245 -0.0112
  108MOL0     C14142   1.080   1.294   4.426 -0.1641 -0.2210 -0.4917
  108MOL0     C14143   1.040   1.421   4.402  1.0303 -0.2185 -0.0465
  108MOL0     C14144   1.106   1.539   4.451  0.3212 -0.3359 -0.3364
  108MOL0     C14145   0.996   1.634   4.506 -0.7157  0.2260 -0.3815
  108MOL0     C14146   0.904   1.587   4.619 -1.4655  1.1812  0.6747
  108MOL0     C14147   0.759   1.561   4.563 -0.3172 -0.9674  0.2324
  108MOL0     O14148   0.678   1.676   4.521  0.5066  0.4910  0.1730
  108MOL0     C14149   0.544   1.658   4.500 -0.1266 -0.0179 -0.5231
  108MOL0     C14150   0.450   1.751   4.551  0.2077 -0.4371  1.3292
  108MOL0     C14151   0.318   1.722   4.534 -0.4336 -0.1948 -0.9823
  108MOL0     C14152   0.267   1.608   4.481  0.0752 -0.5854  1.0897
  108MOL0     C14153   0.120   1.581   4.471 -0.5897 -0.7637 -0.4795
  108MOL0     O14154   0.050   1.641   4.571  0.2060 -0.0741 -0.2365
  108MOL0     C14155  -0.081   1.592   4.593 -0.3920  0.2611  0.2596
  108MOL0     C14156  -0.092   1.476   4.670  0.1284  0.2461  0.6174
  108MOL0     C14157  -0.209   1.406   4.694 -0.4093 -0.1312  0.1752
  108MOL0     C14158  -0.334   1.456   4.645 -0.3080 -0.0971 -0.5939
  108MOL0     O14159  -0.445   1.391   4.674  0.7431  0.6511 -0.3267
  108MOL0     C14160  -0.534   1.383   4.565  1.5047  0.4830 -0.5104
  108MOL0     C14161  -0.646   1.281   4.591 -0.8403 -0.8888 -0.3941
  108MOL0     C14162  -0.751   1.297   4.488  1.2296 -0.6014 -0.9685
  108MOL0     C14163  -0.874   1.214   4.519 -0.6514 -1.0975  0.8432
  108MOL0     C14164  -0.984   1.230   4.405  0.5379 -0.8265  0.3890
  108MOL0     C14165  -1.112   1.131   4.428  0.3861  0.4952  0.3849
  108MOL0     C14166  -1.228   1.198   4.496 -0.0592 -0.0222 -0.4541
  108MOL0     C14167  -1.315   1.288   4.409  0.4046  0.2674 -0.4803
  108MOL0    Cl14168  -1.395   1.178   4.292 -0.0996  0.4399 -0.2710
  108MOL0     C14169  -0.324   1.572   4.574  1.1737  0.2977  0.3360
  108MOL0     C14170  -0.201   1.630   4.547  0.0747 -0.2006 -0.0645
  108MOL0     O14171   0.077   1.509   4.389  0.9711  0.6238  0.3975
  108MOL0     C14172   0.361   1.520   4.435 -1.3548 -0.0255  0.1438
  108MOL0     C14173   0.497   1.545   4.433  0.2495  0.1192 -0.9092
  108MOL0     N14174   0.932   1.427   4.310  0.2596  0.7841  0.0523
  108MOL0     N14175   0.904   1.301   4.286  0.2042  0.0195 -0.3041
  108MOL0     C14176   1.766   0.789   3.934 -0.7528 -0.3291  1.0631
  108MOL0     C14177   1.903   0.823   3.963 -0.7640  0.3944 -0.2303
  108MOL0     C14178   2.308   0.994   3.893 -0.5348 -0.7086 -0.9369
  108MOL0     C14179   2.348   1.035   4.023  0.9465  0.4614  0.2446
  108MOL0     C14180   2.478   1.060   4.048 -0.1062  0.4206  0.0266
  108MOL0     C14181   2.581   1.054   3.949 -0.5030  0.5290  1.0025
  108MOL0     O14182   2.719   1.080   3.969 -0.5488 -0.0459  0.4160
  108MOL0     C14183   2.767   1.128   4.103 -0.1687  0.2722  0.4728
  108MOL0     C14184   2.903   1.203   4.096  0.0516  0.0911  0.2793
  108MOL0     C14185   3.005   1.124   4.011  0.2033  0.6583 -1.2492
  108MOL0     C14186   3.137   1.197   4.007  0.6239 -0.4896 -0.0998
  108MOL0     C14187   3.261   1.121   3.956  0.2420  0.8243 -0.3365
  108MOL0     C14188   3.347   1.045   3.926  0.0841 -0.0815 -0.1755
  108MOL0     C14189   2.538   1.013   3.822 -0.1964 -0.4600  0.5415
  108MOL0     C14190   2.407   0.983   3.793 -0.9259 -0.8536 -0.0904
  108MOL0     H14191   1.914   1.131   3.806 -3.3676  0.5787 -1.4799
  108MOL0     H14192   1.682   1.078   3.769 -0.3136  1.0429  1.6072
  108MOL0     H14193   1.484   0.973   3.720  1.7699  0.1085  1.7495
  108MOL0     H14194   1.444   1.007   3.886  0.0336  4.1643 -4.3392
  108MOL0     H14195   1.328   0.775   3.719  3.0045  1.5692 -1.4376
  108MOL0     H14196   1.246   0.925   3.766  1.7330  1.6499 -2.5728
  108MOL0     H14197   1.382   0.724   3.963  1.7208  1.3719 -0.3156
  108MOL0     H14198   1.209   0.711   3.912  0.4008  0.6592 -5.1830
  108MOL0     H14199   1.293   0.973   4.027 -2.5164  0.8182 -2.3333
  108MOL0     H14200   1.147   0.918   3.994  0.2848 -0.9861  0.1434
  108MOL0     H14201   1.331   0.813   4.221  0.3471 -1.4894  0.6395
  108MOL0     H14202   1.201   0.708   4.154 -1.7544  0.4038  0.1045
  108MOL0     H14203   1.130   0.824   4.352  0.3394 -4.4925 -0.9696
  108MOL0     H14204   1.034   0.842   4.203 -0.4214 -0.6099  1.7595
  108MOL0     H14205   1.207   1.070   4.308 -0.7513  0.6874  0.1631
  108MOL0     H14206   1.112   1.079   4.162  0.6339  2.2894  0.6215
  108MOL0     H14207   0.981   1.030   4.430  3.9140  1.5176  1.2069
  108MOL0     H14208   0.906   1.052   4.258 -1.8255 -0.1662  0.7950
  108MOL0     H14209   1.162   1.260   4.488 -1.1022 -1.2461  0.2260
  108MOL0     H14210   1.145   1.588   4.361 -1.7565  0.3892 -0.9087
  108MOL0     H14211   1.180   1.515   4.527 -0.7362  2.1430  1.6282
  108MOL0     H14212   0.940   1.672   4.421 -1.8210 -0.5272 -0.0231
  108MOL0     H14213   1.045   1.721   4.550  3.2106 -2.0182  0.1112
  108MOL0     H14214   0.946   1.495   4.661  1.4937  1.8809 -0.4868
  108MOL0     H14215   0.906   1.662   4.699  1.7733  0.9921  0.8915
  108MOL0     H14216   0.701   1.521   4.647 -2.1076 -0.8245 -0.8773
  108MOL0     H14217   0.764   1.489   4.481 -3.7272  1.8686 -2.8023
  108MOL0     H14218   0.480   1.841   4.603  1.7670  0.8708 -1.5518
  108MOL0     H14219   0.247   1.792   4.579  2.4597  1.5667  1.1970
  108MOL0     H14220  -0.003   1.421   4.699 -1.0868 -1.5916  1.0201
  108MOL0     H14221  -0.204   1.338   4.779  3.4089  1.3189  1.3537
  108MOL0     H14222  -0.485   1.352   4.473  0.6464 -0.1311 -0.7745
  108MOL0     H14223  -0.589   1.474   4.542 -3.8356 -1.6981  1.8553
  108MOL0     H14224  -0.678   1.291   4.695  0.2744 -1.1542 -0.0073
  108MOL0     H14225  -0.597   1.183   4.579  2.0551  0.4893 -0.7898
  108MOL0     H14226  -0.699   1.280   4.394  2.3006  1.5193 -0.8220
  108MOL0     H14227  -0.793   1.397   4.475  2.5035 -0.0390 -0.9192
  108MOL0     H14228  -0.836   1.111   4.518 -0.2229 -0.9409 -0.1334
  108MOL0     H14229  -0.914   1.238   4.618 -1.9125  0.5870 -0.0073
  108MOL0     H14230  -0.953   1.215   4.301 -2.0430  0.9222 -0.7462
  108MOL0     H14231  -1.005   1.337   4.403  5.8303  0.4700 -2.0597
  108MOL0     H14232  -1.085   1.040   4.482 -2.2215 -1.2034 -0.9783
  108MOL0     H14233  -1.137   1.091   4.330  0.3002 -1.2864  1.0962
  108MOL0     H14234  -1.292   1.124   4.546  2.1630 -0.7872  1.4621
  108MOL0     H14235  -1.180   1.262   4.571  0.5049  1.0367 -1.6789
  108MOL0     H14236  -1.258   1.372   4.367  2.8566  1.5164  4.4986
  108MOL0     H14237  -1.399   1.330   4.466 -0.2705 -0.5870 -0.8246
  108MOL0     H14238  -0.414   1.619   4.535  1.0400  0.2077  0.5363
  108MOL0     H14239  -0.201   1.726   4.497  0.2625 -0.0278  0.2661
  108MOL0     H14240   0.320   1.430   4.389 -0.7718 -2.0934  3.3054
  108MOL0     H14241   0.560   1.476   4.378  1.2476  0.0348  0.3030
  108MOL0     H14242   1.736   0.692   3.973 -1.3952 -0.6913 -0.2737
  108MOL0     H14243   1.978   0.763   4.014  1.2626  0.6352 -2.6941
  108MOL0     H14244   2.266   1.059   4.090  2.5137  3.6132  1.1947
  108MOL0     H14245   2.495   1.104   4.145  3.3265  1.6529 -0.9805
  108MOL0     H14246   2.788   1.046   4.172  0.1809 -1.0939 -1.1754
  108MOL0     H14247   2.696   1.195   4.152 -0.9571 -0.1049 -0.1263
  108MOL0     H14248   2.899   1.305   4.055  2.2180 -0.5890 -1.8949
  108MOL0     H14249   2.938   1.206   4.199 -1.7999  1.3725  0.9251
  108MOL0     H14250   2.979   1.116   3.905  1.7571 -0.7589 -1.5530
  108MOL0     H14251   3.017   1.023   4.050 -0.2295  0.4877 -1.5416
  108MOL0     H14252   3.136   1.287   3.944  0.8980  1.3575  2.3760
  108MOL0     H14253   3.150   1.224   4.112 -0.7857 -0.9173  0.2068
  108MOL0     H14254   3.436   0.993   3.895  0.4713  1.2491 -1.3705
  108MOL0     H14255   2.617   1.010   3.747 -1.2524 -5.2749 -0.7112
  108MOL0     H14256   2.388   0.942   3.694  0.0142  1.4751 -1.3004
  109MOL0     O14257  10.019   6.526   6.324  0.2514 -0.3309 -0.2211
  109MOL0     C14258  10.061   6.450   6.237 -0.4268  0.0578  0.8952
  109MOL0     O14259   9.978   6.390   6.151  0.0132 -0.4007  0.3696
  109MOL0     C14260   9.846   6.377   6.167  0.3634 -1.0672 -0.2329
  109MOL0     C14261   9.757   6.408   6.277  0.9261  0.6561  0.2003
  109MOL0     C14262   9.612   6.380   6.269  0.4548 -1.3266 -0.3590
  109MOL0     C14263   9.560   6.319   6.157 -0.5301 -0.9387 -0.5790
  109MOL0     O14264   9.424   6.290   6.156 -0.3859  0.1538  0.0392
  109MOL0     C14265   9.374   6.155   6.134 -0.0168 -1.3587 -0.2109
  109MOL0     C14266   9.407   6.041   6.241 -0.6515 -0.2290 -0.3107
  109MOL0     C14267   9.337   5.911   6.201 -0.0956  0.9111 -0.7004
  109MOL0     C14268   9.335   5.809   6.325 -0.1482 -0.0703 -0.6466
  109MOL0     C14269   9.253   5.682   6.318  0.0440  0.1032 -0.3626
  109MOL0     C14270   9.103   5.725   6.338 -0.4747 -0.0328 -0.6738
  109MOL0     C14271   8.998   5.649   6.255  0.9983 -0.6244  0.1975
  109MOL0     C14272   9.011   5.496   6.291 -0.3926  0.0272 -0.0218
  109MOL0     N14273   8.908   5.430   6.223  0.2664  0.6247  0.8449
  109MOL0     C14274   8.777   5.420   6.259 -0.3758 -0.5730 -0.6826
  109MOL0     C14275   8.699   5.392   6.152  0.1063  0.0907 -0.6986
  109MOL0     C14276   8.554   5.364   6.149  0.7665 -0.4847 -0.3821
  109MOL0     C14277   8.481   5.448   6.258  0.5820  0.1257 -1.1599
  109MOL0     C14278   8.442   5.360   6.377 -0.4002 -0.5014  0.4680
  109MOL0     C14279   8.364   5.237   6.353 -0.0695 -0.4464  0.3029
  109MOL0     O14280   8.247   5.262   6.275  0.1650  0.0088 -0.2875
  109MOL0     C14281   8.129   5.277   6.343 -0.1740  0.5274 -0.1981
  109MOL0     C14282   8.040   5.383   6.312  0.6774  0.2798 -0.1214
  109MOL0     C14283   7.908   5.385   6.361 -1.4619 -0.0156  0.4528
  109MOL0     C14284   7.872   5.298   6.450  0.4546  1.4616 -0.7378
  109MOL0     C14285   7.741   5.297   6.527  0.4177  1.2058  0.2532
  109MOL0     O14286   7.668   5.401   6.489  0.5562 -1.0381  0.8504
  109MOL0     C14287   7.552   5.431   6.555  0.3356 -0.3776  0.1343
  109MOL0     C14288   7.445   5.332   6.585 -0.4213 -0.1359 -1.0740
  109MOL0     C14289   7.325   5.379   6.636 -0.3520  0.5480 -0.4732
  109MOL0     C14290   7.299   5.514   6.648 -0.4150 -0.0797 -0.0588
  109MOL0     O14291   7.186   5.562   6.702  0.0849 -0.0888  0.5763
  109MOL0     C14292   7.071   5.504   6.638 -0.3040 -0.8582  0.5861
  109MOL0     C14293   6.967   5.605   6.678 -0.3455 -0.7607  0.0344
  109MOL0     C14294   6.931   5.579   6.820  0.2855 -0.7519  0.4607
  109MOL0     C14295   6.831   5.680   6.888 -0.2439 -0.0926 -0.0283
  109MOL0     C14296   6.782   5.646   7.026  0.1269 -0.5945  0.6697
  109MOL0     C14297   6.738   5.770   7.097 -1.0162  0.3565  0.1162
  109MOL0     C14298   6.763   5.766   7.245  0.4321  0.4561 -0.1843
  109MOL0     C14299   6.672   5.867   7.317  0.7359 -0.3174 -0.1938
  109MOL0    Cl14300   6.492   5.817   7.303 -0.2588  0.5880  0.5249
  109MOL0     C14301   7.392   5.605   6.606  1.4617  0.2590  0.1993
  109MOL0     C14302   7.514   5.566   6.554  0.0530  0.5991  0.0198
  109MOL0     O14303   7.719   5.222   6.622 -0.6794  0.4197  0.8308
  109MOL0     C14304   7.968   5.194   6.491  2.2230 -0.1361 -0.0533
  109MOL0     C14305   8.091   5.182   6.442  1.1353  1.3169  0.2130
  109MOL0     N14306   8.794   5.388   6.049 -0.2660  0.7540  0.4583
  109MOL0     N14307   8.919   5.392   6.095 -1.1728 -0.5677  0.5078
  109MOL0     C14308   9.639   6.292   6.051 -0.2191  0.4535 -0.8235
  109MOL0     C14309   9.777   6.322   6.056  0.6733 -0.0331  0.5629
  109MOL0     C14310  10.202   6.408   6.237 -0.2078 -0.8817  0.1690
  109MOL0     C14311  10.295   6.484   6.315 -0.7897  0.4024 -0.8637
  109MOL0     C14312  10.426   6.425   6.332  1.2807 -0.3359  0.0831
  109MOL0     C14313  10.471   6.323   6.257  0.8613  0.6232  0.3496
  109MOL0     O14314  10.603   6.279   6.264  0.3770 -1.0769 -0.4301
  109MOL0     C14315  10.670   6.283   6.399  0.0332 -0.6634  0.3651
  109MOL0     C14316  10.812   6.234   6.400  0.0983 -0.1299  0.0239
  109MOL0     C14317  10.869   6.247   6.548  0.2793  0.1198  0.1814
  109MOL0     C14318  10.995   6.163   6.570 -0.8721  0.4801  0.6311
  109MOL0     C14319  11.037   6.191   6.704 -0.1679  0.2974 -0.2762
  109MOL0     C14320  11.101   6.193   6.810  0.8044  0.2115  0.1430
  109MOL0     C14321  10.387   6.265   6.172  0.3545 -0.2522  0.0541
  109MOL0     C14322  10.252   6.303   6.165 -0.1116 -0.5404  0.4788
  109MOL0     H14323   9.804   6.447   6.367 -1.6503  1.9972  1.0919
  109MOL0     H14324   9.543   6.404   6.350 -0.1946 -0.9393 -1.0069
  109MOL0     H14325   9.420   6.118   6.042  0.5007  2.5617 -1.7097
  109MOL0     H14326   9.266   6.159   6.120 -0.1325 -3.5065 -0.3057
  109MOL0     H14327   9.366   6.055   6.342  0.9444 -3.4986  0.9499
  109MOL0     H14328   9.516   6.041   6.251 -0.8542 -0.0511  3.3243
  109MOL0     H14329   9.391   5.860   6.120 -1.4762 -1.4767 -0.2168
  109MOL0     H14330   9.235   5.935   6.170  0.3520  2.4451 -1.1045
  109MOL0     H14331   9.434   5.764   6.327 -0.0289  0.1197 -1.6875
  109MOL0     H14332   9.316   5.867   6.416 -2.4167  1.8804 -2.2248
  109MOL0     H14333   9.281   5.600   6.384  0.7433  0.7393  0.1591
  109MOL0     H14334   9.264   5.638   6.219  0.7740 -0.4977 -0.0290
  109MOL0     H14335   9.091   5.831   6.312 -2.6256 -0.4878 -1.7083
  109MOL0     H14336   9.080   5.712   6.444 -0.4393  1.8803 -0.3892
  109MOL0     H14337   8.898   5.694   6.263  0.9553 -0.8141  0.8481
  109MOL0     H14338   9.020   5.655   6.149 -1.8003  0.6341 -0.4225
  109MOL0     H14339   8.990   5.501   6.398 -2.8659  0.7412 -0.4842
  109MOL0     H14340   9.113   5.459   6.276  0.5422  1.1356  2.9714
  109MOL0     H14341   8.747   5.434   6.362  0.6891 -4.2148  0.2482
  109MOL0     H14342   8.539   5.257   6.167 -1.0351 -0.4279 -1.2997
  109MOL0     H14343   8.507   5.400   6.057 -0.9161 -0.7718  0.3300
  109MOL0     H14344   8.387   5.495   6.228  1.0115  3.5372  2.1132
  109MOL0     H14345   8.548   5.523   6.300  0.2116 -1.0399  1.7257
  109MOL0     H14346   8.538   5.323   6.415 -0.6813 -2.7431 -0.8169
  109MOL0     H14347   8.397   5.412   6.462  0.5498  2.4709 -0.7364
  109MOL0     H14348   8.346   5.193   6.451 -0.5307  2.2961  1.5635
  109MOL0     H14349   8.435   5.167   6.308 -0.6147  0.1642 -1.5842
  109MOL0     H14350   8.078   5.459   6.244  0.1169 -1.5390 -2.6194
  109MOL0     H14351   7.848   5.471   6.334  2.3645  2.8528  0.3560
  109MOL0     H14352   7.464   5.225   6.580 -3.8277 -0.9625  0.7973
  109MOL0     H14353   7.255   5.303   6.669  0.8523  0.2113  1.4401
  109MOL0     H14354   7.047   5.406   6.681  0.0158 -0.0266  2.7856
  109MOL0     H14355   7.082   5.513   6.529  0.0691  1.5182  0.7892
  109MOL0     H14356   6.876   5.606   6.617 -0.5030  1.4051  0.2286
  109MOL0     H14357   7.014   5.703   6.665 -2.4442  0.1544 -1.2861
  109MOL0     H14358   7.019   5.589   6.884  0.7710 -0.0447 -0.2943
  109MOL0     H14359   6.898   5.476   6.833  0.4424 -0.7065  1.3123
  109MOL0     H14360   6.884   5.776   6.885  0.8526 -0.6030 -4.3946
  109MOL0     H14361   6.745   5.682   6.821  0.0702 -1.0424 -0.4762
  109MOL0     H14362   6.853   5.594   7.091  1.4974  1.7518  1.1511
  109MOL0     H14363   6.698   5.576   7.019  1.6605 -2.4233 -0.7937
  109MOL0     H14364   6.632   5.778   7.072 -1.3816 -0.6258  1.2755
  109MOL0     H14365   6.794   5.859   7.065 -1.4352  0.7113  0.3713
  109MOL0     H14366   6.743   5.663   7.277 -1.0284  0.5712 -0.6430
  109MOL0     H14367   6.866   5.790   7.272  0.9665 -1.3611 -0.4704
  109MOL0     H14368   6.684   5.971   7.287 -3.3303 -0.2264 -2.1229
  109MOL0     H14369   6.707   5.874   7.420 -1.1451 -0.0128  0.4629
  109MOL0     H14370   7.363   5.709   6.619 -2.3078 -0.2605 -2.2885
  109MOL0     H14371   7.584   5.641   6.517 -1.0239 -0.6522 -5.3569
  109MOL0     H14372   7.932   5.114   6.555 -2.2593  0.8897 -0.9262
  109MOL0     H14373   8.153   5.095   6.459  2.0696  2.0024  0.4503
  109MOL0     H14374   9.572   6.253   5.974 -2.1872 -0.0329  1.0326
  109MOL0     H14375   9.836   6.311   5.966  1.0883  4.0720  0.1386
  109MOL0     H14376  10.277   6.568   6.382  1.5717  0.9253 -0.8021
  109MOL0     H14377  10.492   6.481   6.398 -0.8179  1.6897  0.5834
  109MOL0     H14378  10.614   6.212   6.461  2.1300 -2.6176  0.1347
  109MOL0     H14379  10.666   6.379   6.450 -2.2774 -0.9265  0.8138
  109MOL0     H14380  10.820   6.126   6.391 -1.7421 -0.6789  3.2433
  109MOL0     H14381  10.877   6.285   6.328 -0.5721 -2.3481 -2.2960
  109MOL0     H14382  10.794   6.211   6.618  2.3335  0.3855  2.6673
  109MOL0     H14383  10.879   6.353   6.572  0.2813 -0.2285  1.8654
  109MOL0     H14384  10.983   6.056   6.549  0.5351  0.9819 -3.8367
  109MOL0     H14385  11.087   6.176   6.512 -1.1295 -2.7243 -0.7316
  109MOL0     H14386  11.154   6.209   6.902  0.7286  2.2662 -0.1221
  109MOL0     H14387  10.422   6.184   6.109  0.9444  0.2994 -0.3422
  109MOL0     H14388  10.186   6.241   6.106 -0.6901  0.4744  0.0330
  110MOL0     O14389   5.148   7.108   5.614 -0.4410 -0.5632  1.0271
  110MOL0     C14390   5.222   7.032   5.550  0.6443  0.3650  0.0903
  110MOL0     O14391   5.182   6.913   5.498  0.2431 -0.3087  0.6012
  110MOL0     C14392   5.064   6.849   5.530  0.0280 -0.0742  0.1640
  110MOL0     C14393   5.005   6.779   5.432  0.2149 -0.6863  0.3910
  110MOL0     C14394   4.889   6.701   5.453  0.1011  0.4208  0.4361
  110MOL0     C14395   4.823   6.706   5.572 -0.4283 -0.9027 -0.0073
  110MOL0     O14396   4.708   6.643   5.583 -0.2954 -0.3582  0.7206
  110MOL0     C14397   4.712   6.514   5.646  0.7146 -0.3714  0.1349
  110MOL0     C14398   4.560   6.477   5.679 -0.6640  0.2272  0.4731
  110MOL0     C14399   4.511   6.541   5.808 -0.1280  0.2625 -0.8399
  110MOL0     C14400   4.377   6.471   5.861  0.5273  0.0681 -0.5390
  110MOL0     C14401   4.322   6.528   6.008 -0.3115  0.3583  0.5862
  110MOL0     C14402   4.191   6.467   6.063 -0.2000 -0.4992 -0.1328
  110MOL0     C14403   4.129   6.565   6.164 -0.2505  1.3686 -1.0201
  110MOL0     C14404   3.984   6.536   6.219  0.3369 -0.6705 -0.7889
  110MOL0     N14405   3.860   6.564   6.141 -0.0607 -0.4773  0.3421
  110MOL0     C14406   3.844   6.664   6.044  0.2128  0.1431 -0.3501
  110MOL0     C14407   3.714   6.642   6.006  0.1107  0.4214  0.5091
  110MOL0     C14408   3.636   6.741   5.922  0.7206  0.0213  0.3202
  110MOL0     C14409   3.531   6.800   6.016 -0.0193 -0.2748 -0.4681
  110MOL0     C14410   3.407   6.862   5.938 -0.6142 -0.0923  0.2270
  110MOL0     C14411   3.315   6.931   6.025  0.1504 -0.5287  0.2533
  110MOL0     O14412   3.211   6.990   5.942 -0.7693 -0.6388  0.6687
  110MOL0     C14413   3.095   6.920   5.921  0.2114 -0.5845  1.0640
  110MOL0     C14414   3.051   6.807   5.979 -0.1719  0.4640  0.1765
  110MOL0     C14415   2.930   6.739   5.957 -0.7670  0.3905  0.2231
  110MOL0     C14416   2.840   6.793   5.865  0.2351  0.9108 -0.0012
  110MOL0     C14417   2.707   6.733   5.837  0.2026  1.4523 -0.2307
  110MOL0     O14418   2.695   6.598   5.867 -1.0251 -0.8735  0.1846
  110MOL0     C14419   2.579   6.520   5.850 -0.2154 -0.2894 -0.1046
  110MOL0     C14420   2.611   6.383   5.824  0.1191  0.4385 -0.1865
  110MOL0     C14421   2.504   6.293   5.804 -0.3369 -0.9071  0.6608
  110MOL0     C14422   2.369   6.333   5.810 -0.3830  1.3383 -0.0450
  110MOL0     O14423   2.263   6.251   5.824  0.4592 -0.1331  0.4301
  110MOL0     C14424   2.252   6.143   5.735 -0.1786  0.2159 -0.2806
  110MOL0     C14425   2.104   6.096   5.759  0.7205 -0.6255 -1.4514
  110MOL0     C14426   2.061   5.983   5.670  0.4799 -0.2532  0.9082
  110MOL0     C14427   1.914   5.943   5.704  0.0786 -0.6480 -0.3468
  110MOL0     C14428   1.836   5.866   5.597 -0.5466  0.7432  0.0265
  110MOL0     C14429   1.701   5.823   5.652 -0.7485  0.0093  0.6990
  110MOL0     C14430   1.612   5.779   5.540 -0.3349  0.2755  0.5355
  110MOL0     C14431   1.474   5.750   5.576  0.6541  0.2529  0.1425
  110MOL0    Cl14432   1.406   5.718   5.415 -0.2868  0.2161  0.4796
  110MOL0     C14433   2.340   6.470   5.827  0.0619  0.1795 -0.2783
  110MOL0     C14434   2.449   6.566   5.848 -0.3185  0.0525  0.2248
  110MOL0     O14435   2.617   6.798   5.772 -0.0182 -1.2180  0.8021
  110MOL0     C14436   2.885   6.907   5.799  0.2614  0.4023  0.5549
  110MOL0     C14437   3.003   6.973   5.830 -0.1562 -0.3737 -0.8110
  110MOL0     N14438   3.660   6.535   6.066 -0.7828  0.3064  0.3242
  110MOL0     N14439   3.750   6.490   6.144  0.3856  0.1928 -0.3785
  110MOL0     C14440   4.877   6.779   5.680 -0.5528  0.1937 -0.7715
  110MOL0     C14441   5.003   6.849   5.658  1.0473 -0.2572 -0.4133
  110MOL0     C14442   5.363   7.074   5.552  0.3028  0.1823  0.0705
  110MOL0     C14443   5.453   7.001   5.469 -0.9716  0.1757 -0.5884
  110MOL0     C14444   5.589   7.027   5.464  0.0591  1.0512 -0.5816
  110MOL0     C14445   5.637   7.133   5.542 -0.0980 -0.4507 -0.2849
  110MOL0     O14446   5.777   7.161   5.552 -0.2997  0.1049 -0.0729
  110MOL0     C14447   5.865   7.108   5.452 -0.8982  0.1064 -0.7016
  110MOL0     C14448   5.995   7.182   5.464  0.0654 -0.1527 -0.1373
  110MOL0     C14449   6.108   7.121   5.394  0.7619 -0.1819  0.3597
  110MOL0     C14450   6.086   7.120   5.242 -0.0121  0.4238  0.0370
  110MOL0     C14451   5.972   7.036   5.190 -0.0973  0.0257  1.1874
  110MOL0     C14452   5.871   6.992   5.143  0.3967  0.4152 -0.3220
  110MOL0     C14453   5.552   7.214   5.603 -0.0087 -0.7199 -1.8580
  110MOL0     C14454   5.419   7.193   5.618 -0.0596  0.2926 -0.7051
  110MOL0     H14455   5.063   6.796   5.342 -1.6569  1.8792 -0.4388
  110MOL0     H14456   4.849   6.648   5.367 -0.5928  0.0503  0.9825
  110MOL0     H14457   4.774   6.535   5.734  0.3474  0.2751  0.2457
  110MOL0     H14458   4.751   6.434   5.582  0.4371  0.3202 -0.9351
  110MOL0     H14459   4.555   6.369   5.699 -1.5146  0.4040  1.2576
  110MOL0     H14460   4.500   6.504   5.592 -0.8655  1.8405  1.0814
  110MOL0     H14461   4.493   6.648   5.791 -3.1301 -0.2295 -1.1770
  110MOL0     H14462   4.585   6.524   5.887 -2.1499 -1.9511  0.7093
  110MOL0     H14463   4.285   6.496   5.806 -0.0361  3.4427  1.5934
  110MOL0     H14464   4.391   6.363   5.852  2.2557  0.1656  0.5985
  110MOL0     H14465   4.305   6.636   6.001 -2.7730 -0.0227 -0.3653
  110MOL0     H14466   4.404   6.516   6.079 -1.8972  1.0918  2.6493
  110MOL0     H14467   4.225   6.382   6.124 -0.5520  0.0342  0.8415
  110MOL0     H14468   4.126   6.439   5.980  0.3382  0.9675 -1.0906
  110MOL0     H14469   4.189   6.571   6.255  0.6302 -0.7228 -1.4092
  110MOL0     H14470   4.125   6.665   6.120 -0.5672  2.5766  1.5587
  110MOL0     H14471   3.976   6.598   6.308 -1.7808  3.2785 -3.4313
  110MOL0     H14472   3.974   6.433   6.255 -2.1540  0.6964  2.9158
  110MOL0     H14473   3.914   6.738   6.007  0.3827  0.2553  0.1797
  110MOL0     H14474   3.596   6.680   5.841  1.7486 -0.2688  0.0171
  110MOL0     H14475   3.702   6.817   5.880  0.0008 -0.2869 -1.4147
  110MOL0     H14476   3.580   6.884   6.066 -0.1478  0.2961 -1.2905
  110MOL0     H14477   3.495   6.720   6.081 -0.0849  0.0447 -0.1079
  110MOL0     H14478   3.457   6.929   5.867  0.5864 -0.8718  0.3046
  110MOL0     H14479   3.357   6.782   5.883 -1.8353  0.3793  0.6260
  110MOL0     H14480   3.351   7.023   6.072 -2.6474  0.1591  1.2520
  110MOL0     H14481   3.276   6.856   6.094 -1.2771 -0.5520 -0.5495
  110MOL0     H14482   3.116   6.752   6.046 -0.7213  1.5880  1.6698
  110MOL0     H14483   2.896   6.652   6.011 -0.0036  0.5088  0.9125
  110MOL0     H14484   2.716   6.356   5.828  0.0917  0.0258 -1.6205
  110MOL0     H14485   2.534   6.189   5.789  3.0355  0.3009 -2.4923
  110MOL0     H14486   2.309   6.054   5.762  1.2438  1.8564  2.6427
  110MOL0     H14487   2.276   6.183   5.636  0.5251  0.6887  0.0701
  110MOL0     H14488   2.033   6.179   5.757 -0.4827 -1.3608  2.1415
  110MOL0     H14489   2.091   6.049   5.857 -0.8206 -1.3892 -1.9869
  110MOL0     H14490   2.125   5.898   5.696 -0.4732 -1.4717 -0.5542
  110MOL0     H14491   2.081   6.013   5.567  0.5475 -2.5527  0.1904
  110MOL0     H14492   1.939   5.890   5.796  1.5223  1.8826  0.8115
  110MOL0     H14493   1.857   6.031   5.735  0.5719 -0.1725 -0.7632
  110MOL0     H14494   1.898   5.786   5.557 -1.8120  0.3566 -1.2167
  110MOL0     H14495   1.815   5.939   5.519 -1.0166 -0.3224 -0.8576
  110MOL0     H14496   1.650   5.900   5.710 -1.0872 -1.1283  1.9804
  110MOL0     H14497   1.708   5.737   5.720  2.3081 -0.3544  0.0475
  110MOL0     H14498   1.606   5.856   5.463 -3.2128  2.5610  2.8420
  110MOL0     H14499   1.651   5.688   5.492  3.0225  0.8366  1.8965
  110MOL0     H14500   1.419   5.836   5.615  1.7553  0.5020  1.1738
  110MOL0     H14501   1.451   5.666   5.641 -0.6386 -0.3458 -1.0258
  110MOL0     H14502   2.237   6.496   5.845  0.3519 -0.8195  3.5198
  110MOL0     H14503   2.403   6.657   5.884 -2.1564 -1.1623  1.0998
  110MOL0     H14504   2.811   6.955   5.735 -0.0500 -0.0062  0.6021
  110MOL0     H14505   3.026   7.074   5.798  0.1825 -0.2591 -0.2125
  110MOL0     H14506   4.817   6.762   5.768 -0.4887  0.9266 -0.5787
  110MOL0     H14507   5.048   6.906   5.738 -0.6619 -0.8467  1.0399
  110MOL0     H14508   5.406   6.917   5.419 -2.9574  1.0905 -0.3281
  110MOL0     H14509   5.651   6.958   5.408 -0.1990  0.5390 -0.2454
  110MOL0     H14510   5.823   7.129   5.353 -0.4224  1.1554 -0.6967
  110MOL0     H14511   5.880   7.000   5.459 -1.8952  0.1044  2.6788
  110MOL0     H14512   5.978   7.286   5.433 -0.3484  0.5977  2.3791
  110MOL0     H14513   6.028   7.191   5.568  1.4858  1.0993 -0.6481
  110MOL0     H14514   6.124   7.016   5.421 -5.3717 -1.1961  1.6723
  110MOL0     H14515   6.195   7.182   5.417  0.5773  0.8688 -1.4778
  110MOL0     H14516   6.067   7.212   5.186 -2.8428 -0.0314  0.0738
  110MOL0     H14517   6.174   7.079   5.192 -0.3695  1.0147 -1.1082
  110MOL0     H14518   5.784   6.952   5.096  0.5359 -0.0514 -0.1932
  110MOL0     H14519   5.592   7.297   5.661  1.4737 -1.3037 -1.9884
  110MOL0     H14520   5.355   7.265   5.667  1.0432  0.4285  0.6134
  111MOL0     O14521   7.430   7.898   5.005 -0.1490  0.4442  0.1876
  111MOL0     C14522   7.435   7.835   4.898 -0.6123 -0.1667 -0.5208
  111MOL0     O14523   7.332   7.823   4.809  0.1135 -0.1568  0.8144
  111MOL0     C14524   7.201   7.841   4.848 -0.0025  0.3661  0.0645
  111MOL0     C14525   7.120   7.854   4.733 -0.0655  0.1473  0.2147
  111MOL0     C14526   6.981   7.856   4.743  0.5043  0.9614  0.0171
  111MOL0     C14527   6.926   7.834   4.863  0.3973  0.4271 -0.1512
  111MOL0     O14528   6.789   7.843   4.901 -0.7007  0.4797 -0.1560
  111MOL0     C14529   6.712   7.907   4.791  0.8419  0.1083 -0.5008
  111MOL0     C14530   6.575   7.940   4.850  0.3640  0.3929 -0.3906
  111MOL0     C14531   6.471   7.959   4.752  0.3223 -0.1121 -0.1067
  111MOL0     C14532   6.509   8.076   4.648 -0.0901  0.0994 -0.2626
  111MOL0     C14533   6.403   8.087   4.527  0.3953 -0.3681 -0.2683
  111MOL0     C14534   6.274   8.167   4.566 -0.6149  0.2169  0.3389
  111MOL0     C14535   6.187   8.181   4.441  0.3386 -0.1136 -0.3889
  111MOL0     C14536   6.069   8.258   4.485 -0.0091 -0.0360 -0.5312
  111MOL0     N14537   5.983   8.301   4.377 -0.2415  1.0014 -0.6598
  111MOL0     C14538   5.864   8.241   4.334  0.4466 -0.7240 -0.2161
  111MOL0     C14539   5.817   8.319   4.231 -0.3053 -0.4304  0.2435
  111MOL0     C14540   5.692   8.303   4.161  0.2338 -0.5120 -0.7003
  111MOL0     C14541   5.661   8.425   4.079 -0.2275 -1.1768 -0.0600
  111MOL0     C14542   5.522   8.391   4.016  0.8276  0.9136 -0.4937
  111MOL0     C14543   5.472   8.484   3.912  0.1912  0.2485  0.0014
  111MOL0     O14544   5.373   8.582   3.950  0.4291  0.2497 -0.6431
  111MOL0     C14545   5.416   8.717   3.937  1.0196 -0.1162  0.1931
  111MOL0     C14546   5.328   8.813   3.884  1.2667  0.4708 -0.4011
  111MOL0     C14547   5.359   8.950   3.884 -0.4397 -0.5032  0.7224
  111MOL0     C14548   5.487   8.996   3.930 -0.6013  0.0955 -0.0682
  111MOL0     C14549   5.539   9.136   3.910  0.3179 -0.4838 -0.1100
  111MOL0     O14550   5.638   9.192   3.993  0.0118 -0.1891 -0.0650
  111MOL0     C14551   5.675   9.319   3.968  0.0259 -0.1144 -0.7067
  111MOL0     C14552   5.723   9.378   4.085 -0.1607 -1.0124 -0.7884
  111MOL0     C14553   5.776   9.506   4.088 -0.1034 -1.1190  0.0988
  111MOL0     C14554   5.775   9.591   3.972  0.7331  0.8195  0.3409
  111MOL0     O14555   5.802   9.715   3.985 -0.8286 -0.0218 -0.8323
  111MOL0     C14556   5.870   9.768   3.862  0.1367  0.0383  0.2141
  111MOL0     C14557   5.957   9.891   3.885  0.9747 -1.0142  0.3373
  111MOL0     C14558   5.883  10.023   3.938  0.2458  1.0969 -0.3203
  111MOL0     C14559   5.889  10.135   3.833  0.3248 -0.2008  0.1779
  111MOL0     C14560   5.778  10.237   3.852 -0.2049 -0.2089 -0.0772
  111MOL0     C14561   5.804  10.360   3.759  0.6110 -0.5150  0.1930
  111MOL0     C14562   5.926  10.450   3.799  0.4628  0.3828  0.2521
  111MOL0     C14563   5.927  10.575   3.703 -0.3691  0.6004 -0.5331
  111MOL0    Cl14564   5.790  10.687   3.749 -0.1282  0.3036 -0.1412
  111MOL0     C14565   5.725   9.530   3.858  0.4108  0.2630  0.2476
  111MOL0     C14566   5.688   9.394   3.849  0.3453 -0.5789 -0.0511
  111MOL0     O14567   5.472   9.195   3.825  0.3843  0.0289 -0.2822
  111MOL0     C14568   5.574   8.902   3.990  0.2497  0.7389  0.1942
  111MOL0     C14569   5.534   8.765   3.992 -0.2074  0.5600  0.5958
  111MOL0     N14570   5.906   8.430   4.234 -0.0800  0.4144 -0.3672
  111MOL0     N14571   5.995   8.418   4.325 -0.3053  0.3754  0.4005
  111MOL0     C14572   7.006   7.815   4.984  1.2723  0.0915 -0.0052
  111MOL0     C14573   7.141   7.820   4.974 -0.0304 -0.2467  0.5339
  111MOL0     C14574   7.564   7.765   4.880  0.9129  0.4783  0.1738
  111MOL0     C14575   7.676   7.789   4.948 -0.4648  0.2973 -0.3355
  111MOL0     C14576   7.793   7.712   4.935  0.4944 -0.4798  0.4177
  111MOL0     C14577   7.799   7.610   4.840  0.7060 -0.6776  0.5214
  111MOL0     O14578   7.912   7.530   4.823 -0.7750  0.0717  0.1874
  111MOL0     C14579   7.913   7.387   4.785  1.1580 -0.4167 -0.6465
  111MOL0     C14580   8.057   7.328   4.763 -0.5771 -0.1995 -0.1836
  111MOL0     C14581   8.062   7.202   4.670 -0.5365  0.1882  1.1734
  111MOL0     C14582   8.194   7.167   4.605 -0.2454 -0.8520  0.5083
  111MOL0     C14583   8.185   7.045   4.518 -0.1731 -0.4926  0.0967
  111MOL0     C14584   8.191   6.946   4.452 -0.7344  0.2947 -0.2333
  111MOL0     C14585   7.687   7.583   4.767 -0.9667 -0.7698 -0.3675
  111MOL0     C14586   7.567   7.654   4.787 -0.2376 -0.3428  0.0305
  111MOL0     H14587   7.162   7.865   4.633  1.8504 -0.0613  0.9537
  111MOL0     H14588   6.922   7.863   4.652 -0.3364  0.9519  0.5535
  111MOL0     H14589   6.702   7.843   4.703 -0.1731 -0.6662  0.1526
  111MOL0     H14590   6.753   7.999   4.749  2.2750 -0.5124 -0.5063
  111MOL0     H14591   6.592   8.031   4.909  2.3851  0.8872 -1.6202
  111MOL0     H14592   6.563   7.850   4.911  1.2354  0.4496 -0.1133
  111MOL0     H14593   6.389   7.981   4.821  2.1477 -0.2308  2.2293
  111MOL0     H14594   6.452   7.865   4.701 -0.9366  0.6901 -1.1670
  111MOL0     H14595   6.517   8.181   4.678 -2.6254  0.6977 -1.3780
  111MOL0     H14596   6.597   8.044   4.592 -3.3614 -1.2832 -5.3481
  111MOL0     H14597   6.374   7.991   4.485  3.3655 -1.2642 -0.5324
  111MOL0     H14598   6.445   8.147   4.445 -1.9712  3.4020  0.9983
  111MOL0     H14599   6.307   8.260   4.614  1.7403  0.1740 -1.0200
  111MOL0     H14600   6.218   8.104   4.636  0.7010  0.0058  1.2546
  111MOL0     H14601   6.239   8.238   4.363  2.4266 -4.4170 -2.4301
  111MOL0     H14602   6.149   8.088   4.399 -0.6367 -0.0121  0.2440
  111MOL0     H14603   6.093   8.359   4.521 -0.2756  0.3989 -1.5501
  111MOL0     H14604   6.030   8.199   4.569  2.7285 -3.4262 -1.4475
  111MOL0     H14605   5.822   8.147   4.366 -0.9896  0.4614  1.5842
  111MOL0     H14606   5.613   8.289   4.236  1.8767  1.7164  1.6037
  111MOL0     H14607   5.707   8.216   4.097 -0.9241 -1.6222  0.4764
  111MOL0     H14608   5.739   8.447   4.006  1.2585 -1.3005  1.4196
  111MOL0     H14609   5.652   8.513   4.144 -1.2423 -1.3428  0.0417
  111MOL0     H14610   5.540   8.296   3.966 -2.0631 -1.0836  1.8915
  111MOL0     H14611   5.440   8.377   4.087  2.4768 -0.3342  1.2326
  111MOL0     H14612   5.427   8.421   3.835 -1.7160  1.3221  0.1784
  111MOL0     H14613   5.560   8.533   3.871  0.5919 -1.5041 -1.3522
  111MOL0     H14614   5.227   8.779   3.863  2.2265 -1.4966 -2.1922
  111MOL0     H14615   5.284   9.018   3.844 -3.5579 -4.1268 -0.0829
  111MOL0     H14616   5.723   9.314   4.173  1.6380 -2.3671 -1.7002
  111MOL0     H14617   5.813   9.547   4.181 -0.8383  0.5998 -0.3153
  111MOL0     H14618   5.798   9.808   3.789  2.3580 -0.8875 -2.6970
  111MOL0     H14619   5.930   9.691   3.813 -0.8151 -1.4947  1.3855
  111MOL0     H14620   6.016   9.927   3.800  1.1607 -0.0807  0.8432
  111MOL0     H14621   6.019   9.851   3.966 -0.5079 -0.9380  1.5565
  111MOL0     H14622   5.919  10.048   4.038 -2.1337  1.6310  0.4561
  111MOL0     H14623   5.780   9.986   3.944  0.3647  0.7682 -0.3030
  111MOL0     H14624   5.984  10.185   3.852  0.7105  0.2188 -2.4670
  111MOL0     H14625   5.884  10.095   3.731  0.5532  0.1341  0.0342
  111MOL0     H14626   5.782  10.260   3.959 -1.4857 -2.0078  0.4084
  111MOL0     H14627   5.674  10.208   3.832  0.1760  0.5337 -3.8258
  111MOL0     H14628   5.721  10.431   3.751  1.8000  1.2534  2.2897
  111MOL0     H14629   5.826  10.323   3.658  2.0118 -0.0617  0.3034
  111MOL0     H14630   5.935  10.478   3.904 -2.0368 -0.6276  0.8033
  111MOL0     H14631   6.018  10.391   3.796  0.9270  0.6960  3.7991
  111MOL0     H14632   5.907  10.543   3.600 -0.2755 -0.4262 -0.2481
  111MOL0     H14633   6.025  10.623   3.700 -2.1065  4.5578  0.2196
  111MOL0     H14634   5.701   9.588   3.770 -1.8491  0.2084  0.7634
  111MOL0     H14635   5.673   9.359   3.747 -0.6969  1.7949 -0.7830
  111MOL0     H14636   5.670   8.929   4.035  1.1086  0.8444 -1.6272
  111MOL0     H14637   5.589   8.688   4.044 -2.6480 -1.8622 -0.1968
  111MOL0     H14638   6.950   7.812   5.077 -1.3502  3.0173 -1.2935
  111MOL0     H14639   7.204   7.815   5.063  1.7540  1.3564 -0.5470
  111MOL0     H14640   7.681   7.869   5.021  1.4774 -0.7072  0.7109
  111MOL0     H14641   7.878   7.736   4.998 -0.9536  1.1220  1.8550
  111MOL0     H14642   7.863   7.392   4.688 -1.0833  0.1044  0.4578
  111MOL0     H14643   7.848   7.339   4.860  2.5002  0.4373  1.1301
  111MOL0     H14644   8.124   7.400   4.714 -0.4816 -1.1547 -1.5201
  111MOL0     H14645   8.103   7.296   4.857 -3.1596 -0.4048  1.0905
  111MOL0     H14646   7.999   7.228   4.584  1.6322 -1.6336 -1.1545
  111MOL0     H14647   8.020   7.117   4.725 -1.0615 -0.3113  0.0447
  111MOL0     H14648   8.225   7.247   4.536  1.9998  2.2719  4.6620
  111MOL0     H14649   8.277   7.165   4.676  0.5484  4.2004  0.1297
  111MOL0     H14650   8.196   6.849   4.409 -0.5566 -0.2036  0.8630
  111MOL0     H14651   7.681   7.497   4.700 -3.6352 -0.1188 -1.0855
  111MOL0     H14652   7.482   7.630   4.725  1.4229 -0.3772 -2.3668
  112MOL0     O14653   1.985   5.072   0.468  0.0720  0.1805 -0.0821
  112MOL0     C14654   2.060   5.153   0.527  0.7569  0.3492  0.1366
  112MOL0     O14655   2.014   5.254   0.609 -0.1597 -0.1700 -0.0186
  112MOL0     C14656   1.881   5.257   0.645  0.2093  0.5281  0.0513
  112MOL0     C14657   1.769   5.248   0.551 -0.4861 -0.3196  0.6205
  112MOL0     C14658   1.644   5.279   0.588  0.1282 -0.1354 -0.3084
  112MOL0     C14659   1.613   5.297   0.729  0.5200  0.5128  0.0557
  112MOL0     O14660   1.489   5.328   0.780 -0.0192 -0.3226  0.9595
  112MOL0     C14661   1.408   5.211   0.794  0.0827  0.2437 -0.9661
  112MOL0     C14662   1.296   5.250   0.895  0.0036  0.3777  0.8243
  112MOL0     C14663   1.169   5.284   0.805 -0.8215 -0.1521 -0.3562
  112MOL0     C14664   1.045   5.264   0.887  0.0535  0.8055  0.1875
  112MOL0     C14665   0.927   5.291   0.798  0.2399 -0.2137 -0.0492
  112MOL0     C14666   0.787   5.247   0.857  0.0718 -0.0062  0.1840
  112MOL0     C14667   0.667   5.286   0.770 -0.3547 -0.1664 -0.3874
  112MOL0     C14668   0.549   5.327   0.866  0.4844 -0.1857  0.0815
  112MOL0     N14669   0.414   5.306   0.797 -1.0266 -0.2647  0.1821
  112MOL0     C14670   0.367   5.171   0.793  0.5144 -0.2186  0.1895
  112MOL0     C14671   0.271   5.171   0.697 -0.0229  0.5460  0.2130
  112MOL0     C14672   0.201   5.053   0.642  0.2191  0.4175 -0.1564
  112MOL0     C14673   0.300   4.939   0.614 -0.8228  0.2249 -0.0457
  112MOL0     C14674   0.433   4.971   0.537  0.5323 -0.4680  0.2400
  112MOL0     C14675   0.516   4.852   0.537  0.2055  0.6934 -0.3918
  112MOL0     O14676   0.630   4.881   0.459  0.1810 -0.0828  0.5642
  112MOL0     C14677   0.745   4.890   0.528 -0.8161  0.5050 -0.5904
  112MOL0     C14678   0.866   4.882   0.457 -0.7021 -0.2122 -0.1202
  112MOL0     C14679   0.993   4.888   0.510  0.5266 -0.5852  1.1025
  112MOL0     C14680   1.006   4.894   0.650 -0.4215  0.0259 -0.0076
  112MOL0     C14681   1.149   4.910   0.699  0.0588  0.8521 -1.1682
  112MOL0     O14682   1.244   4.889   0.606 -0.0949 -0.7227 -0.7715
  112MOL0     C14683   1.381   4.869   0.641  0.3104  0.1010 -0.7987
  112MOL0     C14684   1.417   4.782   0.743  0.1657 -0.2750  0.5430
  112MOL0     C14685   1.555   4.760   0.779  0.8163  0.2811  0.2307
  112MOL0     C14686   1.660   4.809   0.702 -0.4552  0.5445  0.3320
  112MOL0     O14687   1.788   4.770   0.741  0.4867 -0.2059  0.3078
  112MOL0     C14688   1.901   4.843   0.694 -0.4875 -0.2978 -0.1662
  112MOL0     C14689   2.015   4.804   0.782 -0.1698 -0.0056  0.1998
  112MOL0     C14690   2.144   4.878   0.732 -0.4456 -0.6478  0.3847
  112MOL0     C14691   2.260   4.827   0.800 -0.3495  0.6812 -0.0469
  112MOL0     C14692   2.392   4.896   0.757 -0.2113 -0.7287  0.6668
  112MOL0     C14693   2.532   4.832   0.795 -0.5949 -0.2631 -0.6259
  112MOL0     C14694   2.656   4.889   0.737 -0.2146 -0.2893  0.7712
  112MOL0     C14695   2.674   4.836   0.592  0.9252  0.0469  0.3092
  112MOL0    Cl14696   2.835   4.891   0.539 -0.3211 -0.0913  0.0498
  112MOL0     C14697   1.622   4.905   0.601 -0.1499 -0.2201 -0.9815
  112MOL0     C14698   1.492   4.929   0.571  0.3844  0.0448  0.4833
  112MOL0     O14699   1.166   4.932   0.824 -0.3385  0.2752  0.1244
  112MOL0     C14700   0.894   4.925   0.723  0.2845 -0.7425  0.0999
  112MOL0     C14701   0.760   4.926   0.669 -1.0335 -0.6024  0.3288
  112MOL0     N14702   0.261   5.303   0.654 -0.5302  0.9318  1.1019
  112MOL0     N14703   0.354   5.375   0.700 -0.0063 -0.9577  0.7576
  112MOL0     C14704   1.724   5.314   0.821  0.9225 -0.2076  0.2134
  112MOL0     C14705   1.850   5.286   0.777 -0.6532  0.0380 -1.0946
  112MOL0     C14706   2.203   5.158   0.478 -0.3190 -0.1198  0.2924
  112MOL0     C14707   2.256   5.051   0.408  0.2651  0.4759  0.4832
  112MOL0     C14708   2.391   5.058   0.361  0.5118  0.0785  0.1645
  112MOL0     C14709   2.475   5.153   0.402 -0.0166 -0.2150  0.6505
  112MOL0     O14710   2.607   5.142   0.368  0.4422  0.2492  0.2397
  112MOL0     C14711   2.697   5.252   0.403  1.0974 -0.3551 -0.2533
  112MOL0     C14712   2.833   5.224   0.338  0.7271 -0.2094  0.2528
  112MOL0     C14713   2.938   5.352   0.352 -0.8002 -0.1026 -0.0769
  112MOL0     C14714   3.073   5.316   0.288 -0.4998 -0.0747  1.0504
  112MOL0     C14715   3.173   5.259   0.375 -0.1263 -0.3680  0.2619
  112MOL0     C14716   3.270   5.225   0.444 -0.5742 -0.8310 -0.4980
  112MOL0     C14717   2.424   5.265   0.473  0.4273 -0.4024 -0.1308
  112MOL0     C14718   2.290   5.267   0.508  0.1456  0.1923 -0.2142
  112MOL0     H14719   1.805   5.236   0.450 -0.0595  1.8118  0.4797
  112MOL0     H14720   1.567   5.287   0.511  0.4449 -0.2088 -0.6367
  112MOL0     H14721   1.460   5.127   0.840 -3.8648 -2.7215 -1.4475
  112MOL0     H14722   1.366   5.185   0.697 -0.3544 -0.3654 -0.6212
  112MOL0     H14723   1.336   5.327   0.962  1.6105 -1.1544  1.7516
  112MOL0     H14724   1.276   5.165   0.961 -1.8008  0.6882  0.7060
  112MOL0     H14725   1.165   5.218   0.719 -2.1656  0.7161 -0.9776
  112MOL0     H14726   1.172   5.390   0.776 -0.1229  0.5912  2.1241
  112MOL0     H14727   1.039   5.163   0.929  3.4685 -0.2193 -1.4120
  112MOL0     H14728   1.038   5.333   0.971  2.5485  0.3326  0.8491
  112MOL0     H14729   0.935   5.238   0.702 -2.5827  3.0733 -2.3361
  112MOL0     H14730   0.929   5.395   0.766  2.4651 -0.5023 -1.1243
  112MOL0     H14731   0.765   5.288   0.955 -3.8182  1.8381 -1.2613
  112MOL0     H14732   0.777   5.143   0.890  1.7196  0.6655  3.2158
  112MOL0     H14733   0.706   5.369   0.710  1.8926 -1.9943 -1.6471
  112MOL0     H14734   0.632   5.208   0.701  0.1350 -0.1866 -0.6134
  112MOL0     H14735   0.558   5.424   0.916  4.3140  0.4582 -1.4807
  112MOL0     H14736   0.563   5.253   0.946  1.4378  1.0068  1.0752
  112MOL0     H14737   0.387   5.081   0.849  0.9079 -1.3831 -1.7347
  112MOL0     H14738   0.131   5.082   0.562 -0.9181 -0.0633  0.6353
  112MOL0     H14739   0.132   5.017   0.718 -1.8146 -0.0530 -2.1019
  112MOL0     H14740   0.253   4.874   0.540  1.1138  0.5361 -1.6499
  112MOL0     H14741   0.318   4.883   0.706 -1.1732 -0.4234 -0.3667
  112MOL0     H14742   0.409   5.014   0.439 -1.0123 -0.4441  0.5973
  112MOL0     H14743   0.491   5.052   0.581  2.3107 -0.3222 -2.1642
  112MOL0     H14744   0.467   4.770   0.484  2.2151 -3.0757  3.0718
  112MOL0     H14745   0.530   4.815   0.639  3.8755 -0.1375 -1.0404
  112MOL0     H14746   0.858   4.884   0.349 -2.8629  0.5407  0.0029
  112MOL0     H14747   1.078   4.891   0.442 -2.7802  1.1724 -3.4669
  112MOL0     H14748   1.344   4.739   0.810 -1.1173 -0.4939 -0.9212
  112MOL0     H14749   1.565   4.690   0.862 -3.7750 -2.1497 -0.9067
  112MOL0     H14750   1.884   4.950   0.709  2.2693  0.2867 -0.6861
  112MOL0     H14751   1.909   4.832   0.585  1.5424  0.7823 -0.1656
  112MOL0     H14752   2.035   4.696   0.780 -1.3785 -0.2439 -1.6651
  112MOL0     H14753   1.990   4.819   0.888  1.7462 -1.3403  0.8982
  112MOL0     H14754   2.138   4.986   0.748  1.9238 -0.2885 -0.8110
  112MOL0     H14755   2.150   4.848   0.627  0.7342 -0.1913  0.3173
  112MOL0     H14756   2.230   4.849   0.903 -2.8661 -0.0650 -0.5299
  112MOL0     H14757   2.266   4.720   0.780  0.3909  1.0923 -2.3554
  112MOL0     H14758   2.397   4.994   0.806  3.7445  0.7662 -2.1029
  112MOL0     H14759   2.387   4.906   0.648  0.3595 -0.5998  0.6501
  112MOL0     H14760   2.519   4.729   0.763 -0.7645  0.3737 -2.7823
  112MOL0     H14761   2.548   4.839   0.903  2.5822  0.3660 -1.0427
  112MOL0     H14762   2.656   4.998   0.747  1.8604 -0.3776  2.3819
  112MOL0     H14763   2.742   4.850   0.792  0.0646 -0.5178  0.1806
  112MOL0     H14764   2.610   4.882   0.516  1.1948 -1.6899 -1.0283
  112MOL0     H14765   2.668   4.727   0.588  3.2233 -0.1933  1.9019
  112MOL0     H14766   1.696   4.965   0.549  0.4033  2.2150  2.2917
  112MOL0     H14767   1.475   5.001   0.492 -2.9954 -0.7083  0.3552
  112MOL0     H14768   0.901   4.947   0.829 -1.2593 -1.0670  0.2881
  112MOL0     H14769   0.671   4.943   0.729 -1.2617 -3.8304  1.0886
  112MOL0     H14770   1.705   5.346   0.923  0.8000  0.8798 -0.1471
  112MOL0     H14771   1.939   5.293   0.840 -0.6044 -3.8431 -0.5030
  112MOL0     H14772   2.203   4.964   0.372  1.7322 -1.1957  2.1326
  112MOL0     H14773   2.428   4.977   0.299 -2.1826 -0.6054 -0.6563
  112MOL0     H14774   2.715   5.265   0.510  2.4000  1.5968 -0.6608
  112MOL0     H14775   2.660   5.346   0.360 -2.2241 -0.8085  1.3001
  112MOL0     H14776   2.859   5.134   0.394  1.6185 -0.5990 -0.7565
  112MOL0     H14777   2.828   5.201   0.232 -1.0650 -0.1536  0.3024
  112MOL0     H14778   2.953   5.383   0.456 -0.2600  4.0865 -1.2020
  112MOL0     H14779   2.896   5.439   0.301  1.7735  1.1372 -0.2160
  112MOL0     H14780   3.048   5.247   0.207  0.2691 -1.3623  1.8597
  112MOL0     H14781   3.116   5.407   0.246 -1.9257  1.0664  1.9632
  112MOL0     H14782   3.348   5.195   0.512  1.2288 -1.5642 -2.7326
  112MOL0     H14783   2.480   5.355   0.497 -1.5379  1.1365 -0.9853
  112MOL0     H14784   2.243   5.355   0.550  2.3117  1.3360 -0.0342
  113MOL0     O14785   9.508   9.060   1.965  0.3366  0.0706 -0.2300
  113MOL0     C14786   9.524   9.171   2.017  0.9482 -0.5128 -0.3196
  113MOL0     O14787   9.625   9.199   2.097 -0.2216 -0.8602  0.5137
  113MOL0     C14788   9.745   9.129   2.121 -0.6209 -0.4270 -0.7241
  113MOL0     C14789   9.791   9.011   2.071 -0.4636  0.2457  0.9935
  113MOL0     C14790   9.916   8.944   2.101 -0.5681 -0.5513 -0.2704
  113MOL0     C14791   9.996   9.018   2.196 -0.3760  0.4172  0.7139
  113MOL0     O14792  10.121   8.981   2.238  0.3481 -0.0563  0.1178
  113MOL0     C14793  10.189   8.876   2.159 -0.2992 -0.2681 -0.7124
  113MOL0     C14794  10.341   8.872   2.174 -0.1124 -0.3278 -0.0489
  113MOL0     C14795  10.391   8.824   2.314  0.6636  0.1258  0.0600
  113MOL0     C14796  10.543   8.790   2.314 -0.0943 -0.1364  0.3879
  113MOL0     C14797  10.592   8.684   2.425 -0.1074  1.0493  0.0016
  113MOL0     C14798  10.692   8.751   2.510 -0.0623  0.2081  0.4874
  113MOL0     C14799  10.712   8.658   2.633  0.3587  0.7728 -0.3643
  113MOL0     C14800  10.809   8.716   2.731 -0.6740 -0.1134  0.4930
  113MOL0     N14801  10.762   8.841   2.787  0.3933  0.3373  0.0011
  113MOL0     C14802  10.640   8.846   2.852 -0.0211 -0.0504 -0.5953
  113MOL0     C14803  10.617   8.976   2.869  0.2433 -1.3053  0.6833
  113MOL0     C14804  10.500   9.052   2.925  0.2606 -0.4555 -0.1419
  113MOL0     C14805  10.370   8.975   2.922 -0.0591  0.1826 -0.0274
  113MOL0     C14806  10.307   8.990   2.777  0.6574  0.0520 -0.3163
  113MOL0     C14807  10.179   8.914   2.744  0.7774  0.2918 -0.2192
  113MOL0     O14808  10.072   9.009   2.731 -0.3152 -0.1220  0.4998
  113MOL0     C14809   9.953   8.970   2.681  0.3065  0.3180  0.7404
  113MOL0     C14810   9.887   8.847   2.703 -0.4664 -0.0737  0.9784
  113MOL0     C14811   9.765   8.823   2.640  0.3574  0.1661 -0.0562
  113MOL0     C14812   9.705   8.924   2.558 -0.1735  0.7782  0.1678
  113MOL0     C14813   9.576   8.895   2.491  0.9709  0.3408  0.3681
  113MOL0     O14814   9.524   8.985   2.405  0.7185  0.2254 -0.1915
  113MOL0     C14815   9.390   8.978   2.369 -0.2654 -0.2856  0.6039
  113MOL0     C14816   9.369   8.968   2.228  0.3249  0.6597  0.3442
  113MOL0     C14817   9.241   8.979   2.180 -0.4296  0.1761 -0.8000
  113MOL0     C14818   9.136   8.996   2.265 -0.0315 -0.0030 -0.5444
  113MOL0     O14819   9.014   9.009   2.195 -0.2992  0.1094 -0.2200
  113MOL0     C14820   8.890   8.988   2.275  0.4739  0.5809  0.3823
  113MOL0     C14821   8.764   8.991   2.181 -0.2492  0.0890 -0.8562
  113MOL0     C14822   8.689   8.853   2.169  0.3124 -0.6008 -0.6340
  113MOL0     C14823   8.611   8.833   2.292  0.0305 -0.3384 -0.6463
  113MOL0     C14824   8.544   8.705   2.323  0.1638 -0.3114  0.0578
  113MOL0     C14825   8.487   8.638   2.192 -0.0285  0.0426 -1.3078
  113MOL0     C14826   8.393   8.521   2.213  0.2204  0.3369  0.2619
  113MOL0     C14827   8.287   8.533   2.327  0.9471  0.2409  0.3205
  113MOL0    Cl14828   8.174   8.667   2.290  0.0564  0.0075 -0.6507
  113MOL0     C14829   9.147   8.986   2.405 -0.2670  0.6323 -1.1650
  113MOL0     C14830   9.275   8.965   2.455  0.3632 -0.6056  0.6315
  113MOL0     O14831   9.520   8.791   2.522 -0.3825  0.1241 -1.0066
  113MOL0     C14832   9.766   9.051   2.558  0.1120 -0.3793 -0.0215
  113MOL0     C14833   9.889   9.076   2.620  0.6692  0.3856  0.8055
  113MOL0     N14834  10.723   9.042   2.808  0.6323 -0.4747  0.4974
  113MOL0     N14835  10.809   8.965   2.757  0.3749 -0.8512 -0.9775
  113MOL0     C14836   9.949   9.138   2.252  0.2502 -0.2831  0.6118
  113MOL0     C14837   9.821   9.190   2.219 -0.5156  0.3548  0.5068
  113MOL0     C14838   9.414   9.267   2.003 -0.8273  0.4021  0.0688
  113MOL0     C14839   9.404   9.378   2.088 -0.0856  0.2281 -1.3410
  113MOL0     C14840   9.301   9.462   2.084 -0.1135  0.2159  0.2273
  113MOL0     C14841   9.189   9.447   1.996  0.8288  0.2201  0.4478
  113MOL0     O14842   9.072   9.518   1.986 -0.1452  0.1845  0.7218
  113MOL0     C14843   9.070   9.646   2.057 -0.1075  0.0958  0.4576
  113MOL0     C14844   8.940   9.719   2.066  0.8389  0.5534  0.3153
  113MOL0     C14845   8.895   9.756   1.919  0.3593  0.7747 -0.1295
  113MOL0     C14846   8.763   9.816   1.892 -0.0920  0.4262 -0.1091
  113MOL0     C14847   8.775   9.953   1.946  1.7357 -0.0683 -0.0625
  113MOL0     C14848   8.796  10.060   2.003 -0.6221 -0.2944  0.0694
  113MOL0     C14849   9.195   9.336   1.917 -0.4292  0.8131 -0.4647
  113MOL0     C14850   9.308   9.251   1.912  0.3864 -0.0562  1.3766
  113MOL0     H14851   9.726   8.961   2.001  1.9583  0.0509 -1.2898
  113MOL0     H14852   9.943   8.843   2.072  1.0766  0.2012 -1.5174
  113MOL0     H14853  10.175   8.904   2.054  1.3334  0.9696 -0.6310
  113MOL0     H14854  10.140   8.779   2.176  1.9467 -1.5202 -0.9480
  113MOL0     H14855  10.384   8.969   2.149  0.8937 -0.5550  0.7173
  113MOL0     H14856  10.377   8.796   2.104 -0.9692 -0.0337 -0.8297
  113MOL0     H14857  10.340   8.730   2.338  0.0893  0.8954  1.9564
  113MOL0     H14858  10.352   8.890   2.391  0.5827 -1.2990  1.2930
  113MOL0     H14859  10.571   8.757   2.214  1.5176 -1.2002  1.1441
  113MOL0     H14860  10.583   8.892   2.319 -2.8927  1.1159 -0.6822
  113MOL0     H14861  10.635   8.595   2.378 -1.8643  1.7277 -3.1922
  113MOL0     H14862  10.503   8.652   2.481  0.1185  0.0559 -0.1830
  113MOL0     H14863  10.656   8.849   2.542 -2.5789  0.1357 -1.7132
  113MOL0     H14864  10.793   8.760   2.470  0.0916 -0.3572  0.7397
  113MOL0     H14865  10.615   8.648   2.683 -0.4709  1.1345 -1.8254
  113MOL0     H14866  10.761   8.564   2.606  2.8735  2.1697 -0.9408
  113MOL0     H14867  10.905   8.726   2.679 -1.2035  0.9469 -0.3029
  113MOL0     H14868  10.838   8.649   2.813  1.5318 -0.4760 -0.4911
  113MOL0     H14869  10.576   8.763   2.882  0.3104  0.0267  0.3649
  113MOL0     H14870  10.491   9.147   2.872 -1.0201 -1.1643 -1.2651
  113MOL0     H14871  10.511   9.060   3.033 -1.1441  0.0005 -0.0169
  113MOL0     H14872  10.297   9.004   2.998 -0.2917 -0.6619  0.0752
  113MOL0     H14873  10.389   8.872   2.953 -0.8565  0.3593  1.1176
  113MOL0     H14874  10.280   9.096   2.766 -1.8503  0.2255  4.5740
  113MOL0     H14875  10.385   8.960   2.707 -1.5214  1.1797 -3.4859
  113MOL0     H14876  10.160   8.842   2.825  1.5671  1.0642  0.6780
  113MOL0     H14877  10.192   8.864   2.648 -0.7155  0.8292 -0.7298
  113MOL0     H14878   9.922   8.758   2.755  2.8878  0.2657 -0.3982
  113MOL0     H14879   9.723   8.723   2.653  1.2029 -0.5248 -2.1604
  113MOL0     H14880   9.453   8.959   2.160  1.0050  1.0559  1.1159
  113MOL0     H14881   9.237   8.984   2.072  0.7517  0.2069 -0.8475
  113MOL0     H14882   8.877   9.059   2.357 -0.8677  0.6557  0.1189
  113MOL0     H14883   8.896   8.891   2.326  0.6147  0.8780  0.9373
  113MOL0     H14884   8.794   9.018   2.080  1.8631 -0.0691 -0.3289
  113MOL0     H14885   8.707   9.073   2.226 -1.7235 -0.5675 -1.4732
  113MOL0     H14886   8.767   8.777   2.161  0.5510 -0.7906  2.5302
  113MOL0     H14887   8.628   8.840   2.079  1.5748  0.7225 -1.7304
  113MOL0     H14888   8.678   8.866   2.372 -0.0799  2.3416 -1.5794
  113MOL0     H14889   8.537   8.914   2.296 -0.1817 -0.3769 -2.6491
  113MOL0     H14890   8.457   8.726   2.386  0.8066 -3.8632  2.4001
  113MOL0     H14891   8.607   8.630   2.370  3.1731  1.0013 -1.6208
  113MOL0     H14892   8.564   8.599   2.124 -1.4126 -3.0890 -1.2647
  113MOL0     H14893   8.434   8.715   2.136 -0.7588  0.1436 -0.4980
  113MOL0     H14894   8.348   8.495   2.117 -1.7608  0.2686  1.1692
  113MOL0     H14895   8.460   8.437   2.237  2.2348 -0.1653 -5.6467
  113MOL0     H14896   8.341   8.549   2.420  0.6847  0.0608  0.5075
  113MOL0     H14897   8.230   8.440   2.336 -0.1054  0.6581 -1.5843
  113MOL0     H14898   9.059   8.994   2.468 -0.3360  0.4412 -1.2365
  113MOL0     H14899   9.285   8.966   2.563 -0.2384 -0.9436  0.6964
  113MOL0     H14900   9.719   9.140   2.517  1.2384  1.9391  3.2511
  113MOL0     H14901   9.935   9.174   2.614  0.0453  0.6051 -0.7879
  113MOL0     H14902  10.014   9.194   2.319 -1.3922  1.0789  1.1415
  113MOL0     H14903   9.794   9.284   2.267 -1.5140 -0.9210  2.5711
  113MOL0     H14904   9.479   9.388   2.166 -2.8193  2.0794  1.2972
  113MOL0     H14905   9.301   9.541   2.158  1.6161 -1.5409  2.2384
  113MOL0     H14906   9.150   9.709   2.017  0.0564  0.1978  0.9492
  113MOL0     H14907   9.097   9.624   2.161  2.2182 -0.1062 -0.1148
  113MOL0     H14908   8.873   9.640   2.100  1.9838 -1.7317 -2.3093
  113MOL0     H14909   8.939   9.802   2.136 -0.4567 -1.0603  2.3328
  113MOL0     H14910   8.880   9.661   1.865 -0.7917  2.3364 -2.7539
  113MOL0     H14911   8.963   9.829   1.873 -1.6842  3.3299  0.6800
  113MOL0     H14912   8.736   9.824   1.787  2.4929 -1.1927 -0.9894
  113MOL0     H14913   8.689   9.754   1.944 -2.6432  1.4794 -2.2667
  113MOL0     H14914   8.819  10.150   2.057  0.7861 -0.1631 -0.7223
  113MOL0     H14915   9.105   9.322   1.858 -0.6258  0.0778 -0.0080
  113MOL0     H14916   9.318   9.171   1.841  0.2498 -0.5295  1.8810
  114MOL0     O14917  10.470  10.037   9.088 -0.2970 -0.5177 -0.3704
  114MOL0     C14918  10.371  10.072   9.147  0.1902 -0.6573  0.1928
  114MOL0     O14919  10.372  10.123   9.271  0.1906 -0.4063  0.0353
  114MOL0     C14920  10.487  10.121   9.335 -0.4050  0.9731 -1.4849
  114MOL0     C14921  10.580  10.228   9.342 -0.7043  0.1984  0.2612
  114MOL0     C14922  10.703  10.207   9.409 -0.4613  0.1375 -0.4718
  114MOL0     C14923  10.748  10.084   9.478  0.6440  0.6652 -0.4575
  114MOL0     O14924  10.861  10.060   9.548 -0.1455  0.3390 -0.3493
  114MOL0     C14925  10.970  10.148   9.538 -0.0230  0.0065 -0.6506
  114MOL0     C14926  11.097  10.094   9.603 -1.0695  0.6089 -0.1984
  114MOL0     C14927  11.219  10.128   9.529 -0.3691  0.0603 -0.3754
  114MOL0     C14928  11.257  10.277   9.539  0.7003  0.4956 -0.3170
  114MOL0     C14929  11.379  10.285   9.638 -0.0937 -1.4061 -0.3211
  114MOL0     C14930  11.508  10.225   9.590  0.0400  0.0943 -0.2063
  114MOL0     C14931  11.626  10.319   9.539  0.2119  0.5487 -0.1984
  114MOL0     C14932  11.754  10.236   9.510  0.4515  0.1113  1.2274
  114MOL0     N14933  11.862  10.337   9.496  0.1823  0.4204  0.0956
  114MOL0     C14934  11.852  10.445   9.413  0.2358 -1.3402 -0.1365
  114MOL0     C14935  11.980  10.489   9.386 -0.1025  0.6284  0.5298
  114MOL0     C14936  12.048  10.603   9.308 -0.3578 -0.1377 -0.3797
  114MOL0     C14937  12.120  10.702   9.394 -0.1265 -0.5299 -0.9305
  114MOL0     C14938  12.127  10.832   9.319  0.1205  0.3209 -0.0858
  114MOL0     C14939  11.981  10.896   9.315 -0.2924  0.1658  0.0780
  114MOL0     O14940  12.010  11.032   9.288 -0.3281  0.1550  0.5123
  114MOL0     C14941  11.905  11.124   9.314 -0.3442  0.0332 -0.6475
  114MOL0     C14942  11.783  11.085   9.375 -0.7328  0.9954 -0.2187
  114MOL0     C14943  11.694  11.173   9.429  0.4522 -0.3409  0.2367
  114MOL0     C14944  11.723  11.317   9.409  0.2589  0.2263  0.7632
  114MOL0     C14945  11.637  11.413   9.469  0.5027  0.4405  0.0989
  114MOL0     O14946  11.684  11.546   9.481 -0.0787 -0.1981  0.5923
  114MOL0     C14947  11.599  11.633   9.553 -0.7169 -0.0126 -0.1563
  114MOL0     C14948  11.510  11.722   9.484  0.3504 -0.8412 -0.3462
  114MOL0     C14949  11.432  11.812   9.565 -0.3131 -0.5679  0.4775
  114MOL0     C14950  11.458  11.824   9.701  0.0286 -0.0992 -0.7691
  114MOL0     O14951  11.372  11.894   9.782  0.0454 -0.7896 -0.5795
  114MOL0     C14952  11.235  11.851   9.788 -0.0410 -0.2704  0.0291
  114MOL0     C14953  11.169  11.868   9.930  0.0259 -0.6411  1.0756
  114MOL0     C14954  11.155  12.022   9.963 -0.2867  0.1195  0.8040
  114MOL0     C14955  11.085  12.043  10.098  0.2232  0.1487  0.5333
  114MOL0     C14956  11.072  12.189  10.140 -0.3867 -0.3660  0.4143
  114MOL0     C14957  11.019  12.186  10.280 -0.0811 -0.6736  0.4275
  114MOL0     C14958  10.953  12.328  10.308 -0.6478  0.4407  0.2860
  114MOL0     C14959  10.892  12.343  10.440  0.1928  0.3285  0.2378
  114MOL0    Cl14960  11.021  12.341  10.570 -0.1605 -0.1222 -0.0568
  114MOL0     C14961  11.545  11.737   9.761  0.1378 -0.0603 -0.1058
  114MOL0     C14962  11.616  11.640   9.690  0.5625 -0.6303  0.5081
  114MOL0     O14963  11.518  11.372   9.497  0.7876  0.6228 -0.2346
  114MOL0     C14964  11.838  11.350   9.341 -0.0917 -0.9016  0.2192
  114MOL0     C14965  11.933  11.255   9.291 -0.1000 -0.6762  0.0228
  114MOL0     N14966  12.066  10.407   9.457 -0.1641  0.3783 -0.0940
  114MOL0     N14967  11.993  10.326   9.526 -1.1492  0.5905 -0.0658
  114MOL0     C14968  10.644   9.985   9.472 -0.6793 -0.4310  0.6214
  114MOL0     C14969  10.513   9.999   9.422 -0.2035 -0.2899  0.2086
  114MOL0     C14970  10.244  10.060   9.075  0.6217 -0.0183  0.0877
  114MOL0     C14971  10.237  10.034   8.937  0.3269 -0.0407 -0.0650
  114MOL0     C14972  10.112  10.032   8.861 -0.3274 -0.1416 -0.2183
  114MOL0     C14973   9.998  10.072   8.921  0.0751 -0.7791 -0.9786
  114MOL0     O14974   9.890  10.081   8.835  0.1700  0.1313  0.2358
  114MOL0     C14975   9.764  10.154   8.874 -0.5958 -0.2488  0.7530
  114MOL0     C14976   9.655  10.125   8.770  0.1728 -0.2532 -0.8251
  114MOL0     C14977   9.607   9.983   8.770 -0.0921 -1.0075 -0.1890
  114MOL0     C14978   9.611   9.902   8.896  1.4635  0.0820  0.2597
  114MOL0     C14979   9.522   9.945   9.007 -0.3329 -0.0191  0.5252
  114MOL0     C14980   9.456   9.984   9.103  0.6490 -0.4849  0.0836
  114MOL0     C14981  10.000  10.104   9.058 -0.0767  0.3913 -0.4471
  114MOL0     C14982  10.119  10.084   9.138 -1.3113  0.2859  0.5086
  114MOL0     H14983  10.542  10.319   9.298 -1.4695 -0.8641 -1.4073
  114MOL0     H14984  10.771  10.292   9.414  1.8984 -1.6346 -0.2725
  114MOL0     H14985  10.937  10.241   9.585  0.0367 -1.3373  2.2762
  114MOL0     H14986  10.991  10.166   9.433  1.7741 -1.8139 -0.6784
  114MOL0     H14987  11.095   9.985   9.615  3.5370  0.0015 -2.6377
  114MOL0     H14988  11.101  10.136   9.704  0.7063  0.8086 -0.3228
  114MOL0     H14989  11.205  10.101   9.424  1.1468  1.8389 -1.0970
  114MOL0     H14990  11.298  10.058   9.558 -0.9432 -0.3391  0.2466
  114MOL0     H14991  11.284  10.308   9.437  1.6308 -1.0604 -0.5694
  114MOL0     H14992  11.177  10.341   9.578  1.7329  0.1742  2.6012
  114MOL0     H14993  11.360  10.229   9.730  2.1060 -2.7330 -0.5952
  114MOL0     H14994  11.404  10.388   9.666 -0.8757 -1.0871 -0.7723
  114MOL0     H14995  11.480  10.166   9.502 -3.9908  1.7174 -0.2309
  114MOL0     H14996  11.544  10.164   9.674 -1.2562  0.9776  1.0310
  114MOL0     H14997  11.596  10.383   9.455  0.5347  1.0846  0.0869
  114MOL0     H14998  11.648  10.380   9.627  1.6500  0.5013 -0.4970
  114MOL0     H14999  11.755  10.183   9.414  0.9799  2.6630 -0.2603
  114MOL0     H15000  11.767  10.163   9.591 -0.6673  1.5734  2.7900
  114MOL0     H15001  11.774  10.507   9.369  2.5263  2.0781  0.2149
  114MOL0     H15002  11.971  10.656   9.251 -1.6159  0.4935  1.8002
  114MOL0     H15003  12.113  10.562   9.230 -0.1476  0.0500 -0.3053
  114MOL0     H15004  12.221  10.680   9.429 -0.0949  1.0108  0.0675
  114MOL0     H15005  12.066  10.712   9.489 -0.0198  0.9833 -1.0070
  114MOL0     H15006  12.199  10.886   9.381  2.2265  0.7361 -2.7009
  114MOL0     H15007  12.159  10.806   9.218  0.5684  1.1737 -0.1780
  114MOL0     H15008  11.936  10.879   9.413 -0.9364 -2.0488 -0.5364
  114MOL0     H15009  11.925  10.860   9.228  0.6378  0.1276 -0.5217
  114MOL0     H15010  11.757  10.984   9.407 -1.2016  0.9031 -0.8817
  114MOL0     H15011  11.606  11.143   9.484 -0.6276  3.2463  0.7099
  114MOL0     H15012  11.511  11.727   9.375 -1.8468 -1.5284 -0.4458
  114MOL0     H15013  11.361  11.878   9.517 -0.6339 -1.7635 -0.7569
  114MOL0     H15014  11.231  11.748   9.750 -1.3817  1.0268 -3.9249
  114MOL0     H15015  11.178  11.913   9.718 -3.0995  0.7077  3.1137
  114MOL0     H15016  11.234  11.817  10.000  0.2535 -0.7394  0.7958
  114MOL0     H15017  11.066  11.831   9.933 -0.5107  0.6710  0.1110
  114MOL0     H15018  11.120  12.079   9.876  0.1003  0.3264  0.7783
  114MOL0     H15019  11.259  12.058   9.966  0.3967 -1.5611 -0.5330
  114MOL0     H15020  10.991  11.986  10.096  0.9650 -1.1099  0.1367
  114MOL0     H15021  11.149  12.010  10.180  3.5600  1.3295 -1.4236
  114MOL0     H15022  11.005  12.235  10.067  2.2166 -1.8782 -3.2809
  114MOL0     H15023  11.161  12.249  10.119  1.7097 -3.6966 -1.0870
  114MOL0     H15024  11.095  12.164  10.355  1.4272  1.1982 -0.4739
  114MOL0     H15025  10.947  12.104  10.284 -0.6977 -0.5155 -3.3226
  114MOL0     H15026  11.028  12.407  10.301  0.0064  0.0166  1.9175
  114MOL0     H15027  10.874  12.357  10.238 -0.1757  2.0589  0.3842
  114MOL0     H15028  10.815  12.268  10.460 -0.6837  0.7172 -1.4330
  114MOL0     H15029  10.845  12.442  10.447  2.0881  1.1916  1.6250
  114MOL0     H15030  11.560  11.743   9.868  1.6594 -3.0216 -0.0621
  114MOL0     H15031  11.683  11.574   9.745  0.4082 -1.0000  0.2534
  114MOL0     H15032  11.860  11.456   9.337  1.8502 -1.2833 -0.1892
  114MOL0     H15033  12.034  11.285   9.266 -1.1360  1.8315 -1.4596
  114MOL0     H15034  10.680   9.888   9.502  1.3278 -0.9258 -2.7930
  114MOL0     H15035  10.439   9.922   9.444  0.4902 -0.8840  0.5146
  114MOL0     H15036  10.334  10.022   8.890  0.9488 -1.4429  1.4586
  114MOL0     H15037  10.109   9.993   8.760 -0.9219 -0.1754 -0.1884
  114MOL0     H15038   9.790  10.260   8.869  2.1700 -0.8626  0.8427
  114MOL0     H15039   9.748  10.132   8.980  4.5636  1.1988  2.1154
  114MOL0     H15040   9.565  10.184   8.787 -0.9637 -2.5302  1.7719
  114MOL0     H15041   9.686  10.148   8.667 -0.5196 -1.1856 -1.2592
  114MOL0     H15042   9.672   9.920   8.709 -2.4148 -0.9453 -2.9018
  114MOL0     H15043   9.507   9.970   8.729  0.3014  0.2628 -1.6473
  114MOL0     H15044   9.581   9.801   8.865 -2.7899  0.9829  0.7898
  114MOL0     H15045   9.712   9.892   8.936  2.1459 -1.0813 -1.6337
  114MOL0     H15046   9.411  10.024   9.191  0.7936  3.6112 -1.4748
  114MOL0     H15047   9.909  10.134   9.109 -0.6803 -0.8322 -0.7710
  114MOL0     H15048  10.115  10.106   9.244 -2.2768 -1.3196  0.8409
  115MOL0     O15049   6.033   8.076  10.733 -0.3775  0.1625 -0.1927
  115MOL0     C15050   6.092   7.975  10.704 -0.7373  0.4303 -0.3764
  115MOL0     O15051   6.042   7.844  10.703 -0.3825  0.0881  0.2162
  115MOL0     C15052   5.916   7.826  10.738 -0.0454  0.2041  0.4217
  115MOL0     C15053   5.869   7.866  10.862  0.2379 -0.0629 -0.5923
  115MOL0     C15054   5.737   7.845  10.893  0.0679  0.1172  0.0907
  115MOL0     C15055   5.648   7.789  10.806 -0.3680 -0.0178  0.8341
  115MOL0     O15056   5.516   7.790  10.848 -0.7177 -0.1079 -0.0569
  115MOL0     C15057   5.425   7.837  10.742 -0.1067  0.4087 -0.2431
  115MOL0     C15058   5.317   7.729  10.705 -1.1751 -0.0700 -1.2538
  115MOL0     C15059   5.214   7.716  10.824  0.2596 -0.8080 -0.1253
  115MOL0     C15060   5.117   7.597  10.803 -0.3177 -0.4834 -0.8312
  115MOL0     C15061   5.018   7.555  10.924  0.3488  0.4676 -0.3915
  115MOL0     C15062   4.927   7.669  10.959  0.6501  0.0351 -0.4322
  115MOL0     C15063   4.869   7.737  10.832  0.2936  0.6834  0.0664
  115MOL0     C15064   4.783   7.646  10.746  0.0765  0.6074 -0.3755
  115MOL0     N15065   4.723   7.719  10.638  0.3395 -0.0380 -0.1794
  115MOL0     C15066   4.768   7.755  10.516 -0.3289  0.2996  0.0123
  115MOL0     C15067   4.661   7.818  10.453 -0.5501 -0.6440  0.0617
  115MOL0     C15068   4.660   7.867  10.315 -0.7413 -0.4152 -0.3838
  115MOL0     C15069   4.771   7.952  10.286 -0.0093 -1.0345  0.7657
  115MOL0     C15070   4.744   8.038  10.166 -0.1712 -0.6428  0.0577
  115MOL0     C15071   4.863   8.118  10.106 -0.2062 -0.4572 -0.5314
  115MOL0     O15072   4.808   8.205  10.007  0.3673  0.1956  0.0054
  115MOL0     C15073   4.824   8.170   9.878 -0.3176  1.0917  0.2433
  115MOL0     C15074   4.959   8.166   9.831  0.3717  0.1747 -0.7591
  115MOL0     C15075   4.989   8.127   9.699  0.0826 -0.5392  0.0763
  115MOL0     C15076   4.890   8.090   9.604 -0.2864 -0.2852 -0.4051
  115MOL0     C15077   4.922   8.057   9.466  0.1043 -0.3968 -0.2671
  115MOL0     O15078   5.051   8.041   9.435  0.1586 -0.8515  0.3267
  115MOL0     C15079   5.088   8.029   9.302  0.0138 -0.7636  0.5504
  115MOL0     C15080   5.145   7.914   9.247  0.6321 -0.2251 -0.6935
  115MOL0     C15081   5.170   7.912   9.114 -0.2690  0.4656 -1.3899
  115MOL0     C15082   5.144   8.018   9.026 -0.3235 -0.2678  0.3811
  115MOL0     O15083   5.181   8.015   8.898 -0.2475  0.9201  0.2634
  115MOL0     C15084   5.303   8.095   8.869  0.8428 -1.0671  0.6233
  115MOL0     C15085   5.377   8.018   8.761  0.2832 -0.6649 -0.5495
  115MOL0     C15086   5.505   8.086   8.720 -0.3034 -0.4666 -0.1769
  115MOL0     C15087   5.590   8.020   8.611  0.6472  0.5039 -0.1218
  115MOL0     C15088   5.686   8.110   8.524  0.4766  0.6344 -0.7168
  115MOL0     C15089   5.799   8.034   8.453 -0.0111  0.3632 -0.2294
  115MOL0     C15090   5.892   8.106   8.351  0.4958 -0.0957 -0.5104
  115MOL0     C15091   5.999   8.012   8.301 -0.2344  0.8040 -0.3290
  115MOL0    Cl15092   5.957   7.908   8.162  0.0252 -0.0048  0.1205
  115MOL0     C15093   5.099   8.140   9.083  0.0117 -0.4926 -0.7988
  115MOL0     C15094   5.070   8.140   9.222 -0.8461 -0.3207  0.8329
  115MOL0     O15095   4.825   8.029   9.393  0.3065  0.4188 -0.4232
  115MOL0     C15096   4.756   8.108   9.662  0.2403  0.7487  0.6417
  115MOL0     C15097   4.726   8.142   9.791  0.1809  0.0655 -0.2519
  115MOL0     N15098   4.552   7.821  10.538 -0.5607  0.2362 -0.2721
  115MOL0     N15099   4.597   7.779  10.656 -0.0913  0.2062  0.0175
  115MOL0     C15100   5.696   7.744  10.676  0.2575 -0.8480 -0.6678
  115MOL0     C15101   5.832   7.761  10.639 -0.5690  0.4420 -0.2884
  115MOL0     C15102   6.232   7.983  10.672  0.6893 -0.6785  0.0278
  115MOL0     C15103   6.275   7.970  10.543 -0.0930 -0.0870 -0.2969
  115MOL0     C15104   6.406   7.982  10.507 -0.9071 -0.6898 -1.1914
  115MOL0     C15105   6.504   7.997  10.604  0.1733  0.6007  0.6120
  115MOL0     O15106   6.630   7.999  10.556  0.0259 -0.7380  0.4468
  115MOL0     C15107   6.737   7.999  10.652 -0.9476 -0.0364 -0.4154
  115MOL0     C15108   6.836   7.887  10.608 -0.1784 -0.6770  0.1396
  115MOL0     C15109   6.973   7.922  10.677 -0.7755 -0.2374 -0.6556
  115MOL0     C15110   7.081   7.807  10.654  0.1088 -0.0271 -0.7486
  115MOL0     C15111   7.207   7.862  10.618 -0.4539  0.1006 -0.0556
  115MOL0     C15112   7.317   7.905  10.587 -0.6724  0.1695  0.2393
  115MOL0     C15113   6.458   7.980  10.740  0.2922  0.5968 -0.0441
  115MOL0     C15114   6.324   7.991  10.775 -0.6792  0.3042 -0.4700
  115MOL0     H15115   5.937   7.901  10.939  2.7441 -2.9075 -1.3335
  115MOL0     H15116   5.700   7.879  10.990 -1.3050 -3.1350  0.8473
  115MOL0     H15117   5.476   7.860  10.649 -0.5269  1.0206 -0.3292
  115MOL0     H15118   5.384   7.935  10.770  1.6474  0.6998  1.6071
  115MOL0     H15119   5.375   7.641  10.678  1.3885  1.9622 -2.7724
  115MOL0     H15120   5.258   7.753  10.616 -0.7771 -0.8112 -1.7193
  115MOL0     H15121   5.166   7.812  10.844  1.6948 -0.5267  2.4287
  115MOL0     H15122   5.265   7.689  10.917  0.0625  1.0016  0.5521
  115MOL0     H15123   5.057   7.600  10.712 -2.1870  1.8410  0.3521
  115MOL0     H15124   5.190   7.516  10.809  1.0320  0.8152  2.2008
  115MOL0     H15125   5.074   7.521  11.012  1.8595 -1.7454 -2.0851
  115MOL0     H15126   4.955   7.473  10.888 -1.1196  3.0082 -4.1423
  115MOL0     H15127   4.977   7.743  11.022 -1.3478 -0.0929  1.4323
  115MOL0     H15128   4.843   7.628  11.016  0.3000  0.0514 -0.9284
  115MOL0     H15129   4.805   7.817  10.869 -1.8741 -1.5888  1.5652
  115MOL0     H15130   4.948   7.785  10.774  0.5234 -0.3592 -0.4995
  115MOL0     H15131   4.698   7.611  10.806  1.6361  0.1252  1.6909
  115MOL0     H15132   4.832   7.555  10.711  1.5439  1.1215  0.2815
  115MOL0     H15133   4.868   7.752  10.475  1.2323  3.4922  3.0838
  115MOL0     H15134   4.565   7.920  10.302 -0.7122  0.3108  1.9595
  115MOL0     H15135   4.657   7.782  10.246  0.7115 -0.0572 -0.9334
  115MOL0     H15136   4.860   7.892  10.269  1.2711  0.7973  0.6547
  115MOL0     H15137   4.785   8.015  10.375 -2.8843  1.6934 -0.5125
  115MOL0     H15138   4.714   7.959  10.096  1.2389 -3.3073  2.2349
  115MOL0     H15139   4.661   8.108  10.177  1.5506  1.1948  2.7182
  115MOL0     H15140   4.940   8.054  10.062 -1.3250 -1.1868 -1.4926
  115MOL0     H15141   4.921   8.165  10.186 -2.2699 -2.8717  2.6475
  115MOL0     H15142   5.039   8.205   9.893 -0.0159  2.7624 -1.7664
  115MOL0     H15143   5.092   8.116   9.668 -0.0544 -0.2394 -0.5015
  115MOL0     H15144   5.173   7.831   9.311 -1.7259 -1.6406 -1.3846
  115MOL0     H15145   5.224   7.826   9.076 -1.0705 -1.1765  0.9409
  115MOL0     H15146   5.370   8.114   8.953  0.6952  0.4470  0.4299
  115MOL0     H15147   5.284   8.197   8.834  0.2329 -1.5867 -0.6216
  115MOL0     H15148   5.308   8.011   8.676  0.5378  0.4834 -0.8647
  115MOL0     H15149   5.401   7.919   8.801 -0.0250  0.6258  3.1959
  115MOL0     H15150   5.572   8.086   8.806 -0.5122 -0.1026 -0.0192
  115MOL0     H15151   5.486   8.189   8.691  1.7257 -0.5335 -2.0487
  115MOL0     H15152   5.655   7.952   8.665 -0.1851 -1.3968 -1.4070
  115MOL0     H15153   5.527   7.959   8.546  2.7977  0.0061 -1.8696
  115MOL0     H15154   5.736   8.185   8.585 -2.4810  0.2586  2.4682
  115MOL0     H15155   5.640   8.163   8.440 -1.4156  0.6859  0.2998
  115MOL0     H15156   5.760   7.938   8.418  2.6769 -1.1696  0.6888
  115MOL0     H15157   5.862   8.007   8.538 -0.5079 -3.0488 -0.8072
  115MOL0     H15158   5.852   8.171   8.273  1.8803  1.5492  0.0819
  115MOL0     H15159   5.946   8.169   8.422 -1.2234 -1.2556  1.9552
  115MOL0     H15160   6.033   7.952   8.385 -0.6863  1.7719  0.5785
  115MOL0     H15161   6.080   8.077   8.266 -1.5775  1.6868 -1.9748
  115MOL0     H15162   5.104   8.233   9.027  0.4519  0.6706  1.0977
  115MOL0     H15163   5.044   8.234   9.269 -2.0186 -0.6291  0.8295
  115MOL0     H15164   4.675   8.095   9.590  2.5544 -1.6165 -1.7393
  115MOL0     H15165   4.628   8.138   9.836  1.2697 -0.7670  2.2193
  115MOL0     H15166   5.623   7.704  10.607 -1.8572  2.0831 -0.3208
  115MOL0     H15167   5.866   7.726  10.542  3.0995  0.1893  0.9278
  115MOL0     H15168   6.206   7.968  10.458 -1.8028  0.1375  1.0370
  115MOL0     H15169   6.432   7.964  10.403 -3.2473  0.8843 -2.1305
  115MOL0     H15170   6.712   7.978  10.757  1.2519  1.8871  0.5866
  115MOL0     H15171   6.783   8.099  10.647  0.4082 -0.6495 -0.6282
  115MOL0     H15172   6.789   7.791  10.630  2.2191 -1.6067  1.6651
  115MOL0     H15173   6.860   7.901  10.503 -0.1292  0.8952  0.3289
  115MOL0     H15174   6.948   7.936  10.783  1.3843 -0.0923 -0.1114
  115MOL0     H15175   7.004   8.023  10.649 -1.1457  0.9082  2.5641
  115MOL0     H15176   7.081   7.736  10.737 -0.1410  1.1354  0.2566
  115MOL0     H15177   7.058   7.754  10.561  1.8688 -1.5662 -0.3791
  115MOL0     H15178   7.411   7.949  10.560  1.1372 -2.2726  2.0430
  115MOL0     H15179   6.525   7.970  10.826 -0.3214  1.5138  0.5582
  115MOL0     H15180   6.283   8.000  10.875 -1.0256  0.3126 -0.6117
  116MOL0     O15181   2.216   7.324   0.670  0.6780 -0.7919  0.9122
  116MOL0     C15182   2.236   7.401   0.572 -0.1112 -0.3954 -1.1912
  116MOL0     O15183   2.136   7.458   0.488 -0.3012 -0.2519 -0.1350
  116MOL0     C15184   2.004   7.444   0.501  0.9559  0.2195  0.6131
  116MOL0     C15185   1.922   7.431   0.384 -0.9267  0.0171  0.3355
  116MOL0     C15186   1.780   7.423   0.387 -0.4082 -0.1852  0.0154
  116MOL0     C15187   1.723   7.421   0.513  0.4487 -0.4363 -0.4346
  116MOL0     O15188   1.585   7.411   0.516 -0.2921  0.2761  0.6769
  116MOL0     C15189   1.511   7.508   0.594  0.1786  0.3789 -0.8162
  116MOL0     C15190   1.375   7.526   0.540  0.1511  0.2358  0.3894
  116MOL0     C15191   1.377   7.628   0.430 -0.5802  0.3893  0.2487
  116MOL0     C15192   1.240   7.653   0.361 -0.3026  0.7195 -0.3065
  116MOL0     C15193   1.246   7.767   0.258  0.1868 -0.0439 -0.5083
  116MOL0     C15194   1.122   7.853   0.255  0.3471  0.2645  0.1228
  116MOL0     C15195   0.995   7.794   0.195  0.2004  0.0896  0.4958
  116MOL0     C15196   0.929   7.679   0.268 -0.0634 -1.3897 -2.0875
  116MOL0     N15197   0.818   7.627   0.180 -1.0972 -0.3997 -0.6479
  116MOL0     C15198   0.767   7.503   0.186 -0.0282 -0.1268 -0.1777
  116MOL0     C15199   0.659   7.506   0.101 -0.0174 -0.9131  0.3373
  116MOL0     C15200   0.561   7.410   0.053 -0.2810  0.4595 -0.1734
  116MOL0     C15201   0.428   7.435   0.130  0.0254 -0.1008 -0.0201
  116MOL0     C15202   0.315   7.353   0.071 -1.1646 -0.7121 -0.3397
  116MOL0     C15203   0.183   7.377   0.150  0.0675 -0.4951  0.0923
  116MOL0     O15204   0.081   7.315   0.066  0.3365  0.5828  0.1892
  116MOL0     C15205  -0.046   7.359   0.075 -0.1749 -0.3879  0.2000
  116MOL0     C15206  -0.132   7.317  -0.028 -0.2725  1.4166 -0.4579
  116MOL0     C15207  -0.270   7.340  -0.017 -0.2351  0.1461 -0.3902
  116MOL0     C15208  -0.323   7.404   0.098 -0.2835 -0.1760  0.1709
  116MOL0     C15209  -0.468   7.413   0.106 -0.0495  0.0185 -0.4257
  116MOL0     O15210  -0.519   7.499   0.200 -1.1606  0.1533 -0.4001
  116MOL0     C15211  -0.642   7.550   0.160  0.1992 -0.4706  0.0603
  116MOL0     C15212  -0.764   7.505   0.218  0.0259  0.1034  0.2569
  116MOL0     C15213  -0.882   7.586   0.193 -0.8327  0.4178  0.1204
  116MOL0     C15214  -0.878   7.692   0.099 -0.5006 -0.2966 -0.6334
  116MOL0     O15215  -0.979   7.776   0.080  0.2446  0.2819  0.3121
  116MOL0     C15216  -1.052   7.818   0.198  0.1632 -0.9666 -0.2085
  116MOL0     C15217  -1.127   7.947   0.158  0.0723 -0.4581 -0.3470
  116MOL0     C15218  -1.237   7.934   0.055 -0.0052  0.2685  0.7027
  116MOL0     C15219  -1.366   7.877   0.092 -0.1197 -0.9472 -0.3508
  116MOL0     C15220  -1.456   7.865  -0.035  1.3520  0.7438 -0.1023
  116MOL0     C15221  -1.562   7.754   0.004  0.8467 -0.8740  0.3226
  116MOL0     C15222  -1.666   7.746  -0.114 -0.7304 -0.0186 -0.1368
  116MOL0     C15223  -1.806   7.697  -0.064 -0.0232 -0.1819  0.2348
  116MOL0    Cl15224  -1.914   7.662  -0.203 -0.2808  0.5654  0.2926
  116MOL0     C15225  -0.763   7.720   0.033 -0.3701 -0.3226  0.3564
  116MOL0     C15226  -0.640   7.656   0.069  0.5600  0.0946 -0.5792
  116MOL0     O15227  -0.531   7.348   0.024  0.3040  0.6615 -0.3658
  116MOL0     C15228  -0.237   7.444   0.190  0.2796 -0.6901 -1.3444
  116MOL0     C15229  -0.104   7.424   0.186 -0.0888 -0.9219  0.3919
  116MOL0     N15230   0.648   7.635   0.038 -0.1910  0.9519  0.8279
  116MOL0     N15231   0.742   7.706   0.101  0.1469 -0.6397 -0.1985
  116MOL0     C15232   1.797   7.425   0.634  0.3650 -0.4989 -0.1506
  116MOL0     C15233   1.943   7.424   0.625  0.6944  0.3169  0.2317
  116MOL0     C15234   2.380   7.446   0.556 -0.3417 -0.4656 -0.4143
  116MOL0     C15235   2.487   7.377   0.614 -0.2472 -0.1590 -0.5625
  116MOL0     C15236   2.619   7.432   0.597 -0.5046  0.3061 -0.2697
  116MOL0     C15237   2.635   7.556   0.526  0.2659  0.0740  0.3648
  116MOL0     O15238   2.755   7.616   0.521  0.3162 -0.3031 -0.9398
  116MOL0     C15239   2.822   7.632   0.650 -0.1403  0.6832  0.0402
  116MOL0     C15240   2.970   7.595   0.637  0.5494  0.5723 -0.2139
  116MOL0     C15241   2.985   7.441   0.657  0.3341  0.4002  0.2853
  116MOL0     C15242   3.130   7.388   0.611 -0.2177  0.3081  0.0346
  116MOL0     C15243   3.243   7.465   0.662 -0.7844 -0.1450 -0.9529
  116MOL0     C15244   3.324   7.543   0.712  0.1338 -0.7206 -0.5080
  116MOL0     C15245   2.527   7.624   0.471  1.2946  0.2659  0.6467
  116MOL0     C15246   2.402   7.564   0.481  0.9513  0.7049 -1.3340
  116MOL0     H15247   1.977   7.435   0.291  2.2130  1.8139  2.1178
  116MOL0     H15248   1.720   7.421   0.296  1.4351 -0.9420 -1.2557
  116MOL0     H15249   1.564   7.604   0.593  1.3703 -0.2466 -2.0979
  116MOL0     H15250   1.509   7.478   0.699  3.2874  2.4582  0.0073
  116MOL0     H15251   1.305   7.560   0.617 -0.6734  1.6343 -0.9078
  116MOL0     H15252   1.332   7.430   0.510 -1.4348  1.5157 -1.8118
  116MOL0     H15253   1.464   7.626   0.363  0.5218 -0.8960  1.6583
  116MOL0     H15254   1.398   7.712   0.497 -0.3574 -2.2232  3.7361
  116MOL0     H15255   1.207   7.558   0.319 -0.9299  1.1771 -0.8768
  116MOL0     H15256   1.169   7.667   0.444 -1.1167 -2.9730 -0.2357
  116MOL0     H15257   1.268   7.718   0.163  0.9081 -0.8523  0.0681
  116MOL0     H15258   1.324   7.842   0.272  0.9566 -0.8801 -0.2053
  116MOL0     H15259   1.147   7.937   0.189  1.1237 -0.4690 -0.5416
  116MOL0     H15260   1.088   7.884   0.354 -6.5787  1.0513 -2.0007
  116MOL0     H15261   0.928   7.875   0.164  0.0225 -0.7091 -1.3848
  116MOL0     H15262   1.029   7.751   0.100 -1.8312 -1.6037  0.4496
  116MOL0     H15263   0.887   7.714   0.362  1.2426  1.1851 -2.3817
  116MOL0     H15264   0.999   7.601   0.300  0.0526 -0.5346 -0.1597
  116MOL0     H15265   0.810   7.422   0.245  0.2847 -0.7986 -1.2839
  116MOL0     H15266   0.590   7.309   0.082 -0.1810  1.0260  1.9075
  116MOL0     H15267   0.551   7.412  -0.056 -1.8337 -2.0697 -0.1564
  116MOL0     H15268   0.410   7.543   0.120  0.8006 -0.0668 -1.2427
  116MOL0     H15269   0.448   7.406   0.234 -0.3010 -0.0256  0.0648
  116MOL0     H15270   0.304   7.380  -0.035  0.1970  4.5666  0.5510
  116MOL0     H15271   0.348   7.249   0.067 -1.2640 -0.7325 -0.6799
  116MOL0     H15272   0.165   7.485   0.154 -2.6806 -0.8521 -0.1955
  116MOL0     H15273   0.198   7.342   0.253  2.3055  0.2300  0.0508
  116MOL0     H15274  -0.094   7.261  -0.113  0.4937 -1.0479  1.3580
  116MOL0     H15275  -0.318   7.310  -0.110  0.1060  1.7642 -1.1087
  116MOL0     H15276  -0.766   7.424   0.289 -1.2536 -1.7264 -1.7333
  116MOL0     H15277  -0.980   7.560   0.231 -1.0422 -1.8589 -1.7977
  116MOL0     H15278  -0.969   7.839   0.266  1.0566 -1.9115 -0.9725
  116MOL0     H15279  -1.122   7.742   0.233 -2.9477  0.1742 -3.3348
  116MOL0     H15280  -1.059   8.023   0.119  1.8251 -0.4999  2.4362
  116MOL0     H15281  -1.168   7.991   0.249  1.9955 -0.8695  0.7561
  116MOL0     H15282  -1.192   7.876  -0.026 -2.2539 -1.8647  0.8624
  116MOL0     H15283  -1.264   8.029   0.008 -1.4466 -0.4076  0.1114
  116MOL0     H15284  -1.342   7.776   0.126 -1.7274 -1.3995 -0.4791
  116MOL0     H15285  -1.409   7.945   0.167  2.8986 -1.8289  2.4289
  116MOL0     H15286  -1.400   7.837  -0.125 -0.7061  3.1602 -2.3427
  116MOL0     H15287  -1.503   7.959  -0.067 -1.9947 -0.8124 -0.2661
  116MOL0     H15288  -1.610   7.794   0.093 -0.8648 -2.1378  0.0141
  116MOL0     H15289  -1.515   7.659   0.032 -1.9174 -1.8524  2.0096
  116MOL0     H15290  -1.682   7.849  -0.147 -1.0537 -0.2074 -0.5777
  116MOL0     H15291  -1.638   7.689  -0.203  0.5135  0.7141 -0.2423
  116MOL0     H15292  -1.862   7.783  -0.027 -1.3793 -0.5960 -0.7597
  116MOL0     H15293  -1.802   7.621   0.014 -0.3752 -2.4088 -1.7898
  116MOL0     H15294  -0.758   7.792  -0.048  0.0007 -0.4299  0.2792
  116MOL0     H15295  -0.555   7.702   0.021 -0.8024  2.1884 -1.1327
  116MOL0     H15296  -0.271   7.496   0.280  1.5976 -0.7933 -0.7692
  116MOL0     H15297  -0.029   7.447   0.260  1.7785 -0.3022 -1.5902
  116MOL0     H15298   1.746   7.417   0.730  2.9169  2.1669  1.6278
  116MOL0     H15299   1.994   7.412   0.720  0.8081 -1.5689 -0.0315
  116MOL0     H15300   2.479   7.282   0.666 -1.0224  0.4831  0.5191
  116MOL0     H15301   2.707   7.373   0.620 -0.7200 -0.9370 -2.4176
  116MOL0     H15302   2.793   7.569   0.734 -0.2143  0.8752  0.1583
  116MOL0     H15303   2.814   7.734   0.688  0.6795  0.4781  0.7869
  116MOL0     H15304   3.014   7.636   0.546  1.0868 -0.0172 -0.2229
  116MOL0     H15305   3.020   7.653   0.715  0.9933 -0.1663  0.0651
  116MOL0     H15306   2.909   7.393   0.594  3.4161 -1.0859 -2.6575
  116MOL0     H15307   2.961   7.408   0.758 -1.5357 -1.9773 -0.8229
  116MOL0     H15308   3.134   7.281   0.637 -0.7234  0.4854  0.8984
  116MOL0     H15309   3.145   7.399   0.503  2.3529  0.6703  0.3641
  116MOL0     H15310   3.389   7.620   0.748  0.3851 -1.2820  0.2755
  116MOL0     H15311   2.537   7.716   0.415  0.4835 -2.5231 -4.8672
  116MOL0     H15312   2.320   7.616   0.433  2.4138  3.0174 -1.4864
  117MOL0     O15313   6.683   1.170   5.287 -0.5905  0.7026 -0.4668
  117MOL0     C15314   6.707   1.056   5.248  0.3502  0.1385 -0.3658
  117MOL0     O15315   6.662   0.939   5.301 -0.0178 -0.1941  0.0088
  117MOL0     C15316   6.576   0.955   5.410  0.2886  0.2846 -0.7270
  117MOL0     C15317   6.636   0.930   5.533 -0.2452 -0.2294  0.4921
  117MOL0     C15318   6.564   0.944   5.647 -0.1021 -0.4151  0.2696
  117MOL0     C15319   6.437   0.992   5.649  0.4828 -0.6282  0.8673
  117MOL0     O15320   6.363   1.027   5.761 -0.2575  0.3537 -0.6395
  117MOL0     C15321   6.318   0.930   5.856  0.3457  0.1602 -0.2300
  117MOL0     C15322   6.169   0.953   5.851  0.1102  0.6870  0.3344
  117MOL0     C15323   6.107   0.842   5.939  0.4336 -0.3753  0.2199
  117MOL0     C15324   5.960   0.863   5.948  0.9235 -0.6839  0.0848
  117MOL0     C15325   5.884   0.762   6.037 -0.8342 -0.0462 -0.5041
  117MOL0     C15326   5.739   0.797   6.047 -0.2894  0.5437 -0.8615
  117MOL0     C15327   5.666   0.697   6.125 -0.6568  0.8935 -0.4988
  117MOL0     C15328   5.523   0.722   6.137 -0.4553 -0.0736  0.2125
  117MOL0     N15329   5.448   0.612   6.193  0.6967 -0.7518 -0.8714
  117MOL0     C15330   5.439   0.586   6.327  0.1461  1.3556 -0.6874
  117MOL0     C15331   5.337   0.493   6.346 -0.8343  0.2815 -0.2907
  117MOL0     C15332   5.297   0.439   6.473  0.2478 -1.2434  0.3124
  117MOL0     C15333   5.144   0.424   6.474  0.9619 -0.0787 -0.2188
  117MOL0     C15334   5.077   0.556   6.459 -0.2729  0.2930  0.1622
  117MOL0     C15335   4.929   0.529   6.501  0.7072  0.1344  0.4686
  117MOL0     O15336   4.861   0.430   6.428  0.6539 -0.3248  0.5619
  117MOL0     C15337   4.722   0.421   6.442  0.1497 -0.1108 -0.2158
  117MOL0     C15338   4.643   0.343   6.352 -0.1720  0.2986 -0.3065
  117MOL0     C15339   4.504   0.327   6.367 -0.4244  0.4755  0.4153
  117MOL0     C15340   4.437   0.373   6.480 -0.7909 -1.1220 -0.4667
  117MOL0     C15341   4.296   0.339   6.499 -1.1430 -0.5305  1.0168
  117MOL0     O15342   4.248   0.249   6.417  0.3671 -0.1915  0.3105
  117MOL0     C15343   4.127   0.193   6.446  0.3744  0.3024  0.4206
  117MOL0     C15344   4.120   0.050   6.447  0.1254  0.1014  0.3326
  117MOL0     C15345   3.990  -0.004   6.454  0.6932  0.1291 -0.5655
  117MOL0     C15346   3.871   0.072   6.456  0.2109 -0.5632 -1.2134
  117MOL0     O15347   3.745   0.008   6.442 -0.1563 -0.2037 -0.4519
  117MOL0     C15348   3.617   0.088   6.408 -0.7952 -0.0902 -0.1645
  117MOL0     C15349   3.526   0.091   6.526 -0.3474  0.2937 -0.0799
  117MOL0     C15350   3.385   0.110   6.471  0.7494 -0.8280 -0.7816
  117MOL0     C15351   3.323  -0.028   6.424 -0.1949 -0.5836  0.8822
  117MOL0     C15352   3.164  -0.008   6.389 -0.7652  0.2047 -0.6067
  117MOL0     C15353   3.106  -0.130   6.335 -0.2697  0.2944  0.1978
  117MOL0     C15354   2.966  -0.116   6.288  0.6951  0.0188  0.9268
  117MOL0     C15355   2.919  -0.223   6.194 -0.1667 -0.2243  0.2195
  117MOL0    Cl15356   2.940  -0.379   6.262 -0.1310  0.0423 -0.2601
  117MOL0     C15357   3.879   0.213   6.476  0.2754 -0.6823 -0.0249
  117MOL0     C15358   4.007   0.266   6.453 -0.2164  0.5682  0.1997
  117MOL0     O15359   4.243   0.385   6.598  0.3649  0.6885  0.0347
  117MOL0     C15360   4.510   0.454   6.571  0.6776 -0.1875 -0.3269
  117MOL0     C15361   4.643   0.476   6.549 -0.7143 -0.0686 -0.2582
  117MOL0     N15362   5.295   0.459   6.221  0.4294 -0.4663  0.2202
  117MOL0     N15363   5.352   0.540   6.136 -0.0330  0.0263  0.2055
  117MOL0     C15364   6.379   1.022   5.534 -0.4839  0.1903  0.0182
  117MOL0     C15365   6.446   1.006   5.415 -0.4803  0.2474 -0.0003
  117MOL0     C15366   6.810   1.051   5.138  0.1814  0.0066  0.5326
  117MOL0     C15367   6.900   1.155   5.108  0.4329 -0.4745 -0.0421
  117MOL0     C15368   6.984   1.157   4.999  0.1475 -0.1549 -0.1246
  117MOL0     C15369   6.985   1.054   4.910  0.2174  1.2903 -0.5671
  117MOL0     O15370   7.076   1.042   4.808 -0.0191  0.7327  0.6115
  117MOL0     C15371   7.174   0.934   4.806  0.9180  0.3062  0.4222
  117MOL0     C15372   7.269   0.956   4.929 -1.0398  0.7474 -0.7462
  117MOL0     C15373   7.400   0.882   4.909  0.0648  0.7859  0.1289
  117MOL0     C15374   7.508   0.890   5.024 -1.0182  0.3018 -0.3502
  117MOL0     C15375   7.472   0.840   5.155  0.3709  0.1986  0.2185
  117MOL0     C15376   7.437   0.792   5.259 -0.3684 -0.8356 -0.4929
  117MOL0     C15377   6.892   0.949   4.935 -0.3964 -0.3939 -0.0309
  117MOL0     C15378   6.806   0.946   5.047 -0.4593  0.8648  0.3920
  117MOL0     H15379   6.742   0.907   5.541 -0.3417 -0.2488  2.2178
  117MOL0     H15380   6.615   0.918   5.739  1.5408 -3.6147 -1.3642
  117MOL0     H15381   6.347   0.960   5.957  0.3077  0.3560 -0.2776
  117MOL0     H15382   6.343   0.827   5.830 -1.9350  0.0770 -2.4990
  117MOL0     H15383   6.126   0.943   5.751 -0.7219  0.4253  0.7097
  117MOL0     H15384   6.145   1.052   5.889  0.5965  0.6606  0.7193
  117MOL0     H15385   6.148   0.831   6.040 -0.5228 -1.6522  0.4870
  117MOL0     H15386   6.117   0.746   5.888 -3.4848 -0.8531  0.0669
  117MOL0     H15387   5.940   0.965   5.982 -3.1908  1.2929 -6.3644
  117MOL0     H15388   5.918   0.861   5.847 -1.2372 -0.0840  0.9012
  117MOL0     H15389   5.926   0.766   6.138  0.5754 -4.6430 -0.6615
  117MOL0     H15390   5.912   0.658   6.016 -0.5379 -0.6382  2.3720
  117MOL0     H15391   5.708   0.790   5.942  0.5987 -0.9268 -1.0593
  117MOL0     H15392   5.740   0.891   6.101  0.0430 -0.1413  0.3576
  117MOL0     H15393   5.678   0.600   6.075 -1.2186  0.0416  0.9588
  117MOL0     H15394   5.711   0.699   6.225  2.3686  3.5650 -1.7513
  117MOL0     H15395   5.481   0.724   6.036  2.2928 -0.4494 -1.0235
  117MOL0     H15396   5.503   0.812   6.195 -1.2635 -0.6608  0.8703
  117MOL0     H15397   5.491   0.632   6.411 -0.7579  1.4850 -0.1768
  117MOL0     H15398   5.335   0.513   6.544  4.2433  2.0565 -4.5594
  117MOL0     H15399   5.330   0.336   6.488  2.2868 -1.1512 -2.6363
  117MOL0     H15400   5.112   0.373   6.565 -0.2785 -2.0765 -1.6902
  117MOL0     H15401   5.112   0.364   6.388  1.8765 -0.9004 -0.0113
  117MOL0     H15402   5.122   0.625   6.531 -1.3079  0.5925  0.5428
  117MOL0     H15403   5.088   0.588   6.355  2.4000 -1.5693 -0.2129
  117MOL0     H15404   4.880   0.624   6.476  0.0380  0.2225  1.9964
  117MOL0     H15405   4.919   0.507   6.608 -1.8413  0.7596  0.4225
  117MOL0     H15406   4.689   0.294   6.268  0.9032  1.4162 -0.3960
  117MOL0     H15407   4.452   0.280   6.284  1.7156  0.5613 -1.0643
  117MOL0     H15408   4.215  -0.001   6.437 -0.5484 -1.2564  0.6217
  117MOL0     H15409   3.988  -0.113   6.454 -1.4608  0.1198 -1.1570
  117MOL0     H15410   3.572   0.022   6.334 -0.2261 -0.1383 -0.4741
  117MOL0     H15411   3.636   0.178   6.348 -0.0749 -0.1977 -0.1056
  117MOL0     H15412   3.560   0.178   6.582  0.5001  0.8511 -1.3952
  117MOL0     H15413   3.521  -0.007   6.574  1.7870  1.8224  3.6058
  117MOL0     H15414   3.383   0.173   6.382  0.7636 -1.6658 -1.3878
  117MOL0     H15415   3.326   0.173   6.539 -0.0242 -0.6370 -1.6150
  117MOL0     H15416   3.373  -0.063   6.333  0.3768 -1.0600  1.3716
  117MOL0     H15417   3.332  -0.110   6.496 -1.4873  1.1431  3.1610
  117MOL0     H15418   3.144   0.080   6.326 -2.3726 -0.5160 -1.1488
  117MOL0     H15419   3.110   0.009   6.482 -1.0684 -1.4749 -0.4496
  117MOL0     H15420   3.110  -0.212   6.408  0.7608 -0.3678 -0.5595
  117MOL0     H15421   3.181  -0.158   6.260  0.1450 -0.1511  0.7697
  117MOL0     H15422   2.888  -0.109   6.364 -0.5656 -0.9990 -0.2171
  117MOL0     H15423   2.943  -0.018   6.245 -0.6481  0.3323  2.2917
  117MOL0     H15424   2.972  -0.207   6.100  1.7450 -1.7538  0.9643
  117MOL0     H15425   2.813  -0.204   6.174 -0.0076  2.6108  1.5182
  117MOL0     H15426   3.782   0.261   6.480  0.3845 -0.1624 -2.0857
  117MOL0     H15427   4.017   0.374   6.439  0.6078  1.0150  3.3647
  117MOL0     H15428   4.458   0.506   6.651 -0.6420 -1.6199 -0.2083
  117MOL0     H15429   4.707   0.539   6.610 -0.1619 -0.7556 -0.1235
  117MOL0     H15430   6.282   1.071   5.538 -0.3316  0.6580 -1.2823
  117MOL0     H15431   6.392   1.026   5.323 -0.4280 -0.1064 -0.1089
  117MOL0     H15432   6.889   1.235   5.181  0.8749  0.0013 -0.4924
  117MOL0     H15433   7.050   1.243   4.997 -1.9414  1.5496 -2.9340
  117MOL0     H15434   7.241   0.958   4.723  1.6235  0.7500  1.0941
  117MOL0     H15435   7.132   0.833   4.800  1.4342 -0.0598  2.2600
  117MOL0     H15436   7.276   1.062   4.953 -1.9474  0.2937  1.8980
  117MOL0     H15437   7.218   0.913   5.016 -1.9317  3.1883  0.0058
  117MOL0     H15438   7.438   0.919   4.814 -2.2482  0.6724 -0.8965
  117MOL0     H15439   7.380   0.775   4.899  2.0486  0.4690 -0.9118
  117MOL0     H15440   7.607   0.854   4.993 -0.7688 -0.6552  1.4387
  117MOL0     H15441   7.528   0.997   5.031 -0.7503  0.2631 -0.4859
  117MOL0     H15442   7.383   0.761   5.347 -0.6082  0.9634  0.0318
  117MOL0     H15443   6.896   0.879   4.852  3.6775  0.8896 -1.1684
  117MOL0     H15444   6.737   0.862   5.051 -0.2310  0.7064  1.1939
  118MOL0     O15445   3.645   5.993   3.711  0.3747  0.2771 -0.7124
  118MOL0     C15446   3.711   6.089   3.727  0.1158  0.3546 -0.5831
  118MOL0     O15447   3.683   6.196   3.803  0.1525  0.0845 -0.0048
  118MOL0     C15448   3.589   6.199   3.904 -0.2099 -0.9746 -1.2459
  118MOL0     C15449   3.546   6.314   3.956 -0.0187  0.0280 -0.2403
  118MOL0     C15450   3.444   6.333   4.052 -0.3162 -0.2186  0.6941
  118MOL0     C15451   3.388   6.213   4.099  0.1219 -0.1577  0.1181
  118MOL0     O15452   3.304   6.241   4.205 -0.0967 -0.2670 -0.0393
  118MOL0     C15453   3.203   6.146   4.242 -0.8120 -0.3022 -0.0741
  118MOL0     C15454   3.091   6.218   4.308 -0.6623  0.5750  0.1275
  118MOL0     C15455   2.959   6.128   4.318  0.3380 -0.6908 -0.4056
  118MOL0     C15456   2.953   6.026   4.434 -0.0165 -0.0944  0.5082
  118MOL0     C15457   2.819   5.951   4.441  0.5257  0.4534  0.4353
  118MOL0     C15458   2.827   5.856   4.558 -0.7673 -0.0750 -0.5269
  118MOL0     C15459   2.922   5.735   4.535  0.5694 -0.6951 -0.2815
  118MOL0     C15460   3.037   5.718   4.626 -0.0362 -0.5824 -0.4677
  118MOL0     N15461   2.996   5.662   4.758 -0.1349 -0.9098  0.2456
  118MOL0     C15462   3.033   5.702   4.886  0.5321  0.1687 -0.2668
  118MOL0     C15463   2.975   5.622   4.973  0.2702  0.5849  0.5178
  118MOL0     C15464   2.996   5.636   5.120  0.2509  0.0374 -0.3318
  118MOL0     C15465   2.925   5.761   5.169  0.3073  0.0003  0.5112
  118MOL0     C15466   2.889   5.757   5.316  0.2222  1.1070 -0.5189
  118MOL0     C15467   3.015   5.743   5.400  0.4293  0.6902 -0.9838
  118MOL0     O15468   2.992   5.748   5.545  0.0588  0.1987 -0.2155
  118MOL0     C15469   2.937   5.650   5.615  0.8770  0.2433  0.1573
  118MOL0     C15470   2.914   5.667   5.749  0.3934  0.3455  0.2633
  118MOL0     C15471   2.833   5.571   5.815  0.5396  0.3728  0.3775
  118MOL0     C15472   2.787   5.443   5.758  0.6240 -0.2584  1.0260
  118MOL0     C15473   2.680   5.366   5.822 -1.6597  0.4834 -0.4898
  118MOL0     O15474   2.651   5.394   5.949 -0.6432 -0.1543 -0.6309
  118MOL0     C15475   2.538   5.332   6.010  0.4620 -0.6607  0.3748
  118MOL0     C15476   2.520   5.191   6.021  0.0176  0.7235 -0.2321
  118MOL0     C15477   2.397   5.137   6.068  0.1069  0.4928  0.6213
  118MOL0     C15478   2.290   5.215   6.101  0.1451 -0.1664  0.6674
  118MOL0     O15479   2.177   5.149   6.138 -0.3410  0.0556  1.0554
  118MOL0     C15480   2.119   5.080   6.025 -0.6163  0.1870 -0.1093
  118MOL0     C15481   1.979   5.053   6.067  0.8433 -0.2849  0.1922
  118MOL0     C15482   1.882   5.043   5.946  0.5121  0.9373  0.5321
  118MOL0     C15483   1.735   5.024   6.000  0.3620 -0.2408 -0.4279
  118MOL0     C15484   1.657   4.945   5.888  0.1812  0.3975  0.7294
  118MOL0     C15485   1.505   4.925   5.927  0.0806 -0.0317 -0.1891
  118MOL0     C15486   1.409   4.919   5.818  0.9425 -0.2053  0.0938
  118MOL0     C15487   1.291   4.818   5.832 -0.1002 -0.4678 -0.2420
  118MOL0    Cl15488   1.348   4.659   5.869  0.3793 -0.0638  0.3393
  118MOL0     C15489   2.307   5.357   6.094 -0.4268 -0.4287 -0.0470
  118MOL0     C15490   2.430   5.411   6.044 -0.4328  0.2079 -0.0065
  118MOL0     O15491   2.647   5.266   5.758 -0.4680  0.0868 -0.0047
  118MOL0     C15492   2.824   5.424   5.629 -0.0469  1.0281  0.9596
  118MOL0     C15493   2.888   5.526   5.561 -0.2310 -0.3730  0.9727
  118MOL0     N15494   2.913   5.522   4.902  0.0593 -0.0533 -0.0319
  118MOL0     N15495   2.931   5.548   4.776 -0.0329  0.1784  0.0882
  118MOL0     C15496   3.437   6.085   4.063 -0.0696 -0.0466 -0.3278
  118MOL0     C15497   3.535   6.084   3.963 -0.4919 -0.1947 -0.0903
  118MOL0     C15498   3.844   6.101   3.651  0.1915  1.0056 -0.7594
  118MOL0     C15499   3.925   6.206   3.673 -0.4245 -0.2031 -1.1527
  118MOL0     C15500   4.035   6.223   3.594  0.6001  0.7794 -0.4391
  118MOL0     C15501   4.064   6.130   3.497 -0.0457 -0.0702  0.0777
  118MOL0     O15502   4.164   6.143   3.406  0.1474 -0.5792 -0.6140
  118MOL0     C15503   4.273   6.223   3.446 -0.7310 -0.5971 -0.1164
  118MOL0     C15504   4.388   6.198   3.346 -0.1373  0.5776  1.1192
  118MOL0     C15505   4.476   6.319   3.338 -0.0324 -0.9014  0.5849
  118MOL0     C15506   4.556   6.316   3.205  0.1169 -0.0192 -0.6909
  118MOL0     C15507   4.627   6.435   3.196 -0.5837  0.1742 -0.3204
  118MOL0     C15508   4.697   6.539   3.184  0.3908 -0.3705 -0.1132
  118MOL0     C15509   3.976   6.026   3.480 -0.4798 -0.1153  0.8447
  118MOL0     C15510   3.871   6.005   3.553 -0.0292  0.2030  0.3485
  118MOL0     H15511   3.604   6.404   3.938  2.0005 -0.4466  3.0844
  118MOL0     H15512   3.411   6.432   4.081  0.6280  0.7812 -1.3889
  118MOL0     H15513   3.247   6.069   4.305 -2.8932 -2.2066 -0.8226
  118MOL0     H15514   3.172   6.100   4.148  1.6349  0.4829 -1.3341
  118MOL0     H15515   3.077   6.305   4.243  2.5603  1.2845  0.2505
  118MOL0     H15516   3.121   6.255   4.407 -1.0400 -1.4199  1.0320
  118MOL0     H15517   2.943   6.069   4.228 -0.0566 -2.1352  0.5676
  118MOL0     H15518   2.873   6.192   4.335  0.3534 -1.1434  1.6913
  118MOL0     H15519   3.040   5.960   4.419  0.5114  0.4856  0.9670
  118MOL0     H15520   2.975   6.068   4.532 -0.7119  0.6453  0.3479
  118MOL0     H15521   2.795   5.896   4.349  0.8360 -0.2787  0.7826
  118MOL0     H15522   2.738   6.022   4.461 -0.0306 -0.0414  0.0025
  118MOL0     H15523   2.727   5.816   4.577 -1.0816 -0.3913 -2.6479
  118MOL0     H15524   2.854   5.915   4.646  0.3066  1.4128 -1.8009
  118MOL0     H15525   2.852   5.651   4.540 -1.7647  0.9080 -2.9239
  118MOL0     H15526   2.971   5.734   4.437  0.4772  1.2465 -0.3828
  118MOL0     H15527   3.080   5.818   4.638 -2.9378  0.8080 -0.6478
  118MOL0     H15528   3.108   5.654   4.573 -2.5193 -1.3656 -3.1296
  118MOL0     H15529   3.096   5.786   4.916  1.4356 -0.3541 -0.6531
  118MOL0     H15530   3.104   5.646   5.131  0.1922 -0.1134  0.4531
  118MOL0     H15531   2.966   5.545   5.174  2.4982 -0.2817  0.4840
  118MOL0     H15532   2.834   5.775   5.109  1.0444  1.4070 -0.3428
  118MOL0     H15533   2.991   5.842   5.138  0.1830  0.4208  1.3068
  118MOL0     H15534   2.853   5.857   5.341  0.9185  0.7974  1.9715
  118MOL0     H15535   2.806   5.692   5.344 -0.0938  2.1711  1.1433
  118MOL0     H15536   3.094   5.810   5.366  0.5068 -0.2788 -2.8525
  118MOL0     H15537   3.050   5.641   5.379 -1.4855  0.1115 -1.6380
  118MOL0     H15538   2.948   5.762   5.790  0.6707  0.4988 -0.2988
  118MOL0     H15539   2.802   5.589   5.917 -2.6060 -1.2717 -0.1682
  118MOL0     H15540   2.613   5.137   6.002 -0.5104  0.6708 -2.9876
  118MOL0     H15541   2.399   5.031   6.094 -3.2106  0.3507  0.7358
  118MOL0     H15542   2.174   4.993   5.988 -2.0432  0.2259 -2.5273
  118MOL0     H15543   2.123   5.134   5.930  1.3223 -4.1443 -2.8353
  118MOL0     H15544   1.935   5.142   6.114 -5.6755 -1.3349 -2.8612
  118MOL0     H15545   1.977   4.963   6.128  1.8854 -0.6877 -0.3416
  118MOL0     H15546   1.901   4.966   5.871 -0.9555  0.9112  0.1633
  118MOL0     H15547   1.885   5.142   5.899  2.5745  1.1135  0.9516
  118MOL0     H15548   1.746   4.970   6.095  2.9345  0.5627 -0.1923
  118MOL0     H15549   1.694   5.123   6.020  3.0219  0.7259  0.7799
  118MOL0     H15550   1.701   4.846   5.874  1.2395  0.9942 -0.4513
  118MOL0     H15551   1.668   5.007   5.798  0.1212 -0.7732 -0.1005
  118MOL0     H15552   1.479   4.993   6.008 -0.1706  0.9538 -1.0836
  118MOL0     H15553   1.509   4.826   5.974 -0.4779 -0.8114 -1.6945
  118MOL0     H15554   1.356   5.015   5.815  1.3578  0.0431  0.4739
  118MOL0     H15555   1.462   4.903   5.723  1.5518 -2.4465  0.7457
  118MOL0     H15556   1.238   4.807   5.737 -2.6118  1.4325  0.8203
  118MOL0     H15557   1.228   4.855   5.914 -1.3282 -1.9799 -0.4703
  118MOL0     H15558   2.229   5.424   6.128 -1.8031 -1.9689  0.0005
  118MOL0     H15559   2.450   5.517   6.053 -2.0929  0.3821  2.8072
  118MOL0     H15560   2.783   5.337   5.579 -1.2400  1.8592  0.4480
  118MOL0     H15561   2.891   5.501   5.455 -0.2237  0.3333  0.8045
  118MOL0     H15562   3.396   5.998   4.113 -0.9740  0.9266  0.6858
  118MOL0     H15563   3.580   5.992   3.928  0.7647  0.2781  0.2401
  118MOL0     H15564   3.905   6.272   3.757  0.5173 -1.1056 -0.1875
  118MOL0     H15565   4.090   6.315   3.611  1.1139  0.0750  2.1505
  118MOL0     H15566   4.311   6.206   3.548  0.5311  0.7847 -0.3270
  118MOL0     H15567   4.250   6.329   3.444 -3.2946 -1.0033  1.9492
  118MOL0     H15568   4.464   6.124   3.374  0.8879  1.9265  1.9815
  118MOL0     H15569   4.346   6.183   3.245  3.3258  0.1915 -0.3940
  118MOL0     H15570   4.554   6.321   3.415  3.4968  0.7671 -2.6854
  118MOL0     H15571   4.426   6.415   3.349  1.8081 -0.1101  2.8628
  118MOL0     H15572   4.621   6.228   3.209  2.9385  1.8677 -1.9542
  118MOL0     H15573   4.481   6.311   3.125 -0.7199 -0.6677  0.1005
  118MOL0     H15574   4.743   6.635   3.171 -0.3399  0.0313  0.2236
  118MOL0     H15575   3.978   5.947   3.405 -3.0133 -0.0584  0.6136
  118MOL0     H15576   3.800   5.927   3.528 -3.1446  2.8796  0.2102
  119MOL0     O15577   2.465   6.693   2.536 -0.2142  0.4989  0.7779
  119MOL0     C15578   2.553   6.779   2.518  0.4015  0.5401  0.1109
  119MOL0     O15579   2.680   6.763   2.557  0.0089  0.4967 -0.0923
  119MOL0     C15580   2.724   6.634   2.588  0.7355  0.5420  0.4151
  119MOL0     C15581   2.729   6.540   2.494  0.2321  0.3106  0.2756
  119MOL0     C15582   2.774   6.404   2.529 -0.2860 -0.6863 -0.1091
  119MOL0     C15583   2.823   6.378   2.658  0.4408  0.0595 -0.6458
  119MOL0     O15584   2.844   6.255   2.716 -0.3997 -0.4785 -0.5573
  119MOL0     C15585   2.776   6.145   2.662  0.5867  0.8049 -0.3975
  119MOL0     C15586   2.794   6.013   2.742  0.7646  0.0436 -1.1372
  119MOL0     C15587   2.947   5.974   2.759 -0.6900  0.4202  0.0226
  119MOL0     C15588   2.968   5.827   2.798 -0.1273  0.0200  0.0478
  119MOL0     C15589   3.114   5.808   2.808 -0.3906  0.6554 -0.2501
  119MOL0     C15590   3.156   5.662   2.838  0.6385 -0.6972  0.6144
  119MOL0     C15591   3.099   5.625   2.977  0.5753  0.4606  0.0776
  119MOL0     C15592   3.145   5.488   3.026 -0.2677  0.1225 -0.0603
  119MOL0     N15593   3.103   5.370   2.950 -0.2187 -0.0968 -0.1105
  119MOL0     C15594   2.975   5.337   2.926 -0.4918  0.2693 -1.2990
  119MOL0     C15595   2.986   5.237   2.831  0.7006 -1.0617  1.1637
  119MOL0     C15596   2.870   5.181   2.742 -0.4743  0.7423  0.2477
  119MOL0     C15597   2.803   5.067   2.803 -0.2203  0.5530  0.1854
  119MOL0     C15598   2.901   4.959   2.846  0.1650  0.4584  0.0587
  119MOL0     C15599   2.825   4.828   2.858 -0.0381 -0.3387  0.4606
  119MOL0     O15600   2.727   4.832   2.963 -0.4996  0.1654  0.3558
  119MOL0     C15601   2.624   4.736   2.958  0.8484  0.3869 -0.0226
  119MOL0     C15602   2.626   4.620   2.875 -0.9093  0.2508 -0.2334
  119MOL0     C15603   2.521   4.528   2.891  0.3768  0.7272  0.1915
  119MOL0     C15604   2.413   4.548   2.975 -0.0540 -0.0676 -0.1364
  119MOL0     C15605   2.297   4.447   2.997  0.2338 -0.0672  0.2612
  119MOL0     O15606   2.210   4.478   3.101 -0.1851 -0.5830 -0.0617
  119MOL0     C15607   2.096   4.410   3.115 -0.3842  0.0027  0.0182
  119MOL0     C15608   2.009   4.404   3.015  0.2874  0.4075 -0.4413
  119MOL0     C15609   1.885   4.341   3.031 -0.2682 -1.0622 -0.6385
  119MOL0     C15610   1.850   4.285   3.158  0.5203  1.1466 -1.3131
  119MOL0     O15611   1.726   4.221   3.171  0.6548  0.6546  0.0474
  119MOL0     C15612   1.659   4.249   3.296 -0.7319 -0.0782  0.0184
  119MOL0     C15613   1.565   4.133   3.337  0.1064 -0.6541 -0.2084
  119MOL0     C15614   1.444   4.118   3.238  0.3638  0.5638 -0.5951
  119MOL0     C15615   1.356   4.001   3.285 -0.5414 -0.5733 -0.4124
  119MOL0     C15616   1.214   3.990   3.211  0.4972  0.0174 -1.0509
  119MOL0     C15617   1.117   3.886   3.283  0.3533 -0.2554 -0.2322
  119MOL0     C15618   1.015   3.852   3.185 -0.6382 -0.5371 -0.2349
  119MOL0     C15619   0.927   3.740   3.239 -0.2044  0.2196 -0.5834
  119MOL0    Cl15620   0.785   3.713   3.119  0.3941 -0.2959 -0.3629
  119MOL0     C15621   1.950   4.295   3.260  0.2683 -0.6763 -0.2184
  119MOL0     C15622   2.074   4.352   3.241  0.4942  0.2676 -0.5526
  119MOL0     O15623   2.296   4.337   2.937 -0.1233 -0.3207 -0.0142
  119MOL0     C15624   2.398   4.667   3.039 -1.1939 -1.1596 -0.3315
  119MOL0     C15625   2.504   4.757   3.031 -0.5277  0.0764 -0.6686
  119MOL0     N15626   3.113   5.201   2.816  0.4022  0.4496  0.5603
  119MOL0     N15627   3.183   5.275   2.894  0.7887  0.6384  0.2124
  119MOL0     C15628   2.840   6.484   2.743  0.2401 -0.6884 -0.0782
  119MOL0     C15629   2.781   6.606   2.706 -0.1301 -0.7315  0.9380
  119MOL0     C15630   2.521   6.903   2.437  0.3458 -0.5021  0.0732
  119MOL0     C15631   2.632   6.972   2.373  0.1313 -0.1459 -0.3700
  119MOL0     C15632   2.611   7.094   2.315  0.1888  0.2259 -0.2084
  119MOL0     C15633   2.477   7.149   2.312  0.7945 -0.4032  0.0945
  119MOL0     O15634   2.450   7.276   2.256  0.4335  1.1352 -0.3371
  119MOL0     C15635   2.542   7.321   2.159 -0.7280 -0.2405 -0.2925
  119MOL0     C15636   2.477   7.439   2.089 -0.9331 -0.3821 -0.0221
  119MOL0     C15637   2.452   7.561   2.182  0.3884  0.1402  0.0350
  119MOL0     C15638   2.406   7.686   2.099  0.5575  0.1944  0.0307
  119MOL0     C15639   2.307   7.761   2.173 -1.3451  0.7690  0.5674
  119MOL0     C15640   2.232   7.825   2.245 -0.4418  0.6900 -0.3585
  119MOL0     C15641   2.374   7.075   2.370  0.4888  0.0162 -0.5675
  119MOL0     C15642   2.394   6.956   2.438  0.5938 -0.1684  0.8120
  119MOL0     H15643   2.714   6.565   2.389 -3.5260  1.4091  0.9333
  119MOL0     H15644   2.776   6.327   2.453  0.8686 -1.0736  0.2824
  119MOL0     H15645   2.816   6.123   2.562 -1.7712  0.4802 -1.3398
  119MOL0     H15646   2.668   6.164   2.658 -0.0448 -1.7875  1.7886
  119MOL0     H15647   2.752   5.931   2.683 -0.4738  0.2276 -0.5459
  119MOL0     H15648   2.740   6.024   2.837  2.4713  0.3469 -0.1606
  119MOL0     H15649   3.003   6.039   2.827  0.2697  0.0856 -0.4413
  119MOL0     H15650   2.987   5.984   2.658  1.5418  2.3705  1.0208
  119MOL0     H15651   2.905   5.790   2.879  1.7294 -1.7631  0.7699
  119MOL0     H15652   2.940   5.769   2.710  0.1241  2.0859 -1.4685
  119MOL0     H15653   3.149   5.876   2.886 -1.7237 -0.5762  1.4816
  119MOL0     H15654   3.170   5.836   2.718  0.8643  0.3822  0.4270
  119MOL0     H15655   3.265   5.656   2.826  0.7568  2.4159 -0.6717
  119MOL0     H15656   3.107   5.596   2.766 -0.7649 -0.2883  1.1687
  119MOL0     H15657   3.139   5.698   3.048  2.6910 -1.5874  1.1482
  119MOL0     H15658   2.990   5.618   2.969  0.5625  0.0408  0.5928
  119MOL0     H15659   3.124   5.461   3.130 -1.2684 -0.5235 -0.4178
  119MOL0     H15660   3.254   5.495   3.014 -0.2178 -1.3867 -0.6998
  119MOL0     H15661   2.890   5.397   2.957 -1.3346 -0.9817 -1.1185
  119MOL0     H15662   2.928   5.139   2.659 -0.5325 -0.9073  1.0023
  119MOL0     H15663   2.796   5.251   2.704 -1.5055  0.7588  2.1527
  119MOL0     H15664   2.729   5.027   2.733 -2.4457 -0.5799  3.0337
  119MOL0     H15665   2.751   5.099   2.893 -0.3125  0.1374  0.2804
  119MOL0     H15666   2.980   4.952   2.771 -0.5012  1.4030 -0.7645
  119MOL0     H15667   2.963   4.979   2.933 -0.1672 -0.3305  0.4860
  119MOL0     H15668   2.898   4.747   2.866  1.0627  0.0574 -3.4563
  119MOL0     H15669   2.762   4.806   2.772 -1.2089 -1.0243  1.4699
  119MOL0     H15670   2.704   4.596   2.803 -0.7668 -0.5998  0.1844
  119MOL0     H15671   2.519   4.434   2.837  1.3282 -0.3082  1.8731
  119MOL0     H15672   2.034   4.456   2.923 -0.8315  1.2822 -0.2653
  119MOL0     H15673   1.804   4.340   2.959  1.4277 -2.7097 -2.6495
  119MOL0     H15674   1.597   4.339   3.291 -0.0394  0.5007  1.2837
  119MOL0     H15675   1.723   4.268   3.382 -1.9635 -0.8503  1.1408
  119MOL0     H15676   1.527   4.159   3.437  3.1304  1.2364  0.5884
  119MOL0     H15677   1.617   4.037   3.341 -0.3428 -0.9060 -0.3464
  119MOL0     H15678   1.479   4.097   3.137  1.7070 -1.5774  0.2370
  119MOL0     H15679   1.383   4.209   3.236 -2.4111 -1.1649 -0.4711
  119MOL0     H15680   1.421   3.913   3.283  0.5447  0.1898  0.4929
  119MOL0     H15681   1.323   4.013   3.389  2.3271  2.2469  0.3191
  119MOL0     H15682   1.245   3.961   3.110  1.5923  0.6285 -0.9106
  119MOL0     H15683   1.163   4.087   3.203  0.3026  0.0223  0.1279
  119MOL0     H15684   1.068   3.937   3.367 -0.3601 -0.3592 -0.5802
  119MOL0     H15685   1.174   3.796   3.308  2.5326  0.4821 -2.2106
  119MOL0     H15686   0.960   3.943   3.162 -0.2406 -0.7124 -2.0702
  119MOL0     H15687   1.067   3.820   3.094  1.1995 -0.6934  0.8121
  119MOL0     H15688   0.877   3.749   3.336  0.9890 -2.2307  0.3381
  119MOL0     H15689   0.984   3.647   3.246 -0.5254 -0.0359 -1.1956
  119MOL0     H15690   1.940   4.242   3.354 -2.1956  0.1252  0.0365
  119MOL0     H15691   2.151   4.362   3.316  0.7445 -1.0344 -0.6205
  119MOL0     H15692   2.317   4.688   3.108 -1.2998 -1.4307 -0.3723
  119MOL0     H15693   2.496   4.850   3.088  1.5233  1.0138 -1.7949
  119MOL0     H15694   2.867   6.473   2.848  1.4433  0.3518 -0.2658
  119MOL0     H15695   2.763   6.686   2.778  0.1584 -0.0002  0.2136
  119MOL0     H15696   2.730   6.926   2.368  0.4753  0.6341 -1.1776
  119MOL0     H15697   2.688   7.149   2.262 -0.9938  0.5268 -1.6733
  119MOL0     H15698   2.557   7.241   2.087 -0.8268  1.5305 -2.3655
  119MOL0     H15699   2.636   7.351   2.207  1.0639 -1.4366 -2.8860
  119MOL0     H15700   2.544   7.466   2.006  1.2299  3.4794  2.6723
  119MOL0     H15701   2.382   7.412   2.042  0.1357 -1.6601 -1.5788
  119MOL0     H15702   2.548   7.584   2.230  1.7510 -3.3926 -0.6903
  119MOL0     H15703   2.384   7.536   2.264  1.8055 -0.9917  0.9257
  119MOL0     H15704   2.494   7.743   2.067 -0.3231  0.7621 -1.4432
  119MOL0     H15705   2.361   7.652   2.006  3.4886 -0.3085 -1.3143
  119MOL0     H15706   2.163   7.890   2.294 -1.0292  0.2360 -0.5744
  119MOL0     H15707   2.281   7.131   2.374  1.1117  1.0102  0.4690
  119MOL0     H15708   2.311   6.917   2.495 -0.6073 -1.7890 -1.8432
  120MOL0     O15709   4.966   3.128   4.686  0.5067 -0.4876  0.0740
  120MOL0     C15710   5.062   3.183   4.739 -0.6314 -0.0560  0.5926
  120MOL0     O15711   5.050   3.258   4.846  0.3665 -1.0063 -0.1747
  120MOL0     C15712   4.929   3.296   4.891  0.8397 -0.3227  0.1850
  120MOL0     C15713   4.871   3.267   5.016 -0.1384  0.2657  0.3527
  120MOL0     C15714   4.750   3.324   5.060 -0.8997  0.3246 -0.5408
  120MOL0     C15715   4.690   3.421   4.977 -0.8750  0.5612 -0.3119
  120MOL0     O15716   4.564   3.466   5.003 -0.4627  0.0273  0.0300
  120MOL0     C15717   4.528   3.487   5.140  0.0723  0.5641  0.0196
  120MOL0     C15718   4.428   3.392   5.203  0.0206  0.4251  0.7161
  120MOL0     C15719   4.311   3.369   5.108 -1.4710  0.2908 -0.0676
  120MOL0     C15720   4.201   3.275   5.161  0.2872 -0.6673  0.3166
  120MOL0     C15721   4.070   3.293   5.087 -0.1070 -0.4029  0.8774
  120MOL0     C15722   3.965   3.192   5.135  1.8177 -0.2066  0.9968
  120MOL0     C15723   3.818   3.227   5.096 -0.4737  0.5429  0.2021
  120MOL0     C15724   3.730   3.107   5.147  0.6426  0.4514 -0.0880
  120MOL0     N15725   3.595   3.120   5.088  0.3095 -0.7088  0.1439
  120MOL0     C15726   3.508   3.234   5.074  0.1956  0.1534  0.3601
  120MOL0     C15727   3.392   3.190   5.018 -0.1754 -1.2167 -0.8314
  120MOL0     C15728   3.279   3.281   4.992 -0.2011 -0.8463  0.1292
  120MOL0     C15729   3.143   3.221   4.976 -0.7877 -0.5256  0.2138
  120MOL0     C15730   3.036   3.301   4.912  0.3193 -0.1574 -0.3313
  120MOL0     C15731   3.064   3.345   4.768  0.5539 -0.5437  0.6754
  120MOL0     O15732   2.927   3.371   4.714  0.5159  0.4728  0.5252
  120MOL0     C15733   2.903   3.500   4.654  0.4212 -0.2747  0.1102
  120MOL0     C15734   2.992   3.613   4.655 -0.6251  0.1965  0.1737
  120MOL0     C15735   2.965   3.739   4.596 -0.3262 -0.9899  0.0467
  120MOL0     C15736   2.845   3.760   4.529  0.0105  0.3376 -0.1777
  120MOL0     C15737   2.813   3.897   4.469  0.2514  0.3549  0.2616
  120MOL0     O15738   2.921   3.983   4.446  0.9283 -0.4912 -0.1019
  120MOL0     C15739   2.894   4.111   4.402  1.0098  0.0502  0.2976
  120MOL0     C15740   2.789   4.159   4.309 -0.5427  0.3409  0.3888
  120MOL0     C15741   2.781   4.288   4.266 -0.0635 -0.3396  0.6909
  120MOL0     C15742   2.870   4.379   4.308 -1.0281 -0.2591 -0.0298
  120MOL0     O15743   2.863   4.501   4.248 -0.2108 -0.2049 -0.7342
  120MOL0     C15744   2.781   4.598   4.324  0.1021  0.4072  0.6779
  120MOL0     C15745   2.753   4.718   4.228 -0.9494 -0.2568 -0.4156
  120MOL0     C15746   2.680   4.686   4.100  0.2475 -0.2724  0.1528
  120MOL0     C15747   2.679   4.809   4.005 -0.5639  0.6342  0.0065
  120MOL0     C15748   2.626   4.781   3.868  0.4024  0.9675  1.0445
  120MOL0     C15749   2.726   4.729   3.769 -0.0885 -0.4100  0.1065
  120MOL0     C15750   2.671   4.766   3.637  0.7423 -0.0996  0.1457
  120MOL0     C15751   2.755   4.733   3.518  0.0485  0.6024 -0.3174
  120MOL0    Cl15752   2.729   4.560   3.480  0.4799  0.0687  0.5087
  120MOL0     C15753   2.973   4.350   4.394 -0.7821  0.7201 -0.3765
  120MOL0     C15754   2.982   4.216   4.437  0.5732  0.9715 -0.0303
  120MOL0     O15755   2.692   3.926   4.460 -0.1091 -0.0806  0.4470
  120MOL0     C15756   2.754   3.651   4.515 -0.3067 -0.1643 -0.4857
  120MOL0     C15757   2.789   3.527   4.579  1.2460 -0.2462 -0.7883
  120MOL0     N15758   3.415   3.059   4.982 -0.1068  0.0719 -0.5992
  120MOL0     N15759   3.523   3.016   5.039 -0.5643 -0.6796 -0.3334
  120MOL0     C15760   4.742   3.459   4.852 -0.7033 -0.6007  0.8913
  120MOL0     C15761   4.859   3.397   4.807  0.4776  0.1459 -0.0703
  120MOL0     C15762   5.195   3.165   4.663 -0.1972  0.3864 -0.1026
  120MOL0     C15763   5.288   3.266   4.687 -0.4430 -0.1871  0.1694
  120MOL0     C15764   5.393   3.286   4.599 -0.2528  0.2160 -0.3558
  120MOL0     C15765   5.425   3.200   4.497 -0.2089 -0.0713 -1.0146
  120MOL0     O15766   5.507   3.245   4.398  0.2366 -0.9987  0.0788
  120MOL0     C15767   5.582   3.153   4.319  0.1609 -0.0039  0.0178
  120MOL0     C15768   5.737   3.194   4.329 -0.1714 -0.8215 -0.5677
  120MOL0     C15769   5.831   3.107   4.254  0.1717  0.8644 -0.0310
  120MOL0     C15770   5.957   3.195   4.216  0.1784 -0.3526  0.3472
  120MOL0     C15771   6.058   3.121   4.141 -0.1927  0.4909  0.5694
  120MOL0     C15772   6.141   3.062   4.078  0.7269 -0.0367 -0.1769
  120MOL0     C15773   5.335   3.098   4.470 -0.3231  0.5139 -0.3768
  120MOL0     C15774   5.216   3.080   4.550 -0.3791 -0.6188 -0.2164
  120MOL0     H15775   4.909   3.186   5.078 -0.1956  1.4290  1.9471
  120MOL0     H15776   4.697   3.292   5.149 -2.6169  3.2950 -0.3751
  120MOL0     H15777   4.481   3.584   5.154  0.6162  1.4784 -3.4599
  120MOL0     H15778   4.610   3.504   5.211 -0.6045  1.2209  0.6610
  120MOL0     H15779   4.398   3.433   5.299  1.8872 -0.2355  1.6345
  120MOL0     H15780   4.478   3.297   5.224  1.5050  0.2721 -2.8374
  120MOL0     H15781   4.352   3.321   5.018  0.3709  1.4932  0.0657
  120MOL0     H15782   4.263   3.465   5.084 -0.6518  0.6262 -0.4046
  120MOL0     H15783   4.228   3.169   5.160 -0.1718 -0.7875 -0.3434
  120MOL0     H15784   4.175   3.319   5.258 -1.8779  3.0598 -1.7320
  120MOL0     H15785   4.084   3.276   4.980  1.1758 -0.8452  1.0947
  120MOL0     H15786   4.032   3.395   5.093 -3.4505 -1.5207  0.6356
  120MOL0     H15787   3.951   3.193   5.244 -2.4833  1.3472  0.6176
  120MOL0     H15788   3.988   3.092   5.097 -0.5342 -0.7066  0.7640
  120MOL0     H15789   3.773   3.322   5.125 -1.1378  0.4411 -0.4680
  120MOL0     H15790   3.818   3.239   4.987  2.2765  0.2719  0.1027
  120MOL0     H15791   3.710   3.114   5.254 -0.4148 -1.1971 -0.1366
  120MOL0     H15792   3.771   3.007   5.129  0.0954  0.3818 -1.0256
  120MOL0     H15793   3.528   3.337   5.100  3.6905 -0.7720  1.9749
  120MOL0     H15794   3.316   3.327   4.899  0.4298  0.1453  0.8413
  120MOL0     H15795   3.277   3.354   5.073 -0.7375 -1.2424  0.4784
  120MOL0     H15796   3.103   3.191   5.074 -1.1439  1.0378  0.5714
  120MOL0     H15797   3.158   3.125   4.925  1.0155 -0.3755  0.4098
  120MOL0     H15798   2.945   3.240   4.914  1.1767 -1.5889 -2.0989
  120MOL0     H15799   3.022   3.393   4.970  0.0986  0.3991 -1.2457
  120MOL0     H15800   3.114   3.258   4.722 -1.0049 -3.2178  3.6532
  120MOL0     H15801   3.132   3.430   4.774 -0.8922  0.5562  2.0731
  120MOL0     H15802   3.078   3.615   4.720 -1.1227  3.0132  0.8629
  120MOL0     H15803   3.038   3.819   4.606 -2.3719  0.8487  0.8149
  120MOL0     H15804   2.723   4.081   4.273 -1.5067  1.5938 -0.6568
  120MOL0     H15805   2.712   4.328   4.192  0.2062  1.0980  1.1797
  120MOL0     H15806   2.843   4.627   4.409  0.8171  3.1055 -0.6812
  120MOL0     H15807   2.678   4.571   4.349 -0.3550 -2.6888 -3.4670
  120MOL0     H15808   2.840   4.782   4.210 -3.5516  4.8246  2.6602
  120MOL0     H15809   2.683   4.779   4.286  1.1463  1.5627  0.3641
  120MOL0     H15810   2.577   4.653   4.116 -0.2287  1.5325  1.2266
  120MOL0     H15811   2.735   4.605   4.052 -1.8981 -1.4339 -0.4943
  120MOL0     H15812   2.616   4.885   4.052 -0.1636  0.7640  0.3375
  120MOL0     H15813   2.783   4.838   3.988 -0.6929  0.6636 -0.7828
  120MOL0     H15814   2.592   4.880   3.838  1.7505  1.1115 -0.0839
  120MOL0     H15815   2.540   4.714   3.874  1.7866 -0.7182  4.5260
  120MOL0     H15816   2.718   4.623   3.794  1.9803 -0.9573 -1.2581
  120MOL0     H15817   2.830   4.760   3.785 -0.0455  0.1352 -1.1115
  120MOL0     H15818   2.574   4.718   3.620  1.9649 -2.4364 -0.7217
  120MOL0     H15819   2.642   4.871   3.641 -1.9685 -0.8100  3.4603
  120MOL0     H15820   2.862   4.735   3.541 -0.0514 -1.8949  0.5783
  120MOL0     H15821   2.740   4.804   3.436  1.0681  0.4837 -0.6278
  120MOL0     H15822   3.055   4.418   4.416  2.5792 -1.8441 -3.6719
  120MOL0     H15823   3.072   4.182   4.486  1.1045  0.9457 -0.9901
  120MOL0     H15824   2.666   3.666   4.454  0.4705  0.1681 -1.5416
  120MOL0     H15825   2.713   3.449   4.585 -1.1626  2.0338  4.3094
  120MOL0     H15826   4.692   3.537   4.797  1.0911 -1.1000 -1.6457
  120MOL0     H15827   4.894   3.426   4.709  1.7889 -0.5786  0.1584
  120MOL0     H15828   5.283   3.321   4.780  2.5331  0.8368 -0.1726
  120MOL0     H15829   5.465   3.368   4.600 -1.0911  0.9630  0.4630
  120MOL0     H15830   5.541   3.159   4.218 -2.2189  0.4170  0.9330
  120MOL0     H15831   5.568   3.048   4.347 -0.8737  0.0334 -0.3259
  120MOL0     H15832   5.738   3.295   4.285  1.1247 -1.1882 -1.4415
  120MOL0     H15833   5.770   3.188   4.433 -1.6137  1.1111  0.0691
  120MOL0     H15834   5.782   3.064   4.166 -0.8618 -1.9030  1.7645
  120MOL0     H15835   5.864   3.024   4.317 -0.3325  0.4452 -0.3088
  120MOL0     H15836   5.923   3.283   4.160 -1.0356 -1.0224 -0.0207
  120MOL0     H15837   6.004   3.225   4.309  1.3148 -0.9520 -0.0187
  120MOL0     H15838   6.221   3.021   4.019  1.4169  1.0197  0.0075
  120MOL0     H15839   5.337   3.027   4.388  1.9818  0.9199 -0.7541
  120MOL0     H15840   5.139   3.004   4.543  0.1463 -1.5600  2.6952
  121MOL0     O15841   1.280  10.208  10.540  0.3751  0.1765  0.0769
  121MOL0     C15842   1.387  10.174  10.486 -0.3389  0.5739 -0.2517
  121MOL0     O15843   1.409  10.051  10.432  0.4286  0.3901  0.5179
  121MOL0     C15844   1.321   9.960  10.390 -0.4726  0.4215 -0.2637
  121MOL0     C15845   1.186   9.956  10.427  1.3330  0.0733 -1.0138
  121MOL0     C15846   1.100   9.849  10.381  0.1853 -0.8527  0.1921
  121MOL0     C15847   1.149   9.748  10.299  0.1396 -0.0519 -0.4646
  121MOL0     O15848   1.069   9.659  10.240  0.0023  0.8544  0.0294
  121MOL0     C15849   0.953   9.705  10.169 -0.1294  0.0902  0.1065
  121MOL0     C15850   0.825   9.701  10.257  0.3630 -0.0899 -0.5705
  121MOL0     C15851   0.680   9.709  10.184 -0.3837  0.1003  0.1901
  121MOL0     C15852   0.564   9.705  10.287 -0.8371 -0.0258  0.0735
  121MOL0     C15853   0.426   9.711  10.230 -0.8527  1.2592  0.4574
  121MOL0     C15854   0.392   9.625  10.104  0.3903 -0.6287  0.1425
  121MOL0     C15855   0.242   9.615  10.048 -0.4879 -0.0520 -1.0795
  121MOL0     C15856   0.145   9.528  10.134 -0.1317  0.0727  0.0722
  121MOL0     N15857   0.032   9.493  10.044 -0.6485  1.0556  0.1202
  121MOL0     C15858   0.012   9.368  10.003  0.2051  0.0827  0.4089
  121MOL0     C15859  -0.110   9.370   9.953  0.4561  0.4865 -0.1867
  121MOL0     C15860  -0.184   9.264   9.887  0.3415 -0.1141  0.4154
  121MOL0     C15861  -0.340   9.280   9.922  0.1544 -0.4328 -0.5110
  121MOL0     C15862  -0.440   9.204   9.835 -0.4550 -0.2830 -0.3459
  121MOL0     C15863  -0.575   9.191   9.899 -0.0383 -0.1124 -0.1234
  121MOL0     O15864  -0.651   9.314   9.875 -0.6479  0.0620  0.1752
  121MOL0     C15865  -0.751   9.295   9.783 -0.1070  0.0872 -0.4880
  121MOL0     C15866  -0.731   9.279   9.644 -0.7794 -0.1604  0.0020
  121MOL0     C15867  -0.836   9.260   9.556 -2.1206  0.9353  0.0152
  121MOL0     C15868  -0.964   9.244   9.597  0.4383 -0.0378 -0.8690
  121MOL0     C15869  -1.074   9.210   9.498  0.4072 -0.0179  0.1302
  121MOL0     O15870  -1.051   9.248   9.366  0.5085 -0.1491  0.4004
  121MOL0     C15871  -1.150   9.247   9.265 -0.1340  0.4809  0.0759
  121MOL0     C15872  -1.121   9.171   9.148 -0.2769  0.3204 -0.8765
  121MOL0     C15873  -1.206   9.176   9.040  0.8781 -0.1398  0.0378
  121MOL0     C15874  -1.311   9.270   9.033 -0.8533 -0.3621  0.6803
  121MOL0     O15875  -1.405   9.291   8.934  0.7230  0.2247 -0.3883
  121MOL0     C15876  -1.485   9.178   8.890  0.2268  0.1511 -0.7389
  121MOL0     C15877  -1.590   9.214   8.784  0.8063 -0.3679 -0.0636
  121MOL0     C15878  -1.677   9.339   8.831 -0.2830 -0.0165 -0.1809
  121MOL0     C15879  -1.774   9.295   8.942 -0.8940 -0.2241 -0.4577
  121MOL0     C15880  -1.883   9.398   8.963 -0.4577 -0.8810  0.0192
  121MOL0     C15881  -1.837   9.524   9.035 -0.1018 -1.1327  0.1657
  121MOL0     C15882  -1.755   9.513   9.168 -0.3950  0.4234  0.3475
  121MOL0     C15883  -1.726   9.644   9.217 -0.3189 -0.4045  1.3491
  121MOL0    Cl15884  -1.870   9.705   9.329 -0.0360  0.1055  0.2655
  121MOL0     C15885  -1.332   9.349   9.148  0.6745 -0.5600 -0.4910
  121MOL0     C15886  -1.255   9.339   9.263  0.5334 -0.0147 -0.5603
  121MOL0     O15887  -1.172   9.149   9.538  0.7555 -0.0908 -0.6678
  121MOL0     C15888  -0.977   9.231   9.743  0.1944  0.2435 -0.2875
  121MOL0     C15889  -0.874   9.268   9.829 -0.2763  0.3994 -0.2349
  121MOL0     N15890  -0.160   9.501   9.959 -0.1273 -0.4173  0.6048
  121MOL0     N15891  -0.072   9.578  10.020 -0.4159 -0.4006 -0.6370
  121MOL0     C15892   1.282   9.745  10.280  0.2282 -1.2751  1.0506
  121MOL0     C15893   1.370   9.849  10.322 -0.0844  0.1970 -0.3386
  121MOL0     C15894   1.499  10.265  10.515  0.0999  0.7558 -0.1208
  121MOL0     C15895   1.630  10.227  10.470 -0.0271  0.3249 -0.4276
  121MOL0     C15896   1.743  10.308  10.512  0.2491  0.3757  0.1025
  121MOL0     C15897   1.725  10.426  10.577 -0.5301 -0.4867 -0.4216
  121MOL0     O15898   1.841  10.488  10.621 -0.1661 -0.3562 -0.4796
  121MOL0     C15899   1.829  10.634  10.633 -0.2306 -0.1236 -0.1369
  121MOL0     C15900   1.939  10.697  10.714 -0.6533  0.9416 -0.2431
  121MOL0     C15901   2.071  10.702  10.632  0.0338 -0.6539 -0.2810
  121MOL0     C15902   2.182  10.760  10.721 -0.2046  0.0716 -0.8509
  121MOL0     C15903   2.314  10.723  10.669  0.0722 -0.5620 -0.3618
  121MOL0     C15904   2.431  10.697  10.644  0.2907 -0.3423 -0.9661
  121MOL0     C15905   1.589  10.481  10.590 -0.1780  0.4804 -0.9199
  121MOL0     C15906   1.483  10.391  10.571 -0.7538  0.6089  0.1937
  121MOL0     H15907   1.149  10.032  10.494 -4.0281 -2.6485 -0.3206
  121MOL0     H15908   0.996   9.874  10.401 -0.4190 -1.2379 -2.1028
  121MOL0     H15909   0.944   9.635  10.086  0.2195 -0.1356  0.2535
  121MOL0     H15910   0.969   9.799  10.116  1.8125  0.6062  1.4877
  121MOL0     H15911   0.832   9.775  10.338 -1.8038 -0.2323 -0.1882
  121MOL0     H15912   0.833   9.608  10.313  0.8031  0.9863  1.2518
  121MOL0     H15913   0.673   9.614  10.130  1.4633  1.2438 -2.2320
  121MOL0     H15914   0.667   9.787  10.109  1.5983  0.2599 -0.0318
  121MOL0     H15915   0.567   9.607  10.335  0.4232 -0.5566 -1.0452
  121MOL0     H15916   0.572   9.783  10.364 -2.7329 -0.4826  0.7907
  121MOL0     H15917   0.391   9.815  10.221  1.1880  1.9914  0.3990
  121MOL0     H15918   0.366   9.665  10.309  2.4933 -4.0305  0.4018
  121MOL0     H15919   0.417   9.519  10.119  3.0942 -0.1349 -0.3089
  121MOL0     H15920   0.456   9.668  10.026  0.4906  4.0562  2.5273
  121MOL0     H15921   0.195   9.714  10.041  0.2573  0.7056  2.5033
  121MOL0     H15922   0.250   9.560   9.954  1.6847 -0.8804 -0.4657
  121MOL0     H15923   0.101   9.588  10.214 -0.9823 -1.7520  1.0048
  121MOL0     H15924   0.189   9.434  10.166 -1.9538 -0.9407 -0.3126
  121MOL0     H15925   0.086   9.289  10.009  1.9323  1.7429  2.1991
  121MOL0     H15926  -0.164   9.161   9.918 -1.1476 -1.0467 -1.5045
  121MOL0     H15927  -0.176   9.280   9.779 -4.1073  3.5565  0.3202
  121MOL0     H15928  -0.380   9.382   9.920  0.1794 -0.1048  4.2806
  121MOL0     H15929  -0.357   9.240  10.023 -0.0433 -1.7629 -1.0534
  121MOL0     H15930  -0.459   9.254   9.740  0.0618 -1.4560 -1.0896
  121MOL0     H15931  -0.398   9.107   9.808  0.0720 -0.4331  0.9393
  121MOL0     H15932  -0.556   9.180  10.006  0.8033  0.6815 -0.1756
  121MOL0     H15933  -0.636   9.110   9.859 -0.2193 -1.0216  1.8743
  121MOL0     H15934  -0.631   9.309   9.613  0.4381 -0.5647  3.1528
  121MOL0     H15935  -0.792   9.255   9.457  1.1820 -2.9323  1.4026
  121MOL0     H15936  -1.041   9.098   9.146 -0.8990 -0.5254  1.4339
  121MOL0     H15937  -1.189   9.121   8.948  0.5208 -0.0783 -0.0647
  121MOL0     H15938  -1.546   9.138   8.971 -1.9388  0.1595 -2.2816
  121MOL0     H15939  -1.423   9.102   8.841  1.3707  1.0373 -0.6998
  121MOL0     H15940  -1.649   9.127   8.754  1.9128 -2.0480  2.3848
  121MOL0     H15941  -1.550   9.238   8.685 -1.1530 -0.3750 -0.9077
  121MOL0     H15942  -1.736   9.386   8.752 -4.4002  0.2665  2.7049
  121MOL0     H15943  -1.606   9.417   8.858  0.1929 -0.1616 -1.0035
  121MOL0     H15944  -1.822   9.210   8.894 -0.6617  0.2407 -1.5546
  121MOL0     H15945  -1.714   9.255   9.025  0.1570 -0.2154 -1.1867
  121MOL0     H15946  -1.951   9.355   9.037 -2.0089 -1.2259 -1.5510
  121MOL0     H15947  -1.938   9.414   8.870 -2.3722  2.3453  1.5336
  121MOL0     H15948  -1.920   9.589   9.067  0.6906 -0.8628  1.7707
  121MOL0     H15949  -1.776   9.579   8.963 -2.1217 -0.7824 -1.3970
  121MOL0     H15950  -1.811   9.457   9.242  0.0334  1.1079  1.2122
  121MOL0     H15951  -1.664   9.455   9.153 -1.2711 -1.5467  2.2592
  121MOL0     H15952  -1.704   9.716   9.138 -0.5302  0.3029  1.9239
  121MOL0     H15953  -1.631   9.633   9.270  1.4653 -4.0394 -2.0927
  121MOL0     H15954  -1.419   9.415   9.150 -1.7215 -3.5342 -0.1289
  121MOL0     H15955  -1.273   9.405   9.347 -1.3205 -1.5849  0.3735
  121MOL0     H15956  -1.061   9.184   9.795 -0.0186  0.4144 -0.4765
  121MOL0     H15957  -0.895   9.266   9.935 -0.9121  1.0293 -0.3416
  121MOL0     H15958   1.328   9.663  10.226  2.6850 -0.3692  1.6325
  121MOL0     H15959   1.478   9.845  10.320 -0.0536  0.6544  0.1385
  121MOL0     H15960   1.657  10.141  10.409 -0.3534  0.2573 -0.4818
  121MOL0     H15961   1.846  10.284  10.486 -0.1642 -1.4684 -0.0223
  121MOL0     H15962   1.744  10.669  10.692 -1.4524 -0.3241 -1.7216
  121MOL0     H15963   1.839  10.680  10.534 -0.7608 -2.0760 -1.1373
  121MOL0     H15964   1.894  10.792  10.746 -2.7171 -0.2718  0.6412
  121MOL0     H15965   1.954  10.649  10.811 -2.2883 -0.4442 -0.6354
  121MOL0     H15966   2.063  10.767  10.544 -1.6254  2.7406  2.1623
  121MOL0     H15967   2.107  10.602  10.605 -2.4620 -1.9275  0.7406
  121MOL0     H15968   2.169  10.867  10.738 -0.4148  0.1644 -1.5481
  121MOL0     H15969   2.175  10.713  10.820 -0.3557 -2.4525 -1.9866
  121MOL0     H15970   2.532  10.676  10.617  0.0273 -0.5022 -1.8641
  121MOL0     H15971   1.571  10.581  10.627  0.8086 -0.4189  2.2918
  121MOL0     H15972   1.387  10.432  10.600 -1.8310 -0.1842 -2.0393
  122MOL0     O15973   3.084   2.120   7.675 -0.7340 -0.4518  0.4689
  122MOL0     C15974   3.180   2.087   7.601 -0.2486 -0.8003  0.1606
  122MOL0     O15975   3.176   2.019   7.487  0.9210 -0.0153  0.7670
  122MOL0     C15976   3.067   1.934   7.450  0.1015 -0.2019 -0.8284
  122MOL0     C15977   2.942   1.985   7.398 -0.5728  0.0016  0.6156
  122MOL0     C15978   2.837   1.899   7.360 -0.5721  0.5595 -0.4456
  122MOL0     C15979   2.844   1.761   7.386  0.1992 -0.5476  0.3023
  122MOL0     O15980   2.745   1.675   7.363 -0.2053 -0.0587  0.8155
  122MOL0     C15981   2.631   1.675   7.451  0.1689  0.5023  0.7510
  122MOL0     C15982   2.517   1.712   7.346  0.2804 -0.4481 -1.4008
  122MOL0     C15983   2.386   1.680   7.421 -0.1340 -0.0377  0.0329
  122MOL0     C15984   2.271   1.776   7.370 -1.0042 -0.3211 -0.5199
  122MOL0     C15985   2.151   1.797   7.464 -1.1949 -0.8489 -0.7576
  122MOL0     C15986   2.077   1.662   7.491 -0.2611  0.6439  0.4510
  122MOL0     C15987   2.019   1.586   7.375  0.7469 -0.9538  0.1664
  122MOL0     C15988   2.015   1.435   7.415 -0.7024  0.8538 -0.2598
  122MOL0     N15989   1.919   1.415   7.522 -0.1298  0.9233 -0.6097
  122MOL0     C15990   1.955   1.419   7.655  0.5139 -0.7336  0.8603
  122MOL0     C15991   1.844   1.387   7.723 -0.2305  0.1866 -0.1197
  122MOL0     C15992   1.816   1.387   7.871  1.1008  0.7766  0.5440
  122MOL0     C15993   1.748   1.517   7.905 -0.0723  0.6919  0.2799
  122MOL0     C15994   1.671   1.502   8.039  0.0242  0.4211 -0.1807
  122MOL0     C15995   1.535   1.426   8.023  0.0288 -0.5341  0.8796
  122MOL0     O15996   1.468   1.419   8.150 -0.1465 -0.8554 -0.2802
  122MOL0     C15997   1.333   1.373   8.152 -0.0475 -0.1822 -0.4773
  122MOL0     C15998   1.266   1.329   8.036  0.1096 -0.3178 -1.4499
  122MOL0     C15999   1.145   1.271   8.047  0.3871  0.7914 -1.1756
  122MOL0     C16000   1.080   1.267   8.180 -1.1942 -0.3200  0.7169
  122MOL0     C16001   0.937   1.223   8.187 -0.7691 -0.3105 -0.7557
  122MOL0     O16002   0.872   1.278   8.290  0.2705 -0.6210 -0.5197
  122MOL0     C16003   0.747   1.229   8.333  0.0330  0.7330  0.0363
  122MOL0     C16004   0.681   1.106   8.315 -0.4620  0.1091  0.0587
  122MOL0     C16005   0.556   1.080   8.357  0.5573 -0.3969  0.4805
  122MOL0     C16006   0.493   1.170   8.431 -0.2138 -0.0788  0.1114
  122MOL0     O16007   0.364   1.143   8.473 -1.1332  0.6790  0.2709
  122MOL0     C16008   0.338   1.196   8.602  0.2931  0.3246 -0.6847
  122MOL0     C16009   0.200   1.169   8.651 -0.2146  0.9391  0.7388
  122MOL0     C16010   0.101   1.263   8.579  0.0979 -0.1236 -0.0482
  122MOL0     C16011   0.090   1.415   8.626 -0.4871  0.3323  0.6258
  122MOL0     C16012  -0.044   1.479   8.606  0.0008 -0.2314 -0.1232
  122MOL0     C16013  -0.083   1.493   8.458  0.2742  0.1380  0.1730
  122MOL0     C16014  -0.228   1.551   8.452  0.2052  0.8337  0.7462
  122MOL0     C16015  -0.285   1.561   8.309  0.1230  0.1753  0.4445
  122MOL0    Cl16016  -0.247   1.427   8.206  0.6333  0.1297  0.5929
  122MOL0     C16017   0.556   1.296   8.450  0.3209  0.1057  0.0193
  122MOL0     C16018   0.686   1.332   8.401  0.2107  0.4093  0.2012
  122MOL0     O16019   0.884   1.167   8.095  0.4151  0.2960  0.4649
  122MOL0     C16020   1.147   1.309   8.295 -0.3143  0.5796 -0.3177
  122MOL0     C16021   1.281   1.358   8.277  0.7657  0.0402  0.1743
  122MOL0     N16022   1.742   1.366   7.630 -0.1860  0.0629 -0.1905
  122MOL0     N16023   1.793   1.364   7.509  0.4237  0.3404  0.5082
  122MOL0     C16024   2.964   1.716   7.434  0.7135  0.0496  0.2582
  122MOL0     C16025   3.070   1.806   7.478  0.1133  0.6526 -0.0517
  122MOL0     C16026   3.309   2.119   7.644 -0.1781  0.4546  0.3875
  122MOL0     C16027   3.423   2.080   7.573  0.0985  0.6103 -0.1039
  122MOL0     C16028   3.545   2.117   7.620  0.0413  1.3495 -1.2661
  122MOL0     C16029   3.556   2.189   7.732 -0.4394  0.5344  0.0664
  122MOL0     O16030   3.687   2.213   7.763  0.7041  0.1360  0.4306
  122MOL0     C16031   3.728   2.275   7.885  0.2790  0.3390 -0.2542
  122MOL0     C16032   3.875   2.289   7.892 -0.0281 -0.2542 -0.2685
  122MOL0     C16033   3.930   2.397   7.804  0.1178  0.3595 -0.4180
  122MOL0     C16034   3.967   2.324   7.677  0.7792 -0.0285  0.2991
  122MOL0     C16035   4.046   2.404   7.589 -0.2695  0.3272  0.6494
  122MOL0     C16036   4.134   2.454   7.519  0.2424 -0.1764 -0.2253
  122MOL0     C16037   3.457   2.225   7.812 -0.3718 -0.7018  0.9803
  122MOL0     C16038   3.328   2.186   7.770 -0.2399  0.1062 -0.2015
  122MOL0     H16039   2.924   2.090   7.379 -1.2281 -0.0496  0.9300
  122MOL0     H16040   2.743   1.947   7.334 -0.1205  1.4257 -0.5021
  122MOL0     H16041   2.625   1.745   7.535  1.3772  1.1070  0.3630
  122MOL0     H16042   2.615   1.577   7.496 -2.0633  0.5280  0.1641
  122MOL0     H16043   2.537   1.659   7.253 -0.4664 -1.6043 -0.9238
  122MOL0     H16044   2.531   1.817   7.321  4.1420 -0.4634 -0.0060
  122MOL0     H16045   2.403   1.672   7.529 -3.0209  0.3671  0.5920
  122MOL0     H16046   2.354   1.579   7.392 -0.1193  0.3852 -1.5813
  122MOL0     H16047   2.311   1.877   7.356 -0.9006 -0.2788  0.0323
  122MOL0     H16048   2.249   1.743   7.268 -1.7616  1.7778 -1.0782
  122MOL0     H16049   2.084   1.867   7.414 -1.0839 -1.0826 -1.2463
  122MOL0     H16050   2.187   1.856   7.548 -0.4547  0.3938 -1.9143
  122MOL0     H16051   1.987   1.677   7.553 -0.6896  1.1635 -0.2887
  122MOL0     H16052   2.146   1.593   7.541 -2.2687 -1.0097  1.1120
  122MOL0     H16053   1.921   1.629   7.354  0.9907 -1.0200 -1.1916
  122MOL0     H16054   2.076   1.601   7.283  0.0475  1.0070 -0.0053
  122MOL0     H16055   2.112   1.406   7.455 -0.5304  0.9181 -0.6246
  122MOL0     H16056   1.997   1.378   7.323  0.9884  1.0294 -0.7283
  122MOL0     H16057   2.053   1.426   7.700  1.4061 -0.9903 -0.9530
  122MOL0     H16058   1.912   1.379   7.924  0.1563  1.9423  2.5508
  122MOL0     H16059   1.747   1.308   7.901 -1.5631  2.9687  0.5627
  122MOL0     H16060   1.681   1.539   7.822  0.3390 -0.9152 -0.5191
  122MOL0     H16061   1.823   1.596   7.909  0.8869  0.2085 -3.9613
  122MOL0     H16062   1.732   1.444   8.109 -2.7978  0.6615  2.7083
  122MOL0     H16063   1.658   1.599   8.090  1.2370 -0.6112  2.2427
  122MOL0     H16064   1.540   1.328   7.974 -0.7075 -0.7283  1.1739
  122MOL0     H16065   1.465   1.476   7.955 -0.4089 -1.5169  0.5812
  122MOL0     H16066   1.318   1.320   7.941  3.1430 -5.1787  0.2961
  122MOL0     H16067   1.092   1.235   7.960  1.4295 -0.3595 -1.3726
  122MOL0     H16068   0.735   1.037   8.250 -0.2094 -1.7061  2.0863
  122MOL0     H16069   0.500   0.988   8.341 -1.9173  1.4175 -2.2383
  122MOL0     H16070   0.346   1.305   8.609  2.1815  0.1284  2.0823
  122MOL0     H16071   0.408   1.149   8.673 -1.3700  0.7642  1.3427
  122MOL0     H16072   0.189   1.175   8.759 -2.4549  1.0809  0.5395
  122MOL0     H16073   0.175   1.067   8.621  0.8587  0.3155  1.8906
  122MOL0     H16074   0.001   1.220   8.584 -0.2722  0.7394  0.3215
  122MOL0     H16075   0.133   1.278   8.476  1.1528  3.5916  0.6473
  122MOL0     H16076   0.117   1.425   8.732  0.0090  0.4042  0.4955
  122MOL0     H16077   0.153   1.481   8.566 -2.5349  0.8877 -1.0195
  122MOL0     H16078  -0.048   1.566   8.673 -1.9124 -0.8699  0.6363
  122MOL0     H16079  -0.117   1.414   8.654  0.6793 -0.7980  0.1687
  122MOL0     H16080  -0.077   1.396   8.407 -0.7458 -1.3683  2.6744
  122MOL0     H16081  -0.009   1.557   8.410 -0.4780  2.1245  1.5545
  122MOL0     H16082  -0.309   1.488   8.491 -0.8138 -0.8156 -3.4855
  122MOL0     H16083  -0.233   1.649   8.502  3.9130  0.5812  1.9121
  122MOL0     H16084  -0.256   1.656   8.262 -0.3368 -0.7308 -1.7904
  122MOL0     H16085  -0.393   1.568   8.323  0.0746 -1.5333  1.1144
  122MOL0     H16086   0.518   1.384   8.501 -0.4234 -1.2230  1.8309
  122MOL0     H16087   0.734   1.428   8.419  3.3013 -1.2283  1.3077
  122MOL0     H16088   1.093   1.310   8.390 -1.7825  1.5886 -1.1285
  122MOL0     H16089   1.336   1.394   8.363  1.7473  1.7543 -1.1174
  122MOL0     H16090   2.969   1.608   7.449  2.1242  0.5052  4.3747
  122MOL0     H16091   3.164   1.768   7.515  0.2487  0.3273 -0.7077
  122MOL0     H16092   3.415   2.026   7.479 -2.2625  1.8886 -0.7196
  122MOL0     H16093   3.636   2.070   7.585  0.1037 -0.1599  0.7311
  122MOL0     H16094   3.696   2.217   7.973  1.6624 -0.3321 -0.1716
  122MOL0     H16095   3.695   2.379   7.894  2.1484  1.0984 -1.6434
  122MOL0     H16096   3.903   2.321   7.993  0.1477 -1.0071 -0.0727
  122MOL0     H16097   3.919   2.190   7.881 -1.2985 -0.7065 -1.5978
  122MOL0     H16098   4.020   2.445   7.843  0.5478 -0.2087 -0.6864
  122MOL0     H16099   3.860   2.478   7.783 -1.3196 -1.1975 -1.9317
  122MOL0     H16100   4.025   2.232   7.686  0.7788 -0.0152  0.4492
  122MOL0     H16101   3.873   2.299   7.627 -0.2255 -2.8210  3.2335
  122MOL0     H16102   4.217   2.512   7.483 -0.0973 -0.2965 -1.2445
  122MOL0     H16103   3.464   2.276   7.908  0.0094  3.6652 -1.1177
  122MOL0     H16104   3.237   2.207   7.825 -0.1933  0.0431 -0.0993
  123MOL0     O16105   8.617   7.105   9.310 -0.1565  0.1340  0.5191
  123MOL0     C16106   8.643   7.220   9.338 -1.3777  0.1410  0.0869
  123MOL0     O16107   8.763   7.254   9.395  0.2051  0.4835 -0.3957
  123MOL0     C16108   8.865   7.171   9.428  0.3110  0.5393  0.6097
  123MOL0     C16109   8.937   7.190   9.547  0.0905  1.2711 -0.6896
  123MOL0     C16110   9.044   7.108   9.577  0.5534  0.1303  0.0379
  123MOL0     C16111   9.089   7.003   9.487 -0.3965 -0.5848 -0.0115
  123MOL0     O16112   9.193   6.919   9.513  0.0934 -0.5387  0.1209
  123MOL0     C16113   9.295   6.967   9.602 -0.4985  0.3329 -0.2601
  123MOL0     C16114   9.421   6.899   9.575  0.3157  0.0222 -0.0741
  123MOL0     C16115   9.533   6.938   9.661  0.0428 -0.9855  0.0436
  123MOL0     C16116   9.655   6.846   9.659 -0.9881 -0.3579  0.0185
  123MOL0     C16117   9.782   6.937   9.689 -0.3715 -0.7723 -0.0589
  123MOL0     C16118   9.913   6.849   9.709  0.1448  0.0167 -0.6330
  123MOL0     C16119  10.014   6.931   9.796 -0.8182  0.3486 -0.2924
  123MOL0     C16120  10.161   6.879   9.805  0.8147  0.2341  0.0808
  123MOL0     N16121  10.250   6.978   9.855 -0.5226  0.5274 -0.5225
  123MOL0     C16122  10.300   7.080   9.783  0.2395 -0.6191 -0.1185
  123MOL0     C16123  10.343   7.167   9.878 -0.3506 -0.3609  0.7652
  123MOL0     C16124  10.404   7.303   9.867 -0.3366  0.3838  0.3820
  123MOL0     C16125  10.297   7.408   9.813 -0.1256  0.8423  0.1054
  123MOL0     C16126  10.260   7.510   9.915 -0.2731 -0.3937  0.2485
  123MOL0     C16127  10.142   7.603   9.867  0.5805  0.1947  0.2042
  123MOL0     O16128  10.020   7.536   9.857  0.3974  0.6321 -0.0962
  123MOL0     C16129   9.910   7.597   9.807 -0.1420 -0.1256 -0.5899
  123MOL0     C16130   9.777   7.560   9.846  0.4908 -0.3691  0.1124
  123MOL0     C16131   9.654   7.622   9.791  0.0009  0.7177  0.2878
  123MOL0     C16132   9.666   7.720   9.703  0.3513 -0.4262  0.3887
  123MOL0     C16133   9.534   7.785   9.645 -0.4355 -0.6434  0.3547
  123MOL0     O16134   9.557   7.863   9.540 -0.4273  0.1791  0.3364
  123MOL0     C16135   9.457   7.916   9.465  0.3711 -0.8667  0.1304
  123MOL0     C16136   9.330   7.855   9.443  0.3341 -0.5305  0.6127
  123MOL0     C16137   9.235   7.920   9.366  0.2292  0.5688 -0.1291
  123MOL0     C16138   9.260   8.042   9.305  0.1301 -0.8121  0.7093
  123MOL0     O16139   9.150   8.106   9.249  0.4916 -0.0347 -0.4715
  123MOL0     C16140   9.125   8.240   9.298 -1.3106  0.5782 -0.1400
  123MOL0     C16141   8.973   8.252   9.306  0.4163 -0.3585  0.4252
  123MOL0     C16142   8.937   8.333   9.185 -0.0251 -0.3676 -0.2164
  123MOL0     C16143   8.798   8.361   9.178  0.2684 -0.1962  0.5679
  123MOL0     C16144   8.763   8.473   9.099  0.1579 -0.3553 -0.0893
  123MOL0     C16145   8.613   8.517   9.135  0.1834  0.1606  0.1911
  123MOL0     C16146   8.590   8.648   9.077  0.8115  0.8666 -0.7697
  123MOL0     C16147   8.462   8.705   9.138 -0.4705 -0.0529  0.0798
  123MOL0    Cl16148   8.401   8.828   9.018  0.1819  0.0801  0.5228
  123MOL0     C16149   9.386   8.107   9.319  0.0847  0.1657  0.1083
  123MOL0     C16150   9.487   8.035   9.394 -0.1308  0.0163  0.3039
  123MOL0     O16151   9.428   7.773   9.702 -0.0300 -0.5023 -0.0940
  123MOL0     C16152   9.802   7.762   9.663  1.0573 -0.5885 -0.1646
  123MOL0     C16153   9.919   7.704   9.714  0.6746 -0.6983 -0.9133
  123MOL0     N16154  10.308   7.122  10.005 -1.0960  0.0161 -0.9056
  123MOL0     N16155  10.255   7.006   9.988  0.4319 -0.1690  0.2452
  123MOL0     C16156   9.014   7.001   9.363  0.1944  0.2392  0.0450
  123MOL0     C16157   8.908   7.088   9.332  0.0718  0.9647  0.8485
  123MOL0     C16158   8.537   7.325   9.336  0.1546  0.5271  0.8336
  123MOL0     C16159   8.550   7.444   9.401 -0.9438  0.1828  0.2851
  123MOL0     C16160   8.442   7.530   9.420  0.7825  0.0045 -0.2186
  123MOL0     C16161   8.318   7.504   9.355  0.5061 -0.2722 -0.5831
  123MOL0     O16162   8.222   7.605   9.370  0.2415  0.5015  0.4965
  123MOL0     C16163   8.095   7.570   9.313 -0.3112  1.0241 -0.7395
  123MOL0     C16164   7.988   7.672   9.340 -0.6043  0.5302  0.2296
  123MOL0     C16165   7.931   7.661   9.479 -0.3792 -0.3758 -0.0160
  123MOL0     C16166   7.856   7.791   9.517 -0.4313  0.5989 -0.8399
  123MOL0     C16167   7.727   7.751   9.584  0.4585 -0.5472 -0.0346
  123MOL0     C16168   7.620   7.725   9.636  0.0436  1.0858  0.2835
  123MOL0     C16169   8.305   7.388   9.280  0.0447  0.0662  0.8177
  123MOL0     C16170   8.410   7.295   9.280  0.2294  0.5454 -0.0813
  123MOL0     H16171   8.923   7.282   9.604  3.3203  0.3127  1.9333
  123MOL0     H16172   9.095   7.119   9.673  0.1633 -1.8110  0.5094
  123MOL0     H16173   9.265   6.953   9.706 -1.0197 -2.4993 -0.7119
  123MOL0     H16174   9.307   7.072   9.573  1.2095 -0.0742 -1.1320
  123MOL0     H16175   9.438   6.922   9.470 -1.2609 -0.8351 -0.5474
  123MOL0     H16176   9.406   6.792   9.590  1.6558 -0.0698  0.8533
  123MOL0     H16177   9.497   6.945   9.764  0.2611  0.9866  0.0310
  123MOL0     H16178   9.569   7.038   9.634 -1.4411 -0.0781  1.2713
  123MOL0     H16179   9.646   6.762   9.729 -1.4481 -1.3367 -1.1709
  123MOL0     H16180   9.676   6.792   9.566  0.6872  0.4234 -0.1002
  123MOL0     H16181   9.768   6.994   9.782 -1.7169 -0.1483 -0.6242
  123MOL0     H16182   9.801   7.009   9.609 -1.0792 -0.2039  0.2631
  123MOL0     H16183   9.940   6.801   9.615 -0.3364 -1.0685 -0.2243
  123MOL0     H16184   9.890   6.769   9.780  0.9742 -0.0386 -0.4086
  123MOL0     H16185  10.022   7.034   9.760  4.0139  0.4587  0.4865
  123MOL0     H16186   9.973   6.936   9.898  1.5993  5.1573  0.7448
  123MOL0     H16187  10.185   6.847   9.703 -2.4530 -1.8186 -0.2095
  123MOL0     H16188  10.158   6.791   9.870 -0.1296 -0.3457 -0.7090
  123MOL0     H16189  10.318   7.090   9.676  3.1004 -1.2297  0.2265
  123MOL0     H16190  10.486   7.286   9.796  0.4557 -1.7783  1.7053
  123MOL0     H16191  10.444   7.338   9.962 -0.3522 -0.2705  0.6379
  123MOL0     H16192  10.202   7.363   9.783 -0.3338  1.4408 -0.1633
  123MOL0     H16193  10.347   7.441   9.721 -0.0424 -1.9069 -0.9240
  123MOL0     H16194  10.224   7.456  10.003  0.0089  2.5846  2.3492
  123MOL0     H16195  10.348   7.568   9.944 -0.0887  0.0684 -1.1908
  123MOL0     H16196  10.169   7.653   9.774 -0.8760  2.1650  0.7751
  123MOL0     H16197  10.130   7.683   9.941 -1.9333 -1.1125  1.3292
  123MOL0     H16198   9.766   7.485   9.924 -3.3817 -0.3388 -0.2398
  123MOL0     H16199   9.557   7.579   9.813  1.5510 -2.4132  1.6843
  123MOL0     H16200   9.314   7.758   9.488  2.9824 -0.9476  0.8592
  123MOL0     H16201   9.131   7.888   9.365  0.6086 -0.7111  0.2012
  123MOL0     H16202   9.179   8.317   9.242 -2.0187 -0.0306 -1.7224
  123MOL0     H16203   9.154   8.245   9.403 -1.1967 -2.5335  0.0823
  123MOL0     H16204   8.955   8.310   9.397 -1.1958 -0.0795 -0.0449
  123MOL0     H16205   8.921   8.157   9.317  2.0439 -1.2256  0.9229
  123MOL0     H16206   8.963   8.287   9.089 -1.2484  1.1700 -1.3443
  123MOL0     H16207   8.986   8.431   9.185 -2.5644  1.0103  0.8866
  123MOL0     H16208   8.748   8.270   9.144 -0.1346  0.1715  0.1615
  123MOL0     H16209   8.761   8.378   9.280 -3.2423 -0.4473 -0.5024
  123MOL0     H16210   8.766   8.448   8.992 -0.9041  0.2235 -0.2672
  123MOL0     H16211   8.827   8.560   9.116 -1.8228  0.9265  1.3079
  123MOL0     H16212   8.605   8.516   9.244 -0.8627 -0.1109  0.1259
  123MOL0     H16213   8.543   8.443   9.093  0.0801 -0.0382  0.7029
  123MOL0     H16214   8.669   8.707   9.126  0.1006 -1.0095  3.0568
  123MOL0     H16215   8.599   8.640   8.969  4.3496 -0.1570 -0.5262
  123MOL0     H16216   8.473   8.745   9.240 -3.7416  2.1372 -0.2552
  123MOL0     H16217   8.386   8.627   9.144  0.1264 -0.6611 -0.1796
  123MOL0     H16218   9.425   8.202   9.283  1.7318  0.2497  1.8969
  123MOL0     H16219   9.589   8.071   9.404  0.4448 -0.9889 -1.5770
  123MOL0     H16220   9.811   7.848   9.596  1.7856  0.9778  1.8462
  123MOL0     H16221  10.017   7.744   9.689  0.0664  2.0541  0.6611
  123MOL0     H16222   9.043   6.936   9.281 -1.5346 -0.1128 -0.3246
  123MOL0     H16223   8.862   7.083   9.233 -0.0047 -0.6687  0.9307
  123MOL0     H16224   8.647   7.479   9.438 -1.7513  2.7512  0.1248
  123MOL0     H16225   8.458   7.622   9.476  0.5351  0.4144 -0.8131
  123MOL0     H16226   8.056   7.473   9.345  2.0699  0.6778  1.4635
  123MOL0     H16227   8.102   7.555   9.205 -0.4824 -0.7558 -0.5263
  123MOL0     H16228   8.047   7.764   9.335  1.1416 -0.4468  1.6627
  123MOL0     H16229   7.906   7.667   9.268  0.2974 -1.8508 -0.7376
  123MOL0     H16230   8.004   7.638   9.557  0.4702 -2.0622 -1.2466
  123MOL0     H16231   7.866   7.574   9.490  0.0322 -0.7221 -0.2709
  123MOL0     H16232   7.917   7.856   9.581 -1.7757 -1.0609  2.3592
  123MOL0     H16233   7.823   7.851   9.432 -0.8612  0.4974 -0.7476
  123MOL0     H16234   7.529   7.713   9.692 -1.3315  4.5358 -0.9753
  123MOL0     H16235   8.209   7.358   9.239  0.3477  1.2580 -0.8571
  123MOL0     H16236   8.392   7.200   9.231  3.2758 -1.0301  1.5652
  124MOL0     O16237   9.666   0.113   8.652 -0.6471 -0.4825 -0.3626
  124MOL0     C16238   9.695   0.020   8.581 -0.2588  0.7970  0.1243
  124MOL0     O16239   9.625  -0.087   8.554  1.1345 -0.1431  0.2609
  124MOL0     C16240   9.490  -0.089   8.571  0.3159  0.6091  0.6735
  124MOL0     C16241   9.451  -0.212   8.623 -0.3572  0.0480  0.6113
  124MOL0     C16242   9.321  -0.231   8.642  0.3957  0.0855  0.1551
  124MOL0     C16243   9.225  -0.135   8.622 -0.0153 -0.4484  0.0112
  124MOL0     O16244   9.103  -0.168   8.654  0.9936 -0.7216 -0.6542
  124MOL0     C16245   9.020  -0.196   8.535 -1.0064 -0.4701  1.1284
  124MOL0     C16246   8.925  -0.071   8.506  0.4278  1.0636 -0.3837
  124MOL0     C16247   8.850  -0.020   8.631 -0.5899 -0.4462  0.0556
  124MOL0     C16248   8.787   0.121   8.609 -0.1817  0.2351 -0.2962
  124MOL0     C16249   8.680   0.154   8.706  0.3542  0.9746 -0.3215
  124MOL0     C16250   8.728   0.144   8.853  0.3771 -0.4180 -0.0295
  124MOL0     C16251   8.632   0.217   8.942 -0.3137  0.2806  0.7400
  124MOL0     C16252   8.620   0.152   9.079  0.4654 -0.1900 -0.7127
  124MOL0     N16253   8.494   0.203   9.131 -0.1628 -0.2185  0.0295
  124MOL0     C16254   8.393   0.127   9.172  0.2070  0.0433 -0.8318
  124MOL0     C16255   8.300   0.210   9.224 -0.3283  0.4328 -0.0241
  124MOL0     C16256   8.168   0.165   9.281  0.7393  0.4635  0.5468
  124MOL0     C16257   8.055   0.256   9.228  0.0591  0.0504  0.6126
  124MOL0     C16258   7.920   0.192   9.283  0.0609  0.2877 -0.0663
  124MOL0     C16259   7.806   0.301   9.294  0.4576 -0.3288  0.4102
  124MOL0     O16260   7.749   0.325   9.161  0.4819 -0.1019  0.3368
  124MOL0     C16261   7.630   0.398   9.151 -0.2151 -0.3834 -0.0942
  124MOL0     C16262   7.513   0.330   9.169  0.1536  0.8230 -0.1397
  124MOL0     C16263   7.379   0.390   9.164 -0.5537 -0.1554 -0.0490
  124MOL0     C16264   7.369   0.536   9.151  0.0433  0.5323 -1.1445
  124MOL0     C16265   7.234   0.596   9.143 -0.1284 -0.2669  0.8883
  124MOL0     O16266   7.123   0.525   9.155  0.6841 -0.2262 -0.4500
  124MOL0     C16267   7.003   0.590   9.159 -0.8648  0.3892  0.9834
  124MOL0     C16268   6.902   0.552   9.075 -0.3362  0.3213 -0.7462
  124MOL0     C16269   6.784   0.622   9.063 -0.8798  0.8952  0.0966
  124MOL0     C16270   6.752   0.727   9.155 -0.6746 -0.0909 -0.4195
  124MOL0     O16271   6.629   0.794   9.152  0.1782  0.7446 -0.9873
  124MOL0     C16272   6.607   0.867   9.036 -0.9125  0.1988  0.5762
  124MOL0     C16273   6.455   0.887   9.005  0.2610 -0.5435 -0.9221
  124MOL0     C16274   6.372   0.913   9.132 -0.1069 -0.0056  0.0994
  124MOL0     C16275   6.227   0.928   9.090  0.4711  0.6573 -0.3323
  124MOL0     C16276   6.125   0.885   9.198 -0.0612 -0.0767  0.0517
  124MOL0     C16277   6.116   0.977   9.311 -0.8335 -1.6334  0.5664
  124MOL0     C16278   6.005   0.936   9.396  0.6992  0.1994  0.0088
  124MOL0     C16279   5.984   1.044   9.501  0.4586  0.3179 -0.0728
  124MOL0    Cl16280   5.815   1.053   9.566  0.1127 -0.4502  0.7042
  124MOL0     C16281   6.851   0.766   9.246 -0.2369  0.1949 -0.1806
  124MOL0     C16282   6.980   0.702   9.237 -0.3815  0.4178 -0.8269
  124MOL0     O16283   7.244   0.714   9.137  0.7757 -0.4406 -0.1834
  124MOL0     C16284   7.497   0.603   9.157  0.2052 -0.1454 -0.4089
  124MOL0     C16285   7.623   0.538   9.166  0.3544  0.6374  0.5170
  124MOL0     N16286   8.335   0.343   9.198  0.3722 -0.5930  0.1085
  124MOL0     N16287   8.447   0.340   9.140 -0.7717  0.8310  0.0216
  124MOL0     C16288   9.266  -0.010   8.587 -0.1765 -0.1621  0.5253
  124MOL0     C16289   9.398   0.010   8.552 -0.2031  0.0511 -0.1246
  124MOL0     C16290   9.832   0.020   8.509  0.1853 -0.2450 -0.2182
  124MOL0     C16291   9.919   0.126   8.542 -0.3502 -0.5407  0.1586
  124MOL0     C16292  10.052   0.126   8.500  0.0314 -0.4445 -0.2207
  124MOL0     C16293  10.101   0.021   8.415  0.3488  0.1089 -0.0211
  124MOL0     O16294  10.234   0.023   8.367  0.4570  0.8491  0.4458
  124MOL0     C16295  10.316   0.145   8.377  0.4215 -0.3772  0.0994
  124MOL0     C16296  10.443   0.130   8.296 -0.7034 -0.0034 -0.3260
  124MOL0     C16297  10.552   0.057   8.377  0.1432  0.4267 -0.7342
  124MOL0     C16298  10.528  -0.086   8.394 -0.5188  0.6920 -0.1145
  124MOL0     C16299  10.637  -0.144   8.474  1.1867  0.4999  1.1638
  124MOL0     C16300  10.720  -0.193   8.541 -0.6025  0.8644 -0.3047
  124MOL0     C16301  10.016  -0.078   8.374  0.0733  0.1487  0.1283
  124MOL0     C16302   9.881  -0.084   8.423 -0.0115 -0.1855  0.0688
  124MOL0     H16303   9.532  -0.283   8.639  0.9180  1.1763 -0.5857
  124MOL0     H16304   9.288  -0.331   8.670 -1.6656  1.2382  2.2581
  124MOL0     H16305   8.954  -0.282   8.542  0.5230 -2.0782 -1.8705
  124MOL0     H16306   9.078  -0.227   8.447 -1.6019 -3.1934  1.6108
  124MOL0     H16307   8.850  -0.092   8.430  0.4561  0.6528 -0.3001
  124MOL0     H16308   8.998   0.004   8.473 -0.5525  2.1358 -0.1954
  124MOL0     H16309   8.919  -0.024   8.716 -0.2310 -1.1702 -0.2548
  124MOL0     H16310   8.781  -0.094   8.673  2.1874 -3.5078 -0.3609
  124MOL0     H16311   8.862   0.199   8.601  0.9236 -0.6627  0.8199
  124MOL0     H16312   8.745   0.120   8.508 -2.2609 -0.3001  0.5144
  124MOL0     H16313   8.604   0.077   8.690  1.4797 -0.3176  0.3107
  124MOL0     H16314   8.638   0.251   8.676  6.5381  3.7555 -1.4850
  124MOL0     H16315   8.819   0.203   8.863 -0.3845  0.5619  1.5844
  124MOL0     H16316   8.739   0.040   8.887 -0.4899 -0.2895  0.7037
  124MOL0     H16317   8.667   0.320   8.948  2.1618 -0.3471 -1.1559
  124MOL0     H16318   8.532   0.203   8.899  1.4760 -1.9294 -3.3344
  124MOL0     H16319   8.701   0.187   9.144 -1.3183  1.3654  0.7716
  124MOL0     H16320   8.615   0.043   9.074 -2.2753 -0.1002 -1.6164
  124MOL0     H16321   8.389   0.018   9.176  0.7674  0.0382  1.6369
  124MOL0     H16322   8.178   0.188   9.388  0.4759  0.1539  0.6403
  124MOL0     H16323   8.144   0.059   9.271 -0.1885  0.8029 -1.1079
  124MOL0     H16324   8.068   0.267   9.120  3.1604  2.7330  1.0859
  124MOL0     H16325   8.062   0.355   9.273  1.5422 -0.0329  0.6038
  124MOL0     H16326   7.888   0.105   9.224 -0.1799 -0.3218  0.9510
  124MOL0     H16327   7.931   0.176   9.390 -1.5361 -1.1186 -0.0683
  124MOL0     H16328   7.845   0.398   9.328 -2.6817  0.7940  1.1458
  124MOL0     H16329   7.726   0.270   9.362 -0.2679 -0.1706 -0.3599
  124MOL0     H16330   7.524   0.224   9.186 -0.6228  0.8488  0.6103
  124MOL0     H16331   7.290   0.328   9.169 -1.6769  1.3875 -0.1637
  124MOL0     H16332   6.914   0.477   8.998 -1.3446 -1.5454  0.7921
  124MOL0     H16333   6.708   0.583   8.997 -0.7656  1.3922 -0.3315
  124MOL0     H16334   6.638   0.822   8.941 -0.4660 -1.6217  1.5537
  124MOL0     H16335   6.649   0.966   9.059 -1.7380  0.4344  1.1159
  124MOL0     H16336   6.415   0.797   8.959  0.3263 -0.8852 -0.3128
  124MOL0     H16337   6.451   0.975   8.939 -2.3214  0.4301  0.3933
  124MOL0     H16338   6.415   1.004   9.174 -0.7517  0.9665 -1.2782
  124MOL0     H16339   6.386   0.834   9.207  0.4388  0.0509  0.0606
  124MOL0     H16340   6.207   1.029   9.053  0.3100  0.5907 -0.4260
  124MOL0     H16341   6.206   0.857   9.010  2.8735 -1.1521  0.5384
  124MOL0     H16342   6.153   0.788   9.240 -1.0341 -0.8479 -1.0455
  124MOL0     H16343   6.028   0.867   9.151  0.2802  1.2756 -1.2497
  124MOL0     H16344   6.099   1.076   9.267  3.4988 -2.1036 -2.8102
  124MOL0     H16345   6.207   0.986   9.371 -0.6550  1.4153  0.0113
  124MOL0     H16346   5.919   0.925   9.330 -1.2273  2.2844  1.9808
  124MOL0     H16347   6.026   0.841   9.446 -0.6802 -0.3054 -0.3315
  124MOL0     H16348   6.015   1.144   9.469  1.9676 -0.6566 -1.8099
  124MOL0     H16349   6.053   1.018   9.582 -2.4312 -1.7115  1.9503
  124MOL0     H16350   6.835   0.842   9.322 -1.0463  0.0219 -0.1728
  124MOL0     H16351   7.062   0.749   9.290  0.6956 -2.0269 -0.1657
  124MOL0     H16352   7.493   0.711   9.152  0.8539  0.0503  1.9600
  124MOL0     H16353   7.721   0.583   9.171  0.3893  0.4486  4.4284
  124MOL0     H16354   9.200   0.076   8.581  0.6524  0.6887  2.7542
  124MOL0     H16355   9.441   0.102   8.515 -1.3846  0.2270 -1.1049
  124MOL0     H16356   9.888   0.210   8.604  1.4287  1.6740 -1.7567
  124MOL0     H16357  10.120   0.206   8.527 -1.6827  0.8582  0.3452
  124MOL0     H16358  10.342   0.182   8.477  0.5040 -0.3766  0.0788
  124MOL0     H16359  10.263   0.228   8.330  2.2811 -0.2833 -2.0135
  124MOL0     H16360  10.425   0.077   8.202  1.3865 -0.1492 -0.6765
  124MOL0     H16361  10.483   0.231   8.285  2.6107 -0.7157  3.0681
  124MOL0     H16362  10.542   0.101   8.477 -1.5291  1.5525 -1.3513
  124MOL0     H16363  10.656   0.076   8.347  1.1725 -3.1170  0.0359
  124MOL0     H16364  10.433  -0.105   8.444 -0.1974  0.0474  0.2673
  124MOL0     H16365  10.529  -0.133   8.295  0.0891 -0.3110  0.3543
  124MOL0     H16366  10.796  -0.231   8.605 -2.3370 -1.0768  0.7230
  124MOL0     H16367  10.041  -0.165   8.315  0.4886  1.1797 -1.2905
  124MOL0     H16368   9.816  -0.158   8.379 -0.4073  1.1921 -1.7603
  125MOL0     O16369   7.647  10.478   3.325  0.0336  0.0058  0.0167
  125MOL0     C16370   7.739  10.545   3.302 -0.2803 -0.4426  0.4143
  125MOL0     O16371   7.738  10.670   3.266 -0.3263 -0.5822  0.5089
  125MOL0     C16372   7.628  10.752   3.273 -0.4945  1.0658  0.2159
  125MOL0     C16373   7.501  10.725   3.324 -0.4421 -0.7866  0.1183
  125MOL0     C16374   7.406  10.827   3.325 -0.0570  1.2755 -0.3899
  125MOL0     C16375   7.420  10.944   3.256 -0.4246 -0.4420 -0.3734
  125MOL0     O16376   7.321  11.031   3.230  0.8147 -0.1294 -0.5197
  125MOL0     C16377   7.291  11.043   3.091 -0.4080  0.3147  0.0578
  125MOL0     C16378   7.202  11.173   3.079  0.2999  0.2372 -0.0716
  125MOL0     C16379   7.073  11.163   3.153 -0.9131 -0.5083  0.0756
  125MOL0     C16380   6.995  11.289   3.113  0.0925  0.3678 -0.1014
  125MOL0     C16381   6.856  11.288   3.187 -0.1226 -0.1866  1.2327
  125MOL0     C16382   6.784  11.418   3.146 -0.2520 -0.8708  0.7380
  125MOL0     C16383   6.638  11.444   3.196  0.7429 -0.6864 -0.0777
  125MOL0     C16384   6.554  11.542   3.116  0.7295  0.4247  0.3378
  125MOL0     N16385   6.420  11.582   3.171  0.0524 -0.8089 -0.1707
  125MOL0     C16386   6.409  11.659   3.283  0.0291  0.4811  0.0529
  125MOL0     C16387   6.276  11.646   3.308 -0.9252 -0.2383 -0.5426
  125MOL0     C16388   6.199  11.711   3.419  0.4720  0.6235  0.9001
  125MOL0     C16389   6.285  11.784   3.525 -0.5489  0.1043  0.2132
  125MOL0     C16390   6.343  11.680   3.627 -0.2003 -0.6664  1.0630
  125MOL0     C16391   6.411  11.744   3.744  0.1831  0.0938  0.5417
  125MOL0     O16392   6.514  11.832   3.690  0.0520 -1.3008  0.1668
  125MOL0     C16393   6.638  11.762   3.672 -0.5764  0.3959  0.7387
  125MOL0     C16394   6.655  11.622   3.654  0.0019 -0.5612  0.0204
  125MOL0     C16395   6.782  11.566   3.636  0.1655  1.4740  0.3320
  125MOL0     C16396   6.890  11.644   3.600  0.2956  0.8466 -0.1155
  125MOL0     C16397   7.019  11.570   3.581 -0.2723 -0.6503 -1.4196
  125MOL0     O16398   7.020  11.435   3.597  0.3695  0.4939  0.2657
  125MOL0     C16399   7.139  11.369   3.609  0.7971  0.8978  0.1374
  125MOL0     C16400   7.197  11.327   3.488  0.1936 -0.2172  0.4156
  125MOL0     C16401   7.323  11.269   3.490 -0.4516  0.1429 -0.1161
  125MOL0     C16402   7.396  11.257   3.609  0.1869  0.0223  0.0505
  125MOL0     O16403   7.523  11.202   3.625 -1.2683 -0.0551  0.3655
  125MOL0     C16404   7.611  11.213   3.514  0.1307  0.0679  0.0525
  125MOL0     C16405   7.741  11.170   3.568 -0.1686 -0.1489  0.9664
  125MOL0     C16406   7.842  11.139   3.454 -0.1021 -0.0545  0.7538
  125MOL0     C16407   7.984  11.096   3.481  0.1431  0.4737 -0.0486
  125MOL0     C16408   8.047  11.064   3.346 -0.2193 -0.5411 -0.1776
  125MOL0     C16409   8.197  11.013   3.351 -0.2362 -0.3065 -0.0773
  125MOL0     C16410   8.222  10.900   3.447  0.1248 -0.2237  0.4478
  125MOL0     C16411   8.370  10.855   3.454  0.9857 -0.6233  0.8730
  125MOL0    Cl16412   8.381  10.708   3.549 -0.3174  0.1419  0.4471
  125MOL0     C16413   7.333  11.309   3.726  0.1848 -0.1062  0.7112
  125MOL0     C16414   7.200  11.348   3.730  0.5239 -0.2145  0.1458
  125MOL0     O16415   7.116  11.636   3.561 -0.0267 -1.0216 -0.1101
  125MOL0     C16416   6.876  11.784   3.605 -0.2440 -0.0444  0.2461
  125MOL0     C16417   6.753  11.841   3.635  0.0920  0.2787 -0.1145
  125MOL0     N16418   6.222  11.548   3.225  1.3533  0.0051  0.2871
  125MOL0     N16419   6.306  11.508   3.142 -0.2547 -0.6680  0.1789
  125MOL0     C16420   7.545  10.974   3.211  0.0917  0.3399  0.4694
  125MOL0     C16421   7.653  10.880   3.227  1.0885  0.2825  0.3344
  125MOL0     C16422   7.872  10.480   3.318  0.6659  0.6603 -0.7877
  125MOL0     C16423   7.873  10.343   3.354  0.1641 -0.5634 -0.0585
  125MOL0     C16424   7.997  10.288   3.372  0.2530 -0.4963 -0.4475
  125MOL0     C16425   8.114  10.357   3.349 -0.2368 -0.0119  0.2641
  125MOL0     O16426   8.230  10.283   3.342 -0.9390  0.0317  0.2456
  125MOL0     C16427   8.356  10.342   3.375  0.1496 -0.8378 -0.0800
  125MOL0     C16428   8.453  10.227   3.418  1.0399 -0.2564 -0.2265
  125MOL0     C16429   8.424  10.174   3.559  0.1425  0.5264 -0.1689
  125MOL0     C16430   8.443  10.280   3.667  0.3461  1.4166 -0.0720
  125MOL0     C16431   8.436  10.221   3.801  0.7145 -0.7842 -0.1926
  125MOL0     C16432   8.448  10.173   3.914 -0.6245 -0.2519 -0.5370
  125MOL0     C16433   8.109  10.490   3.318 -0.1506  0.2685 -0.6036
  125MOL0     C16434   7.987  10.547   3.306  0.4035 -0.8253  0.9030
  125MOL0     H16435   7.481  10.631   3.373  4.1154 -0.9339  2.1895
  125MOL0     H16436   7.303  10.807   3.351  0.0502 -3.5313 -2.4928
  125MOL0     H16437   7.227  10.955   3.076 -0.1596 -0.0326  0.9639
  125MOL0     H16438   7.379  11.050   3.026 -0.2237 -1.5462  0.0316
  125MOL0     H16439   7.184  11.196   2.973 -3.5191 -1.8092 -0.0230
  125MOL0     H16440   7.260  11.253   3.126 -1.1038 -0.4632  3.1058
  125MOL0     H16441   7.109  11.155   3.256  3.9522 -2.1990 -1.4571
  125MOL0     H16442   7.024  11.071   3.119  0.0383 -0.8655 -0.3517
  125MOL0     H16443   7.047  11.376   3.156 -0.0201 -0.5462  2.0181
  125MOL0     H16444   6.983  11.314   3.008  0.7761  3.0498  0.3677
  125MOL0     H16445   6.877  11.286   3.294 -0.6443 -1.0325  1.3239
  125MOL0     H16446   6.792  11.205   3.156  0.4014 -0.3416  0.5261
  125MOL0     H16447   6.781  11.431   3.038  0.8463 -1.1626  0.6547
  125MOL0     H16448   6.843  11.504   3.180  0.7149 -0.3790 -1.9531
  125MOL0     H16449   6.597  11.343   3.198  3.3301 -1.8137 -0.1062
  125MOL0     H16450   6.651  11.486   3.296 -1.8936 -0.9951  0.4556
  125MOL0     H16451   6.521  11.497   3.022  0.1368 -1.6522  1.4768
  125MOL0     H16452   6.613  11.633   3.100  0.3926  0.8841  1.5852
  125MOL0     H16453   6.478  11.736   3.318 -0.2955  0.7468  0.1164
  125MOL0     H16454   6.148  11.630   3.472  3.3488  0.0947  3.1117
  125MOL0     H16455   6.130  11.787   3.382  0.7058  0.4049  0.0049
  125MOL0     H16456   6.221  11.847   3.588  0.4152 -0.9562  2.3843
  125MOL0     H16457   6.363  11.846   3.481  1.8497 -2.7650  0.0856
  125MOL0     H16458   6.259  11.614   3.646 -0.0239 -1.4768 -0.7430
  125MOL0     H16459   6.409  11.612   3.573  1.1613  1.4828 -0.1512
  125MOL0     H16460   6.448  11.674   3.819 -0.6480  0.8411  1.6905
  125MOL0     H16461   6.344  11.803   3.807 -0.3806  0.6389 -0.5356
  125MOL0     H16462   6.570  11.557   3.676  0.6500 -1.1875  0.7203
  125MOL0     H16463   6.779  11.458   3.645 -0.0079  1.3843 -0.7197
  125MOL0     H16464   7.140  11.349   3.398 -1.1374  0.3904  1.3676
  125MOL0     H16465   7.373  11.227   3.403  1.1819 -2.8314  2.0533
  125MOL0     H16466   7.621  11.317   3.482  1.7142 -0.2769 -0.6208
  125MOL0     H16467   7.576  11.159   3.425 -1.6817  2.3436 -0.7202
  125MOL0     H16468   7.729  11.080   3.630  0.4412 -0.6581  0.3595
  125MOL0     H16469   7.781  11.247   3.634  1.0120  0.8394 -0.8354
  125MOL0     H16470   7.848  11.228   3.391 -0.5166 -1.0015 -0.6842
  125MOL0     H16471   7.785  11.064   3.399 -2.2671  2.1961 -0.2575
  125MOL0     H16472   8.034  11.175   3.539 -2.3094  1.3668  1.0208
  125MOL0     H16473   7.992  11.009   3.546  1.6369  0.9726  0.4835
  125MOL0     H16474   8.055  11.151   3.280  0.5401 -1.9525 -2.0333
  125MOL0     H16475   7.982  10.992   3.297 -1.0121 -0.2847  0.4774
  125MOL0     H16476   8.258  11.097   3.386 -1.0527 -0.3998  1.6809
  125MOL0     H16477   8.216  10.973   3.251 -0.3456  1.1099 -0.7030
  125MOL0     H16478   8.177  10.918   3.545 -0.4183  2.9635 -0.2964
  125MOL0     H16479   8.159  10.819   3.408  1.4163  0.2043 -2.8881
  125MOL0     H16480   8.428  10.938   3.494 -0.8188  0.6888  0.9090
  125MOL0     H16481   8.404  10.835   3.352  0.7876  1.7612  0.2938
  125MOL0     H16482   7.379  11.298   3.823 -2.2310 -0.9828  1.8423
  125MOL0     H16483   7.142  11.383   3.815  0.7994 -0.4434  0.4293
  125MOL0     H16484   6.959  11.846   3.572  2.3239 -4.0253 -1.5086
  125MOL0     H16485   6.737  11.948   3.628  0.0434  0.1308 -3.9466
  125MOL0     H16486   7.561  11.066   3.156  2.4131  0.3186  0.9960
  125MOL0     H16487   7.753  10.902   3.191  0.9350  0.5063  0.0447
  125MOL0     H16488   7.782  10.283   3.356  0.0435 -0.6230 -3.0009
  125MOL0     H16489   8.023  10.187   3.404  0.0192 -0.4355 -0.0663
  125MOL0     H16490   8.345  10.424   3.446 -2.1802 -0.6200 -0.6257
  125MOL0     H16491   8.394  10.379   3.279 -0.8294  1.3803  0.3213
  125MOL0     H16492   8.458  10.136   3.357  0.9283 -0.3218 -0.1385
  125MOL0     H16493   8.558  10.257   3.428  0.5117  1.8040 -0.3432
  125MOL0     H16494   8.490  10.087   3.565 -0.2978  0.1617 -0.5231
  125MOL0     H16495   8.321  10.137   3.563 -0.7323  2.8825  1.3911
  125MOL0     H16496   8.544  10.319   3.651  1.5980 -1.1273  1.0393
  125MOL0     H16497   8.372  10.364   3.668 -0.8041  0.4895  1.6869
  125MOL0     H16498   8.472  10.129   4.008  0.0959  0.7059 -0.2563
  125MOL0     H16499   8.198  10.542   3.284  2.1742 -2.4682  0.8609
  125MOL0     H16500   7.995  10.654   3.290 -1.4245 -0.6479  0.9432
  126MOL0     O16501  10.228   6.018   0.261  0.9680  0.4231 -1.2989
  126MOL0     C16502  10.133   5.999   0.336 -1.3605  0.4297  0.1739
  126MOL0     O16503  10.012   5.940   0.309  0.0416  0.2882  0.2354
  126MOL0     C16504   9.970   5.919   0.175  0.7937  0.1956 -0.8607
  126MOL0     C16505   9.902   6.022   0.103  0.3438 -0.7098 -0.3383
  126MOL0     C16506   9.860   5.994  -0.032 -1.0407 -0.8428 -0.2858
  126MOL0     C16507   9.876   5.867  -0.086  0.9420 -0.2008  0.7439
  126MOL0     O16508   9.836   5.840  -0.220  0.7126  0.0177  0.0838
  126MOL0     C16509   9.733   5.919  -0.286 -0.3270  0.9846 -0.6204
  126MOL0     C16510   9.607   5.916  -0.208  0.5614 -0.5210 -0.1367
  126MOL0     C16511   9.517   5.789  -0.232 -0.5063 -1.1164 -1.0196
  126MOL0     C16512   9.381   5.767  -0.154  0.4396  0.0282 -0.3164
  126MOL0     C16513   9.288   5.884  -0.184  0.3040 -0.5525 -0.3592
  126MOL0     C16514   9.150   5.852  -0.124  0.2777  0.4862  0.7026
  126MOL0     C16515   9.058   5.972  -0.147 -0.4887  0.6262 -0.2980
  126MOL0     C16516   8.917   5.949  -0.089 -0.2771  0.8315  0.2320
  126MOL0     N16517   8.913   6.001   0.055  0.2253 -0.3132 -0.2431
  126MOL0     C16518   8.959   5.934   0.160  0.2452 -0.6199 -0.2567
  126MOL0     C16519   8.952   6.021   0.267 -0.8904  0.5996  0.6278
  126MOL0     C16520   8.999   5.990   0.406  0.4702 -0.9047 -0.0552
  126MOL0     C16521   8.916   6.077   0.512  0.2004 -1.2137  0.0154
  126MOL0     C16522   8.955   6.019   0.648  0.0224 -0.6769 -0.9170
  126MOL0     C16523   8.893   6.108   0.762 -0.3337 -0.3979  0.6360
  126MOL0     O16524   8.910   6.038   0.892  0.5645  0.1545 -0.7715
  126MOL0     C16525   9.005   6.081   0.975 -0.3806  0.3606  0.6041
  126MOL0     C16526   9.108   6.169   0.949 -0.0020 -0.7583 -0.1499
  126MOL0     C16527   9.199   6.201   1.049  0.2845 -0.3920 -0.6141
  126MOL0     C16528   9.174   6.158   1.178  0.4717 -0.5802 -0.4330
  126MOL0     C16529   9.264   6.199   1.286  0.4638 -0.7106  0.0426
  126MOL0     O16530   9.392   6.236   1.246  0.0639 -0.8009  0.1004
  126MOL0     C16531   9.482   6.275   1.340  0.2231  0.2787 -0.5431
  126MOL0     C16532   9.572   6.364   1.277  0.3363  0.8429 -0.2163
  126MOL0     C16533   9.684   6.404   1.347  0.5583 -0.3815 -0.3364
  126MOL0     C16534   9.713   6.364   1.474 -0.7233  0.3345 -0.3314
  126MOL0     O16535   9.813   6.422   1.544  0.7435 -0.0793 -0.3235
  126MOL0     C16536   9.763   6.502   1.653 -0.1672 -0.1337  0.2854
  126MOL0     C16537   9.883   6.579   1.720  0.7847 -0.2389  0.1311
  126MOL0     C16538   9.937   6.691   1.642  1.1893 -0.1387 -0.3766
  126MOL0     C16539  10.053   6.740   1.723 -0.2635  0.4176 -0.3435
  126MOL0     C16540  10.122   6.857   1.663 -0.3435 -0.5601  0.6005
  126MOL0     C16541  10.053   6.986   1.642  0.2127 -0.2238 -0.0636
  126MOL0     C16542   9.992   7.032   1.775 -0.6595 -0.6846 -0.5956
  126MOL0     C16543   9.992   7.185   1.791 -0.6651 -0.2072  0.2276
  126MOL0    Cl16544   9.983   7.229   1.959 -0.0376  0.3368 -0.0058
  126MOL0     C16545   9.638   6.261   1.528  0.4433 -0.7752 -0.5485
  126MOL0     C16546   9.517   6.218   1.466 -0.5434 -0.3722 -0.5118
  126MOL0     O16547   9.222   6.195   1.401  0.2822  0.0657 -0.4154
  126MOL0     C16548   9.068   6.072   1.211 -0.4492  0.0039 -0.0949
  126MOL0     C16549   8.978   6.040   1.106 -0.7049  0.1571 -0.7681
  126MOL0     N16550   8.907   6.143   0.219 -0.2345 -0.8222  0.1328
  126MOL0     N16551   8.879   6.125   0.092  0.1373  0.0987 -0.2728
  126MOL0     C16552   9.955   5.779  -0.020 -0.9416 -0.2137  0.4907
  126MOL0     C16553  10.009   5.799   0.107  0.0690  0.3140 -0.3143
  126MOL0     C16554  10.159   6.039   0.471 -0.5999  0.4821  0.2295
  126MOL0     C16555  10.268   6.123   0.501  0.1092 -0.2381 -0.0480
  126MOL0     C16556  10.282   6.174   0.632 -0.0306  0.6556 -0.2462
  126MOL0     C16557  10.184   6.125   0.728 -0.2778 -0.0214  0.2228
  126MOL0     O16558  10.181   6.170   0.858  0.5376  0.0760 -0.8473
  126MOL0     C16559  10.296   6.125   0.937  0.4392 -1.1750 -0.0473
  126MOL0     C16560  10.236   6.084   1.075 -0.0853 -0.1096  0.1418
  126MOL0     C16561  10.343   6.106   1.187  0.3034 -0.6584 -0.1132
  126MOL0     C16562  10.354   6.260   1.229 -0.6091 -0.5385 -0.1237
  126MOL0     C16563  10.457   6.275   1.331 -0.9182  0.2815 -0.5333
  126MOL0     C16564  10.547   6.279   1.408  0.4724 -0.7989  0.2366
  126MOL0     C16565  10.080   6.038   0.693  0.2097  0.0971  0.3656
  126MOL0     C16566  10.064   5.999   0.567 -0.8703  1.1647  0.2496
  126MOL0     H16567   9.881   6.120   0.144  4.3825  1.0451 -1.9703
  126MOL0     H16568   9.800   6.067  -0.087 -1.8319 -0.5552  0.9169
  126MOL0     H16569   9.722   5.866  -0.381 -1.6505 -2.6250  1.3616
  126MOL0     H16570   9.766   6.023  -0.296 -0.5129  1.2468  1.1110
  126MOL0     H16571   9.552   6.009  -0.228  2.3062  0.2277 -1.7482
  126MOL0     H16572   9.622   5.918  -0.099 -1.7801  0.2680  0.2174
  126MOL0     H16573   9.586   5.705  -0.222 -1.8337 -2.0386  1.0807
  126MOL0     H16574   9.485   5.797  -0.336 -0.4436  0.2140 -0.9505
  126MOL0     H16575   9.324   5.675  -0.174  0.7423 -1.2292  3.7308
  126MOL0     H16576   9.408   5.753  -0.049  1.3281 -2.2682 -0.7847
  126MOL0     H16577   9.290   5.907  -0.291 -1.5823  2.9769  0.2359
  126MOL0     H16578   9.326   5.976  -0.141  1.2119 -1.1619  0.1704
  126MOL0     H16579   9.160   5.827  -0.018  1.1639  0.1133  0.5398
  126MOL0     H16580   9.113   5.762  -0.174  2.0112  0.6964 -1.1124
  126MOL0     H16581   9.110   6.057  -0.101  3.1496 -0.4882 -1.9945
  126MOL0     H16582   9.049   5.997  -0.253  0.9409 -1.1193 -0.8741
  126MOL0     H16583   8.891   5.845  -0.069 -2.2869  1.5421  1.6747
  126MOL0     H16584   8.838   6.004  -0.142 -1.1979  0.7221  1.4368
  126MOL0     H16585   8.998   5.834   0.142  2.7578  0.6332 -2.2848
  126MOL0     H16586   9.108   5.993   0.418  0.2331 -0.3308  2.9114
  126MOL0     H16587   8.968   5.886   0.419  0.1018 -1.2340 -3.0329
  126MOL0     H16588   8.807   6.083   0.509  0.2334  2.7006  0.7424
  126MOL0     H16589   8.955   6.179   0.505 -1.0368 -0.6603  0.7648
  126MOL0     H16590   8.926   5.914   0.654  2.1721 -1.2569  1.5368
  126MOL0     H16591   9.063   6.008   0.663 -0.2903 -1.7455  0.9345
  126MOL0     H16592   8.787   6.132   0.752 -0.5128 -0.3917  2.2310
  126MOL0     H16593   8.947   6.202   0.746 -2.9854  1.2335  0.7330
  126MOL0     H16594   9.118   6.207   0.848  0.4213  1.2884  0.6223
  126MOL0     H16595   9.286   6.257   1.014 -0.5861 -1.3660 -5.0380
  126MOL0     H16596   9.543   6.405   1.180  3.4966 -0.0136 -1.6487
  126MOL0     H16597   9.741   6.483   1.299 -1.4954  0.4244 -1.5970
  126MOL0     H16598   9.731   6.427   1.726  0.4017 -0.5693  0.0899
  126MOL0     H16599   9.675   6.561   1.625  0.2908 -0.0518 -1.0502
  126MOL0     H16600   9.960   6.504   1.743 -0.8470 -1.9157  0.3566
  126MOL0     H16601   9.839   6.618   1.812 -1.2545 -5.3510  1.6610
  126MOL0     H16602   9.862   6.771   1.648  3.3798  1.9394  1.2664
  126MOL0     H16603   9.964   6.659   1.540  0.4956  1.2255 -1.0074
  126MOL0     H16604  10.016   6.765   1.823  1.3264 -0.9050  0.6249
  126MOL0     H16605  10.129   6.661   1.729 -0.1066  0.4753 -1.3433
  126MOL0     H16606  10.145   6.831   1.560  1.6400  1.3201  0.4905
  126MOL0     H16607  10.212   6.880   1.721 -1.4396 -1.4263  2.7615
  126MOL0     H16608   9.970   6.979   1.570 -0.9258 -0.5426  1.2225
  126MOL0     H16609  10.126   7.059   1.608  0.1376 -0.1836 -0.1376
  126MOL0     H16610   9.892   6.988   1.782 -0.0821 -1.7391  3.8918
  126MOL0     H16611  10.046   6.992   1.861  0.2628  0.1055 -0.7873
  126MOL0     H16612   9.920   7.233   1.724  2.5176  4.5504 -0.2184
  126MOL0     H16613  10.091   7.213   1.753 -1.2579  0.2023 -1.0541
  126MOL0     H16614   9.670   6.203   1.614 -1.2989 -1.1112 -0.0820
  126MOL0     H16615   9.457   6.132   1.493  0.4522 -0.6424  0.9661
  126MOL0     H16616   9.049   6.035   1.312  1.1426 -3.3833 -0.8895
  126MOL0     H16617   8.893   5.977   1.135 -2.7628  2.6869 -0.9373
  126MOL0     H16618   9.976   5.689  -0.076 -1.4862 -0.0042 -0.0615
  126MOL0     H16619  10.068   5.727   0.162  0.6868 -0.6747 -2.2038
  126MOL0     H16620  10.337   6.144   0.420 -0.5904 -0.9710 -0.8493
  126MOL0     H16621  10.352   6.246   0.674 -1.2353  1.9921 -0.4626
  126MOL0     H16622  10.360   6.212   0.947  0.1525 -0.9625 -0.0447
  126MOL0     H16623  10.344   6.037   0.893  0.4350 -0.9968 -0.4025
  126MOL0     H16624  10.146   6.139   1.102  1.0737  1.4892  0.8770
  126MOL0     H16625  10.224   5.975   1.079 -2.2188  0.0951  4.0000
  126MOL0     H16626  10.444   6.089   1.150  1.4887  4.0586  0.2759
  126MOL0     H16627  10.326   6.027   1.261  2.5107 -1.2065 -0.1206
  126MOL0     H16628  10.373   6.321   1.140  2.2210  0.3375  0.9628
  126MOL0     H16629  10.260   6.290   1.276 -0.7733  0.3708 -0.9827
  126MOL0     H16630  10.628   6.283   1.478  0.6998 -3.2162  0.1952
  126MOL0     H16631  10.003   6.009   0.763 -0.4876  3.4135  1.1008
  126MOL0     H16632   9.980   5.934   0.542 -0.4108  1.4839 -2.3755
  127MOL0     O16633   2.086   0.472   0.508  0.2988 -0.0228 -0.1285
  127MOL0     C16634   2.074   0.574   0.445  0.4386 -0.3007 -0.1234
  127MOL0     O16635   2.170   0.673   0.430 -0.6438  0.0560 -0.4211
  127MOL0     C16636   2.290   0.648   0.488  0.3140  0.3248  0.1197
  127MOL0     C16637   2.386   0.604   0.403  1.2137  0.9447  0.0111
  127MOL0     C16638   2.508   0.562   0.455  0.5750  0.4978  0.0243
  127MOL0     C16639   2.535   0.568   0.596 -0.0578  0.3137  0.8190
  127MOL0     O16640   2.658   0.544   0.650  0.8294 -0.2295 -0.3650
  127MOL0     C16641   2.748   0.447   0.594 -0.6453  0.0289 -0.0929
  127MOL0     C16642   2.888   0.471   0.654  0.4472  0.0028  0.3416
  127MOL0     C16643   2.888   0.418   0.807 -0.1999 -0.1642 -0.3390
  127MOL0     C16644   3.035   0.420   0.859  0.0125 -1.4170 -0.0920
  127MOL0     C16645   3.067   0.370   1.007  0.0888 -0.5781 -0.4578
  127MOL0     C16646   3.045   0.219   1.027  0.6123  0.0527 -0.7204
  127MOL0     C16647   3.163   0.149   0.964  0.3033  0.4714  0.3800
  127MOL0     C16648   3.193   0.018   1.037  0.1160 -0.9216 -0.5406
  127MOL0     N16649   3.306  -0.041   0.973  0.3568  0.3274 -0.6323
  127MOL0     C16650   3.296  -0.121   0.857 -0.6613 -0.2351 -0.9155
  127MOL0     C16651   3.426  -0.119   0.809  0.2152 -0.7013 -0.3508
  127MOL0     C16652   3.483  -0.164   0.675  0.5016  0.2589 -0.1292
  127MOL0     C16653   3.617  -0.232   0.682 -0.2255  0.8005 -0.2244
  127MOL0     C16654   3.607  -0.352   0.776  0.3816 -0.0505 -0.2176
  127MOL0     C16655   3.730  -0.429   0.788 -0.7367  0.2768 -0.2574
  127MOL0     O16656   3.752  -0.500   0.664 -0.4642  0.6260 -0.6878
  127MOL0     C16657   3.869  -0.570   0.649  1.0488  0.8190  0.7254
  127MOL0     C16658   3.918  -0.591   0.515  1.0083 -0.6530 -0.1885
  127MOL0     C16659   4.034  -0.660   0.491  0.2954 -0.1908 -0.8761
  127MOL0     C16660   4.122  -0.694   0.595  0.9116  0.4475 -0.1731
  127MOL0     C16661   4.256  -0.745   0.584 -0.2065 -0.2384  0.1643
  127MOL0     O16662   4.338  -0.734   0.695 -0.4257 -0.1579 -0.1325
  127MOL0     C16663   4.475  -0.760   0.700  0.9380 -0.1875  0.7791
  127MOL0     C16664   4.544  -0.854   0.624 -0.6689  0.2217 -0.1232
  127MOL0     C16665   4.687  -0.862   0.630  0.1981  0.2041  0.7685
  127MOL0     C16666   4.758  -0.775   0.704  0.2817  0.4429 -0.7095
  127MOL0     O16667   4.892  -0.778   0.715  0.1791 -0.4290  0.1325
  127MOL0     C16668   4.963  -0.823   0.599 -0.5023  0.1370  0.0069
  127MOL0     C16669   5.114  -0.782   0.618 -0.2436  0.1378  0.3106
  127MOL0     C16670   5.183  -0.852   0.729  0.3919 -0.0775  0.0681
  127MOL0     C16671   5.325  -0.809   0.731 -0.3663 -0.3059  0.2238
  127MOL0     C16672   5.346  -0.676   0.803  0.1016  0.3949  0.2636
  127MOL0     C16673   5.490  -0.618   0.789  0.5174  0.6803 -0.4008
  127MOL0     C16674   5.510  -0.479   0.859 -0.8084  0.7880 -0.5351
  127MOL0     C16675   5.650  -0.416   0.835 -0.1143 -0.2933 -0.2923
  127MOL0    Cl16676   5.642  -0.383   0.664  0.0804 -0.5414 -0.4719
  127MOL0     C16677   4.685  -0.674   0.771  0.0804 -0.5444 -1.4572
  127MOL0     C16678   4.550  -0.670   0.774  0.1616 -0.4005 -0.2440
  127MOL0     O16679   4.293  -0.784   0.472 -0.6044  0.0882  0.0764
  127MOL0     C16680   4.076  -0.669   0.729  0.4882 -0.3931 -0.0438
  127MOL0     C16681   3.953  -0.609   0.752  0.5409 -0.1379 -0.5857
  127MOL0     N16682   3.506  -0.067   0.909 -1.1843  0.3782  0.5370
  127MOL0     N16683   3.439  -0.020   1.006  0.3004  0.5655 -1.1790
  127MOL0     C16684   2.431   0.615   0.677 -0.5387  1.0522 -0.1693
  127MOL0     C16685   2.310   0.654   0.625 -0.0191  0.5160 -0.2230
  127MOL0     C16686   1.943   0.604   0.380  0.0146 -0.9983 -0.2869
  127MOL0     C16687   1.840   0.518   0.403 -0.2395  0.0245 -0.3504
  127MOL0     C16688   1.712   0.544   0.359 -0.3138  0.5965 -0.2113
  127MOL0     C16689   1.692   0.655   0.277  0.5891  1.0959  0.1101
  127MOL0     O16690   1.564   0.675   0.221  0.7656  0.5703  0.1547
  127MOL0     C16691   1.513   0.803   0.197 -0.0953 -1.1513  0.5333
  127MOL0     C16692   1.361   0.823   0.199  0.1594  0.0326  0.3846
  127MOL0     C16693   1.288   0.819   0.332  0.3879  0.2522  0.4867
  127MOL0     C16694   1.159   0.894   0.323 -0.1168  0.1214 -0.3671
  127MOL0     C16695   1.172   1.037   0.332  0.6274 -0.3811  0.9170
  127MOL0     C16696   1.198   1.156   0.323 -0.0027  0.1499 -0.5250
  127MOL0     C16697   1.802   0.743   0.252  0.3532  0.9619  0.4479
  127MOL0     C16698   1.931   0.724   0.303 -0.7834  0.2544 -0.0809
  127MOL0     H16699   2.363   0.595   0.297  0.5673 -0.1011  0.2267
  127MOL0     H16700   2.582   0.544   0.378  2.4041  3.4261  0.9225
  127MOL0     H16701   2.747   0.448   0.485 -0.8489  2.2811 -0.1270
  127MOL0     H16702   2.715   0.348   0.626  0.7093 -0.4827 -0.2418
  127MOL0     H16703   2.923   0.572   0.629  0.7941 -0.5058 -1.3362
  127MOL0     H16704   2.953   0.408   0.593  3.8067  3.5857 -0.1937
  127MOL0     H16705   2.833   0.323   0.803  0.3762 -0.5958  1.2079
  127MOL0     H16706   2.834   0.480   0.880  0.2403  1.0542 -1.0166
  127MOL0     H16707   3.089   0.351   0.793  1.4410  0.7516 -1.3478
  127MOL0     H16708   3.085   0.517   0.845 -1.2156 -0.7236  0.2345
  127MOL0     H16709   2.998   0.429   1.068  1.1420  0.3474 -0.1330
  127MOL0     H16710   3.158   0.411   1.051 -1.1696  1.7096  0.1801
  127MOL0     H16711   2.947   0.180   0.998 -0.2210  1.2610  0.3635
  127MOL0     H16712   3.056   0.209   1.135  2.9279 -0.8735 -0.9910
  127MOL0     H16713   3.149   0.130   0.857 -0.7340 -1.8657  0.8940
  127MOL0     H16714   3.254   0.210   0.970  0.2730  0.4329  1.2681
  127MOL0     H16715   3.101  -0.039   1.048  0.2145 -0.7295  1.6283
  127MOL0     H16716   3.222   0.044   1.139  1.2145 -0.3999 -0.9641
  127MOL0     H16717   3.208  -0.168   0.815  0.5008 -3.7137  0.2035
  127MOL0     H16718   3.485  -0.076   0.611 -0.7839 -0.3746 -1.0797
  127MOL0     H16719   3.414  -0.240   0.636  1.2655 -0.7402  0.4352
  127MOL0     H16720   3.685  -0.159   0.727 -0.1521 -0.8402  2.5226
  127MOL0     H16721   3.652  -0.256   0.581  0.2525  0.0673  0.1068
  127MOL0     H16722   3.566  -0.320   0.872 -0.9944 -1.1944 -0.3859
  127MOL0     H16723   3.522  -0.409   0.738  0.4188  0.3357 -0.9089
  127MOL0     H16724   3.722  -0.503   0.868  2.2868  0.4396  0.3185
  127MOL0     H16725   3.815  -0.366   0.816  1.7057 -2.4026 -1.2166
  127MOL0     H16726   3.870  -0.545   0.429  3.0565  0.6637 -0.6985
  127MOL0     H16727   4.056  -0.696   0.391 -2.3226 -1.7038 -0.9736
  127MOL0     H16728   4.490  -0.927   0.564  1.8463 -2.1351  0.3141
  127MOL0     H16729   4.737  -0.950   0.590  1.7387 -0.6585  4.1957
  127MOL0     H16730   4.930  -0.771   0.508 -1.7279  0.4970  0.6371
  127MOL0     H16731   4.961  -0.931   0.578 -1.6430  0.1774 -0.1379
  127MOL0     H16732   5.125  -0.673   0.626  2.5905 -0.0359 -0.2431
  127MOL0     H16733   5.164  -0.815   0.526  0.1101 -1.1713  0.9523
  127MOL0     H16734   5.186  -0.959   0.704 -0.9595 -0.2495  0.5443
  127MOL0     H16735   5.135  -0.840   0.827  0.5144 -2.3192  0.4564
  127MOL0     H16736   5.390  -0.883   0.778 -1.6373 -1.3737  0.3634
  127MOL0     H16737   5.346  -0.801   0.623  1.0613 -0.7588  0.4426
  127MOL0     H16738   5.315  -0.683   0.907 -0.2242 -0.8303  0.0988
  127MOL0     H16739   5.278  -0.606   0.752  1.5658 -0.4210 -3.1161
  127MOL0     H16740   5.507  -0.607   0.682  0.4685 -1.5098 -0.6835
  127MOL0     H16741   5.556  -0.689   0.839 -1.3096 -1.3487 -0.7405
  127MOL0     H16742   5.422  -0.419   0.835 -3.0662 -1.6520  1.0432
  127MOL0     H16743   5.522  -0.485   0.968  3.9272  0.0271 -0.8810
  127MOL0     H16744   5.735  -0.484   0.840 -0.3696 -1.0525 -3.7527
  127MOL0     H16745   5.657  -0.329   0.902  0.6388 -2.8670  3.2611
  127MOL0     H16746   4.744  -0.610   0.836 -1.8769  1.6626 -1.7423
  127MOL0     H16747   4.498  -0.599   0.837  1.1891  1.5618 -1.5003
  127MOL0     H16748   4.144  -0.677   0.813  1.9363 -3.0663 -1.3429
  127MOL0     H16749   3.938  -0.592   0.858 -0.0039 -1.1552 -0.4952
  127MOL0     H16750   2.462   0.618   0.781  0.7832  1.3490 -0.5536
  127MOL0     H16751   2.241   0.710   0.688 -0.8681 -1.5594  0.7914
  127MOL0     H16752   1.857   0.427   0.459  0.2127  0.4908  0.2830
  127MOL0     H16753   1.640   0.464   0.365  2.1645 -1.9741 -1.8686
  127MOL0     H16754   1.559   0.833   0.102 -3.8449 -0.4266 -1.2357
  127MOL0     H16755   1.562   0.864   0.273  1.0865 -2.4344  0.8594
  127MOL0     H16756   1.346   0.923   0.157  3.5538  0.8699  0.8692
  127MOL0     H16757   1.325   0.737   0.141  3.2679  1.2168 -3.8327
  127MOL0     H16758   1.349   0.864   0.411 -1.0068  4.2393 -0.4540
  127MOL0     H16759   1.265   0.719   0.369 -1.3137  1.1983  2.1297
  127MOL0     H16760   1.106   0.856   0.236 -2.8376  1.7599  0.4513
  127MOL0     H16761   1.096   0.859   0.406  1.3245  0.9570  1.1418
  127MOL0     H16762   1.229   1.259   0.329 -2.3068  1.0144 -1.8997
  127MOL0     H16763   1.782   0.831   0.192 -0.9669  1.5161  1.6478
  127MOL0     H16764   2.013   0.792   0.282  0.1340  0.3337  3.2721
  128MOL0     O16765   2.432   6.819   7.373  0.6927  0.6838  0.0396
  128MOL0     C16766   2.442   6.704   7.389 -0.0652  0.0474 -0.5846
  128MOL0     O16767   2.349   6.612   7.406 -0.2806  0.4641 -0.6557
  128MOL0     C16768   2.214   6.641   7.413  0.5243 -0.1676  0.0667
  128MOL0     C16769   2.126   6.559   7.332 -0.2679  0.3017  0.0147
  128MOL0     C16770   1.990   6.568   7.342 -0.0747  0.3873  0.4533
  128MOL0     C16771   1.933   6.657   7.430 -0.0247 -0.3442  0.2017
  128MOL0     O16772   1.797   6.671   7.424  0.2265 -0.6757 -0.0014
  128MOL0     C16773   1.722   6.647   7.538  0.7549 -0.2511 -1.2967
  128MOL0     C16774   1.589   6.654   7.491  0.1960 -0.3293  0.0148
  128MOL0     C16775   1.477   6.620   7.599 -0.0884  0.0031 -0.3452
  128MOL0     C16776   1.332   6.648   7.540 -0.5511 -1.4061 -0.8795
  128MOL0     C16777   1.230   6.565   7.627  1.3555 -0.6886  0.4437
  128MOL0     C16778   1.095   6.572   7.564 -0.0528  0.3067 -0.3748
  128MOL0     C16779   1.039   6.430   7.540 -0.0130  0.0793  0.1078
  128MOL0     C16780   0.900   6.434   7.493 -0.6173  0.5961 -0.2442
  128MOL0     N16781   0.878   6.516   7.377  0.0613 -0.6178 -0.6944
  128MOL0     C16782   0.930   6.491   7.258  0.8975 -0.0387 -0.0912
  128MOL0     C16783   0.895   6.600   7.180  0.2872 -0.4615  0.4172
  128MOL0     C16784   0.954   6.638   7.049  0.6881 -0.0051  0.5826
  128MOL0     C16785   1.105   6.632   7.035 -0.3812 -0.1931 -0.0584
  128MOL0     C16786   1.180   6.719   7.139  0.1252  0.0917  0.2125
  128MOL0     C16787   1.333   6.723   7.122  0.1811 -0.3296 -0.5443
  128MOL0     O16788   1.367   6.793   7.002  0.0850  0.0638  0.0862
  128MOL0     C16789   1.500   6.846   6.988  1.1156  0.7531 -0.5994
  128MOL0     C16790   1.518   6.961   6.913 -0.0740  0.2517 -0.8761
  128MOL0     C16791   1.646   7.021   6.895 -0.3235 -0.1057 -0.4384
  128MOL0     C16792   1.747   6.976   6.981  1.2370 -0.5942  0.1925
  128MOL0     C16793   1.880   7.035   6.978  0.3366 -0.0458  0.6253
  128MOL0     O16794   1.969   6.987   7.065 -0.2634  0.4712  0.1411
  128MOL0     C16795   2.104   6.998   7.029 -0.6048  0.0124 -0.8964
  128MOL0     C16796   2.172   6.993   6.904  0.1596  0.4428 -0.3156
  128MOL0     C16797   2.309   7.008   6.890 -0.2068 -0.0660  0.1300
  128MOL0     C16798   2.388   7.035   7.000  0.3079 -0.5195 -0.6779
  128MOL0     O16799   2.520   7.060   6.980  0.2627  0.3075  0.8686
  128MOL0     C16800   2.611   7.020   7.091  0.0848 -0.4431  0.5918
  128MOL0     C16801   2.756   6.998   7.051  1.1038 -0.8390 -0.4108
  128MOL0     C16802   2.861   6.960   7.170  0.3491 -0.3236 -1.0524
  128MOL0     C16803   3.004   6.962   7.121  0.5297 -1.0927 -0.0655
  128MOL0     C16804   3.100   6.908   7.223  0.1348 -0.6965  1.0783
  128MOL0     C16805   3.244   6.926   7.183 -0.5739 -0.5100 -0.2081
  128MOL0     C16806   3.330   6.888   7.312  0.4418 -0.4728  0.2698
  128MOL0     C16807   3.484   6.878   7.299  0.7211 -0.1395  0.6665
  128MOL0    Cl16808   3.528   6.771   7.164 -0.1706 -0.6102 -0.3902
  128MOL0     C16809   2.325   7.048   7.126 -0.4197 -1.0993 -0.4250
  128MOL0     C16810   2.188   7.016   7.134  0.5031  0.3730  0.6078
  128MOL0     O16811   1.896   7.125   6.894 -0.5364  0.4481  0.4196
  128MOL0     C16812   1.726   6.868   7.072 -0.1037  0.1598  0.3132
  128MOL0     C16813   1.607   6.801   7.059 -0.1480 -0.4022  0.1872
  128MOL0     N16814   0.819   6.679   7.265  0.6695  0.3367  0.3893
  128MOL0     N16815   0.802   6.622   7.383 -0.0140 -0.1506  0.8991
  128MOL0     C16816   2.017   6.735   7.512 -0.6116 -0.5070  1.0055
  128MOL0     C16817   2.160   6.731   7.501  0.2289  0.2394  1.4006
  128MOL0     C16818   2.577   6.673   7.452 -0.0421  0.7050 -0.2083
  128MOL0     C16819   2.603   6.546   7.515  0.8836  0.0196  0.2193
  128MOL0     C16820   2.719   6.527   7.582 -0.0981  0.7196 -0.3601
  128MOL0     C16821   2.820   6.623   7.595 -0.7366 -0.5526 -0.3955
  128MOL0     O16822   2.939   6.599   7.668  0.0635 -0.1054  0.3137
  128MOL0     C16823   2.959   6.481   7.742  0.1883 -0.4255  1.1035
  128MOL0     C16824   3.083   6.502   7.813 -0.6182 -0.2849  0.1810
  128MOL0     C16825   3.200   6.536   7.721 -0.9786  0.7085 -0.0773
  128MOL0     C16826   3.248   6.432   7.616 -0.1685  0.8014 -0.2305
  128MOL0     C16827   3.367   6.483   7.545 -0.3989 -0.4700  0.1921
  128MOL0     C16828   3.464   6.533   7.490 -0.3827 -0.1402 -0.1505
  128MOL0     C16829   2.799   6.744   7.534 -0.7794 -0.1219  1.1285
  128MOL0     C16830   2.679   6.777   7.464  2.0574  0.0870 -0.4138
  128MOL0     H16831   2.153   6.486   7.257 -1.3645  0.6450 -0.7386
  128MOL0     H16832   1.926   6.515   7.273 -0.7201  2.3712 -0.5686
  128MOL0     H16833   1.742   6.714   7.622 -0.9757 -2.1192  0.7177
  128MOL0     H16834   1.736   6.546   7.578  2.0951  1.3527  2.8644
  128MOL0     H16835   1.594   6.577   7.414  0.1002 -1.6872  1.3220
  128MOL0     H16836   1.575   6.752   7.446  0.6847 -0.2667 -0.0086
  128MOL0     H16837   1.501   6.681   7.686  4.4790 -0.3298 -1.1272
  128MOL0     H16838   1.482   6.518   7.637 -1.5215 -0.7767 -2.0653
  128MOL0     H16839   1.308   6.754   7.531 -2.8593 -1.6104  1.5654
  128MOL0     H16840   1.333   6.614   7.436  3.1417  0.4864 -1.6328
  128MOL0     H16841   1.210   6.610   7.724 -2.6716 -2.4730  0.5991
  128MOL0     H16842   1.265   6.463   7.642  1.1693 -0.6553  1.1312
  128MOL0     H16843   1.109   6.626   7.470  2.5515 -3.5440 -2.4734
  128MOL0     H16844   1.028   6.630   7.628 -0.7947  0.0367 -0.8925
  128MOL0     H16845   1.093   6.375   7.462  0.5390 -0.5650  0.9217
  128MOL0     H16846   1.043   6.375   7.635 -2.6007 -0.7452 -0.1903
  128MOL0     H16847   0.841   6.464   7.580  2.3058 -0.3617  2.2640
  128MOL0     H16848   0.874   6.332   7.463  0.7821 -0.0911  0.7441
  128MOL0     H16849   0.988   6.402   7.237 -2.3224 -2.5462  0.8255
  128MOL0     H16850   0.916   6.740   7.033 -1.7727 -0.4636  2.7851
  128MOL0     H16851   0.910   6.567   6.978  1.3003 -1.5980  1.7449
  128MOL0     H16852   1.121   6.680   6.939 -3.0370  1.2421  0.1399
  128MOL0     H16853   1.144   6.530   7.026  0.7822 -0.1036  2.8629
  128MOL0     H16854   1.158   6.824   7.117  2.0419  0.3508 -0.6409
  128MOL0     H16855   1.154   6.679   7.238 -0.8411  1.5239  0.5590
  128MOL0     H16856   1.362   6.618   7.115 -0.3018 -0.4862 -0.2705
  128MOL0     H16857   1.378   6.761   7.214  0.2308 -1.8818  0.1022
  128MOL0     H16858   1.424   6.999   6.875 -2.7966 -1.0182  3.7568
  128MOL0     H16859   1.655   7.106   6.828 -2.9754  2.8643  2.5775
  128MOL0     H16860   2.111   6.984   6.814  1.1555 -1.2340 -0.8694
  128MOL0     H16861   2.359   7.008   6.793  0.9831  1.9257  0.6776
  128MOL0     H16862   2.576   6.919   7.114 -1.7821 -0.6985 -2.7536
  128MOL0     H16863   2.602   7.102   7.164  0.7356  1.1559 -1.0349
  128MOL0     H16864   2.797   7.094   7.020  0.7428  0.4553  2.7148
  128MOL0     H16865   2.758   6.917   6.977  1.3981 -1.0848 -0.1401
  128MOL0     H16866   2.845   6.856   7.201 -0.5363 -0.2463 -1.2408
  128MOL0     H16867   2.854   7.022   7.260  3.0326  0.5989 -1.4040
  128MOL0     H16868   3.017   6.892   7.037 -0.2895  2.7113 -3.7095
  128MOL0     H16869   3.028   7.063   7.085 -1.1607 -0.9971 -1.0333
  128MOL0     H16870   3.083   6.803   7.246  1.1271 -0.8502  1.1529
  128MOL0     H16871   3.087   6.958   7.320 -0.9487 -0.4207  0.8092
  128MOL0     H16872   3.271   7.029   7.158  0.9396 -0.6300  0.7512
  128MOL0     H16873   3.277   6.857   7.105  0.0523 -2.1029  1.4044
  128MOL0     H16874   3.307   6.971   7.379  2.4351  1.8241 -1.7361
  128MOL0     H16875   3.292   6.793   7.351 -0.8698 -0.7484 -1.5286
  128MOL0     H16876   3.529   6.833   7.388 -1.8832  0.4751  2.4153
  128MOL0     H16877   3.540   6.971   7.287  1.1310 -0.4123  0.4348
  128MOL0     H16878   2.387   7.065   7.213  1.3231  0.0445 -1.8090
  128MOL0     H16879   2.134   7.033   7.227 -3.8856 -2.1159 -1.1814
  128MOL0     H16880   1.799   6.813   7.131 -0.8651 -0.9307  0.2675
  128MOL0     H16881   1.600   6.716   7.125 -3.1159 -0.8581 -0.6023
  128MOL0     H16882   1.983   6.816   7.576  1.2630 -0.5380  2.1265
  128MOL0     H16883   2.224   6.782   7.573  0.3137 -0.3703  1.7626
  128MOL0     H16884   2.518   6.478   7.519 -1.0114  2.2162 -0.2293
  128MOL0     H16885   2.737   6.428   7.622 -3.1072  1.0227  2.1694
  128MOL0     H16886   2.986   6.405   7.669  2.3342  2.3883 -1.2763
  128MOL0     H16887   2.872   6.454   7.802 -0.5622 -1.2107 -0.2979
  128MOL0     H16888   3.050   6.576   7.887 -1.2285 -1.7891  1.4659
  128MOL0     H16889   3.105   6.409   7.866 -3.0822 -2.5887 -2.5064
  128MOL0     H16890   3.283   6.553   7.790 -1.9188 -0.9279  1.5500
  128MOL0     H16891   3.162   6.626   7.672 -1.2594  0.2544 -0.7120
  128MOL0     H16892   3.272   6.347   7.680 -0.7408  0.7640 -0.0543
  128MOL0     H16893   3.164   6.391   7.558 -0.5390  0.1224  0.7533
  128MOL0     H16894   3.546   6.579   7.438 -0.3550  2.2428  1.8105
  128MOL0     H16895   2.879   6.813   7.560 -0.9871  0.2769  0.7211
  128MOL0     H16896   2.664   6.865   7.404  0.9512 -1.3371 -2.3514
  129MOL0     O16897   1.864   8.518   1.366 -0.6040 -0.0710  0.0007
  129MOL0     C16898   1.832   8.628   1.399 -0.3501 -0.6807  0.8970
  129MOL0     O16899   1.720   8.670   1.454 -0.0883 -0.4059 -0.3160
  129MOL0     C16900   1.643   8.584   1.531 -0.3589  0.5490  0.1969
  129MOL0     C16901   1.519   8.633   1.568 -0.1195 -0.1838 -0.1252
  129MOL0     C16902   1.442   8.564   1.653  0.8153  0.6724 -0.4017
  129MOL0     C16903   1.481   8.436   1.705  0.2632  0.2664 -0.6820
  129MOL0     O16904   1.400   8.388   1.807 -0.4125  0.4205  0.7393
  129MOL0     C16905   1.288   8.323   1.745 -0.1585  0.2399  0.2153
  129MOL0     C16906   1.197   8.265   1.848  0.2572 -0.5006 -1.0062
  129MOL0     C16907   1.067   8.213   1.788 -1.0076  1.0696  0.3339
  129MOL0     C16908   0.973   8.174   1.905  1.4232  1.1736  0.6183
  129MOL0     C16909   0.839   8.111   1.855 -0.1062  0.4768 -0.0885
  129MOL0     C16910   0.765   8.043   1.972 -0.1941 -0.0223 -0.0134
  129MOL0     C16911   0.622   8.001   1.939  0.4406  0.3936  0.3311
  129MOL0     C16912   0.598   7.887   1.839  0.1239  0.5987 -0.1180
  129MOL0     N16913   0.471   7.903   1.773  0.7325 -0.0985  0.1359
  129MOL0     C16914   0.350   7.907   1.835  0.7189 -0.1575  0.8549
  129MOL0     C16915   0.258   7.918   1.739  0.3224 -0.2496 -0.7264
  129MOL0     C16916   0.110   7.928   1.768 -0.1550  0.5553 -0.4792
  129MOL0     C16917   0.005   7.949   1.648 -1.1482 -0.2381  0.2174
  129MOL0     C16918   0.044   8.054   1.542  0.2722 -0.2565  0.1648
  129MOL0     C16919  -0.087   8.108   1.478  0.3360  0.0968 -0.1291
  129MOL0     O16920  -0.182   8.172   1.560  0.1644  0.0092 -0.1052
  129MOL0     C16921  -0.289   8.240   1.494  0.7532  0.5624 -0.2320
  129MOL0     C16922  -0.382   8.179   1.417  0.5720  0.4603 -0.0519
  129MOL0     C16923  -0.494   8.245   1.369 -0.5248 -0.1923 -0.6470
  129MOL0     C16924  -0.522   8.378   1.402 -0.8959 -0.6859 -0.3901
  129MOL0     C16925  -0.644   8.450   1.352  0.1909  1.1281 -0.1786
  129MOL0     O16926  -0.660   8.581   1.392 -0.5013  0.0632  0.4041
  129MOL0     C16927  -0.779   8.639   1.363 -0.4295  1.1378  0.3940
  129MOL0     C16928  -0.778   8.761   1.312  0.3085  0.0177 -0.6255
  129MOL0     C16929  -0.905   8.829   1.299 -0.0560  0.9330  0.3991
  129MOL0     C16930  -1.020   8.773   1.351  0.1502 -1.2118  0.3202
  129MOL0     O16931  -1.144   8.833   1.375 -0.0170  0.0246 -1.1639
  129MOL0     C16932  -1.167   8.961   1.323  0.1773 -0.6959  0.0248
  129MOL0     C16933  -1.323   8.986   1.343 -0.3557 -0.1858 -0.2050
  129MOL0     C16934  -1.357   9.113   1.273 -0.0256  0.1115  0.0751
  129MOL0     C16935  -1.500   9.145   1.266 -0.4089 -0.0185 -1.1842
  129MOL0     C16936  -1.512   9.245   1.163 -0.6332  0.3094  0.6715
  129MOL0     C16937  -1.654   9.318   1.177 -0.1222  1.2476  0.8602
  129MOL0     C16938  -1.678   9.426   1.075 -0.2178 -0.3573  0.7177
  129MOL0     C16939  -1.813   9.484   1.097 -0.1540 -0.5108 -0.2325
  129MOL0    Cl16940  -1.928   9.349   1.061  0.2927  0.1192 -0.1774
  129MOL0     C16941  -1.008   8.652   1.418  0.4216 -1.0395 -0.3833
  129MOL0     C16942  -0.894   8.582   1.416 -0.7948  0.2633 -0.5059
  129MOL0     O16943  -0.718   8.388   1.270 -0.2067 -0.2596  0.0135
  129MOL0     C16944  -0.432   8.442   1.490 -0.9458 -0.1467 -0.1316
  129MOL0     C16945  -0.317   8.369   1.547  0.3902 -1.1202  0.1983
  129MOL0     N16946   0.324   7.932   1.619 -0.1657 -0.0041 -0.9383
  129MOL0     N16947   0.453   7.926   1.638 -0.3214 -0.4922  0.9548
  129MOL0     C16948   1.600   8.385   1.674 -0.5908  0.1685 -0.5705
  129MOL0     C16949   1.689   8.456   1.585 -0.3332 -0.5781 -0.5433
  129MOL0     C16950   1.929   8.730   1.360 -0.8160 -0.0918 -0.1247
  129MOL0     C16951   2.054   8.697   1.314  0.1354  0.3464  0.2775
  129MOL0     C16952   2.150   8.787   1.274 -0.4282 -0.2044  0.4924
  129MOL0     C16953   2.123   8.922   1.266  0.6522  0.2437  0.3774
  129MOL0     O16954   2.227   9.010   1.233  0.5281 -0.5407  0.0418
  129MOL0     C16955   2.194   9.140   1.182  0.5319 -0.5415 -0.6386
  129MOL0     C16956   2.128   9.144   1.039 -0.0122 -0.3956  0.0886
  129MOL0     C16957   2.208   9.248   0.949 -0.0240 -0.1087 -0.2140
  129MOL0     C16958   2.180   9.220   0.803  0.0833 -0.3884 -0.3498
  129MOL0     C16959   2.040   9.239   0.764  1.0400  1.1963 -0.3694
  129MOL0     C16960   1.933   9.253   0.709  0.0811 -0.5906 -0.5271
  129MOL0     C16961   1.995   8.962   1.307  0.0703 -0.1591  0.1891
  129MOL0     C16962   1.899   8.868   1.353  0.5226  0.4504  0.9069
  129MOL0     H16963   1.489   8.732   1.534  3.1593  0.2568 -2.1584
  129MOL0     H16964   1.341   8.590   1.684  1.2747  0.1226  1.7063
  129MOL0     H16965   1.325   8.246   1.676 -0.5834  0.9567 -0.8280
  129MOL0     H16966   1.232   8.395   1.685  2.3032  0.8282 -1.5572
  129MOL0     H16967   1.168   8.349   1.912 -0.0831 -1.8062  0.6312
  129MOL0     H16968   1.246   8.186   1.905 -1.5866  0.0156  1.4940
  129MOL0     H16969   1.092   8.125   1.728  2.5797  0.6669  2.1682
  129MOL0     H16970   1.011   8.288   1.732 -3.7050 -0.3712  0.9029
  129MOL0     H16971   1.019   8.090   1.958 -2.4833 -1.6560 -0.0495
  129MOL0     H16972   0.954   8.259   1.972 -1.1785 -0.7724  2.5543
  129MOL0     H16973   0.858   8.037   1.777  0.1962  0.4586  0.0012
  129MOL0     H16974   0.780   8.190   1.809 -0.8406 -0.4609 -0.8159
  129MOL0     H16975   0.755   8.103   2.063 -0.2456 -0.1597  0.0708
  129MOL0     H16976   0.812   7.950   2.006 -0.0378 -0.1307 -0.5159
  129MOL0     H16977   0.582   7.952   2.029  0.2176 -1.2392 -0.6138
  129MOL0     H16978   0.566   8.094   1.927  0.0002  0.4634  2.4690
  129MOL0     H16979   0.604   7.793   1.895 -0.4994  0.3193 -0.5143
  129MOL0     H16980   0.674   7.889   1.760  0.6273  2.4362  0.3510
  129MOL0     H16981   0.342   7.878   1.939 -0.9199 -0.4921  0.6686
  129MOL0     H16982   0.093   8.010   1.838  2.3907  1.5368 -0.9020
  129MOL0     H16983   0.074   7.841   1.823 -1.0131  2.3340  1.9513
  129MOL0     H16984  -0.097   7.948   1.688 -0.8369 -2.2016  1.0834
  129MOL0     H16985   0.003   7.856   1.591  0.6023 -0.5664  0.6325
  129MOL0     H16986   0.101   8.136   1.587 -0.4850  1.4877 -1.9252
  129MOL0     H16987   0.116   8.020   1.467  3.0015  4.2892  0.3087
  129MOL0     H16988  -0.127   8.024   1.421  1.0029 -0.4535  0.2048
  129MOL0     H16989  -0.063   8.184   1.403 -1.3876  1.3718  0.5511
  129MOL0     H16990  -0.366   8.075   1.391 -1.9169  0.2411 -0.9626
  129MOL0     H16991  -0.541   8.177   1.298 -0.2727 -3.7210  2.2805
  129MOL0     H16992  -0.694   8.825   1.286 -0.5414  0.6485 -1.9443
  129MOL0     H16993  -0.887   8.931   1.265 -0.1340  0.2016 -2.0242
  129MOL0     H16994  -1.136   8.949   1.218  3.8104 -1.9943  1.0961
  129MOL0     H16995  -1.106   9.040   1.368  1.1026 -1.4637  0.1526
  129MOL0     H16996  -1.343   8.992   1.451  2.2886 -2.6372  0.5453
  129MOL0     H16997  -1.389   8.908   1.306 -2.6769  2.5138 -2.1847
  129MOL0     H16998  -1.323   9.100   1.170  1.2300 -0.8371  0.5915
  129MOL0     H16999  -1.309   9.196   1.324 -3.4856 -0.3172  4.7285
  129MOL0     H17000  -1.563   9.060   1.237  0.1786 -1.6534  1.8871
  129MOL0     H17001  -1.535   9.177   1.365 -1.2185 -0.5064 -1.2965
  129MOL0     H17002  -1.514   9.210   1.060 -1.8146  1.0099  0.4359
  129MOL0     H17003  -1.428   9.314   1.180  0.8656 -0.7074 -1.9725
  129MOL0     H17004  -1.661   9.364   1.276 -0.6925  3.6748 -0.2381
  129MOL0     H17005  -1.730   9.239   1.179  2.0846 -1.1709 -1.7275
  129MOL0     H17006  -1.604   9.507   1.084  0.8881 -0.6731 -3.6105
  129MOL0     H17007  -1.668   9.390   0.972 -3.4359 -1.9523  0.8362
  129MOL0     H17008  -1.827   9.564   1.024 -0.0217  0.6880  1.0068
  129MOL0     H17009  -1.802   9.522   1.199  1.3286 -1.2311 -0.0886
  129MOL0     H17010  -1.100   8.619   1.466  0.4090 -1.1448 -0.4801
  129MOL0     H17011  -0.875   8.485   1.461  2.1175  0.9441 -0.0592
  129MOL0     H17012  -0.435   8.544   1.527  0.2529 -0.2605  0.3173
  129MOL0     H17013  -0.250   8.411   1.621 -0.0774 -1.1022  0.6185
  129MOL0     H17014   1.636   8.296   1.723  0.6814  1.0165  0.0958
  129MOL0     H17015   1.787   8.415   1.566 -0.4329 -1.2740  0.3648
  129MOL0     H17016   2.078   8.593   1.292 -0.4765  0.1276  0.6222
  129MOL0     H17017   2.244   8.746   1.239  0.8059  2.6088  0.2268
  129MOL0     H17018   2.287   9.197   1.187  0.0310  0.3564 -1.1552
  129MOL0     H17019   2.130   9.197   1.251 -1.4124 -1.9087 -1.2134
  129MOL0     H17020   2.136   9.047   0.990 -2.2830  0.2615 -1.7565
  129MOL0     H17021   2.022   9.168   1.051 -0.2072 -2.1061  2.6587
  129MOL0     H17022   2.315   9.241   0.969 -0.1549 -1.6634  0.0863
  129MOL0     H17023   2.182   9.349   0.984 -0.0624 -0.3362  0.4305
  129MOL0     H17024   2.242   9.287   0.743 -0.4356 -0.0655 -0.5274
  129MOL0     H17025   2.194   9.113   0.781 -0.2406 -0.5525  0.2435
  129MOL0     H17026   1.840   9.266   0.656 -0.0484 -0.3623 -0.2448
  129MOL0     H17027   1.966   9.066   1.315  1.9392  0.3583  0.8634
  129MOL0     H17028   1.802   8.902   1.388 -1.0970 -2.1837 -0.6732
  130MOL0     O17029   7.849   2.539   9.517 -0.2619 -0.0353 -0.8596
  130MOL0     C17030   7.878   2.433   9.573  0.4646  0.8280 -1.1919
  130MOL0     O17031   7.812   2.376   9.682 -0.7250  0.3948 -0.9161
  130MOL0     C17032   7.683   2.417   9.704  0.6948  0.5510 -0.7455
  130MOL0     C17033   7.646   2.549   9.742 -1.4616  0.7503 -0.5145
  130MOL0     C17034   7.521   2.589   9.773  1.1837  0.3036 -0.1747
  130MOL0     C17035   7.411   2.495   9.762  0.6142 -0.3139  0.5345
  130MOL0     O17036   7.284   2.548   9.777  0.2449 -0.4400 -0.3213
  130MOL0     C17037   7.163   2.476   9.777  0.7085  0.1617 -0.3545
  130MOL0     C17038   7.055   2.578   9.787 -0.1096 -0.4214 -0.2885
  130MOL0     C17039   6.918   2.512   9.772 -0.1203  0.6147 -0.1396
  130MOL0     C17040   6.799   2.607   9.760 -0.7647  1.0694  0.0684
  130MOL0     C17041   6.651   2.560   9.744  0.5512  1.0087 -0.2875
  130MOL0     C17042   6.617   2.491   9.607  0.1880  0.4090 -0.6447
  130MOL0     C17043   6.475   2.433   9.578 -0.9378 -0.5300 -0.4668
  130MOL0     C17044   6.414   2.372   9.692  0.8806 -0.3359  1.5074
  130MOL0     N17045   6.320   2.271   9.648 -0.2265  0.3751  0.2434
  130MOL0     C17046   6.353   2.142   9.602 -0.8380  1.0508  0.0147
  130MOL0     C17047   6.235   2.073   9.593 -0.0782 -0.9603  0.8258
  130MOL0     C17048   6.224   1.943   9.528  0.1462  0.4447  0.1988
  130MOL0     C17049   6.234   1.948   9.377 -0.2693 -0.3108  0.0601
  130MOL0     C17050   6.117   2.007   9.306  0.0338  0.5565 -0.0786
  130MOL0     C17051   6.114   1.973   9.156  0.4155 -0.4836  0.4221
  130MOL0     O17052   6.224   2.030   9.082 -0.4482 -0.4554  0.0197
  130MOL0     C17053   6.346   1.972   9.050 -0.3623  1.4540  0.2766
  130MOL0     C17054   6.416   2.041   8.956  0.4809  0.4050  0.1912
  130MOL0     C17055   6.550   2.004   8.932  0.6381 -0.0306  0.0326
  130MOL0     C17056   6.603   1.888   8.992 -0.2143 -0.7387 -0.1661
  130MOL0     C17057   6.744   1.839   8.961 -0.2361  0.4149  0.0199
  130MOL0     O17058   6.821   1.913   8.876  0.2729  0.1790  0.7758
  130MOL0     C17059   6.949   1.858   8.847  0.5537 -0.6872 -0.0988
  130MOL0     C17060   7.004   1.871   8.719  0.9326  0.0046  0.2147
  130MOL0     C17061   7.134   1.835   8.680 -0.7571  0.1018 -1.3243
  130MOL0     C17062   7.227   1.798   8.777 -0.7410 -0.0128  0.4083
  130MOL0     O17063   7.348   1.759   8.737  0.1109 -0.3603  0.4335
  130MOL0     C17064   7.442   1.743   8.840  0.1271  0.1718 -0.4651
  130MOL0     C17065   7.558   1.676   8.764 -0.1572 -0.3281  0.3511
  130MOL0     C17066   7.644   1.772   8.670 -0.4295  0.6439  0.3560
  130MOL0     C17067   7.721   1.690   8.567  0.7376 -0.2868 -0.0293
  130MOL0     C17068   7.803   1.582   8.628 -0.8039 -0.8077 -0.6253
  130MOL0     C17069   7.909   1.636   8.730 -0.3373  0.4711 -0.2652
  130MOL0     C17070   8.008   1.739   8.674  0.4376  0.1382  0.0488
  130MOL0     C17071   8.127   1.693   8.589  0.9600  1.0176 -0.5364
  130MOL0    Cl17072   8.217   1.830   8.514 -0.4655  0.2964  0.3810
  130MOL0     C17073   7.176   1.788   8.910 -0.3674  0.0949  0.2644
  130MOL0     C17074   7.041   1.823   8.940  0.2656  1.1277 -0.6305
  130MOL0     O17075   6.769   1.724   9.003  0.1181  0.1375 -0.6711
  130MOL0     C17076   6.521   1.819   9.080 -0.1402  1.0943 -0.3496
  130MOL0     C17077   6.389   1.852   9.101  0.2874  0.4449 -0.0021
  130MOL0     N17078   6.132   2.145   9.650 -0.1286  0.2250  0.3085
  130MOL0     N17079   6.188   2.256   9.678  0.2074 -1.0942  0.8122
  130MOL0     C17080   7.435   2.358   9.725  0.6413 -0.4368  0.0579
  130MOL0     C17081   7.571   2.330   9.689  0.1623 -0.6015  0.4948
  130MOL0     C17082   8.005   2.361   9.526  0.5233 -0.5942 -0.5660
  130MOL0     C17083   8.063   2.257   9.588 -0.4698  0.6143  0.2144
  130MOL0     C17084   8.167   2.182   9.520  0.0704 -0.0460  0.0384
  130MOL0     C17085   8.229   2.223   9.399  0.2925 -0.6040  0.1373
  130MOL0     O17086   8.334   2.159   9.341 -0.2490  0.0949  0.2514
  130MOL0     C17087   8.349   2.019   9.365  0.3467 -0.2563 -0.7952
  130MOL0     C17088   8.397   1.959   9.237 -0.1041 -0.2695 -0.2656
  130MOL0     C17089   8.547   1.997   9.219  0.5947 -0.3517  0.3185
  130MOL0     C17090   8.607   1.956   9.087  0.1965 -0.2701 -0.1988
  130MOL0     C17091   8.748   1.998   9.074  0.1909 -1.1469 -0.2251
  130MOL0     C17092   8.866   2.033   9.067  0.1232  0.4572 -0.8050
  130MOL0     C17093   8.171   2.345   9.341 -0.2089  0.0020  1.0763
  130MOL0     C17094   8.062   2.404   9.404 -0.9237  0.9149  0.5486
  130MOL0     H17095   7.736   2.610   9.746 -0.0802 -0.9800 -2.8561
  130MOL0     H17096   7.509   2.687   9.817 -3.7295  0.5202 -1.3533
  130MOL0     H17097   7.154   2.408   9.862  1.5946  0.5852  0.0887
  130MOL0     H17098   7.147   2.431   9.678 -2.2633 -0.5978  0.3897
  130MOL0     H17099   7.065   2.657   9.711  1.6328  0.2236  0.5593
  130MOL0     H17100   7.072   2.632   9.880  1.3891  1.1549 -1.4191
  130MOL0     H17101   6.905   2.443   9.856 -1.1498 -0.5552 -1.2185
  130MOL0     H17102   6.919   2.444   9.686  0.0975 -2.5993  2.1891
  130MOL0     H17103   6.798   2.686   9.836 -1.6270  1.5335 -0.4044
  130MOL0     H17104   6.819   2.659   9.666  1.3252  0.8358  0.3296
  130MOL0     H17105   6.575   2.638   9.753 -1.0451 -0.3023 -1.6560
  130MOL0     H17106   6.632   2.487   9.823 -1.4760  1.5133 -0.2549
  130MOL0     H17107   6.689   2.408   9.609 -0.1483  0.0778  2.9997
  130MOL0     H17108   6.646   2.562   9.529  0.0017  3.8338  2.1538
  130MOL0     H17109   6.416   2.519   9.544 -0.5686  0.8248  2.0584
  130MOL0     H17110   6.473   2.366   9.492 -3.4446 -0.7554 -0.2971
  130MOL0     H17111   6.366   2.456   9.742  1.1470 -0.8109  2.5956
  130MOL0     H17112   6.492   2.326   9.754  0.7984 -2.2304  0.3031
  130MOL0     H17113   6.442   2.099   9.558 -0.9341 -0.4447  1.2167
  130MOL0     H17114   6.131   1.897   9.563 -0.6950  2.6498  1.0767
  130MOL0     H17115   6.304   1.880   9.568  1.0626  2.4242  1.6852
  130MOL0     H17116   6.251   1.847   9.339  1.9921  0.2547 -0.5712
  130MOL0     H17117   6.326   1.999   9.346  0.5423  0.2595  3.0823
  130MOL0     H17118   6.024   1.962   9.342  0.6521 -2.9101 -2.2788
  130MOL0     H17119   6.112   2.116   9.313 -3.6502  0.8221 -3.1214
  130MOL0     H17120   6.030   2.024   9.109  1.4777 -0.8407 -2.0683
  130MOL0     H17121   6.103   1.867   9.134 -1.6003 -1.1148  3.7649
  130MOL0     H17122   6.366   2.121   8.903 -1.5220 -1.0017 -0.1824
  130MOL0     H17123   6.601   2.071   8.864  0.8750  0.8146  1.0223
  130MOL0     H17124   6.935   1.892   8.638  2.3327 -0.2797 -1.0920
  130MOL0     H17125   7.178   1.843   8.581 -2.3379  0.6085 -2.0219
  130MOL0     H17126   7.418   1.665   8.912 -1.7535  0.2097 -1.0208
  130MOL0     H17127   7.473   1.837   8.887 -0.0057  0.2292 -0.4942
  130MOL0     H17128   7.527   1.586   8.711 -0.2064  0.5607 -1.1876
  130MOL0     H17129   7.623   1.648   8.848 -2.0541 -0.6441  1.7669
  130MOL0     H17130   7.719   1.826   8.728 -0.7008  1.8773 -0.4288
  130MOL0     H17131   7.578   1.845   8.622  0.2950  0.5460 -0.8191
  130MOL0     H17132   7.656   1.643   8.493  0.2626 -0.9157  0.7713
  130MOL0     H17133   7.783   1.762   8.514  2.1709 -0.6991  1.0317
  130MOL0     H17134   7.853   1.543   8.539 -0.7701 -1.7960 -0.1882
  130MOL0     H17135   7.749   1.498   8.673  3.0136 -1.9285  2.4478
  130MOL0     H17136   7.969   1.550   8.762 -1.7314 -0.2260  0.5391
  130MOL0     H17137   7.860   1.666   8.823 -2.1650  0.5652 -1.2285
  130MOL0     H17138   7.957   1.819   8.620  0.2180  0.1960  0.3401
  130MOL0     H17139   8.050   1.796   8.757  2.9251 -2.1817  0.5402
  130MOL0     H17140   8.095   1.627   8.507 -0.4107  1.1680 -0.1580
  130MOL0     H17141   8.192   1.640   8.658 -0.4641 -1.6215 -1.0828
  130MOL0     H17142   7.239   1.760   8.993  0.2967 -0.6875 -0.4845
  130MOL0     H17143   7.009   1.805   9.042  2.4174  0.6042 -0.0039
  130MOL0     H17144   6.547   1.715   9.094 -3.7748  0.1311  0.5516
  130MOL0     H17145   6.324   1.781   9.151  1.2971 -1.6419 -1.5106
  130MOL0     H17146   7.358   2.285   9.703  1.6130 -1.5878  0.3804
  130MOL0     H17147   7.586   2.226   9.659 -1.6064 -0.9504  0.6904
  130MOL0     H17148   8.039   2.222   9.688  1.4094 -0.1892  0.4269
  130MOL0     H17149   8.218   2.099   9.569  0.9044 -0.4991 -1.5327
  130MOL0     H17150   8.248   1.980   9.382  0.4696  0.0082  0.7693
  130MOL0     H17151   8.405   1.994   9.456  0.9177  3.4698  0.0392
  130MOL0     H17152   8.371   1.853   9.239 -2.8429  0.3054 -0.8137
  130MOL0     H17153   8.322   2.002   9.170 -0.0431  0.9939  0.4343
  130MOL0     H17154   8.604   1.953   9.301 -1.6009  0.3773  2.3528
  130MOL0     H17155   8.548   2.107   9.225 -2.4769 -0.0721 -1.8043
  130MOL0     H17156   8.605   1.846   9.082  2.0750 -0.2783 -2.3217
  130MOL0     H17157   8.549   1.993   9.002 -1.4981  1.6821  1.6665
  130MOL0     H17158   8.966   2.063   9.092  1.3263 -1.5694 -2.8041
  130MOL0     H17159   8.216   2.397   9.257 -1.0493  0.2514  0.7657
  130MOL0     H17160   8.015   2.484   9.349 -0.2996  0.4307 -0.7331
  131MOL0     O17161   4.709   4.851   3.535 -0.0870  0.1666  1.0241
  131MOL0     C17162   4.780   4.763   3.579 -0.4468 -0.1415  0.1073
  131MOL0     O17163   4.731   4.655   3.648 -0.6138 -0.5504 -0.1356
  131MOL0     C17164   4.603   4.628   3.676  0.0413 -0.2658 -0.1614
  131MOL0     C17165   4.497   4.645   3.582 -0.1758 -0.0069 -0.1802
  131MOL0     C17166   4.368   4.593   3.613 -0.4327  0.1194  0.4328
  131MOL0     C17167   4.339   4.528   3.735 -0.0582 -0.0030  0.1780
  131MOL0     O17168   4.210   4.479   3.749 -0.0622 -0.3652 -0.0181
  131MOL0     C17169   4.192   4.380   3.850 -0.0088 -0.3371  0.4032
  131MOL0     C17170   4.046   4.320   3.844  0.4260 -0.7792 -0.0998
  131MOL0     C17171   4.050   4.215   3.960 -0.1440 -1.1312 -0.3672
  131MOL0     C17172   3.911   4.189   4.010 -0.5693 -1.2094  0.0581
  131MOL0     C17173   3.887   4.073   4.107  0.1321 -0.7215  0.1222
  131MOL0     C17174   3.983   4.092   4.226  0.0527  0.6581 -0.7342
  131MOL0     C17175   3.993   3.966   4.319 -0.0469 -0.1429 -0.3469
  131MOL0     C17176   4.074   3.983   4.453 -0.8836  0.4542  0.4873
  131MOL0     N17177   4.214   4.031   4.423 -0.5171  1.3344  0.4654
  131MOL0     C17178   4.280   3.988   4.314  0.2297 -0.2468 -0.5279
  131MOL0     C17179   4.411   4.022   4.332  0.1827  0.7801 -0.1031
  131MOL0     C17180   4.518   3.987   4.228 -0.0089  0.2445  0.2228
  131MOL0     C17181   4.554   3.832   4.233  0.2961 -1.0263 -0.0549
  131MOL0     C17182   4.683   3.809   4.139  0.4738 -0.1701  0.1488
  131MOL0     C17183   4.761   3.682   4.151  0.1629  0.8555  0.0739
  131MOL0     O17184   4.846   3.644   4.038 -0.3721 -0.4114  0.8920
  131MOL0     C17185   4.963   3.713   4.004 -0.0373 -0.0058 -0.2185
  131MOL0     C17186   5.062   3.736   4.099  0.2187  0.3557  0.2972
  131MOL0     C17187   5.181   3.800   4.063 -0.3478  0.0742  1.1747
  131MOL0     C17188   5.199   3.830   3.924 -0.6408 -0.8888 -0.3893
  131MOL0     C17189   5.327   3.886   3.872  0.1676 -0.1965  0.5783
  131MOL0     O17190   5.421   3.902   3.974  0.1868  0.2670 -0.1414
  131MOL0     C17191   5.547   3.925   3.929  0.6882 -0.1554 -0.3171
  131MOL0     C17192   5.624   3.854   3.830 -0.5828  1.1134  0.0298
  131MOL0     C17193   5.760   3.871   3.818  0.7906  0.3476  0.7947
  131MOL0     C17194   5.824   3.954   3.905  0.9764 -0.0764 -0.8311
  131MOL0     O17195   5.959   3.967   3.894 -0.0142 -0.6102 -0.1644
  131MOL0     C17196   5.990   4.109   3.869  0.1465  0.3345  0.6320
  131MOL0     C17197   6.137   4.121   3.817 -0.3621 -0.4057  0.4541
  131MOL0     C17198   6.184   4.271   3.801 -0.1386 -0.9186 -0.9477
  131MOL0     C17199   6.330   4.293   3.735  0.9251  0.3109  0.2795
  131MOL0     C17200   6.423   4.206   3.823 -0.3498 -0.0498 -0.1602
  131MOL0     C17201   6.573   4.260   3.808 -0.0791  0.0670 -0.6066
  131MOL0     C17202   6.634   4.223   3.664 -0.1686  0.4520 -0.1929
  131MOL0     C17203   6.770   4.279   3.643 -0.0974  0.6203  0.1165
  131MOL0    Cl17204   6.822   4.204   3.501 -0.0034 -0.0611 -0.0519
  131MOL0     C17205   5.752   4.029   4.002  0.0247 -0.1930  0.0879
  131MOL0     C17206   5.614   4.015   4.020  0.0473  0.2059  1.1451
  131MOL0     O17207   5.345   3.893   3.750 -0.0404  0.6918 -0.5423
  131MOL0     C17208   5.101   3.810   3.831 -0.0899 -0.1950 -0.7732
  131MOL0     C17209   4.983   3.747   3.867  0.2474 -0.5174 -0.1989
  131MOL0     N17210   4.412   4.083   4.460 -0.8749  0.2738 -0.0668
  131MOL0     N17211   4.303   4.077   4.515  1.3076  0.4476  0.2625
  131MOL0     C17212   4.445   4.522   3.829 -0.0952  0.2060  0.2845
  131MOL0     C17213   4.575   4.577   3.805 -0.0956  0.4627  0.2276
  131MOL0     C17214   4.922   4.772   3.557 -0.4760  0.2595  0.8141
  131MOL0     C17215   4.977   4.873   3.472  0.1025 -0.2726  0.9236
  131MOL0     C17216   5.113   4.886   3.468 -0.6278  0.1001  0.2246
  131MOL0     C17217   5.205   4.803   3.542  0.5421 -0.2040 -0.3154
  131MOL0     O17218   5.344   4.809   3.554  0.1929  0.0692  0.6358
  131MOL0     C17219   5.408   4.916   3.490  0.6390 -0.5069 -0.2558
  131MOL0     C17220   5.560   4.898   3.488  0.2730  0.1172  0.0482
  131MOL0     C17221   5.641   5.021   3.441  0.4721  1.0870  0.1617
  131MOL0     C17222   5.767   5.035   3.525  0.4934  0.3041  0.6786
  131MOL0     C17223   5.866   4.936   3.464 -0.1269  0.0418  0.4002
  131MOL0     C17224   5.947   4.876   3.392 -0.3747  0.1419  0.6271
  131MOL0     C17225   5.140   4.708   3.621  0.2133  0.6602  0.2479
  131MOL0     C17226   5.009   4.697   3.644  0.7638 -0.2877 -0.2062
  131MOL0     H17227   4.511   4.693   3.485  0.0090 -2.8751 -1.7022
  131MOL0     H17228   4.301   4.613   3.530  1.4061  0.6514 -0.9866
  131MOL0     H17229   4.212   4.419   3.950  1.4607 -0.2601  0.1015
  131MOL0     H17230   4.267   4.302   3.831  2.0301  2.1249 -2.4634
  131MOL0     H17231   4.037   4.279   3.744 -0.4520  0.3839 -0.5223
  131MOL0     H17232   3.967   4.394   3.861 -0.0261 -0.4845 -2.9832
  131MOL0     H17233   4.114   4.257   4.038  0.9564 -2.2338 -0.6395
  131MOL0     H17234   4.104   4.126   3.925 -1.5231 -1.9287 -0.5410
  131MOL0     H17235   3.876   4.285   4.047  2.8739 -0.2186  1.0366
  131MOL0     H17236   3.852   4.154   3.924  0.8414 -0.0127 -1.4592
  131MOL0     H17237   3.914   3.986   4.047 -0.8236  0.1450 -1.6729
  131MOL0     H17238   3.781   4.065   4.131  0.0992 -0.9659 -0.1039
  131MOL0     H17239   3.958   4.180   4.287 -1.1563 -0.7022  0.8312
  131MOL0     H17240   4.085   4.106   4.188  0.1389  1.4539 -0.2273
  131MOL0     H17241   3.889   3.942   4.345  0.4627  0.5159  2.6742
  131MOL0     H17242   4.029   3.883   4.259 -2.0074 -0.3743 -1.2947
  131MOL0     H17243   4.073   3.886   4.505 -1.7667 -0.1247 -0.5541
  131MOL0     H17244   4.031   4.054   4.523  0.7582  3.2483 -1.1518
  131MOL0     H17245   4.244   3.930   4.229 -0.8948  1.5636 -1.3601
  131MOL0     H17246   4.607   4.046   4.251 -0.6646 -0.0408  4.3747
  131MOL0     H17247   4.475   4.003   4.129 -1.6108 -4.3574 -0.0977
  131MOL0     H17248   4.474   3.761   4.207  2.0136 -1.9066 -3.4279
  131MOL0     H17249   4.585   3.804   4.334 -2.4942 -1.5500  0.7684
  131MOL0     H17250   4.668   3.809   4.030 -0.5305  0.4685  0.2752
  131MOL0     H17251   4.747   3.895   4.161 -1.3245  1.5947 -1.1184
  131MOL0     H17252   4.700   3.594   4.175 -1.0349  2.6569  4.4444
  131MOL0     H17253   4.823   3.693   4.240 -0.6629  3.2850  0.4010
  131MOL0     H17254   5.051   3.703   4.201  0.8068 -0.7839  0.0095
  131MOL0     H17255   5.259   3.832   4.131 -2.1758  2.5089  2.2644
  131MOL0     H17256   5.578   3.773   3.774  1.2101  0.8820 -1.2034
  131MOL0     H17257   5.832   3.817   3.756  2.4698  0.8898  2.1735
  131MOL0     H17258   5.987   4.173   3.958  0.2611  1.2687 -0.0111
  131MOL0     H17259   5.923   4.160   3.799  0.4138  1.9421  1.4823
  131MOL0     H17260   6.136   4.086   3.714 -1.8408  0.5349  0.1140
  131MOL0     H17261   6.195   4.061   3.887  0.3414  0.6736  0.8216
  131MOL0     H17262   6.179   4.326   3.896  1.4121  0.1588 -1.4487
  131MOL0     H17263   6.109   4.318   3.737 -0.9414 -1.9723 -0.8090
  131MOL0     H17264   6.328   4.259   3.631  3.4643  2.3057 -0.5194
  131MOL0     H17265   6.367   4.396   3.740 -0.1234  0.8765 -2.0864
  131MOL0     H17266   6.413   4.106   3.780 -3.6517  0.6116 -1.2003
  131MOL0     H17267   6.394   4.209   3.928 -1.9180 -0.3277 -0.5643
  131MOL0     H17268   6.624   4.212   3.892  1.1707 -0.4974 -1.6538
  131MOL0     H17269   6.574   4.368   3.827  1.2453  0.0719 -0.5887
  131MOL0     H17270   6.638   4.114   3.658  0.0525  0.4690 -0.3847
  131MOL0     H17271   6.573   4.261   3.581 -2.7925 -0.8214  1.0515
  131MOL0     H17272   6.834   4.256   3.729 -0.2503  2.9804  0.9345
  131MOL0     H17273   6.782   4.387   3.632  2.3354  0.5468  1.3580
  131MOL0     H17274   5.808   4.093   4.070 -0.9831  0.3163  0.4633
  131MOL0     H17275   5.562   4.065   4.101  0.0129 -2.6297  3.0409
  131MOL0     H17276   5.107   3.840   3.727  0.5564  0.2032 -0.6285
  131MOL0     H17277   4.906   3.716   3.797  0.2724 -0.1438 -0.3927
  131MOL0     H17278   4.427   4.453   3.911  0.3872 -1.5302 -1.0091
  131MOL0     H17279   4.657   4.566   3.876 -1.8057 -0.0735  2.2176
  131MOL0     H17280   4.919   4.949   3.420 -0.8806  0.0083  2.3639
  131MOL0     H17281   5.150   4.959   3.397 -0.6727 -0.4684 -0.3904
  131MOL0     H17282   5.385   5.012   3.537  5.0002  0.8675 -0.4254
  131MOL0     H17283   5.382   4.920   3.384  3.5089  1.5231 -1.0106
  131MOL0     H17284   5.583   4.879   3.593  0.1647 -2.5528 -0.3596
  131MOL0     H17285   5.581   4.816   3.418  1.9776  0.9513 -0.4815
  131MOL0     H17286   5.586   5.112   3.466 -0.3727  0.2564  1.4406
  131MOL0     H17287   5.670   5.015   3.336  0.8151  1.1386  0.2523
  131MOL0     H17288   5.799   5.139   3.530 -1.7215  1.1062 -0.3072
  131MOL0     H17289   5.745   5.004   3.627 -3.3164 -1.4325 -0.4489
  131MOL0     H17290   6.019   4.839   3.321 -1.7089 -0.4244 -0.4734
  131MOL0     H17291   5.202   4.640   3.679 -0.0733 -1.0646 -1.3714
  131MOL0     H17292   4.965   4.631   3.719  0.5133 -1.3191 -1.2325
  132MOL0     O17293   9.576   0.222   1.813  0.1289  0.7522  0.0964
  132MOL0     C17294   9.547   0.099   1.805  0.4249 -0.6367  0.6186
  132MOL0     O17295   9.422   0.039   1.825 -0.2504  0.2533 -0.4255
  132MOL0     C17296   9.312   0.114   1.850 -0.0368  0.5680  0.0526
  132MOL0     C17297   9.227   0.072   1.954 -0.4858 -0.1516 -0.1862
  132MOL0     C17298   9.124   0.160   1.991 -1.0408  0.1120 -0.1153
  132MOL0     C17299   9.093   0.272   1.919 -0.9111 -1.0610  0.2213
  132MOL0     O17300   8.982   0.352   1.932 -0.1709 -0.2479  0.0355
  132MOL0     C17301   8.878   0.321   2.017 -0.4642 -1.2727  0.5799
  132MOL0     C17302   8.767   0.436   2.014 -0.9178 -0.8737  0.1595
  132MOL0     C17303   8.637   0.389   2.075  0.7846  0.0338  1.0234
  132MOL0     C17304   8.529   0.501   2.050 -0.7727 -0.0923  0.9120
  132MOL0     C17305   8.432   0.487   2.159  0.0770 -0.1475 -0.3540
  132MOL0     C17306   8.350   0.353   2.153 -0.3540 -0.1294 -0.3747
  132MOL0     C17307   8.287   0.296   2.023  0.0013  0.2190  0.7174
  132MOL0     C17308   8.175   0.389   1.972  0.3110  0.3257 -0.8871
  132MOL0     N17309   8.042   0.327   1.999 -0.3796 -0.1534  0.1357
  132MOL0     C17310   8.006   0.239   2.100 -0.2306 -0.5082 -0.0284
  132MOL0     C17311   7.874   0.216   2.092  0.7672 -0.2052 -0.5119
  132MOL0     C17312   7.782   0.125   2.167 -0.6917  1.4027  0.3779
  132MOL0     C17313   7.730   0.177   2.308  0.5813  0.9943  0.6267
  132MOL0     C17314   7.613   0.082   2.360 -0.9078  0.1373 -0.9092
  132MOL0     C17315   7.642  -0.066   2.397  0.4006 -0.4628  0.0103
  132MOL0     O17316   7.713  -0.071   2.519  0.6740  0.3042 -0.2289
  132MOL0     C17317   7.827  -0.145   2.523 -0.4658  0.1217 -0.0038
  132MOL0     C17318   7.942  -0.106   2.449  0.5249  0.0031 -1.1210
  132MOL0     C17319   8.060  -0.182   2.455  0.5464 -0.9052  0.0853
  132MOL0     C17320   8.074  -0.287   2.542 -0.2949 -0.7717  0.8779
  132MOL0     C17321   8.189  -0.377   2.543  0.9743  0.4159  0.0251
  132MOL0     O17322   8.189  -0.469   2.638  0.5651 -0.2676 -0.0461
  132MOL0     C17323   8.280  -0.569   2.623 -0.0051  0.6002 -0.9993
  132MOL0     C17324   8.413  -0.547   2.653 -0.8083  0.7272 -1.0691
  132MOL0     C17325   8.500  -0.655   2.665 -0.3133  0.1437 -0.4831
  132MOL0     C17326   8.457  -0.784   2.652 -0.0391 -0.1708  0.4465
  132MOL0     O17327   8.527  -0.899   2.679 -0.1466  0.1100 -0.2050
  132MOL0     C17328   8.642  -0.891   2.766  0.1747  0.2924  0.2487
  132MOL0     C17329   8.704  -1.033   2.811  0.5334  0.0178 -0.2413
  132MOL0     C17330   8.650  -1.082   2.947  0.0009  0.1576 -0.6356
  132MOL0     C17331   8.708  -1.222   2.967 -0.4785 -0.1631  0.3792
  132MOL0     C17332   8.686  -1.280   3.118 -0.9132 -0.3432  0.3366
  132MOL0     C17333   8.565  -1.374   3.109  0.0075 -0.2731 -0.4338
  132MOL0     C17334   8.571  -1.466   3.230  0.3565 -0.0672 -0.6977
  132MOL0     C17335   8.693  -1.546   3.247  0.6584 -0.0951 -0.3132
  132MOL0    Cl17336   8.648  -1.654   3.381 -0.0722  0.1581 -0.1032
  132MOL0     C17337   8.321  -0.808   2.614  0.3894 -1.0095  0.3169
  132MOL0     C17338   8.235  -0.703   2.590 -1.3365  0.6542  0.8303
  132MOL0     O17339   8.278  -0.355   2.464 -0.5125  0.4577 -0.2701
  132MOL0     C17340   7.963  -0.332   2.609  0.3832  0.1604  0.5132
  132MOL0     C17341   7.836  -0.259   2.606 -1.3295  1.2500  0.5832
  132MOL0     N17342   7.829   0.292   1.986 -0.2690  0.5651  0.3680
  132MOL0     N17343   7.926   0.365   1.942 -0.0650  0.4237 -0.4639
  132MOL0     C17344   9.166   0.297   1.807 -0.7169 -0.1053  0.2596
  132MOL0     C17345   9.280   0.229   1.773 -0.3566  0.8194  0.8097
  132MOL0     C17346   9.662   0.001   1.801 -0.4169  0.3899 -1.1257
  132MOL0     C17347   9.644  -0.126   1.753 -0.4795 -0.0440 -0.2115
  132MOL0     C17348   9.741  -0.227   1.752 -0.5516  0.5082 -0.3789
  132MOL0     C17349   9.859  -0.200   1.812 -0.7962  0.8737  0.6030
  132MOL0     O17350   9.943  -0.311   1.814 -0.5333 -0.2649  0.8163
  132MOL0     C17351  10.060  -0.320   1.895 -0.7708 -0.0989  0.5398
  132MOL0     C17352  10.041  -0.333   2.040 -0.6707  0.2206 -0.3822
  132MOL0     C17353  10.172  -0.351   2.114 -0.7950 -0.6119  0.0983
  132MOL0     C17354  10.147  -0.357   2.264 -1.0497 -0.1581 -0.1909
  132MOL0     C17355  10.268  -0.316   2.337 -0.4222 -0.4834  0.8387
  132MOL0     C17356  10.373  -0.258   2.361  0.6173  0.4152  0.4145
  132MOL0     C17357   9.885  -0.073   1.875 -0.3191  1.2201  0.2919
  132MOL0     C17358   9.791   0.027   1.864  0.8926 -0.1264 -0.4115
  132MOL0     H17359   9.250  -0.021   2.005 -0.5533 -0.6078 -0.9659
  132MOL0     H17360   9.062   0.126   2.074  0.3266  1.9175  1.7498
  132MOL0     H17361   8.910   0.306   2.121 -0.5090 -2.5733  0.4296
  132MOL0     H17362   8.825   0.232   1.981  1.1090 -0.7454 -3.6576
  132MOL0     H17363   8.741   0.461   1.911 -1.5465 -1.5694  0.1353
  132MOL0     H17364   8.804   0.527   2.061 -0.6520 -0.9569  0.1151
  132MOL0     H17365   8.652   0.362   2.180 -1.9638  1.0218  1.7555
  132MOL0     H17366   8.599   0.293   2.038 -1.7108  0.6139  1.9147
  132MOL0     H17367   8.570   0.602   2.052 -4.0058  1.3539  0.1093
  132MOL0     H17368   8.485   0.485   1.951 -1.4602  3.6057  0.4962
  132MOL0     H17369   8.364   0.573   2.157  0.1677 -0.0572  0.2235
  132MOL0     H17370   8.473   0.496   2.260 -0.9707  0.0848  0.0724
  132MOL0     H17371   8.261   0.358   2.216  1.4024  1.1902  2.2082
  132MOL0     H17372   8.415   0.281   2.203  2.1235  1.2467 -1.3885
  132MOL0     H17373   8.366   0.292   1.947  0.9323 -1.1406  1.7002
  132MOL0     H17374   8.249   0.194   2.030  1.2545 -0.1681  2.5920
  132MOL0     H17375   8.179   0.408   1.865 -0.7136  0.5060 -0.9040
  132MOL0     H17376   8.169   0.487   2.021 -0.7476 -0.7643  1.3159
  132MOL0     H17377   8.065   0.208   2.185 -2.0931 -2.8211  0.5254
  132MOL0     H17378   7.832   0.028   2.171  0.6627  2.0211 -0.8491
  132MOL0     H17379   7.700   0.104   2.097 -1.1150 -0.5761  1.3767
  132MOL0     H17380   7.707   0.282   2.289  0.5983  0.6252 -1.6583
  132MOL0     H17381   7.810   0.182   2.382 -0.1113  0.1495  1.4569
  132MOL0     H17382   7.573   0.116   2.457  1.3697  2.1224 -0.5630
  132MOL0     H17383   7.534   0.086   2.285 -1.7877 -0.4157 -0.0439
  132MOL0     H17384   7.693  -0.116   2.315 -0.9533 -0.3120 -0.9682
  132MOL0     H17385   7.549  -0.120   2.416  0.3424  0.0130  1.1854
  132MOL0     H17386   7.937  -0.017   2.387  0.9254  1.1506  0.4458
  132MOL0     H17387   8.142  -0.148   2.394 -1.3073  1.9014 -1.0634
  132MOL0     H17388   8.432  -0.444   2.680 -1.2046  0.1753  1.5298
  132MOL0     H17389   8.605  -0.642   2.691 -0.7425 -0.0695  1.5090
  132MOL0     H17390   8.610  -0.843   2.858  1.6668 -0.5651  1.2625
  132MOL0     H17391   8.722  -0.837   2.713 -1.1082  2.6230  0.5387
  132MOL0     H17392   8.812  -1.034   2.833  0.9046 -4.2634 -1.3732
  132MOL0     H17393   8.676  -1.104   2.734 -1.8541  2.4580 -1.7868
  132MOL0     H17394   8.541  -1.092   2.947  0.1308 -1.6467 -0.2991
  132MOL0     H17395   8.682  -1.017   3.029 -0.1827  0.3242 -0.6961
  132MOL0     H17396   8.678  -1.298   2.895 -0.6577  1.1017 -0.9256
  132MOL0     H17397   8.816  -1.222   2.952 -0.8712  1.7518 -3.6864
  132MOL0     H17398   8.659  -1.203   3.190 -1.5236 -0.0022 -0.2591
  132MOL0     H17399   8.785  -1.319   3.147 -0.5998  0.1935 -0.0046
  132MOL0     H17400   8.564  -1.431   3.015 -0.1840 -0.0242 -0.5847
  132MOL0     H17401   8.475  -1.313   3.112 -0.6466 -0.9207 -3.3547
  132MOL0     H17402   8.549  -1.409   3.321 -1.0777 -0.8261 -0.5325
  132MOL0     H17403   8.490  -1.540   3.222 -1.1843  1.3845  0.6985
  132MOL0     H17404   8.774  -1.476   3.269  0.4224  0.5979 -1.5024
  132MOL0     H17405   8.713  -1.599   3.153  2.7409  0.4645 -0.2520
  132MOL0     H17406   8.278  -0.905   2.595 -1.3543 -0.0277 -1.0276
  132MOL0     H17407   8.133  -0.736   2.571 -0.7285 -0.2552 -1.1658
  132MOL0     H17408   7.956  -0.420   2.672 -1.8662  1.0600  1.6379
  132MOL0     H17409   7.750  -0.296   2.659 -1.3835  2.7912  1.6163
  132MOL0     H17410   9.134   0.377   1.741  0.9319 -0.5810 -1.1778
  132MOL0     H17411   9.335   0.254   1.682  3.1657  0.7405  2.7550
  132MOL0     H17412   9.547  -0.143   1.707 -0.4925  2.0762 -1.0980
  132MOL0     H17413   9.717  -0.318   1.698  1.7942 -0.3442 -0.0821
  132MOL0     H17414  10.124  -0.233   1.876 -0.6620 -0.4254 -0.6937
  132MOL0     H17415  10.120  -0.406   1.867  1.1366  1.0044  1.0735
  132MOL0     H17416  10.004  -0.236   2.075  1.0456  0.6580  0.3222
  132MOL0     H17417   9.963  -0.405   2.065  2.2258 -2.7860  0.5860
  132MOL0     H17418  10.245  -0.273   2.087  0.1486 -2.3478 -2.9419
  132MOL0     H17419  10.213  -0.446   2.079  0.7341 -0.5916  1.7129
  132MOL0     H17420  10.069  -0.283   2.287 -0.3767  0.8303 -1.0070
  132MOL0     H17421  10.102  -0.455   2.282 -0.7745  0.0274  1.7885
  132MOL0     H17422  10.472  -0.219   2.368  0.8906 -0.4326  1.6729
  132MOL0     H17423   9.983  -0.050   1.914  0.1492  0.6165 -0.4937
  132MOL0     H17424   9.811   0.121   1.913  1.0802  0.5365 -1.7040
  133MOL0     O17425   7.451   1.215   4.664 -0.1653  0.0433 -0.0367
  133MOL0     C17426   7.462   1.292   4.757 -0.6403 -0.0618  0.4266
  133MOL0     O17427   7.561   1.291   4.854  0.1895  0.7168 -0.4627
  133MOL0     C17428   7.670   1.203   4.851 -0.4209  0.6088 -1.1546
  133MOL0     C17429   7.725   1.129   4.747 -0.8085  0.7106 -0.2747
  133MOL0     C17430   7.828   1.038   4.773 -0.5517  0.7054 -0.9463
  133MOL0     C17431   7.884   1.021   4.898  0.1921  0.3870 -0.2078
  133MOL0     O17432   7.981   0.922   4.909  0.0976 -0.2301 -0.1190
  133MOL0     C17433   7.924   0.791   4.921 -1.1671 -0.3684 -1.3213
  133MOL0     C17434   7.988   0.690   5.008 -0.0463  0.6292 -0.7022
  133MOL0     C17435   7.889   0.567   5.039  0.3567 -0.3676 -0.0140
  133MOL0     C17436   7.793   0.606   5.154  0.4742  0.8276  0.7034
  133MOL0     C17437   7.874   0.603   5.293  0.0786 -0.1932  0.0628
  133MOL0     C17438   7.777   0.580   5.408  0.4357 -0.1624 -0.0488
  133MOL0     C17439   7.842   0.592   5.536 -0.0447  0.3574 -0.4248
  133MOL0     C17440   7.753   0.600   5.655  0.4252  1.4664 -0.3138
  133MOL0     N17441   7.660   0.485   5.677 -0.8073  0.0002 -0.0802
  133MOL0     C17442   7.686   0.350   5.674  0.0419 -0.0573  0.7780
  133MOL0     C17443   7.578   0.286   5.719 -0.0397 -0.0867 -0.3183
  133MOL0     C17444   7.553   0.142   5.719 -0.0309 -0.2939  0.4306
  133MOL0     C17445   7.615   0.082   5.846 -0.1274 -0.6919  1.1376
  133MOL0     C17446   7.578   0.133   5.986  0.3684  0.2275  0.1699
  133MOL0     C17447   7.438   0.090   6.042 -0.8875  0.6526 -0.3027
  133MOL0     O17448   7.460   0.032   6.175  0.0879  0.4285  0.3610
  133MOL0     C17449   7.359  -0.023   6.245  0.2534 -0.1743  0.2783
  133MOL0     C17450   7.381  -0.086   6.369 -0.5568 -0.1719  0.0092
  133MOL0     C17451   7.286  -0.137   6.451  0.5726 -0.6185  0.0476
  133MOL0     C17452   7.146  -0.104   6.424 -0.1590  0.1429  0.1649
  133MOL0     C17453   7.043  -0.145   6.513  0.8609  0.1571 -0.3654
  133MOL0     O17454   7.085  -0.202   6.627  1.0763 -0.6621 -0.3617
  133MOL0     C17455   6.992  -0.232   6.731 -0.3259 -0.2126 -0.4837
  133MOL0     C17456   6.990  -0.366   6.781 -0.1747  0.4099 -0.4849
  133MOL0     C17457   6.894  -0.404   6.881 -0.6908  0.1458 -0.0161
  133MOL0     C17458   6.808  -0.312   6.932 -0.4001 -0.1495  0.8482
  133MOL0     O17459   6.712  -0.337   7.023  0.6184  0.1291 -0.3250
  133MOL0     C17460   6.667  -0.469   7.052  0.6519  0.3913 -0.1846
  133MOL0     C17461   6.518  -0.457   7.080  0.2574 -0.5544  0.3921
  133MOL0     C17462   6.448  -0.602   7.103 -0.8888 -0.1878  0.5922
  133MOL0     C17463   6.303  -0.598   7.136  0.2488  0.3276  0.0575
  133MOL0     C17464   6.277  -0.532   7.265 -0.4591  0.1229  0.2021
  133MOL0     C17465   6.125  -0.509   7.274 -0.4782 -0.5758  0.1940
  133MOL0     C17466   6.050  -0.642   7.282  0.6823  0.9158 -0.0252
  133MOL0     C17467   5.911  -0.628   7.337  0.9487 -0.7819 -0.1174
  133MOL0    Cl17468   5.804  -0.538   7.215 -0.0340  0.2363  0.1596
  133MOL0     C17469   6.818  -0.176   6.892 -0.4427 -0.3593  0.6965
  133MOL0     C17470   6.913  -0.135   6.796  1.3850  0.1420 -0.4009
  133MOL0     O17471   6.929  -0.145   6.477  0.1873 -0.0802  0.0936
  133MOL0     C17472   7.126  -0.051   6.298  0.4761 -0.2871 -0.5108
  133MOL0     C17473   7.229  -0.016   6.206 -0.0107  0.2547  0.7369
  133MOL0     N17474   7.484   0.383   5.766  0.6548 -0.5359 -0.2413
  133MOL0     N17475   7.548   0.494   5.739  1.1461 -0.8828 -0.6074
  133MOL0     C17476   7.831   1.092   4.999  0.5690 -0.6883  0.1933
  133MOL0     C17477   7.724   1.178   4.982 -0.0097 -1.1238  0.2964
  133MOL0     C17478   7.364   1.399   4.781 -0.6986 -0.8388 -0.2734
  133MOL0     C17479   7.401   1.526   4.840 -0.5611 -0.8626  0.0484
  133MOL0     C17480   7.314   1.635   4.841  0.3098 -0.7998 -0.0472
  133MOL0     C17481   7.183   1.616   4.802  0.2656 -0.1270  0.5225
  133MOL0     O17482   7.085   1.711   4.802  1.0346 -0.1195 -0.6302
  133MOL0     C17483   7.116   1.840   4.869 -0.6424  0.7862 -0.1317
  133MOL0     C17484   7.026   1.956   4.818  0.1893  0.2249 -0.0379
  133MOL0     C17485   7.077   2.027   4.693 -0.0718  0.2042 -0.1300
  133MOL0     C17486   6.981   2.145   4.648 -0.5933  0.2693 -0.8755
  133MOL0     C17487   6.844   2.108   4.634  0.2287  0.3247  0.5219
  133MOL0     C17488   6.728   2.085   4.630 -0.1322  0.5197 -0.0404
  133MOL0     C17489   7.144   1.501   4.737  0.4648  0.0186 -0.1949
  133MOL0     C17490   7.231   1.392   4.731  0.2167 -0.3998  0.0552
  133MOL0     H17491   7.680   1.133   4.648  1.8817 -1.6732 -1.7393
  133MOL0     H17492   7.861   0.972   4.694 -3.3192 -1.6158 -0.3349
  133MOL0     H17493   7.918   0.748   4.820  1.2843 -1.2221 -1.1646
  133MOL0     H17494   7.823   0.799   4.963 -0.1755 -0.0788  1.1565
  133MOL0     H17495   8.025   0.739   5.099 -0.2647  0.3921 -0.4823
  133MOL0     H17496   8.072   0.670   4.942  1.1625  0.4610  0.8430
  133MOL0     H17497   7.939   0.470   5.050  0.4841 -0.2788  0.2059
  133MOL0     H17498   7.826   0.559   4.950  0.5495  1.7646 -0.3924
  133MOL0     H17499   7.757   0.706   5.128 -1.6758 -0.2067 -0.5306
  133MOL0     H17500   7.707   0.540   5.160  0.0137  0.9426 -2.6882
  133MOL0     H17501   7.930   0.695   5.313 -0.6560  0.0768  1.0014
  133MOL0     H17502   7.956   0.531   5.295  1.4835  1.3409 -0.0184
  133MOL0     H17503   7.737   0.479   5.391 -1.9289  0.6956  0.1225
  133MOL0     H17504   7.709   0.665   5.401 -0.9739 -1.3281 -1.3767
  133MOL0     H17505   7.924   0.520   5.546 -0.4409 -0.2056 -1.1459
  133MOL0     H17506   7.900   0.684   5.532 -1.1136  1.0044 -3.0492
  133MOL0     H17507   7.689   0.688   5.644 -4.4428 -1.7365 -0.8194
  133MOL0     H17508   7.821   0.616   5.738 -0.3837 -2.6133  1.3645
  133MOL0     H17509   7.760   0.308   5.606 -1.9815 -2.1186 -0.3435
  133MOL0     H17510   7.595   0.088   5.634 -1.1079 -2.0324  0.9343
  133MOL0     H17511   7.444   0.127   5.724 -0.1472  0.8229  2.4972
  133MOL0     H17512   7.723   0.099   5.843  0.4000 -3.5576 -0.9663
  133MOL0     H17513   7.616  -0.026   5.830  0.6243 -0.7059  1.2578
  133MOL0     H17514   7.658   0.098   6.051 -0.0314  0.3336  0.7283
  133MOL0     H17515   7.580   0.243   5.990  0.1610  0.1952  1.6598
  133MOL0     H17516   7.375   0.030   5.976 -1.7175  1.8014 -0.5959
  133MOL0     H17517   7.375   0.180   6.050 -1.4196  0.1883  0.8700
  133MOL0     H17518   7.482  -0.108   6.404 -1.0300 -1.2599  0.7326
  133MOL0     H17519   7.304  -0.192   6.543  2.3582  0.9601  0.7015
  133MOL0     H17520   7.066  -0.430   6.736  0.1394  0.2623  0.2381
  133MOL0     H17521   6.904  -0.505   6.919 -0.1158 -0.3906 -1.5286
  133MOL0     H17522   6.722  -0.493   7.144  1.4334  0.7249 -0.5521
  133MOL0     H17523   6.677  -0.538   6.968  1.3053  0.3604 -0.0888
  133MOL0     H17524   6.472  -0.399   7.000  0.1551  0.0692  0.8936
  133MOL0     H17525   6.514  -0.403   7.175  1.1103  1.6394 -0.7415
  133MOL0     H17526   6.516  -0.652   7.173  2.1141 -0.4162 -2.2236
  133MOL0     H17527   6.462  -0.661   7.011 -0.0029 -0.2139  0.7308
  133MOL0     H17528   6.272  -0.529   7.058  0.9213 -0.1848 -0.6804
  133MOL0     H17529   6.262  -0.700   7.138 -2.6197  1.3965 -0.0515
  133MOL0     H17530   6.331  -0.437   7.274 -0.8952  0.6745 -2.4334
  133MOL0     H17531   6.301  -0.596   7.350  2.4995 -0.8897 -1.2590
  133MOL0     H17532   6.089  -0.447   7.191  0.6232  2.4372  1.8575
  133MOL0     H17533   6.100  -0.442   7.357  1.7652  3.3481 -2.0012
  133MOL0     H17534   6.051  -0.689   7.183 -0.4600  1.2641 -0.2093
  133MOL0     H17535   6.104  -0.721   7.337  0.2175 -0.6561 -1.7135
  133MOL0     H17536   5.900  -0.573   7.430  0.5326  2.9348 -2.1742
  133MOL0     H17537   5.871  -0.726   7.364 -1.1283  0.4922  1.7109
  133MOL0     H17538   6.753  -0.101   6.935 -1.4533 -0.4977 -0.5188
  133MOL0     H17539   6.920  -0.033   6.760  1.7658  0.9503  1.8256
  133MOL0     H17540   7.029  -0.026   6.257  1.1170  1.2841 -1.1408
  133MOL0     H17541   7.197   0.024   6.110 -2.7842 -0.8059  1.1327
  133MOL0     H17542   7.865   1.072   5.101 -2.7579  1.4031  1.8700
  133MOL0     H17543   7.674   1.237   5.059 -0.7461 -2.2993  0.7437
  133MOL0     H17544   7.503   1.550   4.868 -1.3460 -0.2486  2.5849
  133MOL0     H17545   7.353   1.729   4.880  1.0960 -1.4372  0.7138
  133MOL0     H17546   7.218   1.875   4.856  0.1601 -1.5445 -0.5574
  133MOL0     H17547   7.097   1.819   4.975 -0.5149 -0.4466 -0.3429
  133MOL0     H17548   6.932   1.904   4.795 -0.0307 -0.4407  2.1741
  133MOL0     H17549   7.011   2.032   4.895  2.5941 -1.6413  2.4510
  133MOL0     H17550   7.093   1.970   4.601 -4.6924  1.9020 -2.2674
  133MOL0     H17551   7.165   2.088   4.719 -1.1335  3.1496 -2.8583
  133MOL0     H17552   6.981   2.219   4.729  1.1086  2.3604 -2.6798
  133MOL0     H17553   7.022   2.199   4.563  0.6716 -0.3096 -0.6576
  133MOL0     H17554   6.622   2.074   4.639  0.1213 -1.1730  1.9591
  133MOL0     H17555   7.050   1.480   4.687  1.1525 -2.0547 -0.7330
  133MOL0     H17556   7.188   1.306   4.680  2.0845 -2.2974  1.5049
  134MOL0     O17557   8.059   3.863   5.799  0.7967 -0.3147 -0.4414
  134MOL0     C17558   8.050   3.985   5.829  0.6054  0.5914 -0.1290
  134MOL0     O17559   7.940   4.049   5.874  0.7108 -0.3534 -0.1420
  134MOL0     C17560   7.823   3.988   5.891 -0.6391  0.2172 -0.4482
  134MOL0     C17561   7.798   3.916   6.006 -0.0250  0.0399  0.1656
  134MOL0     C17562   7.671   3.862   6.027 -0.2434 -0.3776 -0.1635
  134MOL0     C17563   7.582   3.874   5.921 -0.5918  0.7243 -0.3946
  134MOL0     O17564   7.455   3.816   5.921  0.2094 -0.0457 -0.4478
  134MOL0     C17565   7.411   3.748   6.042 -0.0928 -0.3196  0.2274
  134MOL0     C17566   7.271   3.692   6.016  0.5831 -0.7847  0.0206
  134MOL0     C17567   7.206   3.650   6.145  0.1767 -0.6634  0.6425
  134MOL0     C17568   7.068   3.582   6.116  0.2215 -0.0679 -0.1058
  134MOL0     C17569   6.956   3.683   6.066 -0.5254 -0.2102 -0.0580
  134MOL0     C17570   6.845   3.601   6.009  0.3011 -0.5505 -0.2417
  134MOL0     C17571   6.753   3.683   5.930  0.3031  0.6312 -0.2236
  134MOL0     C17572   6.691   3.798   6.016 -1.1282 -1.7369 -0.5547
  134MOL0     N17573   6.563   3.841   5.967  0.1910 -0.0992  0.0156
  134MOL0     C17574   6.531   3.954   5.885  0.0779  0.3692  0.4889
  134MOL0     C17575   6.398   3.964   5.885 -0.0320 -0.1869  0.6871
  134MOL0     C17576   6.312   4.070   5.826  0.5896  0.1201 -0.7398
  134MOL0     C17577   6.237   4.041   5.696  0.6194  0.3124  0.2102
  134MOL0     C17578   6.178   4.159   5.637  0.2579 -0.5820 -0.0896
  134MOL0     C17579   6.095   4.245   5.728  0.1421 -0.4946 -0.0143
  134MOL0     O17580   6.004   4.323   5.645  0.0728 -0.1989  0.4846
  134MOL0     C17581   5.890   4.387   5.698 -1.8513  0.9577  0.2660
  134MOL0     C17582   5.861   4.396   5.830 -0.2851 -0.7045  0.1846
  134MOL0     C17583   5.753   4.482   5.869 -0.0977  0.7953  1.0603
  134MOL0     C17584   5.687   4.559   5.783 -0.5551  0.6083  0.2706
  134MOL0     C17585   5.571   4.644   5.828 -0.3971  0.5244  0.3713
  134MOL0     O17586   5.571   4.659   5.964  0.4981 -0.2759 -0.2193
  134MOL0     C17587   5.469   4.715   6.035 -0.2363 -0.0878 -0.3484
  134MOL0     C17588   5.334   4.701   6.014 -0.1477 -0.7699  0.5223
  134MOL0     C17589   5.247   4.761   6.096 -0.0188  0.5345 -1.1237
  134MOL0     C17590   5.292   4.827   6.214  0.4578 -0.3386 -0.0690
  134MOL0     O17591   5.214   4.893   6.307 -0.1825 -0.6990  0.6249
  134MOL0     C17592   5.076   4.864   6.296  0.4363  0.2951  0.9514
  134MOL0     C17593   5.010   4.939   6.417  0.5282  0.3330  0.3246
  134MOL0     C17594   4.855   4.937   6.402 -0.7424 -0.0007 -0.3419
  134MOL0     C17595   4.778   5.026   6.510  0.3828  0.7336  0.3232
  134MOL0     C17596   4.626   5.072   6.470 -0.4828  0.3593  0.0108
  134MOL0     C17597   4.558   5.120   6.598  0.4155 -0.5220 -0.5286
  134MOL0     C17598   4.404   5.126   6.566 -0.4953  0.2908  0.3735
  134MOL0     C17599   4.367   5.236   6.453 -0.2722  0.4344 -0.4900
  134MOL0    Cl17600   4.187   5.237   6.443 -0.4428 -0.3659 -0.1757
  134MOL0     C17601   5.427   4.836   6.237 -0.4441  0.8007 -0.2296
  134MOL0     C17602   5.514   4.782   6.146 -0.1307  0.1245  0.8694
  134MOL0     O17603   5.497   4.700   5.752  0.0589  0.7116  0.4045
  134MOL0     C17604   5.715   4.546   5.647 -0.8705 -0.1579  0.0367
  134MOL0     C17605   5.817   4.459   5.600  0.6229 -0.0597 -0.0223
  134MOL0     N17606   6.349   3.861   5.956 -0.0036 -0.4575 -0.2435
  134MOL0     N17607   6.443   3.780   6.004  0.5454  0.0342  1.1016
  134MOL0     C17608   7.618   3.921   5.795  0.6821 -0.3243 -0.3538
  134MOL0     C17609   7.737   3.989   5.788  0.9732  0.1078  0.5614
  134MOL0     C17610   8.169   4.051   5.792 -0.5446 -0.6036  0.0976
  134MOL0     C17611   8.290   3.980   5.760 -0.4617 -0.6640 -0.1873
  134MOL0     C17612   8.400   4.043   5.699 -0.2006  0.4550 -0.1690
  134MOL0     C17613   8.400   4.182   5.686  0.0803  0.4413  0.1818
  134MOL0     O17614   8.509   4.243   5.638 -0.2649  0.2292 -0.1924
  134MOL0     C17615   8.582   4.308   5.737 -0.7927 -0.1801 -0.2025
  134MOL0     C17616   8.720   4.342   5.681  0.1907  0.4122  0.5416
  134MOL0     C17617   8.722   4.417   5.546  0.7231 -0.1719 -0.1432
  134MOL0     C17618   8.757   4.567   5.568  0.8584  0.4004 -0.6221
  134MOL0     C17619   8.901   4.566   5.594  0.1738 -0.4099 -0.2923
  134MOL0     C17620   9.013   4.543   5.618 -0.0638  0.2965  0.4362
  134MOL0     C17621   8.288   4.256   5.725  0.7231  0.5549 -0.0463
  134MOL0     C17622   8.165   4.187   5.771 -0.5012 -0.2188 -0.1158
  134MOL0     H17623   7.868   3.903   6.087 -1.0202  0.4685  1.1234
  134MOL0     H17624   7.651   3.812   6.120 -0.4320  2.0394  1.1797
  134MOL0     H17625   7.422   3.797   6.139 -0.3223 -3.2274  1.8271
  134MOL0     H17626   7.480   3.663   6.047  0.3799  0.0099 -0.5654
  134MOL0     H17627   7.265   3.616   5.937  2.9241 -0.5031 -0.4791
  134MOL0     H17628   7.218   3.778   5.974  1.0159 -0.2475  0.5692
  134MOL0     H17629   7.189   3.734   6.212 -0.0203 -0.0913 -0.1037
  134MOL0     H17630   7.267   3.569   6.185 -2.1585 -3.0072 -0.2432
  134MOL0     H17631   7.075   3.496   6.049  3.7340 -0.0125  0.0263
  134MOL0     H17632   7.017   3.537   6.202 -3.1940  0.4720 -1.6567
  134MOL0     H17633   7.003   3.740   5.984 -0.3853  0.3698  0.4156
  134MOL0     H17634   6.927   3.755   6.143 -2.4073 -1.3342  0.3407
  134MOL0     H17635   6.798   3.533   6.081  0.2677  1.5824  1.8609
  134MOL0     H17636   6.883   3.525   5.940  2.0639  0.1715 -0.1023
  134MOL0     H17637   6.813   3.725   5.849 -0.9160  1.3450 -0.7903
  134MOL0     H17638   6.671   3.622   5.891  0.3705  1.4204 -1.6335
  134MOL0     H17639   6.764   3.879   6.009 -0.4670 -2.4376 -2.3978
  134MOL0     H17640   6.687   3.771   6.122  2.1454 -0.9641 -0.1136
  134MOL0     H17641   6.613   4.007   5.836 -0.8932  2.0677  0.6328
  134MOL0     H17642   6.373   4.159   5.804  3.5151 -0.9858  2.0813
  134MOL0     H17643   6.240   4.101   5.903  0.0919  1.1808 -1.6062
  134MOL0     H17644   6.154   3.971   5.711 -0.0581  0.3950 -2.5078
  134MOL0     H17645   6.297   3.990   5.621 -1.3299  0.2248 -1.3960
  134MOL0     H17646   6.256   4.220   5.591 -1.3977  1.3863 -0.4234
  134MOL0     H17647   6.123   4.117   5.552 -0.5851 -0.7361  0.5176
  134MOL0     H17648   6.157   4.317   5.783 -1.5056  0.4798  0.6750
  134MOL0     H17649   6.036   4.182   5.795 -0.7361 -0.9366 -1.1740
  134MOL0     H17650   5.937   4.356   5.896 -0.3711 -3.0272 -1.0609
  134MOL0     H17651   5.744   4.482   5.977 -0.1741 -0.7371  1.0760
  134MOL0     H17652   5.304   4.628   5.940 -1.3504 -1.4571  1.6416
  134MOL0     H17653   5.140   4.751   6.078  0.0127  0.4591 -1.2710
  134MOL0     H17654   5.054   4.757   6.296  2.2912 -0.1806 -1.4734
  134MOL0     H17655   5.032   4.906   6.206 -0.8319  0.4626  1.6357
  134MOL0     H17656   5.036   5.045   6.417  0.5036  0.3424  1.0410
  134MOL0     H17657   5.039   4.891   6.511 -0.6770  0.0264  0.5619
  134MOL0     H17658   4.819   4.834   6.407 -0.1991 -0.1941 -0.4473
  134MOL0     H17659   4.834   4.980   6.304 -0.8138  0.4647 -0.1264
  134MOL0     H17660   4.779   4.967   6.602  0.9569 -0.4828 -0.4500
  134MOL0     H17661   4.830   5.118   6.538  0.0493  0.3277  2.4130
  134MOL0     H17662   4.577   4.983   6.431 -2.1337  1.9439 -1.7479
  134MOL0     H17663   4.620   5.147   6.390 -0.1416  1.6862  1.1704
  134MOL0     H17664   4.591   5.217   6.636  2.8532 -2.2916  2.3448
  134MOL0     H17665   4.568   5.061   6.690 -0.7791 -0.2175 -0.1937
  134MOL0     H17666   4.370   5.029   6.528 -0.0865  1.1756 -2.4038
  134MOL0     H17667   4.354   5.150   6.661  0.0130  2.2008  0.2036
  134MOL0     H17668   4.402   5.207   6.353 -1.7917  0.2083 -0.9759
  134MOL0     H17669   4.412   5.335   6.456  1.8387 -0.3295 -3.0005
  134MOL0     H17670   5.471   4.888   6.321  1.8555  0.5250 -1.1836
  134MOL0     H17671   5.620   4.786   6.166 -0.2425  2.0146  1.2603
  134MOL0     H17672   5.672   4.608   5.568  1.6145  1.1494 -0.3949
  134MOL0     H17673   5.833   4.441   5.495  1.9003  0.2461  0.0980
  134MOL0     H17674   7.546   3.903   5.716  0.5267 -0.2055 -0.2400
  134MOL0     H17675   7.767   4.036   5.695  1.1205  3.8730  2.3101
  134MOL0     H17676   8.301   3.875   5.783 -0.4915 -0.0878  2.7700
  134MOL0     H17677   8.492   3.986   5.683 -0.3971 -0.3857  1.4665
  134MOL0     H17678   8.590   4.241   5.823 -1.4736 -1.9394 -1.4299
  134MOL0     H17679   8.527   4.395   5.774 -3.7098 -2.8147  2.2140
  134MOL0     H17680   8.777   4.398   5.755  0.4893  0.9060 -0.0498
  134MOL0     H17681   8.764   4.242   5.669  0.8984  0.8023 -0.2245
  134MOL0     H17682   8.630   4.418   5.486 -0.5749  0.2498  1.7505
  134MOL0     H17683   8.795   4.369   5.480  0.7076 -1.0036  0.4270
  134MOL0     H17684   8.741   4.628   5.479 -1.8211 -0.5547 -0.8850
  134MOL0     H17685   8.688   4.610   5.642  0.0296 -1.6114 -0.1520
  134MOL0     H17686   9.117   4.519   5.623 -0.6117 -2.3359  0.6188
  134MOL0     H17687   8.292   4.363   5.708  0.9625  0.7838  1.3730
  134MOL0     H17688   8.079   4.242   5.810 -1.0701 -2.0741  1.3712
  135MOL0     O17689   3.837   2.299  10.373 -0.0628 -0.8281 -0.1237
  135MOL0     C17690   3.755   2.210  10.365 -0.2840  0.8274  0.1742
  135MOL0     O17691   3.627   2.210  10.311 -0.2074 -0.3484 -0.5172
  135MOL0     C17692   3.575   2.313  10.248  0.9103 -0.4738 -1.0154
  135MOL0     C17693   3.524   2.422  10.319 -0.0398  0.0834  0.2846
  135MOL0     C17694   3.469   2.520  10.247 -0.1964 -0.3343 -0.0107
  135MOL0     C17695   3.475   2.535  10.106  0.2174 -0.6986  0.3980
  135MOL0     O17696   3.396   2.633  10.054 -0.6329  0.1367  0.0573
  135MOL0     C17697   3.439   2.713   9.939 -0.1168  0.0065 -0.6354
  135MOL0     C17698   3.360   2.658   9.814 -0.3990  0.7452 -0.0684
  135MOL0     C17699   3.208   2.640   9.833 -0.3230  0.5335 -0.2773
  135MOL0     C17700   3.167   2.486   9.822  0.3486  0.1383 -0.1098
  135MOL0     C17701   3.039   2.458   9.910 -0.3903  0.0715 -0.2494
  135MOL0     C17702   2.971   2.324   9.883  1.1308 -0.4637 -0.6225
  135MOL0     C17703   2.841   2.336   9.964  0.4558 -0.4399 -0.5376
  135MOL0     C17704   2.800   2.205  10.045 -1.0487 -0.2027  0.7363
  135MOL0     N17705   2.667   2.215  10.108 -0.2886 -0.4155  0.2556
  135MOL0     C17706   2.561   2.276  10.045  0.8659 -0.0849 -0.2384
  135MOL0     C17707   2.447   2.246  10.120 -0.6744 -0.0901  0.1480
  135MOL0     C17708   2.310   2.293  10.079 -0.4732  0.4627  0.4255
  135MOL0     C17709   2.264   2.431  10.133 -0.0869 -0.0064 -0.0702
  135MOL0     C17710   2.362   2.557  10.110 -0.4804  0.4811 -0.5862
  135MOL0     C17711   2.306   2.692  10.148 -0.2483 -0.1031  0.3277
  135MOL0     O17712   2.202   2.736  10.060  0.0864 -0.2436  1.2388
  135MOL0     C17713   2.074   2.722  10.103  0.6670 -0.1485 -0.1942
  135MOL0     C17714   1.977   2.674  10.009  0.0117  0.0522 -0.1076
  135MOL0     C17715   1.838   2.663  10.044 -0.2566  0.5147  0.2005
  135MOL0     C17716   1.796   2.688  10.168 -0.3644 -0.3153 -0.7759
  135MOL0     C17717   1.653   2.674  10.207  0.2126 -0.6687 -0.4958
  135MOL0     O17718   1.571   2.631  10.111 -0.6680  0.7994 -0.6479
  135MOL0     C17719   1.437   2.624  10.137 -0.7314 -0.0828  0.8912
  135MOL0     C17720   1.368   2.741  10.149  0.0925  0.0488  0.3896
  135MOL0     C17721   1.222   2.741  10.158 -0.5340  0.4462  0.2478
  135MOL0     C17722   1.154   2.620  10.147 -0.1843  0.1761  0.7213
  135MOL0     O17723   1.018   2.618  10.149 -0.4933 -0.0519 -0.5879
  135MOL0     C17724   0.962   2.541  10.250 -0.1406  0.2970 -0.7348
  135MOL0     C17725   0.811   2.532  10.245 -0.4248 -1.0884 -0.9444
  135MOL0     C17726   0.750   2.450  10.356 -0.8484  0.0069  0.0497
  135MOL0     C17727   0.781   2.297  10.337 -0.0220  0.5745 -0.4611
  135MOL0     C17728   0.695   2.220  10.446  0.4425  0.5087 -1.0566
  135MOL0     C17729   0.722   2.064  10.443  0.0156 -0.0177  1.3364
  135MOL0     C17730   0.632   1.981  10.535 -0.7350  0.0053  0.8089
  135MOL0     C17731   0.492   1.956  10.470 -0.1402  0.3529  0.0622
  135MOL0    Cl17732   0.387   1.854  10.581 -0.4699  0.4683 -0.2827
  135MOL0     C17733   1.230   2.502  10.132 -0.8116  0.3643  0.1548
  135MOL0     C17734   1.371   2.500  10.114 -0.7534 -0.4527  0.2437
  135MOL0     O17735   1.620   2.679  10.331 -0.5235 -0.0757  0.8372
  135MOL0     C17736   1.889   2.723  10.264  0.2872 -0.2930  0.1906
  135MOL0     C17737   2.025   2.747  10.234 -0.8817 -0.6930  0.5366
  135MOL0     N17738   2.491   2.169  10.229 -0.0392 -0.4284 -0.0634
  135MOL0     N17739   2.623   2.155  10.214  0.3727  0.1663 -0.6232
  135MOL0     C17740   3.552   2.435  10.034  0.8334 -0.4012  0.0995
  135MOL0     C17741   3.585   2.320  10.111  0.7222 -0.3489  0.3563
  135MOL0     C17742   3.808   2.081  10.436  0.0437 -0.3960 -0.2925
  135MOL0     C17743   3.936   2.072  10.492 -0.9180  0.2674  0.5520
  135MOL0     C17744   3.994   1.950  10.523  0.3876  0.8352 -0.2000
  135MOL0     C17745   3.917   1.833  10.516  0.8226  0.5671  0.6219
  135MOL0     O17746   3.983   1.705  10.532 -0.2886  0.1836  0.4977
  135MOL0     C17747   3.975   1.654  10.663  0.5835  0.1501  0.1653
  135MOL0     C17748   4.010   1.508  10.684 -0.7349 -0.5447  1.3344
  135MOL0     C17749   3.891   1.430  10.663  1.0695  0.4542 -0.0653
  135MOL0     C17750   3.870   1.324  10.768  0.0191 -0.3274 -0.6115
  135MOL0     C17751   3.991   1.236  10.763  0.2219  0.5780  0.2846
  135MOL0     C17752   4.090   1.171  10.759  0.2131  0.1081  0.8789
  135MOL0     C17753   3.791   1.846  10.458 -0.0942  1.2892  0.0275
  135MOL0     C17754   3.732   1.967  10.427  0.4825  0.9187  1.2434
  135MOL0     H17755   3.523   2.427  10.427 -0.6428  2.2949  0.2322
  135MOL0     H17756   3.423   2.605  10.297  2.3491  1.5591 -0.6836
  135MOL0     H17757   3.547   2.716   9.922 -0.6372  1.5624 -4.7074
  135MOL0     H17758   3.408   2.817   9.948  0.8439  0.3404 -1.0859
  135MOL0     H17759   3.409   2.562   9.793 -2.3214  0.1824 -2.2703
  135MOL0     H17760   3.369   2.718   9.723 -2.1846  1.4052  0.1626
  135MOL0     H17761   3.151   2.708   9.770 -3.0009 -0.5612  0.8325
  135MOL0     H17762   3.180   2.668   9.935  0.8583 -0.3628  0.3251
  135MOL0     H17763   3.154   2.464   9.716  1.1002 -0.8407 -0.0200
  135MOL0     H17764   3.247   2.416   9.851 -0.3547 -0.8645 -0.5290
  135MOL0     H17765   2.965   2.533   9.880 -0.6768  1.2636  3.0622
  135MOL0     H17766   3.059   2.468  10.017 -0.7092 -1.1708 -0.0564
  135MOL0     H17767   3.031   2.241   9.920 -1.1932 -1.8403  0.3064
  135MOL0     H17768   2.947   2.303   9.778 -0.5236 -2.7852  0.1406
  135MOL0     H17769   2.844   2.407  10.047 -1.5218 -1.1837  0.2186
  135MOL0     H17770   2.763   2.372   9.897  1.2064  0.2907 -1.0437
  135MOL0     H17771   2.871   2.201  10.128 -1.5086 -0.9554  1.1048
  135MOL0     H17772   2.822   2.113   9.989  0.8943  1.1667 -0.8958
  135MOL0     H17773   2.567   2.320   9.946 -0.8883 -0.4974 -0.5602
  135MOL0     H17774   2.238   2.220  10.117 -0.5293  1.2724  1.9438
  135MOL0     H17775   2.306   2.298   9.970 -2.4576 -1.7594  0.3011
  135MOL0     H17776   2.241   2.418  10.239  0.7968 -1.0043  0.0169
  135MOL0     H17777   2.165   2.450  10.092  0.6064  2.5600 -0.6805
  135MOL0     H17778   2.458   2.544  10.160 -0.8246 -0.1647 -0.0672
  135MOL0     H17779   2.377   2.562  10.002 -3.7899 -1.5078 -1.2938
  135MOL0     H17780   2.376   2.776  10.149 -1.6411  1.1557 -1.7580
  135MOL0     H17781   2.264   2.687  10.249  0.2970 -0.5604  0.5414
  135MOL0     H17782   2.021   2.645   9.915 -0.3242  1.3395 -0.6842
  135MOL0     H17783   1.771   2.620   9.970  0.6751  1.0183 -0.9705
  135MOL0     H17784   1.427   2.831  10.156  0.1670 -0.0974  2.0610
  135MOL0     H17785   1.170   2.834  10.178 -1.3711  0.5664 -2.2028
  135MOL0     H17786   0.987   2.578  10.350  4.0145 -4.9426  0.6816
  135MOL0     H17787   0.999   2.438  10.241 -2.5303 -0.5788 -1.3444
  135MOL0     H17788   0.777   2.498  10.146 -1.0357 -0.3178 -1.0113
  135MOL0     H17789   0.778   2.636  10.244  2.4697 -0.0999 -1.9232
  135MOL0     H17790   0.643   2.472  10.358 -0.3090  3.2387  2.5799
  135MOL0     H17791   0.790   2.484  10.453 -0.1183 -0.4811 -0.0760
  135MOL0     H17792   0.733   2.269  10.243 -0.1391 -0.6012 -0.0685
  135MOL0     H17793   0.884   2.259  10.336 -0.8862 -2.2196 -3.6669
  135MOL0     H17794   0.589   2.241  10.427 -0.2365 -2.8678 -1.7012
  135MOL0     H17795   0.709   2.258  10.548  0.2621 -0.7908 -0.5275
  135MOL0     H17796   0.828   2.047  10.464 -0.0382 -0.2317  1.4340
  135MOL0     H17797   0.711   2.025  10.341  3.6695 -0.9445  1.1658
  135MOL0     H17798   0.667   1.880  10.560 -3.6050 -1.6556 -1.3386
  135MOL0     H17799   0.625   2.039  10.628  1.8600 -2.2717  2.5924
  135MOL0     H17800   0.501   1.915  10.369  3.1945  5.5689 -2.2156
  135MOL0     H17801   0.451   2.056  10.456  2.6248  1.4929 -0.6249
  135MOL0     H17802   1.177   2.408  10.118 -0.3937  0.0781  0.4811
  135MOL0     H17803   1.432   2.414  10.088  2.8395  2.3528 -1.6798
  135MOL0     H17804   1.853   2.744  10.365  0.3962  0.1737  0.1333
  135MOL0     H17805   2.097   2.794  10.300 -1.8526 -0.3126  1.3477
  135MOL0     H17806   3.585   2.434   9.931  2.2512 -0.2853  0.5401
  135MOL0     H17807   3.641   2.240  10.065 -2.0180 -3.1310  1.5377
  135MOL0     H17808   4.002   2.157  10.500  1.6230 -1.7755  2.8400
  135MOL0     H17809   4.099   1.954  10.551  0.8276  1.5262 -1.8145
  135MOL0     H17810   3.877   1.686  10.701  0.2962 -0.8393  0.3097
  135MOL0     H17811   4.046   1.711  10.723 -0.7572  1.2235  0.7912
  135MOL0     H17812   4.091   1.485  10.614  1.8330  0.9308  3.5965
  135MOL0     H17813   4.039   1.505  10.789 -3.6352  1.0279  2.2991
  135MOL0     H17814   3.906   1.372  10.571  3.5646 -0.1433  0.6312
  135MOL0     H17815   3.803   1.493  10.650  0.7969  0.0932  0.0175
  135MOL0     H17816   3.859   1.361  10.870  1.4363 -1.5913  0.0278
  135MOL0     H17817   3.786   1.258  10.745  0.6514 -0.9634 -1.1341
  135MOL0     H17818   4.177   1.109  10.750 -0.4381 -0.5536 -1.5337
  135MOL0     H17819   3.732   1.758  10.433  0.2835  1.0330  0.0294
  135MOL0     H17820   3.642   1.953  10.369  3.5398 -3.4225 -3.2991
  136MOL0     O17821   7.989   8.343   2.492 -0.8602 -0.5726 -0.3769
  136MOL0     C17822   8.011   8.332   2.612 -0.4169  0.4956  0.0948
  136MOL0     O17823   7.931   8.396   2.705  0.4460  0.6832 -0.5325
  136MOL0     C17824   7.861   8.511   2.670 -0.7717  0.3018  0.3846
  136MOL0     C17825   7.924   8.613   2.602 -0.3795  0.0225 -0.0494
  136MOL0     C17826   7.852   8.733   2.573 -0.2539  0.2451 -1.0420
  136MOL0     C17827   7.729   8.758   2.633 -0.7860  1.0594 -1.2482
  136MOL0     O17828   7.658   8.883   2.619  0.0511  0.7577  0.2434
  136MOL0     C17829   7.511   8.892   2.596  0.1991 -0.2571 -0.1669
  136MOL0     C17830   7.457   8.958   2.724 -0.4042 -0.0395 -0.4592
  136MOL0     C17831   7.330   9.012   2.690  0.5588 -0.2270 -0.0744
  136MOL0     C17832   7.261   9.100   2.802 -0.5574  1.2196 -0.7687
  136MOL0     C17833   7.158   9.204   2.755 -1.0509 -0.5372 -0.8194
  136MOL0     C17834   7.219   9.318   2.662  0.7957 -0.5227 -0.8548
  136MOL0     C17835   7.128   9.444   2.640  1.0653  0.5015 -0.7380
  136MOL0     C17836   6.993   9.407   2.572 -0.4914 -1.0613  0.0929
  136MOL0     N17837   6.915   9.531   2.579  0.0009 -0.1956  0.2037
  136MOL0     C17838   6.963   9.664   2.560 -0.5853 -0.4247  0.3226
  136MOL0     C17839   6.859   9.745   2.584 -1.3354 -0.9793  0.1068
  136MOL0     C17840   6.853   9.896   2.559 -0.0335 -0.5913  0.9770
  136MOL0     C17841   6.770   9.947   2.452  0.4390 -0.4180 -1.2635
  136MOL0     C17842   6.619   9.931   2.480  0.2827 -0.8859  0.4166
  136MOL0     C17843   6.532   9.975   2.362  0.0294 -0.1728  0.0665
  136MOL0     O17844   6.400   9.952   2.379 -0.1061 -0.3512 -0.0868
  136MOL0     C17845   6.307   9.963   2.278  0.1830 -0.3350 -0.9417
  136MOL0     C17846   6.330  10.010   2.150 -0.1013 -0.3944  0.9076
  136MOL0     C17847   6.228  10.028   2.060  0.4702 -0.0168  1.0853
  136MOL0     C17848   6.093  10.002   2.104  0.3122 -0.6830  0.1597
  136MOL0     C17849   5.988  10.032   2.015  0.4984 -0.5106  0.7629
  136MOL0     O17850   6.022  10.068   1.885  0.3840 -0.6873 -0.1775
  136MOL0     C17851   5.921  10.073   1.786 -0.5625 -0.3823 -0.0060
  136MOL0     C17852   5.927   9.988   1.683  0.3439  0.2016  0.7421
  136MOL0     C17853   5.841   9.998   1.578  0.6704 -0.2856 -0.0862
  136MOL0     C17854   5.719  10.074   1.587 -0.5628  0.7452  0.8244
  136MOL0     O17855   5.619  10.064   1.493  0.4493  0.5326  0.2643
  136MOL0     C17856   5.652  10.085   1.356 -0.2266 -0.3295  0.0811
  136MOL0     C17857   5.655  10.232   1.311 -1.1545  0.0970 -0.1116
  136MOL0     C17858   5.658  10.247   1.159 -0.6320  0.7777  0.8333
  136MOL0     C17859   5.772  10.332   1.101 -0.0732 -0.8242 -0.2560
  136MOL0     C17860   5.898  10.262   1.060 -0.0886 -0.0617 -1.7472
  136MOL0     C17861   5.974  10.213   1.190 -1.1058 -0.1066  0.2580
  136MOL0     C17862   6.114  10.165   1.152  0.0284  0.8189  0.7001
  136MOL0     C17863   6.177  10.093   1.275 -0.3815  0.4370  0.1751
  136MOL0    Cl17864   6.355  10.090   1.288 -0.8075 -0.3779  0.1229
  136MOL0     C17865   5.703  10.150   1.696  1.1099  0.1030  0.8503
  136MOL0     C17866   5.799  10.146   1.798  0.4037 -0.6214 -0.6575
  136MOL0     O17867   5.866  10.004   2.048  0.1604 -0.4681 -0.2521
  136MOL0     C17868   6.067   9.949   2.233 -0.1900 -1.0915  1.2303
  136MOL0     C17869   6.177   9.934   2.318  0.4703  0.5508  0.2607
  136MOL0     N17870   6.758   9.670   2.639  0.9211 -0.1327 -0.0178
  136MOL0     N17871   6.800   9.546   2.642  1.5585 -1.4808 -0.6226
  136MOL0     C17872   7.673   8.662   2.713 -0.0779 -0.0587  0.4977
  136MOL0     C17873   7.737   8.539   2.734 -0.6304 -0.0614 -0.7524
  136MOL0     C17874   8.136   8.273   2.647 -0.6185 -0.6726 -0.7763
  136MOL0     C17875   8.162   8.248   2.779 -0.2892 -0.3020  0.3684
  136MOL0     C17876   8.277   8.176   2.826  0.2020  0.2805  0.1732
  136MOL0     C17877   8.386   8.155   2.742 -0.5935  0.3025  0.1894
  136MOL0     O17878   8.510   8.120   2.787 -1.0397  0.3998  0.1827
  136MOL0     C17879   8.530   8.106   2.930  0.4240  1.0615  0.0317
  136MOL0     C17880   8.671   8.055   2.948 -0.3607  0.8527 -0.1025
  136MOL0     C17881   8.667   7.906   2.910 -0.2677 -0.0955 -0.2205
  136MOL0     C17882   8.781   7.828   2.981  0.1220 -0.2060  0.0627
  136MOL0     C17883   8.760   7.685   2.979  0.1210  0.6508  0.1122
  136MOL0     C17884   8.752   7.564   2.980 -0.7996 -0.1516 -0.3826
  136MOL0     C17885   8.365   8.176   2.600  0.3281  0.1759 -0.1752
  136MOL0     C17886   8.238   8.230   2.559  0.2147 -0.6157 -0.0348
  136MOL0     H17887   8.019   8.609   2.551 -0.1873 -0.1012  0.3198
  136MOL0     H17888   7.888   8.813   2.510 -2.7917  3.9726  1.8023
  136MOL0     H17889   7.476   8.790   2.580  2.7215 -1.4093  1.0770
  136MOL0     H17890   7.489   8.953   2.507 -2.6783  0.4424  0.9133
  136MOL0     H17891   7.527   9.039   2.750 -1.1119  1.0073 -1.7022
  136MOL0     H17892   7.462   8.890   2.810 -0.3343  0.3173 -0.1768
  136MOL0     H17893   7.253   8.938   2.666  1.7569 -1.1053 -1.4450
  136MOL0     H17894   7.336   9.073   2.599  2.1982  1.6964  1.2477
  136MOL0     H17895   7.220   9.023   2.869  0.8736  1.1903  0.1136
  136MOL0     H17896   7.344   9.138   2.863  2.6547 -1.7650 -2.9357
  136MOL0     H17897   7.107   9.242   2.844  2.2787  1.2416  0.5124
  136MOL0     H17898   7.092   9.140   2.696  1.0321 -4.3437  0.6446
  136MOL0     H17899   7.249   9.276   2.566  1.2583 -0.6385 -0.6644
  136MOL0     H17900   7.314   9.348   2.709 -1.7934  1.8091  3.6356
  136MOL0     H17901   7.109   9.484   2.740  4.0084  0.1239  0.0684
  136MOL0     H17902   7.188   9.510   2.577  2.7367  0.1515  0.4239
  136MOL0     H17903   6.957   9.323   2.631  2.0018 -1.0366  1.8152
  136MOL0     H17904   7.006   9.376   2.467  1.9600  0.8863 -0.2822
  136MOL0     H17905   7.068   9.678   2.536 -0.2427 -2.7575  0.1568
  136MOL0     H17906   6.950   9.945   2.546 -0.3682  0.3315  1.7982
  136MOL0     H17907   6.815   9.936   2.653  0.0183 -0.1838  0.8274
  136MOL0     H17908   6.808   9.908   2.357  1.0609 -0.5554 -0.9647
  136MOL0     H17909   6.790  10.052   2.430 -1.3025  0.1081 -0.4832
  136MOL0     H17910   6.603   9.822   2.483  3.6102 -1.4466  1.1587
  136MOL0     H17911   6.590   9.983   2.571  0.5239  0.7490 -0.4006
  136MOL0     H17912   6.570   9.932   2.269 -0.6189  1.5909 -1.0696
  136MOL0     H17913   6.554  10.082   2.359 -2.2274  0.3497  0.6138
  136MOL0     H17914   6.428  10.046   2.121  0.2317 -1.9644  0.0115
  136MOL0     H17915   6.248  10.062   1.959  1.2007 -2.4981  0.3061
  136MOL0     H17916   6.009   9.917   1.676 -1.4883 -1.9392 -0.4130
  136MOL0     H17917   5.857   9.930   1.495 -0.4555  1.1837 -1.5575
  136MOL0     H17918   5.565  10.055   1.297 -3.0593  3.9805  1.6241
  136MOL0     H17919   5.739  10.023   1.332 -0.8193 -0.6116 -1.4131
  136MOL0     H17920   5.749  10.271   1.353 -0.6734 -1.7992  0.6796
  136MOL0     H17921   5.572  10.295   1.343 -1.3826  0.3518 -1.1660
  136MOL0     H17922   5.563  10.288   1.124  0.4548  0.8421 -2.3986
  136MOL0     H17923   5.660  10.150   1.108 -1.2423  1.6437 -0.8910
  136MOL0     H17924   5.745  10.405   1.024 -0.8192 -0.2983  0.4828
  136MOL0     H17925   5.802  10.389   1.189 -0.1756 -2.4817  0.9126
  136MOL0     H17926   5.960  10.340   1.014 -3.5745  2.5227 -2.5091
  136MOL0     H17927   5.880  10.179   0.992 -0.9241  1.0727 -2.9656
  136MOL0     H17928   5.919  10.130   1.235  1.1497 -2.9392 -1.7653
  136MOL0     H17929   6.004  10.288   1.264 -2.3208  1.2070 -0.5386
  136MOL0     H17930   6.105  10.101   1.064 -4.3732 -0.6133  1.9183
  136MOL0     H17931   6.188  10.241   1.129  2.2726 -1.8279 -1.5728
  136MOL0     H17932   6.150   9.988   1.285 -0.0275  0.4591  1.5129
  136MOL0     H17933   6.140  10.149   1.361 -1.1161 -2.7487  2.0815
  136MOL0     H17934   5.618  10.217   1.701 -1.1466 -1.7127 -5.0226
  136MOL0     H17935   5.783  10.203   1.889  0.5044  0.1929 -1.1428
  136MOL0     H17936   5.967   9.931   2.270 -0.8836  1.1976  0.6806
  136MOL0     H17937   6.156   9.890   2.414 -1.7987 -1.2944 -0.9897
  136MOL0     H17938   7.578   8.663   2.766  0.5040 -1.9318  1.6963
  136MOL0     H17939   7.693   8.462   2.796 -2.8541 -1.1150 -3.4010
  136MOL0     H17940   8.093   8.285   2.855 -0.6975 -0.8878  0.2846
  136MOL0     H17941   8.285   8.152   2.932  1.4605  2.7247  0.6968
  136MOL0     H17942   8.456   8.035   2.968  0.9733  0.0088 -0.7974
  136MOL0     H17943   8.521   8.201   2.982  2.9621  2.9285 -2.6353
  136MOL0     H17944   8.728   8.113   2.875  1.1435 -1.6836 -1.0683
  136MOL0     H17945   8.709   8.072   3.049 -1.7508 -1.1229  0.8148
  136MOL0     H17946   8.669   7.890   2.802  1.9860 -1.7458 -0.0245
  136MOL0     H17947   8.568   7.863   2.932  0.0991 -1.0411 -0.3596
  136MOL0     H17948   8.869   7.864   2.928 -1.0902  1.0503 -1.1730
  136MOL0     H17949   8.783   7.858   3.086  1.5942  1.2867 -0.3534
  136MOL0     H17950   8.738   7.457   2.978  1.7508 -0.5868  0.8472
  136MOL0     H17951   8.447   8.147   2.536 -1.1659 -0.5438 -1.8506
  136MOL0     H17952   8.214   8.245   2.454 -2.5115 -0.5335  0.5244
  137MOL0     O17953   1.572   5.250   8.207 -0.1776 -0.6858  0.1871
  137MOL0     C17954   1.610   5.251   8.327  0.1858  0.3222 -0.2463
  137MOL0     O17955   1.707   5.333   8.383  0.2665  0.3917  0.0373
  137MOL0     C17956   1.765   5.429   8.300 -0.2658 -0.9720  0.1272
  137MOL0     C17957   1.716   5.564   8.300 -0.1065 -0.1087  1.2274
  137MOL0     C17958   1.799   5.660   8.230 -0.1059  0.3136 -0.9360
  137MOL0     C17959   1.909   5.625   8.148  0.3580 -0.9776 -0.4726
  137MOL0     O17960   1.973   5.726   8.086  0.2156  0.2605 -0.0939
  137MOL0     C17961   2.076   5.693   7.991  0.0332  0.3202 -0.2886
  137MOL0     C17962   2.217   5.696   8.052 -1.0400 -0.4600  0.1046
  137MOL0     C17963   2.343   5.703   7.954 -0.0572 -0.1437  0.9084
  137MOL0     C17964   2.484   5.680   8.019  0.3298 -0.1683  0.0764
  137MOL0     C17965   2.602   5.665   7.907  0.3948  0.5654 -0.9746
  137MOL0     C17966   2.615   5.799   7.825 -0.2325 -0.8114  0.3802
  137MOL0     C17967   2.725   5.806   7.725 -0.4581 -0.1231 -0.6761
  137MOL0     C17968   2.774   5.945   7.679 -0.2556  0.3442 -0.4311
  137MOL0     N17969   2.662   6.026   7.630 -0.0119 -1.1890 -0.0423
  137MOL0     C17970   2.547   5.987   7.560 -0.6983 -0.7615 -0.5071
  137MOL0     C17971   2.487   6.108   7.531  0.8377 -0.8011 -0.8275
  137MOL0     C17972   2.369   6.132   7.440  0.2148 -0.3954  0.7429
  137MOL0     C17973   2.353   6.016   7.336  0.9680 -0.8464  0.1800
  137MOL0     C17974   2.268   6.069   7.219  0.8022  0.2912 -0.0609
  137MOL0     C17975   2.112   6.046   7.237  0.3478  0.1595  0.0175
  137MOL0     O17976   2.054   6.153   7.325  0.0925  0.0013 -0.6088
  137MOL0     C17977   1.919   6.142   7.369 -0.0426 -0.2004  1.0443
  137MOL0     C17978   1.873   6.246   7.454 -0.0232  0.3464  0.0460
  137MOL0     C17979   1.730   6.247   7.491 -0.3622  0.5047 -0.0374
  137MOL0     C17980   1.650   6.148   7.446  1.1546  0.6414 -0.3176
  137MOL0     C17981   1.513   6.135   7.491  0.5570  0.7598 -0.5750
  137MOL0     O17982   1.467   6.008   7.497  0.1447 -0.3287 -0.1287
  137MOL0     C17983   1.347   5.968   7.528 -0.1624  0.3171 -0.6701
  137MOL0     C17984   1.337   5.832   7.513 -0.5865  0.2543 -0.3016
  137MOL0     C17985   1.217   5.769   7.546  0.1472 -0.4272 -0.7617
  137MOL0     C17986   1.100   5.843   7.591  0.2056 -0.2579 -0.6679
  137MOL0     O17987   0.983   5.785   7.626 -0.5275  0.0591 -0.1326
  137MOL0     C17988   0.978   5.639   7.614 -0.2620  0.8176 -0.2311
  137MOL0     C17989   0.850   5.587   7.659  0.5206  0.2444 -0.3140
  137MOL0     C17990   0.746   5.632   7.554  0.1626 -0.3264 -0.2511
  137MOL0     C17991   0.617   5.556   7.591  1.3423  0.0168  1.0714
  137MOL0     C17992   0.497   5.598   7.504  0.2950 -0.2426  0.1971
  137MOL0     C17993   0.357   5.547   7.558  0.2812 -0.9036  0.1757
  137MOL0     C17994   0.375   5.390   7.581 -0.2406  0.5085  0.5119
  137MOL0     C17995   0.244   5.320   7.615 -0.2893  0.2200 -0.3241
  137MOL0    Cl17996   0.167   5.375   7.770  0.4120 -0.4838 -0.2613
  137MOL0     C17997   1.116   5.985   7.598  0.3448  0.1207 -0.2042
  137MOL0     C17998   1.237   6.050   7.566  0.1919  0.4840 -0.2608
  137MOL0     O17999   1.452   6.235   7.535  0.1462  0.1981 -0.0799
  137MOL0     C18000   1.698   6.034   7.365  0.1783 -0.1797 -0.2553
  137MOL0     C18001   1.836   6.032   7.335  0.2548  0.5157  0.0501
  137MOL0     N18002   2.558   6.211   7.594 -0.2520 -0.0912  0.3307
  137MOL0     N18003   2.670   6.165   7.639  0.0850  0.1154  0.0678
  137MOL0     C18004   1.943   5.488   8.149  0.9338  0.2916  0.3665
  137MOL0     C18005   1.875   5.388   8.226  0.7957 -0.3473  0.5453
  137MOL0     C18006   1.545   5.150   8.417  0.4578  0.4122  0.4181
  137MOL0     C18007   1.602   5.116   8.536 -0.3071 -0.0797  0.5253
  137MOL0     C18008   1.546   5.015   8.614  0.4068  0.0842  0.2737
  137MOL0     C18009   1.424   4.957   8.594 -0.0591  0.5467  0.4936
  137MOL0     O18010   1.372   4.875   8.686 -0.2006 -0.7177 -0.1456
  137MOL0     C18011   1.252   4.803   8.669 -0.0142  0.0211 -0.1167
  137MOL0     C18012   1.160   4.831   8.782  0.2205 -0.9068  0.1743
  137MOL0     C18013   1.222   4.776   8.906  0.7330  0.1337 -0.4318
  137MOL0     C18014   1.143   4.771   9.029 -0.1617  0.1904  0.0108
  137MOL0     C18015   1.026   4.681   9.027 -0.0410 -0.4324 -0.9844
  137MOL0     C18016   0.934   4.601   9.033  0.7365 -0.0676  0.3777
  137MOL0     C18017   1.362   4.995   8.467  0.9194  0.2497 -0.3826
  137MOL0     C18018   1.424   5.086   8.382 -0.0874  0.2122  0.3905
  137MOL0     H18019   1.634   5.583   8.369 -0.3000 -3.4057  2.0763
  137MOL0     H18020   1.781   5.767   8.235 -2.0636 -0.0391  0.6757
  137MOL0     H18021   2.074   5.782   7.928  0.4817  1.9631  1.8833
  137MOL0     H18022   2.062   5.598   7.939 -1.6279  0.3485  0.0525
  137MOL0     H18023   2.243   5.610   8.114  2.9001 -0.7679 -1.6616
  137MOL0     H18024   2.229   5.783   8.117  2.4548 -1.5275  1.0855
  137MOL0     H18025   2.340   5.803   7.909 -3.5582 -0.4906  0.0406
  137MOL0     H18026   2.324   5.633   7.872 -3.0310 -0.9007  2.1122
  137MOL0     H18027   2.503   5.765   8.085  1.5398 -0.2796 -0.1243
  137MOL0     H18028   2.490   5.586   8.076  2.1837  0.3492  0.8102
  137MOL0     H18029   2.597   5.572   7.850  0.9891  0.5384 -0.9986
  137MOL0     H18030   2.697   5.649   7.960  0.2166  3.5144  0.4231
  137MOL0     H18031   2.641   5.873   7.901  1.1878 -0.6073 -0.2811
  137MOL0     H18032   2.518   5.817   7.778 -0.5767 -0.7103  1.1142
  137MOL0     H18033   2.804   5.763   7.788 -2.0451 -1.0730  0.7674
  137MOL0     H18034   2.702   5.737   7.643  0.5278 -0.1698 -0.9262
  137MOL0     H18035   2.856   5.933   7.608  2.3024 -0.7783  2.4712
  137MOL0     H18036   2.818   5.990   7.769 -1.1578 -2.2542  1.4412
  137MOL0     H18037   2.509   5.886   7.546 -1.1662 -0.7887  0.8217
  137MOL0     H18038   2.382   6.229   7.390 -3.4337 -0.1029  0.0636
  137MOL0     H18039   2.275   6.148   7.495 -0.8940 -1.9480 -0.6042
  137MOL0     H18040   2.304   5.936   7.391 -2.4789  0.3590 -0.9084
  137MOL0     H18041   2.448   5.986   7.290  0.0079  0.4332 -2.8655
  137MOL0     H18042   2.300   6.169   7.188  3.0111 -0.9799 -2.2072
  137MOL0     H18043   2.297   6.019   7.126 -3.7502 -0.2963 -1.4569
  137MOL0     H18044   2.100   5.943   7.273 -1.7432  0.7487  1.2268
  137MOL0     H18045   2.063   6.041   7.139 -0.6612 -2.0083  0.5630
  137MOL0     H18046   1.942   6.320   7.491  2.6350 -2.0969  0.2553
  137MOL0     H18047   1.692   6.330   7.549 -2.2443  1.7126 -2.7677
  137MOL0     H18048   1.414   5.770   7.467 -1.6018 -0.7934 -0.6583
  137MOL0     H18049   1.212   5.662   7.528 -2.7179 -0.5274  0.1049
  137MOL0     H18050   1.053   5.604   7.686 -1.4865 -0.9373  0.2379
  137MOL0     H18051   0.992   5.604   7.512 -0.7636  1.0223 -0.3678
  137MOL0     H18052   0.818   5.626   7.757 -0.3501  0.7837 -0.7966
  137MOL0     H18053   0.871   5.481   7.672  0.3709  0.4274  1.9313
  137MOL0     H18054   0.769   5.597   7.452 -0.3162 -0.8468 -0.1868
  137MOL0     H18055   0.746   5.741   7.548  2.0257 -0.1134  2.2327
  137MOL0     H18056   0.628   5.447   7.589 -0.3175 -0.1900 -1.5237
  137MOL0     H18057   0.584   5.588   7.690  0.3405  1.0034  0.4427
  137MOL0     H18058   0.531   5.564   7.405  1.5387  2.9463 -0.6113
  137MOL0     H18059   0.491   5.707   7.513 -2.1611 -0.5300  3.7469
  137MOL0     H18060   0.274   5.561   7.489  0.5286  2.5189  0.3946
  137MOL0     H18061   0.341   5.599   7.653  1.0988  1.0271 -0.7063
  137MOL0     H18062   0.412   5.337   7.493  0.3484  0.6677  0.6570
  137MOL0     H18063   0.439   5.375   7.669  0.4982  0.6595  0.0088
  137MOL0     H18064   0.253   5.211   7.612 -2.4647  0.0133 -2.4719
  137MOL0     H18065   0.175   5.341   7.532 -1.1931 -2.6062 -0.3829
  137MOL0     H18066   1.026   6.044   7.616  0.1488 -0.0610 -0.5787
  137MOL0     H18067   1.243   6.156   7.583  1.7718  0.5962 -1.2478
  137MOL0     H18068   1.637   5.950   7.334 -0.9105  0.4322  0.1886
  137MOL0     H18069   1.862   5.945   7.275  0.7781 -0.7841  2.0484
  137MOL0     H18070   2.026   5.455   8.088  1.1004  1.8594 -0.3025
  137MOL0     H18071   1.899   5.283   8.234 -0.4955 -0.7881 -0.8775
  137MOL0     H18072   1.699   5.159   8.558 -0.4484  0.9037 -0.6440
  137MOL0     H18073   1.600   4.988   8.705 -1.5550  1.5524  1.9612
  137MOL0     H18074   1.273   4.695   8.662  0.7254 -0.0200  1.8724
  137MOL0     H18075   1.207   4.829   8.573 -0.2445  0.4912  0.1193
  137MOL0     H18076   1.144   4.939   8.788 -0.4981 -1.0878  2.7190
  137MOL0     H18077   1.063   4.790   8.753  0.5552  0.8755 -4.2938
  137MOL0     H18078   1.316   4.828   8.927 -0.6482  2.0527  1.2829
  137MOL0     H18079   1.256   4.673   8.886  2.7753  0.6512  0.0939
  137MOL0     H18080   1.205   4.735   9.111  1.1253 -0.7056 -1.2956
  137MOL0     H18081   1.104   4.873   9.036 -0.5065  0.2846 -2.4591
  137MOL0     H18082   0.864   4.521   9.038  1.1043 -0.4688 -0.6866
  137MOL0     H18083   1.264   4.956   8.441  1.2575 -0.0633 -1.2361
  137MOL0     H18084   1.370   5.122   8.295 -0.0720  1.8229  1.0177
  138MOL0     O18085   4.316   6.276   2.820 -0.0514 -0.4813 -0.1930
  138MOL0     C18086   4.338   6.331   2.715  0.5484 -0.4372  1.5531
  138MOL0     O18087   4.245   6.337   2.614  0.4197 -0.3639  0.6042
  138MOL0     C18088   4.119   6.286   2.636 -0.0355 -0.4435 -0.2068
  138MOL0     C18089   4.037   6.350   2.730 -0.0396 -0.6589  0.2099
  138MOL0     C18090   3.911   6.303   2.749  0.7570  0.3097  0.1734
  138MOL0     C18091   3.863   6.183   2.687 -0.6417 -0.3749 -0.0291
  138MOL0     O18092   3.741   6.132   2.711  0.6005  0.2566  0.0222
  138MOL0     C18093   3.746   6.057   2.839 -0.3946  0.3226 -0.0839
  138MOL0     C18094   3.613   5.957   2.838 -0.1551 -0.4551 -0.2008
  138MOL0     C18095   3.483   6.022   2.883  0.0807 -0.2180 -0.6796
  138MOL0     C18096   3.450   6.165   2.824  1.3731  0.0476 -0.9552
  138MOL0     C18097   3.322   6.213   2.887 -0.0367 -0.4933 -0.1613
  138MOL0     C18098   3.348   6.272   3.022  0.6779 -0.4938  0.1628
  138MOL0     C18099   3.237   6.347   3.095  0.5062 -0.0209  0.0390
  138MOL0     C18100   3.198   6.483   3.025  0.0233 -0.1501  0.0323
  138MOL0     N18101   3.318   6.571   3.035  0.1353 -0.0507  0.3625
  138MOL0     C18102   3.390   6.618   2.924 -0.4999 -0.0780 -0.0311
  138MOL0     C18103   3.498   6.679   2.982 -0.7343 -0.2797 -0.0328
  138MOL0     C18104   3.618   6.744   2.911  0.3295 -0.4203 -0.8714
  138MOL0     C18105   3.758   6.708   2.974  0.3736 -0.5208 -0.2552
  138MOL0     C18106   3.876   6.742   2.875 -0.3814  0.1404  0.8375
  138MOL0     C18107   4.022   6.724   2.926 -0.3533 -0.5108 -0.2723
  138MOL0     O18108   4.114   6.727   2.819  0.0188 -0.0321  0.3077
  138MOL0     C18109   4.233   6.787   2.849  0.4701 -0.6456 -0.2723
  138MOL0     C18110   4.263   6.928   2.833  0.7008  1.2989 -0.4792
  138MOL0     C18111   4.397   6.980   2.864  0.7045  0.5507  0.3256
  138MOL0     C18112   4.483   6.897   2.928 -0.4993 -0.6705  0.2981
  138MOL0     C18113   4.600   6.953   2.989  0.7207  0.3297  1.0803
  138MOL0     O18114   4.641   6.905   3.109 -0.1471  0.0465 -0.0878
  138MOL0     C18115   4.741   6.978   3.174  0.2107  0.0934  0.5723
  138MOL0     C18116   4.721   7.054   3.294 -0.5887  0.9925 -0.3307
  138MOL0     C18117   4.816   7.138   3.344 -0.1639 -1.0389 -0.3350
  138MOL0     C18118   4.943   7.136   3.290  1.0779 -0.8695  0.1688
  138MOL0     O18119   5.040   7.224   3.328 -0.4603  0.1687 -0.9015
  138MOL0     C18120   5.028   7.303   3.454 -0.4333 -0.2552  0.1187
  138MOL0     C18121   5.165   7.371   3.480 -0.4125 -0.2227  0.2092
  138MOL0     C18122   5.276   7.272   3.486 -0.5980  1.0152 -1.0487
  138MOL0     C18123   5.403   7.345   3.520  0.0628  0.2460 -0.3191
  138MOL0     C18124   5.520   7.253   3.499  0.1106 -0.2147  0.1684
  138MOL0     C18125   5.651   7.299   3.564  0.3468 -0.1786 -0.5001
  138MOL0     C18126   5.744   7.188   3.551 -0.7337 -0.0434  0.2267
  138MOL0     C18127   5.872   7.250   3.611 -0.5263  0.2714  0.5349
  138MOL0    Cl18128   5.941   7.376   3.501  0.6852  0.0357  0.0791
  138MOL0     C18129   4.969   7.052   3.177 -0.5107 -0.7236  0.4758
  138MOL0     C18130   4.868   6.978   3.121 -0.1090  0.1110  0.7667
  138MOL0     O18131   4.651   7.038   2.919 -0.5580 -0.3353  0.6782
  138MOL0     C18132   4.451   6.762   2.945 -0.4965 -0.1849 -0.0728
  138MOL0     C18133   4.333   6.718   2.910  0.1925  0.5846 -0.3048
  138MOL0     N18134   3.482   6.673   3.118  0.8386 -0.1722  0.8917
  138MOL0     N18135   3.372   6.607   3.148  0.5901  0.1113 -0.1922
  138MOL0     C18136   3.949   6.113   2.602  0.4106 -0.8415  0.5620
  138MOL0     C18137   4.072   6.166   2.579  1.0279  0.5939 -0.4430
  138MOL0     C18138   4.474   6.392   2.684 -0.6166  1.1631  0.2763
  138MOL0     C18139   4.490   6.451   2.555  0.1178  0.5359 -0.6024
  138MOL0     C18140   4.600   6.539   2.533 -0.3931  0.5878 -0.8442
  138MOL0     C18141   4.702   6.554   2.631 -0.3053  0.0978  0.4693
  138MOL0     O18142   4.806   6.643   2.624 -0.2740  0.0643  0.4063
  138MOL0     C18143   4.812   6.753   2.522 -0.1502  0.9703 -0.0640
  138MOL0     C18144   4.931   6.845   2.562 -0.0072  0.0385 -0.2252
  138MOL0     C18145   4.930   6.914   2.696  1.4685 -0.7722  0.1762
  138MOL0     C18146   5.067   6.942   2.767 -0.3343  0.4289  0.4331
  138MOL0     C18147   5.146   7.040   2.686 -1.0564 -0.2886 -0.4503
  138MOL0     C18148   5.206   7.113   2.612  0.3238 -0.4553 -0.6379
  138MOL0     C18149   4.679   6.499   2.760 -0.2405 -0.0749 -0.3015
  138MOL0     C18150   4.566   6.415   2.779 -0.5381 -0.2089  0.0151
  138MOL0     H18151   4.067   6.435   2.789 -2.8102  0.2165  0.5303
  138MOL0     H18152   3.850   6.353   2.824 -1.3994 -2.2968  0.3206
  138MOL0     H18153   3.752   6.128   2.922 -1.4886 -0.4213  0.6755
  138MOL0     H18154   3.842   6.006   2.849 -0.6720 -0.7787 -2.4242
  138MOL0     H18155   3.645   5.873   2.900  0.6598 -1.1656 -1.5320
  138MOL0     H18156   3.590   5.929   2.735 -2.1557  0.3181 -0.0095
  138MOL0     H18157   3.491   6.035   2.992  0.4088  1.1136 -0.8427
  138MOL0     H18158   3.400   5.954   2.861 -1.0008  0.0454  2.1718
  138MOL0     H18159   3.529   6.234   2.855 -0.4392  0.5133  3.3664
  138MOL0     H18160   3.432   6.146   2.718 -1.9568 -2.7688 -0.0601
  138MOL0     H18161   3.246   6.134   2.881  1.0935 -1.6082 -0.2435
  138MOL0     H18162   3.289   6.283   2.810  0.0137 -0.3292 -0.0319
  138MOL0     H18163   3.428   6.344   3.005  1.1578 -0.7112  1.3615
  138MOL0     H18164   3.394   6.204   3.095  2.7719  0.1757 -0.4582
  138MOL0     H18165   3.148   6.289   3.123  1.1202 -0.7027  0.6316
  138MOL0     H18166   3.277   6.377   3.192  1.4628  0.4624 -0.4949
  138MOL0     H18167   3.114   6.520   3.085 -0.0993  1.2118 -0.9261
  138MOL0     H18168   3.164   6.490   2.921  0.3851  2.9453  0.0340
  138MOL0     H18169   3.373   6.594   2.820  1.5194 -0.1438 -0.3872
  138MOL0     H18170   3.606   6.852   2.905 -1.1411 -0.6304 -2.7392
  138MOL0     H18171   3.627   6.717   2.805  0.9579 -0.2052 -0.8723
  138MOL0     H18172   3.762   6.598   2.975 -0.5053 -0.5920 -1.5672
  138MOL0     H18173   3.777   6.754   3.071  3.2251 -1.9671 -0.0148
  138MOL0     H18174   3.862   6.674   2.791  0.4792 -0.1193  0.9025
  138MOL0     H18175   3.872   6.849   2.850  0.8393 -0.1031 -0.5495
  138MOL0     H18176   4.032   6.628   2.977  1.8356 -0.4577 -0.5034
  138MOL0     H18177   4.051   6.802   2.997 -0.4321  0.0067 -0.7942
  138MOL0     H18178   4.197   6.997   2.781  2.0901  1.5135 -2.0210
  138MOL0     H18179   4.410   7.080   2.823 -0.3302 -0.0206 -1.5048
  138MOL0     H18180   4.623   7.056   3.340 -1.3002 -1.7793 -1.5022
  138MOL0     H18181   4.799   7.198   3.433  0.0057 -1.8673  0.2684
  138MOL0     H18182   5.010   7.236   3.539  3.1962 -1.7179 -0.0754
  138MOL0     H18183   4.944   7.372   3.444 -1.6797 -1.4080  2.0145
  138MOL0     H18184   5.173   7.423   3.576 -2.0622  0.0898  0.2042
  138MOL0     H18185   5.184   7.445   3.402 -1.7260 -0.3681 -0.2645
  138MOL0     H18186   5.302   7.222   3.393  3.0513 -0.2755  0.4861
  138MOL0     H18187   5.265   7.201   3.569 -1.5240  2.1097 -0.1899
  138MOL0     H18188   5.410   7.433   3.456 -1.0241 -0.1064 -0.9502
  138MOL0     H18189   5.402   7.366   3.627 -0.9453 -2.4869  0.3160
  138MOL0     H18190   5.530   7.242   3.390  0.3853 -2.1064  0.3620
  138MOL0     H18191   5.491   7.155   3.537 -0.7987  0.3997  1.1118
  138MOL0     H18192   5.640   7.331   3.668 -1.4145 -0.5453 -0.5459
  138MOL0     H18193   5.683   7.395   3.524  0.3185 -0.7700 -2.0152
  138MOL0     H18194   5.709   7.093   3.594  0.6097 -1.0410 -0.7964
  138MOL0     H18195   5.764   7.171   3.445 -1.9434  1.0270 -0.1980
  138MOL0     H18196   5.951   7.175   3.616 -1.6313 -0.8939  1.3585
  138MOL0     H18197   5.858   7.286   3.713  1.0389  0.4288  0.7081
  138MOL0     H18198   5.065   7.069   3.129 -0.9856 -2.1273 -1.0584
  138MOL0     H18199   4.865   6.911   3.036 -4.1121  1.1294 -0.1051
  138MOL0     H18200   4.527   6.704   2.997 -1.0690 -0.0160  0.9982
  138MOL0     H18201   4.326   6.611   2.928  0.3257  0.1908 -2.3549
  138MOL0     H18202   3.905   6.021   2.565 -0.4111 -1.1690  2.2402
  138MOL0     H18203   4.138   6.109   2.514  1.5235  1.3883 -0.6435
  138MOL0     H18204   4.423   6.430   2.473 -0.0459 -2.4202  0.1795
  138MOL0     H18205   4.617   6.591   2.439  1.8425  0.1996 -0.7118
  138MOL0     H18206   4.714   6.802   2.519 -1.5212 -1.4152 -5.4072
  138MOL0     H18207   4.825   6.710   2.422  2.7382 -3.2484  1.8186
  138MOL0     H18208   5.013   6.772   2.558 -1.1651 -1.2428 -1.2733
  138MOL0     H18209   4.945   6.918   2.482 -2.9490  1.1952  0.2071
  138MOL0     H18210   4.869   6.853   2.763  1.9266  0.2857  1.6056
  138MOL0     H18211   4.876   7.009   2.694  0.3369 -1.3964  0.2961
  138MOL0     H18212   5.058   6.992   2.864  1.9967  1.6780  0.0664
  138MOL0     H18213   5.115   6.843   2.769  0.1379  0.6138 -0.6992
  138MOL0     H18214   5.247   7.196   2.559 -0.8754  0.1128 -0.7067
  138MOL0     H18215   4.753   6.519   2.836 -0.5200 -0.2882  0.0305
  138MOL0     H18216   4.532   6.383   2.877 -1.1247 -0.2828 -0.2041
  139MOL0     O18217   1.620   9.609  10.077  0.3976 -0.6160  0.1959
  139MOL0     C18218   1.627   9.726  10.063  0.1210 -0.6008  0.6442
  139MOL0     O18219   1.573   9.803   9.959  0.0509 -0.6644  1.0332
  139MOL0     C18220   1.467   9.743   9.883 -0.8696 -1.1349  0.4375
  139MOL0     C18221   1.335   9.718   9.931 -1.2040  0.0275 -0.4119
  139MOL0     C18222   1.244   9.662   9.843  0.1342  0.5401 -0.8834
  139MOL0     C18223   1.275   9.621   9.714 -0.2326  0.3252 -0.3115
  139MOL0     O18224   1.165   9.563   9.651  0.3717 -0.0582  0.3320
  139MOL0     C18225   1.201   9.473   9.547  0.1376  1.2689  0.0953
  139MOL0     C18226   1.082   9.398   9.493  0.0942  0.2663  0.7711
  139MOL0     C18227   1.006   9.472   9.379  0.1191 -0.7061 -0.0433
  139MOL0     C18228   0.862   9.435   9.387  0.2165 -0.7886 -0.6188
  139MOL0     C18229   0.775   9.502   9.288  0.0057 -0.0266 -0.1682
  139MOL0     C18230   0.628   9.461   9.316 -1.6464  0.2525  0.5237
  139MOL0     C18231   0.550   9.559   9.236  0.4976 -0.3499  0.1890
  139MOL0     C18232   0.402   9.538   9.276 -0.0770 -0.7347  0.0969
  139MOL0     N18233   0.300   9.579   9.177  0.3590 -0.2668  0.1547
  139MOL0     C18234   0.162   9.590   9.211  0.2978 -0.7382  0.0047
  139MOL0     C18235   0.103   9.614   9.090 -0.9202 -0.2848  0.2388
  139MOL0     C18236  -0.047   9.648   9.075  1.3077 -0.6565 -0.1888
  139MOL0     C18237  -0.096   9.571   8.956  0.7253  0.4510  0.6933
  139MOL0     C18238  -0.073   9.424   8.968 -0.5681 -0.9667 -0.3925
  139MOL0     C18239  -0.176   9.348   8.878 -0.1988  0.0445  0.2931
  139MOL0     O18240  -0.300   9.352   8.944  0.1462  0.8559 -0.6602
  139MOL0     C18241  -0.416   9.323   8.872  0.6551  0.9361 -1.0664
  139MOL0     C18242  -0.532   9.313   8.954  0.4341 -0.7814 -0.4048
  139MOL0     C18243  -0.652   9.266   8.899 -0.1945  0.2439 -0.9286
  139MOL0     C18244  -0.659   9.235   8.760  0.3499  0.6797 -0.0150
  139MOL0     C18245  -0.787   9.169   8.705 -0.4598  0.2648  0.6170
  139MOL0     O18246  -0.886   9.164   8.786 -0.4083  0.0648 -0.6289
  139MOL0     C18247  -1.014   9.129   8.737 -0.0701 -0.3700 -0.2166
  139MOL0     C18248  -1.058   8.997   8.750 -0.1972 -0.5695  0.6518
  139MOL0     C18249  -1.183   8.964   8.695 -1.0891 -0.0621  0.2593
  139MOL0     C18250  -1.260   9.066   8.621 -0.6674  0.1997  0.5132
  139MOL0     O18251  -1.371   9.041   8.549 -0.3016  0.7617  0.2469
  139MOL0     C18252  -1.454   8.930   8.564 -0.5047  0.2725 -0.3302
  139MOL0     C18253  -1.581   8.962   8.483 -0.5705 -0.1043 -0.3012
  139MOL0     C18254  -1.691   8.860   8.523  0.2897 -0.1341 -0.0220
  139MOL0     C18255  -1.679   8.720   8.451  0.1164  0.2845 -0.4081
  139MOL0     C18256  -1.792   8.626   8.514  0.5255 -0.0705  0.2288
  139MOL0     C18257  -1.805   8.499   8.422 -0.7601 -0.4050 -0.2629
  139MOL0     C18258  -1.878   8.388   8.505 -0.1206 -0.2141 -0.5692
  139MOL0     C18259  -1.926   8.270   8.426  0.3021 -0.3935 -0.2502
  139MOL0    Cl18260  -2.038   8.165   8.519 -1.0362  0.0665 -0.0650
  139MOL0     C18261  -1.214   9.197   8.616  1.1030  0.0213  0.1328
  139MOL0     C18262  -1.089   9.230   8.665  0.2173 -0.2634  0.7924
  139MOL0     O18263  -0.790   9.147   8.584  0.0702  0.2390 -0.3152
  139MOL0     C18264  -0.546   9.253   8.675 -0.5816  0.2864  0.3756
  139MOL0     C18265  -0.432   9.304   8.731 -0.9347  0.6790 -0.3436
  139MOL0     N18266   0.200   9.633   8.992 -0.3365 -0.1728  0.5683
  139MOL0     N18267   0.314   9.602   9.047  0.1820 -0.1847  0.2388
  139MOL0     C18268   1.402   9.645   9.660 -0.3430 -0.6782  0.1836
  139MOL0     C18269   1.500   9.710   9.743 -0.3389  0.4724 -0.0760
  139MOL0     C18270   1.730   9.795  10.141  0.3464  0.5864 -0.4151
  139MOL0     C18271   1.798   9.729  10.244  0.8980  0.2740  0.4700
  139MOL0     C18272   1.903   9.798  10.321  0.1542  1.5020 -1.0258
  139MOL0     C18273   1.944   9.928  10.283  0.2308  0.0726  0.0282
  139MOL0     O18274   2.048   9.983  10.359  0.3727  0.2563  0.1358
  139MOL0     C18275   2.130  10.094  10.294 -0.4075  0.4084 -0.2795
  139MOL0     C18276   2.282  10.069  10.309 -0.1140 -0.6045  0.3367
  139MOL0     C18277   2.331  10.028  10.447 -0.1285  0.0243  0.0288
  139MOL0     C18278   2.477  10.033  10.459 -0.4601  1.0377 -0.6620
  139MOL0     C18279   2.521  10.163  10.514  0.1741 -0.8123 -0.5690
  139MOL0     C18280   2.549  10.273  10.554 -0.4903  0.4152 -0.3112
  139MOL0     C18281   1.866   9.989  10.181 -0.3582 -1.0628 -0.0072
  139MOL0     C18282   1.770   9.922  10.108  0.8857 -0.6915 -0.3622
  139MOL0     H18283   1.300   9.751  10.028 -2.7206 -1.5260 -0.3911
  139MOL0     H18284   1.143   9.638   9.875  0.6213  1.3904  1.4694
  139MOL0     H18285   1.269   9.395   9.584 -2.5099  0.3712  3.6876
  139MOL0     H18286   1.247   9.534   9.469 -0.6835  0.1717 -1.3035
  139MOL0     H18287   1.017   9.366   9.575 -0.7424 -0.2619 -0.0821
  139MOL0     H18288   1.112   9.310   9.435 -2.5632  0.2663 -0.8023
  139MOL0     H18289   1.047   9.439   9.283  2.3434  1.4330  0.0725
  139MOL0     H18290   1.021   9.579   9.399  2.3334 -1.2408  1.6198
  139MOL0     H18291   0.859   9.327   9.399  2.0529 -0.6402  1.9378
  139MOL0     H18292   0.821   9.463   9.485  0.1339 -0.7350 -0.6680
  139MOL0     H18293   0.810   9.466   9.191  1.4338 -0.0451  0.3296
  139MOL0     H18294   0.792   9.610   9.280  0.6755 -0.2763 -2.8666
  139MOL0     H18295   0.602   9.474   9.421 -2.0897 -2.4822  0.8292
  139MOL0     H18296   0.609   9.355   9.294  0.2199 -0.0375  0.1396
  139MOL0     H18297   0.570   9.661   9.268 -2.1519 -0.3798  2.2869
  139MOL0     H18298   0.566   9.533   9.131 -3.2040  0.7058 -0.7840
  139MOL0     H18299   0.390   9.609   9.358  2.8741  1.0885 -0.8955
  139MOL0     H18300   0.394   9.431   9.299 -1.2874 -1.0734 -1.6188
  139MOL0     H18301   0.104   9.578   9.302 -0.6446 -1.7311 -0.6910
  139MOL0     H18302  -0.077   9.752   9.060 -1.7989 -1.4885 -0.3760
  139MOL0     H18303  -0.091   9.609   9.167  1.5228 -0.7302 -0.1168
  139MOL0     H18304  -0.059   9.625   8.868  1.3498  2.1928  1.9618
  139MOL0     H18305  -0.203   9.592   8.965  0.7043  0.3608  0.6411
  139MOL0     H18306   0.022   9.395   8.923  1.0088  0.3221  1.8893
  139MOL0     H18307  -0.058   9.391   9.071  0.4252  0.2051 -0.1468
  139MOL0     H18308  -0.144   9.245   8.858 -1.6735 -0.9729  2.6540
  139MOL0     H18309  -0.177   9.395   8.780  1.7938 -0.9937 -0.2689
  139MOL0     H18310  -0.515   9.339   9.058  1.1576  0.8815 -0.9081
  139MOL0     H18311  -0.738   9.260   8.965  1.9466 -1.5437  1.9896
  139MOL0     H18312  -1.011   8.927   8.819 -2.7363 -1.9147  1.1370
  139MOL0     H18313  -1.224   8.864   8.688 -2.1280  0.3826 -0.2902
  139MOL0     H18314  -1.464   8.911   8.671 -1.4354 -1.2447 -0.6520
  139MOL0     H18315  -1.411   8.838   8.521 -1.3948 -0.9906  1.3543
  139MOL0     H18316  -1.560   8.951   8.376  1.7597 -3.9010  0.3654
  139MOL0     H18317  -1.621   9.060   8.511  2.3039  0.6656  1.6132
  139MOL0     H18318  -1.787   8.895   8.485 -0.0995 -2.9807 -2.0226
  139MOL0     H18319  -1.712   8.841   8.629  0.9549  0.8007  0.2971
  139MOL0     H18320  -1.686   8.721   8.342 -2.4849 -1.7513 -0.3630
  139MOL0     H18321  -1.578   8.680   8.462  0.1753  0.9896  2.5631
  139MOL0     H18322  -1.886   8.681   8.502  1.1898  0.5737 -3.0183
  139MOL0     H18323  -1.763   8.608   8.618 -0.8956 -0.8916  0.5049
  139MOL0     H18324  -1.709   8.448   8.413 -0.5135 -0.2454  1.2637
  139MOL0     H18325  -1.856   8.511   8.326 -0.5631  0.2571 -0.2913
  139MOL0     H18326  -1.796   8.356   8.571 -1.9921 -0.4507  1.7459
  139MOL0     H18327  -1.961   8.423   8.566  0.7361  2.0895 -0.6161
  139MOL0     H18328  -1.833   8.219   8.398  1.3187 -0.6572  3.1682
  139MOL0     H18329  -1.977   8.314   8.340 -0.5327  3.6160  2.0643
  139MOL0     H18330  -1.276   9.249   8.545 -1.8258  0.7499  2.9728
  139MOL0     H18331  -1.055   9.330   8.642  2.0957 -1.0726 -0.1419
  139MOL0     H18332  -0.548   9.234   8.569  1.8248 -1.4242  0.5363
  139MOL0     H18333  -0.352   9.318   8.659 -1.2268  0.4622 -0.7132
  139MOL0     H18334   1.423   9.607   9.561  0.0911 -0.6314  0.2596
  139MOL0     H18335   1.598   9.717   9.699  0.0723 -2.7471  0.0976
  139MOL0     H18336   1.783   9.622  10.249 -0.0641  0.1631 -2.6912
  139MOL0     H18337   1.959   9.743  10.396 -1.6253  1.6639  0.4906
  139MOL0     H18338   2.099  10.185  10.346 -1.2350 -0.0969  0.1270
  139MOL0     H18339   2.109  10.092  10.187  0.9455 -0.5171 -0.5626
  139MOL0     H18340   2.308   9.986  10.242 -2.3713 -2.3334  1.4728
  139MOL0     H18341   2.344  10.155  10.281  1.5146 -1.5123  1.0037
  139MOL0     H18342   2.293   9.927  10.467 -0.4120  0.4220  1.6523
  139MOL0     H18343   2.292  10.091  10.527 -0.1919 -0.2397  0.2096
  139MOL0     H18344   2.507   9.960  10.534  1.1544  0.0849 -2.1625
  139MOL0     H18345   2.525  10.002  10.366 -2.2717 -3.5421 -0.3087
  139MOL0     H18346   2.583  10.374  10.569  1.4551  0.2053 -2.7526
  139MOL0     H18347   1.900  10.088  10.150  3.5298 -1.0550  3.4081
  139MOL0     H18348   1.723   9.974  10.026  0.4599  0.8801  0.8208
  140MOL0     O18349   8.481  10.340   7.281  0.1800  0.1111  0.7170
  140MOL0     C18350   8.601  10.338   7.298 -0.0460 -0.0369  0.2717
  140MOL0     O18351   8.687  10.439   7.268  0.5267  0.0958  0.1891
  140MOL0     C18352   8.639  10.559   7.224  0.4848 -0.5601  0.0259
  140MOL0     C18353   8.532  10.630   7.277 -0.2923 -0.5195 -0.0246
  140MOL0     C18354   8.478  10.744   7.221  0.2981  0.1549  0.5750
  140MOL0     C18355   8.530  10.800   7.113  0.3647 -0.7313 -0.4414
  140MOL0     O18356   8.462  10.917   7.088 -0.2074  0.6279 -0.0778
  140MOL0     C18357   8.524  10.995   6.985  0.0046 -0.6535  0.6517
  140MOL0     C18358   8.638  11.075   7.055 -0.3486  0.3773  0.0009
  140MOL0     C18359   8.706  11.188   6.974 -0.1013 -0.3700  0.7951
  140MOL0     C18360   8.788  11.147   6.851  0.0866  0.1998 -0.4676
  140MOL0     C18361   8.843  11.270   6.771 -0.1250  1.1710 -0.6034
  140MOL0     C18362   8.926  11.232   6.652  0.0230 -0.1593 -0.7208
  140MOL0     C18363   9.069  11.191   6.692  0.6316  0.6547  0.2266
  140MOL0     C18364   9.157  11.134   6.581  0.9307 -0.4431  0.4607
  140MOL0     N18365   9.276  11.078   6.651  0.4705 -0.9790  0.6563
  140MOL0     C18366   9.303  10.942   6.685  0.1384 -0.4778  0.1286
  140MOL0     C18367   9.429  10.954   6.733 -0.3695 -0.4672 -0.5063
  140MOL0     C18368   9.502  10.830   6.785  0.4347 -0.4041 -0.3323
  140MOL0     C18369   9.557  10.760   6.653  0.1095  0.5164  0.1110
  140MOL0     C18370   9.620  10.629   6.691 -0.4520 -0.0330  1.6212
  140MOL0     C18371   9.685  10.577   6.564 -0.1185  0.5674  0.3799
  140MOL0     O18372   9.733  10.441   6.586  0.2622  0.1174  0.2874
  140MOL0     C18373   9.755  10.366   6.467 -1.0492  0.1248 -0.2856
  140MOL0     C18374   9.888  10.339   6.432 -0.5726  0.1627  0.1711
  140MOL0     C18375   9.915  10.263   6.330 -0.3826 -0.3725 -0.3147
  140MOL0     C18376   9.815  10.199   6.254 -0.1742  0.9382 -0.4580
  140MOL0     C18377   9.860  10.119   6.138 -0.5011 -0.1252 -0.2690
  140MOL0     O18378   9.785  10.141   6.024 -0.3978 -0.4575  0.6556
  140MOL0     C18379   9.797  10.085   5.900  0.0070 -0.8198 -0.8782
  140MOL0     C18380   9.696  10.119   5.816  0.4685  0.4712 -0.3515
  140MOL0     C18381   9.693  10.074   5.685  0.6428  1.2678 -1.2772
  140MOL0     C18382   9.800  10.004   5.627 -0.8332 -0.3424 -0.2597
  140MOL0     O18383   9.787   9.965   5.496 -0.4702  0.9491 -0.3996
  140MOL0     C18384   9.919   9.929   5.426  0.0287  0.2776  0.1933
  140MOL0     C18385   9.921   9.779   5.395 -0.0949  0.1166 -0.2676
  140MOL0     C18386  10.057   9.728   5.392 -0.3319  0.6625 -0.0448
  140MOL0     C18387  10.050   9.584   5.325 -1.2803  0.5709 -0.5135
  140MOL0     C18388  10.039   9.475   5.439 -0.9382  0.8040  0.1570
  140MOL0     C18389  10.064   9.332   5.389  0.3695 -0.4778  0.5070
  140MOL0     C18390  10.088   9.228   5.500 -0.1098 -0.2066 -0.3712
  140MOL0     C18391  10.147   9.097   5.445  0.3579  0.0888 -0.0598
  140MOL0    Cl18392  10.301   9.110   5.387  0.3702 -0.2956 -0.1134
  140MOL0     C18393   9.897   9.958   5.720 -0.2955 -0.5261  0.1469
  140MOL0     C18394   9.903  10.004   5.856  0.2225 -0.7233  0.5300
  140MOL0     O18395   9.963  10.045   6.154  0.1373 -0.2090  0.6495
  140MOL0     C18396   9.681  10.217   6.293 -0.2760  0.2179 -0.5070
  140MOL0     C18397   9.652  10.301   6.397  1.1277  0.2432 -0.1357
  140MOL0     N18398   9.470  11.077   6.734 -0.1748  0.1165 -0.1437
  140MOL0     N18399   9.386  11.150   6.685  0.5176  0.3836  0.1891
  140MOL0     C18400   8.632  10.732   7.051 -0.7976  0.2599  1.0539
  140MOL0     C18401   8.685  10.612   7.101 -0.3844 -0.1186 -0.1616
  140MOL0     C18402   8.661  10.209   7.348 -1.0448 -0.0046 -1.0008
  140MOL0     C18403   8.806  10.191   7.362 -0.0821 -0.1145  0.2699
  140MOL0     C18404   8.859  10.066   7.401 -0.1937  0.3547 -0.0817
  140MOL0     C18405   8.789   9.958   7.431  0.1544 -0.7160 -0.1429
  140MOL0     O18406   8.840   9.836   7.473 -0.1465  0.1655  0.2911
  140MOL0     C18407   8.962   9.798   7.437 -0.6833  1.6495 -0.0965
  140MOL0     C18408   9.060   9.805   7.557 -0.6328  0.0218 -0.1210
  140MOL0     C18409   9.182   9.715   7.523 -0.1038 -0.7582  0.0357
  140MOL0     C18410   9.290   9.730   7.634  0.6428  0.5494  0.0662
  140MOL0     C18411   9.424   9.686   7.603 -1.1368 -0.7178 -0.6511
  140MOL0     C18412   9.542   9.655   7.590 -0.3257  0.2408  0.1319
  140MOL0     C18413   8.653   9.968   7.413 -0.5547  0.1076 -0.4517
  140MOL0     C18414   8.589  10.093   7.390  1.0376 -0.5169  0.0170
  140MOL0     H18415   8.482  10.601   7.369  2.6814 -0.8149  1.6226
  140MOL0     H18416   8.399  10.801   7.269 -2.1774 -0.5693 -2.4046
  140MOL0     H18417   8.452  11.064   6.942 -0.7127 -3.0536 -2.3139
  140MOL0     H18418   8.564  10.941   6.899  2.0597 -0.1049  1.1840
  140MOL0     H18419   8.715  11.002   7.085  0.3115  1.5798  1.4039
  140MOL0     H18420   8.590  11.122   7.142 -0.8529 -1.3279  0.6952
  140MOL0     H18421   8.779  11.238   7.038  0.8030 -2.6070  1.6148
  140MOL0     H18422   8.629  11.261   6.949 -0.7079 -0.6246  1.8555
  140MOL0     H18423   8.864  11.092   6.907 -0.3288  1.0916  1.0194
  140MOL0     H18424   8.727  11.090   6.781 -0.5839  1.5761 -1.0473
  140MOL0     H18425   8.906  11.336   6.832 -2.1648  1.3768  1.4003
  140MOL0     H18426   8.762  11.331   6.730 -0.2146  0.7996 -0.9794
  140MOL0     H18427   8.915  11.323   6.592 -3.0482 -1.0682 -1.7192
  140MOL0     H18428   8.883  11.150   6.594 -0.8150 -0.1711 -0.1013
  140MOL0     H18429   9.131  11.273   6.729  1.5314  1.0010 -1.8788
  140MOL0     H18430   9.060  11.115   6.771 -2.6306 -1.3429 -1.8292
  140MOL0     H18431   9.182  11.216   6.513 -2.2468  0.6424  0.4436
  140MOL0     H18432   9.089  11.069   6.527 -1.4647  3.3329 -1.5239
  140MOL0     H18433   9.250  10.849   6.672  0.7594 -0.7933 -0.1824
  140MOL0     H18434   9.443  10.750   6.831  2.0431 -1.7275 -0.4830
  140MOL0     H18435   9.573  10.859   6.862 -0.7251 -1.1965  1.0915
  140MOL0     H18436   9.626  10.827   6.601  0.6641 -0.3930 -0.3619
  140MOL0     H18437   9.472  10.746   6.585 -1.0500  0.1027  1.5927
  140MOL0     H18438   9.704  10.652   6.758  0.6609  5.8186 -1.1661
  140MOL0     H18439   9.549  10.559   6.736  0.9461 -1.9339  1.0169
  140MOL0     H18440   9.761  10.641   6.519  0.0980 -0.5773 -0.9333
  140MOL0     H18441   9.598  10.556   6.502 -0.4758 -0.3506  1.1592
  140MOL0     H18442   9.968  10.397   6.478 -1.5920  2.1266 -0.4415
  140MOL0     H18443  10.020  10.239   6.315 -0.6644 -1.3108 -0.8708
  140MOL0     H18444   9.620  10.187   5.853 -0.5059  0.6654 -2.4993
  140MOL0     H18445   9.604  10.093   5.627 -0.9002  1.3164  0.9809
  140MOL0     H18446  10.006   9.963   5.482 -1.8767 -0.7206  4.0496
  140MOL0     H18447   9.897   9.985   5.334 -0.7054 -0.6476 -0.2186
  140MOL0     H18448   9.872   9.764   5.298  3.4893 -2.4863 -1.9205
  140MOL0     H18449   9.874   9.718   5.473  2.8885 -3.0182 -0.6769
  140MOL0     H18450  10.094   9.722   5.495  1.4620 -2.4089 -0.7334
  140MOL0     H18451  10.120   9.788   5.326 -0.3705  1.0172  0.2376
  140MOL0     H18452   9.963   9.574   5.259  0.4494  0.8601 -2.9767
  140MOL0     H18453  10.142   9.564   5.270 -0.3713 -0.6224  1.3419
  140MOL0     H18454   9.939   9.472   5.484 -0.1152 -2.5930  2.1285
  140MOL0     H18455  10.115   9.505   5.512  0.2315 -0.8798 -0.3006
  140MOL0     H18456  10.150   9.333   5.322 -1.0115  2.1880 -1.4240
  140MOL0     H18457   9.975   9.303   5.333  0.9119  1.9200 -1.7637
  140MOL0     H18458  10.154   9.264   5.580  0.4359  0.2532 -1.0177
  140MOL0     H18459   9.985   9.208   5.531 -0.0378  1.4030  1.0739
  140MOL0     H18460  10.077   9.062   5.368 -1.4926  0.4174  1.3923
  140MOL0     H18461  10.142   9.020   5.523  0.9308  0.3854  0.2725
  140MOL0     H18462   9.965   9.880   5.687 -2.9290 -2.1585 -1.7640
  140MOL0     H18463   9.976   9.960   5.922 -0.5404  0.4613  2.2195
  140MOL0     H18464   9.612  10.188   6.214  2.1042 -1.0739 -2.2618
  140MOL0     H18465   9.554  10.318   6.439  1.6391 -0.8562  1.6460
  140MOL0     H18466   8.695  10.760   6.968 -1.4971  1.1652  0.8202
  140MOL0     H18467   8.768  10.567   7.048  1.5066  0.8081  1.8797
  140MOL0     H18468   8.862  10.281   7.338 -2.6491  1.2289 -1.1596
  140MOL0     H18469   8.965  10.047   7.415  0.0676 -1.2189 -3.1895
  140MOL0     H18470   9.001   9.848   7.348 -0.7566 -1.9234 -2.3003
  140MOL0     H18471   8.944   9.695   7.405  0.5250  1.9813 -1.9697
  140MOL0     H18472   9.094   9.907   7.574 -0.6654 -0.4654  4.0067
  140MOL0     H18473   9.003   9.764   7.642 -0.5296  0.0019 -0.0612
  140MOL0     H18474   9.215   9.751   7.425 -1.5431  1.0511  0.1692
  140MOL0     H18475   9.149   9.611   7.523 -0.4934 -0.6351  0.1209
  140MOL0     H18476   9.296   9.838   7.653 -0.3477  0.3034  2.0985
  140MOL0     H18477   9.243   9.691   7.725 -3.7262  1.3995 -1.5624
  140MOL0     H18478   9.644   9.623   7.584 -1.2461 -2.7624 -1.6485
  140MOL0     H18479   8.598   9.877   7.433  0.1936 -0.5179 -1.1477
  140MOL0     H18480   8.483  10.108   7.408  1.5306  2.2809  1.1444
  141MOL0     O18481   3.021   2.205   3.424 -0.2916  0.4685 -0.0305
  141MOL0     C18482   3.049   2.103   3.360  0.1795 -0.9932 -0.1793
  141MOL0     O18483   2.967   1.994   3.347  0.2160  0.3866  0.9089
  141MOL0     C18484   2.843   1.997   3.411  0.0233 -0.2884  0.3276
  141MOL0     C18485   2.837   1.998   3.550  1.1121  1.2726  0.6460
  141MOL0     C18486   2.724   1.960   3.616 -0.8008 -0.5628 -0.6197
  141MOL0     C18487   2.618   1.929   3.545  0.2974  1.4576  0.8194
  141MOL0     O18488   2.491   1.894   3.588  0.3202 -0.1930 -0.2467
  141MOL0     C18489   2.415   2.013   3.625 -0.3680  0.3833 -0.6815
  141MOL0     C18490   2.344   1.987   3.754  0.2344  0.4548  0.2442
  141MOL0     C18491   2.444   1.982   3.869 -0.6243  0.9895  0.8052
  141MOL0     C18492   2.389   1.909   3.993  0.1146 -0.2218 -0.7323
  141MOL0     C18493   2.286   1.994   4.071 -0.0399 -0.8272  0.3796
  141MOL0     C18494   2.208   1.913   4.177 -0.7173 -0.0265 -0.5077
  141MOL0     C18495   2.095   1.996   4.242  0.4094 -0.5163  0.1868
  141MOL0     C18496   2.152   2.127   4.310 -0.5305 -0.2991  0.5246
  141MOL0     N18497   2.033   2.193   4.362  0.3625  0.2426 -0.9764
  141MOL0     C18498   1.961   2.159   4.477 -1.0681  0.5335 -0.4787
  141MOL0     C18499   1.856   2.251   4.474 -0.7095  0.1784 -0.5367
  141MOL0     C18500   1.750   2.264   4.589 -0.6385  0.1478  0.7218
  141MOL0     C18501   1.701   2.409   4.588 -0.5276  0.4426 -0.1830
  141MOL0     C18502   1.643   2.458   4.721  0.5958  0.9380  0.0887
  141MOL0     C18503   1.539   2.365   4.785 -0.3501 -0.7232  0.8259
  141MOL0     O18504   1.481   2.431   4.897 -0.2907  0.1583 -0.2869
  141MOL0     C18505   1.351   2.408   4.919 -0.9174  0.0293  0.0798
  141MOL0     C18506   1.260   2.485   4.842 -0.1066 -0.0402 -0.9287
  141MOL0     C18507   1.122   2.488   4.882  0.4041 -0.0437 -0.0235
  141MOL0     C18508   1.077   2.422   5.002  0.4207  0.5370 -0.9238
  141MOL0     C18509   0.931   2.419   5.044  0.6643 -0.9259  0.6566
  141MOL0     O18510   0.835   2.507   4.978 -0.3028 -0.7965  0.9474
  141MOL0     C18511   0.714   2.500   5.037 -0.6430 -0.1320  0.4433
  141MOL0     C18512   0.624   2.396   5.009 -0.1668 -0.5131  0.1989
  141MOL0     C18513   0.497   2.396   5.075 -0.1935 -0.2813  0.4009
  141MOL0     C18514   0.457   2.499   5.162 -0.6157  0.3528  0.9537
  141MOL0     O18515   0.335   2.500   5.220 -0.3606  0.0043  0.2397
  141MOL0     C18516   0.233   2.409   5.164 -0.4325  0.1140  0.0523
  141MOL0     C18517   0.096   2.430   5.224  0.7806 -0.5214 -1.0937
  141MOL0     C18518   0.116   2.470   5.371  1.0547  0.0662 -0.5129
  141MOL0     C18519  -0.016   2.489   5.451  0.1043 -0.0903 -0.1617
  141MOL0     C18520  -0.057   2.633   5.470  0.3494  0.7069  0.8031
  141MOL0     C18521  -0.100   2.691   5.332  0.3086 -0.2012  0.1229
  141MOL0     C18522  -0.146   2.841   5.345  0.8595  0.1557  0.2465
  141MOL0     C18523  -0.037   2.933   5.340 -0.4507  0.1003 -0.4577
  141MOL0    Cl18524  -0.094   3.096   5.363 -0.3006  0.3136  0.5915
  141MOL0     C18525   0.553   2.603   5.178 -0.1310 -1.1547  0.5800
  141MOL0     C18526   0.688   2.596   5.129  0.3475 -0.3338 -0.4486
  141MOL0     O18527   0.908   2.351   5.144  0.2884 -0.7976  0.2677
  141MOL0     C18528   1.181   2.366   5.087  0.2098 -0.2751 -0.8410
  141MOL0     C18529   1.311   2.359   5.045 -1.5024  0.6068  0.3601
  141MOL0     N18530   1.877   2.334   4.364  0.3991  0.7133  0.2610
  141MOL0     N18531   1.975   2.292   4.296  0.4216 -0.4673  0.1821
  141MOL0     C18532   2.613   1.925   3.405 -0.2421 -0.3384 -0.1751
  141MOL0     C18533   2.727   1.960   3.335 -0.3447  0.0191 -0.7293
  141MOL0     C18534   3.187   2.103   3.301 -0.0624 -0.5511  0.3874
  141MOL0     C18535   3.275   2.209   3.317  0.6273  0.6228 -1.2347
  141MOL0     C18536   3.407   2.189   3.261 -0.0440 -0.4492 -0.6498
  141MOL0     C18537   3.443   2.079   3.179 -0.1557  0.0422 -0.9404
  141MOL0     O18538   3.560   2.066   3.108 -1.1919  0.5400 -0.3209
  141MOL0     C18539   3.556   2.048   2.966  0.4757  0.2922  0.0549
  141MOL0     C18540   3.470   2.154   2.898  0.7052 -0.4467 -0.6969
  141MOL0     C18541   3.498   2.159   2.747  0.0611  0.3651 -0.5517
  141MOL0     C18542   3.388   2.231   2.661 -0.6640  0.3945 -0.0199
  141MOL0     C18543   3.399   2.374   2.675  0.4661  0.3941  0.9152
  141MOL0     C18544   3.427   2.488   2.675  0.7124 -0.5180  0.1244
  141MOL0     C18545   3.354   1.975   3.172 -0.8651 -0.1703 -0.4177
  141MOL0     C18546   3.227   1.985   3.219 -0.2867 -0.2297  0.1433
  141MOL0     H18547   2.925   2.032   3.604  0.5111  1.5545  1.4892
  141MOL0     H18548   2.725   1.964   3.725  1.0948  3.5980 -0.6285
  141MOL0     H18549   2.342   2.051   3.554  0.0473 -0.6626 -1.7081
  141MOL0     H18550   2.488   2.087   3.659 -0.9705  0.2135  1.1029
  141MOL0     H18551   2.289   1.894   3.739  4.2943 -1.8527 -2.3695
  141MOL0     H18552   2.267   2.060   3.778 -0.7627 -0.4525 -0.1402
  141MOL0     H18553   2.470   2.087   3.889  1.1787  1.2462 -2.2603
  141MOL0     H18554   2.529   1.924   3.833 -1.4276 -0.1409  0.6817
  141MOL0     H18555   2.348   1.815   3.955  0.5847 -1.1857  1.0290
  141MOL0     H18556   2.473   1.876   4.055  0.9423 -0.1525 -1.7799
  141MOL0     H18557   2.214   2.027   3.996 -1.9455 -0.7848  2.1510
  141MOL0     H18558   2.333   2.079   4.123 -1.9524 -1.4168  3.2906
  141MOL0     H18559   2.271   1.877   4.259 -3.2020 -1.8284  0.7290
  141MOL0     H18560   2.180   1.821   4.124  0.5072 -1.7803  1.7251
  141MOL0     H18561   2.027   2.032   4.163  3.0448  0.4074 -1.8106
  141MOL0     H18562   2.034   1.933   4.307 -1.3663 -0.5337 -1.3732
  141MOL0     H18563   2.178   2.193   4.226 -0.0528  1.2073  1.7925
  141MOL0     H18564   2.251   2.124   4.357  2.3449  1.7026 -4.4885
  141MOL0     H18565   1.994   2.092   4.556  2.6168 -0.7612 -2.8350
  141MOL0     H18566   1.805   2.238   4.680  2.1023  0.3087 -0.7642
  141MOL0     H18567   1.670   2.191   4.573 -1.1531 -0.3502  4.6528
  141MOL0     H18568   1.633   2.412   4.503 -0.4794 -5.0777 -0.8189
  141MOL0     H18569   1.780   2.479   4.560 -1.0693  0.4620 -1.7466
  141MOL0     H18570   1.724   2.464   4.795 -0.3652  1.3981  1.1422
  141MOL0     H18571   1.590   2.553   4.709 -1.5469  0.1284  2.3047
  141MOL0     H18572   1.604   2.287   4.826  2.6934 -0.0933 -2.3339
  141MOL0     H18573   1.459   2.332   4.718 -2.0602  1.0040  1.8887
  141MOL0     H18574   1.288   2.534   4.749  2.5426  1.0075  0.3342
  141MOL0     H18575   1.054   2.536   4.812  0.1490  1.6372  1.3069
  141MOL0     H18576   0.651   2.319   4.938 -1.3447 -0.6811 -0.0831
  141MOL0     H18577   0.424   2.320   5.049  0.6557 -1.3776  1.1185
  141MOL0     H18578   0.269   2.308   5.183  1.5576  0.2970 -2.2258
  141MOL0     H18579   0.220   2.422   5.056  1.4258  3.4149  0.0900
  141MOL0     H18580   0.045   2.333   5.217  0.3315 -0.4888  1.0419
  141MOL0     H18581   0.031   2.505   5.180 -1.0571  0.0410  2.2278
  141MOL0     H18582   0.168   2.566   5.374  3.4859 -1.1924  2.7386
  141MOL0     H18583   0.166   2.390   5.426  0.3444 -1.2178 -1.6618
  141MOL0     H18584  -0.092   2.440   5.389  1.4662  1.2137 -3.0456
  141MOL0     H18585   0.002   2.447   5.550  0.4892  1.7223  0.5634
  141MOL0     H18586   0.029   2.690   5.506  1.0826 -0.3223  0.7231
  141MOL0     H18587  -0.140   2.633   5.542 -2.5544  0.0152 -2.2927
  141MOL0     H18588  -0.181   2.634   5.287  0.5407  1.0789 -2.0825
  141MOL0     H18589  -0.020   2.687   5.257 -0.7820  0.5014 -1.1085
  141MOL0     H18590  -0.211   2.874   5.263  0.9143 -0.9015 -0.2356
  141MOL0     H18591  -0.212   2.846   5.432 -1.5185  0.6114 -1.4770
  141MOL0     H18592   0.008   2.925   5.240  0.6777 -0.2876  0.0670
  141MOL0     H18593   0.048   2.915   5.406 -0.4770  1.0215 -0.1594
  141MOL0     H18594   0.526   2.684   5.245  1.2017  1.2329 -1.6036
  141MOL0     H18595   0.770   2.664   5.153 -0.1023  0.2055 -0.4387
  141MOL0     H18596   1.144   2.327   5.181 -2.9460 -0.2895 -1.9728
  141MOL0     H18597   1.379   2.307   5.111  0.2098 -0.1515 -1.8520
  141MOL0     H18598   2.528   1.891   3.346  0.3033 -0.7021 -0.7522
  141MOL0     H18599   2.733   1.958   3.227 -0.8550 -0.4668 -0.7571
  141MOL0     H18600   3.259   2.299   3.375  1.9752 -1.9645  3.7562
  141MOL0     H18601   3.480   2.268   3.279  1.3093 -1.6469 -0.7454
  141MOL0     H18602   3.508   1.952   2.947  1.7789 -0.3590 -0.0850
  141MOL0     H18603   3.655   2.037   2.920 -0.1599 -1.1681 -1.0722
  141MOL0     H18604   3.366   2.143   2.930  1.2107 -1.1405  0.8286
  141MOL0     H18605   3.509   2.250   2.931  1.8121 -0.6270 -1.4200
  141MOL0     H18606   3.519   2.056   2.716  1.4097  0.8866 -1.4593
  141MOL0     H18607   3.588   2.215   2.721  0.4559 -0.9672 -2.2307
  141MOL0     H18608   3.403   2.203   2.557 -2.8183  4.6096 -1.7425
  141MOL0     H18609   3.289   2.196   2.694  1.1259 -3.9789  1.3779
  141MOL0     H18610   3.468   2.587   2.667  0.0677 -0.2275  0.3811
  141MOL0     H18611   3.387   1.879   3.134  3.4661  0.7142  0.6046
  141MOL0     H18612   3.164   1.896   3.220  0.2251 -0.6343 -1.2764
  142MOL0     O18613   5.754   3.275   7.429 -0.7637 -0.1933  0.3244
  142MOL0     C18614   5.688   3.177   7.432 -0.0509  0.7275 -0.8903
  142MOL0     O18615   5.579   3.163   7.518  0.2092 -0.3338 -0.2350
  142MOL0     C18616   5.539   3.276   7.593  0.0821 -0.2885 -0.0426
  142MOL0     C18617   5.532   3.257   7.729  0.8555  1.0314  0.3048
  142MOL0     C18618   5.462   3.355   7.804 -0.1242 -0.4062  0.4668
  142MOL0     C18619   5.429   3.477   7.759  0.2963 -0.3471 -0.0242
  142MOL0     O18620   5.366   3.557   7.849 -0.9450 -0.7207 -0.5602
  142MOL0     C18621   5.300   3.673   7.805 -0.2291  0.2197  0.3515
  142MOL0     C18622   5.164   3.644   7.736 -0.6686 -0.2840  0.8649
  142MOL0     C18623   5.058   3.587   7.827 -0.0428 -0.5092 -0.9299
  142MOL0     C18624   5.049   3.649   7.968  0.5199  0.5618 -0.4193
  142MOL0     C18625   5.011   3.801   7.953 -0.7018  0.3397 -0.0894
  142MOL0     C18626   4.885   3.831   7.862 -0.6144 -0.1381 -0.6782
  142MOL0     C18627   4.758   3.770   7.912 -0.7006  0.4097  0.0847
  142MOL0     C18628   4.726   3.841   8.043  0.2292 -0.4839 -0.6516
  142MOL0     N18629   4.593   3.767   8.079 -0.1343  0.0712 -0.9510
  142MOL0     C18630   4.473   3.770   8.016  0.1970  0.3978  0.0356
  142MOL0     C18631   4.387   3.715   8.095 -0.0379 -0.7326 -0.2747
  142MOL0     C18632   4.241   3.718   8.059  0.6916  0.7034 -0.6832
  142MOL0     C18633   4.162   3.851   8.091  0.3586  0.7111  0.3600
  142MOL0     C18634   4.012   3.841   8.043  0.0187 -0.4789 -0.4387
  142MOL0     C18635   3.934   3.969   8.069 -0.3819 -0.1938 -1.0720
  142MOL0     O18636   3.807   3.962   8.016 -0.3221  0.2802  0.4736
  142MOL0     C18637   3.696   3.956   8.101 -0.1790  0.5931  0.4542
  142MOL0     C18638   3.663   4.052   8.202 -0.4497  0.1761  0.0846
  142MOL0     C18639   3.539   4.042   8.264 -0.0685  0.2259 -0.0563
  142MOL0     C18640   3.438   3.948   8.218 -0.7281  0.7618 -0.8496
  142MOL0     C18641   3.294   3.950   8.253  0.2939 -0.0182 -0.8229
  142MOL0     O18642   3.213   3.846   8.230  0.9503 -0.4510  0.0233
  142MOL0     C18643   3.090   3.843   8.285  0.7767  0.0842  0.3777
  142MOL0     C18644   3.045   3.785   8.406  0.5713 -0.4881 -1.0466
  142MOL0     C18645   2.919   3.807   8.468  0.0844  0.2795  0.1480
  142MOL0     C18646   2.816   3.868   8.389 -1.2194  0.1794 -0.8053
  142MOL0     O18647   2.688   3.881   8.428  0.2471 -0.8633 -0.1507
  142MOL0     C18648   2.600   3.986   8.373  0.2834  0.6653 -0.0159
  142MOL0     C18649   2.492   4.010   8.466  0.6441 -0.2276 -0.3728
  142MOL0     C18650   2.398   3.894   8.503  0.4221  0.1945 -0.0345
  142MOL0     C18651   2.341   3.807   8.401  0.0525 -0.0260  0.4234
  142MOL0     C18652   2.237   3.866   8.299 -0.0214  0.5452  0.7265
  142MOL0     C18653   2.192   3.753   8.217  0.3193  0.4040  0.8209
  142MOL0     C18654   2.074   3.789   8.120  0.2200  0.2911 -0.5098
  142MOL0     C18655   2.130   3.811   7.975 -0.1801  0.5660 -0.1144
  142MOL0    Cl18656   2.285   3.887   7.964  0.0444  0.3101 -0.1856
  142MOL0     C18657   2.860   3.908   8.259 -1.2079  0.4545 -0.2312
  142MOL0     C18658   2.989   3.897   8.213  0.2016 -0.5930 -0.5612
  142MOL0     O18659   3.261   4.042   8.322  0.9357 -0.4466  0.4648
  142MOL0     C18660   3.474   3.856   8.121  0.3748  0.7789 -0.3919
  142MOL0     C18661   3.601   3.857   8.061  0.1767 -0.3382 -0.3682
  142MOL0     N18662   4.448   3.669   8.211 -0.0355  0.4526  0.1217
  142MOL0     N18663   4.574   3.708   8.201 -0.6477  0.0701  0.0854
  142MOL0     C18664   5.457   3.504   7.629  0.0626 -0.2036 -0.1441
  142MOL0     C18665   5.518   3.413   7.546 -0.0593 -0.4544  0.5862
  142MOL0     C18666   5.729   3.057   7.352 -0.2407  0.2114  0.4066
  142MOL0     C18667   5.639   2.947   7.367  0.3897  0.0787  0.7116
  142MOL0     C18668   5.667   2.829   7.289 -0.4627  0.7324  0.3132
  142MOL0     C18669   5.784   2.829   7.197  0.1009 -0.4440  0.0606
  142MOL0     O18670   5.797   2.711   7.125 -0.1110 -0.7029 -0.4280
  142MOL0     C18671   5.920   2.703   7.057  0.4896  0.2084 -0.0033
  142MOL0     C18672   5.937   2.567   6.997 -0.5286  0.2616  0.0913
  142MOL0     C18673   6.015   2.475   7.091 -0.5371 -0.1615  1.3792
  142MOL0     C18674   6.039   2.333   7.028  0.0727 -0.0950 -0.4061
  142MOL0     C18675   6.093   2.329   6.894  0.7431  0.3096  0.0324
  142MOL0     C18676   6.129   2.311   6.778  0.1987  0.8728  0.3807
  142MOL0     C18677   5.863   2.945   7.191  0.8172  0.4531 -1.0830
  142MOL0     C18678   5.837   3.052   7.273  0.2086 -0.9204  0.3783
  142MOL0     H18679   5.557   3.164   7.778  1.6495  1.8559  1.5443
  142MOL0     H18680   5.443   3.343   7.910  2.9775 -1.5560  1.0127
  142MOL0     H18681   5.367   3.728   7.738  0.4000 -1.8386 -0.7946
  142MOL0     H18682   5.276   3.744   7.885 -1.7035 -0.1422  0.2518
  142MOL0     H18683   5.182   3.584   7.647 -0.2407  1.5192 -0.3373
  142MOL0     H18684   5.138   3.743   7.696  1.8695  0.1861  0.1836
  142MOL0     H18685   5.079   3.482   7.844 -2.2686 -0.5192  2.9922
  142MOL0     H18686   4.961   3.581   7.777 -1.5766 -4.2068  2.0281
  142MOL0     H18687   4.971   3.596   8.024  1.5286  0.0693  0.5493
  142MOL0     H18688   5.141   3.633   8.024 -0.0111 -1.4374 -0.0293
  142MOL0     H18689   5.102   3.851   7.920  2.1755 -1.2209  4.5582
  142MOL0     H18690   4.999   3.830   8.058  1.0199 -0.7678  0.4632
  142MOL0     H18691   4.903   3.803   7.758  2.0858  0.1233 -0.3495
  142MOL0     H18692   4.874   3.940   7.871  0.2323 -0.0589 -0.5471
  142MOL0     H18693   4.683   3.776   7.832  1.3316 -0.9243 -2.0556
  142MOL0     H18694   4.779   3.665   7.934  0.3941  0.3734 -1.0240
  142MOL0     H18695   4.712   3.948   8.027 -2.4883 -0.7427 -0.4928
  142MOL0     H18696   4.790   3.832   8.131 -2.5187  0.0914  1.5701
  142MOL0     H18697   4.451   3.825   7.925  0.8724  1.5993  0.5689
  142MOL0     H18698   4.197   3.624   8.092 -0.1658  0.7573 -1.6256
  142MOL0     H18699   4.239   3.715   7.949  0.0238  0.5753 -0.6705
  142MOL0     H18700   4.212   3.936   8.043 -0.2665  1.7856  1.5588
  142MOL0     H18701   4.164   3.875   8.198 -0.1962  1.4238  0.2168
  142MOL0     H18702   4.012   3.819   7.936 -1.0475 -3.2473  0.0622
  142MOL0     H18703   3.968   3.757   8.097 -0.7492  0.2693  0.1220
  142MOL0     H18704   3.984   4.061   8.037 -1.0215  1.9168  3.2777
  142MOL0     H18705   3.930   3.994   8.175  0.0229  3.4726 -1.7887
  142MOL0     H18706   3.723   4.139   8.224  2.7343 -1.1065 -2.6032
  142MOL0     H18707   3.514   4.122   8.334  0.2208 -0.0565  0.3747
  142MOL0     H18708   3.122   3.728   8.458 -0.6241  1.2231  2.9720
  142MOL0     H18709   2.888   3.762   8.562 -2.0502 -1.0863 -1.1163
  142MOL0     H18710   2.563   3.958   8.274 -0.3430  6.2706 -1.7206
  142MOL0     H18711   2.648   4.083   8.364  0.5658  0.8162  2.4559
  142MOL0     H18712   2.432   4.088   8.416 -0.0718 -0.0021  0.7981
  142MOL0     H18713   2.524   4.048   8.563 -2.3195  1.5707  0.0514
  142MOL0     H18714   2.307   3.941   8.541  1.4443  1.3297  1.1348
  142MOL0     H18715   2.444   3.833   8.581  0.6429 -1.8883 -1.7024
  142MOL0     H18716   2.424   3.768   8.341 -1.3698 -0.3460 -1.4454
  142MOL0     H18717   2.285   3.731   8.456  0.1201 -2.1879 -2.2908
  142MOL0     H18718   2.293   3.934   8.234  1.3759 -1.0373  0.1856
  142MOL0     H18719   2.152   3.922   8.338  0.4073  1.0900  0.8825
  142MOL0     H18720   2.164   3.668   8.280  1.3673 -1.6717 -1.3786
  142MOL0     H18721   2.277   3.712   8.164  1.0692  1.0885  1.4664
  142MOL0     H18722   1.993   3.715   8.123 -1.6072  2.2119 -0.0778
  142MOL0     H18723   2.032   3.888   8.142 -1.1832  0.2560 -2.7340
  142MOL0     H18724   2.055   3.867   7.919 -0.1897 -0.0677 -0.7516
  142MOL0     H18725   2.147   3.714   7.927  2.9441  0.3470  1.1422
  142MOL0     H18726   2.794   3.966   8.194 -0.5634  0.1361 -1.1983
  142MOL0     H18727   3.010   3.926   8.110  1.9208  0.7729  0.1185
  142MOL0     H18728   3.404   3.778   8.095 -0.3911  1.3039  0.0504
  142MOL0     H18729   3.620   3.792   7.976 -1.8877 -0.7575 -0.5441
  142MOL0     H18730   5.442   3.604   7.590  0.6023 -0.5296 -1.2157
  142MOL0     H18731   5.557   3.440   7.449  1.0904 -0.7685  0.9510
  142MOL0     H18732   5.551   2.945   7.430 -0.7886  1.1622 -0.8303
  142MOL0     H18733   5.587   2.755   7.288  0.2861 -0.1198 -1.3571
  142MOL0     H18734   6.008   2.712   7.121  0.6627 -2.0200  0.1665
  142MOL0     H18735   5.927   2.781   6.980  0.8191 -1.6806 -2.0072
  142MOL0     H18736   5.837   2.523   6.986 -0.5185 -0.1637  1.5243
  142MOL0     H18737   5.984   2.563   6.898 -0.2437 -0.3604  0.2439
  142MOL0     H18738   5.975   2.467   7.192  3.7420  1.8784  3.4408
  142MOL0     H18739   6.109   2.526   7.109 -2.0807  2.4198  2.6032
  142MOL0     H18740   6.107   2.284   7.098 -0.3398 -3.1260 -1.9530
  142MOL0     H18741   5.945   2.277   7.036  1.4652 -2.4762  0.1612
  142MOL0     H18742   6.154   2.286   6.677 -0.5123 -0.5273  0.5281
  142MOL0     H18743   5.927   2.951   7.103  1.7525 -0.5789 -0.5054
  142MOL0     H18744   5.903   3.138   7.277  0.4777 -1.1425  0.7516
  143MOL0     O18745   4.591   8.128   8.670  0.3897  0.1468  0.6180
  143MOL0     C18746   4.552   8.181   8.774  0.1389 -0.5987  0.0118
  143MOL0     O18747   4.617   8.287   8.834 -0.6378  0.2395 -0.3500
  143MOL0     C18748   4.723   8.349   8.773  0.0253  0.1438 -0.4383
  143MOL0     C18749   4.692   8.433   8.664 -1.3463 -0.7486  0.2301
  143MOL0     C18750   4.796   8.494   8.583 -0.2836  0.4302 -0.2779
  143MOL0     C18751   4.933   8.478   8.623  0.5388 -0.1353  0.5489
  143MOL0     O18752   5.040   8.502   8.545  0.1985  0.1572 -0.5358
  143MOL0     C18753   5.021   8.592   8.437  0.8276 -0.2587 -0.6055
  143MOL0     C18754   5.151   8.629   8.387 -0.8268 -0.0695 -0.0829
  143MOL0     C18755   5.233   8.512   8.352  0.7390  0.1402 -0.2565
  143MOL0     C18756   5.370   8.538   8.288 -0.6170  0.1509  0.7535
  143MOL0     C18757   5.444   8.424   8.209  0.3719  0.2517 -0.0562
  143MOL0     C18758   5.572   8.466   8.147 -0.4561  0.8547 -0.4961
  143MOL0     C18759   5.657   8.347   8.077  0.0018 -0.3338 -0.0591
  143MOL0     C18760   5.767   8.404   7.980 -0.2580  0.1509  1.0201
  143MOL0     N18761   5.843   8.296   7.915 -0.1986 -0.3153 -0.1941
  143MOL0     C18762   5.781   8.231   7.813 -0.1413  1.4228  0.1402
  143MOL0     C18763   5.840   8.110   7.806 -0.5659  0.5902 -0.8130
  143MOL0     C18764   5.837   8.010   7.697  0.1083 -0.5337  0.4085
  143MOL0     C18765   5.821   7.873   7.761  0.1747  1.0547  0.0567
  143MOL0     C18766   5.863   7.760   7.666 -0.5278  0.3931  1.0636
  143MOL0     C18767   5.846   7.619   7.728  0.7996 -0.1608  0.6495
  143MOL0     O18768   5.713   7.606   7.779  0.8244  0.8519 -0.2933
  143MOL0     C18769   5.682   7.484   7.835  1.1610  1.3972  0.6546
  143MOL0     C18770   5.763   7.371   7.853 -0.4998 -0.6309  0.8603
  143MOL0     C18771   5.704   7.247   7.877 -0.0273 -0.5866 -0.5261
  143MOL0     C18772   5.560   7.240   7.890 -0.2687  1.5234  0.4635
  143MOL0     C18773   5.496   7.103   7.884 -0.1875 -0.0299  1.3265
  143MOL0     O18774   5.364   7.108   7.864  0.0731 -0.3503 -0.2997
  143MOL0     C18775   5.294   6.993   7.847  0.3983  0.0841  0.9449
  143MOL0     C18776   5.335   6.891   7.758 -0.2239 -0.1598 -0.7915
  143MOL0     C18777   5.282   6.766   7.776  0.6097  0.0017  0.9500
  143MOL0     C18778   5.162   6.742   7.852 -1.1182  0.5276  0.0020
  143MOL0     O18779   5.098   6.625   7.868 -0.0181 -0.3855 -1.2788
  143MOL0     C18780   5.115   6.522   7.768  0.4550 -0.1570  0.3322
  143MOL0     C18781   5.048   6.553   7.631  0.2430  0.4761  0.4603
  143MOL0     C18782   5.075   6.434   7.542  0.1676 -0.1547 -0.7373
  143MOL0     C18783   5.223   6.410   7.504  0.0121 -0.3346  0.3425
  143MOL0     C18784   5.266   6.493   7.374  0.3981  0.0501 -0.4726
  143MOL0     C18785   5.221   6.429   7.239 -0.6632 -0.3399  0.0108
  143MOL0     C18786   5.256   6.527   7.123  0.3731  0.3884 -0.1607
  143MOL0     C18787   5.240   6.454   6.984 -0.0480  0.3720 -0.2374
  143MOL0    Cl18788   5.286   6.555   6.846 -0.4694 -0.1290  0.1760
  143MOL0     C18789   5.109   6.848   7.919 -0.8228 -0.3070  0.3314
  143MOL0     C18790   5.176   6.973   7.919 -0.5423  0.4018  0.1359
  143MOL0     O18791   5.575   7.004   7.883  0.5248 -0.7757  1.2132
  143MOL0     C18792   5.478   7.361   7.896 -0.1287  0.6489  0.7415
  143MOL0     C18793   5.540   7.483   7.864 -0.5643  0.1731 -0.2404
  143MOL0     N18794   5.925   8.105   7.919 -0.5680  0.5262 -0.5222
  143MOL0     N18795   5.929   8.219   7.978 -0.3423  0.4522  0.4061
  143MOL0     C18796   4.957   8.407   8.741  0.3802 -0.1044 -0.7061
  143MOL0     C18797   4.859   8.336   8.809  0.1408  0.0586 -0.3521
  143MOL0     C18798   4.432   8.129   8.854 -0.7631  0.1823 -0.3088
  143MOL0     C18799   4.407   8.192   8.979  0.4597 -0.1264  0.0313
  143MOL0     C18800   4.296   8.151   9.057 -0.7258  0.0896  0.7128
  143MOL0     C18801   4.212   8.043   9.012  0.5480 -0.6131  1.1987
  143MOL0     O18802   4.108   7.991   9.080  0.2651  0.6384  0.7477
  143MOL0     C18803   4.117   8.003   9.223  0.3893  0.3022  0.7252
  143MOL0     C18804   4.009   7.922   9.289  0.1846 -0.3462 -0.3412
  143MOL0     C18805   4.004   7.953   9.438  0.0187  0.8542 -0.0743
  143MOL0     C18806   3.862   7.952   9.497  0.1414 -0.1911 -0.1009
  143MOL0     C18807   3.785   7.837   9.458 -0.7949 -0.2653 -0.3792
  143MOL0     C18808   3.702   7.760   9.444  0.4227  0.6258  0.1163
  143MOL0     C18809   4.245   7.977   8.893 -0.7510  0.1134 -0.2761
  143MOL0     C18810   4.354   8.022   8.821  0.7180  0.7055  0.2037
  143MOL0     H18811   4.588   8.448   8.636 -0.3829  0.2990 -3.2974
  143MOL0     H18812   4.782   8.551   8.491  1.4143  2.4859  0.6481
  143MOL0     H18813   4.962   8.683   8.453 -1.9785 -2.2076  1.1817
  143MOL0     H18814   4.969   8.541   8.355 -1.3203  2.2944 -0.9814
  143MOL0     H18815   5.204   8.687   8.463  0.5325 -0.6284 -0.5608
  143MOL0     H18816   5.142   8.694   8.300  2.4487  0.3153 -0.2783
  143MOL0     H18817   5.169   8.442   8.297  3.2974 -1.4913 -1.3717
  143MOL0     H18818   5.256   8.448   8.438  1.2409  3.0190  1.8792
  143MOL0     H18819   5.354   8.608   8.205 -1.4259 -2.9333 -1.8927
  143MOL0     H18820   5.434   8.571   8.371  1.1161 -1.5278  0.1744
  143MOL0     H18821   5.383   8.389   8.125  1.3137  0.0255 -0.6579
  143MOL0     H18822   5.457   8.338   8.276 -3.9805 -2.1741 -1.8422
  143MOL0     H18823   5.633   8.519   8.221 -0.7687  0.4095  0.0914
  143MOL0     H18824   5.550   8.535   8.065  1.6709  0.0186 -1.8497
  143MOL0     H18825   5.708   8.294   8.158 -0.2667  1.1676  1.1412
  143MOL0     H18826   5.593   8.274   8.027 -2.0061  1.6350 -0.5563
  143MOL0     H18827   5.824   8.474   8.042 -2.0270  1.1242  1.6385
  143MOL0     H18828   5.721   8.474   7.910 -0.8052  1.0811  2.2616
  143MOL0     H18829   5.710   8.268   7.741 -0.2235  1.0829  0.0437
  143MOL0     H18830   5.930   8.016   7.640  0.4308  4.8232  0.9597
  143MOL0     H18831   5.747   8.037   7.642  0.1188  1.7548  1.4197
  143MOL0     H18832   5.714   7.854   7.772 -0.3464  2.2358 -2.2068
  143MOL0     H18833   5.874   7.870   7.856  0.2255 -1.4036  0.0025
  143MOL0     H18834   5.800   7.767   7.578  0.3402  3.9322  0.5595
  143MOL0     H18835   5.968   7.770   7.635 -1.3856  2.9878 -1.4392
  143MOL0     H18836   5.914   7.599   7.811  0.3444 -1.9112  0.6251
  143MOL0     H18837   5.866   7.540   7.655  0.2343  0.3961 -0.1184
  143MOL0     H18838   5.868   7.376   7.828  0.5225 -3.1972  3.9297
  143MOL0     H18839   5.764   7.157   7.885 -2.6853 -2.3864  0.9515
  143MOL0     H18840   5.430   6.902   7.706  1.8684 -0.4161  2.6303
  143MOL0     H18841   5.331   6.682   7.726 -2.8483 -1.9348  0.5278
  143MOL0     H18842   5.069   6.442   7.827  1.1435  0.4610  1.7442
  143MOL0     H18843   5.223   6.507   7.766  0.5851  0.7979 -1.0481
  143MOL0     H18844   5.088   6.641   7.580  0.9294  0.1639  0.4490
  143MOL0     H18845   4.940   6.564   7.638  0.4951  4.0377  0.3357
  143MOL0     H18846   5.010   6.452   7.457 -2.0470  1.3145  1.1414
  143MOL0     H18847   5.047   6.343   7.596 -2.2067  1.1951  0.4401
  143MOL0     H18848   5.292   6.433   7.586 -0.2353  0.0606  0.4458
  143MOL0     H18849   5.240   6.307   7.474 -4.5999 -1.1765 -0.1922
  143MOL0     H18850   5.375   6.508   7.374  0.4620  0.1632 -3.3804
  143MOL0     H18851   5.223   6.594   7.380 -3.7799 -1.3662 -2.5195
  143MOL0     H18852   5.114   6.407   7.244 -0.7277 -0.9563 -2.7529
  143MOL0     H18853   5.255   6.327   7.223 -0.8203 -0.2070 -1.3010
  143MOL0     H18854   5.180   6.605   7.135  1.0788  1.0836 -0.0971
  143MOL0     H18855   5.349   6.584   7.129  1.5065 -0.9462 -3.0060
  143MOL0     H18856   5.136   6.422   6.972  0.4320 -1.3987  0.0994
  143MOL0     H18857   5.304   6.365   6.983 -0.9724 -0.3221  0.3245
  143MOL0     H18858   5.021   6.831   7.980 -2.1739  0.1594 -1.4015
  143MOL0     H18859   5.148   7.061   7.976 -1.4837  1.1566 -1.4173
  143MOL0     H18860   5.370   7.356   7.898 -0.1139 -0.8876 -0.1509
  143MOL0     H18861   5.485   7.577   7.871  1.6654  1.4436  1.6837
  143MOL0     H18862   5.063   8.397   8.762  0.1775 -1.0104 -0.0253
  143MOL0     H18863   4.900   8.273   8.888  0.9207  0.0877 -0.7254
  143MOL0     H18864   4.465   8.270   9.028  1.7988  0.2400 -2.0390
  143MOL0     H18865   4.276   8.202   9.151 -2.2240  1.8169 -0.4815
  143MOL0     H18866   4.094   8.107   9.251 -0.2916  1.2163 -2.7409
  143MOL0     H18867   4.216   7.969   9.255  1.8480 -0.2636 -3.7767
  143MOL0     H18868   3.927   7.980   9.246  1.3577  2.2860  0.7722
  143MOL0     H18869   4.016   7.814   9.271 -0.2220 -0.2453 -1.1603
  143MOL0     H18870   4.046   8.048   9.471  3.7632 -1.1082  1.3931
  143MOL0     H18871   4.061   7.871   9.481 -1.3365 -2.6012 -4.1959
  143MOL0     H18872   3.854   7.962   9.606 -0.0122  0.2459 -0.1508
  143MOL0     H18873   3.802   8.032   9.453 -2.4330 -2.4174 -0.9004
  143MOL0     H18874   3.637   7.676   9.431  0.6874  0.6521 -1.5735
  143MOL0     H18875   4.197   7.883   8.868  2.5729 -0.8618 -3.9793
  143MOL0     H18876   4.366   7.979   8.722 -3.6054  3.2711 -1.7121
  144MOL0     O18877   6.219  10.496   9.554  0.5883  0.2305  0.8612
  144MOL0     C18878   6.244  10.438   9.446  0.3450 -0.1155 -0.6394
  144MOL0     O18879   6.160  10.394   9.353  0.6896 -0.1690  0.4834
  144MOL0     C18880   6.025  10.408   9.377 -0.8640 -0.3832 -0.3039
  144MOL0     C18881   5.964  10.459   9.265  0.0669 -0.5444  0.3677
  144MOL0     C18882   5.836  10.502   9.275  0.0018  0.4379 -0.4878
  144MOL0     C18883   5.772  10.496   9.401 -0.4190  0.6374 -0.4841
  144MOL0     O18884   5.645  10.539   9.393 -0.2483  0.3323 -0.4963
  144MOL0     C18885   5.552  10.515   9.504  0.6870  0.5764  0.3448
  144MOL0     C18886   5.413  10.572   9.469  1.5910  0.0604  0.4893
  144MOL0     C18887   5.341  10.480   9.372  0.5177 -0.6959  0.0503
  144MOL0     C18888   5.211  10.543   9.330 -0.0796  0.7078 -0.8588
  144MOL0     C18889   5.140  10.451   9.233  0.3926 -0.2579 -0.1763
  144MOL0     C18890   5.020  10.527   9.185  0.7918  1.1623 -0.6185
  144MOL0     C18891   4.933  10.442   9.091  0.3323 -0.4507  0.4935
  144MOL0     C18892   4.842  10.341   9.156  0.3533 -0.8164 -0.3054
  144MOL0     N18893   4.769  10.387   9.275 -0.4090 -0.1058  0.2043
  144MOL0     C18894   4.659  10.471   9.275 -0.0046  0.4946 -0.1293
  144MOL0     C18895   4.622  10.466   9.402 -0.4016 -0.4770  0.1728
  144MOL0     C18896   4.521  10.569   9.456  0.5212 -1.1916 -0.4124
  144MOL0     C18897   4.376  10.534   9.402  0.0077  0.1695  0.1218
  144MOL0     C18898   4.328  10.379   9.429  0.3050 -0.7449  0.3609
  144MOL0     C18899   4.182  10.375   9.399  0.6588  0.2740 -0.3714
  144MOL0     O18900   4.097  10.449   9.491 -0.9306 -0.0761 -0.2265
  144MOL0     C18901   4.001  10.383   9.560  1.2087 -0.4995  0.5181
  144MOL0     C18902   3.872  10.409   9.511  0.0738  0.0457 -0.4717
  144MOL0     C18903   3.761  10.341   9.561 -0.3406  0.1980 -0.4694
  144MOL0     C18904   3.774  10.241   9.658  0.7439 -0.2118 -0.4807
  144MOL0     C18905   3.645  10.184   9.710 -0.1897 -0.1073 -0.2988
  144MOL0     O18906   3.518  10.240   9.686 -0.7485 -0.4804  0.1914
  144MOL0     C18907   3.396  10.196   9.742 -0.9347 -0.2540  0.1254
  144MOL0     C18908   3.291  10.232   9.662  0.4028  0.4182 -0.0060
  144MOL0     C18909   3.155  10.215   9.706  0.0413  0.2246  0.5375
  144MOL0     C18910   3.128  10.160   9.833  0.0419  0.5220  0.3475
  144MOL0     O18911   2.994  10.146   9.878  0.4298  0.3611  0.1798
  144MOL0     C18912   2.977  10.102  10.014 -0.0774 -0.4049 -0.7327
  144MOL0     C18913   2.822  10.106  10.050 -1.1145  0.3873 -0.7296
  144MOL0     C18914   2.748   9.993   9.970 -0.2748  0.7016  0.6236
  144MOL0     C18915   2.690   9.869  10.050  0.5009  0.7334  0.0599
  144MOL0     C18916   2.787   9.749  10.042  0.0959  0.6500 -0.5566
  144MOL0     C18917   2.739   9.653  10.141 -0.7114  0.8130  0.4479
  144MOL0     C18918   2.847   9.542  10.153 -0.3618 -0.5717 -0.1558
  144MOL0     C18919   2.819   9.421  10.255 -1.3224  0.0163  0.5790
  144MOL0    Cl18920   2.682   9.334  10.180  0.0560  0.1931  0.0055
  144MOL0     C18921   3.239  10.113   9.908 -0.2886 -0.5278  0.3666
  144MOL0     C18922   3.371  10.134   9.864  0.5774 -0.2484  0.1848
  144MOL0     O18923   3.667  10.088   9.787  0.3642 -0.0985  0.1060
  144MOL0     C18924   3.913  10.215   9.703  0.8079  0.5451  0.5985
  144MOL0     C18925   4.018  10.289   9.659 -0.0605 -0.4496 -0.0988
  144MOL0     N18926   4.703  10.382   9.470 -0.0151 -0.6434 -0.0557
  144MOL0     N18927   4.784  10.330   9.394 -0.4284  0.0198  0.3479
  144MOL0     C18928   5.827  10.423   9.507  0.2271  0.5668  0.0066
  144MOL0     C18929   5.962  10.378   9.500  0.5883  0.6029 -0.8689
  144MOL0     C18930   6.386  10.398   9.413  0.1875  0.3660 -0.3903
  144MOL0     C18931   6.426  10.355   9.288 -0.9105  0.7779 -0.4490
  144MOL0     C18932   6.570  10.337   9.256 -0.3278  0.3118 -0.0637
  144MOL0     C18933   6.665  10.378   9.344 -0.0661  0.4004 -0.1597
  144MOL0     O18934   6.808  10.349   9.335  0.8357  0.3578 -0.0293
  144MOL0     C18935   6.863  10.347   9.203  0.1106 -0.1518  0.8602
  144MOL0     C18936   7.015  10.341   9.227  0.0971  0.6955  0.2397
  144MOL0     C18937   7.085  10.292   9.099  0.2547  0.6547 -0.7243
  144MOL0     C18938   7.236  10.279   9.119 -0.1289  1.0371  0.3488
  144MOL0     C18939   7.265  10.139   9.164 -0.9140  0.3382 -0.1555
  144MOL0     C18940   7.312  10.027   9.200 -0.2146  0.1078 -0.3586
  144MOL0     C18941   6.621  10.434   9.470 -1.3088  0.3690 -1.4017
  144MOL0     C18942   6.483  10.451   9.504  0.0651  1.3831 -0.7671
  144MOL0     H18943   6.023  10.483   9.177  0.0000 -1.6028  0.0274
  144MOL0     H18944   5.773  10.534   9.193 -0.9453 -1.3247 -0.5010
  144MOL0     H18945   5.579  10.564   9.598  1.8365  1.5578 -0.4680
  144MOL0     H18946   5.553  10.409   9.532 -0.0446  0.6025  0.4754
  144MOL0     H18947   5.427  10.666   9.416 -0.2358  0.2298  0.2392
  144MOL0     H18948   5.354  10.579   9.561 -0.0658  1.6319 -0.6223
  144MOL0     H18949   5.313  10.388   9.423 -0.0821  0.4689  1.9479
  144MOL0     H18950   5.404  10.461   9.284 -0.1430 -4.5573  0.2562
  144MOL0     H18951   5.153  10.561   9.421 -0.7671 -2.9060 -0.4553
  144MOL0     H18952   5.241  10.638   9.284  2.0610  0.1877 -0.6177
  144MOL0     H18953   5.110  10.352   9.269  1.5779 -0.5424  0.0639
  144MOL0     H18954   5.214  10.436   9.154  2.2964 -0.5039  1.5906
  144MOL0     H18955   5.050  10.622   9.142  1.7125  3.3142  4.1219
  144MOL0     H18956   4.962  10.570   9.268  2.6558  1.6059  0.5062
  144MOL0     H18957   4.870  10.514   9.037  0.3244 -1.5844 -1.1018
  144MOL0     H18958   5.001  10.393   9.020 -0.1582  0.9808 -1.0307
  144MOL0     H18959   4.906  10.258   9.187  2.4764  1.3516  1.5575
  144MOL0     H18960   4.765  10.322   9.081  0.3523  2.4821 -1.3014
  144MOL0     H18961   4.626  10.536   9.195 -1.7858 -1.1576 -0.8263
  144MOL0     H18962   4.548  10.666   9.414 -1.7351 -0.9175 -1.3518
  144MOL0     H18963   4.515  10.559   9.564 -0.2619 -2.4254 -0.5523
  144MOL0     H18964   4.366  10.544   9.294  2.9922 -2.0190 -0.5023
  144MOL0     H18965   4.315  10.611   9.450  4.5225  2.7142  2.3987
  144MOL0     H18966   4.396  10.324   9.364 -0.4301  0.6662 -1.6917
  144MOL0     H18967   4.353  10.355   9.533  0.8941  1.9835  0.9190
  144MOL0     H18968   4.150  10.272   9.384 -2.3969  0.3738  3.7829
  144MOL0     H18969   4.176  10.419   9.299  3.1907  1.0476 -0.2449
  144MOL0     H18970   3.853  10.480   9.431 -1.0289 -0.2964 -0.5308
  144MOL0     H18971   3.661  10.363   9.527  0.3506  1.8580 -1.5878
  144MOL0     H18972   3.305  10.296   9.575 -0.7560  1.6996  0.7170
  144MOL0     H18973   3.068  10.237   9.645  0.8747  2.2082 -0.0483
  144MOL0     H18974   3.023  10.166  10.091 -2.3373 -0.0998  0.4679
  144MOL0     H18975   3.011  10.001  10.039 -0.2014  0.0500  1.5521
  144MOL0     H18976   2.791  10.206  10.018 -3.6240 -0.0357  0.1042
  144MOL0     H18977   2.802  10.095  10.157  1.1011 -1.1093 -0.4069
  144MOL0     H18978   2.805   9.947   9.889  1.2176  1.9847  0.8976
  144MOL0     H18979   2.666  10.046   9.921  0.8952  0.9961 -1.1071
  144MOL0     H18980   2.671   9.903  10.153  2.7931 -2.5333  1.7672
  144MOL0     H18981   2.591   9.837  10.016  1.7677 -4.3754  0.3095
  144MOL0     H18982   2.888   9.776  10.075 -0.0799 -1.0873  1.6737
  144MOL0     H18983   2.794   9.705   9.942 -1.1529  1.1679 -0.9067
  144MOL0     H18984   2.644   9.610  10.109 -0.9996  0.3116  1.9326
  144MOL0     H18985   2.741   9.684  10.246  2.3585 -0.3256  0.8228
  144MOL0     H18986   2.861   9.498  10.054 -0.4587  0.0009 -0.4288
  144MOL0     H18987   2.941   9.590  10.179 -0.3370 -1.6537  1.9882
  144MOL0     H18988   2.798   9.461  10.355  2.9912  0.5480  1.4597
  144MOL0     H18989   2.900   9.350  10.276  0.0996  1.5171  0.3361
  144MOL0     H18990   3.220  10.071  10.007  0.3964 -1.6866  0.0298
  144MOL0     H18991   3.464  10.108   9.914 -0.1159 -2.3203  0.5078
  144MOL0     H18992   3.934  10.152   9.788 -1.5517 -1.3077 -0.0776
  144MOL0     H18993   4.115  10.267   9.704  1.4265  2.9638 -1.2703
  144MOL0     H18994   5.759  10.410   9.591  0.5389  0.2346  0.2106
  144MOL0     H18995   6.011  10.329   9.583 -0.8134 -1.4237 -1.1650
  144MOL0     H18996   6.340  10.327   9.227 -3.0871  4.1638  0.7711
  144MOL0     H18997   6.608  10.284   9.169 -0.8300 -0.5313  0.2199
  144MOL0     H18998   6.836  10.437   9.146  0.0753 -0.2424  0.7331
  144MOL0     H18999   6.846  10.264   9.134  3.1489  1.7727 -2.6247
  144MOL0     H19000   7.038  10.444   9.256  2.1321 -0.0140  1.3076
  144MOL0     H19001   7.041  10.270   9.306  1.3003  0.6434 -0.1772
  144MOL0     H19002   7.062  10.365   9.021 -0.4875 -0.5245 -1.6357
  144MOL0     H19003   7.052  10.193   9.066 -0.4773  0.3412  0.8663
  144MOL0     H19004   7.281  10.304   9.023  0.2095  1.9194  0.7196
  144MOL0     H19005   7.276  10.347   9.196  0.6087  0.2222  0.7022
  144MOL0     H19006   7.367   9.938   9.222 -1.7115 -0.1755  2.7576
  144MOL0     H19007   6.695  10.474   9.538 -2.9536 -0.3460  0.9516
  144MOL0     H19008   6.448  10.497   9.596 -2.9549 -1.2774 -0.4114
  145MOL0     O19009  10.362   3.841   4.998  0.5531 -0.9617  0.4584
  145MOL0     C19010  10.444   3.754   5.028 -0.2063 -0.4090  0.3943
  145MOL0     O19011  10.431   3.665   5.132  0.0279  0.0351 -0.3792
  145MOL0     C19012  10.323   3.660   5.216  1.5763  0.2985 -0.3008
  145MOL0     C19013  10.250   3.777   5.266  1.7400 -0.2931 -0.1973
  145MOL0     C19014  10.135   3.765   5.348 -0.9801 -0.1294 -0.7725
  145MOL0     C19015  10.089   3.637   5.379  0.1690  0.1563 -0.1099
  145MOL0     O19016   9.976   3.606   5.462  0.3975 -0.0955 -0.9111
  145MOL0     C19017   9.888   3.497   5.447  0.5702  0.3636 -0.3699
  145MOL0     C19018   9.743   3.553   5.441  0.2753 -1.0654 -1.1557
  145MOL0     C19019   9.639   3.441   5.476  0.0902 -0.2959 -0.0491
  145MOL0     C19020   9.508   3.512   5.505  0.1561  0.1375 -0.2396
  145MOL0     C19021   9.394   3.408   5.540 -0.0042  0.0699  0.4887
  145MOL0     C19022   9.252   3.473   5.550 -0.3769  0.0933 -0.4351
  145MOL0     C19023   9.152   3.359   5.590 -0.7825  0.2385 -1.0557
  145MOL0     C19024   9.123   3.268   5.466 -1.0159 -0.0181  0.1836
  145MOL0     N19025   9.043   3.150   5.489 -0.5391  0.3069  0.5541
  145MOL0     C19026   9.067   3.049   5.585  0.0911 -0.1491  0.6803
  145MOL0     C19027   8.950   2.980   5.580  0.3525  0.4036 -0.4243
  145MOL0     C19028   8.898   2.863   5.669  0.9037 -1.0608  0.3069
  145MOL0     C19029   8.891   2.727   5.599 -0.9685  0.5541 -0.1388
  145MOL0     C19030   9.017   2.682   5.513  0.5757 -0.2518 -0.3938
  145MOL0     C19031   9.161   2.705   5.568  0.2783  0.2566 -0.8027
  145MOL0     O19032   9.183   2.638   5.694 -0.0945 -0.2750 -0.1462
  145MOL0     C19033   9.306   2.660   5.751 -0.7713 -0.2167  0.3738
  145MOL0     C19034   9.341   2.781   5.802  0.5850 -0.1999 -0.5535
  145MOL0     C19035   9.461   2.803   5.864  0.0015  0.5662 -0.2859
  145MOL0     C19036   9.548   2.696   5.879  0.4525  0.3258 -0.7887
  145MOL0     C19037   9.669   2.719   5.954 -0.5423 -0.0113 -0.8000
  145MOL0     O19038   9.718   2.839   6.003 -0.7158 -0.0102 -0.3929
  145MOL0     C19039   9.823   2.849   6.093  0.6651 -0.7702 -0.0434
  145MOL0     C19040   9.852   2.773   6.210 -0.0706  0.7082  1.4844
  145MOL0     C19041   9.963   2.818   6.291  0.0193 -0.5598  0.3828
  145MOL0     C19042  10.042   2.924   6.255 -0.3662 -0.3603 -0.6350
  145MOL0     O19043  10.153   2.969   6.316  0.1797  0.5187  0.7288
  145MOL0     C19044  10.201   2.894   6.424 -0.7312 -0.4641  0.0462
  145MOL0     C19045  10.331   2.957   6.493  0.4171 -0.5611 -0.1738
  145MOL0     C19046  10.467   2.901   6.453 -0.5623 -0.2627  0.4164
  145MOL0     C19047  10.571   2.945   6.553 -0.7118 -0.0009  0.0348
  145MOL0     C19048  10.700   2.869   6.528  0.2028 -1.0292 -0.1380
  145MOL0     C19049  10.796   2.909   6.639 -0.2493 -0.6947  0.8738
  145MOL0     C19050  10.883   3.026   6.592  0.1009 -0.8677  0.3880
  145MOL0     C19051  10.979   3.075   6.708  0.1960 -0.0707  0.2366
  145MOL0    Cl19052  11.058   3.230   6.696 -0.6138  0.2079  0.3237
  145MOL0     C19053  10.013   2.994   6.141  0.1510  0.9360  0.1707
  145MOL0     C19054   9.903   2.963   6.059 -0.4395 -0.2629 -0.1473
  145MOL0     O19055   9.726   2.612   5.966 -0.2414 -0.5366  0.4270
  145MOL0     C19056   9.519   2.574   5.817 -0.3117 -0.2062  0.0864
  145MOL0     C19057   9.394   2.555   5.749 -0.2336  1.0533  0.1002
  145MOL0     N19058   8.872   3.034   5.481  0.8264  0.8995  0.2684
  145MOL0     N19059   8.924   3.131   5.422  0.1640  0.2978  0.8474
  145MOL0     C19060  10.168   3.530   5.334 -0.1133  0.1900  0.5726
  145MOL0     C19061  10.284   3.536   5.258 -0.8625  0.2980  0.0860
  145MOL0     C19062  10.581   3.734   4.961  0.6416  0.6928 -0.0582
  145MOL0     C19063  10.605   3.793   4.830  0.8655  0.7254 -0.5825
  145MOL0     C19064  10.720   3.772   4.758  0.6213 -0.2387 -0.3222
  145MOL0     C19065  10.833   3.715   4.827 -0.0109  0.7277 -1.3495
  145MOL0     O19066  10.961   3.688   4.769 -0.3150 -0.5249  0.0433
  145MOL0     C19067  10.979   3.728   4.636  0.3573  0.4618  0.7628
  145MOL0     C19068  11.134   3.704   4.620  0.1692  0.7133  0.2823
  145MOL0     C19069  11.175   3.739   4.469 -0.5699 -0.3533 -0.2226
  145MOL0     C19070  11.323   3.720   4.437  0.3588  0.8262 -0.4072
  145MOL0     C19071  11.374   3.593   4.451 -1.0395 -0.2566  0.3467
  145MOL0     C19072  11.389   3.472   4.467 -0.2321  0.5252 -0.4874
  145MOL0     C19073  10.809   3.660   4.957 -0.0952 -1.1672 -1.1914
  145MOL0     C19074  10.683   3.665   5.019  0.0807 -0.1216  0.5866
  145MOL0     H19075  10.283   3.877   5.238 -0.1721  0.1661 -0.9769
  145MOL0     H19076  10.081   3.846   5.397  0.7097  1.2969 -1.1959
  145MOL0     H19077   9.890   3.424   5.528 -2.6871 -1.5035 -1.7525
  145MOL0     H19078   9.909   3.447   5.352 -0.4050  1.5212 -1.2347
  145MOL0     H19079   9.711   3.592   5.344 -1.2068  1.4571  0.2150
  145MOL0     H19080   9.734   3.647   5.497 -0.1539  0.0372 -2.9695
  145MOL0     H19081   9.667   3.372   5.557 -2.4216 -2.5133 -0.9158
  145MOL0     H19082   9.624   3.372   5.392 -2.0798  0.5598 -0.4212
  145MOL0     H19083   9.529   3.578   5.590  4.6390 -1.5594  0.2659
  145MOL0     H19084   9.482   3.584   5.427  1.0452 -1.3543 -1.9938
  145MOL0     H19085   9.417   3.358   5.634 -2.7158 -1.0552  0.6535
  145MOL0     H19086   9.398   3.332   5.462 -0.9004  2.2697 -1.8596
  145MOL0     H19087   9.227   3.521   5.455  0.6964  1.2414 -0.1712
  145MOL0     H19088   9.243   3.557   5.620 -0.1717  0.8472 -1.2925
  145MOL0     H19089   9.198   3.294   5.665 -3.4490 -2.9342 -1.9008
  145MOL0     H19090   9.057   3.400   5.625  1.1394  2.2083  2.3018
  145MOL0     H19091   9.220   3.226   5.436 -1.1686  0.5026 -1.1295
  145MOL0     H19092   9.087   3.329   5.382  3.5385 -2.7075 -4.3563
  145MOL0     H19093   9.153   3.055   5.651 -0.4068 -0.8292  1.4070
  145MOL0     H19094   8.801   2.891   5.710  1.0124 -1.2457  0.6985
  145MOL0     H19095   8.960   2.864   5.759  1.2089  0.1029  0.1028
  145MOL0     H19096   8.815   2.723   5.521 -0.7959 -1.2629 -0.2632
  145MOL0     H19097   8.862   2.650   5.672  2.1066  1.3323  2.1216
  145MOL0     H19098   9.003   2.577   5.485  0.2486 -0.5088  0.6746
  145MOL0     H19099   9.017   2.740   5.421  3.2227  0.0744 -0.2796
  145MOL0     H19100   9.179   2.812   5.577  0.2493  0.2848 -1.0549
  145MOL0     H19101   9.240   2.664   5.504  0.3294  2.3327 -2.1666
  145MOL0     H19102   9.269   2.862   5.806  1.0696  0.2863 -1.2155
  145MOL0     H19103   9.473   2.897   5.917 -2.6461  0.8767 -0.0907
  145MOL0     H19104   9.787   2.699   6.256 -0.3540  1.4205  2.2594
  145MOL0     H19105   9.977   2.773   6.388  0.8593 -1.9201 -0.3340
  145MOL0     H19106  10.214   2.787   6.404 -0.5581 -0.2871 -0.8485
  145MOL0     H19107  10.123   2.906   6.499  1.5987 -0.1467  2.5789
  145MOL0     H19108  10.315   2.937   6.599  0.2674  1.7909  0.2955
  145MOL0     H19109  10.323   3.064   6.474 -1.3626 -0.4264  1.0700
  145MOL0     H19110  10.490   2.932   6.351 -0.6008  1.6345  0.9426
  145MOL0     H19111  10.465   2.792   6.449 -1.7261 -0.2691  0.6788
  145MOL0     H19112  10.584   3.053   6.548 -1.9986  0.1246 -1.6881
  145MOL0     H19113  10.531   2.920   6.651  0.4119 -4.0917 -0.3743
  145MOL0     H19114  10.740   2.898   6.430  1.3490  0.0906  0.6231
  145MOL0     H19115  10.675   2.763   6.528 -1.7671 -0.6998 -3.2738
  145MOL0     H19116  10.862   2.824   6.659 -0.7492 -0.4393  4.2212
  145MOL0     H19117  10.744   2.935   6.732 -3.8753 -0.5670 -1.0225
  145MOL0     H19118  10.950   3.005   6.509  1.1023  0.8331  0.7226
  145MOL0     H19119  10.818   3.111   6.565 -0.7548 -1.5145  0.3651
  145MOL0     H19120  11.044   2.993   6.736  1.0142  1.3274  2.7683
  145MOL0     H19121  10.897   3.096   6.778  2.0784  0.2287  2.4614
  145MOL0     H19122  10.075   3.080   6.117 -0.1354  0.9542 -0.5107
  145MOL0     H19123   9.877   3.026   5.974  0.4994 -0.1635 -0.3795
  145MOL0     H19124   9.595   2.496   5.819  0.1579  0.2618  1.0571
  145MOL0     H19125   9.367   2.461   5.703 -1.4732  1.0993  0.6797
  145MOL0     H19126  10.133   3.432   5.364  1.7016 -0.6231  0.1852
  145MOL0     H19127  10.334   3.448   5.218 -1.6066 -1.3244  2.5009
  145MOL0     H19128  10.517   3.837   4.784 -0.5932  1.1875  2.3851
  145MOL0     H19129  10.711   3.789   4.651  2.7283 -1.5936 -0.7818
  145MOL0     H19130  10.953   3.832   4.613 -0.3387  0.3858  1.1748
  145MOL0     H19131  10.921   3.667   4.567 -0.9606  1.4725  0.9285
  145MOL0     H19132  11.196   3.756   4.694 -1.9150  1.5214  1.5571
  145MOL0     H19133  11.149   3.597   4.636  1.4389  0.8589  0.1105
  145MOL0     H19134  11.147   3.844   4.452 -1.2574 -0.5183 -0.1438
  145MOL0     H19135  11.110   3.698   4.391 -2.3010  1.4782  0.1685
  145MOL0     H19136  11.343   3.758   4.337 -0.2139  0.1960 -0.7658
  145MOL0     H19137  11.379   3.786   4.504  1.6516 -1.0879  0.5021
  145MOL0     H19138  11.394   3.372   4.505  0.9914 -0.0906 -2.1527
  145MOL0     H19139  10.889   3.619   5.017 -0.2763  0.7081  0.4462
  145MOL0     H19140  10.672   3.620   5.117  1.7017 -1.6564  0.1187
  146MOL0     O19141   0.252  10.625   6.827  0.0209 -0.6723 -0.0441
  146MOL0     C19142   0.344  10.551   6.791 -0.2306  0.9527 -0.2703
  146MOL0     O19143   0.353  10.487   6.666 -0.1174  0.0829 -0.3986
  146MOL0     C19144   0.257  10.514   6.570 -0.0285 -0.3231 -0.1607
  146MOL0     C19145   0.303  10.542   6.432 -0.6391  0.4622  0.2597
  146MOL0     C19146   0.214  10.566   6.333  0.2634  0.5534  0.0392
  146MOL0     C19147   0.076  10.588   6.352 -0.5009  1.3319  0.8023
  146MOL0     O19148  -0.020  10.614   6.255 -0.4284 -0.2968 -0.1180
  146MOL0     C19149   0.013  10.719   6.165 -0.1973  0.5525  0.6034
  146MOL0     C19150   0.026  10.852   6.234 -0.1573 -0.2637  0.0238
  146MOL0     C19151   0.020  10.970   6.131  0.3942  0.9804 -0.0393
  146MOL0     C19152   0.075  11.105   6.180  0.5754 -0.4253  0.4172
  146MOL0     C19153   0.063  11.221   6.076 -1.2903  0.6792 -0.5759
  146MOL0     C19154  -0.071  11.228   6.022 -0.3658  0.2219  0.5809
  146MOL0     C19155  -0.091  11.350   5.921 -0.0714 -0.1094 -0.1215
  146MOL0     C19156  -0.089  11.487   5.996 -0.1515  0.3709  0.3814
  146MOL0     N19157  -0.222  11.509   6.060  0.5389 -0.2085  0.5170
  146MOL0     C19158  -0.323  11.418   6.071  0.3340 -0.5300  0.0336
  146MOL0     C19159  -0.431  11.492   6.106 -0.3050 -0.4937 -0.8309
  146MOL0     C19160  -0.577  11.431   6.108  0.3010 -0.7217 -0.3520
  146MOL0     C19161  -0.691  11.534   6.144  0.1397  0.9272 -0.7489
  146MOL0     C19162  -0.827  11.489   6.098  0.6117  0.7769  0.0931
  146MOL0     C19163  -0.941  11.578   6.148  0.0910 -0.2770  0.2299
  146MOL0     O19164  -1.065  11.537   6.112  1.1984  0.1219 -0.5419
  146MOL0     C19165  -1.173  11.576   6.192 -0.9180 -0.5406 -0.3277
  146MOL0     C19166  -1.162  11.669   6.298 -0.8002 -0.0853  0.0002
  146MOL0     C19167  -1.261  11.708   6.381  0.1823  0.2392  0.4266
  146MOL0     C19168  -1.387  11.674   6.345  0.7860  0.1540 -0.1606
  146MOL0     C19169  -1.508  11.701   6.435  0.5169  0.0772  0.3973
  146MOL0     O19170  -1.618  11.651   6.389  0.3800  0.1837  0.3454
  146MOL0     C19171  -1.732  11.693   6.461 -0.1106  0.6108  0.5705
  146MOL0     C19172  -1.778  11.607   6.570 -0.0907 -0.0838  1.0120
  146MOL0     C19173  -1.908  11.634   6.618 -0.0652  0.8952 -0.2170
  146MOL0     C19174  -1.985  11.730   6.564  0.7627 -0.6586 -0.3907
  146MOL0     O19175  -2.106  11.758   6.624  0.4577 -0.2121 -0.5155
  146MOL0     C19176  -2.166  11.673   6.722  0.0950 -0.4741 -0.0146
  146MOL0     C19177  -2.269  11.764   6.786  0.2714  0.2269 -1.0823
  146MOL0     C19178  -2.319  11.690   6.924  0.1466  1.0679 -0.4715
  146MOL0     C19179  -2.449  11.765   6.968 -0.1583 -0.6988  0.0540
  146MOL0     C19180  -2.505  11.686   7.095 -0.8079  0.3678 -0.4725
  146MOL0     C19181  -2.640  11.731   7.120 -0.0080 -0.1059 -0.4699
  146MOL0     C19182  -2.751  11.647   7.038  0.2240 -1.2018 -0.4429
  146MOL0     C19183  -2.892  11.653   7.088  0.5054 -0.5124  0.1429
  146MOL0    Cl19184  -2.944  11.822   7.104 -0.1698 -0.1259 -0.2920
  146MOL0     C19185  -1.935  11.813   6.468  0.4247  0.1693  0.9783
  146MOL0     C19186  -1.807  11.791   6.412 -0.8850  0.0723  0.8474
  146MOL0     O19187  -1.490  11.759   6.546 -0.2274 -0.7521  0.6224
  146MOL0     C19188  -1.408  11.604   6.224 -0.2312 -0.3885 -0.0954
  146MOL0     C19189  -1.301  11.548   6.155 -0.4139 -1.2278  0.1792
  146MOL0     N19190  -0.388  11.626   6.126  0.9220  0.7028  0.6355
  146MOL0     N19191  -0.265  11.635   6.098 -0.0544  0.0248 -0.3046
  146MOL0     C19192   0.026  10.553   6.477  0.0547  0.6187  0.2549
  146MOL0     C19193   0.118  10.514   6.585  1.0788  0.4524  1.1695
  146MOL0     C19194   0.451  10.519   6.893  0.1425  0.0147 -0.2717
  146MOL0     C19195   0.560  10.427   6.856  0.8139 -0.7283  0.1782
  146MOL0     C19196   0.670  10.407   6.937 -0.4113  0.9912  0.6796
  146MOL0     C19197   0.680  10.463   7.067 -0.4400 -0.0835 -0.0002
  146MOL0     O19198   0.765  10.440   7.173  1.2582  0.3805  0.3597
  146MOL0     C19199   0.863  10.341   7.164  0.0249  0.1050 -0.1209
  146MOL0     C19200   0.805  10.200   7.168 -0.3647 -0.7757  0.1412
  146MOL0     C19201   0.915  10.094   7.181  0.2510  0.2514  0.6626
  146MOL0     C19202   0.938  10.012   7.052 -0.6930  1.1063  0.9293
  146MOL0     C19203   0.833   9.906   7.026 -0.5081  0.4874 -0.6008
  146MOL0     C19204   0.750   9.821   6.991  0.2097  0.1611 -0.3121
  146MOL0     C19205   0.573  10.543   7.093  0.1594 -0.2188  0.3278
  146MOL0     C19206   0.457  10.576   7.013 -0.0874  0.3385  0.5917
  146MOL0     H19207   0.407  10.533   6.404 -0.8859  3.2137 -1.9999
  146MOL0     H19208   0.260  10.573   6.234  4.0476  0.4178  1.6220
  146MOL0     H19209  -0.070  10.733   6.095  1.4283  1.3462 -1.2515
  146MOL0     H19210   0.087  10.678   6.097 -1.0289 -2.2570  1.2639
  146MOL0     H19211   0.123  10.843   6.284 -0.2232 -1.2962 -0.0172
  146MOL0     H19212  -0.060  10.859   6.301 -1.6061 -1.2399 -1.6468
  146MOL0     H19213  -0.079  10.982   6.087  0.4321  0.5925 -0.2291
  146MOL0     H19214   0.076  10.950   6.039 -0.4535 -1.3690 -0.0952
  146MOL0     H19215   0.024  11.136   6.271 -3.2191 -0.5467 -1.4710
  146MOL0     H19216   0.182  11.093   6.198  0.9290  0.8975 -0.5870
  146MOL0     H19217   0.141  11.201   6.002 -0.2337  1.4216  0.3018
  146MOL0     H19218   0.087  11.320   6.115  1.3755 -0.4006  0.8650
  146MOL0     H19219  -0.140  11.235   6.106  0.0504 -0.9594  1.0359
  146MOL0     H19220  -0.105  11.135   5.976 -5.1854 -0.7110  5.1451
  146MOL0     H19221  -0.011  11.354   5.846 -0.6559  0.9083 -0.7204
  146MOL0     H19222  -0.181  11.328   5.863 -2.4838 -1.6177  3.7875
  146MOL0     H19223  -0.079  11.557   5.913 -3.4866  1.2494  0.5515
  146MOL0     H19224  -0.005  11.492   6.065  0.7014  1.9624 -0.6966
  146MOL0     H19225  -0.333  11.311   6.053  1.5114 -0.4445 -1.2259
  146MOL0     H19226  -0.578  11.354   6.185  0.1234  0.9650  1.4030
  146MOL0     H19227  -0.596  11.391   6.008 -1.1896  4.2109 -2.3906
  146MOL0     H19228  -0.665  11.625   6.089 -2.3461  0.8072 -2.3167
  146MOL0     H19229  -0.687  11.547   6.252  0.0888  1.0895 -0.7672
  146MOL0     H19230  -0.838  11.486   5.989  1.1163  2.6322 -0.0493
  146MOL0     H19231  -0.847  11.387   6.132  0.8866 -0.0267 -1.9858
  146MOL0     H19232  -0.917  11.681   6.120  2.7367 -1.2302 -1.4243
  146MOL0     H19233  -0.935  11.570   6.257  0.9668 -0.5252  0.1749
  146MOL0     H19234  -1.067  11.706   6.335  0.4533 -3.4401  0.5582
  146MOL0     H19235  -1.239  11.755   6.477  1.0893 -2.2026  1.5070
  146MOL0     H19236  -1.733  11.513   6.600  2.8805  1.2368  1.0323
  146MOL0     H19237  -1.950  11.568   6.694 -1.5952  2.3152  0.2418
  146MOL0     H19238  -2.096  11.641   6.800  1.0129  0.5950 -0.3707
  146MOL0     H19239  -2.214  11.587   6.676 -0.9101  0.5278 -0.9113
  146MOL0     H19240  -2.357  11.779   6.722 -0.5799  0.8183  0.1793
  146MOL0     H19241  -2.229  11.864   6.805  1.5760 -0.8168  2.4682
  146MOL0     H19242  -2.243  11.692   7.002  1.9000 -0.3314 -2.0635
  146MOL0     H19243  -2.341  11.583   6.909 -2.1033  1.4900 -0.5679
  146MOL0     H19244  -2.424  11.867   7.000  2.8802 -1.1918 -0.3930
  146MOL0     H19245  -2.520  11.766   6.885  0.9806  1.6395 -0.9650
  146MOL0     H19246  -2.440  11.713   7.178 -1.7575 -0.3879  0.5375
  146MOL0     H19247  -2.495  11.578   7.082 -2.9519  0.3978 -3.6724
  146MOL0     H19248  -2.659  11.836   7.096  0.7479 -0.1085 -1.1298
  146MOL0     H19249  -2.663  11.728   7.227 -2.2347  1.0913 -0.8708
  146MOL0     H19250  -2.743  11.686   6.936  1.3160  1.5990  0.6113
  146MOL0     H19251  -2.731  11.540   7.032 -2.0997 -1.8917  1.9293
  146MOL0     H19252  -2.900  11.600   7.184 -0.4355 -0.6498  0.0039
  146MOL0     H19253  -2.959  11.606   7.015 -0.9860  1.4125  0.1772
  146MOL0     H19254  -1.985  11.901   6.427  0.6548  0.2707  0.9164
  146MOL0     H19255  -1.775  11.859   6.334 -1.4827 -0.5340  0.0453
  146MOL0     H19256  -1.508  11.574   6.194  0.4002 -1.5044 -1.1692
  146MOL0     H19257  -1.306  11.493   6.062 -1.2421  1.5293 -1.5207
  146MOL0     H19258  -0.078  10.579   6.498  0.4039  2.5687 -0.2149
  146MOL0     H19259   0.080  10.495   6.684  1.0428 -0.4300  0.9961
  146MOL0     H19260   0.570  10.390   6.755 -3.5714  1.2064 -1.2161
  146MOL0     H19261   0.734  10.331   6.892 -2.6101 -1.4981  1.5040
  146MOL0     H19262   0.932  10.343   7.249 -0.4652  0.6241  0.2676
  146MOL0     H19263   0.920  10.363   7.073 -0.2306  0.7299 -0.1320
  146MOL0     H19264   0.743  10.212   7.257 -1.1557 -0.2115 -0.4781
  146MOL0     H19265   0.737  10.187   7.084  0.9350 -1.5984 -0.8267
  146MOL0     H19266   0.877  10.021   7.253 -0.8327 -0.7980 -0.9134
  146MOL0     H19267   1.012  10.136   7.210  0.0143 -0.4857  2.7598
  146MOL0     H19268   0.944  10.066   6.958 -2.6109  1.5061  0.9949
  146MOL0     H19269   1.034   9.961   7.062 -2.1798 -1.4947  4.3134
  146MOL0     H19270   0.673   9.752   6.963 -0.6885  1.0003  0.0459
  146MOL0     H19271   0.584  10.574   7.197  1.6234 -2.9808  1.1003
  146MOL0     H19272   0.377  10.636   7.054 -0.7134 -1.6824  2.5045
  147MOL0     O19273  10.576  10.785  10.952 -0.2015  0.4339  0.7208
  147MOL0     C19274  10.646  10.881  10.975 -0.6829  0.1405 -0.0829
  147MOL0     O19275  10.608  10.998  11.032 -0.1569 -0.0320 -0.5198
  147MOL0     C19276  10.488  10.997  11.093  0.0387 -0.1955 -0.8972
  147MOL0     C19277  10.366  11.029  11.035 -1.5824  0.0351  0.3769
  147MOL0     C19278  10.261  11.036  11.118  0.0708 -0.0771 -0.3983
  147MOL0     C19279  10.259  10.980  11.249 -0.1820 -0.2021 -0.5022
  147MOL0     O19280  10.136  10.967  11.315  0.6010 -0.0647  0.2748
  147MOL0     C19281  10.122  10.880  11.428  0.3520 -0.5243 -0.5677
  147MOL0     C19282   9.965  10.889  11.473 -0.4806 -0.7317  0.9859
  147MOL0     C19283   9.937  10.783  11.579  0.2433  1.2400 -0.6492
  147MOL0     C19284   9.787  10.787  11.624  0.2812  0.6612 -0.3366
  147MOL0     C19285   9.698  10.724  11.520 -0.6140  1.5850 -0.6572
  147MOL0     C19286   9.556  10.749  11.570  0.2818  0.6647 -0.5958
  147MOL0     C19287   9.455  10.685  11.468 -0.7234 -1.4653  0.4291
  147MOL0     C19288   9.312  10.721  11.477  0.0743  0.0187 -0.1186
  147MOL0     N19289   9.266  10.670  11.605 -0.2895 -0.0227  1.2373
  147MOL0     C19290   9.182  10.555  11.627  0.2580 -0.7907  0.1101
  147MOL0     C19291   9.168  10.539  11.757  0.4819  0.0970  0.0604
  147MOL0     C19292   9.088  10.431  11.834  0.7209 -0.0109 -0.5838
  147MOL0     C19293   8.942  10.475  11.857 -0.8146  0.5546 -0.0354
  147MOL0     C19294   8.858  10.485  11.722 -0.1156 -0.0852  1.2647
  147MOL0     C19295   8.708  10.462  11.737 -0.7464 -0.3170  0.2790
  147MOL0     O19296   8.659  10.468  11.607  0.0004  0.0138 -0.2993
  147MOL0     C19297   8.526  10.454  11.594 -0.0396 -0.7135  0.8514
  147MOL0     C19298   8.438  10.394  11.699  0.0233  0.5155 -0.5225
  147MOL0     C19299   8.300  10.379  11.673 -0.0001 -0.1428  0.4097
  147MOL0     C19300   8.243  10.428  11.547 -0.1742 -0.3173  0.0094
  147MOL0     C19301   8.101  10.422  11.520  1.0587 -0.0061  0.7275
  147MOL0     O19302   8.017  10.407  11.623  0.1750 -0.1019 -0.4943
  147MOL0     C19303   7.880  10.415  11.624  0.5621 -0.3459  1.0909
  147MOL0     C19304   7.817  10.374  11.736  0.6728  0.3369 -0.2061
  147MOL0     C19305   7.677  10.386  11.740  0.4876 -0.4369 -0.2158
  147MOL0     C19306   7.603  10.460  11.648 -0.4508 -0.0197 -0.2714
  147MOL0     O19307   7.471  10.487  11.662 -0.3111  0.6265  0.6402
  147MOL0     C19308   7.429  10.533  11.794  0.2174  0.0532 -0.3483
  147MOL0     C19309   7.275  10.560  11.803  0.1680 -0.6805 -0.8184
  147MOL0     C19310   7.194  10.446  11.739  0.2235  0.0437 -0.5977
  147MOL0     C19311   7.042  10.467  11.753  0.2663 -0.6027 -0.5128
  147MOL0     C19312   6.962  10.343  11.705 -0.7044  0.4062 -0.6838
  147MOL0     C19313   6.820  10.379  11.657  0.4560 -0.7056  0.6711
  147MOL0     C19314   6.733  10.429  11.764 -0.5275 -0.0597 -1.1508
  147MOL0     C19315   6.587  10.455  11.725  0.5511  0.2903 -0.1422
  147MOL0    Cl19316   6.533  10.285  11.687 -0.0189 -0.0336 -0.1893
  147MOL0     C19317   7.664  10.490  11.521 -0.9524 -0.8289 -0.0477
  147MOL0     C19318   7.800  10.469  11.519  0.4300 -0.5469  0.7504
  147MOL0     O19319   8.061  10.417  11.399 -0.0081  0.4542  0.7431
  147MOL0     C19320   8.334  10.475  11.453  0.5534 -0.2389  1.2157
  147MOL0     C19321   8.471  10.480  11.474  0.0876 -0.1452  0.2027
  147MOL0     N19322   9.247  10.638  11.817  1.0882 -0.5152 -0.0119
  147MOL0     N19323   9.294  10.716  11.730  0.0490  0.3983  1.5403
  147MOL0     C19324  10.380  10.931  11.303 -0.5910  0.4809  0.1034
  147MOL0     C19325  10.497  10.944  11.227 -0.2223 -0.1444  0.9704
  147MOL0     C19326  10.780  10.890  10.905  1.3010 -0.1370 -0.1028
  147MOL0     C19327  10.837  11.016  10.868 -0.1262  0.1923  0.4901
  147MOL0     C19328  10.972  11.022  10.831 -0.4040 -0.6757 -0.4262
  147MOL0     C19329  11.044  10.898  10.818 -0.3074 -0.6153 -0.6432
  147MOL0     O19330  11.182  10.901  10.791 -0.0756 -0.0598  0.3739
  147MOL0     C19331  11.276  10.975  10.867  0.3697  0.7162 -0.2653
  147MOL0     C19332  11.408  10.969  10.784 -0.0825 -0.7719 -0.5595
  147MOL0     C19333  11.516  11.062  10.858 -0.8470 -0.1255 -0.1999
  147MOL0     C19334  11.646  11.067  10.777 -0.3645  0.4150 -0.1952
  147MOL0     C19335  11.741  11.151  10.850  1.1813  0.2381 -0.5717
  147MOL0     C19336  11.801  11.236  10.904  0.1797  0.1099  0.1499
  147MOL0     C19337  10.988  10.776  10.838 -0.0814 -0.2512 -0.2051
  147MOL0     C19338  10.854  10.770  10.880  0.5617 -0.6617  0.3791
  147MOL0     H19339  10.377  11.056  10.931  0.7928  1.8675  1.0289
  147MOL0     H19340  10.163  11.053  11.074  1.4390  2.0513 -2.9225
  147MOL0     H19341  10.174  10.920  11.516  0.0838  1.8466 -1.4126
  147MOL0     H19342  10.152  10.776  11.407 -0.0137 -1.2444  2.1467
  147MOL0     H19343   9.897  10.867  11.391 -0.5113 -1.4329  1.1897
  147MOL0     H19344   9.948  10.989  11.513 -1.7318  0.9012 -3.2076
  147MOL0     H19345   9.991  10.813  11.670 -0.5962  0.2128  0.2165
  147MOL0     H19346   9.962  10.684  11.539  0.2730  1.9889 -2.5723
  147MOL0     H19347   9.775  10.720  11.710  0.8458  2.2317  1.0194
  147MOL0     H19348   9.763  10.891  11.648  2.8736  1.4073 -0.6465
  147MOL0     H19349   9.716  10.616  11.519  0.3650  1.7312 -2.0071
  147MOL0     H19350   9.714  10.765  11.419 -0.8183  0.0954 -1.3252
  147MOL0     H19351   9.545  10.856  11.588 -2.4386  0.5703 -1.3164
  147MOL0     H19352   9.538  10.702  11.668  1.3891 -0.4519 -0.9101
  147MOL0     H19353   9.477  10.727  11.369  0.3278  3.6141  2.5153
  147MOL0     H19354   9.470  10.577  11.476 -1.2784 -1.5105  0.9199
  147MOL0     H19355   9.247  10.669  11.406 -1.5964  2.2043 -0.3280
  147MOL0     H19356   9.296  10.826  11.449 -0.0909 -0.4067 -1.7223
  147MOL0     H19357   9.143  10.484  11.555 -2.9679  0.6664  0.2353
  147MOL0     H19358   9.126  10.425  11.937  0.7196 -1.7812 -0.6564
  147MOL0     H19359   9.095  10.331  11.791  2.4422 -0.2607  0.1572
  147MOL0     H19360   8.927  10.566  11.916 -0.8577  0.9723 -0.6803
  147MOL0     H19361   8.892  10.391  11.907 -1.3445  1.2613  0.6495
  147MOL0     H19362   8.871  10.579  11.668 -3.4027 -0.6204 -0.6869
  147MOL0     H19363   8.886  10.405  11.654 -0.6469  0.1304  0.7841
  147MOL0     H19364   8.666  10.539  11.803  0.0404  1.1021 -0.8119
  147MOL0     H19365   8.697  10.357  11.764 -2.6656 -0.4418 -0.8426
  147MOL0     H19366   8.468  10.361  11.797 -0.7244 -0.8490 -0.7271
  147MOL0     H19367   8.226  10.341  11.743 -0.0711 -2.6647 -0.8801
  147MOL0     H19368   7.870  10.342  11.825  1.5125  1.8499 -0.1308
  147MOL0     H19369   7.638  10.353  11.836  2.2721 -0.3155  0.5960
  147MOL0     H19370   7.477  10.630  11.808 -4.4997  2.2310  3.2901
  147MOL0     H19371   7.472  10.490  11.885  1.4665  3.9316  1.1055
  147MOL0     H19372   7.255  10.652  11.747  0.1726 -0.2050 -0.0537
  147MOL0     H19373   7.242  10.578  11.905 -2.2689  0.1074 -1.6561
  147MOL0     H19374   7.206  10.361  11.808 -4.0921  2.5255  3.8026
  147MOL0     H19375   7.212  10.420  11.634 -1.3753 -2.4045 -0.3379
  147MOL0     H19376   7.012  10.496  11.855 -2.0569 -2.2548 -0.6539
  147MOL0     H19377   7.026  10.552  11.686  1.2129 -0.1686 -0.1953
  147MOL0     H19378   6.968  10.262  11.778  0.1223 -0.7742 -1.9832
  147MOL0     H19379   7.000  10.292  11.615 -0.6450  0.9607 -0.9740
  147MOL0     H19380   6.762  10.303  11.604  0.6503 -0.9257  0.7699
  147MOL0     H19381   6.832  10.462  11.586  0.3032 -1.1511  0.1094
  147MOL0     H19382   6.726  10.348  11.837  1.3903  1.8923  1.3858
  147MOL0     H19383   6.784  10.508  11.819 -2.0813  0.8073 -0.9073
  147MOL0     H19384   6.585  10.511  11.631 -3.1411 -1.2982 -1.1653
  147MOL0     H19385   6.525  10.486  11.810  0.8099 -3.7008  1.7113
  147MOL0     H19386   7.616  10.535  11.435  1.5000  2.4855  0.1141
  147MOL0     H19387   7.854  10.513  11.435 -2.9152 -0.7096 -1.6646
  147MOL0     H19388   8.297  10.501  11.355 -3.5333 -1.4126  2.2711
  147MOL0     H19389   8.524  10.522  11.389 -0.8778  1.2240  0.2523
  147MOL0     H19390  10.388  10.899  11.406  0.7285 -2.8747 -0.8933
  147MOL0     H19391  10.598  10.929  11.264  0.6297 -0.3746 -1.2500
  147MOL0     H19392  10.789  11.112  10.885 -0.7916 -0.3905  2.0515
  147MOL0     H19393  11.022  11.118  10.826 -0.1563 -0.6345  1.7997
  147MOL0     H19394  11.299  10.935  10.966  0.9732  4.2281  1.1712
  147MOL0     H19395  11.249  11.080  10.881 -0.6684  0.5415 -0.8950
  147MOL0     H19396  11.437  10.863  10.782 -2.0899 -1.3616 -0.0969
  147MOL0     H19397  11.380  10.998  10.683 -0.6520  1.7936  0.2578
  147MOL0     H19398  11.536  10.990  10.939  0.3565 -3.0070 -2.8195
  147MOL0     H19399  11.479  11.157  10.895 -0.4988  0.9432 -2.4235
  147MOL0     H19400  11.683  10.964  10.768 -0.7625  0.0422  1.9266
  147MOL0     H19401  11.640  11.116  10.680 -1.5875  0.0066 -0.3392
  147MOL0     H19402  11.865  11.312  10.943  0.7944 -0.5290  0.4047
  147MOL0     H19403  11.052  10.693  10.810 -0.5708 -0.0697 -2.0472
  147MOL0     H19404  10.817  10.672  10.909 -0.9338 -0.4289 -0.6080
  148MOL0     O19405   7.764   6.067   9.460  0.4684  0.4221  0.0856
  148MOL0     C19406   7.674   6.134   9.515 -0.3436 -0.6912 -0.1296
  148MOL0     O19407   7.677   6.186   9.646  0.2462  0.3088  0.1359
  148MOL0     C19408   7.796   6.183   9.717  0.2386 -0.2895  0.0210
  148MOL0     C19409   7.916   6.232   9.661  0.0998 -0.0303 -0.3998
  148MOL0     C19410   8.040   6.227   9.728  1.9443 -0.7255  0.4014
  148MOL0     C19411   8.042   6.158   9.850  0.1965 -0.4951 -0.2592
  148MOL0     O19412   8.164   6.120   9.895 -0.5442  0.7191  0.3165
  148MOL0     C19413   8.181   6.054  10.015  0.5648 -0.3155 -0.2387
  148MOL0     C19414   8.329   6.025  10.024 -0.5277  0.0872  0.1909
  148MOL0     C19415   8.377   5.906   9.946 -1.0439 -0.0961  0.6859
  148MOL0     C19416   8.532   5.872   9.952  0.7335 -0.5782 -0.2551
  148MOL0     C19417   8.581   5.739   9.876  0.8613 -0.1775 -0.1854
  148MOL0     C19418   8.740   5.729   9.878 -0.0135  0.7246 -0.1343
  148MOL0     C19419   8.798   5.625   9.775  0.1641  0.3720  0.6388
  148MOL0     C19420   8.952   5.642   9.754  0.4627  0.1591 -0.7410
  148MOL0     N19421   9.034   5.583   9.856  0.0530 -0.9353 -0.0189
  148MOL0     C19422   9.099   5.466   9.845  0.1086 -0.1364 -0.1529
  148MOL0     C19423   9.173   5.462   9.962 -1.1361  0.5675  0.3277
  148MOL0     C19424   9.274   5.357  10.002 -0.2594  0.5453  0.9590
  148MOL0     C19425   9.407   5.392   9.936  0.9303 -0.2112  0.2940
  148MOL0     C19426   9.505   5.281   9.976  0.8908  0.1960 -0.0001
  148MOL0     C19427   9.644   5.291   9.918  0.3111  0.8796 -0.3507
  148MOL0     O19428   9.673   5.171   9.847 -0.2910  0.4371  0.0184
  148MOL0     C19429   9.806   5.137   9.834  0.3501 -1.2915 -0.1094
  148MOL0     C19430   9.836   5.115   9.707 -0.0873 -0.8270  0.2977
  148MOL0     C19431   9.964   5.084   9.654 -0.2915 -1.4061  0.4545
  148MOL0     C19432  10.063   5.059   9.748 -0.8137  0.1007 -1.0322
  148MOL0     C19433  10.193   5.005   9.700 -0.1719  0.3123 -0.2478
  148MOL0     O19434  10.201   4.984   9.569 -0.2604  0.8591  0.2614
  148MOL0     C19435  10.310   4.922   9.507 -0.3318 -0.4299 -0.0318
  148MOL0     C19436  10.281   4.852   9.387 -0.6609 -0.9763  1.1966
  148MOL0     C19437  10.386   4.779   9.322  0.5222  0.4874 -0.6837
  148MOL0     C19438  10.515   4.781   9.374 -0.4707 -0.6359  0.1743
  148MOL0     O19439  10.610   4.733   9.292  0.9109  0.3690  0.3704
  148MOL0     C19440  10.750   4.708   9.335  0.6968 -0.0969  0.2635
  148MOL0     C19441  10.805   4.606   9.246  0.0067 -1.0512  0.3288
  148MOL0     C19442  10.936   4.554   9.292  0.1961  0.1640  0.1454
  148MOL0     C19443  11.003   4.444   9.206 -0.3497 -0.0043  0.4430
  148MOL0     C19444  11.144   4.476   9.184 -0.6247  0.6180 -0.0876
  148MOL0     C19445  11.230   4.363   9.117  0.3293  0.7278 -0.2116
  148MOL0     C19446  11.257   4.254   9.225  0.2240 -0.4508 -0.7476
  148MOL0     C19447  11.362   4.150   9.176 -0.6145 -0.5706 -0.1840
  148MOL0    Cl19448  11.278   4.020   9.079  0.0102  0.1901  0.2105
  148MOL0     C19449  10.540   4.855   9.489 -0.1479 -0.2489  0.1085
  148MOL0     C19450  10.440   4.921   9.560  0.1695 -0.3618  0.6929
  148MOL0     O19451  10.281   4.982   9.789 -0.4764 -0.0650  0.0479
  148MOL0     C19452  10.036   5.105   9.884 -0.7435  0.2311  0.7843
  148MOL0     C19453   9.908   5.149   9.925 -0.8949 -0.0773  0.0989
  148MOL0     N19454   9.156   5.574  10.036  0.4450 -0.3803  0.4472
  148MOL0     N19455   9.080   5.647   9.970  0.5359 -0.8948  0.8323
  148MOL0     C19456   7.919   6.119   9.906 -0.1363  0.2054 -0.5641
  148MOL0     C19457   7.798   6.140   9.849 -0.2895 -0.3521  0.9863
  148MOL0     C19458   7.556   6.172   9.428  0.2014 -0.9288  0.4696
  148MOL0     C19459   7.441   6.242   9.477 -0.1987 -0.2149  0.4654
  148MOL0     C19460   7.337   6.274   9.390 -0.1690 -0.5961  0.1039
  148MOL0     C19461   7.338   6.254   9.254 -0.9394 -0.1947 -0.1230
  148MOL0     O19462   7.241   6.315   9.193 -0.3390  0.3834  0.2714
  148MOL0     C19463   7.215   6.293   9.056  0.1123  0.6405  0.9694
  148MOL0     C19464   7.081   6.349   9.026 -0.3129 -0.5802 -0.7926
  148MOL0     C19465   7.060   6.493   9.082 -0.2831 -0.0456 -1.0550
  148MOL0     C19466   6.920   6.541   9.030 -0.0039  0.5120  0.6538
  148MOL0     C19467   6.877   6.663   9.097 -0.4356  0.5376 -0.8053
  148MOL0     C19468   6.825   6.750   9.162  0.3143 -0.5364  0.2196
  148MOL0     C19469   7.443   6.181   9.209  0.1022 -1.0439 -0.2211
  148MOL0     C19470   7.548   6.141   9.294 -0.9433 -0.2308  0.5149
  148MOL0     H19471   7.904   6.275   9.562  2.4529 -0.9947 -1.1817
  148MOL0     H19472   8.124   6.284   9.690  0.5671  3.2404  2.7096
  148MOL0     H19473   8.130   5.959  10.037 -1.0012  1.4210  5.0811
  148MOL0     H19474   8.150   6.117  10.098  1.1292 -0.0229 -0.2441
  148MOL0     H19475   8.371   6.009  10.124  0.5970 -1.3536 -0.4622
  148MOL0     H19476   8.386   6.111   9.988 -1.4762  0.0811 -1.3984
  148MOL0     H19477   8.350   5.921   9.841 -1.1168  0.1229  0.7360
  148MOL0     H19478   8.333   5.818   9.994 -2.6803  0.7361  0.7919
  148MOL0     H19479   8.593   5.953   9.911  2.5589 -2.4134 -1.3755
  148MOL0     H19480   8.578   5.866  10.051  0.8585 -0.7556 -0.3223
  148MOL0     H19481   8.541   5.732   9.775  0.5367  1.1937 -0.1691
  148MOL0     H19482   8.540   5.656   9.935 -1.0328  1.3155  0.7246
  148MOL0     H19483   8.773   5.707   9.980 -4.1007  0.1655  1.2611
  148MOL0     H19484   8.774   5.831   9.857 -2.7470  1.5602 -0.8966
  148MOL0     H19485   8.792   5.526   9.822 -1.4621  0.5649  0.8747
  148MOL0     H19486   8.748   5.634   9.678  0.4014  4.1858  0.7240
  148MOL0     H19487   8.978   5.748   9.755 -2.8127  1.0972  1.6668
  148MOL0     H19488   8.981   5.591   9.661 -2.3166 -0.7211 -1.2177
  148MOL0     H19489   9.105   5.396   9.762  0.5378  0.0216 -0.2548
  148MOL0     H19490   9.237   5.260   9.967  3.3545 -0.0763 -1.7826
  148MOL0     H19491   9.272   5.347  10.110 -4.1407  0.3260  1.0143
  148MOL0     H19492   9.446   5.486   9.976  3.2693 -0.1088 -1.9067
  148MOL0     H19493   9.399   5.424   9.831  1.9219  0.7237  0.4774
  148MOL0     H19494   9.514   5.294  10.084  0.0329  2.1547 -0.1216
  148MOL0     H19495   9.451   5.186   9.962  0.6448  0.2896  0.2888
  148MOL0     H19496   9.724   5.312   9.989  1.8990  0.0614 -1.8222
  148MOL0     H19497   9.658   5.378   9.853  0.1885  2.1914  1.3141
  148MOL0     H19498   9.758   5.115   9.632  0.1577 -1.3181  0.0385
  148MOL0     H19499   9.977   5.073   9.547  0.0396 -0.9037  0.4405
  148MOL0     H19500  10.183   4.861   9.341  1.0465 -0.6670 -2.6872
  148MOL0     H19501  10.380   4.719   9.232  0.2389 -1.4118  0.5405
  148MOL0     H19502  10.759   4.667   9.436  0.4093 -1.6394 -0.3080
  148MOL0     H19503  10.803   4.804   9.327 -0.1180  0.3212 -0.2723
  148MOL0     H19504  10.813   4.645   9.144 -0.2338 -0.8101  0.4008
  148MOL0     H19505  10.727   4.529   9.256 -0.1668 -0.6098  3.2951
  148MOL0     H19506  10.922   4.515   9.393  0.7446 -0.6660 -0.0929
  148MOL0     H19507  11.000   4.642   9.288  0.8597 -0.3452 -1.7604
  148MOL0     H19508  11.008   4.348   9.258  2.5233 -2.2292 -3.4100
  148MOL0     H19509  10.954   4.427   9.110  0.0622  0.9555  0.0592
  148MOL0     H19510  11.187   4.493   9.283  1.5860 -3.7707 -0.0418
  148MOL0     H19511  11.148   4.567   9.124 -2.9141 -1.0389 -2.9988
  148MOL0     H19512  11.323   4.414   9.088  0.8254 -0.6465 -1.1162
  148MOL0     H19513  11.178   4.313   9.036 -0.2640 -1.2273  1.3037
  148MOL0     H19514  11.303   4.298   9.314  1.2271 -0.4539 -1.2467
  148MOL0     H19515  11.162   4.204   9.248 -0.9701  1.3302 -1.5342
  148MOL0     H19516  11.424   4.113   9.258  0.3093  1.0418 -0.1156
  148MOL0     H19517  11.436   4.208   9.122 -0.9119  0.8394  0.8620
  148MOL0     H19518  10.638   4.861   9.535 -0.3691  1.7306  0.4076
  148MOL0     H19519  10.473   4.984   9.642 -2.4563 -0.0697  1.6015
  148MOL0     H19520  10.123   5.114   9.948  0.4326 -0.1719 -0.6941
  148MOL0     H19521   9.889   5.172  10.029 -1.9744  0.5341 -0.2126
  148MOL0     H19522   7.929   6.078  10.006 -0.4664  2.0048  0.2394
  148MOL0     H19523   7.709   6.111   9.903 -0.0549 -0.7870  1.1412
  148MOL0     H19524   7.443   6.250   9.586  1.6573  0.4958  0.4080
  148MOL0     H19525   7.254   6.319   9.442  1.3147  1.0711  1.1417
  148MOL0     H19526   7.222   6.187   9.031 -1.5247  0.9928 -1.2731
  148MOL0     H19527   7.286   6.352   8.997  1.6428 -3.7484 -2.1405
  148MOL0     H19528   7.067   6.340   8.918  1.8179 -1.5363 -1.0531
  148MOL0     H19529   7.006   6.286   9.075  0.5455  0.1729  1.6492
  148MOL0     H19530   7.134   6.567   9.050 -0.7319  0.5947 -0.6307
  148MOL0     H19531   7.061   6.475   9.190  3.6125  0.2844 -0.9069
  148MOL0     H19532   6.930   6.552   8.922 -0.2635 -1.2785  0.4229
  148MOL0     H19533   6.849   6.463   9.057  0.6720 -0.0496  0.8283
  148MOL0     H19534   6.773   6.822   9.222  0.9044 -0.3757  0.5426
  148MOL0     H19535   7.447   6.167   9.101 -0.5359 -1.0298 -0.2496
  148MOL0     H19536   7.635   6.085   9.261 -0.9689 -1.9691  3.0779
  149MOL0     O19537  10.547   3.468   7.203 -0.2789 -0.1006  0.0312
  149MOL0     C19538  10.565   3.583   7.243 -0.5172  0.3752 -0.1429
  149MOL0     O19539  10.468   3.676   7.273  1.5174  0.2253  0.3328
  149MOL0     C19540  10.336   3.666   7.237  0.2280 -0.4442  0.5483
  149MOL0     C19541  10.285   3.578   7.144  0.8145  0.1156  0.8517
  149MOL0     C19542  10.153   3.589   7.090  0.0349  0.1699  0.3006
  149MOL0     C19543  10.071   3.682   7.149  1.2445  0.3613 -0.3405
  149MOL0     O19544   9.944   3.693   7.092  0.1741 -0.5907 -0.3632
  149MOL0     C19545   9.832   3.729   7.181 -1.2138 -0.2768  0.2315
  149MOL0     C19546   9.705   3.656   7.142 -0.2494 -0.0114  0.2695
  149MOL0     C19547   9.608   3.657   7.265 -0.5313  0.4086  0.5000
  149MOL0     C19548   9.502   3.557   7.247 -0.3492  0.0782  0.3539
  149MOL0     C19549   9.403   3.571   7.370 -0.5844  0.4443  0.1647
  149MOL0     C19550   9.317   3.452   7.372  1.0322  0.6358  0.8518
  149MOL0     C19551   9.368   3.338   7.446 -0.1004  1.0767  0.3802
  149MOL0     C19552   9.368   3.348   7.598  0.2935  0.2495  0.8296
  149MOL0     N19553   9.426   3.233   7.665 -0.9867 -0.3310  0.3860
  149MOL0     C19554   9.407   3.192   7.791  0.0382 -0.0371  0.3515
  149MOL0     C19555   9.475   3.076   7.810 -0.6218  0.4770  0.8015
  149MOL0     C19556   9.503   3.012   7.940 -0.6056  0.3136 -0.4654
  149MOL0     C19557   9.510   2.859   7.930  0.9765 -0.3344 -0.0763
  149MOL0     C19558   9.499   2.798   8.080  0.1054 -0.2559  0.4776
  149MOL0     C19559   9.622   2.822   8.171 -0.0413 -0.2807  0.1999
  149MOL0     O19560   9.598   2.960   8.224 -0.8009  0.4664  0.0458
  149MOL0     C19561   9.688   2.992   8.329 -0.4374 -0.4361  0.4522
  149MOL0     C19562   9.821   2.944   8.338 -0.7583 -0.7464 -0.3080
  149MOL0     C19563   9.909   2.983   8.437  1.0174 -1.0781  0.0530
  149MOL0     C19564   9.861   3.073   8.537 -0.6093  1.3149 -0.2446
  149MOL0     C19565   9.950   3.075   8.654  0.7830 -0.6942  0.3630
  149MOL0     O19566   9.912   3.154   8.756 -0.1108 -0.0087  0.6010
  149MOL0     C19567  10.008   3.212   8.830  0.4308 -0.3807  0.0684
  149MOL0     C19568  10.146   3.226   8.798  0.9393  0.4953  0.1868
  149MOL0     C19569  10.231   3.295   8.887  0.6380 -0.6815  0.4795
  149MOL0     C19570  10.184   3.354   9.003 -0.0406 -0.6555 -0.4056
  149MOL0     O19571  10.278   3.445   9.054 -0.4375 -0.0552  0.0004
  149MOL0     C19572  10.219   3.550   9.133  0.3236 -0.1467 -0.2478
  149MOL0     C19573  10.312   3.667   9.181 -0.9540 -0.3375  0.0462
  149MOL0     C19574  10.365   3.742   9.063 -0.6342  0.4293 -0.2266
  149MOL0     C19575  10.456   3.860   9.105  0.1141  0.5146  0.5772
  149MOL0     C19576  10.552   3.907   8.995 -0.0143 -0.1602  0.3438
  149MOL0     C19577  10.612   4.039   9.025 -0.4755  0.0507  0.0120
  149MOL0     C19578  10.746   4.071   8.945  0.4187  0.6606  0.1063
  149MOL0     C19579  10.820   4.187   9.019  0.4112 -0.6360  0.6571
  149MOL0    Cl19580  10.925   4.261   8.906 -0.1739 -0.0074  0.2475
  149MOL0     C19581  10.050   3.338   9.046 -0.0869  0.7209  0.0603
  149MOL0     C19582   9.970   3.265   8.964  0.8680 -0.4022 -0.1514
  149MOL0     O19583  10.039   2.994   8.665 -0.1050 -0.3724 -0.7480
  149MOL0     C19584   9.736   3.124   8.533  0.3335 -0.4799  0.5220
  149MOL0     C19585   9.651   3.083   8.431 -0.0625 -0.9790  0.5466
  149MOL0     N19586   9.513   3.028   7.689 -0.9727  0.3594 -0.4880
  149MOL0     N19587   9.485   3.120   7.604 -0.7615 -0.3334 -0.4888
  149MOL0     C19588  10.112   3.761   7.250 -0.0430 -0.4798 -0.1750
  149MOL0     C19589  10.240   3.760   7.297 -0.3438  0.0291 -0.0758
  149MOL0     C19590  10.704   3.616   7.273  0.0016  0.6690  0.4995
  149MOL0     C19591  10.799   3.532   7.213  0.0801  1.1462 -0.3100
  149MOL0     C19592  10.934   3.556   7.231  0.1852  0.7505  0.6114
  149MOL0     C19593  10.977   3.668   7.297 -0.5795  0.1833  0.8541
  149MOL0     O19594  11.101   3.725   7.269 -0.0901  0.4245  0.8716
  149MOL0     C19595  11.186   3.720   7.380 -1.5237  0.1994 -0.3123
  149MOL0     C19596  11.309   3.628   7.355  0.2434 -0.4967 -0.7060
  149MOL0     C19597  11.293   3.497   7.264  0.9944 -0.5712  0.0959
  149MOL0     C19598  11.203   3.382   7.316 -0.6640 -0.6597 -0.1855
  149MOL0     C19599  11.151   3.298   7.208  0.0788 -0.0605  0.1303
  149MOL0     C19600  11.120   3.229   7.112  0.3204 -0.7215  0.3714
  149MOL0     C19601  10.882   3.748   7.365 -0.2844 -0.5380  0.2841
  149MOL0     C19602  10.746   3.723   7.350  0.0284  0.2556  0.0465
  149MOL0     H19603  10.336   3.490   7.107 -1.5671 -1.1834  0.3971
  149MOL0     H19604  10.112   3.522   7.016  1.5833 -0.8440  0.3080
  149MOL0     H19605   9.811   3.836   7.183  0.6063  0.1308 -0.2284
  149MOL0     H19606   9.861   3.702   7.283  5.0136  2.5440 -0.2914
  149MOL0     H19607   9.715   3.548   7.124 -4.5168 -0.5109 -0.1345
  149MOL0     H19608   9.660   3.698   7.053  1.8698 -2.4661 -2.1493
  149MOL0     H19609   9.565   3.756   7.282 -0.6002  0.5273 -0.3131
  149MOL0     H19610   9.665   3.635   7.355  0.4516  0.9367  0.0259
  149MOL0     H19611   9.449   3.584   7.155  0.5595 -4.1375 -1.6640
  149MOL0     H19612   9.556   3.463   7.232  1.3814  0.9971  0.6383
  149MOL0     H19613   9.335   3.656   7.367 -3.5911 -1.7900  0.3526
  149MOL0     H19614   9.464   3.570   7.461 -0.0880 -1.3571 -0.1558
  149MOL0     H19615   9.293   3.419   7.271 -3.9726  2.6970  1.1103
  149MOL0     H19616   9.232   3.477   7.436 -0.2157 -3.2256  0.9729
  149MOL0     H19617   9.316   3.245   7.423 -0.1537  1.3704 -0.7851
  149MOL0     H19618   9.474   3.335   7.419  0.8583 -0.3194  3.7870
  149MOL0     H19619   9.260   3.353   7.614 -0.4656 -1.6296 -2.7082
  149MOL0     H19620   9.428   3.435   7.626 -1.0353  1.2013  0.8127
  149MOL0     H19621   9.350   3.235   7.873  1.1729  2.7829 -0.1891
  149MOL0     H19622   9.438   3.049   8.019  1.3106 -0.7544  1.7232
  149MOL0     H19623   9.602   3.048   7.971  0.7768 -2.1531 -1.7083
  149MOL0     H19624   9.593   2.817   7.872  0.2401 -3.8504  1.2137
  149MOL0     H19625   9.415   2.826   7.885  2.2901 -3.9927 -0.5131
  149MOL0     H19626   9.406   2.819   8.133  0.0872 -1.0050  0.7639
  149MOL0     H19627   9.487   2.690   8.064  1.5213 -0.3074 -0.4316
  149MOL0     H19628   9.712   2.822   8.109 -1.9120  4.4582 -3.1370
  149MOL0     H19629   9.624   2.749   8.252 -1.0487 -0.6446 -0.0936
  149MOL0     H19630   9.862   2.879   8.261 -1.7939 -3.1655  1.0685
  149MOL0     H19631  10.008   2.939   8.430  1.5563  0.1674 -0.4105
  149MOL0     H19632  10.194   3.194   8.706 -0.5277 -1.5771  0.0683
  149MOL0     H19633  10.335   3.310   8.861  0.3277 -3.1840 -2.7791
  149MOL0     H19634  10.169   3.512   9.223 -1.5662 -0.5239 -1.4093
  149MOL0     H19635  10.140   3.609   9.085  0.7275  0.5696 -0.0529
  149MOL0     H19636  10.387   3.621   9.246 -2.7431 -0.7991  1.9182
  149MOL0     H19637  10.250   3.732   9.245  0.1448  0.3729  0.4189
  149MOL0     H19638  10.281   3.768   8.997 -0.2628  0.6753 -0.6127
  149MOL0     H19639  10.427   3.672   9.007  4.2199  4.9699 -1.2789
  149MOL0     H19640  10.400   3.947   9.142 -0.2490  0.2452  0.6721
  149MOL0     H19641  10.533   3.823   9.173  1.4491  2.4719  0.2218
  149MOL0     H19642  10.501   3.909   8.899  1.9408 -1.6994 -0.7957
  149MOL0     H19643  10.634   3.835   9.002  0.8718  0.8691  0.8733
  149MOL0     H19644  10.636   4.045   9.132  0.5974 -0.2171 -0.1986
  149MOL0     H19645  10.543   4.119   8.999 -0.1665  0.6792  1.0716
  149MOL0     H19646  10.811   3.985   8.962 -0.9336 -0.4666 -0.2236
  149MOL0     H19647  10.726   4.078   8.838 -0.1030  3.6783  0.3332
  149MOL0     H19648  10.869   4.155   9.112 -0.6348  0.7095  1.6993
  149MOL0     H19649  10.753   4.270   9.041  1.8953  1.2651 -1.4994
  149MOL0     H19650  10.004   3.375   9.138 -0.5944 -1.5969  0.8236
  149MOL0     H19651   9.872   3.244   9.003 -0.6553  2.8430 -1.7821
  149MOL0     H19652   9.697   3.194   8.607  1.1551  1.8157 -1.1022
  149MOL0     H19653   9.547   3.113   8.434  0.1121 -0.2054 -0.3963
  149MOL0     H19654  10.035   3.827   7.288  0.5575  0.4597 -0.5536
  149MOL0     H19655  10.269   3.832   7.373 -2.7441  0.1270  0.8457
  149MOL0     H19656  10.777   3.440   7.161  2.1023  0.8367 -0.6918
  149MOL0     H19657  11.004   3.499   7.170 -0.2835  2.5060 -1.7068
  149MOL0     H19658  11.145   3.683   7.474  0.0273 -2.8752 -0.7172
  149MOL0     H19659  11.231   3.818   7.396 -2.1131  0.9427 -2.7841
  149MOL0     H19660  11.391   3.685   7.311  0.0455  0.6352  0.3433
  149MOL0     H19661  11.338   3.590   7.453  3.7563  2.1214 -0.5475
  149MOL0     H19662  11.393   3.461   7.234  0.2968 -1.9172 -0.7618
  149MOL0     H19663  11.251   3.516   7.165 -0.2592  1.7235  1.0095
  149MOL0     H19664  11.259   3.324   7.390 -1.5957 -1.8111 -0.3416
  149MOL0     H19665  11.123   3.425   7.378  1.2869  3.2353 -0.0777
  149MOL0     H19666  11.095   3.172   7.025 -3.7606 -0.0945  0.9099
  149MOL0     H19667  10.912   3.841   7.412  3.3207 -0.8015 -1.1240
  149MOL0     H19668  10.668   3.792   7.382 -3.6810 -0.8902 -5.1389
  150MOL0     O19669   0.595  10.022  10.787  0.0818  0.1734  0.0358
  150MOL0     C19670   0.645   9.938  10.712  0.1718  0.3735  0.6945
  150MOL0     O19671   0.571   9.869  10.618 -0.7586 -0.2645 -0.9066
  150MOL0     C19672   0.436   9.903  10.602 -0.0703  0.8079 -0.2679
  150MOL0     C19673   0.367  10.026  10.608  0.4278  0.6739 -0.2799
  150MOL0     C19674   0.231  10.031  10.600  0.2531  0.0344 -0.6293
  150MOL0     C19675   0.158   9.923  10.562 -0.4863  0.3167  0.3686
  150MOL0     O19676   0.026   9.935  10.547 -1.2521  0.5281  0.0173
  150MOL0     C19677  -0.043   9.866  10.436 -0.5168  0.3053  0.0184
  150MOL0     C19678  -0.188   9.914  10.432  0.2642 -0.3397  1.6739
  150MOL0     C19679  -0.284   9.797  10.388  1.6284  0.1911 -0.0669
  150MOL0     C19680  -0.423   9.859  10.372 -0.2010 -0.2216 -0.3929
  150MOL0     C19681  -0.532   9.754  10.342 -0.7541 -0.0552 -0.0118
  150MOL0     C19682  -0.679   9.796  10.366 -0.4378 -0.5016 -0.2159
  150MOL0     C19683  -0.714   9.931  10.302 -0.1537 -0.3042 -0.2429
  150MOL0     C19684  -0.868   9.961  10.298 -0.1794  0.4820 -0.0780
  150MOL0     N19685  -0.920   9.971  10.433 -0.0806  0.8720  0.5694
  150MOL0     C19686  -0.978   9.867  10.505  0.4740 -0.1696 -0.9330
  150MOL0     C19687  -1.026   9.939  10.613 -0.3947 -0.5268  0.8315
  150MOL0     C19688  -1.082   9.868  10.727  0.4498 -0.2638 -0.5384
  150MOL0     C19689  -1.205   9.776  10.703  0.2001  0.5915  0.6866
  150MOL0     C19690  -1.329   9.866  10.666 -0.4596  0.6797  0.0723
  150MOL0     C19691  -1.406   9.786  10.548  0.2134 -0.6367  1.1020
  150MOL0     O19692  -1.320   9.776  10.432  0.3424 -0.1883  0.0550
  150MOL0     C19693  -1.345   9.698  10.319  0.1679 -0.3813  0.0016
  150MOL0     C19694  -1.281   9.734  10.203 -0.2222 -0.2422 -0.1937
  150MOL0     C19695  -1.316   9.673  10.080 -1.0050 -0.4611  0.2116
  150MOL0     C19696  -1.418   9.575  10.084 -0.6332 -0.4268 -0.5547
  150MOL0     C19697  -1.465   9.499   9.963  0.0687  0.2725 -0.0476
  150MOL0     O19698  -1.393   9.529   9.848  0.2622  0.1342  0.7254
  150MOL0     C19699  -1.438   9.473   9.730  0.5220 -0.5162  0.1733
  150MOL0     C19700  -1.517   9.545   9.645  0.0486  0.1039 -0.6504
  150MOL0     C19701  -1.561   9.489   9.529  0.3605 -0.6521 -0.6286
  150MOL0     C19702  -1.540   9.352   9.498  0.0814 -0.0098 -0.1650
  150MOL0     O19703  -1.590   9.302   9.379  0.4403 -0.4057 -1.1235
  150MOL0     C19704  -1.545   9.179   9.324  0.4911  0.2419 -0.6441
  150MOL0     C19705  -1.633   9.067   9.393  0.6589 -0.2714 -0.2115
  150MOL0     C19706  -1.591   8.919   9.375  0.0639  0.3582  0.2017
  150MOL0     C19707  -1.461   8.903   9.450  1.2110  0.7200  0.0670
  150MOL0     C19708  -1.404   8.755   9.441 -0.9622  1.0139 -0.5433
  150MOL0     C19709  -1.267   8.731   9.511 -0.3840 -0.4304  1.0037
  150MOL0     C19710  -1.270   8.792   9.655 -0.3555  0.6095  0.6631
  150MOL0     C19711  -1.141   8.746   9.730 -0.2675  0.1950  0.4454
  150MOL0    Cl19712  -1.088   8.880   9.836 -0.3806  0.3709 -0.0532
  150MOL0     C19713  -1.451   9.284   9.584  1.1263  0.1015 -0.1410
  150MOL0     C19714  -1.401   9.343   9.699 -0.7228 -0.8089  0.1055
  150MOL0     O19715  -1.560   9.416   9.967  0.8481  0.0974  1.0630
  150MOL0     C19716  -1.483   9.559  10.212  0.2793 -0.3298  0.6474
  150MOL0     C19717  -1.449   9.606  10.325  1.1026 -0.2140 -0.3138
  150MOL0     N19718  -0.969  10.067  10.600 -0.6586  0.1835 -0.3613
  150MOL0     N19719  -0.900  10.087  10.498 -0.7088  1.0714  0.2014
  150MOL0     C19720   0.222   9.798  10.543  0.8206 -0.0221  0.2286
  150MOL0     C19721   0.361   9.792  10.565 -0.4027 -0.9940 -0.0257
  150MOL0     C19722   0.789   9.920  10.714 -0.1250 -0.3157  0.0999
  150MOL0     C19723   0.878  10.016  10.773 -0.6848  0.2735 -0.4897
  150MOL0     C19724   1.016   9.977  10.787  0.3839  0.5349 -0.2005
  150MOL0     C19725   1.057   9.859  10.734 -1.1154  0.0069  0.5499
  150MOL0     O19726   1.184   9.805  10.756  0.9827  0.2858  0.2911
  150MOL0     C19727   1.287   9.896  10.785 -0.4018 -0.2922  0.2460
  150MOL0     C19728   1.425   9.847  10.744  0.4490 -1.2417  0.3806
  150MOL0     C19729   1.526   9.918  10.837  0.3289  1.0586  0.2530
  150MOL0     C19730   1.566   9.830  10.956  0.4952  0.4606 -0.0986
  150MOL0     C19731   1.687   9.878  11.007 -0.3064 -0.0138 -0.6553
  150MOL0     C19732   1.793   9.914  11.047 -0.4013  0.4002 -0.2775
  150MOL0     C19733   0.964   9.766  10.672  0.5173  0.1016 -0.4794
  150MOL0     C19734   0.833   9.800  10.655 -0.3939  0.0924  0.2477
  150MOL0     H19735   0.408  10.126  10.621 -2.4815  1.8903  0.3571
  150MOL0     H19736   0.180  10.127  10.607 -1.5671 -0.7799 -1.9632
  150MOL0     H19737  -0.034   9.759  10.456  0.6759  0.6213  1.3994
  150MOL0     H19738   0.014   9.892  10.346 -0.8930 -1.1398 -0.6578
  150MOL0     H19739  -0.192   9.990  10.354 -1.3881 -0.5337  1.5330
  150MOL0     H19740  -0.229   9.958  10.524 -3.6581 -2.4758  1.2040
  150MOL0     H19741  -0.280   9.710  10.454  4.9518  1.9376  2.3394
  150MOL0     H19742  -0.260   9.761  10.288  0.8161  0.1485 -0.2517
  150MOL0     H19743  -0.447   9.901  10.470 -1.4653 -0.4639 -0.5813
  150MOL0     H19744  -0.436   9.941  10.300  1.9782  0.7788  0.2581
  150MOL0     H19745  -0.519   9.656  10.388  0.1003 -0.4052 -0.9641
  150MOL0     H19746  -0.524   9.731  10.236 -0.6782 -0.1559  0.0154
  150MOL0     H19747  -0.692   9.813  10.473  0.5155  2.4943 -0.4903
  150MOL0     H19748  -0.752   9.726  10.324  0.9188 -2.8012  1.0223
  150MOL0     H19749  -0.665  10.017  10.349 -0.3865  2.4369 -4.4920
  150MOL0     H19750  -0.674   9.928  10.200  0.9024  0.0653  0.1424
  150MOL0     H19751  -0.931   9.889  10.243 -3.7463  1.1393  2.7319
  150MOL0     H19752  -0.880  10.061  10.255 -1.3788  0.5917  0.4521
  150MOL0     H19753  -0.994   9.766  10.468  1.3164 -1.0885  1.0886
  150MOL0     H19754  -1.112   9.936  10.807 -1.0903 -1.9577  0.3962
  150MOL0     H19755  -1.005   9.806  10.776 -0.2125  0.4726  1.5295
  150MOL0     H19756  -1.222   9.715  10.792 -0.9463 -1.3627 -0.7880
  150MOL0     H19757  -1.188   9.712  10.616 -2.1893  1.7303 -0.7059
  150MOL0     H19758  -1.400   9.872  10.748  1.7069 -1.1501  2.2169
  150MOL0     H19759  -1.292   9.962  10.628 -0.6815  1.1516  1.0330
  150MOL0     H19760  -1.487   9.842  10.499  1.1221 -1.5258 -1.5649
  150MOL0     H19761  -1.456   9.695  10.582 -0.4606 -0.1230  1.5310
  150MOL0     H19762  -1.209   9.815  10.211  1.6945 -1.9153  0.3550
  150MOL0     H19763  -1.257   9.687   9.989  0.7349 -2.9649  0.8482
  150MOL0     H19764  -1.547   9.648   9.663 -0.9089 -0.2978  0.1227
  150MOL0     H19765  -1.628   9.556   9.476  2.3979  1.6485 -0.4440
  150MOL0     H19766  -1.442   9.148   9.347 -0.1234 -0.8812  0.7097
  150MOL0     H19767  -1.568   9.183   9.218  0.6442  0.4712 -0.6706
  150MOL0     H19768  -1.733   9.061   9.349  0.5325 -2.1255  0.2230
  150MOL0     H19769  -1.640   9.090   9.500 -0.9767  1.5258 -0.6455
  150MOL0     H19770  -1.582   8.891   9.270 -2.1275 -1.5335  0.4194
  150MOL0     H19771  -1.677   8.860   9.409 -0.4054  1.0871  0.3144
  150MOL0     H19772  -1.387   8.968   9.402  0.1189  0.3633 -2.2212
  150MOL0     H19773  -1.493   8.935   9.549  0.1120 -1.4313  0.4639
  150MOL0     H19774  -1.394   8.726   9.336  1.6841 -2.4485  0.4790
  150MOL0     H19775  -1.479   8.680   9.471 -0.7715  1.4084  1.0178
  150MOL0     H19776  -1.204   8.784   9.439 -0.6123  0.7581  1.6626
  150MOL0     H19777  -1.240   8.625   9.513  3.3740  0.3496  3.8359
  150MOL0     H19778  -1.273   8.902   9.652 -3.4739  0.6632  1.7228
  150MOL0     H19779  -1.361   8.749   9.699  1.0525 -2.4748  0.7793
  150MOL0     H19780  -1.055   8.725   9.666 -0.8159 -1.8435  0.3181
  150MOL0     H19781  -1.160   8.656   9.789 -1.0234  1.2014  1.8015
  150MOL0     H19782  -1.425   9.179   9.576 -3.5017 -1.2232 -0.7768
  150MOL0     H19783  -1.338   9.287   9.767 -1.8874 -0.2729  1.6649
  150MOL0     H19784  -1.576   9.503  10.211 -0.0652  0.2040 -1.3992
  150MOL0     H19785  -1.507   9.596  10.417  4.6452  2.4956  2.5179
  150MOL0     H19786   0.175   9.709  10.501 -0.1939  1.0505 -1.0381
  150MOL0     H19787   0.398   9.691  10.553 -0.9776 -1.0007 -2.1093
  150MOL0     H19788   0.844  10.111  10.812  1.5033  1.7162 -1.8752
  150MOL0     H19789   1.080  10.037  10.851  1.4252 -0.7312 -0.0141
  150MOL0     H19790   1.294   9.922  10.892 -1.9643 -1.0400  0.5562
  150MOL0     H19791   1.268   9.992  10.736 -2.6447 -0.7681  0.0934
  150MOL0     H19792   1.426   9.738  10.754  1.4347 -1.2276  0.5362
  150MOL0     H19793   1.434   9.874  10.638  1.5229 -0.2106  0.7032
  150MOL0     H19794   1.494  10.017  10.870 -2.7482 -0.1012  1.0603
  150MOL0     H19795   1.608   9.939  10.767 -0.6407  1.1098 -0.9144
  150MOL0     H19796   1.495   9.841  11.038 -1.1022 -1.1856 -1.2059
  150MOL0     H19797   1.583   9.725  10.932  2.1278  1.2411 -2.8720
  150MOL0     H19798   1.887   9.954  11.079 -0.2662  0.2969 -0.5401
  150MOL0     H19799   1.005   9.680  10.620  1.6137 -0.2588  0.8992
  150MOL0     H19800   0.764   9.724  10.620 -0.7567  0.2897  0.5230
  151MOL0     O19801   6.350   5.475   8.412 -0.6126 -0.0934 -0.3074
  151MOL0     C19802   6.429   5.561   8.389 -0.1506 -0.0905  0.0079
  151MOL0     O19803   6.391   5.684   8.332 -0.1033  0.3032  0.1438
  151MOL0     C19804   6.271   5.738   8.369  0.3482 -0.8908 -0.1677
  151MOL0     C19805   6.267   5.845   8.457  0.7944 -0.2975 -0.8506
  151MOL0     C19806   6.144   5.908   8.489 -0.6259 -0.0553  1.4210
  151MOL0     C19807   6.034   5.875   8.417 -0.0519  0.4041  0.3939
  151MOL0     O19808   5.912   5.923   8.436  0.2458  0.3568 -0.0017
  151MOL0     C19809   5.896   6.069   8.423  0.4909 -0.4263 -0.6266
  151MOL0     C19810   5.768   6.118   8.492 -0.0936  0.2937 -0.0703
  151MOL0     C19811   5.645   6.131   8.408 -0.7563 -0.8987 -0.0292
  151MOL0     C19812   5.526   6.201   8.476  0.6714 -0.0760  1.0767
  151MOL0     C19813   5.407   6.208   8.377 -0.6928 -0.0274 -0.8938
  151MOL0     C19814   5.292   6.280   8.448  0.1667  0.1387 -0.6132
  151MOL0     C19815   5.158   6.274   8.366 -0.4871 -0.2212  0.3238
  151MOL0     C19816   5.048   6.212   8.457 -0.6121 -0.1937 -0.1583
  151MOL0     N19817   4.912   6.235   8.407 -0.1782  0.5405  0.0980
  151MOL0     C19818   4.889   6.205   8.274  0.2912 -0.1541  0.8903
  151MOL0     C19819   4.758   6.182   8.273  0.2706 -0.5758  0.1001
  151MOL0     C19820   4.676   6.139   8.158  0.1334 -0.3875  0.3923
  151MOL0     C19821   4.525   6.167   8.170  0.2310  0.7794 -0.2321
  151MOL0     C19822   4.457   6.133   8.034 -0.7549 -0.3130  0.2172
  151MOL0     C19823   4.297   6.145   8.025 -0.2062 -1.1704  0.4869
  151MOL0     O19824   4.243   6.042   8.099  0.8118  0.9993 -0.4787
  151MOL0     C19825   4.107   6.039   8.125 -0.2079 -0.7349  0.4749
  151MOL0     C19826   4.041   5.924   8.187 -0.0371 -0.0889  0.1895
  151MOL0     C19827   3.902   5.922   8.212 -0.4747  1.0305 -0.0800
  151MOL0     C19828   3.824   6.032   8.172  0.8039 -0.3630 -1.1462
  151MOL0     C19829   3.675   6.024   8.205 -0.2690 -0.4157  0.2408
  151MOL0     O19830   3.620   5.902   8.240  0.0949  0.0381  0.3860
  151MOL0     C19831   3.508   5.918   8.312  0.0432 -0.0503  0.1552
  151MOL0     C19832   3.392   5.938   8.230  1.2645  0.1669  0.8150
  151MOL0     C19833   3.275   5.957   8.283 -0.3039 -0.0674 -0.8547
  151MOL0     C19834   3.275   5.978   8.431 -0.6353  0.0442 -0.5629
  151MOL0     O19835   3.161   6.008   8.503 -0.0106 -0.4930  0.4946
  151MOL0     C19836   3.057   5.905   8.496  1.1144  0.0283  0.1033
  151MOL0     C19837   2.990   5.886   8.630  0.4663 -0.5358 -0.4989
  151MOL0     C19838   2.902   6.004   8.677 -0.4104  0.4131 -0.2416
  151MOL0     C19839   2.852   5.958   8.822 -0.6467  0.5504  0.8205
  151MOL0     C19840   2.836   6.078   8.918 -0.1789  0.2061 -1.0217
  151MOL0     C19841   2.750   6.192   8.872 -0.6766  0.6505 -0.6090
  151MOL0     C19842   2.740   6.299   8.979 -0.0440 -0.3568  0.2524
  151MOL0     C19843   2.883   6.373   8.997  0.5674  0.1441 -0.0886
  151MOL0    Cl19844   2.843   6.523   9.088  0.3210  0.1428  0.4410
  151MOL0     C19845   3.388   5.958   8.509  0.4972 -0.3974 -0.1238
  151MOL0     C19846   3.506   5.930   8.445  0.1066 -0.0097 -0.0309
  151MOL0     O19847   3.614   6.131   8.211  0.6619 -0.1894  0.4405
  151MOL0     C19848   3.884   6.144   8.111  0.7545  0.3840  1.5577
  151MOL0     C19849   4.016   6.146   8.090 -1.4287 -0.7016  0.1997
  151MOL0     N19850   4.707   6.199   8.403 -0.2946  0.4906 -0.1545
  151MOL0     N19851   4.802   6.230   8.478  1.2100  0.2409 -0.3524
  151MOL0     C19852   6.038   5.777   8.319 -0.4854  0.8688  0.2375
  151MOL0     C19853   6.157   5.699   8.296 -1.0912  0.8748 -0.1065
  151MOL0     C19854   6.572   5.517   8.388  0.1886 -1.2684  0.6900
  151MOL0     C19855   6.603   5.400   8.451 -0.1173 -0.2693  0.1449
  151MOL0     C19856   6.737   5.360   8.438 -0.1086  0.3020  0.4237
  151MOL0     C19857   6.843   5.436   8.372 -0.0876 -0.1746 -0.0427
  151MOL0     O19858   6.972   5.383   8.373 -0.5091 -0.3748  0.3055
  151MOL0     C19859   7.049   5.393   8.252  0.1508  0.3439  0.0233
  151MOL0     C19860   7.184   5.457   8.276 -1.2234 -0.9199 -0.8233
  151MOL0     C19861   7.265   5.361   8.372 -0.5058 -0.3799  0.6237
  151MOL0     C19862   7.383   5.441   8.434 -0.3901  0.6726  0.3451
  151MOL0     C19863   7.495   5.450   8.336 -0.4451  0.4022 -0.0867
  151MOL0     C19864   7.563   5.439   8.236 -0.1603 -0.6277  0.1242
  151MOL0     C19865   6.803   5.553   8.308  0.3201 -0.4469 -0.2392
  151MOL0     C19866   6.666   5.597   8.316 -0.0718 -0.2081  0.2159
  151MOL0     H19867   6.354   5.872   8.515  3.1631 -2.2004 -3.3003
  151MOL0     H19868   6.145   5.989   8.562 -2.4923  3.1112 -1.7550
  151MOL0     H19869   5.871   6.096   8.320  1.0906  1.0018 -0.4239
  151MOL0     H19870   5.988   6.119   8.455  0.6599 -1.6171  0.8656
  151MOL0     H19871   5.786   6.224   8.514 -1.7212  0.7910 -0.9926
  151MOL0     H19872   5.753   6.070   8.589  0.1313  0.8196  0.2344
  151MOL0     H19873   5.619   6.035   8.363 -0.5019 -1.9186  1.8754
  151MOL0     H19874   5.674   6.204   8.332  1.4029 -3.0070 -1.3396
  151MOL0     H19875   5.500   6.150   8.569  1.1973  0.6459  1.6265
  151MOL0     H19876   5.550   6.301   8.513  3.1619 -0.5638  0.9224
  151MOL0     H19877   5.368   6.107   8.361  0.0029 -0.4101 -0.2385
  151MOL0     H19878   5.429   6.256   8.281 -1.2170  1.8199 -0.1280
  151MOL0     H19879   5.330   6.382   8.442  0.4456  0.0138 -1.0831
  151MOL0     H19880   5.281   6.265   8.555  3.7302  1.6567  0.1232
  151MOL0     H19881   5.116   6.371   8.341  1.1721  0.4674  0.0903
  151MOL0     H19882   5.182   6.211   8.279  2.4623  1.5384 -0.2813
  151MOL0     H19883   5.059   6.263   8.554  2.2927 -1.8261  0.4971
  151MOL0     H19884   5.066   6.104   8.466  3.9569  0.4384  0.9517
  151MOL0     H19885   4.953   6.182   8.190 -1.8089 -0.2615 -0.7846
  151MOL0     H19886   4.673   6.029   8.155 -1.4627 -0.3786  0.6268
  151MOL0     H19887   4.728   6.172   8.068  3.1201 -0.5565  1.9323
  151MOL0     H19888   4.509   6.270   8.201  0.9900  1.0220 -0.6259
  151MOL0     H19889   4.484   6.102   8.248 -1.2903 -0.5033 -1.9984
  151MOL0     H19890   4.506   6.201   7.964  1.2200 -0.1003  1.7340
  151MOL0     H19891   4.491   6.037   7.995  0.8718 -0.0909  0.9959
  151MOL0     H19892   4.273   6.160   7.919  1.9098  0.1850  0.1344
  151MOL0     H19893   4.276   6.243   8.071 -1.2294 -0.6161 -1.0693
  151MOL0     H19894   4.113   5.846   8.211  0.1242 -0.0603 -0.1771
  151MOL0     H19895   3.870   5.833   8.266 -4.9240  0.9576 -2.3057
  151MOL0     H19896   3.407   5.926   8.124  0.0943 -3.4109  0.9304
  151MOL0     H19897   3.191   5.954   8.214  0.0017 -0.4704 -1.2196
  151MOL0     H19898   3.102   5.812   8.459  0.7480  0.5335 -1.7062
  151MOL0     H19899   2.995   5.937   8.412 -0.2359 -0.4129  0.9015
  151MOL0     H19900   3.072   5.879   8.703 -1.6077  1.7221  2.2570
  151MOL0     H19901   2.939   5.789   8.636 -0.1515 -0.1534  0.7531
  151MOL0     H19902   2.809   6.009   8.620 -0.6475  1.5520  0.2124
  151MOL0     H19903   2.965   6.093   8.686  2.5753 -1.7530  4.1489
  151MOL0     H19904   2.765   5.894   8.806 -0.6681  1.0393 -1.3103
  151MOL0     H19905   2.927   5.894   8.869  0.8771 -0.8051 -3.0790
  151MOL0     H19906   2.933   6.114   8.951 -1.1068  2.6349 -0.7061
  151MOL0     H19907   2.786   6.038   9.007 -2.1567 -0.2970 -2.2733
  151MOL0     H19908   2.645   6.162   8.865 -1.2854  1.2609  3.5090
  151MOL0     H19909   2.787   6.225   8.775  3.9942 -0.6912  0.4382
  151MOL0     H19910   2.666   6.374   8.949  1.3575  1.2445  0.6089
  151MOL0     H19911   2.716   6.262   9.079  2.5696 -1.2273  0.6443
  151MOL0     H19912   2.925   6.395   8.899  0.3229  2.6286  0.3084
  151MOL0     H19913   2.958   6.309   9.046  1.9856 -0.5048 -2.9003
  151MOL0     H19914   3.379   5.958   8.617  0.1575 -3.2961 -0.0847
  151MOL0     H19915   3.594   5.911   8.506 -1.5680  0.4672  2.7024
  151MOL0     H19916   3.818   6.225   8.082  0.9860  1.2454  3.2995
  151MOL0     H19917   4.064   6.237   8.053  0.7466 -1.7489  0.3085
  151MOL0     H19918   5.955   5.752   8.254  1.8642 -1.8507 -2.0240
  151MOL0     H19919   6.165   5.609   8.236  1.6533  0.3234  0.9394
  151MOL0     H19920   6.525   5.338   8.493 -1.2555 -0.7568 -2.5178
  151MOL0     H19921   6.765   5.267   8.485  0.4189  0.8778  1.2841
  151MOL0     H19922   6.990   5.445   8.175 -2.9236 -0.0673  1.9386
  151MOL0     H19923   7.081   5.295   8.217  2.9215  0.5591  1.6916
  151MOL0     H19924   7.249   5.465   8.188  0.8593 -1.1623  0.6004
  151MOL0     H19925   7.163   5.555   8.319  0.7149 -0.7714 -0.0743
  151MOL0     H19926   7.288   5.270   8.316 -2.9014 -2.4672  2.7460
  151MOL0     H19927   7.203   5.328   8.456 -0.9600 -1.6520 -0.1828
  151MOL0     H19928   7.348   5.540   8.464 -2.0499  0.2059  0.0432
  151MOL0     H19929   7.417   5.393   8.526 -1.2885 -0.3632  0.1636
  151MOL0     H19930   7.626   5.411   8.154  1.3468 -1.1325  1.3959
  151MOL0     H19931   6.866   5.622   8.253 -1.1471 -0.3079 -1.8146
  151MOL0     H19932   6.634   5.681   8.255 -1.6006 -0.7802  0.2061
  152MOL0     O19933   6.305   0.187   4.744 -0.9094  0.0170  0.1720
  152MOL0     C19934   6.364   0.129   4.650  0.6547 -1.1078  0.0311
  152MOL0     O19935   6.313   0.121   4.522  0.5164  0.9277  0.1875
  152MOL0     C19936   6.188   0.176   4.510 -0.0117 -0.7028  0.8593
  152MOL0     C19937   6.072   0.135   4.580  0.5232  0.2227  0.4594
  152MOL0     C19938   5.945   0.184   4.552  0.6928 -0.9886  0.2239
  152MOL0     C19939   5.936   0.292   4.454  0.1262  0.3495  0.4454
  152MOL0     O19940   5.817   0.349   4.411  0.6838  0.0059  0.6160
  152MOL0     C19941   5.692   0.284   4.440  0.6249  0.5294 -0.0079
  152MOL0     C19942   5.642   0.306   4.587  0.1234 -0.0290  0.0336
  152MOL0     C19943   5.506   0.229   4.601 -0.1927 -0.9326 -0.3867
  152MOL0     C19944   5.465   0.219   4.751 -0.6036  0.0278 -0.2898
  152MOL0     C19945   5.346   0.303   4.810 -0.4558  0.3031 -0.2786
  152MOL0     C19946   5.205   0.269   4.770  0.1812  0.4539 -0.5715
  152MOL0     C19947   5.108   0.347   4.860 -0.1385  0.1735  1.0801
  152MOL0     C19948   4.970   0.322   4.832  0.5246  0.8052 -0.0764
  152MOL0     N19949   4.881   0.354   4.946 -0.7333 -0.6367 -0.2632
  152MOL0     C19950   4.819   0.476   4.973 -0.4387 -0.3180  0.6481
  152MOL0     C19951   4.753   0.464   5.086  0.3424  0.7434  0.0964
  152MOL0     C19952   4.671   0.564   5.150  0.3391 -0.9227  0.5420
  152MOL0     C19953   4.527   0.512   5.182 -0.2626  0.5817  0.7953
  152MOL0     C19954   4.446   0.493   5.050  0.7610 -0.2841 -0.4467
  152MOL0     C19955   4.296   0.497   5.092  0.7052  1.3602  0.3573
  152MOL0     O19956   4.240   0.630   5.087 -0.5345 -0.4480  0.0110
  152MOL0     C19957   4.105   0.652   5.113 -0.3660 -0.0135 -0.8095
  152MOL0     C19958   4.022   0.565   5.190 -0.6918  0.5011 -0.3237
  152MOL0     C19959   3.897   0.592   5.226 -0.2000 -0.0199  0.3798
  152MOL0     C19960   3.839   0.709   5.180 -0.2358 -0.7467  0.7303
  152MOL0     C19961   3.708   0.771   5.231  0.4490 -0.3432  1.3183
  152MOL0     O19962   3.636   0.852   5.143  0.1706  0.2810 -0.1339
  152MOL0     C19963   3.508   0.894   5.184 -0.3880  0.1254 -0.0963
  152MOL0     C19964   3.414   0.841   5.268 -0.4657 -0.3564 -0.5543
  152MOL0     C19965   3.292   0.903   5.281  0.1372 -0.0323 -0.5668
  152MOL0     C19966   3.259   1.030   5.223  0.0466 -0.2796  0.3139
  152MOL0     O19967   3.134   1.092   5.238 -0.1000  0.2028  0.0885
  152MOL0     C19968   3.091   1.109   5.370  0.0956 -0.4597  0.1958
  152MOL0     C19969   2.957   1.193   5.377 -0.1192  0.3825 -0.6510
  152MOL0     C19970   2.839   1.112   5.317  0.3181 -0.3995  0.4970
  152MOL0     C19971   2.725   1.214   5.287  0.2479  0.0709 -0.0091
  152MOL0     C19972   2.597   1.135   5.261 -0.0612 -0.1544  0.7598
  152MOL0     C19973   2.501   1.201   5.166  0.5570  0.0720 -0.5835
  152MOL0     C19974   2.390   1.104   5.134  0.0788 -0.3856 -0.3438
  152MOL0     C19975   2.290   1.177   5.041  0.1815 -0.3114  0.7732
  152MOL0    Cl19976   2.158   1.077   5.004 -0.2110  0.0417 -0.2086
  152MOL0     C19977   3.361   1.078   5.138  0.2087  0.3175  0.1903
  152MOL0     C19978   3.483   1.016   5.123  0.6931 -0.0763  0.9324
  152MOL0     O19979   3.676   0.747   5.343 -0.2284 -0.0536 -0.6259
  152MOL0     C19980   3.920   0.799   5.104 -0.3808  0.5762 -0.4175
  152MOL0     C19981   4.049   0.772   5.080 -0.3247  0.1720 -0.0427
  152MOL0     N19982   4.778   0.333   5.133 -0.0764 -0.5563 -0.1640
  152MOL0     N19983   4.860   0.272   5.051  0.4876 -0.5040 -0.2225
  152MOL0     C19984   6.049   0.334   4.394  0.6269  0.6270 -0.3282
  152MOL0     C19985   6.173   0.284   4.424 -0.1199  0.9210  1.0439
  152MOL0     C19986   6.505   0.082   4.671 -0.7933  0.4569  0.2496
  152MOL0     C19987   6.544   0.054   4.802  0.5412 -1.0186 -0.3467
  152MOL0     C19988   6.679   0.027   4.828  0.3676  0.4610  0.2042
  152MOL0     C19989   6.771   0.023   4.722  0.8477 -0.2718  0.3493
  152MOL0     O19990   6.903   0.018   4.757  0.4123 -1.2301 -0.5827
  152MOL0     C19991   6.998  -0.011   4.651  0.1841 -0.3627  0.2942
  152MOL0     C19992   7.123  -0.038   4.730  0.0317 -0.1047  0.6499
  152MOL0     C19993   7.113  -0.164   4.816 -0.2675  0.1432  0.0631
  152MOL0     C19994   7.217  -0.170   4.931 -0.3182  0.2186  0.6261
  152MOL0     C19995   7.342  -0.205   4.861  0.6729  1.5210  0.4058
  152MOL0     C19996   7.450  -0.229   4.807 -0.6078 -0.0220  0.0902
  152MOL0     C19997   6.727   0.021   4.588  0.6134  0.2907 -0.1470
  152MOL0     C19998   6.593   0.061   4.570  1.0350 -0.4792 -0.6139
  152MOL0     H19999   6.077   0.053   4.651 -1.0782  0.4540  0.8823
  152MOL0     H20000   5.857   0.145   4.602  1.1503  0.4622  2.2507
  152MOL0     H20001   5.695   0.177   4.418 -0.9227  0.4104  0.2321
  152MOL0     H20002   5.625   0.320   4.362 -1.5591  0.7575  1.8585
  152MOL0     H20003   5.623   0.412   4.601 -3.0620 -0.3181 -1.2594
  152MOL0     H20004   5.715   0.275   4.662 -2.0190 -0.9117  1.8592
  152MOL0     H20005   5.509   0.128   4.559  0.2247 -0.1202 -2.4274
  152MOL0     H20006   5.442   0.277   4.527  1.0425  1.5850  0.0967
  152MOL0     H20007   5.429   0.117   4.767 -1.1472  0.5376  2.1734
  152MOL0     H20008   5.552   0.234   4.816  0.4869  1.5024 -1.9908
  152MOL0     H20009   5.373   0.406   4.786  1.0217  0.3306  1.3029
  152MOL0     H20010   5.350   0.283   4.917  2.8286 -0.8414 -0.4923
  152MOL0     H20011   5.191   0.161   4.768  1.8341  0.2187 -0.7312
  152MOL0     H20012   5.196   0.306   4.667 -0.3689  0.2047 -0.6182
  152MOL0     H20013   5.136   0.314   4.961 -0.6617  1.0872  1.5323
  152MOL0     H20014   5.132   0.453   4.856  0.7382 -0.0247 -2.4247
  152MOL0     H20015   4.964   0.214   4.818 -2.6567  0.9579 -0.6823
  152MOL0     H20016   4.928   0.383   4.752  1.9179  0.8856 -0.7755
  152MOL0     H20017   4.816   0.573   4.925  1.4061  0.5231  2.0629
  152MOL0     H20018   4.658   0.655   5.092 -3.0518  0.1439  2.6486
  152MOL0     H20019   4.712   0.594   5.247  0.7380 -0.4449  0.2319
  152MOL0     H20020   4.478   0.578   5.254 -0.5920 -1.1474  2.2499
  152MOL0     H20021   4.536   0.414   5.231 -1.8304 -0.8056 -1.4879
  152MOL0     H20022   4.449   0.577   4.980  0.7280  0.0139 -0.0909
  152MOL0     H20023   4.474   0.400   4.999  1.0094 -1.5338  1.8249
  152MOL0     H20024   4.292   0.464   5.197 -0.0045  3.7411  1.1537
  152MOL0     H20025   4.241   0.421   5.036 -0.4516  1.6164  1.0907
  152MOL0     H20026   4.068   0.480   5.240 -1.1982  1.3830  1.7358
  152MOL0     H20027   3.836   0.532   5.292 -0.8863  1.7777  1.4750
  152MOL0     H20028   3.434   0.752   5.327 -0.0923  1.2302  1.8533
  152MOL0     H20029   3.213   0.850   5.333 -0.7051  0.0184 -1.7688
  152MOL0     H20030   3.172   1.155   5.428  0.5903 -1.2048  0.1046
  152MOL0     H20031   3.065   1.010   5.408 -0.0250 -1.3783 -2.1020
  152MOL0     H20032   2.965   1.291   5.327 -1.3861  2.2011  2.4340
  152MOL0     H20033   2.926   1.224   5.477  0.1730 -0.8028 -0.1806
  152MOL0     H20034   2.807   1.042   5.394  1.6463 -1.3693  0.1996
  152MOL0     H20035   2.871   1.064   5.224  1.2407 -1.2289  1.2175
  152MOL0     H20036   2.703   1.279   5.373  0.3381  0.7262 -0.4788
  152MOL0     H20037   2.756   1.279   5.205  0.2751  0.8587  0.6124
  152MOL0     H20038   2.541   1.112   5.351 -4.9861  0.1297 -1.9122
  152MOL0     H20039   2.618   1.045   5.202  0.9084  1.4996 -1.6120
  152MOL0     H20040   2.546   1.232   5.072 -1.6254 -0.4889 -1.8719
  152MOL0     H20041   2.461   1.287   5.221 -0.6993 -1.8851  1.7634
  152MOL0     H20042   2.438   1.016   5.089 -0.2360 -2.3517  2.8273
  152MOL0     H20043   2.340   1.070   5.226  1.4005 -0.2619  0.4380
  152MOL0     H20044   2.342   1.208   4.950  3.4814 -2.0436  1.9057
  152MOL0     H20045   2.262   1.263   5.103 -1.9366 -0.2297 -0.2202
  152MOL0     H20046   3.349   1.175   5.091  1.2044 -0.2213 -1.2329
  152MOL0     H20047   3.562   1.064   5.066 -0.4882 -0.3944 -1.0737
  152MOL0     H20048   3.864   0.879   5.056 -0.6560  0.6451  0.0164
  152MOL0     H20049   4.106   0.855   5.040 -0.4963  1.0227  1.4208
  152MOL0     H20050   6.040   0.409   4.316  0.4012  1.3146  0.3492
  152MOL0     H20051   6.257   0.319   4.364 -0.5270 -1.3486 -0.9829
  152MOL0     H20052   6.468   0.072   4.877 -1.0395  1.1306 -2.3042
  152MOL0     H20053   6.709   0.012   4.931 -2.2871 -1.0234  0.8648
  152MOL0     H20054   7.011   0.068   4.577 -2.2761 -0.7280 -0.6428
  152MOL0     H20055   6.967  -0.106   4.606  0.6210 -1.2612  1.8041
  152MOL0     H20056   7.216  -0.043   4.674 -0.0543 -0.7780  0.5498
  152MOL0     H20057   7.134   0.047   4.798  2.3230 -1.1955  1.7373
  152MOL0     H20058   7.120  -0.259   4.764  2.9699 -0.4771  1.3832
  152MOL0     H20059   7.015  -0.175   4.863  0.1009 -2.2665  0.3651
  152MOL0     H20060   7.235  -0.076   4.985  1.6493 -0.6074  1.5049
  152MOL0     H20061   7.181  -0.245   5.002  0.6423 -0.4673  0.4111
  152MOL0     H20062   7.552  -0.249   4.780  0.4071  0.8795  2.9145
  152MOL0     H20063   6.792   0.022   4.501 -0.2663 -0.1395 -0.8240
  152MOL0     H20064   6.561   0.058   4.466  1.9094 -2.0786 -0.8750
  153MOL0     O20065   8.726   8.569  10.231 -0.2796  0.1459 -0.3108
  153MOL0     C20066   8.679   8.461  10.259 -0.4167  0.8869 -0.6852
  153MOL0     O20067   8.551   8.432  10.268 -0.5971  0.1146  0.4050
  153MOL0     C20068   8.460   8.533  10.254  0.8702  0.0685  0.2929
  153MOL0     C20069   8.361   8.553  10.356  0.1294 -0.5340  0.0567
  153MOL0     C20070   8.265   8.650  10.347  0.2517 -0.0268  0.4982
  153MOL0     C20071   8.255   8.723  10.230 -0.3848  0.0299  0.6444
  153MOL0     O20072   8.170   8.825  10.200  0.5264 -0.5908 -0.7250
  153MOL0     C20073   8.080   8.871  10.296 -0.1677  0.3023 -1.2467
  153MOL0     C20074   7.998   8.980  10.232  0.0467  0.2014  0.4268
  153MOL0     C20075   7.882   9.023  10.323  0.0312  0.7874  0.2130
  153MOL0     C20076   7.795   9.127  10.243 -0.2090  0.3435  0.0123
  153MOL0     C20077   7.681   9.166  10.324 -1.2782  0.2505 -0.4207
  153MOL0     C20078   7.606   9.286  10.263  0.3238  1.3034 -0.3720
  153MOL0     C20079   7.499   9.353  10.363  0.5044  0.4450  0.0505
  153MOL0     C20080   7.368   9.267  10.384  0.1571  1.0570  0.3950
  153MOL0     N20081   7.285   9.342  10.477 -0.2863  0.2389  0.2873
  153MOL0     C20082   7.172   9.407  10.426  0.0240  0.0327 -0.1174
  153MOL0     C20083   7.145   9.500  10.515 -0.0991 -0.3076  1.0081
  153MOL0     C20084   7.040   9.609  10.505  0.5891  0.5615  0.2120
  153MOL0     C20085   6.898   9.555  10.524 -0.2945 -0.1198 -0.6161
  153MOL0     C20086   6.796   9.655  10.550 -0.2261  0.0844 -0.1668
  153MOL0     C20087   6.778   9.698  10.697  0.6756 -0.4934  1.0790
  153MOL0     O20088   6.724   9.594  10.781  0.0375  0.3848 -0.0770
  153MOL0     C20089   6.748   9.613  10.911  0.2305 -0.4352 -0.0391
  153MOL0     C20090   6.758   9.735  10.983  0.0501 -0.1311  0.4029
  153MOL0     C20091   6.774   9.739  11.120 -0.1167  0.3590 -0.7347
  153MOL0     C20092   6.765   9.622  11.204 -0.3848 -0.2993 -0.2381
  153MOL0     C20093   6.790   9.627  11.350 -0.2010  0.0170  0.1100
  153MOL0     O20094   6.794   9.508  11.415  0.2206  0.0007  0.2688
  153MOL0     C20095   6.860   9.486  11.536 -0.0572 -0.5592 -0.8048
  153MOL0     C20096   6.996   9.525  11.577 -0.2051 -0.4917  0.4619
  153MOL0     C20097   7.051   9.481  11.693  0.8046  0.9488 -0.2518
  153MOL0     C20098   6.977   9.389  11.774  0.9068 -0.6130 -0.0303
  153MOL0     O20099   7.043   9.341  11.883 -0.6477  0.4279  0.4677
  153MOL0     C20100   6.978   9.317  12.007 -0.0333 -0.2206  0.1547
  153MOL0     C20101   7.079   9.266  12.116  0.3732  0.2340  0.1213
  153MOL0     C20102   7.179   9.370  12.147  0.1712 -1.0988  1.0842
  153MOL0     C20103   7.267   9.311  12.253  0.1827  0.5814  0.1896
  153MOL0     C20104   7.370   9.408  12.322  0.0263  0.6290 -0.4101
  153MOL0     C20105   7.311   9.516  12.412 -0.6630  0.3456  0.6516
  153MOL0     C20106   7.405   9.576  12.509  1.0703 -0.2377 -0.5378
  153MOL0     C20107   7.455   9.510  12.638 -0.4385 -0.7439 -0.0528
  153MOL0    Cl20108   7.546   9.640  12.733  0.6088  0.7059  0.3530
  153MOL0     C20109   6.848   9.352  11.736  0.4422  0.3530 -0.2958
  153MOL0     C20110   6.795   9.398  11.611  0.8993 -0.8179 -0.2083
  153MOL0     O20111   6.821   9.735  11.399  0.4118  0.2000 -1.1804
  153MOL0     C20112   6.751   9.501  11.133  0.5612 -0.0777 -0.5056
  153MOL0     C20113   6.752   9.490  10.996  0.1848  0.4894  0.4662
  153MOL0     N20114   7.235   9.487  10.621  0.8444 -0.5064  0.5851
  153MOL0     N20115   7.313   9.385  10.603  0.0064 -0.1342 -0.3499
  153MOL0     C20116   8.350   8.693  10.127  0.2534 -0.7307 -0.4040
  153MOL0     C20117   8.446   8.594  10.135  0.2014  0.2154  0.3812
  153MOL0     C20118   8.762   8.361  10.318 -0.4876 -0.6209 -0.7149
  153MOL0     C20119   8.703   8.236  10.364  0.2987 -0.4250 -0.8426
  153MOL0     C20120   8.780   8.142  10.428 -0.4883  0.3823 -0.6503
  153MOL0     C20121   8.915   8.155  10.426 -0.1554 -0.7953  0.4274
  153MOL0     O20122   9.014   8.061  10.461 -0.5181 -0.5021 -0.1594
  153MOL0     C20123   8.981   7.919  10.415 -0.4364  0.7867 -0.5568
  153MOL0     C20124   9.058   7.808  10.495  0.7959 -0.2555  0.2851
  153MOL0     C20125   9.208   7.812  10.490  0.9106  0.6486 -0.4051
  153MOL0     C20126   9.257   7.874  10.618 -0.0477  0.1480 -0.8643
  153MOL0     C20127   9.398   7.909  10.623 -0.0012  0.1501 -0.0159
  153MOL0     C20128   9.516   7.947  10.631  0.5706 -0.8183 -0.2229
  153MOL0     C20129   8.978   8.278  10.390 -0.7216 -0.1968  0.6330
  153MOL0     C20130   8.903   8.382  10.336  0.2183 -0.7646  1.5814
  153MOL0     H20131   8.365   8.493  10.446 -0.1330  1.2266  1.3068
  153MOL0     H20132   8.195   8.672  10.428  2.0432  0.3141  2.0095
  153MOL0     H20133   8.132   8.904  10.386  2.1740  3.7318 -3.6112
  153MOL0     H20134   8.011   8.791  10.327 -0.1155 -0.0509 -2.0127
  153MOL0     H20135   7.952   8.938  10.142  3.0397  0.3250 -1.3006
  153MOL0     H20136   8.055   9.068  10.203  1.4967  0.6034  4.0318
  153MOL0     H20137   7.914   9.075  10.414  0.6818 -2.2344  1.8499
  153MOL0     H20138   7.817   8.939  10.346  0.8532  0.8692  3.2325
  153MOL0     H20139   7.857   9.213  10.215  1.7420 -1.1088 -0.3823
  153MOL0     H20140   7.772   9.088  10.143  1.5316  1.7685 -1.0032
  153MOL0     H20141   7.728   9.199  10.418  0.1431  1.5289 -1.5269
  153MOL0     H20142   7.613   9.082  10.343  0.3288 -0.9815  0.0854
  153MOL0     H20143   7.568   9.260  10.163  1.0771 -0.0350 -0.3351
  153MOL0     H20144   7.678   9.365  10.241  0.8685  1.3964  1.5683
  153MOL0     H20145   7.546   9.380  10.458 -1.2913 -2.3637  1.9013
  153MOL0     H20146   7.471   9.449  10.317 -0.2407  0.1185 -0.1974
  153MOL0     H20147   7.394   9.168  10.420 -1.7693  0.5939  0.6378
  153MOL0     H20148   7.331   9.246  10.283  2.6997  0.4425 -0.4669
  153MOL0     H20149   7.123   9.381  10.332 -2.7361  1.4014  0.8349
  153MOL0     H20150   7.044   9.657  10.406 -0.0200 -1.0038 -0.5951
  153MOL0     H20151   7.056   9.692  10.574 -1.5641  0.9832  0.3011
  153MOL0     H20152   6.878   9.486  10.607 -0.3964  0.4845 -0.1340
  153MOL0     H20153   6.883   9.499  10.431  1.1905  0.1754 -1.0477
  153MOL0     H20154   6.810   9.738  10.480  1.3558 -1.2164 -1.4631
  153MOL0     H20155   6.704   9.603  10.522 -0.1764  0.2480 -0.6453
  153MOL0     H20156   6.725   9.794  10.703  1.6477  0.1827 -0.4168
  153MOL0     H20157   6.875   9.720  10.743  1.1161 -0.7866  0.3072
  153MOL0     H20158   6.749   9.830  10.933  1.1230 -0.9007 -1.3673
  153MOL0     H20159   6.785   9.840  11.156  0.5964  1.4411 -3.6815
  153MOL0     H20160   7.047   9.592  11.508  0.7586 -1.6506  0.0182
  153MOL0     H20161   7.150   9.514  11.720  1.9029 -1.8847 -0.5299
  153MOL0     H20162   6.904   9.239  11.989 -0.5063  0.0524  0.8882
  153MOL0     H20163   6.934   9.408  12.048 -1.4880 -0.6279 -0.4730
  153MOL0     H20164   7.127   9.179  12.070 -0.5890 -0.5019  0.4732
  153MOL0     H20165   7.038   9.239  12.214  1.5222  0.0986  0.5700
  153MOL0     H20166   7.137   9.464  12.186  0.1126  0.2150 -1.9209
  153MOL0     H20167   7.237   9.391  12.057  2.4738 -1.9717  2.3026
  153MOL0     H20168   7.216   9.268  12.339  2.5266 -1.2049  0.7847
  153MOL0     H20169   7.334   9.242  12.200  0.6811  2.0508 -1.2032
  153MOL0     H20170   7.436   9.454  12.248 -0.6122  1.6782 -0.3349
  153MOL0     H20171   7.430   9.333  12.376  0.1608 -1.6520 -3.4745
  153MOL0     H20172   7.237   9.462  12.471 -0.2626  1.3576  2.1191
  153MOL0     H20173   7.269   9.592  12.345 -0.5087 -0.5457 -0.5081
  153MOL0     H20174   7.501   9.606  12.464  1.9954 -0.2367  1.3312
  153MOL0     H20175   7.355   9.665  12.550  1.1963  0.0878 -1.0758
  153MOL0     H20176   7.514   9.422  12.610 -0.6689 -0.8009 -0.3684
  153MOL0     H20177   7.369   9.480  12.699 -0.6902  0.2989  0.1291
  153MOL0     H20178   6.798   9.287  11.807  0.2101  0.6966 -0.1466
  153MOL0     H20179   6.694   9.371  11.580  0.7372 -2.2397  1.3825
  153MOL0     H20180   6.745   9.411  11.193  0.1018  0.6886  0.6320
  153MOL0     H20181   6.734   9.398  10.941  1.2854 -0.5015  1.7050
  153MOL0     H20182   8.341   8.755  10.038  0.8249  3.6276  2.2699
  153MOL0     H20183   8.522   8.576  10.059 -0.5174 -1.5716  0.0365
  153MOL0     H20184   8.597   8.216  10.357 -0.4397  2.7016 -0.1366
  153MOL0     H20185   8.713   8.063  10.460 -1.1634  0.9702 -0.5901
  153MOL0     H20186   8.988   7.904  10.307 -0.0528 -0.5200 -0.3717
  153MOL0     H20187   8.875   7.898  10.432 -0.3010 -0.1804 -0.8756
  153MOL0     H20188   9.028   7.788  10.598  1.3889 -1.8614  0.1702
  153MOL0     H20189   9.036   7.716  10.441  2.6646 -0.8121  0.4052
  153MOL0     H20190   9.231   7.865  10.397  1.1703  0.9511 -0.1716
  153MOL0     H20191   9.250   7.711  10.490  0.0399  0.2708  0.1545
  153MOL0     H20192   9.196   7.958  10.652  0.1899  0.0198 -0.1030
  153MOL0     H20193   9.245   7.807  10.703 -0.9716  1.3211 -0.0257
  153MOL0     H20194   9.615   7.986  10.620 -0.5785  1.7869 -2.6616
  153MOL0     H20195   9.086   8.284  10.385 -0.7745  0.1760 -0.5207
  153MOL0     H20196   8.968   8.466  10.314 -0.6762 -0.7105 -1.2573
  154MOL0     O20197   2.019   3.094   4.303 -0.1031  0.1749 -0.4505
  154MOL0     C20198   2.085   3.192   4.350  0.4366  0.8307  0.4135
  154MOL0     O20199   2.041   3.277   4.444  0.2124  0.6364 -0.5240
  154MOL0     C20200   1.925   3.256   4.510  0.4321 -0.2383  0.3269
  154MOL0     C20201   1.935   3.242   4.646 -1.0119  0.1351  0.1417
  154MOL0     C20202   1.817   3.235   4.729  0.3086 -0.4077  0.6346
  154MOL0     C20203   1.692   3.243   4.666 -0.1422 -0.2762 -0.8781
  154MOL0     O20204   1.573   3.231   4.731 -0.8881 -1.3390  0.1772
  154MOL0     C20205   1.573   3.210   4.877  0.3410 -0.5946 -0.0426
  154MOL0     C20206   1.432   3.227   4.926  0.6466  0.0169 -0.7199
  154MOL0     C20207   1.421   3.232   5.080  0.6207 -0.2957  0.6008
  154MOL0     C20208   1.286   3.263   5.124 -0.0556  0.4165 -0.2039
  154MOL0     C20209   1.287   3.335   5.262  0.4314 -0.4093 -0.3313
  154MOL0     C20210   1.318   3.231   5.368 -0.7068 -0.5291  0.1908
  154MOL0     C20211   1.310   3.309   5.499 -0.1627  0.0868 -0.5599
  154MOL0     C20212   1.335   3.213   5.613 -0.2808  0.1648  0.6525
  154MOL0     N20213   1.230   3.110   5.627 -0.5635  0.1309 -0.7094
  154MOL0     C20214   1.107   3.141   5.646  0.4603 -0.3252  0.2508
  154MOL0     C20215   1.039   3.026   5.651  0.1497  0.2331  0.0483
  154MOL0     C20216   0.893   3.003   5.693 -0.5526  0.8222 -0.1352
  154MOL0     C20217   0.799   2.967   5.574  0.1207  1.1497 -0.0523
  154MOL0     C20218   0.654   2.981   5.625 -0.1907  0.5100 -0.6037
  154MOL0     C20219   0.545   2.935   5.523  0.1284 -0.3472 -0.1848
  154MOL0     O20220   0.422   2.939   5.593  0.4532 -0.4687 -0.1843
  154MOL0     C20221   0.365   2.830   5.635  0.3259 -0.2761  0.0751
  154MOL0     C20222   0.413   2.698   5.651  0.0542 -0.8610 -0.0771
  154MOL0     C20223   0.331   2.595   5.695 -0.3746 -0.5791 -0.6740
  154MOL0     C20224   0.193   2.621   5.736 -0.0367 -0.4606  0.4161
  154MOL0     C20225   0.105   2.521   5.796 -0.3880 -0.1023 -0.6924
  154MOL0     O20226  -0.026   2.559   5.833  0.2110  0.5206 -0.3798
  154MOL0     C20227  -0.101   2.458   5.903  0.4493 -0.4564 -0.7020
  154MOL0     C20228  -0.035   2.391   6.013 -0.2957  0.0090  0.4171
  154MOL0     C20229  -0.110   2.288   6.069  0.3517  0.0097  1.0600
  154MOL0     C20230  -0.246   2.280   6.051 -0.0769  0.2031  0.6698
  154MOL0     O20231  -0.311   2.193   6.136 -0.2897 -1.0913 -0.5205
  154MOL0     C20232  -0.447   2.142   6.108  0.1285 -0.3838 -0.2689
  154MOL0     C20233  -0.495   2.059   6.226 -0.0858  0.4505 -0.0733
  154MOL0     C20234  -0.651   2.052   6.207  0.1098 -0.0531  0.6238
  154MOL0     C20235  -0.720   1.954   6.304 -0.3008  0.8106 -0.3752
  154MOL0     C20236  -0.668   1.812   6.324 -0.4208  0.6046  0.5290
  154MOL0     C20237  -0.672   1.722   6.206 -0.0298  0.7632  0.2355
  154MOL0     C20238  -0.797   1.632   6.207 -0.5508 -0.2340  0.6060
  154MOL0     C20239  -0.922   1.709   6.164 -0.1338 -0.3860 -0.4228
  154MOL0    Cl20240  -1.052   1.597   6.109  0.0720  0.5560  0.2660
  154MOL0     C20241  -0.311   2.357   5.954  0.2754 -0.3810 -0.6382
  154MOL0     C20242  -0.238   2.429   5.867  0.1634 -0.4491 -0.2389
  154MOL0     O20243   0.145   2.408   5.784  0.5259 -0.9180  0.5906
  154MOL0     C20244   0.148   2.758   5.720 -0.1174 -0.3798 -0.1797
  154MOL0     C20245   0.234   2.860   5.672  0.2857 -1.1621  0.7347
  154MOL0     N20246   1.129   2.921   5.639 -0.5719  0.4752 -0.4910
  154MOL0     N20247   1.249   2.974   5.607  0.1452  0.8796  0.0025
  154MOL0     C20248   1.683   3.254   4.529  0.4718 -0.2084 -0.4326
  154MOL0     C20249   1.796   3.258   4.447 -1.2998  0.0281  0.7574
  154MOL0     C20250   2.216   3.220   4.294 -0.0739  0.0672  0.0703
  154MOL0     C20251   2.271   3.117   4.208  0.3410 -0.9868 -0.4911
  154MOL0     C20252   2.399   3.132   4.159  0.1371  0.5299  1.0050
  154MOL0     C20253   2.469   3.255   4.186  0.9618 -0.1898 -0.3173
  154MOL0     O20254   2.587   3.269   4.114 -0.1076  1.1490 -0.3566
  154MOL0     C20255   2.651   3.386   4.088  0.6689 -0.3644 -0.6222
  154MOL0     C20256   2.737   3.444   4.203 -0.4187 -0.4290  0.6183
  154MOL0     C20257   2.857   3.356   4.247 -0.2323  0.1618 -0.7137
  154MOL0     C20258   2.974   3.336   4.147  0.0760 -0.1255 -0.3563
  154MOL0     C20259   3.032   3.457   4.092 -0.3142  0.9106  0.8395
  154MOL0     C20260   3.096   3.555   4.053  0.7452 -0.1187  0.9755
  154MOL0     C20261   2.410   3.356   4.257 -0.0433  0.5694  0.3509
  154MOL0     C20262   2.286   3.340   4.324 -1.1370  0.6376  0.6308
  154MOL0     H20263   2.030   3.265   4.692 -2.4550  2.3342  2.2663
  154MOL0     H20264   1.824   3.229   4.837  3.4337 -1.0517  0.5010
  154MOL0     H20265   1.643   3.270   4.936  0.2471  1.1351 -1.5993
  154MOL0     H20266   1.605   3.106   4.886 -0.2232 -0.8535 -0.9158
  154MOL0     H20267   1.365   3.143   4.904  0.2533 -0.2899  1.4152
  154MOL0     H20268   1.387   3.321   4.893  1.1403  0.7182  0.5438
  154MOL0     H20269   1.488   3.307   5.123 -0.2081  0.6850  0.2198
  154MOL0     H20270   1.456   3.135   5.117  3.9983 -1.3801 -4.4090
  154MOL0     H20271   1.237   3.331   5.054 -1.5450  1.7955  2.0295
  154MOL0     H20272   1.233   3.168   5.129  2.9546 -1.5145 -2.0840
  154MOL0     H20273   1.192   3.386   5.277  1.5617  1.7894 -0.2121
  154MOL0     H20274   1.360   3.417   5.259 -1.4123  1.2896 -1.2392
  154MOL0     H20275   1.424   3.206   5.354 -0.6421 -0.0876 -0.1126
  154MOL0     H20276   1.246   3.150   5.355 -1.8745  0.4688  0.2669
  154MOL0     H20277   1.382   3.391   5.503  0.4674 -0.3438 -2.2057
  154MOL0     H20278   1.207   3.346   5.507  0.4423  1.6149  0.5050
  154MOL0     H20279   1.348   3.276   5.702  1.5585  1.2109 -0.2933
  154MOL0     H20280   1.428   3.158   5.596 -0.7735 -0.7136  0.7081
  154MOL0     H20281   1.073   3.244   5.656 -0.8352 -0.7190  0.0869
  154MOL0     H20282   0.857   3.090   5.749  2.6657  1.7740  0.6746
  154MOL0     H20283   0.889   2.920   5.763 -2.0655  2.4537  1.8438
  154MOL0     H20284   0.813   2.864   5.541 -3.5502 -0.2028  2.0771
  154MOL0     H20285   0.813   3.027   5.483 -2.5352  0.8789 -0.7427
  154MOL0     H20286   0.642   2.915   5.711 -0.1491  0.3381 -0.7302
  154MOL0     H20287   0.625   3.081   5.660 -2.2167  0.1585 -1.1786
  154MOL0     H20288   0.557   2.834   5.483 -1.4670 -0.2512 -0.9965
  154MOL0     H20289   0.540   2.996   5.432  0.9861 -0.9151 -0.6267
  154MOL0     H20290   0.519   2.684   5.632  0.7757  0.4116  2.5386
  154MOL0     H20291   0.374   2.497   5.715  1.4962 -0.2316 -2.6752
  154MOL0     H20292   0.068   2.410   6.041 -0.8968  0.2352  2.6399
  154MOL0     H20293  -0.068   2.224   6.145  0.7135  1.0147  1.7220
  154MOL0     H20294  -0.447   2.069   6.026  2.5074  1.3010 -1.8996
  154MOL0     H20295  -0.522   2.222   6.102  0.3248 -0.1766  0.0231
  154MOL0     H20296  -0.458   2.099   6.320  3.8680 -3.6289  0.4171
  154MOL0     H20297  -0.450   1.960   6.217  0.1535  0.5339  0.2216
  154MOL0     H20298  -0.679   2.017   6.108 -0.1426 -2.0134  1.3381
  154MOL0     H20299  -0.697   2.148   6.231  3.2581  2.4126 -2.1767
  154MOL0     H20300  -0.725   1.999   6.404  1.2624  0.5915 -0.1716
  154MOL0     H20301  -0.825   1.958   6.272 -0.0966  0.4378 -1.1125
  154MOL0     H20302  -0.703   1.771   6.419  0.7775 -0.2324  0.6293
  154MOL0     H20303  -0.562   1.827   6.343 -0.1738  0.0507 -0.3476
  154MOL0     H20304  -0.575   1.671   6.207 -0.9000 -0.9860  2.1619
  154MOL0     H20305  -0.671   1.789   6.119 -3.7919  0.0277 -0.5488
  154MOL0     H20306  -0.784   1.543   6.144 -3.9123 -1.2137  1.0682
  154MOL0     H20307  -0.822   1.599   6.308  0.1104 -0.7477  0.6072
  154MOL0     H20308  -0.898   1.782   6.086  0.0441  0.0681  0.0478
  154MOL0     H20309  -0.955   1.767   6.251  0.5128 -0.1238 -0.3413
  154MOL0     H20310  -0.419   2.348   5.958  0.1324 -0.5022 -3.3798
  154MOL0     H20311  -0.289   2.464   5.778  0.8113  0.1218 -0.3949
  154MOL0     H20312   0.053   2.786   5.764 -0.1703 -2.8606  1.4462
  154MOL0     H20313   0.193   2.960   5.678 -2.7429 -2.1581 -1.1170
  154MOL0     H20314   1.584   3.247   4.485  1.0720 -4.2075 -1.5705
  154MOL0     H20315   1.794   3.272   4.339  0.1194  3.4919  1.0227
  154MOL0     H20316   2.224   3.021   4.195  0.1408 -0.6308 -2.8333
  154MOL0     H20317   2.442   3.054   4.096  0.5287  2.3172 -1.0530
  154MOL0     H20318   2.570   3.454   4.060  0.9418  0.6802  0.9946
  154MOL0     H20319   2.714   3.369   4.001 -2.3675 -1.2721 -2.8377
  154MOL0     H20320   2.772   3.532   4.147  1.3393 -1.2325  0.3943
  154MOL0     H20321   2.672   3.486   4.280 -0.0799  1.6198 -0.1325
  154MOL0     H20322   2.815   3.258   4.273 -1.8684  0.8291 -0.6719
  154MOL0     H20323   2.896   3.397   4.341 -0.2825  0.0411 -0.6395
  154MOL0     H20324   3.049   3.282   4.206 -0.1420 -1.7832 -1.5197
  154MOL0     H20325   2.944   3.276   4.060  2.3468  1.2052 -2.1789
  154MOL0     H20326   3.159   3.636   4.020  0.0920 -0.7050 -2.0043
  154MOL0     H20327   2.455   3.454   4.261  1.1229  0.0999 -0.6696
  154MOL0     H20328   2.258   3.431   4.377  1.7421  1.5837  0.7199
  155MOL0     O20329   8.347   3.227   0.228 -0.6645 -0.2138 -0.6122
  155MOL0     C20330   8.417   3.205   0.131  0.6747 -0.5273 -0.2979
  155MOL0     O20331   8.377   3.218  -0.003  0.6271 -0.3571 -0.5985
  155MOL0     C20332   8.237   3.223  -0.014 -0.0250 -0.3452 -1.1676
  155MOL0     C20333   8.172   3.109  -0.058  0.6542  0.3539  0.6154
  155MOL0     C20334   8.024   3.110  -0.063  0.9110  0.4933 -0.2430
  155MOL0     C20335   7.952   3.227  -0.029  1.0920 -0.2737 -0.6853
  155MOL0     O20336   7.816   3.238  -0.016 -0.1238  0.6751  0.2505
  155MOL0     C20337   7.750   3.311  -0.124 -1.3314  0.7700 -0.2767
  155MOL0     C20338   7.608   3.320  -0.098  0.4619  0.1959 -0.3543
  155MOL0     C20339   7.527   3.383  -0.206 -0.4199  0.3525  0.3136
  155MOL0     C20340   7.570   3.525  -0.243  0.0115  0.5065 -0.2213
  155MOL0     C20341   7.477   3.572  -0.351 -0.2099  0.2800  0.1486
  155MOL0     C20342   7.425   3.712  -0.344 -0.0980 -0.3958 -0.0666
  155MOL0     C20343   7.326   3.756  -0.463  1.2394 -0.0259  0.4708
  155MOL0     C20344   7.187   3.720  -0.453 -0.7000  0.2105 -0.4697
  155MOL0     N20345   7.108   3.761  -0.575  0.6690 -0.1458 -0.8740
  155MOL0     C20346   7.136   3.739  -0.708  0.3749 -0.1984  0.4218
  155MOL0     C20347   7.021   3.803  -0.762 -0.1163 -0.7410  0.6150
  155MOL0     C20348   6.993   3.814  -0.911  0.1284 -0.3026  0.3792
  155MOL0     C20349   6.920   3.698  -0.976 -0.4007 -0.1501  0.6664
  155MOL0     C20350   6.780   3.657  -0.923 -0.0311 -0.5792  0.8129
  155MOL0     C20351   6.686   3.771  -0.932  0.3611  2.1384 -0.4399
  155MOL0     O20352   6.553   3.707  -0.940 -0.2021  0.4517  0.2931
  155MOL0     C20353   6.449   3.796  -0.979 -0.4910  0.5739  0.5401
  155MOL0     C20354   6.455   3.915  -1.043 -0.4308  0.5682 -0.0746
  155MOL0     C20355   6.338   3.981  -1.081 -0.1604 -0.7309 -0.8024
  155MOL0     C20356   6.213   3.937  -1.056  0.2599 -0.6789  0.4406
  155MOL0     C20357   6.091   3.999  -1.114  0.1192 -1.0287 -0.0614
  155MOL0     O20358   6.109   4.123  -1.171  0.1679  0.2327  0.4531
  155MOL0     C20359   6.006   4.210  -1.201 -0.3897 -0.4622  0.0985
  155MOL0     C20360   6.017   4.342  -1.154 -0.9064  0.3252 -0.1609
  155MOL0     C20361   5.913   4.435  -1.184  0.0557  0.3989 -0.0708
  155MOL0     C20362   5.807   4.395  -1.260  0.0814 -1.2678  0.5737
  155MOL0     O20363   5.717   4.497  -1.291 -0.6604 -0.9873 -0.2483
  155MOL0     C20364   5.575   4.483  -1.261  0.6180  0.2854 -0.0372
  155MOL0     C20365   5.489   4.584  -1.328  0.0049 -0.4355 -0.1507
  155MOL0     C20366   5.352   4.588  -1.280  0.2140 -0.1052  0.6256
  155MOL0     C20367   5.286   4.734  -1.319 -0.2663  0.3975  1.3959
  155MOL0     C20368   5.251   4.754  -1.474  0.8465 -0.7650 -0.0723
  155MOL0     C20369   5.142   4.648  -1.523  0.0314  0.4979  0.7363
  155MOL0     C20370   5.077   4.683  -1.655 -1.2650 -0.8389 -0.4452
  155MOL0     C20371   5.156   4.649  -1.775 -0.8777 -0.3672  0.1084
  155MOL0    Cl20372   5.298   4.749  -1.801 -0.0908  0.2135  1.0971
  155MOL0     C20373   5.800   4.271  -1.306  0.3135  0.8519 -0.4124
  155MOL0     C20374   5.894   4.175  -1.275  0.5149 -0.4902 -0.0433
  155MOL0     O20375   5.984   3.942  -1.089 -0.2144  0.2212 -0.3043
  155MOL0     C20376   6.210   3.814  -0.988 -0.3626  0.4079 -0.0009
  155MOL0     C20377   6.329   3.752  -0.952  0.2772  0.3929  0.4455
  155MOL0     N20378   6.946   3.875  -0.665  0.8262  0.5104 -0.1849
  155MOL0     N20379   7.004   3.843  -0.559 -0.0493  0.1938  0.7220
  155MOL0     C20380   8.022   3.343   0.008  0.4295 -0.0697 -0.6399
  155MOL0     C20381   8.158   3.334   0.015  0.0973  0.5774  0.6979
  155MOL0     C20382   8.569   3.203   0.151  0.8356  1.0887  0.8803
  155MOL0     C20383   8.626   3.171   0.276 -0.3020 -0.4904  0.0969
  155MOL0     C20384   8.768   3.169   0.300  0.0616 -0.6719  0.0664
  155MOL0     C20385   8.852   3.187   0.189  0.7395  0.3091  0.3466
  155MOL0     O20386   8.985   3.190   0.202  0.0784  0.0791  0.2870
  155MOL0     C20387   9.055   3.204   0.322 -0.1499  0.3214 -0.3631
  155MOL0     C20388   9.206   3.206   0.313  0.7684  0.3772 -0.7457
  155MOL0     C20389   9.269   3.200   0.448  0.7140  0.6983 -0.4529
  155MOL0     C20390   9.420   3.209   0.448 -0.8638  0.2070 -0.2622
  155MOL0     C20391   9.458   3.346   0.440 -0.3916 -1.0475  0.9477
  155MOL0     C20392   9.472   3.466   0.448  0.2563 -0.0407 -0.1036
  155MOL0     C20393   8.796   3.203   0.066 -0.6220 -0.2378  0.6537
  155MOL0     C20394   8.656   3.216   0.044 -1.1256 -0.6508  0.8347
  155MOL0     H20395   8.221   3.020  -0.095 -4.0096 -2.2867 -0.0156
  155MOL0     H20396   7.977   3.026  -0.112 -0.9671  2.6728 -2.4531
  155MOL0     H20397   7.767   3.267  -0.223  0.0853 -1.8105  1.0206
  155MOL0     H20398   7.796   3.410  -0.126  0.3389  0.1038 -4.0407
  155MOL0     H20399   7.602   3.369  -0.000  0.2985 -1.5433  0.5406
  155MOL0     H20400   7.573   3.218  -0.082 -0.0609  0.2272 -1.2132
  155MOL0     H20401   7.426   3.388  -0.165 -0.4191 -0.2107  0.3961
  155MOL0     H20402   7.515   3.310  -0.287  3.1473 -1.7933  1.4647
  155MOL0     H20403   7.571   3.578  -0.147  0.3400 -1.7370  1.0824
  155MOL0     H20404   7.676   3.524  -0.271 -0.5317  0.3339 -2.3922
  155MOL0     H20405   7.384   3.515  -0.347  0.4218 -0.8852 -0.9968
  155MOL0     H20406   7.527   3.554  -0.447  0.7371 -1.9403  0.9819
  155MOL0     H20407   7.517   3.771  -0.343  0.7148 -1.5939 -0.8219
  155MOL0     H20408   7.388   3.727  -0.242  3.1898  1.0270  1.0571
  155MOL0     H20409   7.327   3.865  -0.462 -2.3166  0.1388  2.6596
  155MOL0     H20410   7.365   3.709  -0.554 -0.7517  3.2137 -2.2804
  155MOL0     H20411   7.145   3.766  -0.363 -1.6658 -2.3363  0.4677
  155MOL0     H20412   7.176   3.612  -0.450 -2.0130  0.3175 -0.9725
  155MOL0     H20413   7.223   3.686  -0.745 -0.0693 -1.3818  0.9990
  155MOL0     H20414   7.084   3.819  -0.972 -0.4365  0.9973 -0.4126
  155MOL0     H20415   6.944   3.910  -0.933 -0.4904 -0.9739 -1.3390
  155MOL0     H20416   6.982   3.609  -0.987 -1.5778 -1.1576  1.8709
  155MOL0     H20417   6.910   3.723  -1.082 -1.2711  1.8372  1.1627
  155MOL0     H20418   6.744   3.574  -0.985 -1.8645  1.3794 -0.9217
  155MOL0     H20419   6.786   3.620  -0.820  0.9381 -2.0242  0.2584
  155MOL0     H20420   6.704   3.831  -1.021 -0.3988  0.9636 -1.4202
  155MOL0     H20421   6.686   3.829  -0.839 -0.9380 -0.2412  1.1388
  155MOL0     H20422   6.548   3.962  -1.074 -1.3335  2.1743 -0.5148
  155MOL0     H20423   6.340   4.078  -1.130 -1.6749 -0.2920 -0.0595
  155MOL0     H20424   6.107   4.367  -1.097 -2.3237 -0.0388  2.3829
  155MOL0     H20425   5.913   4.539  -1.153  0.7940  1.2701 -2.6944
  155MOL0     H20426   5.562   4.486  -1.153  0.1069  2.1679 -0.1167
  155MOL0     H20427   5.538   4.388  -1.301  0.7729  0.4895 -0.6841
  155MOL0     H20428   5.486   4.555  -1.434  1.3132 -0.5200 -0.1734
  155MOL0     H20429   5.527   4.686  -1.322 -1.3992  0.2753 -2.0498
  155MOL0     H20430   5.350   4.564  -1.174  0.7661 -0.2798  0.6030
  155MOL0     H20431   5.289   4.508  -1.320 -0.6406  0.9653 -0.2529
  155MOL0     H20432   5.192   4.748  -1.265  0.5569  0.3592  2.8636
  155MOL0     H20433   5.356   4.812  -1.289  1.8944 -0.5530 -0.7914
  155MOL0     H20434   5.337   4.761  -1.540  1.3487  2.7907  0.7608
  155MOL0     H20435   5.213   4.856  -1.482 -0.2435 -1.1540 -0.1666
  155MOL0     H20436   5.063   4.636  -1.448 -1.8460 -2.3435 -1.4989
  155MOL0     H20437   5.198   4.555  -1.536 -0.5512  0.3679 -1.0676
  155MOL0     H20438   4.977   4.640  -1.654 -1.6113 -0.3679 -3.6683
  155MOL0     H20439   5.057   4.790  -1.645 -1.1511 -0.7273 -1.3302
  155MOL0     H20440   5.088   4.653  -1.860 -1.0311 -3.7922 -0.0519
  155MOL0     H20441   5.197   4.548  -1.773  1.8965  0.6590  2.7571
  155MOL0     H20442   5.712   4.235  -1.358 -1.0702 -0.0775  2.3949
  155MOL0     H20443   5.881   4.071  -1.305  0.8549 -0.2551 -1.0466
  155MOL0     H20444   6.121   3.754  -0.970  0.7593 -0.7989  1.9001
  155MOL0     H20445   6.317   3.655  -0.904 -0.8771  0.8736  1.1528
  155MOL0     H20446   7.967   3.434   0.030 -1.3419 -1.2494  0.0794
  155MOL0     H20447   8.215   3.420   0.050  0.2372  1.5221 -1.6065
  155MOL0     H20448   8.562   3.161   0.363  0.9674  1.0651  1.2675
  155MOL0     H20449   8.807   3.165   0.401  0.8562  0.9803 -0.1341
  155MOL0     H20450   9.012   3.122   0.381 -2.1950  1.3884 -0.2700
  155MOL0     H20451   9.015   3.300   0.357 -1.2075  0.5732 -2.1310
  155MOL0     H20452   9.235   3.116   0.258  2.5615 -0.2833  1.1477
  155MOL0     H20453   9.242   3.293   0.257  1.5275 -0.1217 -1.0502
  155MOL0     H20454   9.244   3.103   0.493  1.5345 -0.6466 -2.7121
  155MOL0     H20455   9.225   3.277   0.512  1.3595  1.5299 -0.9868
  155MOL0     H20456   9.450   3.176   0.548  1.5940  0.4809 -0.8425
  155MOL0     H20457   9.469   3.159   0.364  2.4756  1.5486  0.7237
  155MOL0     H20458   9.502   3.567   0.466  0.1081 -0.1754  0.9504
  155MOL0     H20459   8.864   3.207  -0.019  1.5955  0.8435  2.3523
  155MOL0     H20460   8.622   3.245  -0.055  0.6002 -0.2509  0.3382
  156MOL0     O20461   8.484   2.060   4.280  0.6586 -0.3841  0.6914
  156MOL0     C20462   8.496   1.942   4.278 -0.1523  0.4023  0.2927
  156MOL0     O20463   8.615   1.872   4.297  0.4878 -0.1702  0.1160
  156MOL0     C20464   8.722   1.950   4.344  0.4396  0.5016 -0.9567
  156MOL0     C20465   8.747   1.959   4.482  0.2357  0.1147 -0.6414
  156MOL0     C20466   8.859   2.018   4.533  0.6312  0.0048 -0.3442
  156MOL0     C20467   8.944   2.082   4.451  0.5746  0.4840  0.1711
  156MOL0     O20468   9.057   2.143   4.498  0.7275  0.2980 -0.5602
  156MOL0     C20469   9.139   2.244   4.422  0.2831 -0.2654 -0.6813
  156MOL0     C20470   9.082   2.389   4.435  0.5310 -0.4111 -0.1193
  156MOL0     C20471   8.972   2.422   4.326  0.2127  0.7769 -0.7769
  156MOL0     C20472   8.894   2.539   4.382 -0.8075 -0.6695 -0.4957
  156MOL0     C20473   8.794   2.500   4.490  0.0798 -0.4353  0.1195
  156MOL0     C20474   8.718   2.373   4.469 -0.1163 -0.8054  0.5555
  156MOL0     C20475   8.627   2.346   4.584  0.6092  0.6612 -0.0507
  156MOL0     C20476   8.505   2.441   4.596  1.2992  1.0934 -0.4661
  156MOL0     N20477   8.403   2.378   4.690  0.8619  0.4351  1.0877
  156MOL0     C20478   8.419   2.340   4.817 -1.3047  0.3186  0.6088
  156MOL0     C20479   8.295   2.305   4.860 -0.6105  0.5098  0.3105
  156MOL0     C20480   8.261   2.249   5.000 -0.1329  0.4094 -0.8342
  156MOL0     C20481   8.117   2.214   5.030 -0.4848 -0.2691 -0.3345
  156MOL0     C20482   8.098   2.175   5.175  0.7651 -0.2236  0.4030
  156MOL0     C20483   7.951   2.133   5.207  0.9457 -0.0843 -0.0885
  156MOL0     O20484   7.957   2.064   5.333  0.0640 -0.0666 -0.2561
  156MOL0     C20485   7.834   2.054   5.397  0.2339 -0.3488 -0.1006
  156MOL0     C20486   7.827   2.089   5.526 -0.2453 -0.0667 -0.6886
  156MOL0     C20487   7.704   2.113   5.593  0.2567  0.3026  0.4516
  156MOL0     C20488   7.579   2.091   5.527  0.1749 -0.4345  0.7624
  156MOL0     C20489   7.449   2.124   5.597 -1.0137  0.4181  0.4435
  156MOL0     O20490   7.462   2.174   5.714 -0.0927  0.0369  0.3410
  156MOL0     C20491   7.360   2.231   5.790  0.2311  0.7308  0.5382
  156MOL0     C20492   7.402   2.299   5.905  0.1141  0.2870 -0.2274
  156MOL0     C20493   7.295   2.356   5.979  0.2020 -0.2000 -0.1463
  156MOL0     C20494   7.156   2.341   5.968  0.1342 -0.8453  0.8753
  156MOL0     O20495   7.052   2.386   6.040  0.0671 -0.1602  0.3662
  156MOL0     C20496   7.059   2.341   6.180 -0.4324  0.1125  0.5379
  156MOL0     C20497   6.941   2.413   6.255 -1.2867 -0.8336  0.0849
  156MOL0     C20498   6.809   2.340   6.219 -0.2056 -0.1053  0.5519
  156MOL0     C20499   6.682   2.422   6.255 -0.1333 -0.2485 -0.5927
  156MOL0     C20500   6.554   2.359   6.207 -0.2217 -0.6549 -0.7693
  156MOL0     C20501   6.444   2.431   6.283  0.4118 -0.6792 -0.3961
  156MOL0     C20502   6.310   2.367   6.267 -0.0207  0.5917 -0.2290
  156MOL0     C20503   6.201   2.468   6.302  0.2440  0.6953 -0.3681
  156MOL0    Cl20504   6.108   2.417   6.443  0.2752 -0.0963 -0.1095
  156MOL0     C20505   7.115   2.267   5.851  0.0114 -0.2745 -0.1200
  156MOL0     C20506   7.217   2.207   5.773  0.1539 -0.1200 -0.2630
  156MOL0     O20507   7.345   2.098   5.534  0.1430 -0.4619  0.1646
  156MOL0     C20508   7.592   2.033   5.396 -0.1333  0.9487 -0.0527
  156MOL0     C20509   7.719   2.021   5.334 -0.1771 -0.3252 -0.5789
  156MOL0     N20510   8.202   2.349   4.767 -0.2668 -0.0488 -0.9227
  156MOL0     N20511   8.268   2.377   4.661 -0.6585 -0.4115  0.5162
  156MOL0     C20512   8.927   2.070   4.315 -0.2491  1.0712 -0.6606
  156MOL0     C20513   8.812   2.007   4.256 -0.3045  0.0901 -0.2019
  156MOL0     C20514   8.368   1.870   4.261  1.1191 -0.2759  0.5172
  156MOL0     C20515   8.366   1.721   4.270 -0.2175 -0.3946  0.3970
  156MOL0     C20516   8.250   1.646   4.256  0.7475  0.2269  0.4144
  156MOL0     C20517   8.125   1.709   4.240  0.2977  0.7079  0.3617
  156MOL0     O20518   8.017   1.632   4.211 -0.6007  0.4633  0.7234
  156MOL0     C20519   7.883   1.692   4.195 -1.2067  0.3612 -0.4891
  156MOL0     C20520   7.821   1.732   4.333 -0.9451  0.2071  0.4157
  156MOL0     C20521   7.861   1.640   4.444  0.2255 -0.0649 -0.4573
  156MOL0     C20522   7.754   1.634   4.554 -0.0000 -0.0196  0.4677
  156MOL0     C20523   7.797   1.546   4.664 -0.1830 -0.7236  1.4328
  156MOL0     C20524   7.837   1.481   4.754  0.6200  0.7844  0.0153
  156MOL0     C20525   8.133   1.851   4.228 -0.9669  0.1695 -0.3154
  156MOL0     C20526   8.245   1.931   4.228 -0.8654  0.0192  0.5390
  156MOL0     H20527   8.686   1.905   4.554  1.4730  0.0646  0.4034
  156MOL0     H20528   8.887   2.009   4.638  0.5873  1.1848 -0.2175
  156MOL0     H20529   9.161   2.226   4.316  1.0370 -2.9774 -0.1511
  156MOL0     H20530   9.238   2.241   4.467  0.1563  3.8814  0.2081
  156MOL0     H20531   9.166   2.456   4.417  0.9612 -1.2758 -1.4751
  156MOL0     H20532   9.047   2.409   4.537 -1.7322 -2.6712 -0.3488
  156MOL0     H20533   8.902   2.343   4.299  0.1904  0.1593  0.9288
  156MOL0     H20534   9.025   2.451   4.235  3.1069  1.5988  1.0103
  156MOL0     H20535   8.964   2.619   4.405  0.5540 -1.4285 -1.7746
  156MOL0     H20536   8.837   2.571   4.294  0.7091  1.3976 -0.7973
  156MOL0     H20537   8.723   2.582   4.501 -1.6631 -1.3623 -3.0726
  156MOL0     H20538   8.848   2.490   4.584  1.1101  1.3400 -0.2524
  156MOL0     H20539   8.788   2.289   4.468 -0.6525 -1.2636 -1.0585
  156MOL0     H20540   8.656   2.362   4.380  0.2550 -3.1069  0.5234
  156MOL0     H20541   8.591   2.246   4.559  3.2562 -0.7201  1.3088
  156MOL0     H20542   8.679   2.336   4.680 -0.9700 -2.0770  0.6587
  156MOL0     H20543   8.472   2.443   4.491 -2.9492 -1.9983  0.5591
  156MOL0     H20544   8.535   2.535   4.643  0.8992  1.6618 -1.3325
  156MOL0     H20545   8.512   2.326   4.871 -0.1247 -1.3752 -1.6807
  156MOL0     H20546   8.313   2.309   5.076  0.3025  0.9830 -1.5672
  156MOL0     H20547   8.298   2.147   4.995 -2.0152 -0.3617  0.0249
  156MOL0     H20548   8.087   2.134   4.963 -0.6669  0.9241 -1.7257
  156MOL0     H20549   8.061   2.308   5.024 -0.9383 -0.5658 -0.8158
  156MOL0     H20550   8.162   2.088   5.194 -0.9014 -1.6388 -0.1593
  156MOL0     H20551   8.126   2.259   5.238  1.2282 -0.3795  0.4094
  156MOL0     H20552   7.912   2.058   5.138 -1.1491 -0.0944  1.0328
  156MOL0     H20553   7.880   2.216   5.207 -1.1990 -1.8179  0.1971
  156MOL0     H20554   7.923   2.116   5.570 -1.3310  1.4788  0.8372
  156MOL0     H20555   7.710   2.160   5.691  1.9368  0.2400  0.4118
  156MOL0     H20556   7.505   2.309   5.938 -0.4590 -1.0697  2.2893
  156MOL0     H20557   7.315   2.410   6.071 -0.8576 -1.0773  0.6314
  156MOL0     H20558   7.157   2.370   6.218 -0.2344  0.0936  0.0498
  156MOL0     H20559   7.037   2.235   6.197 -1.9453 -0.1035 -2.1698
  156MOL0     H20560   6.936   2.518   6.224  0.8805 -0.6849  0.0677
  156MOL0     H20561   6.963   2.417   6.362  1.7829  1.6932 -0.5073
  156MOL0     H20562   6.790   2.242   6.263  1.0879 -0.2184  0.9084
  156MOL0     H20563   6.820   2.321   6.111  0.7836 -0.7556  0.7471
  156MOL0     H20564   6.679   2.421   6.364  0.2317 -0.6756 -0.5817
  156MOL0     H20565   6.685   2.528   6.228 -3.4482  1.7931  5.2851
  156MOL0     H20566   6.560   2.257   6.247 -1.3185 -0.6053 -0.4393
  156MOL0     H20567   6.542   2.363   6.098  0.4361 -1.2103 -0.8662
  156MOL0     H20568   6.434   2.534   6.246 -1.2440 -0.5179  0.3974
  156MOL0     H20569   6.458   2.426   6.391  1.2314 -1.0121 -0.5081
  156MOL0     H20570   6.289   2.327   6.167  1.4934 -0.6231 -0.1028
  156MOL0     H20571   6.291   2.286   6.338 -4.0521  1.2400 -0.3087
  156MOL0     H20572   6.143   2.504   6.216  1.1720  1.0656 -0.8538
  156MOL0     H20573   6.236   2.565   6.339  0.9144  0.7671 -1.1562
  156MOL0     H20574   7.012   2.252   5.822 -0.8251 -0.9348  2.9100
  156MOL0     H20575   7.184   2.142   5.693 -0.7053  1.3183 -1.1326
  156MOL0     H20576   7.500   2.009   5.343 -1.1005  2.0382  1.0720
  156MOL0     H20577   7.718   1.977   5.235  3.4390 -0.4137 -0.7099
  156MOL0     H20578   9.006   2.105   4.250  2.4615 -1.6638  0.8825
  156MOL0     H20579   8.801   2.011   4.148  0.4866 -0.3601 -0.3094
  156MOL0     H20580   8.462   1.678   4.298 -0.0923 -0.8133 -0.6295
  156MOL0     H20581   8.237   1.539   4.272  0.4711  0.1251 -0.3992
  156MOL0     H20582   7.826   1.609   4.153  0.0776 -0.2410 -1.0733
  156MOL0     H20583   7.873   1.778   4.128 -0.6854  1.1651  0.4369
  156MOL0     H20584   7.809   1.837   4.363 -1.0840  0.0331  0.9657
  156MOL0     H20585   7.714   1.709   4.320 -0.6511 -0.5322 -0.9190
  156MOL0     H20586   7.957   1.667   4.490  0.4709 -1.0168 -0.3925
  156MOL0     H20587   7.880   1.536   4.417 -2.0187 -0.4309 -0.7594
  156MOL0     H20588   7.734   1.735   4.591  0.0600 -0.0593  0.6070
  156MOL0     H20589   7.658   1.599   4.516 -0.0608  0.7878 -0.1669
  156MOL0     H20590   7.871   1.410   4.827 -0.5455 -0.3550 -0.5037
  156MOL0     H20591   8.040   1.903   4.207 -0.3251  0.4325 -2.8645
  156MOL0     H20592   8.253   2.040   4.224  2.2657 -0.1781 -1.4122
  157MOL0     O20593   1.270   1.831   0.180  0.3580  0.3965 -0.0513
  157MOL0     C20594   1.379   1.862   0.208 -0.3780  0.2820 -0.3542
  157MOL0     O20595   1.423   1.925   0.324 -0.0380 -0.0288 -0.3737
  157MOL0     C20596   1.341   1.946   0.433 -0.4759  0.3084  0.7150
  157MOL0     C20597   1.234   2.042   0.422 -0.3832 -0.1337 -0.3790
  157MOL0     C20598   1.143   2.054   0.526 -0.1850  0.5427  0.0177
  157MOL0     C20599   1.158   1.973   0.637 -0.0078  0.4310  0.4811
  157MOL0     O20600   1.065   1.984   0.738 -0.0243  0.4487 -0.4488
  157MOL0     C20601   1.057   1.874   0.826  0.7493  0.3684 -1.5222
  157MOL0     C20602   0.937   1.892   0.921 -0.2097  0.9179  0.6645
  157MOL0     C20603   0.815   1.817   0.866  0.6435  0.5083  0.1014
  157MOL0     C20604   0.685   1.856   0.936 -0.8546 -0.1512 -1.3068
  157MOL0     C20605   0.550   1.859   0.861  0.1467  0.1341 -0.8401
  157MOL0     C20606   0.504   1.717   0.825 -0.4848 -0.0061 -0.2270
  157MOL0     C20607   0.383   1.718   0.733  0.1490 -0.3241  0.4357
  157MOL0     C20608   0.266   1.807   0.773  0.1122  0.8985 -0.0098
  157MOL0     N20609   0.158   1.821   0.669  0.3685 -0.8452 -0.6775
  157MOL0     C20610   0.076   1.933   0.663 -0.2383 -1.1965  0.4879
  157MOL0     C20611  -0.020   1.889   0.579 -1.4613 -0.1025  0.4573
  157MOL0     C20612  -0.144   1.966   0.532 -0.5661  0.9527 -0.4324
  157MOL0     C20613  -0.200   1.922   0.394  0.5687  0.3650 -0.8636
  157MOL0     C20614  -0.292   2.032   0.331  0.3961  0.5864 -0.2406
  157MOL0     C20615  -0.432   2.055   0.397 -0.8591  0.5616 -0.3653
  157MOL0     O20616  -0.494   1.933   0.394  0.2879  0.1558  0.1178
  157MOL0     C20617  -0.616   1.920   0.460 -1.2583  0.0951 -0.1699
  157MOL0     C20618  -0.727   1.954   0.401 -0.4160 -0.5476 -1.0293
  157MOL0     C20619  -0.855   1.943   0.466 -0.2425 -0.4164  0.6785
  157MOL0     C20620  -0.861   1.898   0.600  0.2235  0.8519  0.0732
  157MOL0     C20621  -0.983   1.889   0.674 -0.0019  0.4969 -0.4901
  157MOL0     O20622  -1.087   1.958   0.633 -0.4243  0.3790  0.2321
  157MOL0     C20623  -1.227   1.935   0.663 -0.0368 -0.2094  0.1632
  157MOL0     C20624  -1.279   1.815   0.700  0.3764 -0.0280 -0.7233
  157MOL0     C20625  -1.413   1.805   0.746  0.0140 -0.1863 -0.5280
  157MOL0     C20626  -1.499   1.910   0.718 -0.2619 -0.1137  0.5656
  157MOL0     O20627  -1.631   1.903   0.748  0.1027 -0.1991  0.5870
  157MOL0     C20628  -1.705   1.804   0.677  0.4375 -0.2407  0.6427
  157MOL0     C20629  -1.734   1.855   0.535  0.5249  0.2709  0.2832
  157MOL0     C20630  -1.867   1.817   0.470 -0.0077  0.4789 -0.6260
  157MOL0     C20631  -1.996   1.861   0.550 -0.9226 -0.4276  0.6120
  157MOL0     C20632  -1.995   2.004   0.601  0.4553  0.7673  0.0272
  157MOL0     C20633  -1.974   2.102   0.492  1.0626 -0.3718  0.0164
  157MOL0     C20634  -1.981   2.256   0.535  0.3164  0.4331  0.4838
  157MOL0     C20635  -2.112   2.304   0.619 -0.8996  0.3089  0.3915
  157MOL0    Cl20636  -2.139   2.469   0.599 -0.5383 -0.1285 -0.2553
  157MOL0     C20637  -1.447   2.028   0.677 -0.3599  0.0179  0.3635
  157MOL0     C20638  -1.311   2.039   0.648 -0.3836 -0.0479 -0.4095
  157MOL0     O20639  -0.980   1.825   0.777  1.0589 -0.5707 -0.3534
  157MOL0     C20640  -0.739   1.870   0.663 -0.5880 -0.2676 -0.4585
  157MOL0     C20641  -0.615   1.880   0.592 -0.2944 -1.3402 -0.6662
  157MOL0     N20642   0.004   1.758   0.548 -1.4597  0.4117  0.0936
  157MOL0     N20643   0.105   1.721   0.608 -0.6999 -0.2152 -0.1924
  157MOL0     C20644   1.269   1.887   0.646 -0.0492 -0.2251  0.1479
  157MOL0     C20645   1.369   1.873   0.554  0.0631  0.0280  0.5718
  157MOL0     C20646   1.481   1.824   0.104 -0.7090 -1.2088  0.7322
  157MOL0     C20647   1.618   1.833   0.130 -1.1468  0.3492  0.4191
  157MOL0     C20648   1.716   1.809   0.031 -0.5680  0.4613 -0.9215
  157MOL0     C20649   1.678   1.768  -0.100 -0.8167 -0.3655 -0.0823
  157MOL0     O20650   1.760   1.747  -0.202 -0.1543 -0.3961  0.3044
  157MOL0     C20651   1.902   1.768  -0.178  0.2197 -0.0887 -0.6647
  157MOL0     C20652   1.978   1.773  -0.303  0.3662  0.1188 -0.0356
  157MOL0     C20653   2.040   1.645  -0.327 -0.0659 -0.1705  0.5088
  157MOL0     C20654   2.112   1.648  -0.465 -0.0390 -1.4155 -0.8809
  157MOL0     C20655   2.023   1.630  -0.577 -0.7847 -0.6846  0.1956
  157MOL0     C20656   1.953   1.617  -0.675 -0.2533  0.7094  0.0757
  157MOL0     C20657   1.541   1.755  -0.124  0.0663 -0.7115  0.1822
  157MOL0     C20658   1.452   1.780  -0.019 -0.3171  0.0429  0.3526
  157MOL0     H20659   1.220   2.109   0.337  1.8554  0.3786 -0.3887
  157MOL0     H20660   1.061   2.123   0.541  0.8975  1.9410 -0.2394
  157MOL0     H20661   1.142   1.875   0.896 -0.5170 -2.5358  0.2459
  157MOL0     H20662   1.058   1.777   0.777  1.4469 -0.9896  0.9605
  157MOL0     H20663   0.916   1.999   0.919  0.1866  0.9899  0.2694
  157MOL0     H20664   0.955   1.871   1.027 -1.6240 -2.8596  0.3026
  157MOL0     H20665   0.831   1.710   0.881  0.3679  0.2203 -1.4406
  157MOL0     H20666   0.794   1.838   0.760 -3.4407  0.8027  0.7928
  157MOL0     H20667   0.665   1.777   1.009 -0.4341  1.1192  0.2494
  157MOL0     H20668   0.694   1.948   0.995 -2.6118 -0.2252 -0.8584
  157MOL0     H20669   0.552   1.927   0.776 -0.0248 -1.4992 -2.2052
  157MOL0     H20670   0.474   1.909   0.923 -0.0060  3.5218 -3.4653
  157MOL0     H20671   0.502   1.648   0.910 -1.2887  1.8241  1.2969
  157MOL0     H20672   0.588   1.678   0.766  0.8643 -3.1499  3.2901
  157MOL0     H20673   0.424   1.759   0.640  1.4278  0.8769  1.4804
  157MOL0     H20674   0.348   1.615   0.723 -1.7158  0.2818  0.3863
  157MOL0     H20675   0.311   1.906   0.785  0.8958  0.5236  0.2017
  157MOL0     H20676   0.218   1.763   0.862 -1.2865 -0.8989 -1.5631
  157MOL0     H20677   0.077   2.017   0.732  1.1489  0.0866 -1.0328
  157MOL0     H20678  -0.128   2.074   0.532 -0.9048  1.0486  1.8120
  157MOL0     H20679  -0.218   1.942   0.608  0.0416 -0.1220 -0.1516
  157MOL0     H20680  -0.268   1.843   0.424  1.2046  0.7023  1.7062
  157MOL0     H20681  -0.126   1.872   0.331  0.3643 -3.2157  1.4896
  157MOL0     H20682  -0.242   2.130   0.329  0.0434  0.7724 -0.0682
  157MOL0     H20683  -0.311   2.002   0.228 -0.8658  2.4932 -0.6301
  157MOL0     H20684  -0.480   2.144   0.354  1.6482  1.1157 -2.2520
  157MOL0     H20685  -0.410   2.086   0.499  3.4104  0.6506 -1.1148
  157MOL0     H20686  -0.737   1.976   0.296  1.3503  1.2613 -0.8765
  157MOL0     H20687  -0.942   1.983   0.416  1.1425  0.7235 -0.9061
  157MOL0     H20688  -1.218   1.725   0.706 -0.5665 -0.6156  0.6240
  157MOL0     H20689  -1.459   1.712   0.779 -0.9255 -0.3727 -2.2075
  157MOL0     H20690  -1.802   1.790   0.726  0.9803 -0.2760  1.7217
  157MOL0     H20691  -1.667   1.702   0.669 -2.0947 -1.2767  0.8730
  157MOL0     H20692  -1.646   1.815   0.485  0.3671  2.0538 -1.5545
  157MOL0     H20693  -1.722   1.964   0.532 -2.7008  0.7168 -0.4218
  157MOL0     H20694  -1.880   1.708   0.464 -0.7371  0.6317 -2.4154
  157MOL0     H20695  -1.862   1.851   0.366  2.5843 -1.2822 -1.1820
  157MOL0     H20696  -2.083   1.842   0.487 -0.5935 -3.5687  0.9400
  157MOL0     H20697  -2.008   1.805   0.643 -1.5522 -0.5442  0.4614
  157MOL0     H20698  -1.925   2.012   0.685 -0.5305 -4.8597  1.8275
  157MOL0     H20699  -2.095   2.016   0.644 -0.0088 -1.4368 -0.3257
  157MOL0     H20700  -2.056   2.091   0.421 -0.0906 -0.8070  1.3763
  157MOL0     H20701  -1.882   2.095   0.432  0.3218  1.7390 -1.4779
  157MOL0     H20702  -1.889   2.285   0.588  0.3910 -0.7898  1.0566
  157MOL0     H20703  -1.984   2.319   0.445  0.0897  1.2702  1.0656
  157MOL0     H20704  -2.102   2.271   0.723  3.0600 -2.0030 -0.4963
  157MOL0     H20705  -2.200   2.256   0.575  0.4263 -0.8859 -1.0972
  157MOL0     H20706  -1.505   2.120   0.667  1.6226  1.0845 -3.6036
  157MOL0     H20707  -1.261   2.126   0.606 -1.2027  0.3373 -0.6124
  157MOL0     H20708  -0.744   1.835   0.766  1.0447  0.4386 -0.1054
  157MOL0     H20709  -0.521   1.850   0.637 -0.1370 -0.8892 -0.6900
  157MOL0     H20710   1.281   1.821   0.732 -0.3516 -0.6291 -0.1177
  157MOL0     H20711   1.457   1.810   0.566 -0.0374 -0.4781 -1.0086
  157MOL0     H20712   1.649   1.866   0.229 -0.6635  0.0949  0.3561
  157MOL0     H20713   1.808   1.841   0.078 -1.3462  1.8969 -0.2922
  157MOL0     H20714   1.951   1.694  -0.115 -0.1230 -1.2997 -1.7719
  157MOL0     H20715   1.916   1.865  -0.129 -2.6272  1.0128 -1.8349
  157MOL0     H20716   1.905   1.804  -0.378 -1.0229 -2.1750  0.2682
  157MOL0     H20717   2.045   1.859  -0.302 -1.9664  2.0306  0.1626
  157MOL0     H20718   1.965   1.566  -0.327 -0.8403  0.5476  0.4620
  157MOL0     H20719   2.112   1.620  -0.249  0.3175 -3.1610 -0.6979
  157MOL0     H20720   2.176   1.737  -0.462 -0.2882 -1.2105  2.1387
  157MOL0     H20721   2.178   1.562  -0.453  3.2770  0.9346 -0.7620
  157MOL0     H20722   1.913   1.601  -0.773 -0.6278  1.6879  0.0579
  157MOL0     H20723   1.524   1.707  -0.219  2.4309  2.1057 -1.8688
  157MOL0     H20724   1.351   1.746  -0.043  0.7112 -2.8223 -0.3196
  158MOL0     O20725   3.300   8.477   7.903 -0.4685  0.1068  0.2834
  158MOL0     C20726   3.415   8.431   7.890  0.2658  0.0636 -0.3431
  158MOL0     O20727   3.471   8.324   7.961  0.1839 -0.0036  0.5555
  158MOL0     C20728   3.396   8.229   8.034  0.6438 -0.3042  0.2703
  158MOL0     C20729   3.440   8.097   8.037  0.5904 -0.6744 -0.5380
  158MOL0     C20730   3.370   8.000   8.111  0.6398 -0.3025 -0.1020
  158MOL0     C20731   3.253   8.026   8.174  0.0386  0.4410 -0.3372
  158MOL0     O20732   3.197   7.920   8.240  0.4646  0.5647 -1.3027
  158MOL0     C20733   3.067   7.869   8.184 -0.9991  0.5107 -0.6948
  158MOL0     C20734   3.016   7.759   8.263 -0.9381 -0.4646  0.3375
  158MOL0     C20735   2.873   7.715   8.214 -0.6411  0.7092  0.7288
  158MOL0     C20736   2.812   7.623   8.319 -0.4691  0.1324  0.8046
  158MOL0     C20737   2.664   7.590   8.281  0.2078  0.6030  0.4034
  158MOL0     C20738   2.662   7.508   8.144 -0.2165  0.3410  0.3640
  158MOL0     C20739   2.523   7.446   8.106  0.1207 -0.6201  0.6732
  158MOL0     C20740   2.452   7.557   8.025 -0.3227  0.0802 -0.9790
  158MOL0     N20741   2.315   7.519   7.990 -0.5447 -0.1827  0.3398
  158MOL0     C20742   2.272   7.400   7.934 -0.5334 -0.3744 -0.0385
  158MOL0     C20743   2.135   7.409   7.929  0.4074  0.8347  0.0527
  158MOL0     C20744   2.046   7.306   7.861  0.0526  0.3402 -0.7731
  158MOL0     C20745   1.982   7.196   7.952  1.4263  0.3995 -0.3658
  158MOL0     C20746   1.881   7.100   7.888  0.2174 -0.1465 -0.2382
  158MOL0     C20747   1.950   7.014   7.778 -0.1035 -0.0935  0.2742
  158MOL0     O20748   2.012   6.903   7.850 -0.4466  0.6129  0.4417
  158MOL0     C20749   1.939   6.782   7.866  0.6201 -0.4153  0.0403
  158MOL0     C20750   2.005   6.663   7.881  0.0154 -0.2289 -0.0227
  158MOL0     C20751   1.941   6.539   7.879  0.1441  0.4279 -0.3507
  158MOL0     C20752   1.799   6.534   7.891  1.2290 -0.5096 -0.6762
  158MOL0     C20753   1.729   6.407   7.902 -1.4390  0.1346  0.0294
  158MOL0     O20754   1.595   6.413   7.877 -0.4950  0.1462  0.4752
  158MOL0     C20755   1.513   6.300   7.879 -0.0595 -0.3485 -0.6733
  158MOL0     C20756   1.386   6.305   7.949 -0.5213 -0.0636  0.2103
  158MOL0     C20757   1.314   6.190   7.972 -0.3487  0.1197 -0.0858
  158MOL0     C20758   1.359   6.065   7.913 -0.6518 -0.3987 -0.2684
  158MOL0     O20759   1.297   5.944   7.925  0.2743 -0.0826 -0.1459
  158MOL0     C20760   1.210   5.924   8.035  0.3202 -0.0632  0.5566
  158MOL0     C20761   1.136   5.800   8.008  0.2543 -0.0984 -0.2348
  158MOL0     C20762   1.028   5.770   8.122  0.3061 -0.0762  0.4779
  158MOL0     C20763   0.972   5.641   8.075 -0.5728 -0.3746  0.2938
  158MOL0     C20764   0.870   5.584   8.177  1.0225  0.1289  0.0186
  158MOL0     C20765   0.837   5.438   8.157  0.1140 -0.1886  1.2034
  158MOL0     C20766   0.764   5.418   8.022  0.1806 -0.4703  0.8425
  158MOL0     C20767   0.754   5.266   7.985 -0.0276  1.0118 -0.3046
  158MOL0    Cl20768   0.665   5.241   7.837 -0.2452 -0.2648  0.3520
  158MOL0     C20769   1.476   6.066   7.840  0.2024 -0.2720 -0.1518
  158MOL0     C20770   1.565   6.175   7.831  0.0216  0.3113  0.4046
  158MOL0     O20771   1.796   6.311   7.930  0.1800  0.5527 -0.0906
  158MOL0     C20772   1.729   6.660   7.892  1.1441 -0.4263  0.1258
  158MOL0     C20773   1.795   6.781   7.880 -0.1857 -0.2417  0.1981
  158MOL0     N20774   2.089   7.520   7.997 -0.1167 -0.6159  1.0365
  158MOL0     N20775   2.200   7.597   8.011  0.0453 -0.2860 -0.1451
  158MOL0     C20776   3.208   8.160   8.183 -0.1468  0.6518  0.7621
  158MOL0     C20777   3.276   8.259   8.112 -0.3319  0.3348 -0.6493
  158MOL0     C20778   3.496   8.501   7.787  0.4301 -0.0370  0.0057
  158MOL0     C20779   3.431   8.589   7.692  0.2891 -0.4224 -0.6282
  158MOL0     C20780   3.507   8.650   7.592 -0.0124  0.5692  0.1395
  158MOL0     C20781   3.645   8.642   7.586  0.2093  0.1782  0.9976
  158MOL0     O20782   3.693   8.700   7.477 -0.1709 -0.4732 -0.9917
  158MOL0     C20783   3.837   8.722   7.469  0.1101  0.7970 -0.5153
  158MOL0     C20784   3.899   8.617   7.372  0.4674  0.7880  0.3480
  158MOL0     C20785   3.823   8.530   7.276 -0.2050 -0.2806  0.1444
  158MOL0     C20786   3.900   8.484   7.148 -0.7410  0.1083 -0.6682
  158MOL0     C20787   3.997   8.382   7.189 -0.6602  0.3096  0.5496
  158MOL0     C20788   4.089   8.305   7.206 -0.2198  0.0624 -0.2316
  158MOL0     C20789   3.710   8.568   7.693  0.3978 -0.2333  0.3118
  158MOL0     C20790   3.641   8.490   7.781 -0.4818  0.8483 -0.7076
  158MOL0     H20791   3.530   8.072   7.981  0.5669 -2.5889  0.2249
  158MOL0     H20792   3.398   7.895   8.107 -2.1941 -1.1095 -0.9152
  158MOL0     H20793   3.074   7.836   8.080 -0.0460  0.9737 -0.7829
  158MOL0     H20794   2.988   7.945   8.189 -0.9414  0.6096 -1.2492
  158MOL0     H20795   3.001   7.787   8.368 -0.6040 -0.6664  0.4401
  158MOL0     H20796   3.085   7.675   8.244 -2.7095 -2.2271  1.2764
  158MOL0     H20797   2.897   7.668   8.118  1.4139  0.0313  1.5302
  158MOL0     H20798   2.810   7.804   8.200  0.0533  1.1702  0.4908
  158MOL0     H20799   2.876   7.538   8.342 -1.4304 -0.7418  0.3096
  158MOL0     H20800   2.816   7.681   8.412  1.4563 -0.6462  1.2463
  158MOL0     H20801   2.620   7.687   8.254  1.2122  2.1265  3.6823
  158MOL0     H20802   2.615   7.537   8.362  2.0993 -0.8414  0.6649
  158MOL0     H20803   2.733   7.426   8.155  4.4030  3.8317 -0.2082
  158MOL0     H20804   2.708   7.554   8.056  1.1505 -3.0198 -0.8295
  158MOL0     H20805   2.539   7.373   8.026 -1.3301  1.0661 -1.2630
  158MOL0     H20806   2.468   7.401   8.190  2.6344 -1.0363  2.1839
  158MOL0     H20807   2.512   7.565   7.933  0.0358  0.0154 -0.7530
  158MOL0     H20808   2.462   7.654   8.074  0.0502  0.7691 -2.3789
  158MOL0     H20809   2.333   7.320   7.892 -1.5802 -0.0726 -2.2534
  158MOL0     H20810   2.103   7.263   7.778 -3.4415 -2.4695 -1.9929
  158MOL0     H20811   1.965   7.366   7.819 -1.2157 -1.0492 -0.3960
  158MOL0     H20812   1.927   7.246   8.033 -1.1797  0.3616 -1.9884
  158MOL0     H20813   2.062   7.131   7.987  0.3388 -1.0832 -0.5552
  158MOL0     H20814   1.847   7.028   7.962  0.1534 -0.6993 -0.8008
  158MOL0     H20815   1.801   7.158   7.842  3.1011  0.8132 -4.7416
  158MOL0     H20816   2.028   7.071   7.725 -1.9010  0.7663 -1.6011
  158MOL0     H20817   1.880   6.964   7.710  1.6187 -2.5010  0.1561
  158MOL0     H20818   2.113   6.669   7.867 -0.2489 -2.7160 -5.2853
  158MOL0     H20819   2.002   6.449   7.879  0.2656  0.4801  0.9104
  158MOL0     H20820   1.368   6.405   7.986  2.9148  0.8166 -0.1571
  158MOL0     H20821   1.218   6.204   8.020 -0.7260 -3.0878  0.3293
  158MOL0     H20822   1.130   5.999   8.035 -0.3185 -0.7083  1.9451
  158MOL0     H20823   1.266   5.906   8.127 -0.8584  0.6521  1.4415
  158MOL0     H20824   1.218   5.728   8.016  1.0785  0.9168  0.8232
  158MOL0     H20825   1.088   5.798   7.910  0.3418  3.0084 -0.4252
  158MOL0     H20826   0.947   5.843   8.131 -0.4092 -0.7750 -0.1273
  158MOL0     H20827   1.090   5.767   8.212  3.3321  2.5725 -1.3169
  158MOL0     H20828   0.928   5.662   7.977 -0.8149 -0.6758  0.3340
  158MOL0     H20829   1.050   5.566   8.064 -0.2492 -0.3155  2.0215
  158MOL0     H20830   0.777   5.640   8.164  0.3059 -0.0839  3.3122
  158MOL0     H20831   0.893   5.595   8.283 -2.6436  0.4025  0.9169
  158MOL0     H20832   0.761   5.400   8.227 -2.5624  0.8318 -0.9517
  158MOL0     H20833   0.930   5.380   8.156 -1.0651 -2.2184 -0.5859
  158MOL0     H20834   0.660   5.453   8.023  0.6399  1.1103 -1.1102
  158MOL0     H20835   0.801   5.474   7.936  0.1361 -2.5581 -0.6149
  158MOL0     H20836   0.705   5.216   8.068  1.7643 -0.7719 -0.2384
  158MOL0     H20837   0.854   5.225   7.967  0.1387  1.5693 -0.6950
  158MOL0     H20838   1.512   5.969   7.805  2.6485  2.1328 -5.2999
  158MOL0     H20839   1.660   6.155   7.783 -0.5231 -1.0711 -0.1545
  158MOL0     H20840   1.624   6.666   7.918  1.4250  1.1924  0.9786
  158MOL0     H20841   1.736   6.872   7.886 -0.0321 -0.2159  2.1634
  158MOL0     H20842   3.115   8.186   8.233 -1.5457 -0.0895 -1.3685
  158MOL0     H20843   3.235   8.360   8.110 -1.6998 -0.2156 -0.9891
  158MOL0     H20844   3.325   8.600   7.675  0.5676 -0.8198 -2.9716
  158MOL0     H20845   3.455   8.692   7.507  0.1505  0.4686 -0.0082
  158MOL0     H20846   3.890   8.719   7.565  2.0931 -1.9648 -1.5745
  158MOL0     H20847   3.853   8.822   7.429 -0.6101  1.4922  0.8778
  158MOL0     H20848   3.967   8.674   7.309 -1.5395  0.1560 -2.6005
  158MOL0     H20849   3.956   8.551   7.437  2.4183  1.0415 -1.0434
  158MOL0     H20850   3.731   8.573   7.236 -1.2625 -0.6273  2.1076
  158MOL0     H20851   3.783   8.438   7.319 -1.0635  1.3225  3.0099
  158MOL0     H20852   3.833   8.441   7.073  0.4194  1.0796 -2.3564
  158MOL0     H20853   3.956   8.563   7.097 -0.9938  0.0870 -0.9836
  158MOL0     H20854   4.171   8.239   7.225 -0.4408 -0.2328 -0.2902
  158MOL0     H20855   3.814   8.540   7.686  0.9154  1.5374  0.5514
  158MOL0     H20856   3.705   8.431   7.846 -0.5453  0.5471 -0.9160
  159MOL0     O20857   7.488   6.691   1.707 -0.3497 -0.6207 -0.2412
  159MOL0     C20858   7.442   6.607   1.779  0.1740  0.4803 -0.7982
  159MOL0     O20859   7.329   6.620   1.852  0.0121 -0.1665  0.6061
  159MOL0     C20860   7.242   6.730   1.831  0.7095  0.4206 -0.8083
  159MOL0     C20861   7.217   6.784   1.706 -0.1407  0.7867 -0.7057
  159MOL0     C20862   7.137   6.894   1.693  0.0155  0.0163 -0.8782
  159MOL0     C20863   7.094   6.962   1.813 -0.3606 -0.2718 -0.4383
  159MOL0     O20864   7.022   7.080   1.818  0.1403  0.6969 -0.7231
  159MOL0     C20865   6.996   7.153   1.695  0.2440  0.2061  0.3317
  159MOL0     C20866   7.098   7.262   1.662  0.9754  0.0160  0.3397
  159MOL0     C20867   7.226   7.208   1.595 -0.1314 -0.7861 -0.4127
  159MOL0     C20868   7.344   7.309   1.575 -0.1146 -0.0323  0.1463
  159MOL0     C20869   7.418   7.303   1.438 -0.9985  1.0637 -0.5523
  159MOL0     C20870   7.507   7.176   1.432 -0.2885  0.1411 -0.4640
  159MOL0     C20871   7.598   7.159   1.313 -0.5610  0.0864  0.3151
  159MOL0     C20872   7.667   7.025   1.297  0.5621  0.3696  0.4942
  159MOL0     N20873   7.774   6.997   1.389 -0.0296  0.2375  0.2427
  159MOL0     C20874   7.755   6.949   1.520  0.3425 -0.0552  0.3212
  159MOL0     C20875   7.863   6.982   1.590  0.6410  1.2126  0.1770
  159MOL0     C20876   7.899   6.947   1.734 -0.4434  0.8353 -0.2872
  159MOL0     C20877   7.954   6.800   1.731 -0.1586  0.1009 -0.6774
  159MOL0     C20878   7.866   6.671   1.734 -0.4866 -0.5683 -0.3418
  159MOL0     C20879   7.958   6.554   1.759 -0.5109 -0.4356  0.7249
  159MOL0     O20880   8.053   6.535   1.656 -0.3324 -0.2243  0.3389
  159MOL0     C20881   8.154   6.446   1.692  0.8114  0.7280  0.7081
  159MOL0     C20882   8.280   6.474   1.644  0.6597  0.6647  1.1459
  159MOL0     C20883   8.384   6.380   1.635 -0.1751 -0.3231 -0.6680
  159MOL0     C20884   8.367   6.259   1.695 -0.5063  0.1412 -0.0658
  159MOL0     C20885   8.481   6.167   1.681  0.0906  0.9806  0.2482
  159MOL0     O20886   8.601   6.218   1.644  0.0774 -0.2507  0.6134
  159MOL0     C20887   8.718   6.166   1.680 -0.0534 -0.0353 -0.1673
  159MOL0     C20888   8.740   6.091   1.796 -0.0887  0.3561  0.3995
  159MOL0     C20889   8.867   6.021   1.808 -1.1776  0.9709 -0.0471
  159MOL0     C20890   8.972   6.042   1.724  0.0114  0.3614  0.2136
  159MOL0     O20891   9.103   5.982   1.723  0.3521 -0.1340 -0.0475
  159MOL0     C20892   9.113   5.849   1.769  0.8242 -0.3841  0.1257
  159MOL0     C20893   9.237   5.773   1.716 -0.6703  0.1981 -0.8522
  159MOL0     C20894   9.247   5.763   1.563  0.9123 -0.2399 -0.1381
  159MOL0     C20895   9.371   5.694   1.495 -0.1347 -0.3835  0.0801
  159MOL0     C20896   9.389   5.718   1.347 -0.6371  0.3391 -0.3429
  159MOL0     C20897   9.254   5.702   1.269  0.6376 -0.3084 -1.2657
  159MOL0     C20898   9.271   5.713   1.123  1.0086  0.5364 -0.4356
  159MOL0     C20899   9.142   5.707   1.044  0.8145  0.0948 -0.0768
  159MOL0    Cl20900   9.063   5.544   1.065 -0.0877 -0.2591 -0.3027
  159MOL0     C20901   8.951   6.126   1.614  0.7341 -0.0206 -0.1970
  159MOL0     C20902   8.825   6.193   1.599 -0.9143  0.0695 -0.7282
  159MOL0     O20903   8.467   6.054   1.723  0.0788  0.5599  0.0472
  159MOL0     C20904   8.231   6.222   1.752 -1.0066 -0.0899 -0.0281
  159MOL0     C20905   8.133   6.314   1.735 -0.3567 -0.3092 -0.2839
  159MOL0     N20906   7.948   7.048   1.506  0.1118  1.1296  0.3161
  159MOL0     N20907   7.898   7.059   1.379  1.4635  0.2745 -0.3387
  159MOL0     C20908   7.119   6.897   1.939  0.0939 -0.3455  0.3672
  159MOL0     C20909   7.198   6.788   1.948 -0.8070  1.0796 -0.1944
  159MOL0     C20910   7.522   6.481   1.807  0.6099  0.2993  0.9193
  159MOL0     C20911   7.532   6.424   1.936 -0.4063 -0.4257  0.9189
  159MOL0     C20912   7.608   6.310   1.955  0.1653  0.4650 -0.9865
  159MOL0     C20913   7.682   6.257   1.847 -0.7928  0.2576  0.0830
  159MOL0     O20914   7.761   6.149   1.857  0.1407 -0.0297 -1.0747
  159MOL0     C20915   7.832   6.132   1.981 -0.2013 -0.1404 -0.2852
  159MOL0     C20916   7.940   6.035   1.961  1.0674  0.3351  0.9202
  159MOL0     C20917   7.901   5.898   1.997  0.0711 -0.8984 -0.0868
  159MOL0     C20918   8.010   5.799   2.029 -0.2041 -0.3404 -1.2691
  159MOL0     C20919   8.113   5.806   1.930  0.8117  0.1532  0.2247
  159MOL0     C20920   8.191   5.810   1.837 -0.4807 -0.2672 -0.5747
  159MOL0     C20921   7.674   6.314   1.714 -1.0107  0.6830 -1.2023
  159MOL0     C20922   7.596   6.422   1.690 -0.9694 -0.1292  0.2311
  159MOL0     H20923   7.260   6.723   1.627  0.3280  1.6584 -1.1440
  159MOL0     H20924   7.109   6.950   1.604 -3.6915  0.9222  0.6924
  159MOL0     H20925   6.900   7.194   1.726  0.9038  1.0193  1.3971
  159MOL0     H20926   6.976   7.091   1.607  1.5428 -0.1403  0.2511
  159MOL0     H20927   7.129   7.302   1.758  2.1707 -1.9680  0.8416
  159MOL0     H20928   7.049   7.339   1.601 -0.5183 -1.3351 -0.2628
  159MOL0     H20929   7.199   7.151   1.506 -1.7896 -1.8390  0.7263
  159MOL0     H20930   7.264   7.129   1.660 -1.1078  0.1934  1.4308
  159MOL0     H20931   7.310   7.413   1.576 -0.2972 -0.0470 -1.5395
  159MOL0     H20932   7.425   7.312   1.649 -0.6566 -0.7793  0.7940
  159MOL0     H20933   7.479   7.393   1.423 -0.9157  1.5497  2.1231
  159MOL0     H20934   7.346   7.301   1.356  1.6628  2.4418 -3.0916
  159MOL0     H20935   7.430   7.100   1.449 -0.7584  0.4009 -1.4099
  159MOL0     H20936   7.579   7.167   1.514 -2.1927 -0.4638  1.2268
  159MOL0     H20937   7.534   7.167   1.224 -0.5767  1.3978  0.4241
  159MOL0     H20938   7.671   7.240   1.316 -0.3180 -0.0170  5.1371
  159MOL0     H20939   7.726   7.036   1.206  0.2881 -0.3246  0.2260
  159MOL0     H20940   7.586   6.952   1.291 -3.4268  4.4122 -4.6793
  159MOL0     H20941   7.662   6.902   1.552  0.2657 -0.3168 -0.2649
  159MOL0     H20942   7.817   6.958   1.805 -0.7959 -2.1727 -0.0826
  159MOL0     H20943   7.980   7.016   1.759 -1.7973  2.5603 -0.5324
  159MOL0     H20944   8.022   6.799   1.817  0.0501 -0.7931 -0.8419
  159MOL0     H20945   8.011   6.802   1.638  0.4676  3.5094 -0.3289
  159MOL0     H20946   7.792   6.663   1.814  0.8405  0.2784  1.0195
  159MOL0     H20947   7.807   6.665   1.642 -1.3029 -2.0977  0.2389
  159MOL0     H20948   7.892   6.468   1.773 -2.0715  1.0489  3.1403
  159MOL0     H20949   8.007   6.570   1.855 -0.5141 -1.7676  0.9806
  159MOL0     H20950   8.289   6.579   1.616 -2.1519  0.4463 -1.0611
  159MOL0     H20951   8.479   6.415   1.596  1.5260  0.1188  3.3443
  159MOL0     H20952   8.659   6.085   1.867 -2.6819  3.0138 -2.0491
  159MOL0     H20953   8.889   5.953   1.890 -0.6936  2.8029  1.3936
  159MOL0     H20954   9.026   5.796   1.728  1.0120 -0.8013  0.2568
  159MOL0     H20955   9.114   5.847   1.879  1.8163  0.7244  0.1497
  159MOL0     H20956   9.248   5.676   1.765  0.4549  1.0070  0.5650
  159MOL0     H20957   9.321   5.834   1.749  0.2884 -1.5711  0.1357
  159MOL0     H20958   9.244   5.863   1.519  3.3403  0.4570  1.1111
  159MOL0     H20959   9.164   5.704   1.525 -1.5874  1.2290  2.6133
  159MOL0     H20960   9.461   5.730   1.545  0.5609 -1.3948 -0.4117
  159MOL0     H20961   9.378   5.587   1.515  4.7276 -0.2399  0.1959
  159MOL0     H20962   9.464   5.648   1.307 -0.7317  1.6670 -3.0908
  159MOL0     H20963   9.424   5.820   1.332 -0.9736  0.4589 -0.3112
  159MOL0     H20964   9.190   5.773   1.322  2.7764  0.9675 -0.2710
  159MOL0     H20965   9.209   5.605   1.294  1.5915 -0.9938 -2.1609
  159MOL0     H20966   9.324   5.807   1.108  0.0730  1.4950  1.7904
  159MOL0     H20967   9.327   5.621   1.104 -0.8727 -0.6194 -0.6344
  159MOL0     H20968   9.171   5.728   0.941  3.1415  1.3186  0.7516
  159MOL0     H20969   9.081   5.794   1.070  0.3559  0.2086 -1.4448
  159MOL0     H20970   9.021   6.146   1.534 -1.9149 -0.4793 -2.7959
  159MOL0     H20971   8.819   6.270   1.523  3.2579 -0.9391 -2.3640
  159MOL0     H20972   8.234   6.123   1.797  2.7318 -0.5997 -1.0796
  159MOL0     H20973   8.026   6.298   1.744 -0.7412  2.0705  0.0829
  159MOL0     H20974   7.080   6.957   2.021 -1.3158  0.1546 -0.6212
  159MOL0     H20975   7.227   6.737   2.040  0.8132 -2.0088 -2.2420
  159MOL0     H20976   7.477   6.464   2.021 -2.5931  2.2212 -1.5516
  159MOL0     H20977   7.623   6.267   2.054  0.5507 -0.6317 -1.5043
  159MOL0     H20978   7.767   6.096   2.062 -1.2494  0.6472 -0.7532
  159MOL0     H20979   7.873   6.231   2.004  1.7265 -0.7324 -0.9774
  159MOL0     H20980   7.961   6.031   1.854 -1.1339 -1.1177  0.4773
  159MOL0     H20981   8.023   6.065   2.026  0.0271  0.9478  1.9991
  159MOL0     H20982   7.859   5.856   1.905  1.0802 -0.5745 -0.7056
  159MOL0     H20983   7.826   5.894   2.077  0.3846 -5.8126  0.2305
  159MOL0     H20984   8.052   5.829   2.126 -0.3021  0.7363 -1.5472
  159MOL0     H20985   7.969   5.698   2.039 -2.7112  0.7025  0.1280
  159MOL0     H20986   8.264   5.798   1.760 -0.6832 -1.2031 -0.6293
  159MOL0     H20987   7.732   6.271   1.633 -0.8291  0.8958 -1.1877
  159MOL0     H20988   7.578   6.467   1.593 -3.0280  0.4374  0.8166
  160MOL0     O20989  11.221   2.759   1.519  0.1943  0.1538 -0.2123
  160MOL0     C20990  11.284   2.841   1.588 -0.2931 -0.5286  0.0663
  160MOL0     O20991  11.232   2.922   1.695 -0.6752  0.5909  0.2662
  160MOL0     C20992  11.100   2.937   1.727 -0.4531  0.7828 -0.2701
  160MOL0     C20993  10.996   2.936   1.637 -0.7316  0.1252  0.3928
  160MOL0     C20994  10.857   2.967   1.668 -0.3028 -0.4899  0.4496
  160MOL0     C20995  10.834   2.991   1.805 -0.1357 -0.2772 -0.1928
  160MOL0     O20996  10.708   3.011   1.853  0.4676 -0.1467 -0.2392
  160MOL0     C20997  10.594   2.996   1.771 -0.7757 -0.2389  0.3668
  160MOL0     C20998  10.484   3.067   1.850  0.4267  0.5379 -0.3220
  160MOL0     C20999  10.433   2.984   1.966  0.2219  1.1073 -0.1684
  160MOL0     C21000  10.335   3.070   2.051 -0.3780 -0.3949  0.8840
  160MOL0     C21001  10.301   3.003   2.183  0.5189 -0.3421 -0.0210
  160MOL0     C21002  10.189   3.086   2.251  0.5390 -0.7052  0.3258
  160MOL0     C21003  10.156   3.027   2.388 -0.2194  0.8451  0.1649
  160MOL0     C21004  10.046   3.112   2.460  0.0671  0.5177  0.2765
  160MOL0     N21005   9.914   3.122   2.386  0.2493  0.0138  0.8981
  160MOL0     C21006   9.851   3.014   2.322 -0.2036  0.1552  0.4217
  160MOL0     C21007   9.727   3.062   2.302  0.0903  0.7116  0.9308
  160MOL0     C21008   9.623   2.978   2.233  0.3954 -0.6572  0.6230
  160MOL0     C21009   9.481   3.039   2.241  0.4028  0.2029  0.3273
  160MOL0     C21010   9.398   2.990   2.365 -0.7322 -0.1208  0.1348
  160MOL0     C21011   9.250   3.019   2.346  0.5677  0.1883  0.2737
  160MOL0     O21012   9.207   2.909   2.256 -0.3824 -0.5280  0.4401
  160MOL0     C21013   9.072   2.908   2.226 -0.8387  0.4650 -0.3353
  160MOL0     C21014   8.961   2.948   2.302  0.1850  0.8779 -0.2487
  160MOL0     C21015   8.834   2.943   2.250  0.4676 -0.5435  0.3368
  160MOL0     C21016   8.809   2.894   2.115 -0.3908  0.0899  0.0280
  160MOL0     C21017   8.671   2.882   2.066 -0.1032 -0.3000  0.1629
  160MOL0     O21018   8.660   2.808   1.949 -0.4136  0.1256  0.1671
  160MOL0     C21019   8.543   2.820   1.882  1.0952  0.5037  0.6575
  160MOL0     C21020   8.555   2.872   1.750 -0.1679  0.2339 -0.2937
  160MOL0     C21021   8.441   2.886   1.672  0.9438 -0.3071 -0.4021
  160MOL0     C21022   8.321   2.830   1.710 -0.1606 -0.1098  0.2052
  160MOL0     O21023   8.229   2.830   1.608 -0.5867  0.1672 -0.0487
  160MOL0     C21024   8.131   2.728   1.611  0.2728  0.1428 -0.0437
  160MOL0     C21025   8.035   2.751   1.488  0.1759  0.8658 -0.8164
  160MOL0     C21026   7.945   2.873   1.489 -0.4399 -0.7072 -0.1634
  160MOL0     C21027   7.812   2.871   1.415 -0.3258  0.3000  0.2355
  160MOL0     C21028   7.730   3.006   1.416  0.0231  0.5499 -0.4393
  160MOL0     C21029   7.800   3.113   1.325  1.0304 -0.2377 -0.2903
  160MOL0     C21030   7.839   3.079   1.181 -0.3272 -0.2027 -0.8318
  160MOL0     C21031   7.727   3.054   1.086  1.1354 -0.3410  0.5475
  160MOL0    Cl21032   7.780   2.982   0.930  0.5981 -0.2195  0.4100
  160MOL0     C21033   8.312   2.770   1.838  0.0845 -0.1401 -0.0590
  160MOL0     C21034   8.428   2.762   1.931  0.7897  0.3369 -0.1410
  160MOL0     O21035   8.581   2.943   2.122 -0.3402 -0.3838  0.4358
  160MOL0     C21036   8.918   2.848   2.048  0.2509 -0.2799 -0.3162
  160MOL0     C21037   9.051   2.860   2.095 -0.3372 -0.3349  0.1529
  160MOL0     N21038   9.708   3.181   2.361 -0.0919 -0.0471  0.3628
  160MOL0     N21039   9.828   3.225   2.401  0.0875  0.9652 -0.7152
  160MOL0     C21040  10.936   3.002   1.897  0.0883 -0.3528 -0.2071
  160MOL0     C21041  11.073   2.980   1.861 -0.5172  0.2058 -0.2183
  160MOL0     C21042  11.432   2.863   1.553  0.1402 -0.8799 -0.4003
  160MOL0     C21043  11.498   2.781   1.469  0.5676  0.5348  0.8007
  160MOL0     C21044  11.631   2.800   1.433  0.1101 -1.1595  0.0632
  160MOL0     C21045  11.702   2.917   1.466 -0.2970 -0.3931 -0.0066
  160MOL0     O21046  11.830   2.952   1.429  0.0062 -0.7474 -0.2829
  160MOL0     C21047  11.903   2.852   1.364 -0.1095 -0.4011 -0.4050
  160MOL0     C21048  12.036   2.911   1.330 -0.0753 -0.5737  0.1249
  160MOL0     C21049  12.030   3.044   1.251 -0.5261  0.7399  0.2814
  160MOL0     C21050  12.166   3.082   1.204 -0.3319 -0.1782 -0.4333
  160MOL0     C21051  12.176   3.215   1.130 -0.4446 -0.0389 -0.5128
  160MOL0     C21052  12.169   3.313   1.062 -0.4800  0.2489 -0.2535
  160MOL0     C21053  11.630   3.015   1.544  0.6814  0.2251  0.1386
  160MOL0     C21054  11.498   2.983   1.588 -0.2923 -0.4996  0.0221
  160MOL0     H21055  11.009   2.926   1.530  1.8658 -2.4174  0.8284
  160MOL0     H21056  10.775   2.961   1.598  0.3840 -0.5920 -0.3564
  160MOL0     H21057  10.574   2.889   1.772  0.7967 -0.5771 -0.7890
  160MOL0     H21058  10.597   3.021   1.664  0.3755 -3.4795 -0.4870
  160MOL0     H21059  10.402   3.092   1.782 -0.8332 -1.1713  0.5186
  160MOL0     H21060  10.519   3.166   1.882  0.4622  0.6320 -0.6399
  160MOL0     H21061  10.515   2.952   2.031  1.0194  0.7376 -1.3219
  160MOL0     H21062  10.378   2.898   1.928  1.7793  0.3742 -0.8550
  160MOL0     H21063  10.370   3.171   2.069 -0.9889 -0.3687  2.0432
  160MOL0     H21064  10.243   3.060   1.993  0.8048 -2.6699 -0.7637
  160MOL0     H21065  10.391   2.990   2.244 -0.5096  1.1418  1.9241
  160MOL0     H21066  10.256   2.904   2.169  2.0598 -0.8937 -1.4338
  160MOL0     H21067  10.103   3.093   2.183  0.3806  2.2353  0.7316
  160MOL0     H21068  10.218   3.191   2.262 -1.5870 -0.1042  0.6631
  160MOL0     H21069  10.103   2.932   2.389  1.4270 -0.1591 -1.7714
  160MOL0     H21070  10.247   3.022   2.448 -1.1725 -3.6982  1.5843
  160MOL0     H21071  10.078   3.212   2.488 -1.9950  1.0756  0.8061
  160MOL0     H21072  10.027   3.060   2.554 -1.8370  1.8843  0.7080
  160MOL0     H21073   9.912   2.928   2.297 -0.5575  0.0936 -0.2593
  160MOL0     H21074   9.630   2.879   2.278  1.8082 -0.3976  1.0329
  160MOL0     H21075   9.661   2.983   2.130 -1.1917  3.1990  0.0258
  160MOL0     H21076   9.428   3.002   2.153  1.9631  3.3952 -2.1361
  160MOL0     H21077   9.472   3.147   2.228  0.2499  0.3679  1.6695
  160MOL0     H21078   9.415   2.882   2.366  0.2719 -0.0209 -1.6016
  160MOL0     H21079   9.441   3.018   2.462  1.2378 -1.9210 -0.1606
  160MOL0     H21080   9.218   3.120   2.319  3.3584  1.7116  2.0966
  160MOL0     H21081   9.208   2.997   2.445 -2.1269 -2.7762 -1.3582
  160MOL0     H21082   8.976   2.975   2.406 -0.0081 -0.6221  0.2024
  160MOL0     H21083   8.744   2.975   2.301  0.4858  1.4029 -0.7467
  160MOL0     H21084   8.651   2.887   1.701 -0.4314 -0.7197 -1.1486
  160MOL0     H21085   8.452   2.940   1.578  2.1664 -0.5502 -0.4148
  160MOL0     H21086   8.064   2.748   1.695  0.3633  4.8472 -0.8104
  160MOL0     H21087   8.184   2.633   1.622  3.1902  1.7266  0.6454
  160MOL0     H21088   7.970   2.663   1.478  0.8016  0.0696  1.4375
  160MOL0     H21089   8.096   2.760   1.398  2.4339 -1.7021  0.3189
  160MOL0     H21090   8.018   2.947   1.455  0.9495 -1.5620  0.8405
  160MOL0     H21091   7.923   2.899   1.593 -0.5488 -1.6626  0.0643
  160MOL0     H21092   7.827   2.853   1.308  0.4000 -0.3036  0.4309
  160MOL0     H21093   7.752   2.787   1.449 -2.0361  0.9344 -1.0768
  160MOL0     H21094   7.722   3.041   1.519  1.3653  3.0617 -1.1098
  160MOL0     H21095   7.629   2.982   1.381 -1.0335 -0.4997  2.9799
  160MOL0     H21096   7.898   3.133   1.369  0.9810 -0.3541 -0.1326
  160MOL0     H21097   7.729   3.195   1.340  2.9569  0.9804  3.5009
  160MOL0     H21098   7.887   3.166   1.136  0.3741 -0.1688 -0.0310
  160MOL0     H21099   7.912   2.998   1.187 -3.5101 -3.2316  0.7008
  160MOL0     H21100   7.674   3.148   1.064 -4.0606 -2.5456  2.0152
  160MOL0     H21101   7.643   3.005   1.135  1.3708 -1.3596 -0.0412
  160MOL0     H21102   8.214   2.726   1.856  0.2123 -1.2250 -1.8239
  160MOL0     H21103   8.423   2.717   2.029 -0.5948 -2.4666 -1.3854
  160MOL0     H21104   8.897   2.809   1.948  2.4267 -0.4590 -0.7450
  160MOL0     H21105   9.139   2.815   2.049  1.3272  1.8957  1.0001
  160MOL0     H21106  10.909   3.012   2.002  1.1313 -0.4359  0.0791
  160MOL0     H21107  11.157   2.988   1.929  1.0889 -3.7062 -1.4608
  160MOL0     H21108  11.440   2.699   1.427 -0.3848  1.4057  0.3929
  160MOL0     H21109  11.678   2.729   1.366 -1.0324  1.4786 -3.8274
  160MOL0     H21110  11.868   2.811   1.269 -0.6741  0.2755 -0.4949
  160MOL0     H21111  11.920   2.760   1.421 -0.5522 -0.5846 -0.5701
  160MOL0     H21112  12.088   2.918   1.426  1.7989 -0.2378 -0.8643
  160MOL0     H21113  12.087   2.839   1.265 -0.4769 -1.0150  0.2884
  160MOL0     H21114  11.993   3.124   1.316 -0.8996  1.0033 -0.2495
  160MOL0     H21115  11.977   3.044   1.156  3.8346 -2.1264 -2.5046
  160MOL0     H21116  12.236   3.099   1.287 -0.9131  2.7693 -0.4351
  160MOL0     H21117  12.196   3.006   1.131 -0.2800  2.1412 -2.9761
  160MOL0     H21118  12.151   3.395   0.995  1.0240 -1.2598 -2.5983
  160MOL0     H21119  11.660   3.119   1.558 -2.6448  1.5901 -1.7782
  160MOL0     H21120  11.451   3.058   1.651  0.7728  0.4407 -0.2916
  161MOL0     O21121   4.503   1.320  10.750  0.2354  0.4962 -0.7481
  161MOL0     C21122   4.514   1.229  10.672  0.4136 -0.4264  0.2332
  161MOL0     O21123   4.487   1.244  10.540  0.2705  0.4791  0.6027
  161MOL0     C21124   4.489   1.371  10.486  0.7716 -0.4362 -0.0877
  161MOL0     C21125   4.361   1.427  10.478  0.2047  0.4221 -0.4130
  161MOL0     C21126   4.342   1.562  10.429  0.2934  0.2535  0.9841
  161MOL0     C21127   4.460   1.637  10.410 -0.0016 -0.6167 -0.6941
  161MOL0     O21128   4.459   1.778  10.389  0.7974 -0.3739 -0.5798
  161MOL0     C21129   4.363   1.839  10.476 -0.7879 -0.8034 -0.3498
  161MOL0     C21130   4.394   1.991  10.480  0.6688  0.3371 -0.4165
  161MOL0     C21131   4.356   2.050  10.338  0.2673  0.7341 -0.9921
  161MOL0     C21132   4.376   2.192  10.337  0.1372 -1.0289 -0.3991
  161MOL0     C21133   4.304   2.270  10.218 -0.5418  0.1003  0.1728
  161MOL0     C21134   4.154   2.253  10.216 -0.6082 -1.2273  0.1104
  161MOL0     C21135   4.108   2.338  10.090 -0.5473 -0.1756 -0.4142
  161MOL0     C21136   3.957   2.377  10.095  0.1239 -0.2912 -0.6258
  161MOL0     N21137   3.931   2.448   9.969  1.1507  0.0745 -0.2345
  161MOL0     C21138   3.885   2.386   9.856 -0.5954  0.0032  0.5551
  161MOL0     C21139   3.866   2.488   9.770 -0.7770 -0.2386  0.0849
  161MOL0     C21140   3.837   2.497   9.618  0.2877 -0.0688  1.2759
  161MOL0     C21141   3.685   2.457   9.591 -0.0828  0.1345 -1.3156
  161MOL0     C21142   3.646   2.483   9.446  0.4859  0.0453 -0.3573
  161MOL0     C21143   3.489   2.484   9.429  0.1252 -0.6208 -0.2661
  161MOL0     O21144   3.434   2.359   9.385 -0.3120 -0.3286 -0.5088
  161MOL0     C21145   3.305   2.320   9.406 -0.3419  0.2380 -0.0616
  161MOL0     C21146   3.207   2.403   9.461  0.1266  0.4720  1.2911
  161MOL0     C21147   3.077   2.368   9.473 -0.4368  0.3984 -0.4720
  161MOL0     C21148   3.032   2.237   9.434  1.0567 -0.7200  0.4367
  161MOL0     C21149   2.885   2.214   9.431 -0.6475  0.6345 -0.5053
  161MOL0     O21150   2.852   2.083   9.423 -0.0553 -0.3735  0.5902
  161MOL0     C21151   2.737   2.062   9.492  0.1201  0.8016 -0.4222
  161MOL0     C21152   2.739   1.986   9.609 -1.0146 -0.2660  0.0410
  161MOL0     C21153   2.617   1.950   9.680 -0.3485 -1.2611 -0.6373
  161MOL0     C21154   2.492   2.000   9.630 -0.0237 -0.3336  0.2420
  161MOL0     O21155   2.374   1.987   9.697 -0.4058  0.7331  0.4489
  161MOL0     C21156   2.361   1.890   9.804 -0.1593 -0.2915  1.0030
  161MOL0     C21157   2.207   1.873   9.831 -0.3632 -0.2328  0.3513
  161MOL0     C21158   2.142   2.002   9.879 -0.1341 -0.0728 -0.2142
  161MOL0     C21159   1.988   1.995   9.907  0.8773  0.3073  1.0193
  161MOL0     C21160   1.935   2.091  10.001  0.8117 -0.0477  0.0396
  161MOL0     C21161   1.785   2.064  10.033 -0.3288  0.4438  0.7124
  161MOL0     C21162   1.741   2.134  10.158 -0.9054  0.9944 -0.0305
  161MOL0     C21163   1.605   2.092  10.214  0.7574 -0.4850  1.1709
  161MOL0    Cl21164   1.477   2.143  10.103  0.0298  0.0127  0.9169
  161MOL0     C21165   2.486   2.064   9.507  0.3199 -0.7031  0.4722
  161MOL0     C21166   2.611   2.092   9.442  0.0467  1.3057  1.8623
  161MOL0     O21167   2.820   2.307   9.456 -0.5293 -0.0153 -0.9479
  161MOL0     C21168   3.126   2.147   9.392 -0.4382  0.1037  0.5548
  161MOL0     C21169   3.266   2.193   9.380  0.4378  0.7376  0.1495
  161MOL0     N21170   3.897   2.607   9.832 -0.4801  0.2483  0.0979
  161MOL0     N21171   3.930   2.586   9.958  0.2393  0.4259 -0.0579
  161MOL0     C21172   4.594   1.573  10.414 -0.0903  0.4198 -0.1004
  161MOL0     C21173   4.602   1.436  10.442  0.6953 -0.0382 -0.1196
  161MOL0     C21174   4.558   1.097  10.732  0.4293 -0.0826  0.6010
  161MOL0     C21175   4.542   0.973  10.667 -0.0521  0.4547  0.8253
  161MOL0     C21176   4.576   0.858  10.735  0.2029  0.5085  0.8243
  161MOL0     C21177   4.612   0.856  10.870 -0.3483 -0.2705 -0.0857
  161MOL0     O21178   4.630   0.730  10.928 -0.0116 -0.4219  0.2997
  161MOL0     C21179   4.646   0.723  11.072 -0.0704  0.2187 -0.4418
  161MOL0     C21180   4.726   0.593  11.103  0.4445 -1.0831 -0.0609
  161MOL0     C21181   4.730   0.570  11.259 -0.0635 -0.4656 -0.1025
  161MOL0     C21182   4.825   0.458  11.313 -0.6431  0.4726 -0.2695
  161MOL0     C21183   4.962   0.482  11.263  0.4346 -0.2855  0.0032
  161MOL0     C21184   5.075   0.475  11.216  1.1079  0.2100 -0.4652
  161MOL0     C21185   4.630   0.976  10.935 -0.7461 -0.7356 -0.1769
  161MOL0     C21186   4.605   1.095  10.861 -0.2409  0.7386  0.6837
  161MOL0     H21187   4.275   1.367  10.507 -0.2644  1.0863 -0.4045
  161MOL0     H21188   4.244   1.603  10.406 -0.4896 -2.5806 -1.5383
  161MOL0     H21189   4.374   1.794  10.575 -1.4493 -1.1324 -0.4214
  161MOL0     H21190   4.261   1.816  10.445 -0.7514 -0.1259 -1.0075
  161MOL0     H21191   4.501   1.997  10.503  0.6504 -2.4296  0.7420
  161MOL0     H21192   4.347   2.045  10.563 -2.0923  0.0358 -1.6691
  161MOL0     H21193   4.254   2.017  10.317  1.2530 -3.9842  0.3548
  161MOL0     H21194   4.415   2.001  10.259 -0.1221 -2.5046  0.5573
  161MOL0     H21195   4.334   2.234  10.429  0.3304 -0.8380 -0.3974
  161MOL0     H21196   4.482   2.220  10.336 -0.7467  2.8067 -0.7527
  161MOL0     H21197   4.349   2.234  10.125  3.3348  3.0324  0.6853
  161MOL0     H21198   4.342   2.372  10.211  0.5187 -0.3071 -0.1605
  161MOL0     H21199   4.111   2.287  10.311  1.1604 -0.8342  0.8043
  161MOL0     H21200   4.129   2.150  10.192  4.1364 -2.6048  0.2126
  161MOL0     H21201   4.168   2.429  10.080 -1.5653  0.4694 -0.8904
  161MOL0     H21202   4.115   2.277   9.999 -0.3984 -3.2417  1.5208
  161MOL0     H21203   3.936   2.439  10.183  0.1841 -1.2551  0.0802
  161MOL0     H21204   3.903   2.283  10.101 -0.1724 -0.3366 -2.9889
  161MOL0     H21205   3.880   2.280   9.832 -0.9503  0.1078  0.1468
  161MOL0     H21206   3.901   2.428   9.562  0.9565  0.0614  1.8651
  161MOL0     H21207   3.856   2.600   9.588  3.1436 -0.6151  0.8992
  161MOL0     H21208   3.619   2.505   9.664  1.5494  2.5719 -1.3322
  161MOL0     H21209   3.660   2.356   9.625 -1.6994  1.3999  1.6018
  161MOL0     H21210   3.692   2.576   9.411 -1.2603  0.3841 -1.9546
  161MOL0     H21211   3.685   2.393   9.398 -2.2695 -3.2103  2.9303
  161MOL0     H21212   3.466   2.566   9.361 -0.4815 -0.0126  0.6425
  161MOL0     H21213   3.445   2.498   9.528  2.1549  1.9586  0.3726
  161MOL0     H21214   3.240   2.500   9.496  0.5056  0.2078  1.6789
  161MOL0     H21215   3.013   2.451   9.503  0.9593  1.6579 -0.8589
  161MOL0     H21216   2.836   1.953   9.645 -1.4299 -0.1785  1.2865
  161MOL0     H21217   2.622   1.883   9.765 -1.8044 -0.2471  0.2796
  161MOL0     H21218   2.408   1.934   9.892  3.3549  4.9496 -2.9005
  161MOL0     H21219   2.403   1.792   9.779  0.0314  0.1324 -0.4546
  161MOL0     H21220   2.182   1.801   9.910 -3.9193  1.0849  0.5765
  161MOL0     H21221   2.149   1.838   9.745  1.5454  0.5878 -1.3440
  161MOL0     H21222   2.168   2.084   9.812  1.5698 -0.2974  0.1271
  161MOL0     H21223   2.194   2.024   9.973  1.4973  0.8732 -1.2846
  161MOL0     H21224   1.934   2.016   9.814  0.2568  1.9203  1.7126
  161MOL0     H21225   1.969   1.896   9.949 -1.1905  1.1156  2.1220
  161MOL0     H21226   1.945   2.188   9.951  0.3944  0.3518  0.7201
  161MOL0     H21227   1.990   2.096  10.095 -0.6096 -2.1385  1.0572
  161MOL0     H21228   1.783   1.958  10.060  1.8557  0.3467  0.6862
  161MOL0     H21229   1.712   2.083   9.953 -1.5020 -0.1780  1.5965
  161MOL0     H21230   1.815   2.112  10.236 -0.1650  1.7923 -0.4841
  161MOL0     H21231   1.754   2.242  10.143  1.6787  0.5681 -1.5178
  161MOL0     H21232   1.588   2.123  10.318 -0.2252 -0.0246  0.8905
  161MOL0     H21233   1.614   1.983  10.207  2.3625 -0.3195  0.2623
  161MOL0     H21234   2.395   2.101   9.461 -0.4248 -1.3088  1.4239
  161MOL0     H21235   2.609   2.146   9.348  1.4737 -1.9761 -0.2605
  161MOL0     H21236   3.107   2.049   9.349 -1.8360  1.5553 -2.3600
  161MOL0     H21237   3.341   2.136   9.326 -1.6537 -1.2161 -0.8356
  161MOL0     H21238   4.682   1.629  10.384 -0.8776  1.4347 -0.5914
  161MOL0     H21239   4.697   1.385  10.430  1.5571  1.6323 -0.6035
  161MOL0     H21240   4.516   0.946  10.565 -0.7764  0.0979  1.0930
  161MOL0     H21241   4.560   0.761  10.689  0.7577 -0.0956  1.8517
  161MOL0     H21242   4.549   0.718  11.122 -0.7787  0.4652 -1.7454
  161MOL0     H21243   4.696   0.810  11.117 -2.4085  0.5979  1.6369
  161MOL0     H21244   4.672   0.512  11.055 -1.4195 -0.0750  0.2525
  161MOL0     H21245   4.829   0.596  11.065 -0.4141  2.7038 -2.7067
  161MOL0     H21246   4.635   0.517  11.273 -0.4434 -0.5330 -2.5456
  161MOL0     H21247   4.725   0.667  11.309 -0.1063  0.0304 -1.0454
  161MOL0     H21248   4.819   0.442  11.421  1.2304 -3.0318 -0.5560
  161MOL0     H21249   4.806   0.360  11.269  2.6607  0.0411 -1.0597
  161MOL0     H21250   5.174   0.471  11.176  0.7955 -2.3319 -1.1405
  161MOL0     H21251   4.661   0.983  11.038  2.1182  0.6826 -1.0229
  161MOL0     H21252   4.605   1.188  10.917  0.2734  0.4312  1.1959
  162MOL0     O21253   6.052   6.583   8.121 -0.9507  0.2318  0.5315
  162MOL0     C21254   6.049   6.490   8.195  0.8069 -0.0287  0.0210
  162MOL0     O21255   5.937   6.437   8.251 -0.1219  0.5861 -0.4058
  162MOL0     C21256   5.817   6.470   8.196  0.3845 -0.7319 -0.2428
  162MOL0     C21257   5.775   6.604   8.207 -0.0445  1.1504  0.3815
  162MOL0     C21258   5.657   6.635   8.149 -0.2869 -0.0947  0.1036
  162MOL0     C21259   5.569   6.539   8.110 -0.3691  0.4225  0.6041
  162MOL0     O21260   5.454   6.591   8.050 -0.6029  0.1181 -0.7050
  162MOL0     C21261   5.340   6.557   8.124 -0.4831 -0.8472 -0.7294
  162MOL0     C21262   5.323   6.633   8.252  0.1566  0.0588  0.1491
  162MOL0     C21263   5.304   6.778   8.221  0.7464 -0.1497  0.2938
  162MOL0     C21264   5.357   6.869   8.325  0.2029 -0.2997  0.1455
  162MOL0     C21265   5.360   7.021   8.292  0.6132  0.5182  0.1143
  162MOL0     C21266   5.220   7.087   8.280  0.4870  0.5036  0.0404
  162MOL0     C21267   5.232   7.231   8.233  0.5374 -0.8017  0.1424
  162MOL0     C21268   5.093   7.292   8.213  0.5437  0.0121  0.6704
  162MOL0     N21269   4.977   7.253   8.294  0.7405  0.2525  0.0325
  162MOL0     C21270   4.964   7.300   8.420  0.6007 -0.2139  0.7104
  162MOL0     C21271   4.839   7.272   8.451 -0.0763  1.0019  0.6331
  162MOL0     C21272   4.773   7.316   8.574 -0.0687 -0.4975 -0.6684
  162MOL0     C21273   4.629   7.372   8.546 -1.1197  0.2072  0.0106
  162MOL0     C21274   4.541   7.252   8.557 -0.6835  0.6865  0.7457
  162MOL0     C21275   4.391   7.285   8.532 -0.4564 -0.3107  0.0002
  162MOL0     O21276   4.318   7.163   8.541 -0.3819 -0.7048 -0.0936
  162MOL0     C21277   4.182   7.167   8.567 -0.0477 -0.2682  0.4918
  162MOL0     C21278   4.107   7.071   8.505 -0.0316 -0.5900 -0.4877
  162MOL0     C21279   3.974   7.057   8.529 -0.6676 -0.3101 -0.7088
  162MOL0     C21280   3.915   7.125   8.636  0.2524 -0.5535  0.7196
  162MOL0     C21281   3.779   7.075   8.676 -0.9817 -1.0449 -0.0804
  162MOL0     O21282   3.733   7.160   8.771  0.3485 -0.6969  0.5260
  162MOL0     C21283   3.656   7.128   8.883 -0.1930 -0.5274 -0.3926
  162MOL0     C21284   3.624   7.004   8.926 -0.4875 -0.3576 -0.0808
  162MOL0     C21285   3.539   6.987   9.038  0.0602 -0.2533 -0.6575
  162MOL0     C21286   3.495   7.099   9.117  0.7321 -0.6487  0.5727
  162MOL0     O21287   3.438   7.081   9.244 -0.8524 -0.1458 -0.0001
  162MOL0     C21288   3.369   6.963   9.284 -0.6937 -0.4500  0.8962
  162MOL0     C21289   3.331   6.980   9.430 -0.2493  0.1636 -0.6275
  162MOL0     C21290   3.290   6.843   9.483 -0.3649 -0.3691  0.2377
  162MOL0     C21291   3.250   6.856   9.635  0.6151 -0.0824  0.7946
  162MOL0     C21292   3.382   6.855   9.722 -0.0376 -0.4624  1.1117
  162MOL0     C21293   3.367   6.812   9.868 -0.3458 -0.8067 -0.8601
  162MOL0     C21294   3.497   6.836   9.936 -0.0825 -0.1439 -0.4545
  162MOL0     C21295   3.573   6.707   9.960  0.4785  0.0251  0.0505
  162MOL0    Cl21296   3.714   6.741  10.056  0.0218 -0.2277 -0.3346
  162MOL0     C21297   3.544   7.224   9.077  0.2196 -0.1173 -0.4822
  162MOL0     C21298   3.624   7.236   8.965 -0.3671 -0.5522  0.4189
  162MOL0     O21299   3.729   6.962   8.647 -0.4572  0.0755  0.0902
  162MOL0     C21300   3.988   7.228   8.702 -0.9068 -0.9449 -0.6006
  162MOL0     C21301   4.128   7.246   8.669  0.8542  0.1015  0.2860
  162MOL0     N21302   4.781   7.199   8.352 -0.0933  1.0969  0.0791
  162MOL0     N21303   4.858   7.202   8.249 -0.1814  0.4605  0.0016
  162MOL0     C21304   5.598   6.407   8.118  0.9153  0.8702 -0.8635
  162MOL0     C21305   5.724   6.369   8.145 -1.0143  0.3846  0.1403
  162MOL0     C21306   6.176   6.422   8.223 -0.8300 -1.0283 -0.5824
  162MOL0     C21307   6.204   6.362   8.350 -0.1869  0.2026  0.9281
  162MOL0     C21308   6.330   6.312   8.369  0.4902  0.5318  0.3457
  162MOL0     C21309   6.428   6.312   8.270 -0.2010 -0.4434 -0.9646
  162MOL0     O21310   6.545   6.235   8.289  0.1463 -1.1354 -0.0569
  162MOL0     C21311   6.531   6.106   8.348 -1.3015  0.6408  0.3174
  162MOL0     C21312   6.666   6.048   8.376 -0.6569 -0.0817 -0.6623
  162MOL0     C21313   6.677   5.929   8.480  0.0530  0.7883 -0.2441
  162MOL0     C21314   6.821   5.889   8.527  0.0724  0.7945  0.2820
  162MOL0     C21315   6.943   5.888   8.440 -0.0912  0.2964 -0.1012
  162MOL0     C21316   7.039   5.889   8.367  0.5539  0.9010  0.0596
  162MOL0     C21317   6.408   6.373   8.158  0.6208 -1.0212  0.1703
  162MOL0     C21318   6.278   6.431   8.125  0.5307  0.3819 -0.7115
  162MOL0     H21319   5.845   6.672   8.253  0.0449  1.6325 -0.4469
  162MOL0     H21320   5.621   6.736   8.138  0.6444  0.3261  0.7510
  162MOL0     H21321   5.340   6.451   8.150  4.1279 -0.9624 -0.3223
  162MOL0     H21322   5.260   6.581   8.054 -2.8201 -0.0766  2.0187
  162MOL0     H21323   5.415   6.621   8.310 -0.6373  0.4005  1.5226
  162MOL0     H21324   5.232   6.593   8.299 -0.4729 -1.2163 -2.0425
  162MOL0     H21325   5.198   6.803   8.216  0.0650 -2.8716 -0.8146
  162MOL0     H21326   5.343   6.802   8.121 -1.4385 -1.7338 -1.0374
  162MOL0     H21327   5.299   6.844   8.415  2.4070 -4.6262  0.6100
  162MOL0     H21328   5.460   6.840   8.348 -0.2904 -2.4153 -0.0893
  162MOL0     H21329   5.407   7.028   8.193 -2.5066  0.8794 -1.4948
  162MOL0     H21330   5.418   7.073   8.368  3.3507 -1.0185 -0.7615
  162MOL0     H21331   5.173   7.092   8.379 -1.3114 -0.4759 -0.7311
  162MOL0     H21332   5.157   7.038   8.206  1.2560  0.6667 -0.7339
  162MOL0     H21333   5.277   7.294   8.310 -1.9603  2.0613 -0.5492
  162MOL0     H21334   5.284   7.234   8.136  0.5549  2.0449  0.1447
  162MOL0     H21335   5.064   7.272   8.110 -2.9139  0.4342  1.4556
  162MOL0     H21336   5.106   7.400   8.220  0.8164  0.1665 -1.6799
  162MOL0     H21337   5.035   7.343   8.491  1.2280 -2.4106  1.4918
  162MOL0     H21338   4.839   7.390   8.621  0.6651 -0.0743 -2.3170
  162MOL0     H21339   4.774   7.231   8.643  0.0654  0.0932  0.0778
  162MOL0     H21340   4.627   7.414   8.445  0.9065  1.2109  0.3474
  162MOL0     H21341   4.602   7.451   8.615 -2.5140 -1.0544  0.9786
  162MOL0     H21342   4.579   7.175   8.489  3.0162  3.1183 -0.2343
  162MOL0     H21343   4.555   7.210   8.656  0.4541  0.0329  0.3254
  162MOL0     H21344   4.369   7.309   8.428 -1.0546  1.1223  0.4311
  162MOL0     H21345   4.367   7.373   8.593  2.5868  1.2920 -0.8802
  162MOL0     H21346   4.164   7.006   8.440  0.0552 -2.7402  1.5781
  162MOL0     H21347   3.928   6.975   8.474 -1.7839 -0.0174 -0.2307
  162MOL0     H21348   3.658   6.924   8.862 -1.0001  0.1004 -0.9527
  162MOL0     H21349   3.503   6.888   9.064 -2.2032  0.7290  0.1461
  162MOL0     H21350   3.436   6.878   9.272  2.6249  2.0095  0.6495
  162MOL0     H21351   3.279   6.961   9.223 -0.7547  2.4118  0.7788
  162MOL0     H21352   3.247   7.051   9.433  1.5161  2.5075 -2.7881
  162MOL0     H21353   3.416   7.015   9.488 -1.5867  1.2122  0.7868
  162MOL0     H21354   3.380   6.781   9.480 -1.0191 -1.4184 -3.3069
  162MOL0     H21355   3.208   6.801   9.425 -1.5665  1.2132  0.7157
  162MOL0     H21356   3.186   6.939   9.667 -2.9619 -1.9094 -1.0445
  162MOL0     H21357   3.201   6.760   9.653  4.1915 -1.9166  1.7886
  162MOL0     H21358   3.417   6.958   9.716 -0.4172 -0.3602  0.6374
  162MOL0     H21359   3.470   6.809   9.676 -0.3507 -0.2869  0.3357
  162MOL0     H21360   3.341   6.707   9.880  1.5679 -1.2962 -0.6730
  162MOL0     H21361   3.284   6.857   9.923  2.4782  0.8748  2.4401
  162MOL0     H21362   3.563   6.901   9.878 -0.9662  0.2084 -1.0685
  162MOL0     H21363   3.477   6.883  10.033 -1.4096  0.3018 -0.9222
  162MOL0     H21364   3.605   6.675   9.861  2.7209  2.0915  0.0255
  162MOL0     H21365   3.504   6.635  10.005  0.2945 -0.1406 -0.4915
  162MOL0     H21366   3.524   7.305   9.145  0.2521 -3.0525  3.3288
  162MOL0     H21367   3.665   7.330   8.932  0.9723 -2.0224 -2.4281
  162MOL0     H21368   3.940   7.283   8.782 -2.2005 -0.5263 -1.6199
  162MOL0     H21369   4.176   7.328   8.721  0.4096  0.2259  0.4959
  162MOL0     H21370   5.524   6.337   8.083  1.1704 -2.3961  4.0783
  162MOL0     H21371   5.759   6.267   8.147  0.2140  0.8017  1.9422
  162MOL0     H21372   6.131   6.354   8.431 -1.3325 -1.8009 -0.2195
  162MOL0     H21373   6.345   6.267   8.467  0.0963 -1.4984 -0.4828
  162MOL0     H21374   6.485   6.036   8.278 -1.1077  1.0057 -0.1822
  162MOL0     H21375   6.469   6.116   8.438 -0.4070  1.1108  0.8987
  162MOL0     H21376   6.729   6.018   8.292 -0.0466 -0.2721 -0.1495
  162MOL0     H21377   6.722   6.130   8.422 -1.2732  1.2589 -2.1968
  162MOL0     H21378   6.635   5.836   8.441 -1.8127  1.2103  0.6614
  162MOL0     H21379   6.621   5.954   8.570  0.1118  0.4859 -0.1229
  162MOL0     H21380   6.847   5.963   8.604 -2.9314  0.4392  1.7443
  162MOL0     H21381   6.816   5.791   8.574  1.8730  1.3564  1.8281
  162MOL0     H21382   7.125   5.904   8.306  1.4034  0.0257  1.0058
  162MOL0     H21383   6.482   6.375   8.078 -0.4365  1.8830 -0.8748
  162MOL0     H21384   6.272   6.483   8.030 -1.8394  0.1686 -0.7287
  163MOL0     O21385   1.386   9.870  11.317  0.0489 -0.5909  0.5520
  163MOL0     C21386   1.460   9.821  11.401 -0.0866 -0.1087 -0.1117
  163MOL0     O21387   1.419   9.719  11.490 -0.1920 -0.2585 -0.2945
  163MOL0     C21388   1.289   9.689  11.486  0.0825  0.0456  0.5382
  163MOL0     C21389   1.249   9.558  11.451 -0.1053 -0.8193 -0.3881
  163MOL0     C21390   1.119   9.519  11.461 -0.3110  0.0324 -0.6351
  163MOL0     C21391   1.015   9.601  11.501  0.4941  0.2353 -0.1111
  163MOL0     O21392   0.878   9.573  11.502 -0.3010 -0.4046  0.1386
  163MOL0     C21393   0.834   9.452  11.460 -0.2673  0.5414  0.3110
  163MOL0     C21394   0.686   9.461  11.436 -0.2611  0.2325 -0.1120
  163MOL0     C21395   0.612   9.489  11.565 -0.3670 -0.4357 -0.4612
  163MOL0     C21396   0.460   9.466  11.552 -0.2181 -0.9848 -0.4120
  163MOL0     C21397   0.380   9.577  11.491  0.3880  0.3295  0.7370
  163MOL0     C21398   0.255   9.512  11.425 -0.4534 -0.4181 -1.3113
  163MOL0     C21399   0.273   9.457  11.281 -0.4999 -0.2344  0.6320
  163MOL0     C21400   0.144   9.393  11.234  1.2539 -0.4610 -0.0670
  163MOL0     N21401   0.092   9.276  11.300  1.3225  1.4082 -0.2428
  163MOL0     C21402  -0.001   9.271  11.402  0.3637 -0.0654  0.8259
  163MOL0     C21403  -0.041   9.141  11.396 -0.2159 -0.7728 -0.0498
  163MOL0     C21404  -0.150   9.087  11.486  1.3355 -0.5306 -0.5423
  163MOL0     C21405  -0.287   9.097  11.414  0.6981 -0.5304 -0.2793
  163MOL0     C21406  -0.392   9.039  11.514  0.2665 -0.1827  0.0321
  163MOL0     C21407  -0.519   9.008  11.439 -0.0684  0.5228 -0.5012
  163MOL0     O21408  -0.575   9.129  11.392  0.0827 -0.7081  0.3811
  163MOL0     C21409  -0.701   9.155  11.429  0.6322  0.2967 -1.1326
  163MOL0     C21410  -0.821   9.084  11.387 -0.3665 -0.3426  1.1335
  163MOL0     C21411  -0.953   9.126  11.431 -0.5288 -0.4477  0.0500
  163MOL0     C21412  -0.961   9.240  11.511  0.6110 -0.2978  0.1336
  163MOL0     C21413  -1.109   9.283  11.530 -0.1983 -0.5446 -0.7422
  163MOL0     O21414  -1.206   9.233  11.442 -0.2499 -0.3490  0.6837
  163MOL0     C21415  -1.336   9.270  11.457  0.2484 -0.1380  0.2333
  163MOL0     C21416  -1.364   9.406  11.450 -0.0597 -0.3587 -0.0622
  163MOL0     C21417  -1.488   9.457  11.461  0.0730  0.7016 -0.0968
  163MOL0     C21418  -1.592   9.367  11.490 -0.4932  0.1837 -0.2038
  163MOL0     O21419  -1.713   9.432  11.506  0.1908 -0.5574 -1.2127
  163MOL0     C21420  -1.843   9.368  11.491  0.4478  0.6272 -0.7275
  163MOL0     C21421  -1.955   9.472  11.498  0.3026 -0.1459  0.0558
  163MOL0     C21422  -2.011   9.513  11.361 -0.5678  0.4873 -0.3072
  163MOL0     C21423  -2.121   9.414  11.314  0.5098  0.2696 -0.2954
  163MOL0     C21424  -2.127   9.420  11.159 -0.4291 -0.2036  0.4534
  163MOL0     C21425  -2.190   9.545  11.091  0.2576 -0.1418 -0.4899
  163MOL0     C21426  -2.321   9.589  11.147 -0.0140 -0.0682  0.0345
  163MOL0     C21427  -2.414   9.676  11.060  0.1400  0.8407  1.1016
  163MOL0    Cl21428  -2.556   9.750  11.154 -0.1198  0.7597  0.4782
  163MOL0     C21429  -1.573   9.224  11.506 -0.0958  0.0869 -0.1877
  163MOL0     C21430  -1.445   9.183  11.477 -0.1224 -0.2254 -0.0852
  163MOL0     O21431  -1.129   9.362  11.629  0.0712  0.0132 -0.7002
  163MOL0     C21432  -0.847   9.305  11.567 -0.5681 -0.9616 -0.1828
  163MOL0     C21433  -0.724   9.265  11.513  0.0183 -0.5560  0.2000
  163MOL0     N21434   0.043   9.072  11.309  0.5176 -0.2645 -0.5029
  163MOL0     N21435   0.111   9.156  11.240  0.2387 -0.6462  0.1209
  163MOL0     C21436   1.048   9.735  11.546  0.9950 -0.1441  0.3015
  163MOL0     C21437   1.183   9.774  11.533  0.0405 -0.2132 -0.2841
  163MOL0     C21438   1.596   9.874  11.421  0.4687  0.7616 -0.1059
  163MOL0     C21439   1.641   9.973  11.342  0.3594 -0.6816 -0.3367
  163MOL0     C21440   1.770  10.022  11.356 -0.7328  0.8847  0.3394
  163MOL0     C21441   1.861   9.966  11.451 -0.1343 -0.1585  0.3612
  163MOL0     O21442   1.992  10.009  11.445  0.1816 -0.1780  0.1649
  163MOL0     C21443   2.093   9.964  11.546  0.1398  0.5177  0.3117
  163MOL0     C21444   2.157   9.821  11.518  0.0066 -0.0110 -0.2386
  163MOL0     C21445   2.201   9.819  11.369 -0.1346 -0.0970 -0.0046
  163MOL0     C21446   2.252   9.684  11.323  0.2926 -0.4985 -0.0554
  163MOL0     C21447   2.369   9.645  11.410  0.2360 -0.4157  0.4991
  163MOL0     C21448   2.431   9.604  11.501 -0.6886 -0.0983 -0.4754
  163MOL0     C21449   1.803   9.871  11.539  0.3361 -0.6738  0.2806
  163MOL0     C21450   1.679   9.810  11.517  0.1923  0.4220  0.6212
  163MOL0     H21451   1.332   9.494  11.423  0.2008 -0.0517 -1.3195
  163MOL0     H21452   1.095   9.418  11.428 -0.9185  0.1766 -0.6416
  163MOL0     H21453   0.870   9.371  11.524  2.4827 -2.0974 -4.0322
  163MOL0     H21454   0.877   9.439  11.360 -0.7578  1.6994 -0.0674
  163MOL0     H21455   0.645   9.363  11.411 -0.3306  0.8132 -2.5215
  163MOL0     H21456   0.654   9.537  11.363 -0.5578  0.8909  0.6908
  163MOL0     H21457   0.633   9.593  11.589  2.1383 -1.1396  0.6465
  163MOL0     H21458   0.650   9.430  11.649 -0.3867  0.5681  0.2703
  163MOL0     H21459   0.455   9.369  11.502  3.0892 -2.6159  2.0442
  163MOL0     H21460   0.420   9.451  11.653  1.8432 -0.5792  0.5233
  163MOL0     H21461   0.430   9.630  11.410 -0.7394  0.6702  0.2366
  163MOL0     H21462   0.350   9.653  11.564 -3.3290 -0.6574  0.4823
  163MOL0     H21463   0.175   9.583  11.405  0.4740  0.2822 -2.6903
  163MOL0     H21464   0.221   9.427  11.486  1.7458 -0.6677 -0.3145
  163MOL0     H21465   0.296   9.545  11.221  1.2792 -0.4489  0.9333
  163MOL0     H21466   0.357   9.389  11.262 -2.6616 -2.5895 -1.1794
  163MOL0     H21467   0.155   9.362  11.129  0.3996 -0.9751 -0.0086
  163MOL0     H21468   0.071   9.474  11.239  2.3621  0.6198 -0.5598
  163MOL0     H21469  -0.037   9.357  11.458 -0.9337 -0.5133  0.6997
  163MOL0     H21470  -0.163   9.158  11.568 -1.1592 -0.0919 -1.2471
  163MOL0     H21471  -0.125   8.988  11.525 -1.0876 -1.0734 -0.2140
  163MOL0     H21472  -0.285   9.034  11.325  3.0252  0.4979 -1.0370
  163MOL0     H21473  -0.314   9.199  11.389  0.7283 -0.9774 -2.2573
  163MOL0     H21474  -0.359   8.939  11.544  1.5851  0.4393  0.7421
  163MOL0     H21475  -0.407   9.098  11.605  1.8941 -0.9503  0.8435
  163MOL0     H21476  -0.585   8.958  11.510 -1.2624 -0.6510 -2.3294
  163MOL0     H21477  -0.506   8.938  11.356  0.2759 -1.8803  1.4776
  163MOL0     H21478  -0.814   9.011  11.307 -3.1223  1.3693 -0.8476
  163MOL0     H21479  -1.043   9.080  11.392 -1.4494  0.0124  1.5451
  163MOL0     H21480  -1.301   9.490  11.424 -4.2068  2.7805 -0.9212
  163MOL0     H21481  -1.507   9.560  11.433 -2.3131  0.7171  1.3269
  163MOL0     H21482  -1.859   9.299  11.574 -3.8952  4.0976  1.8085
  163MOL0     H21483  -1.848   9.312  11.398  2.6765  0.4879 -0.8178
  163MOL0     H21484  -1.911   9.561  11.544 -1.1355 -0.2050  1.6373
  163MOL0     H21485  -2.031   9.433  11.566 -0.8518  3.8026  1.2724
  163MOL0     H21486  -1.931   9.502  11.288  1.4317 -2.0663  2.0517
  163MOL0     H21487  -2.055   9.613  11.362 -1.1982  0.2237  0.3903
  163MOL0     H21488  -2.102   9.310  11.342  0.4598  0.2064 -0.4951
  163MOL0     H21489  -2.216   9.439  11.362 -0.1415 -1.4907 -0.5953
  163MOL0     H21490  -2.188   9.334  11.128 -0.5172 -0.5704  1.5982
  163MOL0     H21491  -2.025   9.409  11.120 -0.3692 -1.1947  0.8652
  163MOL0     H21492  -2.205   9.529  10.983 -0.1888  0.2413 -0.4889
  163MOL0     H21493  -2.119   9.628  11.099  0.2226  0.0872 -2.0953
  163MOL0     H21494  -2.380   9.501  11.176 -0.4173  0.4937  0.9655
  163MOL0     H21495  -2.313   9.648  11.238 -0.7943 -0.3885  0.3253
  163MOL0     H21496  -2.452   9.607  10.985  1.0882  0.7425  0.7006
  163MOL0     H21497  -2.347   9.746  11.009  1.0900  0.4448  1.7846
  163MOL0     H21498  -1.660   9.164  11.527 -1.5457  0.8753 -3.3414
  163MOL0     H21499  -1.416   9.080  11.493  0.5032 -0.2223 -1.0834
  163MOL0     H21500  -0.847   9.386  11.640  2.3560 -2.2669  1.4292
  163MOL0     H21501  -0.636   9.326  11.526  0.9793 -1.9429  0.3385
  163MOL0     H21502   0.974   9.808  11.579  2.3681  0.7660  1.5135
  163MOL0     H21503   1.210   9.876  11.560 -0.9297 -0.4096  1.5475
  163MOL0     H21504   1.600  10.017  11.251  0.5859  0.8533  0.2941
  163MOL0     H21505   1.813  10.094  11.287 -1.0121  0.4504 -0.2972
  163MOL0     H21506   2.059   9.975  11.650 -1.8848  0.5338 -0.2943
  163MOL0     H21507   2.171  10.038  11.526  1.0829 -0.6782 -0.5775
  163MOL0     H21508   2.237   9.815  11.593  1.0930 -0.8003 -1.4314
  163MOL0     H21509   2.080   9.745  11.538  0.3804 -0.6146 -1.0739
  163MOL0     H21510   2.274   9.901  11.365 -0.4407  0.1582 -0.4175
  163MOL0     H21511   2.115   9.843  11.306 -0.4806 -0.6856  0.2381
  163MOL0     H21512   2.184   9.601  11.346  0.6731 -0.4302  1.3946
  163MOL0     H21513   2.280   9.688  11.217  0.5182 -1.2627 -0.0296
  163MOL0     H21514   2.496   9.555  11.570  0.0465  1.3362 -0.1121
  163MOL0     H21515   1.871   9.822  11.608 -0.4001 -1.4156  0.5030
  163MOL0     H21516   1.657   9.717  11.569  3.1079 -0.5902  0.2017
  164MOL0     O21517   6.031   8.349   0.608  0.0753 -0.3707  1.0917
  164MOL0     C21518   6.087   8.452   0.653  0.2330  0.3369  0.5672
  164MOL0     O21519   6.058   8.524   0.757  0.2736  0.0955  0.1046
  164MOL0     C21520   5.959   8.494   0.851 -0.2473  0.3416 -0.2414
  164MOL0     C21521   5.990   8.518   0.986  0.1442  0.6462 -0.2318
  164MOL0     C21522   5.885   8.502   1.079  0.2547 -0.1849  0.3680
  164MOL0     C21523   5.753   8.468   1.044 -0.7312 -0.5538 -0.7962
  164MOL0     O21524   5.652   8.448   1.139 -0.3977  0.0473 -0.2030
  164MOL0     C21525   5.574   8.325   1.126  0.1519 -0.7845  1.3376
  164MOL0     C21526   5.503   8.297   1.252 -0.1405 -0.5363 -0.0664
  164MOL0     C21527   5.365   8.232   1.253 -0.2581 -0.1502 -0.1722
  164MOL0     C21528   5.318   8.214   1.392 -0.0022 -0.0085  0.5985
  164MOL0     C21529   5.180   8.131   1.398 -0.0521 -0.8044  0.4031
  164MOL0     C21530   5.121   8.143   1.537  0.1534  0.1347 -0.0194
  164MOL0     C21531   4.985   8.080   1.527  0.2216 -0.6967 -0.8888
  164MOL0     C21532   4.914   8.103   1.653 -0.1132  0.3782  0.9996
  164MOL0     N21533   4.839   8.230   1.665  0.0922  1.0257  0.8299
  164MOL0     C21534   4.736   8.272   1.591  0.7424  0.0667 -0.1969
  164MOL0     C21535   4.719   8.404   1.627 -0.0831  0.1433 -0.5639
  164MOL0     C21536   4.622   8.510   1.593 -0.0258 -0.1178  0.2864
  164MOL0     C21537   4.544   8.567   1.714  0.1859 -1.0337 -1.1343
  164MOL0     C21538   4.480   8.451   1.790  0.6689 -0.4705  0.4280
  164MOL0     C21539   4.367   8.505   1.885  0.0483  0.6349  0.2230
  164MOL0     O21540   4.247   8.433   1.878 -0.2914  1.3336 -0.2965
  164MOL0     C21541   4.138   8.464   1.959  0.5055 -0.1879 -0.3836
  164MOL0     C21542   4.044   8.366   1.993  0.1472 -0.2548  0.3872
  164MOL0     C21543   3.929   8.389   2.070  0.3934 -0.4318  0.8209
  164MOL0     C21544   3.908   8.517   2.115  0.4703  1.0419  0.2881
  164MOL0     C21545   3.789   8.546   2.195  0.2235  0.0740  0.2065
  164MOL0     O21546   3.816   8.631   2.295  0.6217 -0.2369 -0.1805
  164MOL0     C21547   3.716   8.626   2.392  0.1984 -0.6039  0.6144
  164MOL0     C21548   3.668   8.511   2.455  0.8821  0.2872  1.5865
  164MOL0     C21549   3.565   8.524   2.544  0.3804  0.0002  0.2352
  164MOL0     C21550   3.509   8.648   2.570 -0.2332  0.3500  0.2243
  164MOL0     O21551   3.398   8.649   2.652 -0.2754  0.2655 -0.6990
  164MOL0     C21552   3.341   8.777   2.683  0.3195 -0.7137  0.8740
  164MOL0     C21553   3.236   8.784   2.786 -1.2130  0.5929  0.5977
  164MOL0     C21554   3.109   8.710   2.743  0.1827  0.1835 -0.7118
  164MOL0     C21555   2.998   8.721   2.850 -0.1518 -0.4029 -0.0019
  164MOL0     C21556   2.881   8.637   2.791  0.2332 -0.1926 -0.1192
  164MOL0     C21557   2.757   8.633   2.883  0.4100  0.2669 -0.5993
  164MOL0     C21558   2.717   8.770   2.944 -0.1142  0.6914 -0.3606
  164MOL0     C21559   2.583   8.769   3.017  0.0276 -0.7724  0.8750
  164MOL0    Cl21560   2.436   8.720   2.930 -0.0185  0.3823  0.0035
  164MOL0     C21561   3.563   8.763   2.519 -0.0442  1.4751  0.1032
  164MOL0     C21562   3.660   8.748   2.418  0.9698  0.0057  0.5409
  164MOL0     O21563   3.680   8.489   2.179  0.1624 -0.3614 -0.4886
  164MOL0     C21564   4.005   8.615   2.095 -0.6830 -0.2362  0.4907
  164MOL0     C21565   4.123   8.597   2.012  0.3851 -0.1408  0.7536
  164MOL0     N21566   4.815   8.433   1.718  0.1313 -0.3682 -0.2118
  164MOL0     N21567   4.891   8.332   1.728 -0.4262 -0.6337  0.3597
  164MOL0     C21568   5.732   8.448   0.915 -0.1398 -0.6236  0.5161
  164MOL0     C21569   5.829   8.454   0.815  0.0035 -0.7051 -0.1159
  164MOL0     C21570   6.204   8.499   0.577 -0.7682  0.0291  0.2296
  164MOL0     C21571   6.252   8.623   0.594 -0.3494 -0.2587  0.1866
  164MOL0     C21572   6.384   8.658   0.562 -0.6249 -0.7787  1.1426
  164MOL0     C21573   6.469   8.560   0.500 -0.8407  0.4906  0.4590
  164MOL0     O21574   6.602   8.589   0.464 -0.3914  0.5761 -0.5179
  164MOL0     C21575   6.614   8.650   0.334  0.0773 -1.1252  0.0575
  164MOL0     C21576   6.747   8.598   0.279  0.6888 -0.9266 -0.0256
  164MOL0     C21577   6.856   8.642   0.371 -1.0880 -0.8837  0.2062
  164MOL0     C21578   6.989   8.582   0.331  0.2604 -0.0664 -0.6417
  164MOL0     C21579   7.049   8.628   0.210 -0.1220 -1.0801 -0.0124
  164MOL0     C21580   7.105   8.676   0.114 -0.6891 -0.1228  0.6972
  164MOL0     C21581   6.417   8.431   0.481  0.1201  0.6849  0.7227
  164MOL0     C21582   6.296   8.396   0.534  0.8598 -0.3748 -0.2716
  164MOL0     H21583   6.094   8.525   1.015  0.3949 -3.1798  0.3955
  164MOL0     H21584   5.923   8.502   1.180 -0.1662 -0.1859  0.5260
  164MOL0     H21585   5.638   8.244   1.091  0.1341  0.4409 -1.8912
  164MOL0     H21586   5.506   8.346   1.043 -0.9755  0.1421  2.4479
  164MOL0     H21587   5.490   8.397   1.294 -2.2361  0.5037 -2.8799
  164MOL0     H21588   5.568   8.239   1.318 -2.1688 -0.2208  2.3767
  164MOL0     H21589   5.373   8.138   1.200 -2.0304  0.3936 -1.5259
  164MOL0     H21590   5.294   8.298   1.201  1.2976  1.3702 -0.4477
  164MOL0     H21591   5.392   8.164   1.455 -0.3803 -0.4068  0.7354
  164MOL0     H21592   5.311   8.316   1.431  1.7850  0.4232 -0.1246
  164MOL0     H21593   5.197   8.028   1.366 -1.3171 -0.6687 -0.7614
  164MOL0     H21594   5.115   8.184   1.328 -1.1135  0.6719  2.4038
  164MOL0     H21595   5.104   8.248   1.562  0.3995 -0.2776  2.0225
  164MOL0     H21596   5.189   8.111   1.616 -1.0776  0.7443  1.3342
  164MOL0     H21597   4.917   8.105   1.444  0.3584 -0.0897 -0.8222
  164MOL0     H21598   5.002   7.973   1.509  1.5221 -1.0324  1.7814
  164MOL0     H21599   4.990   8.096   1.731 -0.1173  1.3110  1.1021
  164MOL0     H21600   4.832   8.031   1.655 -2.7717  2.9428 -2.3667
  164MOL0     H21601   4.682   8.223   1.511  2.2938 -1.1251 -0.5636
  164MOL0     H21602   4.554   8.479   1.514 -0.2745  1.5992 -0.2078
  164MOL0     H21603   4.672   8.594   1.544  0.0451 -0.0383  0.4890
  164MOL0     H21604   4.475   8.651   1.698 -1.3751 -2.4018 -1.8471
  164MOL0     H21605   4.616   8.607   1.786  1.1513 -1.3620 -1.8860
  164MOL0     H21606   4.434   8.382   1.718  0.9717  0.7614 -0.9772
  164MOL0     H21607   4.553   8.400   1.854  1.9007  2.1444  1.2172
  164MOL0     H21608   4.326   8.603   1.859 -1.4014  0.1162  0.4369
  164MOL0     H21609   4.397   8.503   1.991  1.7306  0.0414 -0.2271
  164MOL0     H21610   4.042   8.264   1.957  0.2227 -0.2807  0.4570
  164MOL0     H21611   3.857   8.310   2.084 -0.4000  0.1627  0.2073
  164MOL0     H21612   3.692   8.409   2.428 -0.9735  0.1827  0.0917
  164MOL0     H21613   3.516   8.438   2.589  0.3619  0.5587  1.3297
  164MOL0     H21614   3.297   8.824   2.594  0.4581 -1.4690  0.3974
  164MOL0     H21615   3.419   8.845   2.719 -0.1890  1.4232 -1.6784
  164MOL0     H21616   3.208   8.887   2.812  3.1953  2.5894 -1.4972
  164MOL0     H21617   3.279   8.736   2.875  2.2965  1.4180 -0.4624
  164MOL0     H21618   3.141   8.606   2.745 -0.9770 -0.1800 -0.6153
  164MOL0     H21619   3.070   8.737   2.644 -0.6696 -2.8340 -1.3051
  164MOL0     H21620   3.035   8.682   2.945  0.2989  0.4693  0.1945
  164MOL0     H21621   2.977   8.827   2.870 -0.5673 -0.4472 -0.1966
  164MOL0     H21622   2.910   8.532   2.777  0.0836 -0.2147 -0.2571
  164MOL0     H21623   2.836   8.682   2.702 -1.4353 -1.8902 -0.1985
  164MOL0     H21624   2.762   8.564   2.968 -0.4030 -2.4082 -2.5716
  164MOL0     H21625   2.667   8.596   2.832 -0.6695  1.3841  0.4267
  164MOL0     H21626   2.803   8.799   3.005  0.7902  2.2168 -2.2466
  164MOL0     H21627   2.717   8.829   2.852  0.8179  1.2001 -0.0482
  164MOL0     H21628   2.572   8.875   3.040 -2.6178 -0.1766 -2.4025
  164MOL0     H21629   2.587   8.709   3.109 -1.4687 -1.6629  0.4048
  164MOL0     H21630   3.537   8.868   2.530  1.0359  1.5513  2.9652
  164MOL0     H21631   3.695   8.836   2.365 -1.3418  1.6792  1.5933
  164MOL0     H21632   3.992   8.714   2.137  2.8564 -0.3735  2.2500
  164MOL0     H21633   4.194   8.676   1.991  0.6252  0.1215  2.3870
  164MOL0     H21634   5.634   8.416   0.880 -1.0450  2.6797 -0.3476
  164MOL0     H21635   5.800   8.427   0.714  1.1177  0.2445 -0.6951
  164MOL0     H21636   6.205   8.711   0.635  2.2646  0.6420  1.4886
  164MOL0     H21637   6.422   8.758   0.581 -2.3253  0.2536 -0.4455
  164MOL0     H21638   6.616   8.756   0.358 -1.4615 -1.0840  0.0757
  164MOL0     H21639   6.530   8.622   0.270 -0.5271  0.0681  0.3065
  164MOL0     H21640   6.749   8.489   0.285 -1.7219 -0.9718  0.9827
  164MOL0     H21641   6.763   8.631   0.176  0.1010 -1.1554 -0.1996
  164MOL0     H21642   6.827   8.615   0.473 -1.4625 -2.7914 -0.3544
  164MOL0     H21643   6.860   8.748   0.347 -0.9083 -1.5545 -3.1321
  164MOL0     H21644   7.069   8.609   0.401 -0.2349  0.6758 -0.3459
  164MOL0     H21645   6.960   8.476   0.331 -0.0667  0.0225 -1.0362
  164MOL0     H21646   7.145   8.711   0.021  0.9431 -1.8340  0.7127
  164MOL0     H21647   6.473   8.355   0.429 -0.8338 -0.5667  1.4529
  164MOL0     H21648   6.277   8.289   0.529 -0.0845 -0.4695  3.1914
  165MOL0     O21649   4.470   5.613  10.903 -0.2592 -0.5173 -0.7752
  165MOL0     C21650   4.475   5.730  10.855 -0.3129  0.5194 -1.6244
  165MOL0     O21651   4.577   5.775  10.789 -0.6306  0.2890 -0.3278
  165MOL0     C21652   4.695   5.698  10.764  0.0281  0.0889 -0.4149
  165MOL0     C21653   4.752   5.622  10.874 -0.0827  0.0403  0.6028
  165MOL0     C21654   4.870   5.557  10.856  0.7952  0.4715  0.3132
  165MOL0     C21655   4.937   5.559  10.731  0.6809 -0.7863  0.6389
  165MOL0     O21656   5.053   5.486  10.715  0.1385 -1.0415  0.6703
  165MOL0     C21657   5.088   5.457  10.576 -0.6741 -1.1540  0.6374
  165MOL0     C21658   5.203   5.552  10.524  0.3429  0.3361 -0.0527
  165MOL0     C21659   5.221   5.526  10.380 -0.1072 -1.1864  1.4842
  165MOL0     C21660   5.105   5.551  10.277 -0.3922 -0.1658  1.1975
  165MOL0     C21661   5.148   5.589  10.136 -0.5457  1.0695  0.1631
  165MOL0     C21662   5.043   5.534  10.032  0.5583 -0.0493 -0.0312
  165MOL0     C21663   5.101   5.576   9.897  0.4668  0.2418  0.6234
  165MOL0     C21664   4.985   5.579   9.798  0.1698 -0.1530  0.3821
  165MOL0     N21665   5.036   5.614   9.667  1.0093 -0.0584 -1.2493
  165MOL0     C21666   5.117   5.535   9.596 -0.2073  0.6555  0.3832
  165MOL0     C21667   5.135   5.610   9.486  0.1144  0.4008  0.5227
  165MOL0     C21668   5.241   5.575   9.383  0.3737  1.7258  0.2595
  165MOL0     C21669   5.213   5.621   9.236  0.2027 -0.3736 -0.0851
  165MOL0     C21670   5.340   5.632   9.145 -0.0041 -0.5619  0.4176
  165MOL0     C21671   5.440   5.733   9.204 -0.1177  0.8127  0.0300
  165MOL0     O21672   5.558   5.648   9.194  0.7269  0.4154 -0.4892
  165MOL0     C21673   5.675   5.720   9.213 -0.1381  1.4128  0.1866
  165MOL0     C21674   5.694   5.838   9.289 -0.2281  0.1411  0.3473
  165MOL0     C21675   5.825   5.888   9.319  0.8273  0.3361 -0.3862
  165MOL0     C21676   5.941   5.816   9.282 -0.3707 -0.2288 -0.1856
  165MOL0     C21677   6.078   5.863   9.317  0.7140 -1.2159 -1.1297
  165MOL0     O21678   6.185   5.806   9.256  0.6207  0.8824  0.4626
  165MOL0     C21679   6.310   5.844   9.290  0.4592  0.6351 -0.4392
  165MOL0     C21680   6.373   5.968   9.275 -0.3633 -0.3248 -0.9099
  165MOL0     C21681   6.499   5.996   9.323  0.5189 -0.3202  0.7110
  165MOL0     C21682   6.564   5.905   9.402  0.0117  1.2214 -0.2012
  165MOL0     O21683   6.684   5.919   9.457  0.3434  0.4271 -0.1117
  165MOL0     C21684   6.761   6.033   9.416 -0.3711  0.5355 -0.0196
  165MOL0     C21685   6.886   6.034   9.504  0.4477 -0.6653  0.5288
  165MOL0     C21686   7.011   6.005   9.425 -0.2354  0.2663 -1.1789
  165MOL0     C21687   7.012   5.873   9.350 -0.1894 -0.3192 -0.1000
  165MOL0     C21688   7.156   5.812   9.341  0.0496  0.5345 -0.6649
  165MOL0     C21689   7.236   5.891   9.237 -0.0129  0.6776  0.1613
  165MOL0     C21690   7.385   5.845   9.251  0.7407  0.2337  0.1421
  165MOL0     C21691   7.402   5.711   9.174  0.1564 -0.2643  0.1444
  165MOL0    Cl21692   7.381   5.725   8.992  0.3382 -0.4376 -0.0181
  165MOL0     C21693   6.490   5.792   9.436 -0.4332  0.2240 -0.5852
  165MOL0     C21694   6.375   5.755   9.371 -0.4377  0.6664 -0.0330
  165MOL0     O21695   6.083   5.937   9.417 -0.4918 -0.1375  0.3586
  165MOL0     C21696   5.921   5.703   9.196 -0.0843  0.0487 -0.5186
  165MOL0     C21697   5.792   5.650   9.171  0.6805 -0.4979 -0.4864
  165MOL0     N21698   5.060   5.724   9.489  0.3133  0.7501 -0.5291
  165MOL0     N21699   5.010   5.734   9.603 -0.6342  0.3951  0.0969
  165MOL0     C21700   4.882   5.638  10.623  0.8737  0.4180  0.7165
  165MOL0     C21701   4.763   5.702  10.643  0.2406  0.3536  0.6670
  165MOL0     C21702   4.349   5.810  10.876 -0.4241  0.1330  0.1447
  165MOL0     C21703   4.258   5.776  10.975 -0.3954  0.7671  0.2027
  165MOL0     C21704   4.146   5.856  11.004 -0.6639  0.7186 -0.3851
  165MOL0     C21705   4.135   5.983  10.953  0.8819  0.1685 -0.5201
  165MOL0     O21706   4.025   6.054  10.999 -0.6150 -0.4307  0.3963
  165MOL0     C21707   4.034   6.196  10.995 -0.6438  0.2303  0.7115
  165MOL0     C21708   3.898   6.239  11.065  0.3135 -0.0353  0.2666
  165MOL0     C21709   3.855   6.392  11.055 -0.2321  0.4057  0.3986
  165MOL0     C21710   3.818   6.432  10.911 -0.3307 -0.2864 -0.2405
  165MOL0     C21711   3.792   6.570  10.896 -0.1991  0.8757 -0.5349
  165MOL0     C21712   3.777   6.686  10.875 -0.8228  0.1703 -0.1838
  165MOL0     C21713   4.218   6.027  10.857 -0.5730  0.4230 -0.1325
  165MOL0     C21714   4.324   5.934  10.809  0.4301 -0.3385 -0.2869
  165MOL0     H21715   4.713   5.617  10.975 -2.8490 -0.7422 -0.4397
  165MOL0     H21716   4.909   5.493  10.934 -3.6884 -2.0658  0.7668
  165MOL0     H21717   5.004   5.455  10.507  0.2970  0.1096 -0.6363
  165MOL0     H21718   5.136   5.359  10.574  6.2198  1.6455  0.0164
  165MOL0     H21719   5.296   5.545  10.581  0.0973 -1.2887  0.1986
  165MOL0     H21720   5.174   5.657  10.537  1.8197  0.7223  0.2314
  165MOL0     H21721   5.262   5.426  10.363 -1.6962 -1.7006  0.4499
  165MOL0     H21722   5.300   5.592  10.342 -0.5895 -0.6352  1.4315
  165MOL0     H21723   5.052   5.455  10.275 -2.7226  1.0618 -0.5048
  165MOL0     H21724   5.042   5.634  10.309 -0.5530  0.5655 -0.8434
  165MOL0     H21725   5.242   5.533  10.125 -0.6757  1.0691 -1.0943
  165MOL0     H21726   5.164   5.696  10.123 -1.5969  1.3473  1.0755
  165MOL0     H21727   4.949   5.585  10.053  1.4288  1.0588  1.3931
  165MOL0     H21728   5.014   5.430  10.049 -0.9572  0.4209  0.4506
  165MOL0     H21729   5.145   5.676   9.890 -4.0574  2.3603 -1.5114
  165MOL0     H21730   5.170   5.497   9.866  1.5668  1.9513 -1.5834
  165MOL0     H21731   4.904   5.646   9.827 -0.3768  0.6076 -2.5600
  165MOL0     H21732   4.938   5.481   9.799  0.6354 -0.3889 -0.1596
  165MOL0     H21733   5.164   5.438   9.615 -2.4702 -0.8209 -1.0802
  165MOL0     H21734   5.259   5.467   9.380  2.3518  1.8960  2.5332
  165MOL0     H21735   5.336   5.617   9.419  2.0400 -1.8291  0.4615
  165MOL0     H21736   5.173   5.722   9.250 -0.4676 -0.9719  3.3183
  165MOL0     H21737   5.150   5.545   9.189 -0.0158 -1.0546  1.2467
  165MOL0     H21738   5.381   5.532   9.131 -0.1245 -1.0496  3.0336
  165MOL0     H21739   5.311   5.672   9.047 -1.1535 -0.7682  0.6595
  165MOL0     H21740   5.412   5.752   9.308 -0.9666 -0.9853  0.1571
  165MOL0     H21741   5.438   5.826   9.146 -3.1836 -0.4977 -2.2497
  165MOL0     H21742   5.608   5.894   9.326 -0.9868 -0.0237 -1.0890
  165MOL0     H21743   5.823   5.979   9.378 -4.0198  0.8014 -0.8264
  165MOL0     H21744   6.315   6.038   9.215 -1.3660 -0.0182  0.3550
  165MOL0     H21745   6.547   6.089   9.294  1.4216 -1.0501 -0.2568
  165MOL0     H21746   6.700   6.122   9.435  2.1225  3.0444 -2.8442
  165MOL0     H21747   6.798   6.031   9.314  0.2074 -0.6374  0.2014
  165MOL0     H21748   6.874   5.972   9.593 -0.4675  1.3598  1.8961
  165MOL0     H21749   6.901   6.138   9.536 -0.9267 -0.9888  2.4306
  165MOL0     H21750   7.099   6.010   9.490  0.3387 -2.7460 -1.5555
  165MOL0     H21751   7.027   6.087   9.355  0.2807  0.3607 -0.9602
  165MOL0     H21752   6.953   5.803   9.410 -1.2268 -1.7020 -2.5915
  165MOL0     H21753   6.971   5.878   9.248 -0.5214  2.8612  0.0977
  165MOL0     H21754   7.141   5.711   9.301  0.0921 -1.1222  3.1272
  165MOL0     H21755   7.205   5.811   9.438  0.8902 -2.4290 -1.0132
  165MOL0     H21756   7.228   5.996   9.267  3.5944  0.7991  1.1490
  165MOL0     H21757   7.211   5.880   9.131  3.0095  0.4427 -0.6075
  165MOL0     H21758   7.440   5.924   9.199  0.6035  1.5808  1.9386
  165MOL0     H21759   7.408   5.850   9.358  0.3235  0.9497  0.2017
  165MOL0     H21760   7.335   5.638   9.220 -0.4383  1.2623  1.8391
  165MOL0     H21761   7.499   5.662   9.186  0.0254 -0.1946  1.6709
  165MOL0     H21762   6.521   5.726   9.517 -0.3677 -0.8802 -1.4873
  165MOL0     H21763   6.323   5.664   9.398 -1.5502  1.5211  0.8052
  165MOL0     H21764   6.008   5.648   9.162 -0.6124 -0.0595 -1.7333
  165MOL0     H21765   5.779   5.554   9.121 -2.2966  0.7643 -2.4036
  165MOL0     H21766   4.932   5.651  10.528  1.0335  2.0273  0.9950
  165MOL0     H21767   4.720   5.780  10.581  1.6065  4.0203  3.9247
  165MOL0     H21768   4.282   5.693  11.040 -1.0722  0.1680 -0.2918
  165MOL0     H21769   4.072   5.820  11.076  0.1580  2.5093  1.4513
  165MOL0     H21770   4.023   6.233  10.892 -1.9862  0.2455  0.8401
  165MOL0     H21771   4.132   6.231  11.029  1.0536 -2.5336 -0.9507
  165MOL0     H21772   3.818   6.181  11.018  1.7528 -1.7941 -0.0782
  165MOL0     H21773   3.902   6.214  11.172  3.3861 -1.5801 -0.1147
  165MOL0     H21774   3.932   6.460  11.093 -0.0479  0.9795 -0.9585
  165MOL0     H21775   3.773   6.405  11.126 -0.7014  1.1218 -0.2682
  165MOL0     H21776   3.895   6.413  10.836 -1.7798  1.7339 -2.3796
  165MOL0     H21777   3.732   6.385  10.864 -0.4037 -0.0332 -0.3637
  165MOL0     H21778   3.756   6.791  10.870 -0.5778  0.2358  0.1242
  165MOL0     H21779   4.197   6.125  10.815 -1.5117  0.4694  0.4242
  165MOL0     H21780   4.385   5.971  10.728 -1.6938  1.6169 -1.1027
  166MOL0     O21781   1.120   3.687   1.574 -1.3459 -0.4973  0.1468
  166MOL0     C21782   1.237   3.668   1.608 -0.6121  0.8512  0.9482
  166MOL0     O21783   1.281   3.595   1.721  0.3767 -0.1468 -0.1171
  166MOL0     C21784   1.171   3.555   1.808 -0.9666 -0.5820  0.1746
  166MOL0     C21785   1.103   3.644   1.888 -0.2056 -0.1318 -0.5081
  166MOL0     C21786   0.986   3.601   1.955  0.3803  0.2466  0.4689
  166MOL0     C21787   0.936   3.476   1.935 -0.5830 -0.8685  0.4575
  166MOL0     O21788   0.834   3.414   1.991 -0.0174 -0.3602 -0.0684
  166MOL0     C21789   0.741   3.488   2.076  0.2560 -0.9475  0.6285
  166MOL0     C21790   0.607   3.418   2.084 -0.8104 -0.4890  0.2520
  166MOL0     C21791   0.503   3.482   2.180  0.6356 -0.0658 -0.6115
  166MOL0     C21792   0.372   3.386   2.174 -0.1606 -0.1841 -0.3648
  166MOL0     C21793   0.273   3.450   2.262 -0.2984  0.9306  0.4901
  166MOL0     C21794   0.297   3.405   2.401  0.4847 -0.8025  0.1150
  166MOL0     C21795   0.205   3.476   2.495  0.0969 -0.2012  0.4782
  166MOL0     C21796   0.055   3.438   2.483  0.1931  1.2813  0.7187
  166MOL0     N21797  -0.025   3.480   2.596  0.7285  0.9162 -0.1392
  166MOL0     C21798  -0.101   3.597   2.601  0.2040 -0.5369 -0.2255
  166MOL0     C21799  -0.152   3.595   2.727 -0.1968  0.6735 -0.0445
  166MOL0     C21800  -0.238   3.704   2.773 -0.3190  0.2205 -0.1163
  166MOL0     C21801  -0.383   3.671   2.803  0.6774  0.3152 -0.6378
  166MOL0     C21802  -0.412   3.576   2.916 -0.4065  0.8755  0.0459
  166MOL0     C21803  -0.547   3.603   2.987 -0.8096 -0.2625 -1.6090
  166MOL0     O21804  -0.656   3.591   2.895 -1.6814 -0.5946 -0.5571
  166MOL0     C21805  -0.766   3.660   2.926 -0.1787 -0.5451  0.9496
  166MOL0     C21806  -0.798   3.735   3.042 -0.0325 -0.1639  0.1038
  166MOL0     C21807  -0.913   3.824   3.046 -0.9118  0.7254  0.0167
  166MOL0     C21808  -1.007   3.818   2.944  0.4003 -0.1896 -0.0487
  166MOL0     C21809  -1.129   3.906   2.937  0.1840 -0.0448  0.6970
  166MOL0     O21810  -1.178   3.936   2.814  0.0678  0.2535  0.9104
  166MOL0     C21811  -1.305   3.985   2.811 -0.2367 -0.2083 -0.4385
  166MOL0     C21812  -1.413   3.907   2.782  0.1142 -0.6666 -0.1600
  166MOL0     C21813  -1.543   3.957   2.795 -0.5392  0.3685 -0.3607
  166MOL0     C21814  -1.570   4.081   2.852 -0.1077  0.5067 -0.3906
  166MOL0     O21815  -1.701   4.118   2.859  0.4494  0.3541 -0.6907
  166MOL0     C21816  -1.733   4.251   2.851  0.0903 -0.1243 -0.2116
  166MOL0     C21817  -1.875   4.262   2.810  0.3418  0.2724 -0.9127
  166MOL0     C21818  -1.973   4.222   2.922  0.1739  0.3654  0.6886
  166MOL0     C21819  -2.112   4.290   2.907 -1.3630 -0.4142  0.1258
  166MOL0     C21820  -2.224   4.229   2.997  0.8535  0.2101 -0.5270
  166MOL0     C21821  -2.187   4.221   3.152 -0.0068 -0.1938  0.1062
  166MOL0     C21822  -2.318   4.218   3.240 -0.6766  0.1919  0.2216
  166MOL0     C21823  -2.396   4.090   3.202  0.0445  0.2915 -0.1107
  166MOL0    Cl21824  -2.417   3.980   3.353  0.4183 -0.0558  0.0902
  166MOL0     C21825  -1.465   4.161   2.891 -0.4515  0.4334  0.4337
  166MOL0     C21826  -1.328   4.117   2.865  0.2143 -0.3567  0.8262
  166MOL0     O21827  -1.183   3.944   3.039  0.3540 -0.8039  0.0722
  166MOL0     C21828  -0.987   3.718   2.850  0.2251  0.8793 -0.0143
  166MOL0     C21829  -0.867   3.653   2.826 -0.7312  0.0237 -1.0163
  166MOL0     N21830  -0.113   3.483   2.798  0.4395  1.2462  1.0051
  166MOL0     N21831  -0.041   3.415   2.720 -0.3567 -0.0279 -0.5198
  166MOL0     C21832   1.009   3.395   1.854  0.7569  1.3440 -0.8202
  166MOL0     C21833   1.130   3.425   1.791 -0.7185 -0.2233  0.3313
  166MOL0     C21834   1.342   3.727   1.520  0.0153 -0.8601  0.0136
  166MOL0     C21835   1.473   3.728   1.559 -0.0525 -0.0129 -0.3783
  166MOL0     C21836   1.563   3.814   1.498  0.4721 -0.4441 -0.3894
  166MOL0     C21837   1.526   3.901   1.397  0.0757  0.4279  0.1232
  166MOL0     O21838   1.598   4.003   1.343 -0.4751  0.5331 -0.5297
  166MOL0     C21839   1.720   4.035   1.412  0.2076  0.1152  0.3048
  166MOL0     C21840   1.794   4.138   1.338  0.0826  0.5364 -0.1953
  166MOL0     C21841   1.947   4.133   1.370  0.5432 -0.3204 -0.6319
  166MOL0     C21842   2.036   4.223   1.293  0.9153  0.7306  0.0830
  166MOL0     C21843   2.054   4.176   1.160  1.0275 -0.3461 -1.0053
  166MOL0     C21844   2.070   4.132   1.048 -0.9636 -0.8864 -0.3028
  166MOL0     C21845   1.398   3.876   1.347 -0.2894 -1.0771 -0.2300
  166MOL0     C21846   1.306   3.793   1.406  0.1328  0.2888 -0.2140
  166MOL0     H21847   1.137   3.745   1.907 -1.0150  0.1777 -0.6377
  166MOL0     H21848   0.948   3.670   2.029  3.7029  1.1787  1.4935
  166MOL0     H21849   0.716   3.579   2.020 -1.0338 -0.5282  1.8258
  166MOL0     H21850   0.792   3.512   2.169 -1.4580 -0.7341  1.5528
  166MOL0     H21851   0.629   3.314   2.105 -0.6487 -0.8759 -1.6265
  166MOL0     H21852   0.569   3.411   1.981  0.4381 -0.5127 -0.2363
  166MOL0     H21853   0.489   3.587   2.153  0.5352  0.1321  0.1860
  166MOL0     H21854   0.540   3.500   2.282 -2.0556  0.9464  0.2529
  166MOL0     H21855   0.339   3.390   2.070 -0.5502  0.2159 -0.2261
  166MOL0     H21856   0.394   3.284   2.205 -1.9025 -0.6309 -0.5220
  166MOL0     H21857   0.177   3.416   2.221  0.2736  1.1853 -1.1308
  166MOL0     H21858   0.276   3.558   2.251 -4.1625  0.9674 -2.8720
  166MOL0     H21859   0.401   3.426   2.424 -0.1641  3.5605  0.0382
  166MOL0     H21860   0.271   3.299   2.411 -2.8813 -0.1487 -0.2171
  166MOL0     H21861   0.239   3.440   2.592  2.2027 -1.3084 -0.6017
  166MOL0     H21862   0.208   3.584   2.477 -3.7039 -0.3450 -2.1244
  166MOL0     H21863   0.038   3.330   2.472 -2.7689  1.9629 -3.9998
  166MOL0     H21864   0.022   3.485   2.390 -0.9213 -2.0481 -0.7245
  166MOL0     H21865  -0.105   3.673   2.524  3.1399  1.0396  0.9973
  166MOL0     H21866  -0.244   3.775   2.690 -1.4451 -1.0798 -1.2004
  166MOL0     H21867  -0.199   3.753   2.863 -1.8874  0.2763  0.5645
  166MOL0     H21868  -0.441   3.630   2.720  0.0624 -0.9182  0.3692
  166MOL0     H21869  -0.426   3.769   2.826 -1.4348 -0.3950 -1.3404
  166MOL0     H21870  -0.396   3.473   2.882  2.0258  1.4817 -0.9026
  166MOL0     H21871  -0.345   3.587   3.002 -1.6133  0.9518  0.9900
  166MOL0     H21872  -0.544   3.694   3.048 -0.8397 -3.0560  3.0035
  166MOL0     H21873  -0.557   3.524   3.062 -1.0992  1.8762  0.7506
  166MOL0     H21874  -0.730   3.737   3.127 -0.2158  5.2439  0.4933
  166MOL0     H21875  -0.938   3.883   3.133 -0.8390 -1.8682  1.9360
  166MOL0     H21876  -1.399   3.804   2.751  0.9317 -0.9922  1.2087
  166MOL0     H21877  -1.633   3.898   2.781 -1.4019  1.9382 -1.8781
  166MOL0     H21878  -1.677   4.297   2.769  2.7299  0.8738  1.9978
  166MOL0     H21879  -1.699   4.302   2.941 -1.2234 -0.5443  0.5443
  166MOL0     H21880  -1.897   4.196   2.726  0.8578 -0.5171 -0.4407
  166MOL0     H21881  -1.897   4.363   2.774 -1.9257  0.1560  0.0254
  166MOL0     H21882  -1.939   4.247   3.023 -1.7390  0.8653  1.2364
  166MOL0     H21883  -1.980   4.114   2.905  1.8118  0.5443 -1.6863
  166MOL0     H21884  -2.099   4.395   2.935  1.2250 -0.8324  0.7150
  166MOL0     H21885  -2.132   4.297   2.800 -1.4410  2.0512  0.2483
  166MOL0     H21886  -2.244   4.132   2.950  4.3234  0.2091 -2.3572
  166MOL0     H21887  -2.312   4.291   2.983 -0.7013 -2.0530 -1.4144
  166MOL0     H21888  -2.129   4.310   3.179 -0.5028 -0.2245  1.3177
  166MOL0     H21889  -2.124   4.133   3.167 -0.1525 -0.1858  0.7817
  166MOL0     H21890  -2.285   4.230   3.344  2.2307 -0.2194 -0.5656
  166MOL0     H21891  -2.385   4.301   3.215  0.6713  1.5231  0.8143
  166MOL0     H21892  -2.348   4.032   3.124 -2.0483 -0.9896 -0.5252
  166MOL0     H21893  -2.499   4.105   3.168 -0.0316 -0.2393 -0.1173
  166MOL0     H21894  -1.467   4.264   2.925  0.5638  0.4042  0.6149
  166MOL0     H21895  -1.245   4.178   2.898  0.5877 -0.0676 -0.6046
  166MOL0     H21896  -1.070   3.708   2.781 -0.9567  0.9371  1.3569
  166MOL0     H21897  -0.850   3.603   2.731  2.4838 -0.2455 -0.4302
  166MOL0     H21898   0.977   3.291   1.858 -1.7797  2.1083  0.3121
  166MOL0     H21899   1.180   3.353   1.727 -0.3786 -0.8180  1.2353
  166MOL0     H21900   1.514   3.671   1.641  2.6315  4.0406  1.4345
  166MOL0     H21901   1.660   3.791   1.542  0.9725 -1.2990 -1.8912
  166MOL0     H21902   1.774   3.940   1.414 -0.6850 -0.4249 -0.5246
  166MOL0     H21903   1.700   4.067   1.515  2.3253 -0.3326  0.9156
  166MOL0     H21904   1.776   4.120   1.231  3.3383  1.3469 -0.9740
  166MOL0     H21905   1.734   4.230   1.341 -3.3286 -1.5370  1.1891
  166MOL0     H21906   1.978   4.028   1.365  2.4051  0.1990 -0.4864
  166MOL0     H21907   1.953   4.159   1.476 -3.0401  0.2640 -0.4437
  166MOL0     H21908   1.994   4.322   1.279  1.5340  0.8076 -1.4627
  166MOL0     H21909   2.133   4.236   1.341  1.1409  3.0120 -0.9003
  166MOL0     H21910   2.094   4.096   0.950  4.0101  1.2277 -0.1454
  166MOL0     H21911   1.364   3.938   1.264 -0.6050 -2.8339 -1.4834
  166MOL0     H21912   1.208   3.788   1.361  0.6167 -1.1585 -1.1805
  167MOL0     O21913   6.519   9.214   7.890 -0.7008 -0.6095  0.0313
  167MOL0     C21914   6.448   9.148   7.958 -0.4062 -0.5434 -0.2772
  167MOL0     O21915   6.483   9.035   8.031 -0.8494  0.3985  0.3495
  167MOL0     C21916   6.612   8.984   8.027  0.7845  0.1879  0.6511
  167MOL0     C21917   6.645   8.878   7.943  1.0960  0.6971  1.0911
  167MOL0     C21918   6.757   8.805   7.960 -0.0865  0.9256  0.1900
  167MOL0     C21919   6.848   8.833   8.057  0.5255 -0.0216  0.0564
  167MOL0     O21920   6.959   8.758   8.084  0.5935  1.1210  0.8486
  167MOL0     C21921   7.074   8.840   8.101 -0.6802 -0.0258  0.7054
  167MOL0     C21922   7.192   8.769   8.018 -1.0285  0.5682  0.5305
  167MOL0     C21923   7.252   8.656   8.093 -0.2534 -0.0055  0.3852
  167MOL0     C21924   7.374   8.601   8.017  0.6124  0.0666 -0.0992
  167MOL0     C21925   7.432   8.483   8.084 -0.8709  0.2220 -0.1503
  167MOL0     C21926   7.521   8.415   7.988 -0.1654  0.2675 -0.5625
  167MOL0     C21927   7.589   8.293   8.061  0.7497  0.8572  0.2161
  167MOL0     C21928   7.712   8.232   7.988 -0.7618 -0.3754  0.4456
  167MOL0     N21929   7.825   8.323   7.976 -1.4926 -0.9665 -0.7757
  167MOL0     C21930   7.857   8.432   8.062 -0.0714 -0.0509 -0.4047
  167MOL0     C21931   7.957   8.498   8.004  1.4322  0.7106  0.7798
  167MOL0     C21932   8.022   8.626   8.049 -0.1540  0.6592  0.2473
  167MOL0     C21933   7.926   8.743   8.060  0.3725 -0.4435 -0.1217
  167MOL0     C21934   7.827   8.750   7.940 -1.2365 -0.2418  0.2839
  167MOL0     C21935   7.740   8.873   7.946  0.0903 -0.1990  0.1207
  167MOL0     O21936   7.669   8.863   8.072  0.6558 -0.3368 -0.6104
  167MOL0     C21937   7.566   8.954   8.095  0.7212 -0.1700  0.0737
  167MOL0     C21938   7.466   8.925   8.189 -0.5259 -0.2690  0.4342
  167MOL0     C21939   7.365   9.020   8.209 -0.4782  1.6686  0.5342
  167MOL0     C21940   7.365   9.140   8.139  0.4084  0.0392  0.0999
  167MOL0     C21941   7.247   9.228   8.162  0.3166  0.4529 -0.1711
  167MOL0     O21942   7.136   9.161   8.201 -0.0457  0.3290  0.0864
  167MOL0     C21943   7.023   9.238   8.207 -0.6549 -0.7627 -0.1519
  167MOL0     C21944   6.955   9.260   8.330 -0.1536  0.2944  0.2082
  167MOL0     C21945   6.839   9.335   8.339  0.0095  0.8101 -0.2322
  167MOL0     C21946   6.798   9.408   8.228  0.4383  0.8035  0.3501
  167MOL0     O21947   6.704   9.496   8.229 -0.0291  0.4533 -0.9222
  167MOL0     C21948   6.582   9.427   8.188 -0.0853 -0.3805 -0.3189
  167MOL0     C21949   6.476   9.531   8.175 -0.2289  0.2812  1.0701
  167MOL0     C21950   6.340   9.462   8.152 -0.4336 -0.6691  0.5933
  167MOL0     C21951   6.231   9.555   8.205 -0.2501 -0.6113  0.1989
  167MOL0     C21952   6.097   9.490   8.197  0.1063  0.5750  0.8861
  167MOL0     C21953   5.985   9.582   8.259  0.5288  0.2300 -0.6593
  167MOL0     C21954   5.851   9.508   8.267 -0.6494  0.1971 -0.1001
  167MOL0     C21955   5.818   9.446   8.405 -0.5827 -0.6047 -0.5458
  167MOL0    Cl21956   5.770   9.568   8.537  0.2709 -0.7582 -0.1128
  167MOL0     C21957   6.855   9.391   8.103 -0.4278  0.8796 -0.4305
  167MOL0     C21958   6.970   9.312   8.094  0.0216 -1.3767 -0.0300
  167MOL0     O21959   7.256   9.348   8.134  0.0911  0.7541  0.0858
  167MOL0     C21960   7.468   9.177   8.048  0.9138  0.4626  0.2550
  167MOL0     C21961   7.558   9.072   8.019 -0.4942  0.1252  0.5030
  167MOL0     N21962   7.999   8.421   7.896 -0.2713 -0.1071 -1.1543
  167MOL0     N21963   7.911   8.328   7.873 -0.3041 -0.1022  0.5287
  167MOL0     C21964   6.828   8.951   8.132 -0.0624  0.6555  0.7758
  167MOL0     C21965   6.710   9.020   8.117  0.7207 -1.3885  0.0390
  167MOL0     C21966   6.303   9.172   7.968  0.4645 -0.2669  1.2607
  167MOL0     C21967   6.237   9.230   7.857 -0.0846 -0.1626 -0.5400
  167MOL0     C21968   6.097   9.243   7.857  0.1706 -0.7238  0.7631
  167MOL0     C21969   6.034   9.206   7.968  0.3127  0.4421 -0.6314
  167MOL0     O21970   5.900   9.224   7.998 -0.5099 -0.2140  0.9329
  167MOL0     C21971   5.803   9.264   7.897 -0.6166  0.0900 -0.2033
  167MOL0     C21972   5.677   9.300   7.972 -0.9116 -1.1276  0.3769
  167MOL0     C21973   5.601   9.192   8.052 -0.4236  0.3519 -0.0759
  167MOL0     C21974   5.498   9.267   8.136  1.4183  0.7762  0.1736
  167MOL0     C21975   5.391   9.331   8.051 -0.7175  0.7132 -0.2979
  167MOL0     C21976   5.306   9.389   7.993 -0.3556  0.7165 -0.5239
  167MOL0     C21977   6.102   9.175   8.087  0.0699 -0.3849  1.1439
  167MOL0     C21978   6.239   9.141   8.078 -0.5660 -0.7772  0.2998
  167MOL0     H21979   6.578   8.834   7.871 -0.9203 -2.5420  4.5746
  167MOL0     H21980   6.777   8.728   7.886  1.1545  2.7234 -1.4280
  167MOL0     H21981   7.108   8.841   8.204 -0.6628  0.9499  0.6988
  167MOL0     H21982   7.066   8.938   8.052 -0.8988 -0.6693 -0.6087
  167MOL0     H21983   7.269   8.842   7.992  0.0256 -0.8005 -0.3668
  167MOL0     H21984   7.147   8.735   7.925 -2.2644  1.2804  0.8354
  167MOL0     H21985   7.170   8.585   8.111 -0.2646 -0.1463 -0.2076
  167MOL0     H21986   7.290   8.691   8.190 -0.7425 -1.5900  1.1863
  167MOL0     H21987   7.348   8.577   7.913  0.2538 -2.4793  0.5224
  167MOL0     H21988   7.445   8.681   7.993  1.1801 -1.1479 -2.9063
  167MOL0     H21989   7.350   8.419   8.119  1.1201 -2.0702  0.6062
  167MOL0     H21990   7.493   8.522   8.166 -1.8279 -1.2373  1.3373
  167MOL0     H21991   7.600   8.481   7.950 -0.2114  0.7347  0.1307
  167MOL0     H21992   7.461   8.379   7.904 -0.6067 -1.5033  0.4651
  167MOL0     H21993   7.619   8.329   8.160  0.1384 -1.7309  1.4268
  167MOL0     H21994   7.517   8.212   8.075  0.1245  1.5361  1.0141
  167MOL0     H21995   7.667   8.204   7.893 -0.5439 -2.7642  0.9770
  167MOL0     H21996   7.749   8.145   8.044  1.6896 -0.3498 -0.9729
  167MOL0     H21997   7.807   8.478   8.147  1.5939 -2.1279  1.8561
  167MOL0     H21998   8.098   8.640   7.972 -2.9865 -0.1094 -2.9614
  167MOL0     H21999   8.078   8.604   8.140  1.0787  1.3868 -0.3023
  167MOL0     H22000   7.977   8.839   8.076 -1.1254  0.7224 -1.9498
  167MOL0     H22001   7.863   8.731   8.149  1.5363  3.3456  1.4146
  167MOL0     H22002   7.878   8.749   7.843 -2.6027 -0.8752 -0.4572
  167MOL0     H22003   7.763   8.661   7.933 -0.1506 -1.0638  0.6383
  167MOL0     H22004   7.667   8.872   7.864 -0.0856 -0.7299  0.2767
  167MOL0     H22005   7.801   8.962   7.926 -3.2009  1.7024 -2.6122
  167MOL0     H22006   7.466   8.834   8.248 -2.1079 -1.0980 -0.7538
  167MOL0     H22007   7.304   9.001   8.296  0.7801  0.6613  1.2333
  167MOL0     H22008   6.980   9.214   8.425 -1.3366  1.9369  1.3517
  167MOL0     H22009   6.784   9.349   8.431 -3.1324 -4.4921 -0.8595
  167MOL0     H22010   6.560   9.356   8.269  1.3260  0.9313  1.2673
  167MOL0     H22011   6.595   9.379   8.090 -2.2997  1.1646 -1.4524
  167MOL0     H22012   6.499   9.605   8.097 -0.6467 -0.2966  0.3819
  167MOL0     H22013   6.476   9.583   8.271 -0.9279  0.1786  1.1334
  167MOL0     H22014   6.335   9.371   8.212  1.3165 -2.0595 -1.2343
  167MOL0     H22015   6.316   9.438   8.048  2.2604  1.0252 -0.5320
  167MOL0     H22016   6.255   9.576   8.310  0.5113  2.0364 -0.4417
  167MOL0     H22017   6.226   9.648   8.148 -0.4233  0.2129  1.4992
  167MOL0     H22018   6.094   9.401   8.260  1.2827  1.4598  2.2719
  167MOL0     H22019   6.077   9.479   8.090  5.7445  1.3083 -0.6105
  167MOL0     H22020   5.973   9.671   8.196  3.1823  0.0745 -1.5332
  167MOL0     H22021   5.995   9.623   8.360 -3.7966  2.7572 -1.0334
  167MOL0     H22022   5.775   9.580   8.235  1.0890  1.0532 -2.5748
  167MOL0     H22023   5.852   9.419   8.204  0.1578 -0.0779  0.2831
  167MOL0     H22024   5.901   9.390   8.447 -1.6387 -0.6570  1.6206
  167MOL0     H22025   5.731   9.380   8.391 -0.3518 -0.9238 -0.4676
  167MOL0     H22026   6.804   9.435   8.017 -1.9636 -1.3193 -0.7184
  167MOL0     H22027   7.014   9.304   7.995 -4.3765 -1.6480 -2.2099
  167MOL0     H22028   7.462   9.267   7.988 -0.2903 -0.9191 -1.8478
  167MOL0     H22029   7.627   9.092   7.939  2.5961  0.0411  2.9426
  167MOL0     H22030   6.897   8.984   8.209 -0.3771  0.6529  1.0613
  167MOL0     H22031   6.682   9.112   8.168 -3.0096 -2.3309 -0.0356
  167MOL0     H22032   6.300   9.268   7.777  0.2713  0.2833 -0.0567
  167MOL0     H22033   6.043   9.283   7.772 -0.2172 -2.0775  0.3536
  167MOL0     H22034   5.786   9.181   7.828  1.5983 -0.4425 -0.1863
  167MOL0     H22035   5.839   9.354   7.846  2.3483  0.9728  3.0276
  167MOL0     H22036   5.709   9.382   8.037 -1.1067  0.7149 -1.7607
  167MOL0     H22037   5.609   9.346   7.900  1.6179  0.0147 -1.4243
  167MOL0     H22038   5.679   9.137   8.106 -0.6443 -1.7901 -1.7876
  167MOL0     H22039   5.554   9.119   7.986  3.0524 -0.2853 -2.0882
  167MOL0     H22040   5.447   9.196   8.202  1.4030  1.2876  0.7251
  167MOL0     H22041   5.550   9.341   8.199  0.8058  0.5697  0.9422
  167MOL0     H22042   5.235   9.445   7.936 -3.5950 -0.2876  2.1813
  167MOL0     H22043   6.065   9.148   8.185 -0.7417  1.8647  1.5230
  167MOL0     H22044   6.295   9.082   8.150 -0.4909 -0.8092  0.2147
  168MOL0     O22045   1.643   0.427   0.685 -0.0562 -1.4178  0.2905
  168MOL0     C22046   1.642   0.416   0.807 -0.5533  1.1239  0.3294
  168MOL0     O22047   1.534   0.385   0.887  0.5793  0.1822 -0.4455
  168MOL0     C22048   1.405   0.406   0.851 -0.3213  0.0573  0.0608
  168MOL0     C22049   1.367   0.459   0.726 -0.0560 -0.5017  0.2506
  168MOL0     C22050   1.233   0.488   0.704  0.5144  1.6589  0.4787
  168MOL0     C22051   1.125   0.444   0.788 -0.8478  0.1085  0.1611
  168MOL0     O22052   0.987   0.468   0.753  0.1906  0.0825  0.4422
  168MOL0     C22053   0.958   0.523   0.619  1.1248  0.6059 -0.0935
  168MOL0     C22054   0.811   0.499   0.576  0.4622 -0.2412  0.0295
  168MOL0     C22055   0.713   0.588   0.649 -0.0232 -0.1285  0.9775
  168MOL0     C22056   0.581   0.585   0.579  0.0575  0.6810  0.9566
  168MOL0     C22057   0.472   0.659   0.665 -0.9277 -0.2307  0.4805
  168MOL0     C22058   0.497   0.817   0.667 -0.1036  0.5768  0.3317
  168MOL0     C22059   0.459   0.872   0.529  0.3826 -0.6934  0.0309
  168MOL0     C22060   0.447   1.028   0.548  0.3114 -0.2982  0.4606
  168MOL0     N22061   0.433   1.103   0.418 -0.4198  0.6292 -0.3256
  168MOL0     C22062   0.337   1.086   0.318 -0.4955 -0.1868  0.1493
  168MOL0     C22063   0.387   1.167   0.226 -0.0237 -0.3377  0.3876
  168MOL0     C22064   0.313   1.186   0.092  0.0364  0.5313  0.2283
  168MOL0     C22065   0.315   1.057   0.011 -0.3901 -0.0897  0.6286
  168MOL0     C22066   0.238   1.089  -0.125  0.2751  0.5729 -0.2833
  168MOL0     C22067   0.097   1.034  -0.117  0.2001 -0.2241 -0.0107
  168MOL0     O22068   0.012   1.063  -0.228 -0.1403  0.8826 -0.3830
  168MOL0     C22069  -0.092   0.974  -0.244  1.5278  0.1362  0.4511
  168MOL0     C22070  -0.140   0.963  -0.379 -1.2857  0.8431  0.2020
  168MOL0     C22071  -0.238   0.877  -0.417  0.5729  0.2940 -0.4751
  168MOL0     C22072  -0.283   0.784  -0.316  0.7884 -0.3704 -0.2508
  168MOL0     C22073  -0.380   0.678  -0.358 -0.3847  0.8255  0.9429
  168MOL0     O22074  -0.353   0.622  -0.480  0.4802 -0.9840  0.1566
  168MOL0     C22075  -0.459   0.567  -0.548  0.5733 -0.7119  0.8187
  168MOL0     C22076  -0.499   0.441  -0.499  0.2347 -0.0635 -0.3994
  168MOL0     C22077  -0.592   0.378  -0.578 -0.2980 -0.2042 -1.1726
  168MOL0     C22078  -0.652   0.438  -0.687 -0.8292  0.4480  0.5896
  168MOL0     O22079  -0.727   0.362  -0.767  0.9702 -0.1301 -0.4539
  168MOL0     C22080  -0.819   0.431  -0.858 -0.6965 -0.3633 -1.3938
  168MOL0     C22081  -0.935   0.352  -0.884 -0.5695 -0.3373 -0.0756
  168MOL0     C22082  -1.043   0.441  -0.961  0.0530  0.3109 -0.7457
  168MOL0     C22083  -1.173   0.349  -0.979 -0.8826 -0.1879 -1.1891
  168MOL0     C22084  -1.263   0.402  -1.098  0.3337  0.3559 -0.3881
  168MOL0     C22085  -1.313   0.542  -1.067  0.4558  0.0312 -0.1734
  168MOL0     C22086  -1.399   0.592  -1.189 -0.2800 -0.5325 -0.4517
  168MOL0     C22087  -1.472   0.720  -1.163 -0.7350 -0.4981  0.0950
  168MOL0    Cl22088  -1.595   0.684  -1.035  0.0819  0.0733 -0.0697
  168MOL0     C22089  -0.621   0.573  -0.720  0.5866  0.4557  0.7380
  168MOL0     C22090  -0.513   0.639  -0.653  0.4082 -0.2423 -0.3452
  168MOL0     O22091  -0.461   0.628  -0.282  0.1469 -0.0231 -1.3355
  168MOL0     C22092  -0.253   0.800  -0.180 -0.2563 -0.3162  0.4348
  168MOL0     C22093  -0.156   0.889  -0.141  0.2579  0.0906  0.9997
  168MOL0     N22094   0.508   1.224   0.267  0.3847  0.1221  0.1840
  168MOL0     N22095   0.529   1.188   0.385 -0.8276  0.4982  0.7370
  168MOL0     C22096   1.160   0.381   0.913  0.0576  0.1576  1.1780
  168MOL0     C22097   1.304   0.371   0.939  0.5306 -0.2449 -0.1492
  168MOL0     C22098   1.773   0.407   0.874  0.5652  0.3857 -0.1682
  168MOL0     C22099   1.772   0.350   1.005  0.1475  0.7761  0.4722
  168MOL0     C22100   1.895   0.341   1.075  0.7089 -0.6598  0.4876
  168MOL0     C22101   2.016   0.387   1.012  0.2753 -0.0958  0.2596
  168MOL0     O22102   2.128   0.396   1.094  0.4094 -0.7246 -0.2218
  168MOL0     C22103   2.262   0.405   1.034 -0.0539  1.0325  0.3150
  168MOL0     C22104   2.344   0.384   1.166 -0.5131 -1.0706  0.1683
  168MOL0     C22105   2.488   0.372   1.137 -0.8288 -0.4279  0.8201
  168MOL0     C22106   2.540   0.293   1.249 -0.2669 -0.1207 -0.4182
  168MOL0     C22107   2.532   0.144   1.229 -0.3720  0.0738 -0.1445
  168MOL0     C22108   2.519   0.023   1.234  0.8941 -0.0335  0.5662
  168MOL0     C22109   2.004   0.452   0.895 -0.2409  0.5229  0.4227
  168MOL0     C22110   1.889   0.465   0.816 -0.0885 -0.1059 -0.6116
  168MOL0     H22111   1.435   0.502   0.654  1.3981  2.4204  3.0852
  168MOL0     H22112   1.210   0.548   0.617  0.4334  1.8826  0.6550
  168MOL0     H22113   1.024   0.484   0.542  0.0319  0.0623 -0.7848
  168MOL0     H22114   0.974   0.631   0.611 -0.6144  0.8998 -0.0157
  168MOL0     H22115   0.783   0.394   0.590  0.3302 -0.4517 -1.6026
  168MOL0     H22116   0.798   0.520   0.469  3.1845  1.0032 -0.1206
  168MOL0     H22117   0.754   0.689   0.657 -0.4284  0.2911 -1.4776
  168MOL0     H22118   0.698   0.553   0.751 -3.4288 -3.7268 -0.4945
  168MOL0     H22119   0.585   0.642   0.486  1.8978 -1.1843 -0.1925
  168MOL0     H22120   0.546   0.483   0.563 -1.4505  0.7773  3.2173
  168MOL0     H22121   0.475   0.620   0.767 -0.6695  0.3477  0.6973
  168MOL0     H22122   0.366   0.644   0.641 -1.4855  3.3296  0.1890
  168MOL0     H22123   0.600   0.840   0.694  1.0335 -3.1666 -0.2022
  168MOL0     H22124   0.445   0.870   0.747  2.5669  3.2418  0.4606
  168MOL0     H22125   0.543   0.846   0.465  1.0652  1.1459  0.1333
  168MOL0     H22126   0.363   0.831   0.497 -0.2934 -0.7626  2.0238
  168MOL0     H22127   0.542   1.061   0.590  1.2725 -2.3434  0.0460
  168MOL0     H22128   0.366   1.059   0.615  0.3943  0.2721  0.3036
  168MOL0     H22129   0.250   1.023   0.331 -1.2171  0.9134  0.7628
  168MOL0     H22130   0.360   1.258   0.024 -1.0519 -1.4236 -2.8009
  168MOL0     H22131   0.215   1.219   0.127 -0.2343  0.4526 -0.4325
  168MOL0     H22132   0.263   0.977   0.066  0.6062 -0.7918  0.5728
  168MOL0     H22133   0.418   1.023  -0.000  0.1891  1.7832 -0.1924
  168MOL0     H22134   0.241   1.191  -0.166 -0.2612  0.5713 -0.3267
  168MOL0     H22135   0.288   1.026  -0.200 -0.0638 -0.6643  0.5058
  168MOL0     H22136   0.049   1.057  -0.021 -0.8815 -3.0278  0.1955
  168MOL0     H22137   0.107   0.926  -0.109  0.4778 -0.2633 -0.7896
  168MOL0     H22138  -0.075   1.011  -0.452 -0.1982 -1.0150 -0.1202
  168MOL0     H22139  -0.255   0.855  -0.522  0.4872  0.7565 -0.5591
  168MOL0     H22140  -0.451   0.386  -0.419  0.7361 -1.0744 -1.3616
  168MOL0     H22141  -0.602   0.271  -0.558  2.1685 -0.6029 -1.8268
  168MOL0     H22142  -0.762   0.458  -0.947  0.9487  1.4958  0.1200
  168MOL0     H22143  -0.857   0.525  -0.816 -2.5523 -0.6132 -2.4166
  168MOL0     H22144  -0.976   0.325  -0.786  0.0139  1.1695  0.6100
  168MOL0     H22145  -0.900   0.263  -0.937 -0.0732 -1.9854  2.8412
  168MOL0     H22146  -1.005   0.460  -1.062 -3.5305 -1.5922 -2.6541
  168MOL0     H22147  -1.074   0.535  -0.915 -2.2223 -0.9449  0.4978
  168MOL0     H22148  -1.147   0.246  -1.008  0.5135  0.2741 -1.6682
  168MOL0     H22149  -1.229   0.344  -0.886  3.6595  0.5771  1.9035
  168MOL0     H22150  -1.349   0.337  -1.118 -0.5892  0.8916  1.6013
  168MOL0     H22151  -1.215   0.412  -1.195  1.2102  2.0011  0.1796
  168MOL0     H22152  -1.224   0.604  -1.052  0.0709  0.6747 -0.4990
  168MOL0     H22153  -1.377   0.545  -0.978  0.6109 -0.3836 -0.0457
  168MOL0     H22154  -1.329   0.606  -1.272  0.8733 -0.8366  0.4442
  168MOL0     H22155  -1.475   0.516  -1.208 -0.1355 -0.3898 -1.6737
  168MOL0     H22156  -1.518   0.756  -1.255 -1.0163  0.7174  0.6808
  168MOL0     H22157  -1.403   0.793  -1.120  2.4482 -4.1647  1.7876
  168MOL0     H22158  -0.672   0.624  -0.801 -0.1446 -1.7811 -0.2948
  168MOL0     H22159  -0.479   0.738  -0.683 -0.9780 -0.0690 -1.4378
  168MOL0     H22160  -0.294   0.724  -0.114 -2.1863  1.2633  1.1807
  168MOL0     H22161  -0.125   0.894  -0.037  0.2671 -2.3596  1.1805
  168MOL0     H22162   1.086   0.349   0.986 -1.9601  1.2918 -0.2367
  168MOL0     H22163   1.338   0.340   1.037  2.9091 -0.0159 -0.8268
  168MOL0     H22164   1.683   0.310   1.051  1.0636 -1.2991  0.5385
  168MOL0     H22165   1.912   0.303   1.176  0.7092  1.4794  1.3445
  168MOL0     H22166   2.283   0.506   0.998  1.4169 -0.1643 -2.5026
  168MOL0     H22167   2.292   0.327   0.963 -0.1806 -0.6776  2.0498
  168MOL0     H22168   2.329   0.471   1.232  0.9070 -2.7956  2.9523
  168MOL0     H22169   2.303   0.298   1.220 -1.7800 -0.8001 -0.3261
  168MOL0     H22170   2.539   0.469   1.128 -1.0749 -0.2720  1.1070
  168MOL0     H22171   2.501   0.326   1.038  0.9545 -1.0169  1.3001
  168MOL0     H22172   2.645   0.320   1.264 -0.1750 -1.6454  2.4412
  168MOL0     H22173   2.484   0.320   1.338  0.2196 -0.5302  0.0212
  168MOL0     H22174   2.518  -0.083   1.246  0.2035  0.0204  1.0880
  168MOL0     H22175   2.088   0.499   0.847 -0.0680 -0.6803 -0.4884
  168MOL0     H22176   1.891   0.513   0.719  1.7621  0.3776 -0.3748
  169MOL0     O22177   2.515  10.220   0.903  0.3760  0.4052 -0.6157
  169MOL0     C22178   2.538  10.334   0.962  0.3966  0.2609  1.2980
  169MOL0     O22179   2.465  10.450   0.940 -0.0742  0.6446  0.0112
  169MOL0     C22180   2.340  10.431   0.893 -0.4179 -0.3899  0.2284
  169MOL0     C22181   2.308  10.501   0.773  0.2277 -0.7458  0.2382
  169MOL0     C22182   2.179  10.524   0.736 -0.7705  0.7318 -0.7708
  169MOL0     C22183   2.075  10.493   0.824  1.3738 -0.0114 -0.3596
  169MOL0     O22184   1.943  10.527   0.808  0.4661 -0.6674 -0.4859
  169MOL0     C22185   1.888  10.574   0.684 -0.2269 -0.4993  0.7649
  169MOL0     C22186   1.803  10.459   0.630 -0.0539 -0.4468  0.8728
  169MOL0     C22187   1.670  10.432   0.712  0.2556  0.3518  0.3200
  169MOL0     C22188   1.557  10.357   0.636 -0.0997  0.2485  0.4080
  169MOL0     C22189   1.431  10.326   0.718 -0.4512 -0.9332 -0.4041
  169MOL0     C22190   1.324  10.269   0.644 -0.5317 -0.6576 -0.0690
  169MOL0     C22191   1.202  10.252   0.733 -0.2534  0.2809  0.0667
  169MOL0     C22192   1.093  10.200   0.647  0.3694  0.2253  0.8066
  169MOL0     N22193   0.963  10.181   0.702  0.1897  0.0952  0.2889
  169MOL0     C22194   0.939  10.162   0.837  0.8546 -0.3390 -0.5152
  169MOL0     C22195   0.812  10.195   0.857  0.0747  0.0587  0.8289
  169MOL0     C22196   0.745  10.192   0.987 -0.0579  0.1409  0.5138
  169MOL0     C22197   0.654  10.071   1.007 -0.1762 -1.2724  0.0199
  169MOL0     C22198   0.592  10.092   1.147  0.2554 -0.2275 -0.8993
  169MOL0     C22199   0.503   9.973   1.195 -0.2225 -0.5777 -0.0684
  169MOL0     O22200   0.405   9.939   1.092 -0.2002  0.0421  0.4587
  169MOL0     C22201   0.286   9.878   1.123 -0.3799 -0.2123  0.4983
  169MOL0     C22202   0.211   9.826   1.008  0.1538 -0.7351 -0.7080
  169MOL0     C22203   0.083   9.777   1.034  0.6521  0.3912 -0.1956
  169MOL0     C22204   0.026   9.771   1.166 -0.9650  0.4953  0.0108
  169MOL0     C22205  -0.118   9.742   1.198  0.5943 -0.1958  0.5249
  169MOL0     O22206  -0.174   9.761   1.322  0.0322  0.4579 -0.0174
  169MOL0     C22207  -0.312   9.762   1.316  0.2344  0.9674 -0.0751
  169MOL0     C22208  -0.384   9.877   1.261  0.5068  0.6237  0.3759
  169MOL0     C22209  -0.529   9.868   1.237  0.1902 -0.2387 -0.4500
  169MOL0     C22210  -0.603   9.766   1.295  1.4570 -0.1603  0.3686
  169MOL0     O22211  -0.745   9.774   1.320  0.4308 -0.2517  0.5664
  169MOL0     C22212  -0.838   9.756   1.211  0.3723  0.6213 -0.1233
  169MOL0     C22213  -0.985   9.775   1.259  0.9533  0.2732 -0.4865
  169MOL0     C22214  -1.009   9.916   1.323 -0.0807 -0.6613  0.5701
  169MOL0     C22215  -1.155   9.918   1.383 -0.5568  0.6367  0.0538
  169MOL0     C22216  -1.252   9.933   1.270  0.1122  1.3817  0.2205
  169MOL0     C22217  -1.388   9.906   1.339  0.7785  0.4601  0.8769
  169MOL0     C22218  -1.504   9.891   1.247 -0.8343 -0.3346  0.3087
  169MOL0     C22219  -1.627   9.816   1.293  0.8727 -0.3858 -0.1275
  169MOL0    Cl22220  -1.566   9.645   1.324  0.5807 -0.2118  0.0382
  169MOL0     C22221  -0.533   9.671   1.365  0.9235 -0.3596 -0.1979
  169MOL0     C22222  -0.394   9.658   1.375  0.1099  0.1035  0.1904
  169MOL0     O22223  -0.190   9.704   1.098  0.4899  0.7602  0.0980
  169MOL0     C22224   0.101   9.819   1.277  0.7779  0.1203 -0.3503
  169MOL0     C22225   0.228   9.875   1.252 -0.8691  0.4418  0.5415
  169MOL0     N22226   0.761  10.239   0.739  0.5106  0.0391  0.2547
  169MOL0     N22227   0.854  10.237   0.656 -0.3070 -0.0955 -0.2742
  169MOL0     C22228   2.110  10.431   0.947  0.3780 -0.3404  0.6755
  169MOL0     C22229   2.235  10.393   0.972 -0.3651 -0.2104 -0.0780
  169MOL0     C22230   2.651  10.332   1.057  0.6751  0.2084 -0.5394
  169MOL0     C22231   2.688  10.449   1.121 -0.3265 -0.7893  0.3480
  169MOL0     C22232   2.793  10.451   1.216  0.8709  0.4063 -0.3148
  169MOL0     C22233   2.871  10.347   1.230 -0.3336  0.0220 -0.1454
  169MOL0     O22234   2.982  10.378   1.304  0.3360 -0.7480 -0.1733
  169MOL0     C22235   3.056  10.269   1.345 -0.1338 -0.3552  0.4121
  169MOL0     C22236   3.171  10.229   1.239  0.2093 -0.4326 -0.0125
  169MOL0     C22237   3.269  10.132   1.314 -0.5350  0.2667  0.2781
  169MOL0     C22238   3.197   9.987   1.335 -0.0609  0.3017  0.2232
  169MOL0     C22239   3.295   9.878   1.282  0.0066  0.3274 -0.7757
  169MOL0     C22240   3.386   9.798   1.251  0.2221 -0.7710  0.3436
  169MOL0     C22241   2.834  10.218   1.179  0.5227 -0.4196  0.8460
  169MOL0     C22242   2.728  10.218   1.086 -0.8575 -0.1493 -0.1515
  169MOL0     H22243   2.386  10.535   0.705 -0.0380 -0.7880 -0.0864
  169MOL0     H22244   2.149  10.579   0.648  0.4050  1.0649 -0.9861
  169MOL0     H22245   1.953  10.606   0.602 -2.1319  1.3600 -0.1022
  169MOL0     H22246   1.839  10.669   0.705 -1.6650 -1.0488  0.0267
  169MOL0     H22247   1.867  10.371   0.639  1.9317  0.4318 -2.6971
  169MOL0     H22248   1.777  10.472   0.524 -0.2071  0.0928  0.9751
  169MOL0     H22249   1.627  10.527   0.744  0.2287  0.2996  0.4352
  169MOL0     H22250   1.696  10.367   0.796  0.6416  1.0451  0.7490
  169MOL0     H22251   1.511  10.413   0.553 -1.0783 -1.4602 -0.2600
  169MOL0     H22252   1.575  10.261   0.588 -1.1134 -0.5759  1.6047
  169MOL0     H22253   1.398  10.421   0.759  2.3886 -1.1404  2.8275
  169MOL0     H22254   1.451  10.270   0.810  0.4453  2.4605  1.6326
  169MOL0     H22255   1.366  10.176   0.604  0.8828  0.2278 -0.7450
  169MOL0     H22256   1.299  10.346   0.571  0.9382 -0.5518 -0.4985
  169MOL0     H22257   1.213  10.178   0.812 -2.3963 -0.2379 -0.0394
  169MOL0     H22258   1.181  10.349   0.779  0.4993  0.9066 -0.8608
  169MOL0     H22259   1.129  10.104   0.608 -1.6014 -0.5919  0.8336
  169MOL0     H22260   1.080  10.263   0.559  0.8437 -2.6480 -1.4876
  169MOL0     H22261   1.014  10.131   0.910  1.4554  2.0604 -0.0236
  169MOL0     H22262   0.684  10.282   1.002 -1.1511 -0.6908  1.2256
  169MOL0     H22263   0.827  10.186   1.060  3.1252  0.1873 -2.7618
  169MOL0     H22264   0.711   9.977   1.009  0.6787 -0.7532  0.8403
  169MOL0     H22265   0.571  10.064   0.936  0.3357 -4.4308 -0.4314
  169MOL0     H22266   0.674  10.101   1.218  0.1427  0.7275 -0.8882
  169MOL0     H22267   0.531  10.182   1.146  1.1224  0.3651 -1.3199
  169MOL0     H22268   0.453  10.019   1.281 -1.5214 -1.6246 -0.2291
  169MOL0     H22269   0.557   9.885   1.231  0.7228  0.5238  1.3378
  169MOL0     H22270   0.260   9.827   0.911 -0.7983  1.9706 -1.2507
  169MOL0     H22271   0.032   9.744   0.945 -0.4316  0.2056  0.4787
  169MOL0     H22272  -0.324   9.953   1.212  1.4925 -2.2532 -3.3399
  169MOL0     H22273  -0.579   9.946   1.182 -1.0145 -0.2819  0.5387
  169MOL0     H22274  -0.832   9.651   1.179 -5.1075 -0.4136  1.2069
  169MOL0     H22275  -0.816   9.830   1.134 -0.0698  1.3756  0.4668
  169MOL0     H22276  -1.008   9.692   1.327 -1.0827 -2.4912 -4.1843
  169MOL0     H22277  -1.043   9.761   1.168 -2.3324  1.1239  1.3404
  169MOL0     H22278  -0.999  10.003   1.258  0.4876 -0.1487  1.3288
  169MOL0     H22279  -0.950   9.932   1.414 -1.0715 -2.9887  1.7083
  169MOL0     H22280  -1.166   9.829   1.446 -0.9602  1.6288  1.4551
  169MOL0     H22281  -1.170   9.995   1.459 -1.4539  1.7471 -1.2102
  169MOL0     H22282  -1.239   9.848   1.201 -2.5000 -1.0011  2.4006
  169MOL0     H22283  -1.253  10.033   1.227 -0.1235  1.1577 -0.3088
  169MOL0     H22284  -1.411   9.989   1.406  1.5400  0.4748  1.1329
  169MOL0     H22285  -1.372   9.810   1.389  1.5304 -0.7556 -1.5207
  169MOL0     H22286  -1.530   9.995   1.223 -0.3869 -0.0633  0.9957
  169MOL0     H22287  -1.468   9.838   1.158 -0.2333  2.0443 -0.9491
  169MOL0     H22288  -1.715   9.822   1.228 -0.3821 -1.6603  1.3758
  169MOL0     H22289  -1.658   9.868   1.384  3.6213 -1.1788  1.3793
  169MOL0     H22290  -0.585   9.584   1.403  1.4611 -1.7428 -2.4041
  169MOL0     H22291  -0.350   9.574   1.428  1.6831  0.7594 -0.0232
  169MOL0     H22292   0.058   9.849   1.371 -0.8258  2.5999 -1.7619
  169MOL0     H22293   0.279   9.912   1.341  1.0719 -4.2046  1.7131
  169MOL0     H22294   2.018  10.411   1.002 -1.6522  3.9083 -0.7357
  169MOL0     H22295   2.246  10.344   1.068  0.5374 -1.3472 -0.7297
  169MOL0     H22296   2.636  10.544   1.114 -1.0175 -0.2691  6.5843
  169MOL0     H22297   2.824  10.547   1.255  1.9133  0.1722 -0.5481
  169MOL0     H22298   2.995  10.181   1.368  1.3338 -1.6148 -0.3215
  169MOL0     H22299   3.088  10.305   1.443 -0.5292 -1.3621  0.9250
  169MOL0     H22300   3.131  10.178   1.151 -1.5853 -2.0792  1.6408
  169MOL0     H22301   3.222  10.322   1.216 -1.7386  1.0807  1.4023
  169MOL0     H22302   3.295  10.184   1.407  0.5559  0.1841  0.0209
  169MOL0     H22303   3.362  10.124   1.258  0.6108  1.4162  1.9324
  169MOL0     H22304   3.181   9.990   1.443  1.6289  0.8686  0.4866
  169MOL0     H22305   3.099   9.984   1.287 -0.9718  2.0909  1.8863
  169MOL0     H22306   3.464   9.733   1.214 -0.8309 -0.8969 -1.8474
  169MOL0     H22307   2.890  10.128   1.202  0.4413 -0.2963  1.5710
  169MOL0     H22308   2.706  10.123   1.039 -0.2053  0.1107 -1.0202
  170MOL0     O22309   2.742   1.761   6.860 -0.4993  1.8802  0.3569
  170MOL0     C22310   2.831   1.841   6.851 -0.4281 -0.7049  0.0211
  170MOL0     O22311   2.820   1.969   6.787  0.5241  0.8074 -0.7422
  170MOL0     C22312   2.705   2.007   6.720  0.0154  0.4874 -0.6754
  170MOL0     C22313   2.579   2.003   6.785  0.5607 -0.2656 -0.7222
  170MOL0     C22314   2.461   2.046   6.714  0.4580  1.0262  0.1396
  170MOL0     C22315   2.469   2.078   6.577  0.1271  0.8476  0.1035
  170MOL0     O22316   2.362   2.111   6.502 -0.4216 -0.9972 -0.1831
  170MOL0     C22317   2.235   2.133   6.565 -0.2746 -1.2356 -0.2818
  170MOL0     C22318   2.245   2.266   6.648  0.6180  0.0845  0.6084
  170MOL0     C22319   2.130   2.363   6.609  0.1120 -0.5802 -0.9315
  170MOL0     C22320   2.170   2.494   6.668  0.5358  0.4407  0.7277
  170MOL0     C22321   2.064   2.600   6.639 -0.5712  0.7746  0.0527
  170MOL0     C22322   2.074   2.733   6.712 -0.3760  0.7592  0.2843
  170MOL0     C22323   2.039   2.723   6.863 -0.2492 -0.9295  0.2248
  170MOL0     C22324   2.161   2.704   6.953  0.3461  0.2363 -0.5359
  170MOL0     N22325   2.115   2.749   7.087  0.5928 -0.3416 -0.1719
  170MOL0     C22326   2.030   2.672   7.169 -0.4483 -0.2924 -0.6572
  170MOL0     C22327   2.034   2.730   7.296  0.2719 -0.6382  0.7072
  170MOL0     C22328   1.932   2.686   7.397 -0.0700 -0.0931 -0.5937
  170MOL0     C22329   1.917   2.790   7.517 -0.4496  0.3473 -0.8159
  170MOL0     C22330   1.829   2.744   7.630  0.2671 -0.1979  0.3611
  170MOL0     C22331   1.841   2.602   7.691  0.6249 -0.2463 -0.3157
  170MOL0     O22332   1.793   2.506   7.594 -0.2949  0.6508 -0.0147
  170MOL0     C22333   1.719   2.407   7.651 -0.4543  0.1594  0.6003
  170MOL0     C22334   1.614   2.363   7.576 -0.2832 -0.7169 -0.3923
  170MOL0     C22335   1.528   2.265   7.633 -1.0693 -0.1705  0.7382
  170MOL0     C22336   1.559   2.204   7.757  0.1400  0.2798 -0.4201
  170MOL0     C22337   1.472   2.100   7.814  0.9596  0.0915  0.0804
  170MOL0     O22338   1.485   2.058   7.946 -0.5720 -0.3618 -0.0500
  170MOL0     C22339   1.406   1.966   8.007  1.0461  0.5877 -0.2097
  170MOL0     C22340   1.310   2.027   8.084  0.0063  0.3517 -0.8653
  170MOL0     C22341   1.217   1.951   8.161 -0.8473  0.6985 -0.1191
  170MOL0     C22342   1.232   1.807   8.156  0.1320  0.4573 -1.3613
  170MOL0     O22343   1.166   1.729   8.244 -0.5829  0.5995 -0.0726
  170MOL0     C22344   1.028   1.723   8.218  0.5734 -0.2097  1.2209
  170MOL0     C22345   0.960   1.732   8.346  0.2020  0.1235  0.5026
  170MOL0     C22346   0.827   1.795   8.328 -0.5229 -0.0647  0.7998
  170MOL0     C22347   0.731   1.726   8.225  0.2168 -0.3727  0.7727
  170MOL0     C22348   0.590   1.768   8.260  0.6111 -0.4727  0.1744
  170MOL0     C22349   0.491   1.725   8.143  0.4911  0.0721 -0.3934
  170MOL0     C22350   0.343   1.689   8.176 -0.6367 -0.1619 -0.4939
  170MOL0     C22351   0.319   1.552   8.225  0.0949  0.6700 -0.4906
  170MOL0    Cl22352   0.350   1.410   8.100 -0.8253 -0.0352  0.2772
  170MOL0     C22353   1.319   1.748   8.062 -0.0669 -1.0845 -0.0778
  170MOL0     C22354   1.403   1.825   7.985 -0.1594  0.3430 -0.5651
  170MOL0     O22355   1.386   2.060   7.735  0.2726 -0.2057  0.1232
  170MOL0     C22356   1.683   2.238   7.813 -1.2557 -0.1752  0.5732
  170MOL0     C22357   1.764   2.332   7.756  0.1822  0.1754 -0.3400
  170MOL0     N22358   2.136   2.828   7.292 -0.1618  0.5499 -1.0268
  170MOL0     N22359   2.179   2.837   7.170 -0.2760 -0.9317 -0.6852
  170MOL0     C22360   2.597   2.066   6.515  1.2831 -0.3155  1.0411
  170MOL0     C22361   2.712   2.043   6.586  0.6623 -0.4272  0.3310
  170MOL0     C22362   2.971   1.815   6.907  0.6269  0.3510  1.0857
  170MOL0     C22363   3.079   1.852   6.829  0.4708  0.6241  0.5022
  170MOL0     C22364   3.206   1.832   6.880  0.2021 -0.8516  0.0751
  170MOL0     C22365   3.243   1.773   7.002  0.8359 -0.7785  0.5581
  170MOL0     O22366   3.375   1.797   7.029  0.2364  0.1038 -0.0936
  170MOL0     C22367   3.429   1.738   7.147 -0.1919 -0.4809 -0.0433
  170MOL0     C22368   3.583   1.735   7.140  0.1959 -0.0453 -0.2750
  170MOL0     C22369   3.642   1.704   7.008  0.1350 -0.7141  0.4541
  170MOL0     C22370   3.624   1.567   6.948  0.4440  0.1847 -0.4879
  170MOL0     C22371   3.716   1.466   7.008  0.2479 -0.3209  0.0204
  170MOL0     C22372   3.795   1.388   7.041  0.4231 -0.7406  0.3175
  170MOL0     C22373   3.136   1.730   7.083 -0.1394 -0.2872 -0.5355
  170MOL0     C22374   2.998   1.756   7.035 -0.0100 -0.5553  0.2517
  170MOL0     H22375   2.575   1.967   6.887 -2.1443 -2.6784 -1.5528
  170MOL0     H22376   2.364   2.057   6.760  0.3356  1.0493 -0.1224
  170MOL0     H22377   2.211   2.049   6.630  1.1676  0.6110  2.8802
  170MOL0     H22378   2.160   2.144   6.485 -0.7236 -1.1410  0.1436
  170MOL0     H22379   2.346   2.306   6.641  0.6369 -0.1665 -0.9018
  170MOL0     H22380   2.230   2.238   6.753  0.9876 -0.6893  0.4557
  170MOL0     H22381   2.033   2.334   6.651  0.3715  1.1916  1.0211
  170MOL0     H22382   2.137   2.380   6.501  1.8793  1.9671 -0.4939
  170MOL0     H22383   2.181   2.482   6.776 -0.6931  0.3237  0.8470
  170MOL0     H22384   2.264   2.525   6.620  1.8386 -4.6767 -0.6558
  170MOL0     H22385   1.963   2.564   6.663  0.5771 -0.6574  3.4389
  170MOL0     H22386   2.069   2.628   6.534  0.5946  0.2907 -0.0313
  170MOL0     H22387   1.996   2.801   6.674 -1.6898 -1.1733 -0.6279
  170MOL0     H22388   2.166   2.783   6.683  0.6857 -0.5639  1.2550
  170MOL0     H22389   2.002   2.824   6.885 -1.3248 -0.8328 -1.8424
  170MOL0     H22390   1.960   2.649   6.885 -0.8185 -0.6391 -0.8095
  170MOL0     H22391   2.233   2.781   6.923  0.1849  1.0452  1.0332
  170MOL0     H22392   2.203   2.603   6.953 -0.3768 -0.0726 -0.8833
  170MOL0     H22393   1.961   2.593   7.141 -1.5283 -0.4138  2.1239
  170MOL0     H22394   1.963   2.586   7.428  1.5539  0.9485  1.3579
  170MOL0     H22395   1.830   2.665   7.362  0.5823 -4.2657 -0.5580
  170MOL0     H22396   1.887   2.893   7.496 -0.7991  0.5246  0.4604
  170MOL0     H22397   2.022   2.799   7.547 -0.4504 -2.4089  0.3572
  170MOL0     H22398   1.856   2.808   7.714  2.6569 -0.8017  0.1326
  170MOL0     H22399   1.722   2.761   7.611 -0.1008 -1.3773  1.2163
  170MOL0     H22400   1.793   2.612   7.789  1.8772  2.3776  0.1150
  170MOL0     H22401   1.949   2.589   7.701  0.5814 -0.8065 -0.5901
  170MOL0     H22402   1.582   2.402   7.480 -1.6693  0.7312  0.5880
  170MOL0     H22403   1.448   2.240   7.565 -0.5478  4.8622 -2.2647
  170MOL0     H22404   1.294   2.134   8.083 -0.6301  0.3009  1.0278
  170MOL0     H22405   1.154   2.016   8.221  0.4093  1.6578  0.2244
  170MOL0     H22406   1.005   1.628   8.168  0.9179  0.6560 -0.7067
  170MOL0     H22407   1.003   1.812   8.158  2.1478  0.6967  1.8464
  170MOL0     H22408   1.026   1.775   8.420 -2.3043 -1.3531  3.8581
  170MOL0     H22409   0.940   1.626   8.366 -0.8794 -0.1145 -1.4621
  170MOL0     H22410   0.841   1.899   8.295 -4.6564  0.3902 -0.0565
  170MOL0     H22411   0.779   1.789   8.426  0.5544  0.9012  1.4140
  170MOL0     H22412   0.738   1.767   8.124 -1.2211 -0.7365  0.5089
  170MOL0     H22413   0.746   1.617   8.225 -3.0787 -0.9145  0.4561
  170MOL0     H22414   0.586   1.876   8.277  1.2949 -0.4491  0.2350
  170MOL0     H22415   0.566   1.707   8.346 -0.2385 -1.9929 -1.0947
  170MOL0     H22416   0.544   1.647   8.086  2.0080  0.0403  0.9795
  170MOL0     H22417   0.493   1.815   8.081  1.2791  0.2348 -0.1426
  170MOL0     H22418   0.309   1.762   8.249  3.0366 -1.0694  2.4040
  170MOL0     H22419   0.293   1.700   8.079  0.5999 -0.5929 -1.2089
  170MOL0     H22420   0.216   1.540   8.260  1.2503 -0.1351  2.9953
  170MOL0     H22421   0.389   1.536   8.306  1.2465 -0.5796 -1.6746
  170MOL0     H22422   1.306   1.641   8.052  0.2618 -1.4133  2.4036
  170MOL0     H22423   1.451   1.783   7.896 -0.7636  2.2271 -1.8367
  170MOL0     H22424   1.717   2.205   7.910  0.8092 -0.7892 -0.3073
  170MOL0     H22425   1.848   2.367   7.814 -1.2209  1.5696  0.9514
  170MOL0     H22426   2.617   2.117   6.421 -1.3844  0.6375  0.9087
  170MOL0     H22427   2.806   2.064   6.537 -0.4532 -1.5562 -2.5219
  170MOL0     H22428   3.059   1.895   6.732  0.4304  0.5578  0.4810
  170MOL0     H22429   3.281   1.879   6.817  0.6776  1.1755  2.0155
  170MOL0     H22430   3.398   1.634   7.153  1.0078 -0.7626  2.0902
  170MOL0     H22431   3.401   1.779   7.245  1.2666 -2.5162  1.3070
  170MOL0     H22432   3.634   1.823   7.179 -1.0310  0.5686 -0.0090
  170MOL0     H22433   3.609   1.653   7.208  1.2565  0.5644  0.0739
  170MOL0     H22434   3.751   1.719   7.004  0.0868 -0.4850 -0.0504
  170MOL0     H22435   3.603   1.776   6.936 -0.3932 -1.4678 -0.0308
  170MOL0     H22436   3.522   1.536   6.972 -0.6183  4.5216  1.6887
  170MOL0     H22437   3.625   1.561   6.838  1.0218 -4.1615 -0.4183
  170MOL0     H22438   3.881   1.327   7.061  2.1201  1.8095  1.3285
  170MOL0     H22439   3.152   1.683   7.179  0.5896  1.1156  0.0594
  170MOL0     H22440   2.912   1.730   7.096 -0.7439  0.3291 -0.3801
  171MOL0     O22441   8.220   4.456   5.197 -0.0875  0.8547  0.5409
  171MOL0     C22442   8.128   4.369   5.199 -0.0282  0.0720 -1.6602
  171MOL0     O22443   8.148   4.233   5.228 -0.1858 -0.8396 -0.0157
  171MOL0     C22444   8.282   4.193   5.228  0.4294  0.1557 -0.3727
  171MOL0     C22445   8.303   4.108   5.333 -0.4831  0.0992 -0.7549
  171MOL0     C22446   8.437   4.062   5.348  0.0325 -0.4143  0.2119
  171MOL0     C22447   8.541   4.087   5.252  0.1401 -0.2190 -0.2020
  171MOL0     O22448   8.665   4.044   5.291  0.9013 -0.0512  0.1764
  171MOL0     C22449   8.783   4.094   5.229  0.2373 -0.1730  0.0811
  171MOL0     C22450   8.888   4.087   5.342 -0.6005  0.1659 -0.2027
  171MOL0     C22451   9.018   4.176   5.316 -0.0103 -0.0675 -0.5519
  171MOL0     C22452   9.143   4.093   5.361  0.1837  0.0152  0.2642
  171MOL0     C22453   9.267   4.174   5.396 -0.1741  0.1246 -0.1498
  171MOL0     C22454   9.315   4.267   5.279  0.4484 -0.7419  0.2996
  171MOL0     C22455   9.323   4.202   5.139 -0.9256 -0.7350  0.7791
  171MOL0     C22456   9.426   4.080   5.148 -0.1266 -1.2503 -0.3812
  171MOL0     N22457   9.572   4.124   5.179 -0.3508 -0.1711 -0.3867
  171MOL0     C22458   9.656   4.197   5.095  0.2298 -0.3045 -0.2657
  171MOL0     C22459   9.773   4.203   5.165  0.2124 -0.4870 -0.6552
  171MOL0     C22460   9.899   4.265   5.112 -0.2979 -0.3912 -1.3461
  171MOL0     C22461  10.029   4.179   5.142  1.4078 -0.0181 -0.8239
  171MOL0     C22462  10.151   4.271   5.151 -0.9426  0.8420  0.6420
  171MOL0     C22463  10.265   4.187   5.087  0.3478  0.4038  0.1571
  171MOL0     O22464  10.371   4.276   5.084 -0.7817  0.5264  0.1848
  171MOL0     C22465  10.502   4.219   5.078  0.5098  0.6160  0.5317
  171MOL0     C22466  10.543   4.088   5.108  0.3291  0.2023  0.1074
  171MOL0     C22467  10.673   4.048   5.109 -0.3307  0.3706  0.1363
  171MOL0     C22468  10.774   4.136   5.062 -0.5300  0.0848  0.4475
  171MOL0     C22469  10.918   4.104   5.087  0.8629  0.2489  0.1341
  171MOL0     O22470  11.003   4.201   5.068 -0.4133 -0.2310 -0.1393
  171MOL0     C22471  11.144   4.191   5.068 -0.4195 -0.1726 -0.0027
  171MOL0     C22472  11.225   4.110   5.146 -0.8486 -0.1347  0.1384
  171MOL0     C22473  11.363   4.124   5.133  0.1100 -0.3703 -0.6023
  171MOL0     C22474  11.422   4.217   5.045  0.9148  0.2655 -0.9376
  171MOL0     O22475  11.552   4.240   5.030 -0.0846 -0.0104 -0.4440
  171MOL0     C22476  11.651   4.174   5.117 -0.3410 -0.1338  1.0739
  171MOL0     C22477  11.789   4.220   5.108  1.5676  0.2290  0.7656
  171MOL0     C22478  11.796   4.363   5.115  0.0179 -0.3544  0.0305
  171MOL0     C22479  11.940   4.416   5.088 -1.6375 -0.1917  0.6860
  171MOL0     C22480  12.038   4.398   5.204 -0.0659 -0.2812 -0.1995
  171MOL0     C22481  12.181   4.397   5.139  0.6526  0.3303 -0.0536
  171MOL0     C22482  12.284   4.407   5.238 -1.0344  0.1494  0.1590
  171MOL0     C22483  12.414   4.406   5.170  0.1082 -0.1649  0.1434
  171MOL0    Cl22484  12.418   4.574   5.085 -0.0354 -0.5964 -0.4141
  171MOL0     C22485  11.336   4.289   4.963 -0.0230 -0.7898 -0.1320
  171MOL0     C22486  11.195   4.281   4.973  0.0864  0.3359 -0.3571
  171MOL0     O22487  10.946   3.987   5.096  0.0190  0.4727 -0.7432
  171MOL0     C22488  10.731   4.267   5.024  0.0534 -0.3065 -0.7456
  171MOL0     C22489  10.600   4.304   5.040 -0.3205  0.1174  0.5732
  171MOL0     N22490   9.762   4.132   5.279  0.9393  0.8907 -0.0262
  171MOL0     N22491   9.645   4.082   5.287 -0.5023 -0.2526 -0.1390
  171MOL0     C22492   8.505   4.160   5.130  1.0699 -0.1584 -0.4047
  171MOL0     C22493   8.369   4.207   5.121 -1.1034 -0.0096  1.2724
  171MOL0     C22494   7.993   4.398   5.157  0.9525  0.5404 -0.0124
  171MOL0     C22495   7.914   4.306   5.087 -0.3334 -0.1665  0.9743
  171MOL0     C22496   7.784   4.322   5.048 -0.9406  0.7963 -0.0953
  171MOL0     C22497   7.726   4.444   5.072 -0.3075 -0.1069 -0.6923
  171MOL0     O22498   7.601   4.478   5.023  0.1592 -0.0832  0.0652
  171MOL0     C22499   7.531   4.396   4.931  0.4903  0.4422  0.2535
  171MOL0     C22500   7.385   4.441   4.919 -0.2667 -0.4629  0.3797
  171MOL0     C22501   7.317   4.358   4.812 -0.4832 -0.3174 -0.7470
  171MOL0     C22502   7.357   4.206   4.797 -0.5621 -0.0399 -0.5832
  171MOL0     C22503   7.310   4.132   4.916 -0.0579 -0.3445 -0.7628
  171MOL0     C22504   7.275   4.079   5.016  0.1623 -0.0143  0.0102
  171MOL0     C22505   7.800   4.540   5.150 -0.4312  0.0376 -0.0594
  171MOL0     C22506   7.928   4.512   5.194  0.6426  0.6372 -0.6424
  171MOL0     H22507   8.225   4.096   5.407  0.8988 -2.5473  0.4285
  171MOL0     H22508   8.466   4.001   5.433 -0.6193 -3.4059 -1.5908
  171MOL0     H22509   8.768   4.197   5.194 -0.9789  0.5170  2.3777
  171MOL0     H22510   8.814   4.028   5.148  1.5786 -0.9768  1.1987
  171MOL0     H22511   8.904   3.979   5.347  3.6157  0.1100 -5.7496
  171MOL0     H22512   8.856   4.130   5.437  2.4492 -2.5313  2.2242
  171MOL0     H22513   9.002   4.268   5.373 -0.9850 -0.7630  0.3424
  171MOL0     H22514   9.026   4.197   5.209 -1.7520 -2.6964 -1.2937
  171MOL0     H22515   9.117   4.026   5.443  2.3442 -0.6045  0.5226
  171MOL0     H22516   9.167   4.019   5.284 -0.6589  0.7360 -0.7161
  171MOL0     H22517   9.355   4.117   5.426  1.0818  1.6007 -0.8751
  171MOL0     H22518   9.244   4.236   5.483 -0.8686  2.2867 -1.7732
  171MOL0     H22519   9.411   4.316   5.298 -0.4086  1.4906 -0.8193
  171MOL0     H22520   9.242   4.348   5.270 -1.2295 -1.9405  2.1837
  171MOL0     H22521   9.222   4.165   5.121 -0.4340 -2.7166  1.7833
  171MOL0     H22522   9.361   4.260   5.054 -2.8246 -3.3656 -2.0950
  171MOL0     H22523   9.423   4.017   5.059  1.3241 -0.2053 -1.2148
  171MOL0     H22524   9.395   4.014   5.229 -1.5882 -0.2145 -0.0661
  171MOL0     H22525   9.617   4.238   5.003  0.1221  0.5307  0.1387
  171MOL0     H22526   9.907   4.361   5.164  1.3176 -1.9305  1.5457
  171MOL0     H22527   9.890   4.277   5.004  1.6228  0.3577 -1.4543
  171MOL0     H22528  10.041   4.098   5.068 -3.7949 -0.5560 -1.4545
  171MOL0     H22529  10.026   4.127   5.238 -0.2619  1.2056 -0.1671
  171MOL0     H22530  10.124   4.364   5.100 -3.9743  0.1052  0.6886
  171MOL0     H22531  10.166   4.290   5.258 -0.0035  1.6631  0.3740
  171MOL0     H22532  10.237   4.148   4.989 -0.5668 -0.3323  0.6887
  171MOL0     H22533  10.283   4.108   5.161  2.7180 -0.2097 -0.9740
  171MOL0     H22534  10.476   4.013   5.149  0.1595 -0.7440 -1.8013
  171MOL0     H22535  10.707   3.949   5.135  1.8363  1.0932  0.2936
  171MOL0     H22536  11.186   4.047   5.226  2.0461 -2.2325  0.0403
  171MOL0     H22537  11.423   4.060   5.196 -2.3636 -2.6064 -0.3322
  171MOL0     H22538  11.654   4.066   5.100 -1.3687 -0.5687  3.2660
  171MOL0     H22539  11.612   4.186   5.219 -1.0093  1.0816  0.7041
  171MOL0     H22540  11.839   4.187   5.016 -0.1503  0.3570 -0.2677
  171MOL0     H22541  11.842   4.165   5.185 -3.1157 -3.3166  1.8725
  171MOL0     H22542  11.756   4.398   5.211 -2.5532  1.0678 -1.4766
  171MOL0     H22543  11.733   4.405   5.037 -0.5089 -0.9556  0.1277
  171MOL0     H22544  11.989   4.366   5.004  1.4939  2.4895  0.7133
  171MOL0     H22545  11.952   4.521   5.059 -0.8525 -0.1365  1.1860
  171MOL0     H22546  12.019   4.308   5.264 -0.9600  0.2140  0.2622
  171MOL0     H22547  12.035   4.483   5.272 -0.2226 -1.5465  1.4524
  171MOL0     H22548  12.188   4.470   5.058  2.8570 -1.3387 -1.4983
  171MOL0     H22549  12.193   4.295   5.101  3.3693  0.5630  0.0049
  171MOL0     H22550  12.264   4.486   5.311  0.9671  2.0451 -1.2000
  171MOL0     H22551  12.279   4.318   5.301 -2.0814  0.6313  0.7850
  171MOL0     H22552  12.431   4.314   5.113  0.0367 -0.7831  1.1005
  171MOL0     H22553  12.483   4.409   5.254 -0.5149  1.2727  0.6297
  171MOL0     H22554  11.366   4.354   4.882  0.9161  1.0627  1.6098
  171MOL0     H22555  11.131   4.332   4.901  1.1738  0.0298 -1.5849
  171MOL0     H22556  10.807   4.339   4.997  1.7521 -1.6963  0.1625
  171MOL0     H22557  10.576   4.404   5.005  3.7260  0.6542 -1.2399
  171MOL0     H22558   8.566   4.196   5.048 -0.8285  2.4412 -0.8235
  171MOL0     H22559   8.352   4.271   5.034  0.7629  0.0388  0.8955
  171MOL0     H22560   7.948   4.203   5.080 -0.3420 -0.1838  1.1783
  171MOL0     H22561   7.751   4.234   4.994 -0.8463 -0.9719  2.5381
  171MOL0     H22562   7.530   4.292   4.966 -1.3752  0.4625  0.3655
  171MOL0     H22563   7.579   4.403   4.833 -1.3560 -0.1974 -0.7437
  171MOL0     H22564   7.333   4.420   5.013  1.1987 -1.2478  1.0398
  171MOL0     H22565   7.372   4.548   4.901  0.4870 -0.2155  1.2440
  171MOL0     H22566   7.333   4.409   4.717 -1.6070  0.4179 -0.5573
  171MOL0     H22567   7.210   4.354   4.832 -0.2598  1.3695  1.1231
  171MOL0     H22568   7.292   4.158   4.723 -1.6545 -0.8266  0.8096
  171MOL0     H22569   7.459   4.177   4.769 -0.8973 -0.2913 -1.5962
  171MOL0     H22570   7.232   4.025   5.098  1.9271 -0.2833  0.8077
  171MOL0     H22571   7.750   4.636   5.157 -1.6080 -0.4733 -1.0155
  171MOL0     H22572   7.978   4.582   5.260 -0.4411 -0.9101  2.0021
  172MOL0     O22573   9.232   1.244   2.983  0.6428 -0.1225  0.6049
  172MOL0     C22574   9.276   1.349   2.936 -0.0553 -0.5830 -0.3001
  172MOL0     O22575   9.206   1.457   2.882 -0.4559 -0.5970 -0.1340
  172MOL0     C22576   9.076   1.455   2.925  0.1931  0.1761 -0.2020
  172MOL0     C22577   9.032   1.454   3.055  0.2023  0.7855 -0.0467
  172MOL0     C22578   8.901   1.489   3.085  0.7543 -0.3535 -0.3024
  172MOL0     C22579   8.806   1.486   2.984  0.0490 -0.5753  0.4567
  172MOL0     O22580   8.679   1.522   3.021 -0.3850  0.0355 -1.1120
  172MOL0     C22581   8.575   1.513   2.925 -0.2520 -0.2788 -0.5799
  172MOL0     C22582   8.440   1.551   2.982 -0.1203  0.0992  0.2464
  172MOL0     C22583   8.326   1.499   2.882  1.6369 -1.4522  0.4231
  172MOL0     C22584   8.304   1.598   2.766  0.8323 -0.4322 -0.6851
  172MOL0     C22585   8.185   1.564   2.670  0.5235  0.0649 -0.1220
  172MOL0     C22586   8.156   1.658   2.559 -0.0378  0.9813  0.7100
  172MOL0     C22587   8.121   1.800   2.606 -0.1565  0.1342  0.4725
  172MOL0     C22588   8.061   1.895   2.493  0.3606 -0.3247  0.6904
  172MOL0     N22589   7.916   1.852   2.464  0.0083 -1.0751  0.6185
  172MOL0     C22590   7.861   1.741   2.397 -0.0844 -0.3893  0.8564
  172MOL0     C22591   7.736   1.739   2.433 -0.0816 -0.1480  0.0429
  172MOL0     C22592   7.627   1.648   2.388 -0.4851 -0.4320 -0.0008
  172MOL0     C22593   7.567   1.700   2.259  0.7255 -0.9711 -0.2966
  172MOL0     C22594   7.650   1.648   2.139 -0.0914  0.0190  1.0962
  172MOL0     C22595   7.645   1.759   2.029  0.2231  0.2001  0.8131
  172MOL0     O22596   7.743   1.732   1.929 -0.4922 -0.1372 -0.3033
  172MOL0     C22597   7.869   1.757   1.983 -0.5416 -0.6218 -0.3047
  172MOL0     C22598   7.968   1.656   1.995  0.3042 -0.5851  0.7425
  172MOL0     C22599   8.089   1.674   2.059 -0.7328 -0.1353  0.3900
  172MOL0     C22600   8.123   1.803   2.110  0.2077  0.0678  0.9152
  172MOL0     C22601   8.249   1.821   2.182 -0.4281  0.3241  0.7760
  172MOL0     O22602   8.309   1.712   2.221 -0.3749 -0.8132  0.1428
  172MOL0     C22603   8.442   1.720   2.247 -0.0713  0.5578  0.0684
  172MOL0     C22604   8.532   1.638   2.183 -0.0140  1.0045  0.0658
  172MOL0     C22605   8.666   1.635   2.202  0.1935 -0.0302 -0.8924
  172MOL0     C22606   8.725   1.721   2.303 -0.3374  0.6700  1.8781
  172MOL0     O22607   8.865   1.735   2.330 -0.4608  0.1326  0.4645
  172MOL0     C22608   8.953   1.629   2.283  0.2448 -0.7835  0.3084
  172MOL0     C22609   9.083   1.635   2.365  0.1141  0.2798  0.9215
  172MOL0     C22610   9.148   1.502   2.347 -0.6386 -0.0062  0.3374
  172MOL0     C22611   9.280   1.497   2.434  0.0920  0.1464  0.0001
  172MOL0     C22612   9.361   1.378   2.372  0.6482  0.6765 -0.8252
  172MOL0     C22613   9.486   1.350   2.437 -0.0928 -0.4470 -0.7916
  172MOL0     C22614   9.547   1.235   2.362 -0.2281  0.0377 -0.0832
  172MOL0     C22615   9.646   1.167   2.455  0.5783 -0.5817  0.6142
  172MOL0    Cl22616   9.783   1.284   2.480 -0.5279  0.2041 -0.2866
  172MOL0     C22617   8.637   1.808   2.364 -0.1935  0.4785 -0.0522
  172MOL0     C22618   8.497   1.799   2.343 -0.4011 -0.1231 -0.0051
  172MOL0     O22619   8.292   1.933   2.200  0.0222  0.5889  0.4927
  172MOL0     C22620   8.034   1.909   2.085 -0.3252  0.3794  1.1406
  172MOL0     C22621   7.904   1.891   2.029  0.6836  0.3497 -0.3961
  172MOL0     N22622   7.708   1.842   2.517 -0.2513 -0.1615  0.4565
  172MOL0     N22623   7.815   1.907   2.537 -0.2388 -0.6468 -0.3994
  172MOL0     C22624   8.846   1.478   2.855  0.9024 -0.2609 -0.1935
  172MOL0     C22625   8.979   1.465   2.825  0.1981 -0.3580 -1.2672
  172MOL0     C22626   9.420   1.343   2.910 -0.2511 -0.5104  0.5225
  172MOL0     C22627   9.492   1.219   2.894 -0.8223  0.7668 -0.3309
  172MOL0     C22628   9.627   1.231   2.851  0.1960  0.1798  0.4278
  172MOL0     C22629   9.696   1.358   2.838 -0.9496  0.4374  0.4372
  172MOL0     O22630   9.831   1.381   2.812 -0.7294  0.3767  0.1026
  172MOL0     C22631   9.916   1.268   2.820 -0.8989  0.2393 -0.7169
  172MOL0     C22632  10.065   1.294   2.848  0.9314  1.6186  0.2235
  172MOL0     C22633  10.108   1.347   2.715 -0.5509 -0.3875 -0.4846
  172MOL0     C22634  10.261   1.370   2.709 -1.1441 -0.7680  0.3577
  172MOL0     C22635  10.308   1.495   2.770 -0.4988  0.1947  0.0055
  172MOL0     C22636  10.338   1.602   2.822 -0.3463 -0.7466  0.5525
  172MOL0     C22637   9.608   1.472   2.831 -0.7190  0.4571  0.2424
  172MOL0     C22638   9.474   1.459   2.863 -0.4053  0.2866 -0.4608
  172MOL0     H22639   9.110   1.437   3.129 -0.2173 -6.0281 -0.5846
  172MOL0     H22640   8.877   1.501   3.190  4.8974 -2.5619  1.1284
  172MOL0     H22641   8.566   1.407   2.899 -3.1894  0.3190 -2.4131
  172MOL0     H22642   8.599   1.563   2.831 -4.3114  0.3645 -1.4593
  172MOL0     H22643   8.427   1.656   3.009  0.2259  0.1611  0.1725
  172MOL0     H22644   8.429   1.490   3.072  0.0217  1.9925  1.5971
  172MOL0     H22645   8.233   1.487   2.938  0.4190 -2.1134 -1.6252
  172MOL0     H22646   8.345   1.402   2.835  0.1917 -1.8044  0.5314
  172MOL0     H22647   8.291   1.696   2.812 -0.8416  0.2345 -2.4275
  172MOL0     H22648   8.398   1.607   2.711  0.4832  0.2806 -1.1736
  172MOL0     H22649   8.098   1.575   2.736 -0.7920  0.4784 -1.8713
  172MOL0     H22650   8.188   1.458   2.642  1.2130  0.3820 -1.2931
  172MOL0     H22651   8.079   1.623   2.490  1.9127  1.6831 -1.9897
  172MOL0     H22652   8.253   1.657   2.509  2.2909 -0.2907  4.7364
  172MOL0     H22653   8.052   1.792   2.690 -0.0432  0.7984  0.6412
  172MOL0     H22654   8.215   1.846   2.640 -0.2904 -0.0398  1.0892
  172MOL0     H22655   8.111   1.897   2.395 -0.4440 -1.5961  0.2305
  172MOL0     H22656   8.059   1.999   2.526 -0.7283 -0.5553  1.4022
  172MOL0     H22657   7.916   1.682   2.325  0.1495  0.9022 -0.0634
  172MOL0     H22658   7.544   1.642   2.459 -0.7337  1.4548 -0.0865
  172MOL0     H22659   7.679   1.552   2.376 -2.5309 -1.9233  2.0638
  172MOL0     H22660   7.567   1.810   2.257  2.7710 -0.9110 -3.1743
  172MOL0     H22661   7.465   1.662   2.255  0.0577  0.3999  1.9866
  172MOL0     H22662   7.756   1.643   2.167 -0.1173 -0.2044  1.1549
  172MOL0     H22663   7.617   1.556   2.091 -0.6278 -0.3071  2.0532
  172MOL0     H22664   7.667   1.856   2.074  3.3966 -0.8122  1.7202
  172MOL0     H22665   7.552   1.758   1.971 -0.2647 -0.6660  1.5903
  172MOL0     H22666   7.926   1.562   1.961 -0.7339  0.3231 -0.6195
  172MOL0     H22667   8.167   1.599   2.067 -1.3360 -0.9508 -1.0952
  172MOL0     H22668   8.490   1.573   2.107  1.4239  0.6796 -0.4840
  172MOL0     H22669   8.739   1.567   2.161  1.6386 -0.6707  2.4143
  172MOL0     H22670   8.965   1.653   2.177 -1.3042  0.6163  0.4081
  172MOL0     H22671   8.907   1.530   2.282  2.1796 -1.7218 -0.3088
  172MOL0     H22672   9.068   1.661   2.470  1.4269 -0.0910  1.2231
  172MOL0     H22673   9.139   1.720   2.324 -2.5535  0.1672 -3.7339
  172MOL0     H22674   9.164   1.470   2.243  1.8019  0.6491  0.4461
  172MOL0     H22675   9.075   1.436   2.395  0.7877 -0.6716  1.6972
  172MOL0     H22676   9.340   1.589   2.424  0.1908  0.1298  0.4143
  172MOL0     H22677   9.265   1.477   2.540  2.7389  0.2441  0.4705
  172MOL0     H22678   9.374   1.395   2.264  0.6199 -2.6603 -1.4627
  172MOL0     H22679   9.296   1.291   2.384 -0.8642  1.8451 -0.2024
  172MOL0     H22680   9.465   1.325   2.542 -0.9438 -2.8925 -1.4769
  172MOL0     H22681   9.549   1.439   2.436 -1.3877  0.5256  0.0625
  172MOL0     H22682   9.480   1.151   2.341  2.2775 -1.6420 -1.9251
  172MOL0     H22683   9.598   1.247   2.266  0.0963 -0.8582 -0.0235
  172MOL0     H22684   9.688   1.074   2.414 -0.9299 -1.5838  1.2401
  172MOL0     H22685   9.600   1.138   2.550 -2.5408 -1.4431 -1.0282
  172MOL0     H22686   8.675   1.876   2.439 -1.7585  2.1877 -0.7309
  172MOL0     H22687   8.429   1.856   2.406  0.5505  1.1898 -0.1122
  172MOL0     H22688   8.059   2.005   2.128  2.1204  0.9866 -1.3833
  172MOL0     H22689   7.835   1.975   2.023  1.1487  0.8919  1.4229
  172MOL0     H22690   8.775   1.485   2.774 -0.9789 -0.5028  1.3704
  172MOL0     H22691   9.003   1.458   2.719 -2.0055 -2.8192 -1.7095
  172MOL0     H22692   9.442   1.123   2.901  0.6269 -0.3087 -3.1116
  172MOL0     H22693   9.678   1.137   2.836 -1.8010 -1.3118  2.1966
  172MOL0     H22694   9.905   1.206   2.731 -3.6798 -1.1139  0.4483
  172MOL0     H22695   9.883   1.207   2.905  2.5355 -0.2622  0.4306
  172MOL0     H22696  10.077   1.365   2.931  4.0501  0.1656  1.1749
  172MOL0     H22697  10.107   1.194   2.867 -3.7321 -1.1271 -2.2315
  172MOL0     H22698  10.059   1.442   2.693 -3.4865 -0.4229  4.4643
  172MOL0     H22699  10.086   1.265   2.646 -3.7341  0.0205 -0.0858
  172MOL0     H22700  10.314   1.281   2.742  3.0029  1.2275 -0.2840
  172MOL0     H22701  10.284   1.388   2.604 -1.3344 -0.6674  0.3319
  172MOL0     H22702  10.355   1.702   2.853 -2.3819 -0.4805  0.9429
  172MOL0     H22703   9.658   1.563   2.800 -0.9273  0.5781  0.2562
  172MOL0     H22704   9.418   1.551   2.876  1.7090  1.3815  1.6076
  173MOL0     O22705   8.937   1.740   4.837  0.8713  0.9187  0.0902
  173MOL0     C22706   8.924   1.678   4.733 -0.5013  0.4865 -0.4319
  173MOL0     O22707   9.026   1.667   4.646  0.2713  0.3946  0.1432
  173MOL0     C22708   9.151   1.712   4.673 -0.7377  1.3849  0.1173
  173MOL0     C22709   9.235   1.604   4.651  0.6843 -0.3014  0.5974
  173MOL0     C22710   9.380   1.624   4.661  0.4508 -0.1315  0.1812
  173MOL0     C22711   9.421   1.750   4.705  0.1972 -0.2042  0.1980
  173MOL0     O22712   9.551   1.779   4.721 -0.6099 -0.1210  0.0221
  173MOL0     C22713   9.645   1.679   4.668 -0.2911 -0.0329 -0.1177
  173MOL0     C22714   9.784   1.738   4.692  0.1203  0.4181 -0.2442
  173MOL0     C22715   9.884   1.649   4.616 -0.5336  0.8744 -0.0109
  173MOL0     C22716  10.020   1.717   4.601 -0.7098 -0.1653  0.0455
  173MOL0     C22717  10.117   1.630   4.519 -0.1922  0.2524  0.5130
  173MOL0     C22718  10.237   1.717   4.502 -0.2159 -0.1603  0.1748
  173MOL0     C22719  10.357   1.652   4.439 -0.1262 -0.9915 -0.3061
  173MOL0     C22720  10.457   1.769   4.418 -0.0668 -0.4266 -0.3360
  173MOL0     N22721  10.590   1.723   4.391  0.8476  0.4392 -0.5039
  173MOL0     C22722  10.618   1.615   4.313 -0.4039 -0.1618 -0.2907
  173MOL0     C22723  10.750   1.633   4.279 -0.2862  0.9694  0.1392
  173MOL0     C22724  10.814   1.543   4.176 -0.1876  0.3127  0.2189
  173MOL0     C22725  10.958   1.526   4.215 -0.2811 -0.0416 -0.3101
  173MOL0     C22726  11.040   1.458   4.103  0.1043 -1.4824  0.3850
  173MOL0     C22727  11.180   1.510   4.116 -0.4535 -0.1373  0.2927
  173MOL0     O22728  11.252   1.485   3.994  0.1781  0.5202  0.1222
  173MOL0     C22729  11.388   1.509   3.977 -0.1384 -0.8940 -0.2015
  173MOL0     C22730  11.446   1.446   3.865  0.2954  0.4540 -0.3232
  173MOL0     C22731  11.579   1.428   3.852 -1.2079  0.6668 -0.5339
  173MOL0     C22732  11.658   1.475   3.946  0.8613 -1.4989  0.3160
  173MOL0     C22733  11.808   1.466   3.926  1.2216 -0.1724 -0.0893
  173MOL0     O22734  11.889   1.576   3.972 -1.2733 -0.1501 -0.0365
  173MOL0     C22735  12.023   1.562   3.976  0.2712 -0.0530  0.5004
  173MOL0     C22736  12.092   1.525   3.865  0.1134  0.6585 -0.4327
  173MOL0     C22737  12.230   1.534   3.870 -0.2128  0.5589  0.2765
  173MOL0     C22738  12.293   1.598   3.977 -0.5953 -0.0777 -0.3594
  173MOL0     O22739  12.429   1.634   3.971 -0.0488 -0.4897  0.1405
  173MOL0     C22740  12.469   1.703   3.849 -0.5450 -0.0228 -0.2341
  173MOL0     C22741  12.620   1.685   3.831 -0.2917 -0.7592  0.2050
  173MOL0     C22742  12.698   1.808   3.897 -0.2639  0.6549  0.3538
  173MOL0     C22743  12.683   1.819   4.051 -0.5437 -0.4380 -0.2171
  173MOL0     C22744  12.702   1.691   4.134 -0.2617 -0.3163  0.5904
  173MOL0     C22745  12.840   1.701   4.218 -0.3352 -0.1658  0.7978
  173MOL0     C22746  12.964   1.755   4.136  0.3432  0.0669 -0.3958
  173MOL0     C22747  13.103   1.709   4.181 -0.0365 -0.5100 -0.1444
  173MOL0    Cl22748  13.113   1.733   4.353 -0.1669 -0.0785 -0.5354
  173MOL0     C22749  12.224   1.633   4.088 -0.3976 -0.0217 -0.0965
  173MOL0     C22750  12.084   1.614   4.093  0.6321  0.5476  0.6790
  173MOL0     O22751  11.853   1.364   3.874 -0.6068  0.5373  0.6995
  173MOL0     C22752  11.612   1.560   4.050  0.1329  0.4310 -0.3772
  173MOL0     C22753  11.471   1.572   4.064 -0.5916 -0.0241 -0.4053
  173MOL0     N22754  10.802   1.739   4.346 -0.5051  0.7327 -0.2812
  173MOL0     N22755  10.704   1.787   4.418  0.6673  0.3261 -0.1443
  173MOL0     C22756   9.332   1.854   4.726 -0.5948 -0.2280  0.8560
  173MOL0     C22757   9.199   1.840   4.713  0.5919 -0.0131  0.8828
  173MOL0     C22758   8.789   1.628   4.702  0.5268  0.2923  0.2856
  173MOL0     C22759   8.682   1.658   4.788 -0.4664 -0.2142  0.4896
  173MOL0     C22760   8.560   1.596   4.754 -0.0167 -0.0262  0.9840
  173MOL0     C22761   8.542   1.510   4.644 -0.1402  0.9859  0.9850
  173MOL0     O22762   8.419   1.456   4.608  0.3665 -1.0405 -0.0748
  173MOL0     C22763   8.296   1.506   4.667 -0.1117 -0.8369  0.6669
  173MOL0     C22764   8.239   1.397   4.752  1.2091  0.4368  0.3132
  173MOL0     C22765   8.310   1.371   4.888 -0.0006 -0.6199  0.6050
  173MOL0     C22766   8.221   1.290   4.983  0.4707  0.3056  0.0433
  173MOL0     C22767   8.283   1.247   5.111 -0.4488 -0.7132 -0.4598
  173MOL0     C22768   8.333   1.206   5.215 -0.6289 -0.0715 -0.1999
  173MOL0     C22769   8.658   1.476   4.572 -0.8513  0.6714 -0.3168
  173MOL0     C22770   8.773   1.545   4.590 -0.3733  0.3975  0.2487
  173MOL0     H22771   9.196   1.507   4.623 -2.7281  1.0402  0.2401
  173MOL0     H22772   9.446   1.539   4.651  0.6533 -0.2064  1.8572
  173MOL0     H22773   9.618   1.660   4.564  1.9901  3.1835 -1.4702
  173MOL0     H22774   9.647   1.588   4.729 -2.4639  3.5892  6.3481
  173MOL0     H22775   9.807   1.722   4.798  2.1828  0.7860 -0.5933
  173MOL0     H22776   9.790   1.844   4.665 -0.4727 -0.0841 -2.4871
  173MOL0     H22777   9.847   1.630   4.515 -1.4051 -1.0231  0.6233
  173MOL0     H22778   9.881   1.553   4.668  1.5470  0.1835 -1.0409
  173MOL0     H22779  10.012   1.813   4.548 -1.5232 -1.3681 -2.1161
  173MOL0     H22780  10.070   1.735   4.697  1.8657 -1.3257 -0.9893
  173MOL0     H22781  10.077   1.612   4.419 -5.0028 -0.8016  2.3176
  173MOL0     H22782  10.143   1.538   4.572 -1.1620 -0.3378 -0.0041
  173MOL0     H22783  10.258   1.772   4.594  1.4806  1.3266 -1.0215
  173MOL0     H22784  10.203   1.789   4.427 -1.2258  0.2869  1.0393
  173MOL0     H22785  10.408   1.595   4.517 -0.1173 -0.0036  0.4241
  173MOL0     H22786  10.340   1.585   4.354  2.6209 -0.7603 -1.1487
  173MOL0     H22787  10.454   1.839   4.503  0.7415  0.6905 -1.1920
  173MOL0     H22788  10.424   1.826   4.330 -1.4137 -1.7649 -0.7381
  173MOL0     H22789  10.547   1.544   4.271 -0.4198 -1.0764  1.1968
  173MOL0     H22790  10.814   1.577   4.072  2.0215  0.1930  0.1327
  173MOL0     H22791  10.772   1.442   4.179  0.9149 -0.1450  2.7938
  173MOL0     H22792  10.962   1.464   4.305 -1.9228 -2.8698 -2.0195
  173MOL0     H22793  11.001   1.625   4.233 -1.1304  0.5007 -1.1404
  173MOL0     H22794  11.038   1.349   4.100  1.7260 -1.5435 -3.2497
  173MOL0     H22795  10.994   1.476   4.005 -2.2764 -3.1323  1.0925
  173MOL0     H22796  11.229   1.452   4.195  0.5517  0.7374  0.3480
  173MOL0     H22797  11.189   1.613   4.151  1.0543 -1.0315  2.8053
  173MOL0     H22798  11.378   1.402   3.792  0.5008 -0.2700 -0.0873
  173MOL0     H22799  11.612   1.365   3.769 -1.4654 -1.0252  0.5967
  173MOL0     H22800  12.043   1.480   3.779 -0.6265 -1.4539  0.9938
  173MOL0     H22801  12.298   1.499   3.793 -0.1012 -0.1853  0.7044
  173MOL0     H22802  12.437   1.807   3.845 -0.2486  0.0776  0.0015
  173MOL0     H22803  12.423   1.658   3.760  1.7286 -2.0158 -0.5015
  173MOL0     H22804  12.640   1.706   3.726 -2.3831 -1.2446 -0.3154
  173MOL0     H22805  12.647   1.585   3.867  0.0572  0.0588  2.3882
  173MOL0     H22806  12.675   1.907   3.857  2.0235  1.0799 -0.0250
  173MOL0     H22807  12.799   1.772   3.876 -0.9182 -1.8505  1.1384
  173MOL0     H22808  12.745   1.904   4.082  0.8555 -1.8616  1.0924
  173MOL0     H22809  12.581   1.849   4.077 -0.2397 -1.6697  2.7999
  173MOL0     H22810  12.714   1.602   4.071  1.0314  0.3841 -0.1885
  173MOL0     H22811  12.621   1.676   4.206 -0.9686 -0.5635 -0.2447
  173MOL0     H22812  12.866   1.603   4.259  0.8741  0.1131  0.7518
  173MOL0     H22813  12.821   1.775   4.297  2.9119  0.5402  1.0636
  173MOL0     H22814  12.939   1.705   4.042  2.7152 -1.4980 -0.2672
  173MOL0     H22815  12.954   1.861   4.114 -1.1669  0.1857  0.6881
  173MOL0     H22816  13.175   1.770   4.125 -1.5306  0.7577 -0.7857
  173MOL0     H22817  13.114   1.607   4.145 -0.0701 -0.5908  0.0751
  173MOL0     H22818  12.277   1.663   4.178 -1.6352 -0.6305  0.8826
  173MOL0     H22819  12.044   1.647   4.188 -0.1320  3.2541 -0.4857
  173MOL0     H22820  11.669   1.620   4.121 -2.7355 -0.7756  3.2563
  173MOL0     H22821  11.422   1.642   4.131 -1.3839  1.3120 -2.2974
  173MOL0     H22822   9.374   1.952   4.746 -0.0795 -0.4635  0.9225
  173MOL0     H22823   9.132   1.924   4.729  2.3591  2.0188 -1.5281
  173MOL0     H22824   8.693   1.726   4.871 -0.2504 -1.0549  1.1601
  173MOL0     H22825   8.480   1.612   4.827 -0.8753  2.8345 -0.4490
  173MOL0     H22826   8.231   1.533   4.584  0.9468 -0.0268  0.0760
  173MOL0     H22827   8.303   1.595   4.731 -3.1007 -0.9542  1.3152
  173MOL0     H22828   8.133   1.417   4.770  1.2984 -0.1516  1.5971
  173MOL0     H22829   8.257   1.305   4.695 -0.5178  0.0151  0.4032
  173MOL0     H22830   8.327   1.472   4.928  0.7057  0.2692 -1.7552
  173MOL0     H22831   8.411   1.331   4.876 -0.2149 -1.2228  0.7618
  173MOL0     H22832   8.127   1.342   5.000  0.0345  0.1263 -1.6891
  173MOL0     H22833   8.185   1.205   4.924  2.0368  0.6409 -1.4809
  173MOL0     H22834   8.362   1.178   5.314 -0.6415  1.4865  0.2634
  173MOL0     H22835   8.650   1.411   4.485  0.0494 -0.5985  0.5128
  173MOL0     H22836   8.854   1.542   4.517 -0.0740  1.5648  0.5173
  174MOL0     O22837   4.583   2.845   6.030  0.7832 -0.2236 -0.2954
  174MOL0     C22838   4.641   2.770   5.950  0.5091  0.0537 -0.5125
  174MOL0     O22839   4.586   2.678   5.880 -0.0711  0.8137 -0.0176
  174MOL0     C22840   4.456   2.642   5.888  0.4057 -0.3345 -0.6001
  174MOL0     C22841   4.385   2.652   5.768  0.8934 -0.3640  0.7704
  174MOL0     C22842   4.242   2.650   5.758  0.7294 -0.2528  0.2119
  174MOL0     C22843   4.173   2.622   5.882  0.2954 -0.7539  0.7758
  174MOL0     O22844   4.038   2.622   5.873 -0.0449 -0.2448 -0.6679
  174MOL0     C22845   3.975   2.549   5.978  0.6593 -1.0047 -0.3929
  174MOL0     C22846   3.823   2.542   5.946  0.0054  0.5406  0.0099
  174MOL0     C22847   3.713   2.482   6.046 -1.7657  0.5644  0.1784
  174MOL0     C22848   3.570   2.544   6.036 -0.5522  0.0652  0.6807
  174MOL0     C22849   3.455   2.489   6.127 -0.2533 -0.1176  0.0978
  174MOL0     C22850   3.498   2.479   6.272 -1.1245  0.0086  0.5304
  174MOL0     C22851   3.378   2.412   6.355  0.3743 -0.2689 -0.5714
  174MOL0     C22852   3.411   2.409   6.502  0.0650  0.2599  0.1431
  174MOL0     N22853   3.309   2.328   6.577 -0.1357 -0.7248  0.1135
  174MOL0     C22854   3.183   2.374   6.621 -0.1291  0.0660  0.5415
  174MOL0     C22855   3.122   2.265   6.664  0.6301  0.2543  0.0159
  174MOL0     C22856   2.987   2.252   6.715 -0.0721 -0.1794  0.4812
  174MOL0     C22857   2.986   2.226   6.869 -0.5906  0.4531 -0.3061
  174MOL0     C22858   3.110   2.278   6.947 -0.4131 -0.3478  0.0040
  174MOL0     C22859   3.084   2.236   7.095 -0.5303  1.0489 -0.5638
  174MOL0     O22860   3.189   2.276   7.180  0.1252  0.6936 -0.1549
  174MOL0     C22861   3.325   2.233   7.172  0.1017 -0.9606 -0.1830
  174MOL0     C22862   3.425   2.306   7.238 -0.2112  0.1782  0.6125
  174MOL0     C22863   3.559   2.268   7.226 -0.2411  0.8133  0.3592
  174MOL0     C22864   3.600   2.159   7.160  0.2196  0.7939  0.7158
  174MOL0     C22865   3.748   2.121   7.152  0.4024 -1.1559  0.1817
  174MOL0     O22866   3.838   2.173   7.245  0.1513 -0.1253  0.1669
  174MOL0     C22867   3.970   2.153   7.240  0.7026  0.5807 -0.4496
  174MOL0     C22868   4.037   2.197   7.127 -0.0063  1.2306  1.1917
  174MOL0     C22869   4.174   2.205   7.119 -0.0677  0.7619  0.1411
  174MOL0     C22870   4.242   2.171   7.238  0.5283  0.4037  0.3772
  174MOL0     O22871   4.379   2.186   7.239 -0.1628 -0.8892  0.1061
  174MOL0     C22872   4.425   2.301   7.317 -0.4773 -0.5127 -0.4238
  174MOL0     C22873   4.570   2.292   7.365  0.4471  1.2098  0.0369
  174MOL0     C22874   4.589   2.197   7.482 -0.2258  1.3254 -0.6062
  174MOL0     C22875   4.738   2.157   7.515 -0.4143 -0.1282 -0.7790
  174MOL0     C22876   4.746   2.076   7.644  0.3282  0.5171 -0.3698
  174MOL0     C22877   4.869   1.982   7.645 -0.2715  0.1230  0.1169
  174MOL0     C22878   4.962   2.028   7.755 -0.1048  0.3898 -0.0127
  174MOL0     C22879   5.070   1.912   7.773  0.9067 -0.4125 -1.7002
  174MOL0    Cl22880   5.159   1.857   7.634  0.1333 -0.3450 -0.2458
  174MOL0     C22881   4.180   2.121   7.352  0.5420 -0.3274  0.4851
  174MOL0     C22882   4.045   2.103   7.348 -0.2950 -0.0159 -0.5256
  174MOL0     O22883   3.780   2.041   7.066 -0.2970 -0.3362 -0.4157
  174MOL0     C22884   3.502   2.092   7.091  0.1943  1.3247  0.1154
  174MOL0     C22885   3.368   2.126   7.095  0.6055  0.2906  0.5527
  174MOL0     N22886   3.215   2.158   6.648  0.6136  0.2784  0.7091
  174MOL0     N22887   3.326   2.198   6.614 -0.2530  0.7752 -0.0857
  174MOL0     C22888   4.250   2.613   5.998  0.2431 -0.0214  0.4471
  174MOL0     C22889   4.384   2.639   6.006  0.1122 -0.1153 -0.8577
  174MOL0     C22890   4.792   2.784   5.953 -0.7790  0.2910  0.5840
  174MOL0     C22891   4.864   2.891   6.015  1.0925 -0.4660 -0.2190
  174MOL0     C22892   5.001   2.892   6.001  0.7180  0.3222  0.3326
  174MOL0     C22893   5.071   2.792   5.924 -0.1743  0.1885 -0.6132
  174MOL0     O22894   5.206   2.798   5.888 -0.2068 -0.2113 -0.1236
  174MOL0     C22895   5.289   2.892   5.957 -0.2221  0.5636  0.4274
  174MOL0     C22896   5.326   2.847   6.105  0.1594  1.1134  0.2156
  174MOL0     C22897   5.404   2.959   6.173  0.6074 -0.3024  0.0556
  174MOL0     C22898   5.442   2.909   6.308 -0.3508 -0.4585  0.3643
  174MOL0     C22899   5.511   3.032   6.369 -0.0224 -0.0135 -0.1777
  174MOL0     C22900   5.558   3.125   6.428  0.3193  0.2727 -0.6288
  174MOL0     C22901   5.012   2.687   5.863  0.3221  1.0807 -0.4784
  174MOL0     C22902   4.872   2.680   5.886 -0.9589  0.5108 -0.3021
  174MOL0     H22903   4.438   2.670   5.674 -0.6066  1.2116  0.1694
  174MOL0     H22904   4.189   2.668   5.665  1.6536  0.0954 -0.2659
  174MOL0     H22905   3.986   2.597   6.076 -1.6086  1.1547 -1.0815
  174MOL0     H22906   4.006   2.444   5.984 -1.1062 -1.6353 -1.6023
  174MOL0     H22907   3.815   2.487   5.851 -0.2626  1.1514 -0.3327
  174MOL0     H22908   3.805   2.649   5.931  0.3070  0.7494  1.1019
  174MOL0     H22909   3.762   2.498   6.142 -0.5292  0.3504 -0.4071
  174MOL0     H22910   3.709   2.376   6.020 -0.1055  1.1370 -2.8483
  174MOL0     H22911   3.564   2.651   6.058  0.3161  0.3765 -0.4960
  174MOL0     H22912   3.537   2.519   5.935  0.3339  0.8186  0.1796
  174MOL0     H22913   3.427   2.388   6.096 -1.0476  0.4603 -1.1178
  174MOL0     H22914   3.369   2.555   6.115 -0.1590  0.2363  1.2069
  174MOL0     H22915   3.526   2.578   6.309  0.1806 -1.0304  2.4958
  174MOL0     H22916   3.590   2.421   6.265 -0.1020  1.7860 -1.6946
  174MOL0     H22917   3.286   2.465   6.327  0.8344  0.9201  0.1167
  174MOL0     H22918   3.368   2.306   6.330 -1.5700  0.3024 -2.5205
  174MOL0     H22919   3.411   2.512   6.537 -1.1975  1.0331 -1.9950
  174MOL0     H22920   3.513   2.369   6.508  0.3165  0.3630 -2.2844
  174MOL0     H22921   3.142   2.475   6.622 -2.8595 -0.9528  1.6612
  174MOL0     H22922   2.926   2.193   6.646  1.0022  0.6524 -1.2826
  174MOL0     H22923   2.929   2.345   6.709 -0.5900 -0.5674 -1.0696
  174MOL0     H22924   2.987   2.118   6.889  0.1814  0.5971  0.4875
  174MOL0     H22925   2.891   2.246   6.918 -0.9047 -1.8603  0.1677
  174MOL0     H22926   3.205   2.237   6.911 -0.9759  0.4377 -2.5692
  174MOL0     H22927   3.127   2.386   6.940 -0.3792 -0.2699  1.1397
  174MOL0     H22928   3.091   2.128   7.110  1.6167  1.3663  1.2021
  174MOL0     H22929   2.984   2.268   7.126 -2.6331 -3.5033 -1.7474
  174MOL0     H22930   3.387   2.386   7.302 -0.8372 -0.3469  0.9087
  174MOL0     H22931   3.624   2.330   7.287 -0.2162 -1.0628  2.3457
  174MOL0     H22932   3.976   2.228   7.042 -1.9531 -2.8663  0.8886
  174MOL0     H22933   4.218   2.241   7.027  0.1304 -1.6272 -0.7671
  174MOL0     H22934   4.367   2.337   7.402  1.0201  2.4570 -0.5309
  174MOL0     H22935   4.418   2.388   7.251 -0.3298 -0.8176 -0.8454
  174MOL0     H22936   4.610   2.391   7.389 -1.6369  2.2957 -0.6496
  174MOL0     H22937   4.631   2.258   7.281  2.8835  0.3065  2.0517
  174MOL0     H22938   4.543   2.100   7.461  4.0130 -1.5332  1.7366
  174MOL0     H22939   4.547   2.239   7.573  0.0534  0.2905  0.0146
  174MOL0     H22940   4.790   2.105   7.434  1.0928 -1.6553  1.0848
  174MOL0     H22941   4.789   2.250   7.543 -2.5286 -0.1121  3.9470
  174MOL0     H22942   4.651   2.025   7.657  2.4201 -3.2946  1.5075
  174MOL0     H22943   4.754   2.151   7.723  5.4818 -0.6319  0.6225
  174MOL0     H22944   4.923   1.986   7.550  0.0280 -0.8484  0.2364
  174MOL0     H22945   4.835   1.879   7.661  1.1357 -0.2405  0.9527
  174MOL0     H22946   5.010   2.123   7.730 -1.3771  1.2462  0.7635
  174MOL0     H22947   4.907   2.039   7.848 -0.5480 -1.5266 -0.0072
  174MOL0     H22948   5.013   1.833   7.822  1.2482  0.6077  0.5036
  174MOL0     H22949   5.142   1.946   7.848 -0.8630  0.5534 -0.3681
  174MOL0     H22950   4.217   2.085   7.447 -0.0665 -3.8008 -0.4677
  174MOL0     H22951   4.001   2.074   7.443 -2.5857  0.7029 -1.2933
  174MOL0     H22952   3.532   2.005   7.033 -0.0614  2.2326 -1.4321
  174MOL0     H22953   3.291   2.061   7.055  1.9662 -2.1118  1.6415
  174MOL0     H22954   4.191   2.610   6.089  0.0775 -1.5815  0.3250
  174MOL0     H22955   4.428   2.645   6.105 -0.8621  1.1030 -0.4813
  174MOL0     H22956   4.806   2.966   6.069  3.3779 -0.1147  1.9692
  174MOL0     H22957   5.051   2.984   6.030 -0.9146  1.8225 -1.3593
  174MOL0     H22958   5.232   2.986   5.945  0.0033  0.5930 -0.4643
  174MOL0     H22959   5.390   2.908   5.919  0.5412  0.0828  2.1565
  174MOL0     H22960   5.235   2.834   6.165  1.0833 -1.6209  1.1910
  174MOL0     H22961   5.387   2.756   6.105 -0.6750  0.4986  1.9766
  174MOL0     H22962   5.336   3.044   6.181 -0.8978 -1.4365 -0.2306
  174MOL0     H22963   5.487   2.991   6.109 -1.0983  1.2432 -1.5145
  174MOL0     H22964   5.360   2.882   6.374 -0.7931 -0.1247 -0.0407
  174MOL0     H22965   5.511   2.824   6.299 -1.1512 -1.0768 -0.0601
  174MOL0     H22966   5.592   3.214   6.478 -2.5550  0.9806  0.2470
  174MOL0     H22967   5.067   2.612   5.807 -1.2194 -0.1669 -0.3687
  174MOL0     H22968   4.815   2.599   5.843 -0.0523 -0.2882 -0.0320
  175MOL0     O22969   5.368   3.320   7.225  0.5780 -0.4215  0.2082
  175MOL0     C22970   5.365   3.199   7.215  0.4027 -0.7712  0.5647
  175MOL0     O22971   5.280   3.120   7.286 -0.2565 -0.2209  0.3937
  175MOL0     C22972   5.192   3.181   7.379  0.5158  0.1720  0.6918
  175MOL0     C22973   5.211   3.183   7.512  0.0323  1.5875 -0.4756
  175MOL0     C22974   5.119   3.233   7.606 -0.1550 -0.2036 -0.3076
  175MOL0     C22975   4.991   3.275   7.562 -0.1857  0.2517 -0.5414
  175MOL0     O22976   4.897   3.325   7.649 -0.8576  0.1694  0.0989
  175MOL0     C22977   4.875   3.264   7.777  0.1059  0.2174 -0.5481
  175MOL0     C22978   4.738   3.309   7.818  0.1519  0.5420 -0.2301
  175MOL0     C22979   4.691   3.223   7.941  0.4156  0.6024  0.9822
  175MOL0     C22980   4.559   3.278   7.987 -0.8398 -0.5049  0.5557
  175MOL0     C22981   4.524   3.222   8.126  0.8752 -0.3462 -0.5817
  175MOL0     C22982   4.374   3.224   8.146  0.4699 -0.3347 -0.1026
  175MOL0     C22983   4.310   3.120   8.255  0.0214 -0.2272  0.1254
  175MOL0     C22984   4.351   3.146   8.397  0.0629 -0.4535 -0.5518
  175MOL0     N22985   4.284   3.274   8.452 -0.0680  0.9224  0.1346
  175MOL0     C22986   4.311   3.410   8.429  0.6458  0.3075 -0.0130
  175MOL0     C22987   4.192   3.470   8.446  0.7826  1.2756  0.5474
  175MOL0     C22988   4.160   3.615   8.444  0.1186 -0.0283  0.1001
  175MOL0     C22989   4.111   3.644   8.592 -0.0889 -0.1610 -0.5200
  175MOL0     C22990   4.112   3.802   8.610 -0.2322  0.8764 -0.7473
  175MOL0     C22991   4.058   3.851   8.744 -0.2374 -0.3073 -0.1617
  175MOL0     O22992   4.072   3.996   8.736 -0.0073 -0.8397  0.3929
  175MOL0     C22993   4.036   4.072   8.848 -0.3134 -0.1939  0.3203
  175MOL0     C22994   4.073   4.204   8.831 -0.2502  0.3841  0.9020
  175MOL0     C22995   4.043   4.303   8.938  0.8696 -0.4188 -0.0025
  175MOL0     C22996   3.979   4.254   9.057  0.0781  0.1322 -0.1133
  175MOL0     C22997   3.950   4.339   9.169  0.3009  1.0801 -1.3249
  175MOL0     O22998   3.980   4.469   9.147  0.5034  1.1494 -0.1007
  175MOL0     C22999   3.939   4.564   9.239 -0.1484  0.4508 -0.2315
  175MOL0     C23000   4.019   4.603   9.346 -0.7412 -0.1629  0.8453
  175MOL0     C23001   3.979   4.709   9.418 -0.7862 -0.6494 -0.4094
  175MOL0     C23002   3.854   4.773   9.407 -0.0720 -0.5644 -0.9865
  175MOL0     O23003   3.818   4.885   9.489 -0.0734 -0.0721  0.8589
  175MOL0     C23004   3.686   4.898   9.528  0.4194 -0.1708 -0.3583
  175MOL0     C23005   3.633   4.779   9.620  0.7059 -0.5265  0.8318
  175MOL0     C23006   3.478   4.765   9.629 -0.8283 -1.0237  0.0470
  175MOL0     C23007   3.399   4.893   9.653 -0.1821 -0.4548  0.3564
  175MOL0     C23008   3.262   4.882   9.707  0.6756 -0.9346 -0.0360
  175MOL0     C23009   3.166   4.989   9.672 -0.3832 -0.7370 -0.7079
  175MOL0     C23010   3.078   4.956   9.559 -0.2390 -0.1576 -0.0194
  175MOL0     C23011   2.960   5.050   9.565  0.9962 -1.0812  0.0129
  175MOL0    Cl23012   3.012   5.215   9.533 -0.3072 -0.1250  0.1182
  175MOL0     C23013   3.765   4.723   9.308  0.3688  1.0454  1.3634
  175MOL0     C23014   3.808   4.623   9.227 -0.7797  0.9468  0.0577
  175MOL0     O23015   3.899   4.297   9.273  0.0496 -0.1806  0.6951
  175MOL0     C23016   3.951   4.116   9.074  0.1742  0.1162  0.2729
  175MOL0     C23017   3.978   4.031   8.969 -0.6288  0.1649 -0.4185
  175MOL0     N23018   4.097   3.374   8.491 -0.3180  0.2261 -0.2910
  175MOL0     N23019   4.154   3.255   8.498 -0.1232 -0.3580 -0.2882
  175MOL0     C23020   4.969   3.285   7.426 -0.0610 -0.2114  0.0707
  175MOL0     C23021   5.069   3.241   7.339  0.2494  0.2895  0.2567
  175MOL0     C23022   5.447   3.133   7.114  0.1601  0.4910 -0.0091
  175MOL0     C23023   5.420   2.994   7.088 -0.0490  0.3872  0.1900
  175MOL0     C23024   5.499   2.928   6.988 -0.7317  0.1775 -0.2968
  175MOL0     C23025   5.604   2.993   6.918  0.3408 -0.2646  0.0431
  175MOL0     O23026   5.687   2.922   6.833 -0.1358 -0.2903 -0.6959
  175MOL0     C23027   5.664   2.787   6.804 -0.4494  0.3023  0.6113
  175MOL0     C23028   5.767   2.750   6.690  0.2179 -0.7669 -0.6281
  175MOL0     C23029   5.756   2.853   6.569  0.1568  0.2824 -0.6438
  175MOL0     C23030   5.871   2.837   6.469 -0.4250  0.8313 -0.2091
  175MOL0     C23031   5.832   2.731   6.369 -0.7661  0.3194 -0.0061
  175MOL0     C23032   5.821   2.645   6.283 -0.5077 -0.4680 -0.2049
  175MOL0     C23033   5.633   3.125   6.957 -0.9974 -0.0222  1.3196
  175MOL0     C23034   5.560   3.198   7.057 -0.8757  1.0555  0.4316
  175MOL0     H23035   5.305   3.144   7.549 -0.4998  0.1116 -0.5832
  175MOL0     H23036   5.147   3.247   7.709  1.3690 -0.1074 -0.7175
  175MOL0     H23037   4.938   3.278   7.865 -0.7513  0.2335  0.0876
  175MOL0     H23038   4.849   3.159   7.763  0.3200  0.0419  0.2774
  175MOL0     H23039   4.661   3.291   7.742 -1.4537  0.3693  1.3639
  175MOL0     H23040   4.746   3.417   7.833  2.2690  0.3534  0.2180
  175MOL0     H23041   4.757   3.226   8.028  0.3759  4.5557  1.0615
  175MOL0     H23042   4.676   3.117   7.916  1.4592  0.5079  0.6971
  175MOL0     H23043   4.558   3.387   7.990  0.2552 -0.4928  0.8394
  175MOL0     H23044   4.480   3.261   7.913  1.3653  0.2651 -2.0983
  175MOL0     H23045   4.565   3.269   8.215 -0.2343  0.3395 -0.4254
  175MOL0     H23046   4.546   3.115   8.121 -4.3527 -1.6850 -1.2252
  175MOL0     H23047   4.325   3.197   8.052  2.1025  2.2211 -1.8402
  175MOL0     H23048   4.343   3.328   8.153 -1.7485 -1.0740  2.4513
  175MOL0     H23049   4.202   3.135   8.252  0.1563  0.7140 -2.3477
  175MOL0     H23050   4.333   3.017   8.229 -1.3563 -0.2951 -0.9448
  175MOL0     H23051   4.460   3.153   8.400  0.2361 -2.3594 -1.0284
  175MOL0     H23052   4.331   3.060   8.461 -0.2066 -2.1527 -2.7911
  175MOL0     H23053   4.398   3.464   8.391  0.3986  0.3479 -0.5295
  175MOL0     H23054   4.087   3.637   8.366  0.7111  1.4572 -0.0758
  175MOL0     H23055   4.242   3.688   8.434 -2.4337  2.8799 -1.3406
  175MOL0     H23056   4.182   3.600   8.663  0.5447 -1.8604 -2.1395
  175MOL0     H23057   4.015   3.601   8.621 -0.8139  1.1474 -0.8785
  175MOL0     H23058   4.213   3.840   8.594  0.2391 -0.5702 -1.4478
  175MOL0     H23059   4.055   3.843   8.526 -4.6496 -1.3352  0.8127
  175MOL0     H23060   4.107   3.809   8.832 -1.2932 -2.8056 -0.6678
  175MOL0     H23061   3.955   3.816   8.762  0.3991 -1.3882  1.6122
  175MOL0     H23062   4.132   4.229   8.744  0.5810  0.5847  1.5030
  175MOL0     H23063   4.071   4.408   8.934 -1.4728  0.3623  1.5892
  175MOL0     H23064   4.109   4.547   9.369  0.0937  0.2726 -1.1282
  175MOL0     H23065   4.045   4.747   9.496 -1.9932  0.0714  0.2940
  175MOL0     H23066   3.622   4.900   9.439  2.2433 -0.1124 -1.7396
  175MOL0     H23067   3.660   4.985   9.588  0.1806 -0.9427  0.6889
  175MOL0     H23068   3.674   4.792   9.720 -1.1155  0.8754  1.4658
  175MOL0     H23069   3.668   4.681   9.587  1.1989  0.1625 -0.7972
  175MOL0     H23070   3.454   4.705   9.717 -1.7808  0.5908  0.9567
  175MOL0     H23071   3.439   4.704   9.547  1.3826 -2.0987 -0.2612
  175MOL0     H23072   3.448   4.956   9.729 -0.8222 -0.5554  0.8571
  175MOL0     H23073   3.398   4.947   9.558  1.7695  0.0482  0.5742
  175MOL0     H23074   3.261   4.869   9.816 -0.0410  0.1807  0.1057
  175MOL0     H23075   3.215   4.790   9.671  0.3118  0.2328 -2.7977
  175MOL0     H23076   3.215   5.085   9.652  0.5279 -1.0621 -0.1145
  175MOL0     H23077   3.103   5.012   9.758  0.0319  1.3202 -0.9012
  175MOL0     H23078   3.129   4.975   9.464  0.6803  1.3913  0.7502
  175MOL0     H23079   3.034   4.856   9.567 -0.5176  0.1114  2.5685
  175MOL0     H23080   2.913   5.061   9.663  1.8826  0.7408  0.2898
  175MOL0     H23081   2.885   5.022   9.490  0.5222  0.5613 -0.1676
  175MOL0     H23082   3.673   4.772   9.279  1.4552  2.4571  0.1827
  175MOL0     H23083   3.751   4.591   9.141  3.2786  1.2727 -3.0837
  175MOL0     H23084   3.909   4.077   9.167  2.0929 -1.5792  0.5002
  175MOL0     H23085   3.979   3.923   8.981 -0.4834  0.2510  0.3973
  175MOL0     H23086   4.871   3.324   7.399 -0.1715  0.3923  1.2920
  175MOL0     H23087   5.049   3.252   7.233 -2.4352 -1.1915  0.5288
  175MOL0     H23088   5.334   2.953   7.139 -0.2317  0.3295 -0.1632
  175MOL0     H23089   5.485   2.822   6.970  0.7495 -0.3715  1.4120
  175MOL0     H23090   5.573   2.757   6.752  1.0046  0.1594 -2.0255
  175MOL0     H23091   5.684   2.721   6.888 -1.5787 -0.0703  0.6050
  175MOL0     H23092   5.869   2.754   6.730 -0.6117  1.4774  1.5277
  175MOL0     H23093   5.758   2.647   6.655 -2.0983 -1.1601  0.8834
  175MOL0     H23094   5.757   2.959   6.599  0.8898 -0.1467  0.9506
  175MOL0     H23095   5.658   2.837   6.522 -0.3256  0.7048  0.1758
  175MOL0     H23096   5.897   2.927   6.413  2.4336  0.0017 -0.3795
  175MOL0     H23097   5.962   2.817   6.528 -1.5254  1.7051  1.8943
  175MOL0     H23098   5.805   2.577   6.202  1.2983  0.0309 -1.0540
  175MOL0     H23099   5.718   3.171   6.910 -1.7696 -0.5649 -0.6930
  175MOL0     H23100   5.585   3.299   7.087  1.1838 -0.1357  3.1731
  176MOL0     O23101   6.072   2.841   2.163 -0.4420 -0.2365  0.6940
  176MOL0     C23102   6.131   2.832   2.052  1.3982 -1.0067 -0.3621
  176MOL0     O23103   6.064   2.795   1.939  0.7928 -0.6127 -0.3251
  176MOL0     C23104   5.926   2.780   1.960 -0.5595  0.6374  0.1135
  176MOL0     C23105   5.833   2.886   1.966 -0.0424 -0.3253  0.5880
  176MOL0     C23106   5.697   2.860   1.967 -0.6371  0.9050  0.4450
  176MOL0     C23107   5.645   2.731   1.967 -0.1349  1.1603 -0.1112
  176MOL0     O23108   5.509   2.707   1.987 -1.1202  0.2333 -0.0681
  176MOL0     C23109   5.450   2.588   1.939 -0.9550 -0.6877  0.4451
  176MOL0     C23110   5.307   2.630   1.939  0.8037 -0.2211  0.8023
  176MOL0     C23111   5.206   2.518   1.881  0.3272 -0.7706  0.6469
  176MOL0     C23112   5.085   2.576   1.818 -0.3862  0.5888 -0.3138
  176MOL0     C23113   4.989   2.466   1.794  0.5095 -0.2482  0.9935
  176MOL0     C23114   4.872   2.511   1.701 -0.5143  0.0918 -0.0927
  176MOL0     C23115   4.747   2.418   1.700  0.2047  0.1034  0.4229
  176MOL0     C23116   4.621   2.474   1.613  0.0339 -0.0976 -0.4843
  176MOL0     N23117   4.601   2.614   1.653 -0.5206 -0.4957 -0.2825
  176MOL0     C23118   4.569   2.662   1.776  0.0408 -1.3294 -0.6941
  176MOL0     C23119   4.561   2.798   1.759 -0.6734  0.3575 -0.1307
  176MOL0     C23120   4.530   2.894   1.867  0.6522 -0.9210  0.0086
  176MOL0     C23121   4.662   2.973   1.901 -0.2777  0.3214  0.8923
  176MOL0     C23122   4.683   3.087   1.809 -0.2079 -0.4361  0.5007
  176MOL0     C23123   4.802   3.171   1.844  0.3602 -0.0202 -0.9002
  176MOL0     O23124   4.923   3.095   1.813 -0.5276 -0.1945  0.3525
  176MOL0     C23125   5.048   3.157   1.807 -0.0779  0.3938  0.6594
  176MOL0     C23126   5.078   3.298   1.788  0.6172  0.0272 -0.0359
  176MOL0     C23127   5.206   3.345   1.792 -0.2246  0.4895  0.5311
  176MOL0     C23128   5.317   3.259   1.807  0.7642 -0.1855  0.0359
  176MOL0     C23129   5.449   3.301   1.814 -0.6152  0.5907  0.0702
  176MOL0     O23130   5.537   3.199   1.789  0.1513 -0.0471 -1.2674
  176MOL0     C23131   5.670   3.221   1.818  0.1576  0.3203  0.2726
  176MOL0     C23132   5.719   3.259   1.946  0.9231  0.0190  1.0169
  176MOL0     C23133   5.859   3.269   1.957 -0.2033  0.4667 -1.4982
  176MOL0     C23134   5.959   3.260   1.856  1.2832  0.8012  1.4268
  176MOL0     O23135   6.097   3.258   1.860 -0.4578  0.1430 -0.1601
  176MOL0     C23136   6.152   3.362   1.950  0.7509 -0.2767 -0.3877
  176MOL0     C23137   6.292   3.346   1.990 -0.0671 -0.2491 -0.8146
  176MOL0     C23138   6.372   3.478   1.976 -0.0807 -0.4839  0.8788
  176MOL0     C23139   6.518   3.464   1.996 -0.1311 -0.4921 -0.4324
  176MOL0     C23140   6.570   3.608   1.994 -0.7492 -0.2498 -0.1221
  176MOL0     C23141   6.719   3.588   2.034 -0.3552 -0.9137 -0.0217
  176MOL0     C23142   6.804   3.694   1.972  1.0240 -0.1338  0.3423
  176MOL0     C23143   6.952   3.647   1.968  0.4348  0.5775  0.5268
  176MOL0    Cl23144   6.985   3.570   2.130  0.0829 -0.6413  0.5016
  176MOL0     C23145   5.896   3.220   1.731  0.0469  0.3543 -0.3987
  176MOL0     C23146   5.759   3.204   1.708 -0.3991 -0.1176 -0.1940
  176MOL0     O23147   5.481   3.417   1.809  0.7898  0.5525 -0.3346
  176MOL0     C23148   5.281   3.123   1.806 -0.1895 -0.1001 -0.1646
  176MOL0     C23149   5.153   3.066   1.805  0.1178 -0.5142 -0.8205
  176MOL0     N23150   4.587   2.827   1.629 -0.3619 -0.7359 -0.3024
  176MOL0     N23151   4.617   2.716   1.572 -0.1404 -0.5520  0.1400
  176MOL0     C23152   5.737   2.627   1.948 -0.1447 -0.2035  0.3291
  176MOL0     C23153   5.872   2.652   1.952  0.2997 -0.1409 -0.0715
  176MOL0     C23154   6.272   2.881   2.053 -0.5909  0.1508 -0.7320
  176MOL0     C23155   6.335   2.908   1.936  0.7181  0.1660 -0.1004
  176MOL0     C23156   6.445   2.979   1.926  0.4452 -0.2712 -0.1317
  176MOL0     C23157   6.517   3.023   2.038 -0.4839 -0.6715 -0.2082
  176MOL0     O23158   6.637   3.101   2.010  0.2086 -0.6722 -0.5685
  176MOL0     C23159   6.686   3.169   2.128 -0.9115 -0.3867 -0.3433
  176MOL0     C23160   6.786   3.076   2.210  0.6793 -0.1115 -0.8521
  176MOL0     C23161   6.821   3.140   2.353  0.9459  0.1197  0.4668
  176MOL0     C23162   6.882   3.052   2.454 -0.2244 -0.4907 -0.4707
  176MOL0     C23163   6.993   2.963   2.416 -1.1695  1.0883  0.0918
  176MOL0     C23164   7.088   2.895   2.389 -0.2275  0.0006  0.9950
  176MOL0     C23165   6.466   2.979   2.158 -1.0498 -0.9686 -0.1961
  176MOL0     C23166   6.354   2.905   2.168 -0.2442  0.1535  0.2806
  176MOL0     H23167   5.863   2.991   1.967 -2.0527  0.4207 -2.7610
  176MOL0     H23168   5.637   2.950   1.974  0.1883  1.4663  0.4163
  176MOL0     H23169   5.464   2.504   2.008 -2.0665  0.7264  2.5020
  176MOL0     H23170   5.491   2.562   1.841  0.4019 -2.1153  1.3441
  176MOL0     H23171   5.306   2.711   1.865 -0.6180 -2.2645 -1.5879
  176MOL0     H23172   5.271   2.675   2.032  1.5315  1.8537  0.1489
  176MOL0     H23173   5.172   2.461   1.968  1.0348  2.6762  3.4365
  176MOL0     H23174   5.265   2.443   1.828 -0.5281 -2.3192  1.8155
  176MOL0     H23175   5.036   2.658   1.872 -4.8965 -2.1781  0.3892
  176MOL0     H23176   5.115   2.620   1.723 -0.8145 -0.3211 -0.8926
  176MOL0     H23177   4.957   2.432   1.892  1.9228 -2.0210  0.8817
  176MOL0     H23178   5.036   2.380   1.747  2.1740  0.4732  1.2735
  176MOL0     H23179   4.900   2.530   1.597  0.2056  1.4355  0.3220
  176MOL0     H23180   4.843   2.608   1.743 -1.8945 -0.2887 -0.1512
  176MOL0     H23181   4.772   2.318   1.662 -1.9491 -0.4452  0.3175
  176MOL0     H23182   4.710   2.404   1.803  2.3230 -0.1835  1.1892
  176MOL0     H23183   4.528   2.417   1.625 -1.1354  1.9676  1.0523
  176MOL0     H23184   4.633   2.470   1.504 -1.3197 -1.8110 -0.6209
  176MOL0     H23185   4.550   2.599   1.863 -0.6368 -0.2469 -0.0268
  176MOL0     H23186   4.499   2.839   1.957  0.8187 -1.3440 -0.1908
  176MOL0     H23187   4.454   2.969   1.843  0.8700 -0.0575  1.8011
  176MOL0     H23188   4.746   2.903   1.902  1.2978  2.1283  2.0462
  176MOL0     H23189   4.649   3.012   2.003 -0.9519  1.4214  0.4057
  176MOL0     H23190   4.706   3.063   1.704  1.8175  3.1707 -0.0465
  176MOL0     H23191   4.604   3.163   1.805  0.0643 -0.1528 -2.7417
  176MOL0     H23192   4.810   3.187   1.952  1.3422 -0.6444 -0.8590
  176MOL0     H23193   4.796   3.267   1.792  1.4589  1.6129  1.7491
  176MOL0     H23194   4.993   3.364   1.772  0.1961 -0.9790 -2.3114
  176MOL0     H23195   5.223   3.452   1.781  1.1945  0.3140  0.8469
  176MOL0     H23196   5.668   3.289   2.037  1.6622 -0.6932  1.6720
  176MOL0     H23197   5.892   3.277   2.060 -0.3937 -0.8709 -1.3133
  176MOL0     H23198   6.094   3.377   2.041 -2.1950 -0.7074 -2.0585
  176MOL0     H23199   6.127   3.455   1.898  0.5987 -0.3102 -0.3736
  176MOL0     H23200   6.336   3.261   1.939 -1.3169 -1.0266 -0.6473
  176MOL0     H23201   6.295   3.315   2.095  1.0209  1.4063 -0.3178
  176MOL0     H23202   6.341   3.547   2.055  4.9914 -0.0983  2.9194
  176MOL0     H23203   6.352   3.531   1.883  0.7638 -2.4198 -0.4771
  176MOL0     H23204   6.536   3.428   2.097 -2.9505  1.9272  1.0794
  176MOL0     H23205   6.570   3.402   1.922  0.6618 -1.0498  0.5800
  176MOL0     H23206   6.501   3.671   2.050 -1.5371 -1.4815  0.3422
  176MOL0     H23207   6.569   3.646   1.891 -1.9113  2.5353  0.8117
  176MOL0     H23208   6.754   3.488   2.007 -0.1080 -1.2878  1.6025
  176MOL0     H23209   6.715   3.599   2.143  0.2240  0.1306 -0.0864
  176MOL0     H23210   6.767   3.731   1.876  3.5400  1.1330 -0.2363
  176MOL0     H23211   6.792   3.788   2.027  1.4191  0.5583 -0.7116
  176MOL0     H23212   7.015   3.734   1.947 -1.2939  2.8020  3.7466
  176MOL0     H23213   6.968   3.570   1.891 -0.4659  1.8123 -0.9507
  176MOL0     H23214   5.970   3.233   1.653 -0.3601  1.7700 -0.5806
  176MOL0     H23215   5.721   3.193   1.607 -1.8636 -1.5643  0.4643
  176MOL0     H23216   5.364   3.056   1.824  0.3859  0.4644 -0.6515
  176MOL0     H23217   5.131   2.963   1.832 -0.4988  0.4042  2.6437
  176MOL0     H23218   5.707   2.525   1.928 -2.0814 -0.2362  2.8811
  176MOL0     H23219   5.943   2.573   1.931 -0.0192 -0.2650 -0.7238
  176MOL0     H23220   6.283   2.869   1.849  1.5061 -1.5685  0.1718
  176MOL0     H23221   6.487   3.003   1.829  0.5964  2.0784  0.4499
  176MOL0     H23222   6.614   3.196   2.205 -1.5659 -0.8763 -0.7745
  176MOL0     H23223   6.735   3.263   2.100  0.8400 -1.3169 -0.5240
  176MOL0     H23224   6.738   2.981   2.232  4.1741 -1.6384  0.9729
  176MOL0     H23225   6.877   3.051   2.156  0.4737  1.1786 -1.8503
  176MOL0     H23226   6.725   3.183   2.382  1.8186  2.5300  0.0390
  176MOL0     H23227   6.894   3.222   2.344  2.7979 -1.2894  1.7748
  176MOL0     H23228   6.902   3.098   2.552 -1.9385  0.5285 -0.5625
  176MOL0     H23229   6.799   2.983   2.474  0.2735 -1.4153 -1.5371
  176MOL0     H23230   7.174   2.838   2.363  1.0858  1.1779  2.5591
  176MOL0     H23231   6.515   2.996   2.253  1.6281 -0.4996 -1.5571
  176MOL0     H23232   6.322   2.860   2.262  1.1848 -0.3986  0.5310
  177MOL0     O23233   8.226   5.052   1.850  0.0847  0.4400 -0.0666
  177MOL0     C23234   8.196   4.947   1.793 -0.3407  0.5496 -0.1334
  177MOL0     O23235   8.084   4.872   1.816  0.1636 -0.8852 -0.6084
  177MOL0     C23236   7.999   4.912   1.918  0.1845  0.8023  0.8330
  177MOL0     C23237   8.030   4.968   2.039  0.0858 -0.0655 -0.3680
  177MOL0     C23238   7.937   4.992   2.140 -0.5874 -0.2872 -0.0450
  177MOL0     C23239   7.803   4.948   2.113 -0.0377  0.4101 -0.5577
  177MOL0     O23240   7.713   4.966   2.212 -0.9872  0.1754  0.4282
  177MOL0     C23241   7.621   4.861   2.250 -0.0317  0.0530 -0.2469
  177MOL0     C23242   7.593   4.859   2.400 -0.3774  0.3313 -0.4304
  177MOL0     C23243   7.511   4.971   2.465  0.4789  0.2675 -0.4870
  177MOL0     C23244   7.367   4.971   2.422  0.3367 -0.1064  0.5760
  177MOL0     C23245   7.275   5.075   2.487  0.1860  0.2060 -0.2735
  177MOL0     C23246   7.132   5.051   2.444 -1.0031  0.8713  0.4467
  177MOL0     C23247   7.018   5.128   2.505  0.1234  0.7882 -0.3584
  177MOL0     C23248   6.895   5.153   2.411 -0.6721  0.6173  0.1040
  177MOL0     N23249   6.791   5.245   2.452 -0.2475  0.4435  0.2589
  177MOL0     C23250   6.783   5.327   2.562  0.4870  0.3887 -0.4392
  177MOL0     C23251   6.713   5.435   2.535 -0.4059  0.9023  0.6266
  177MOL0     C23252   6.687   5.554   2.626 -0.1228 -0.2318 -0.4790
  177MOL0     C23253   6.572   5.649   2.573  0.1296 -0.3883  0.2798
  177MOL0     C23254   6.434   5.592   2.609 -0.4279  0.2561  0.9305
  177MOL0     C23255   6.409   5.508   2.740  0.2899 -0.5029  0.3497
  177MOL0     O23256   6.270   5.509   2.766  0.3823 -0.2501  0.5048
  177MOL0     C23257   6.202   5.625   2.806 -0.8320 -0.1062 -0.2431
  177MOL0     C23258   6.072   5.615   2.850 -0.1060 -0.6798 -0.8579
  177MOL0     C23259   5.997   5.728   2.901  1.1405 -0.7656 -0.2882
  177MOL0     C23260   6.056   5.853   2.888  0.9754 -0.8161 -0.0639
  177MOL0     C23261   5.973   5.971   2.907  0.6805 -0.6296 -0.5396
  177MOL0     O23262   5.836   5.943   2.897 -0.4907  0.1989 -0.0245
  177MOL0     C23263   5.748   6.044   2.924 -0.0836  0.7353 -0.1133
  177MOL0     C23264   5.746   6.166   2.858  0.2249 -0.2390 -1.4292
  177MOL0     C23265   5.648   6.263   2.891  0.6970  0.0405  0.5569
  177MOL0     C23266   5.533   6.228   2.962  0.3543 -0.4531  0.4233
  177MOL0     O23267   5.427   6.313   2.946  0.0729 -0.0423 -0.1942
  177MOL0     C23268   5.291   6.287   2.955 -0.7097 -0.1908 -0.3171
  177MOL0     C23269   5.210   6.416   2.977  0.3131  0.4555 -0.5643
  177MOL0     C23270   5.165   6.424   3.132 -0.1583 -0.2330  0.7101
  177MOL0     C23271   5.094   6.557   3.161  0.1530 -0.4261  0.2767
  177MOL0     C23272   5.180   6.681   3.133  0.9434 -0.2786  0.3418
  177MOL0     C23273   5.315   6.683   3.193 -0.6967  0.0076 -0.1432
  177MOL0     C23274   5.379   6.822   3.190  0.7344  1.2957  0.4442
  177MOL0     C23275   5.345   6.918   3.310 -0.0941 -0.3573  0.1340
  177MOL0    Cl23276   5.429   6.856   3.465  0.0479  0.1060 -0.3444
  177MOL0     C23277   5.530   6.098   3.024  0.1416  0.5752  0.2383
  177MOL0     C23278   5.646   6.020   3.016 -0.7784  0.3836 -0.1347
  177MOL0     O23279   6.025   6.079   2.932  0.3621 -0.5544 -0.2061
  177MOL0     C23280   6.190   5.865   2.858 -0.0757  0.2046  0.6298
  177MOL0     C23281   6.262   5.752   2.816 -0.2188 -0.1153 -0.6587
  177MOL0     N23282   6.675   5.427   2.406  0.0518 -0.1127 -0.2199
  177MOL0     N23283   6.724   5.314   2.357  1.2511  0.1329 -0.4701
  177MOL0     C23284   7.766   4.887   1.991 -0.2045 -0.4816  0.6178
  177MOL0     C23285   7.867   4.877   1.893  0.2201  0.2491 -0.3880
  177MOL0     C23286   8.282   4.874   1.697  0.8839  0.3102 -0.4218
  177MOL0     C23287   8.227   4.787   1.601 -0.3189 -0.5555 -0.1748
  177MOL0     C23288   8.322   4.723   1.519 -0.0453  0.7629 -0.1230
  177MOL0     C23289   8.459   4.725   1.532  0.0434 -0.4671  0.2987
  177MOL0     O23290   8.543   4.657   1.445  0.0494 -0.4318 -0.5894
  177MOL0     C23291   8.497   4.616   1.312  0.2411  0.4746 -0.0691
  177MOL0     C23292   8.609   4.548   1.239 -0.3542 -0.1558 -0.1231
  177MOL0     C23293   8.552   4.496   1.104  0.0516 -0.2611  0.1250
  177MOL0     C23294   8.661   4.432   1.022  1.0789 -1.3696 -0.3854
  177MOL0     C23295   8.626   4.296   0.987 -0.1373  0.5619  0.1676
  177MOL0     C23296   8.594   4.178   0.951 -0.9792 -0.0160 -0.1749
  177MOL0     C23297   8.506   4.817   1.621  0.4722  0.4018 -0.6952
  177MOL0     C23298   8.421   4.891   1.702 -0.1528  1.0917  0.1528
  177MOL0     H23299   8.133   4.990   2.066 -0.0652  0.3689 -0.1317
  177MOL0     H23300   7.967   5.019   2.241  0.2808  0.0331 -0.3832
  177MOL0     H23301   7.667   4.764   2.226 -1.4842 -0.1093 -2.7167
  177MOL0     H23302   7.536   4.872   2.182  0.9471  1.9612 -1.2581
  177MOL0     H23303   7.691   4.863   2.448  0.0222 -1.3433 -1.0641
  177MOL0     H23304   7.544   4.766   2.429 -1.3608  0.5553 -1.2993
  177MOL0     H23305   7.561   5.067   2.448  2.7818 -1.0847 -1.7886
  177MOL0     H23306   7.518   4.955   2.573  3.3390 -0.4962 -0.7127
  177MOL0     H23307   7.370   4.985   2.314 -0.5571 -1.6040  0.3377
  177MOL0     H23308   7.329   4.870   2.433 -0.6824  0.2043  0.0162
  177MOL0     H23309   7.300   5.177   2.457 -2.3331  0.5215 -1.6071
  177MOL0     H23310   7.280   5.059   2.595 -1.8269 -2.4438 -0.4622
  177MOL0     H23311   7.102   4.947   2.458 -0.7052  0.8196  0.7064
  177MOL0     H23312   7.134   5.072   2.337 -0.0264 -2.1561 -0.2222
  177MOL0     H23313   6.990   5.068   2.592  3.3441 -2.2095 -1.1546
  177MOL0     H23314   7.055   5.227   2.533  0.6844  0.6593 -0.6291
  177MOL0     H23315   6.851   5.053   2.400 -0.2517  0.4981 -0.5231
  177MOL0     H23316   6.925   5.181   2.310  2.4146 -1.1476  0.3747
  177MOL0     H23317   6.845   5.325   2.651  2.8282  1.9256 -1.8981
  177MOL0     H23318   6.781   5.607   2.644 -1.5643  2.2890  0.0806
  177MOL0     H23319   6.655   5.527   2.727  0.8075  0.3086 -0.0302
  177MOL0     H23320   6.591   5.664   2.466  2.6478 -0.1212  0.7012
  177MOL0     H23321   6.583   5.750   2.615 -0.9886 -0.8766  1.8347
  177MOL0     H23322   6.369   5.680   2.602  2.4260  2.4603  0.0674
  177MOL0     H23323   6.403   5.529   2.525 -3.9902 -0.0351  2.2956
  177MOL0     H23324   6.458   5.546   2.830  0.8138 -0.8139  0.2027
  177MOL0     H23325   6.455   5.409   2.730  1.8985  0.1514  0.9220
  177MOL0     H23326   6.017   5.522   2.844 -2.3618  0.5562 -0.8536
  177MOL0     H23327   5.893   5.712   2.926  1.2053 -1.5936 -0.5327
  177MOL0     H23328   5.810   6.169   2.771  0.9826 -0.7406 -0.8988
  177MOL0     H23329   5.648   6.358   2.838  1.8764 -1.0960 -1.6066
  177MOL0     H23330   5.278   6.229   3.047  0.9935  0.0937  0.1435
  177MOL0     H23331   5.255   6.235   2.866  0.4334 -0.7704 -0.4504
  177MOL0     H23332   5.116   6.421   2.920 -0.9674 -0.7140  1.3381
  177MOL0     H23333   5.270   6.501   2.943  0.8411 -0.1401 -1.1437
  177MOL0     H23334   5.255   6.416   3.194  0.7343  0.5098 -0.4217
  177MOL0     H23335   5.109   6.333   3.154  1.1552 -1.4180 -0.5584
  177MOL0     H23336   5.000   6.556   3.106 -0.5447  0.2963  1.4091
  177MOL0     H23337   5.071   6.554   3.268  2.6142 -2.0084  0.8277
  177MOL0     H23338   5.121   6.768   3.164  0.4738  0.5703 -2.6315
  177MOL0     H23339   5.190   6.697   3.025 -0.1781 -2.8892 -0.2208
  177MOL0     H23340   5.383   6.613   3.143  0.3774  0.7233  0.2941
  177MOL0     H23341   5.310   6.647   3.296 -1.5126  1.6553  0.4225
  177MOL0     H23342   5.488   6.817   3.190  0.7472  1.3427  1.2849
  177MOL0     H23343   5.348   6.855   3.091  2.5043 -1.7905 -1.2879
  177MOL0     H23344   5.236   6.908   3.316  0.1261 -3.8274  0.0602
  177MOL0     H23345   5.380   7.020   3.291  0.3746 -0.5059  0.1791
  177MOL0     H23346   5.438   6.067   3.072 -0.0430  1.5894  0.5800
  177MOL0     H23347   5.630   5.917   3.047 -0.7608  0.6060  0.6377
  177MOL0     H23348   6.246   5.958   2.866  2.5170 -1.2262  0.3188
  177MOL0     H23349   6.367   5.761   2.791 -0.4953  2.4890 -1.2606
  177MOL0     H23350   7.661   4.871   1.969 -0.0692  0.7912 -1.1506
  177MOL0     H23351   7.835   4.845   1.794 -3.8179 -1.0800  1.1691
  177MOL0     H23352   8.119   4.775   1.591 -0.5311 -3.1612  3.2197
  177MOL0     H23353   8.283   4.670   1.433 -1.4841 -0.7430  1.3767
  177MOL0     H23354   8.445   4.696   1.260 -2.0058  1.3844  3.2972
  177MOL0     H23355   8.425   4.535   1.329  1.8378 -0.6945  1.6090
  177MOL0     H23356   8.697   4.612   1.229 -0.8942  0.6942  0.4218
  177MOL0     H23357   8.635   4.462   1.301 -2.9813 -0.4657  0.6733
  177MOL0     H23358   8.508   4.574   1.041 -0.2907 -1.3832 -1.0599
  177MOL0     H23359   8.479   4.419   1.131  0.4211 -0.1123  1.6390
  177MOL0     H23360   8.649   4.484   0.926 -1.3719  2.0842  1.5858
  177MOL0     H23361   8.756   4.449   1.073 -0.0807 -1.8920  2.0600
  177MOL0     H23362   8.574   4.078   0.918  2.0465 -0.9658  0.5246
  177MOL0     H23363   8.613   4.837   1.616  0.5755 -0.3409 -2.2500
  177MOL0     H23364   8.461   4.942   1.789 -1.2707  3.3338 -0.5602
  178MOL0     O23365   2.237   5.489  10.153 -0.6334 -0.3856 -0.2389
  178MOL0     C23366   2.365   5.476  10.143 -0.2385 -0.9827  0.5479
  178MOL0     O23367   2.445   5.462  10.245 -0.4094 -0.4181  0.2693
  178MOL0     C23368   2.390   5.464  10.368  0.0235 -1.0053  0.1001
  178MOL0     C23369   2.346   5.343  10.427  0.2122  0.3700 -0.3768
  178MOL0     C23370   2.314   5.351  10.564  0.2991  0.4368  0.0187
  178MOL0     C23371   2.279   5.469  10.627 -0.1691  0.6438  0.5421
  178MOL0     O23372   2.211   5.488  10.740 -0.3032  0.3096 -1.1866
  178MOL0     C23373   2.110   5.395  10.768 -0.6396  0.4178 -1.2148
  178MOL0     C23374   2.042   5.430  10.918  0.1771  1.1885  0.3373
  178MOL0     C23375   1.971   5.563  10.912  0.5515  0.5823 -0.1339
  178MOL0     C23376   1.915   5.604  11.049 -0.2628 -0.7710  0.5683
  178MOL0     C23377   1.818   5.505  11.111  0.4948 -0.0505  0.3462
  178MOL0     C23378   1.739   5.580  11.218  0.5055  0.4159  0.5267
  178MOL0     C23379   1.635   5.478  11.285  0.1821  0.9033  0.5930
  178MOL0     C23380   1.623   5.493  11.439  0.0848 -0.6933 -0.2055
  178MOL0     N23381   1.551   5.381  11.506 -0.0630 -0.7299 -0.1189
  178MOL0     C23382   1.443   5.411  11.593 -0.6170  0.2657  0.0607
  178MOL0     C23383   1.411   5.287  11.641 -0.2157  0.7277  0.2436
  178MOL0     C23384   1.317   5.258  11.745 -0.1624 -0.4646  0.0826
  178MOL0     C23385   1.185   5.251  11.677  1.1866  0.4336  0.7903
  178MOL0     C23386   1.063   5.268  11.778  0.4334  0.0482  0.0634
  178MOL0     C23387   0.918   5.267  11.718  0.2470 -0.7240  0.7979
  178MOL0     O23388   0.833   5.376  11.766 -0.4765  0.2408  0.2200
  178MOL0     C23389   0.702   5.364  11.747  0.8979  0.5118 -0.6459
  178MOL0     C23390   0.627   5.476  11.792  0.4606  0.1728 -0.5389
  178MOL0     C23391   0.493   5.491  11.762 -0.2218 -0.6936  0.5167
  178MOL0     C23392   0.430   5.398  11.689  0.0210 -0.7352 -0.2311
  178MOL0     C23393   0.283   5.405  11.649  0.0166  0.7631  0.1215
  178MOL0     O23394   0.232   5.293  11.599 -0.8579  0.3464  0.3789
  178MOL0     C23395   0.101   5.305  11.565 -0.1203  0.5570  0.8267
  178MOL0     C23396   0.070   5.347  11.435 -0.1920  0.0360  0.6926
  178MOL0     C23397  -0.058   5.356  11.384  0.4163 -0.0993  0.0225
  178MOL0     C23398  -0.162   5.310  11.461  0.5270  0.0793 -0.0275
  178MOL0     O23399  -0.287   5.329  11.405 -0.1176  0.4644 -0.0415
  178MOL0     C23400  -0.397   5.273  11.478  0.2883  0.2250 -1.2535
  178MOL0     C23401  -0.519   5.299  11.402  1.2545 -0.0312  0.4699
  178MOL0     C23402  -0.638   5.225  11.457  0.7835 -0.7896  0.2627
  178MOL0     C23403  -0.763   5.249  11.361 -0.5608  0.5606 -0.2781
  178MOL0     C23404  -0.881   5.183  11.436 -0.3086  0.6218  0.5068
  178MOL0     C23405  -0.875   5.034  11.469  0.2329 -0.1995  0.5111
  178MOL0     C23406  -1.022   4.990  11.503  0.0674 -0.0754  0.7474
  178MOL0     C23407  -1.038   4.845  11.531 -0.9445  0.1702  0.1162
  178MOL0    Cl23408  -0.971   4.801  11.687 -0.0838 -0.3363 -0.1108
  178MOL0     C23409  -0.142   5.258  11.593  0.3479 -0.1392  0.3489
  178MOL0     C23410  -0.010   5.259  11.645  0.1903  0.6183  0.2736
  178MOL0     O23411   0.231   5.519  11.647 -0.0234 -0.2974  0.0222
  178MOL0     C23412   0.497   5.287  11.646 -1.1268  1.4074  0.1213
  178MOL0     C23413   0.633   5.264  11.685  0.6582 -0.4951  0.1879
  178MOL0     N23414   1.493   5.193  11.584  0.1956  0.6202  0.0506
  178MOL0     N23415   1.580   5.251  11.503  0.4606  0.2621 -0.3795
  178MOL0     C23416   2.307   5.587  10.559 -1.1652  0.4119  0.4808
  178MOL0     C23417   2.371   5.586  10.441 -0.6449 -0.8811 -0.4155
  178MOL0     C23418   2.428   5.485  10.012  1.0106  0.5020 -0.0807
  178MOL0     C23419   2.545   5.415   9.992 -1.3075 -0.0572  0.5036
  178MOL0     C23420   2.599   5.415   9.867 -0.2789  0.2432  0.2754
  178MOL0     C23421   2.539   5.483   9.757  0.4998 -1.1335  0.9579
  178MOL0     O23422   2.577   5.481   9.632  0.3760 -0.0296 -0.1250
  178MOL0     C23423   2.637   5.603   9.579 -0.4580 -0.0713 -0.3931
  178MOL0     C23424   2.664   5.614   9.436  0.1605  0.7838  0.2064
  178MOL0     C23425   2.531   5.635   9.358 -0.3832 -0.1307 -0.1085
  178MOL0     C23426   2.539   5.623   9.208  0.0774 -0.4370  0.5009
  178MOL0     C23427   2.640   5.721   9.156  0.9303 -0.0599  0.0989
  178MOL0     C23428   2.717   5.796   9.104  0.3194  0.2169  0.7410
  178MOL0     C23429   2.430   5.564   9.784  0.1454  1.0082  0.6835
  178MOL0     C23430   2.369   5.558   9.906 -0.3429  0.8648 -1.3299
  178MOL0     H23431   2.341   5.255  10.364 -0.9772 -1.1216  1.7049
  178MOL0     H23432   2.294   5.256  10.613  0.6917 -0.4409 -1.4790
  178MOL0     H23433   2.161   5.299  10.773  1.7706  1.6616  2.7748
  178MOL0     H23434   2.030   5.403  10.694  0.5276 -0.8291 -2.6768
  178MOL0     H23435   2.122   5.424  10.991  2.8774 -1.1407 -2.5062
  178MOL0     H23436   1.976   5.344  10.936  1.8065  0.6252  4.6122
  178MOL0     H23437   1.888   5.549  10.842  1.8562  0.3060 -1.6763
  178MOL0     H23438   2.039   5.641  10.876  2.9050 -0.1075  2.4808
  178MOL0     H23439   2.000   5.629  11.113  0.4040 -1.0069 -0.2188
  178MOL0     H23440   1.864   5.701  11.036  4.6972  2.0909 -0.0930
  178MOL0     H23441   1.871   5.415  11.144 -1.1623 -1.7975 -1.4907
  178MOL0     H23442   1.741   5.475  11.039 -0.2463  0.1667  1.0397
  178MOL0     H23443   1.685   5.661  11.169 -0.0462  1.6532  2.9943
  178MOL0     H23444   1.799   5.623  11.298 -0.0890  2.2828  0.0259
  178MOL0     H23445   1.536   5.491  11.240 -0.9191 -4.3273  0.9011
  178MOL0     H23446   1.672   5.378  11.259  3.8144  1.8820  1.3752
  178MOL0     H23447   1.566   5.584  11.458  0.7005 -0.2708 -0.3366
  178MOL0     H23448   1.717   5.504  11.495 -0.5339  2.7198  0.3508
  178MOL0     H23449   1.401   5.506  11.623  0.1896  0.5231  0.4068
  178MOL0     H23450   1.319   5.341  11.816 -0.9390 -0.8471  0.5568
  178MOL0     H23451   1.331   5.158  11.786 -0.9864 -1.4125 -1.8097
  178MOL0     H23452   1.177   5.153  11.629  0.3918  0.9165 -0.0916
  178MOL0     H23453   1.192   5.333  11.605 -0.2836  1.3924  1.6765
  178MOL0     H23454   1.062   5.204  11.867 -0.7758  0.8303  0.6364
  178MOL0     H23455   1.074   5.367  11.822 -1.8685  0.3034  0.1965
  178MOL0     H23456   0.878   5.166  11.729 -1.9865 -0.0407 -0.2294
  178MOL0     H23457   0.932   5.287  11.611 -3.1473  0.4715  0.4587
  178MOL0     H23458   0.679   5.556  11.842 -0.0856 -0.5677  1.2931
  178MOL0     H23459   0.450   5.579  11.808  3.2166  0.3832  2.0566
  178MOL0     H23460   0.161   5.385  11.389 -1.9298  2.5144 -0.8820
  178MOL0     H23461  -0.065   5.408  11.288  0.8763  3.5974  1.8188
  178MOL0     H23462  -0.403   5.316  11.579  2.6925  1.6148 -1.6115
  178MOL0     H23463  -0.387   5.164  11.483  0.2294  0.2701  0.7257
  178MOL0     H23464  -0.514   5.268  11.298  0.4685  1.8838 -0.1952
  178MOL0     H23465  -0.544   5.406  11.407  0.8284 -0.1624  1.2159
  178MOL0     H23466  -0.659   5.268  11.556  0.6162  2.0339 -0.9172
  178MOL0     H23467  -0.622   5.119  11.480 -1.5234 -0.9134  1.6985
  178MOL0     H23468  -0.784   5.356  11.349  1.3038  0.7519 -2.5254
  178MOL0     H23469  -0.738   5.209  11.262 -0.0070  1.2292 -0.4145
  178MOL0     H23470  -0.961   5.201  11.364  0.7779 -1.7109 -1.4103
  178MOL0     H23471  -0.899   5.244  11.525  0.0636  1.8720 -0.2475
  178MOL0     H23472  -0.808   5.007  11.551 -0.7370 -3.5266  0.3338
  178MOL0     H23473  -0.835   4.978  11.384 -1.7030 -2.8225  1.2007
  178MOL0     H23474  -1.063   5.051  11.584  0.2921  1.5863 -0.3443
  178MOL0     H23475  -1.077   5.012  11.411  1.6401 -1.7221 -0.6484
  178MOL0     H23476  -0.978   4.793  11.456 -1.8121  1.9543 -1.9001
  178MOL0     H23477  -1.146   4.828  11.531 -1.1123  1.2103  0.3930
  178MOL0     H23478  -0.224   5.231  11.660  2.5083 -0.1232  3.1663
  178MOL0     H23479   0.017   5.243  11.749  2.2863  1.6146 -0.0561
  178MOL0     H23480   0.463   5.207  11.581 -2.5517  1.2523  1.0204
  178MOL0     H23481   0.675   5.167  11.661  3.3812  1.0429 -1.8993
  178MOL0     H23482   2.300   5.687  10.601 -0.3395  0.9392 -0.6057
  178MOL0     H23483   2.404   5.679  10.394  1.1069 -0.0867  2.1804
  178MOL0     H23484   2.602   5.358  10.065  1.8857  2.7542  0.4433
  178MOL0     H23485   2.687   5.357   9.843 -2.3159 -2.3823 -1.4091
  178MOL0     H23486   2.730   5.616   9.635 -0.4635 -2.1401  0.1759
  178MOL0     H23487   2.583   5.691   9.615 -0.5351 -0.0897 -0.4638
  178MOL0     H23488   2.736   5.695   9.428  2.1658 -0.9769 -0.5727
  178MOL0     H23489   2.711   5.524   9.395  0.2822  1.0314 -0.1934
  178MOL0     H23490   2.517   5.743   9.368  3.7153  0.5224  0.2539
  178MOL0     H23491   2.452   5.571   9.401  0.1097 -1.0997 -0.6150
  178MOL0     H23492   2.560   5.522   9.171 -3.9743 -0.8053 -1.2650
  178MOL0     H23493   2.436   5.625   9.171  0.4318 -2.3983 -0.7265
  178MOL0     H23494   2.799   5.853   9.067 -0.7271  1.9033  0.9194
  178MOL0     H23495   2.388   5.629   9.708  0.4308 -0.4918 -0.8359
  178MOL0     H23496   2.267   5.596   9.915 -1.3369 -1.7171 -0.8127
  179MOL0     O23497   8.784   5.783   2.349  0.0827  0.1069 -0.1766
  179MOL0     C23498   8.760   5.738   2.237 -0.5916 -0.3215  0.0345
  179MOL0     O23499   8.679   5.805   2.142  0.0491 -0.4919 -0.5572
  179MOL0     C23500   8.581   5.893   2.183 -0.9806 -0.3382 -0.3688
  179MOL0     C23501   8.508   5.921   2.071  0.0475  0.1116  0.9132
  179MOL0     C23502   8.382   5.966   2.090 -0.1973 -0.4903  0.6501
  179MOL0     C23503   8.324   5.997   2.215 -0.3788 -0.2045 -0.2899
  179MOL0     O23504   8.196   6.045   2.227  1.0743 -0.4809 -0.5343
  179MOL0     C23505   8.134   6.055   2.359  0.7102  1.1493 -0.0510
  179MOL0     C23506   7.980   6.039   2.343  0.0195  0.1875 -0.1913
  179MOL0     C23507   7.900   6.063   2.466 -0.6503 -0.2158  0.2770
  179MOL0     C23508   7.874   6.210   2.495  0.8693 -0.3145 -0.0650
  179MOL0     C23509   7.829   6.255   2.638  0.4753 -0.5525 -1.1480
  179MOL0     C23510   7.688   6.195   2.666 -0.1527  0.5820  0.7235
  179MOL0     C23511   7.631   6.246   2.800 -0.2780  0.6820  0.3183
  179MOL0     C23512   7.507   6.188   2.827  0.1542  0.0341 -0.6778
  179MOL0     N23513   7.434   6.218   2.953  0.2008 -0.8547  0.2854
  179MOL0     C23514   7.487   6.214   3.079 -0.8375 -0.2108 -0.3271
  179MOL0     C23515   7.398   6.278   3.157  0.1707  0.2458 -0.2358
  179MOL0     C23516   7.395   6.260   3.311  1.2651 -1.6431  0.6408
  179MOL0     C23517   7.370   6.396   3.383  0.3202 -0.1547 -0.7150
  179MOL0     C23518   7.467   6.509   3.349 -0.0536  0.0107 -0.8931
  179MOL0     C23519   7.493   6.594   3.478 -0.3397  0.0921 -0.3900
  179MOL0     O23520   7.369   6.631   3.549 -0.0512 -0.7448  0.3370
  179MOL0     C23521   7.274   6.718   3.513  1.0123 -0.1253  0.3873
  179MOL0     C23522   7.171   6.741   3.603 -0.3639 -0.1108 -0.1939
  179MOL0     C23523   7.069   6.835   3.577  0.8600  0.0423 -0.0595
  179MOL0     C23524   7.070   6.906   3.458  1.1510  0.3754  0.0944
  179MOL0     C23525   6.968   7.004   3.424 -0.2196 -0.2428  0.3620
  179MOL0     O23526   6.843   6.995   3.474 -0.2937  0.1653 -0.5949
  179MOL0     C23527   6.747   7.092   3.461  0.0478  0.0405 -0.8529
  179MOL0     C23528   6.762   7.214   3.388 -0.3429  0.0806  0.7979
  179MOL0     C23529   6.652   7.292   3.391  0.8707  0.0301  0.0009
  179MOL0     C23530   6.529   7.262   3.463 -0.3989 -0.6054 -0.5132
  179MOL0     O23531   6.424   7.354   3.454 -0.7519  0.2937 -0.6104
  179MOL0     C23532   6.309   7.340   3.543  0.1087 -0.1461  0.6532
  179MOL0     C23533   6.343   7.423   3.673 -0.2083 -0.5603  0.8045
  179MOL0     C23534   6.219   7.422   3.770 -0.2271  0.4538 -0.5420
  179MOL0     C23535   6.234   7.536   3.871  0.6472  0.1974 -0.0131
  179MOL0     C23536   6.126   7.539   3.976 -0.1084 -0.1948 -0.3741
  179MOL0     C23537   5.999   7.604   3.919 -0.3012  0.2204  0.8788
  179MOL0     C23538   5.872   7.531   3.954 -0.2106 -0.2282 -0.0780
  179MOL0     C23539   5.834   7.560   4.098  0.5053  0.9561  0.6074
  179MOL0    Cl23540   5.818   7.735   4.123  0.3967 -0.0325  0.0704
  179MOL0     C23541   6.522   7.138   3.533 -0.4840  0.5244 -0.1529
  179MOL0     C23542   6.634   7.060   3.533 -0.1516 -0.3807 -0.4860
  179MOL0     O23543   7.012   7.102   3.371  0.6821  0.0239 -0.3329
  179MOL0     C23544   7.176   6.880   3.360  1.1353 -0.0228  0.5649
  179MOL0     C23545   7.281   6.796   3.399  0.8913 -0.0686  1.0701
  179MOL0     N23546   7.294   6.326   3.082 -0.9400  0.1382 -0.3351
  179MOL0     N23547   7.327   6.305   2.953 -0.1080  0.8832 -0.6216
  179MOL0     C23548   8.413   5.993   2.329  0.0814  0.2240  0.5329
  179MOL0     C23549   8.545   5.940   2.314  0.1126 -1.1558  0.5924
  179MOL0     C23550   8.822   5.617   2.190 -0.0830  0.1099 -0.3365
  179MOL0     C23551   8.845   5.596   2.046  0.8814 -0.1078 -0.4949
  179MOL0     C23552   8.878   5.476   1.992 -0.2488 -0.7656  0.5774
  179MOL0     C23553   8.892   5.364   2.070 -0.3108  0.4755  0.3264
  179MOL0     O23554   8.913   5.240   2.006  0.8576 -0.2314  0.8735
  179MOL0     C23555   8.875   5.115   2.057  0.1795 -0.4820 -0.3956
  179MOL0     C23556   8.808   5.019   1.964  0.8101 -0.2266 -0.0638
  179MOL0     C23557   8.890   4.946   1.861 -0.8954  0.1971 -0.1877
  179MOL0     C23558   9.011   4.863   1.898  0.6759 -0.3417  0.3988
  179MOL0     C23559   9.135   4.939   1.937  0.7130  0.6425 -0.2200
  179MOL0     C23560   9.230   5.006   1.953  0.2775 -0.3298  0.2029
  179MOL0     C23561   8.874   5.380   2.208 -0.8616  0.3335 -0.6902
  179MOL0     C23562   8.840   5.502   2.267  0.3404 -0.4870 -0.9221
  179MOL0     H23563   8.542   5.894   1.971 -0.1891 -1.2946  1.1909
  179MOL0     H23564   8.323   5.978   1.999  0.0081  5.5610  0.8882
  179MOL0     H23565   8.166   6.152   2.397  2.8534  1.5214 -2.5399
  179MOL0     H23566   8.173   5.976   2.423 -1.2038  1.2694  1.3496
  179MOL0     H23567   7.958   5.938   2.307  3.1898  0.1200 -2.3819
  179MOL0     H23568   7.954   6.105   2.259 -0.2542  1.0173  0.5320
  179MOL0     H23569   7.933   6.010   2.556  1.5421 -0.2895 -0.4861
  179MOL0     H23570   7.803   6.022   2.439 -0.4015  0.0885 -1.2111
  179MOL0     H23571   7.958   6.276   2.472  0.2758  0.1749 -0.8672
  179MOL0     H23572   7.792   6.249   2.433  2.3299  1.2216 -1.1134
  179MOL0     H23573   7.829   6.364   2.643 -1.3805 -0.5388  3.8000
  179MOL0     H23574   7.896   6.213   2.713 -0.7042  0.0031  0.2499
  179MOL0     H23575   7.679   6.086   2.655 -0.2635  0.7409 -0.9604
  179MOL0     H23576   7.621   6.231   2.588 -0.4442  0.4443  0.9055
  179MOL0     H23577   7.701   6.230   2.882  0.6988 -1.0345 -0.8034
  179MOL0     H23578   7.617   6.353   2.781 -2.0433  0.3603 -0.3643
  179MOL0     H23579   7.527   6.081   2.818  4.3236  0.5459  0.1774
  179MOL0     H23580   7.454   6.226   2.739  1.3897  2.3343 -0.5154
  179MOL0     H23581   7.572   6.157   3.114  0.9810  0.8715 -2.7259
  179MOL0     H23582   7.477   6.213   3.367 -0.5954 -2.0963  3.1719
  179MOL0     H23583   7.306   6.201   3.335 -1.4590  2.5087  1.8462
  179MOL0     H23584   7.365   6.381   3.491  1.6992  1.5093 -0.3777
  179MOL0     H23585   7.269   6.425   3.353 -0.5726 -0.8783  1.4418
  179MOL0     H23586   7.562   6.473   3.308 -0.2102 -1.2051 -0.2485
  179MOL0     H23587   7.423   6.566   3.266  2.1679  1.5010 -1.1416
  179MOL0     H23588   7.531   6.691   3.445  1.0267 -0.2441  0.0962
  179MOL0     H23589   7.558   6.537   3.545 -0.5988  0.9147  0.5855
  179MOL0     H23590   7.185   6.691   3.699  0.1080  2.3408  1.1172
  179MOL0     H23591   6.993   6.852   3.653 -2.2377 -1.7586 -2.5484
  179MOL0     H23592   6.855   7.253   3.348 -0.5250 -0.8862 -0.6430
  179MOL0     H23593   6.648   7.392   3.349  0.7688  0.1403  0.2762
  179MOL0     H23594   6.276   7.242   3.579  1.4401  0.1394  2.8776
  179MOL0     H23595   6.224   7.387   3.494  0.0066 -1.5356 -0.5598
  179MOL0     H23596   6.364   7.527   3.647  0.1990  0.2104  3.9013
  179MOL0     H23597   6.434   7.387   3.722  1.3612 -1.2729 -2.3804
  179MOL0     H23598   6.206   7.327   3.824  3.1051  0.0633 -0.2453
  179MOL0     H23599   6.129   7.439   3.710  0.9133  1.6376 -2.0019
  179MOL0     H23600   6.335   7.544   3.911  0.4666  0.3108  0.4261
  179MOL0     H23601   6.225   7.627   3.811  2.5565 -0.1995 -0.9559
  179MOL0     H23602   6.156   7.601   4.061 -3.5259  0.0021  0.8410
  179MOL0     H23603   6.117   7.434   4.003  0.2709  0.0598  0.7814
  179MOL0     H23604   6.005   7.596   3.810  4.7619  1.7948  0.8111
  179MOL0     H23605   6.000   7.710   3.944 -3.4103  0.1931  1.5704
  179MOL0     H23606   5.794   7.557   3.882  1.0907 -3.4452 -2.9033
  179MOL0     H23607   5.876   7.425   3.926  0.0134  0.6039 -3.5922
  179MOL0     H23608   5.909   7.520   4.167  0.0575 -0.4631  0.2970
  179MOL0     H23609   5.746   7.500   4.124  1.8049 -0.3540  2.2084
  179MOL0     H23610   6.430   7.097   3.574 -0.1434  1.0483  1.1848
  179MOL0     H23611   6.630   6.959   3.573  0.7275 -0.9014 -1.6551
  179MOL0     H23612   7.192   6.930   3.265 -0.8787 -2.3033 -1.0975
  179MOL0     H23613   7.360   6.783   3.326  1.3202 -0.0321  1.5238
  179MOL0     H23614   8.384   6.034   2.425  0.2305 -0.1585  0.7430
  179MOL0     H23615   8.605   5.928   2.404 -0.9703 -1.5132  1.2837
  179MOL0     H23616   8.833   5.675   1.973  1.5233  0.0490 -0.4389
  179MOL0     H23617   8.900   5.464   1.886  1.1797 -4.0845  1.1091
  179MOL0     H23618   8.806   5.126   2.142 -1.5184  0.1042 -1.7935
  179MOL0     H23619   8.971   5.077   2.093 -0.9350 -0.9478  2.3486
  179MOL0     H23620   8.760   4.946   2.030  1.9545 -0.7122  0.2566
  179MOL0     H23621   8.726   5.070   1.913 -1.2097 -2.4792  0.7281
  179MOL0     H23622   8.931   5.025   1.799 -0.3122 -0.4773 -0.6808
  179MOL0     H23623   8.830   4.886   1.792 -0.9820 -1.0677  0.9280
  179MOL0     H23624   8.982   4.792   1.975  0.7090  0.1317  0.8543
  179MOL0     H23625   9.041   4.812   1.806 -0.2589  0.8531 -0.6113
  179MOL0     H23626   9.307   5.076   1.980  1.4721 -1.8447  0.8325
  179MOL0     H23627   8.877   5.291   2.269 -0.3460  1.9781  1.8419
  179MOL0     H23628   8.819   5.496   2.374 -0.7542 -2.6525 -1.2004
  180MOL0     O23629   8.427   2.276   0.743  0.5416  0.4683 -0.1990
  180MOL0     C23630   8.441   2.397   0.766  0.3189  0.7809  0.7875
  180MOL0     O23631   8.548   2.462   0.826  0.9849 -0.1458 -0.5516
  180MOL0     C23632   8.657   2.386   0.859 -0.4305  0.1742 -0.4438
  180MOL0     C23633   8.776   2.393   0.781 -0.7154  0.0105  0.3420
  180MOL0     C23634   8.895   2.342   0.821 -0.9536  0.0067  1.4797
  180MOL0     C23635   8.918   2.288   0.939 -0.0261  0.0072  0.2203
  180MOL0     O23636   9.038   2.239   0.983  0.0599 -0.0284 -0.3266
  180MOL0     C23637   9.045   2.092   0.976 -0.5647 -0.3908  0.3115
  180MOL0     C23638   9.189   2.034   0.986  0.2698 -0.2278 -0.0894
  180MOL0     C23639   9.191   1.883   0.982 -0.3304  0.8539  0.2453
  180MOL0     C23640   9.333   1.833   0.977  0.4000  0.0981  0.1624
  180MOL0     C23641   9.406   1.848   1.109  0.3118  0.7019 -0.3621
  180MOL0     C23642   9.555   1.828   1.097  0.1983 -0.6320  0.3759
  180MOL0     C23643   9.605   1.676   1.094  0.3451  0.4904 -0.1234
  180MOL0     C23644   9.754   1.664   1.120 -0.3242 -0.6294  1.2479
  180MOL0     N23645   9.796   1.522   1.110  0.5857  0.0835 -0.5675
  180MOL0     C23646   9.765   1.429   1.209 -1.0898  0.7946 -0.3995
  180MOL0     C23647   9.818   1.318   1.151 -0.3301 -0.0172 -0.2299
  180MOL0     C23648   9.789   1.188   1.212  0.1866  0.7076  0.0621
  180MOL0     C23649   9.780   1.082   1.104 -0.0191  0.0264 -0.2633
  180MOL0     C23650   9.676   1.087   0.994  0.0327  0.0560 -0.2528
  180MOL0     C23651   9.588   0.969   0.978  0.5325 -0.2759 -0.1207
  180MOL0     O23652   9.483   0.963   1.078  1.1721 -0.2243 -0.2217
  180MOL0     C23653   9.380   0.880   1.051  0.3860 -0.6515 -0.2998
  180MOL0     C23654   9.258   0.909   1.109 -0.4783  0.5216  0.6410
  180MOL0     C23655   9.149   0.840   1.078  0.3478 -0.4135 -0.3287
  180MOL0     C23656   9.158   0.740   0.984 -0.0842  0.2288 -0.2073
  180MOL0     C23657   9.031   0.670   0.940  0.7105 -0.3134 -1.0460
  180MOL0     O23658   9.039   0.586   0.829  0.6210 -0.4043  0.8343
  180MOL0     C23659   8.921   0.533   0.771 -0.1450  0.0072  0.0739
  180MOL0     C23660   8.921   0.522   0.632 -0.4857 -0.4177 -0.4718
  180MOL0     C23661   8.802   0.489   0.561 -0.3920 -0.4337  0.7241
  180MOL0     C23662   8.684   0.448   0.630  0.6013 -0.1570  0.4456
  180MOL0     O23663   8.564   0.407   0.577 -0.2135 -0.4842 -0.5284
  180MOL0     C23664   8.542   0.426   0.441 -0.0448 -0.3474  0.2292
  180MOL0     C23665   8.407   0.375   0.415  0.3538 -0.0247  0.1862
  180MOL0     C23666   8.302   0.462   0.494  0.1365 -0.3324  0.4311
  180MOL0     C23667   8.158   0.418   0.473  0.4708 -0.4277  0.9749
  180MOL0     C23668   8.066   0.541   0.499  0.4483 -0.1621 -0.0576
  180MOL0     C23669   7.919   0.493   0.471 -0.0010 -0.2064 -0.5133
  180MOL0     C23670   7.831   0.608   0.456  0.5849  0.2505 -0.1325
  180MOL0     C23671   7.686   0.563   0.419 -0.1272 -0.3963  0.7417
  180MOL0    Cl23672   7.565   0.700   0.407 -0.2018  0.0689 -0.2083
  180MOL0     C23673   8.697   0.443   0.772 -0.2311  1.1405  0.1755
  180MOL0     C23674   8.811   0.477   0.842 -1.3287  0.2488  0.1970
  180MOL0     O23675   8.924   0.699   0.996  0.2016 -0.7446 -0.1070
  180MOL0     C23676   9.280   0.692   0.928  0.7138 -0.3594 -0.1462
  180MOL0     C23677   9.389   0.770   0.963 -0.1942  0.6129 -0.8094
  180MOL0     N23678   9.870   1.342   1.029 -0.0022  0.1206 -0.1609
  180MOL0     N23679   9.853   1.462   1.001 -0.5731 -0.4504 -0.8413
  180MOL0     C23680   8.798   2.275   1.022 -0.1983 -0.3105  0.0421
  180MOL0     C23681   8.674   2.327   0.982 -0.5031  0.4966 -0.0221
  180MOL0     C23682   8.334   2.477   0.728  0.4367  0.0572 -0.8885
  180MOL0     C23683   8.199   2.435   0.722  0.2927 -0.6172 -0.4537
  180MOL0     C23684   8.090   2.510   0.690  0.1841 -0.6621 -0.6885
  180MOL0     C23685   8.119   2.648   0.657  0.7648 -0.4043 -0.2230
  180MOL0     O23686   8.015   2.732   0.616  0.2083 -0.3836 -0.9234
  180MOL0     C23687   7.880   2.689   0.593  0.3510  0.0059 -0.0657
  180MOL0     C23688   7.877   2.647   0.443  0.0892 -0.1195  1.0796
  180MOL0     C23689   7.936   2.509   0.404 -0.2062 -0.2250 -0.3334
  180MOL0     C23690   7.896   2.469   0.260 -0.8875 -0.3469 -0.6642
  180MOL0     C23691   7.935   2.331   0.243 -0.3862 -0.3941  0.3048
  180MOL0     C23692   7.965   2.212   0.223  0.4101  0.0100  0.7548
  180MOL0     C23693   8.249   2.697   0.660 -0.8229 -0.1016 -0.2379
  180MOL0     C23694   8.356   2.615   0.704 -0.3269 -0.9171  0.5432
  180MOL0     H23695   8.755   2.421   0.679 -0.0662 -4.5510 -1.2544
  180MOL0     H23696   8.970   2.363   0.746 -0.6492  2.3493  2.3494
  180MOL0     H23697   9.000   2.071   0.879  0.1365  0.7830 -0.3002
  180MOL0     H23698   8.981   2.052   1.055 -0.1856 -3.3337 -0.7499
  180MOL0     H23699   9.235   2.064   1.080 -0.3397 -1.4100  0.6117
  180MOL0     H23700   9.255   2.064   0.904  1.0501 -1.4500  0.0656
  180MOL0     H23701   9.141   1.858   0.888  0.2313 -4.7888  1.0726
  180MOL0     H23702   9.145   1.848   1.074  2.5412  1.5958  2.0865
  180MOL0     H23703   9.331   1.726   0.954  0.5539  0.0517  0.3692
  180MOL0     H23704   9.402   1.879   0.906  1.9060 -2.4708 -0.1376
  180MOL0     H23705   9.361   1.781   1.183  0.3829 -0.4167 -1.2931
  180MOL0     H23706   9.392   1.953   1.135 -0.3313  1.0168 -1.8992
  180MOL0     H23707   9.616   1.877   1.173  1.1819 -1.6637  0.2861
  180MOL0     H23708   9.596   1.866   1.003 -1.5433 -0.9385 -0.5620
  180MOL0     H23709   9.555   1.616   1.171  0.3619  0.3103 -0.2524
  180MOL0     H23710   9.578   1.637   0.996 -0.4093  4.2191 -1.5777
  180MOL0     H23711   9.774   1.704   1.220 -2.2524 -0.7095  1.7110
  180MOL0     H23712   9.803   1.733   1.051 -1.2347 -2.1886 -1.0724
  180MOL0     H23713   9.710   1.430   1.302 -0.5376 -1.8593  0.0414
  180MOL0     H23714   9.689   1.176   1.255  1.2889 -0.3235  2.4837
  180MOL0     H23715   9.857   1.147   1.287 -0.7087 -0.9919  0.0032
  180MOL0     H23716   9.793   0.983   1.149  1.8244  0.5511  0.4436
  180MOL0     H23717   9.877   1.086   1.053 -0.3879 -1.4754 -1.1299
  180MOL0     H23718   9.606   1.168   1.014  0.2924  0.3717 -0.5974
  180MOL0     H23719   9.723   1.115   0.899  1.1216 -0.9904 -0.0505
  180MOL0     H23720   9.651   0.880   0.982  0.9299 -0.0120 -0.5568
  180MOL0     H23721   9.550   0.985   0.877  2.7408  0.0560 -0.9540
  180MOL0     H23722   9.253   1.006   1.159  1.5984  0.3661  1.2678
  180MOL0     H23723   9.060   0.873   1.130  1.8345  0.9944  1.4380
  180MOL0     H23724   9.005   0.541   0.566  0.0040  0.4060  0.3660
  180MOL0     H23725   8.808   0.491   0.453 -4.1166 -4.0252  0.1828
  180MOL0     H23726   8.610   0.372   0.375  0.9414  0.8997  0.1862
  180MOL0     H23727   8.567   0.530   0.418  1.6525 -0.8485 -0.3441
  180MOL0     H23728   8.408   0.270   0.446 -0.6327 -1.3661 -3.8341
  180MOL0     H23729   8.385   0.377   0.308  0.2402  0.9553  0.2191
  180MOL0     H23730   8.312   0.566   0.463 -0.5785 -0.3506  0.1296
  180MOL0     H23731   8.332   0.457   0.599  0.4928  0.4978  0.3791
  180MOL0     H23732   8.136   0.381   0.373 -0.8868  0.3363  0.9778
  180MOL0     H23733   8.148   0.339   0.549  3.2151 -0.0158  1.9008
  180MOL0     H23734   8.087   0.619   0.426  0.7711  1.6233  1.8687
  180MOL0     H23735   8.087   0.578   0.600  0.8444 -2.1435  0.6383
  180MOL0     H23736   7.883   0.444   0.562 -0.6328  0.6448 -0.2828
  180MOL0     H23737   7.901   0.421   0.391  0.1928  1.0739 -1.7547
  180MOL0     H23738   7.818   0.664   0.549 -1.9564  2.4382 -1.6588
  180MOL0     H23739   7.870   0.675   0.379 -1.5600  0.8972 -0.7196
  180MOL0     H23740   7.644   0.498   0.496 -0.5841 -1.8255 -0.6512
  180MOL0     H23741   7.694   0.514   0.321 -2.2714  1.7430 -0.6519
  180MOL0     H23742   8.615   0.395   0.824  2.2174 -2.8334  0.7569
  180MOL0     H23743   8.816   0.465   0.949 -1.6126 -1.6230  0.0374
  180MOL0     H23744   9.282   0.605   0.864  1.1058 -0.5098  0.0704
  180MOL0     H23745   9.491   0.738   0.947  0.8445  3.6819 -1.0269
  180MOL0     H23746   8.796   2.237   1.123 -1.5147  1.0511  0.5747
  180MOL0     H23747   8.598   2.315   1.058 -0.6764  0.2272 -0.2350
  180MOL0     H23748   8.170   2.330   0.731 -1.4528 -0.2985 -1.8477
  180MOL0     H23749   7.993   2.461   0.698 -0.9377  0.9604 -3.0111
  180MOL0     H23750   7.809   2.769   0.614  1.6722  1.6466 -1.5303
  180MOL0     H23751   7.842   2.610   0.658 -0.4458  2.2303  2.2919
  180MOL0     H23752   7.774   2.655   0.406 -0.4602 -2.2922  1.9897
  180MOL0     H23753   7.939   2.720   0.391  1.9530  0.0566  3.4150
  180MOL0     H23754   7.878   2.442   0.468  0.5335  0.4170  1.0491
  180MOL0     H23755   8.040   2.489   0.431 -1.1951 -1.1070  3.3879
  180MOL0     H23756   7.790   2.482   0.237 -0.9334  2.2488  0.6889
  180MOL0     H23757   7.955   2.529   0.191  1.8488 -2.6714 -0.5456
  180MOL0     H23758   7.995   2.110   0.212 -1.6164 -0.8289  2.4204
  180MOL0     H23759   8.275   2.801   0.646 -0.2712  0.0956  1.9218
  180MOL0     H23760   8.459   2.647   0.719 -0.7927  0.2760  1.2673
  181MOL0     O23761   8.965   9.367  10.729 -0.3222 -0.4927 -0.5176
  181MOL0     C23762   8.997   9.262  10.777  0.1470  0.3433  0.1662
  181MOL0     O23763   8.915   9.170  10.830 -0.0265 -0.3981 -0.3542
  181MOL0     C23764   8.787   9.194  10.862  0.4348  0.1709 -0.2905
  181MOL0     C23765   8.702   9.309  10.846 -0.0462  0.2962  0.3300
  181MOL0     C23766   8.567   9.303  10.894 -0.6855 -0.2296 -0.4378
  181MOL0     C23767   8.509   9.186  10.948 -1.0256  0.1023 -0.4353
  181MOL0     O23768   8.380   9.207  11.001 -0.1058  0.2610  0.2057
  181MOL0     C23769   8.332   9.098  11.090 -1.6291 -0.1748  0.1552
  181MOL0     C23770   8.179   9.114  11.117  0.7333  0.2751 -1.2293
  181MOL0     C23771   8.133   9.251  11.156  0.6078  0.8334  0.7666
  181MOL0     C23772   8.062   9.330  11.039  0.3596  0.0008 -0.4524
  181MOL0     C23773   8.007   9.472  11.084  0.2399 -0.0541  0.3536
  181MOL0     C23774   7.978   9.565  10.975  0.5349  0.6042  0.5100
  181MOL0     C23775   7.916   9.690  11.014 -0.3701 -0.3155  0.9248
  181MOL0     C23776   7.895   9.792  10.901 -0.0131  0.1531  0.7196
  181MOL0     N23777   7.809   9.902  10.943  0.0551  0.7617  0.3811
  181MOL0     C23778   7.676   9.907  10.906 -0.3470 -0.1901  0.0144
  181MOL0     C23779   7.628  10.024  10.948  1.7790  1.1269  0.8868
  181MOL0     C23780   7.487  10.073  10.898 -0.4477  0.6654 -0.6819
  181MOL0     C23781   7.384  10.124  10.997  0.1822 -0.2694 -0.2820
  181MOL0     C23782   7.436  10.241  11.075 -0.7179 -0.5179  0.3729
  181MOL0     C23783   7.334  10.354  11.097  0.8350 -0.1234  0.0162
  181MOL0     O23784   7.314  10.426  10.966 -0.1093  0.2086  0.6787
  181MOL0     C23785   7.200  10.500  10.962 -0.2631  0.6323 -0.3446
  181MOL0     C23786   7.100  10.462  10.871 -0.1648  0.1768 -0.8295
  181MOL0     C23787   6.991  10.549  10.849  0.0617  0.1514 -0.3251
  181MOL0     C23788   6.984  10.676  10.913 -0.2536  0.4154 -0.8348
  181MOL0     C23789   6.865  10.764  10.909  0.6220  0.0965  0.1058
  181MOL0     O23790   6.867  10.861  11.005 -0.1252 -0.4962 -0.2759
  181MOL0     C23791   6.763  10.953  11.006 -0.6364 -0.4799  1.0612
  181MOL0     C23792   6.735  11.034  10.894 -0.4796  1.2341 -0.9604
  181MOL0     C23793   6.625  11.117  10.890  1.0746 -0.0698 -0.2596
  181MOL0     C23794   6.548  11.138  11.003  0.2791 -0.3903 -0.0918
  181MOL0     O23795   6.434  11.208  10.989  0.0037 -0.1599 -0.3737
  181MOL0     C23796   6.317  11.132  11.006  0.4166 -0.3740  0.3039
  181MOL0     C23797   6.206  11.225  11.028 -0.4086 -0.0780  0.4514
  181MOL0     C23798   6.215  11.272  11.171 -0.1975 -0.2888  0.0904
  181MOL0     C23799   6.092  11.360  11.200  0.4485  0.1864  0.2795
  181MOL0     C23800   6.054  11.344  11.348  0.2787 -0.7009  0.2633
  181MOL0     C23801   6.150  11.392  11.458 -0.0865  0.1661 -0.1751
  181MOL0     C23802   6.083  11.414  11.589  0.7810  0.1928 -0.0231
  181MOL0     C23803   6.179  11.468  11.700  0.8974  0.6413  0.2711
  181MOL0    Cl23804   6.296  11.349  11.772 -0.3501  0.1812 -0.0190
  181MOL0     C23805   6.582  11.066  11.113 -0.0469  0.4280 -0.5237
  181MOL0     C23806   6.692  10.976  11.122  0.0209  0.1507  0.6782
  181MOL0     O23807   6.785  10.757  10.815  0.3048  0.1779 -0.2632
  181MOL0     C23808   7.092  10.718  10.999  0.1721  0.2642  0.4131
  181MOL0     C23809   7.201  10.626  11.016 -0.7586  0.0922 -0.8253
  181MOL0     N23810   7.729  10.083  11.026  0.0486 -0.0634 -0.9126
  181MOL0     N23811   7.841  10.009  11.018 -0.4134 -0.1006  0.2837
  181MOL0     C23812   8.596   9.070  10.964 -0.4120 -0.3440 -0.0322
  181MOL0     C23813   8.731   9.076  10.923  0.0675 -0.1896  1.0561
  181MOL0     C23814   9.144   9.236  10.777 -0.6850 -0.1991 -1.3997
  181MOL0     C23815   9.232   9.309  10.697 -0.1900  1.2562  0.3779
  181MOL0     C23816   9.369   9.286  10.694  0.0469  0.6194 -0.2648
  181MOL0     C23817   9.423   9.177  10.766 -0.6641  0.6174  1.9946
  181MOL0     O23818   9.545   9.132  10.751 -0.9668 -0.3251  0.2870
  181MOL0     C23819   9.641   9.196  10.666 -0.5736 -0.9994 -0.6563
  181MOL0     C23820   9.782   9.146  10.699 -0.8320  0.1335  0.4266
  181MOL0     C23821   9.888   9.216  10.620 -0.5874  1.7263 -0.2591
  181MOL0     C23822   9.940   9.335  10.700 -0.7299  0.0130 -0.3425
  181MOL0     C23823  10.040   9.404  10.624  0.2673  0.5722 -0.4099
  181MOL0     C23824  10.115   9.446  10.538 -0.2269  0.0393  0.0049
  181MOL0     C23825   9.339   9.103  10.845 -0.1010  0.1327  0.4023
  181MOL0     C23826   9.204   9.136  10.850  0.4051  0.5731 -0.2876
  181MOL0     H23827   8.731   9.403  10.800  0.2550  0.6781  1.2902
  181MOL0     H23828   8.503   9.390  10.889  0.5428  0.9441  2.2816
  181MOL0     H23829   8.388   9.102  11.184  0.2764 -1.6126 -0.8605
  181MOL0     H23830   8.336   8.995  11.053 -0.5778 -0.2403  0.4154
  181MOL0     H23831   8.155   9.037  11.191 -2.0754  0.9404 -1.3100
  181MOL0     H23832   8.127   9.085  11.025  1.8480 -2.3558 -1.1066
  181MOL0     H23833   8.211   9.305  11.210 -2.6325  3.9281  2.8289
  181MOL0     H23834   8.055   9.248  11.233  1.0652  0.7221  1.2351
  181MOL0     H23835   8.129   9.336  10.953 -0.1103  3.3528 -0.7231
  181MOL0     H23836   7.975   9.278  11.000  1.1868 -1.3115 -0.6092
  181MOL0     H23837   8.077   9.519  11.153 -1.7478  3.6147  0.1449
  181MOL0     H23838   7.917   9.460  11.145  0.2709  0.8625  0.5895
  181MOL0     H23839   7.911   9.518  10.902  1.5406 -0.6880  0.3768
  181MOL0     H23840   8.073   9.586  10.925 -0.3162  2.0417 -0.6034
  181MOL0     H23841   7.815   9.663  11.045 -1.3469 -0.7619 -2.2530
  181MOL0     H23842   7.976   9.739  11.091 -0.5068 -2.2842  2.3533
  181MOL0     H23843   7.853   9.748  10.810  0.7294  0.3200  0.2860
  181MOL0     H23844   7.993   9.828  10.867  0.3145 -1.8592 -0.6308
  181MOL0     H23845   7.627   9.835  10.841 -0.9860  1.6812 -1.6809
  181MOL0     H23846   7.439   9.995  10.839 -0.9529  1.5293 -1.4431
  181MOL0     H23847   7.503  10.157  10.829  2.2783  0.2548 -0.6516
  181MOL0     H23848   7.354  10.048  11.070 -1.4210  1.4515  0.9545
  181MOL0     H23849   7.291  10.147  10.944  0.5728  1.7958 -0.1288
  181MOL0     H23850   7.473  10.218  11.175  2.3470 -0.8018 -0.7280
  181MOL0     H23851   7.518  10.283  11.015 -2.1051  1.8065 -0.0188
  181MOL0     H23852   7.383  10.429  11.159 -0.9940 -1.1607  2.8780
  181MOL0     H23853   7.240  10.323  11.142  0.5331  2.2472  1.1633
  181MOL0     H23854   7.094  10.366  10.821 -1.9392 -0.8267  1.1430
  181MOL0     H23855   6.907  10.510  10.792 -0.6478  2.6567 -1.1382
  181MOL0     H23856   6.797  11.007  10.809 -1.1326 -2.2414 -0.5141
  181MOL0     H23857   6.600  11.165  10.796  0.6152 -1.1559 -0.7033
  181MOL0     H23858   6.323  11.067  11.093 -1.1324 -0.5435  0.3259
  181MOL0     H23859   6.304  11.065  10.920  3.8552 -2.8046  1.4640
  181MOL0     H23860   6.114  11.169  11.011  0.3582 -0.4307 -3.3791
  181MOL0     H23861   6.213  11.312  10.963 -2.7791  0.5024  0.9044
  181MOL0     H23862   6.306  11.332  11.182  0.4260 -0.9104 -1.3819
  181MOL0     H23863   6.223  11.184  11.236  0.3798  1.1914  2.1253
  181MOL0     H23864   6.118  11.465  11.180 -1.0409  0.4369 -0.5549
  181MOL0     H23865   6.002  11.333  11.144  0.8794  1.4232 -1.0902
  181MOL0     H23866   6.049  11.236  11.362  1.9937 -0.8522 -0.1147
  181MOL0     H23867   5.960  11.399  11.361  0.1408  0.2027 -3.3763
  181MOL0     H23868   6.207  11.480  11.427  2.3701 -1.4896 -0.6801
  181MOL0     H23869   6.236  11.326  11.477 -0.8261 -0.2637  1.8506
  181MOL0     H23870   5.994  11.475  11.572 -1.1646 -1.7196  2.2887
  181MOL0     H23871   6.051  11.317  11.631 -0.0715  1.0445  1.3998
  181MOL0     H23872   6.115  11.504  11.781 -0.7954  0.0507 -0.7537
  181MOL0     H23873   6.225  11.560  11.664 -2.7583  3.2652  1.6194
  181MOL0     H23874   6.516  11.070  11.199  2.1558  0.8886  1.2484
  181MOL0     H23875   6.713  10.904  11.200 -1.3797 -1.6069 -0.4663
  181MOL0     H23876   7.115  10.811  11.049  0.7861 -0.7470  2.0996
  181MOL0     H23877   7.285  10.639  11.084 -3.5317 -1.1621  3.2558
  181MOL0     H23878   8.566   8.980  11.018 -2.0227 -0.0336 -0.3687
  181MOL0     H23879   8.786   8.982  10.923 -2.3820 -1.7007  1.6500
  181MOL0     H23880   9.203   9.390  10.632 -2.3151 -0.4368 -0.9174
  181MOL0     H23881   9.441   9.337  10.631  0.9361 -2.1821 -1.6394
  181MOL0     H23882   9.626   9.304  10.677  0.3181 -0.9795  0.5002
  181MOL0     H23883   9.617   9.163  10.564 -1.9147 -0.5683 -0.4965
  181MOL0     H23884   9.805   9.164  10.805  0.4593 -0.1627  0.2146
  181MOL0     H23885   9.793   9.037  10.695 -0.6958  0.0817  1.6985
  181MOL0     H23886   9.846   9.261  10.530 -0.6561 -0.3602 -1.3341
  181MOL0     H23887   9.971   9.146  10.600 -0.4181  1.8775 -0.0895
  181MOL0     H23888   9.851   9.396  10.719 -2.2341 -2.3938  0.9314
  181MOL0     H23889   9.984   9.299  10.793  1.2213  0.0445 -1.2054
  181MOL0     H23890  10.172   9.506  10.470  2.3731 -0.0237  1.9693
  181MOL0     H23891   9.375   9.016  10.897  1.2573  0.0657 -0.5850
  181MOL0     H23892   9.144   9.080  10.921  0.7019 -0.7267 -1.0383
  182MOL0     O23893  10.796   6.528  10.943  0.1713 -0.7089  0.2886
  182MOL0     C23894  10.874   6.577  10.861 -0.2765  0.7916 -0.8631
  182MOL0     O23895  10.841   6.627  10.741  0.8178  0.7779 -0.2954
  182MOL0     C23896  10.707   6.639  10.711 -0.5042 -0.3780 -0.2765
  182MOL0     C23897  10.678   6.765  10.664  0.4369  0.5909  0.9953
  182MOL0     C23898  10.542   6.799  10.661 -0.0501  0.8567 -0.8125
  182MOL0     C23899  10.445   6.704  10.668  0.6001  1.0478 -0.2934
  182MOL0     O23900  10.316   6.751  10.661  0.0246  0.1354  0.3618
  182MOL0     C23901  10.215   6.677  10.733  0.4547  0.2049 -0.0860
  182MOL0     C23902  10.081   6.757  10.726  0.3593 -0.1948  0.4326
  182MOL0     C23903  10.008   6.762  10.583  0.4565  0.3045 -0.5371
  182MOL0     C23904   9.919   6.634  10.572 -0.6035  0.1761 -0.6743
  182MOL0     C23905   9.803   6.646  10.468 -0.4883  0.1478 -0.6069
  182MOL0     C23906   9.705   6.757  10.517 -0.7037 -0.0734  0.2217
  182MOL0     C23907   9.568   6.719  10.445  0.4513  0.5519 -0.6573
  182MOL0     C23908   9.482   6.620  10.530  0.4690 -0.1318  0.0312
  182MOL0     N23909   9.357   6.595  10.458 -0.6657  0.4385  0.2853
  182MOL0     C23910   9.244   6.668  10.474 -0.0121  0.0328  0.8132
  182MOL0     C23911   9.160   6.609  10.381  0.0849  0.3573  0.8981
  182MOL0     C23912   9.028   6.666  10.341 -1.0251  0.1321  0.5779
  182MOL0     C23913   8.909   6.586  10.386  0.1761  0.0712  0.2332
  182MOL0     C23914   8.783   6.628  10.313  1.6879 -0.0892  0.6666
  182MOL0     C23915   8.742   6.777  10.326 -0.8665 -1.1072 -1.0526
  182MOL0     O23916   8.621   6.790  10.263  0.4758  0.5846  0.3876
  182MOL0     C23917   8.567   6.914  10.232 -0.5227  0.6253 -0.4079
  182MOL0     C23918   8.438   6.923  10.172 -0.4359  0.6512  0.7768
  182MOL0     C23919   8.376   7.045  10.141  0.0666  0.5806  0.3323
  182MOL0     C23920   8.435   7.167  10.172  0.3902 -0.1923 -0.2536
  182MOL0     C23921   8.366   7.301  10.142 -0.2157 -0.5655 -0.6589
  182MOL0     O23922   8.413   7.416  10.188 -0.2751 -0.7495  0.0670
  182MOL0     C23923   8.342   7.541  10.167 -1.0061 -0.0716  0.8795
  182MOL0     C23924   8.206   7.564  10.197  0.3065 -0.2042  0.3914
  182MOL0     C23925   8.144   7.684  10.177  0.3685 -0.7157  0.0474
  182MOL0     C23926   8.218   7.797  10.146  0.5089 -0.3115 -0.7423
  182MOL0     O23927   8.149   7.911  10.129  0.0352  0.0762 -0.6024
  182MOL0     C23928   8.102   7.931   9.995  0.5062 -1.3951  0.3858
  182MOL0     C23929   8.003   8.052  10.001  0.2929  0.0518 -0.2017
  182MOL0     C23930   7.903   8.053   9.887  0.7577 -0.1437  0.9552
  182MOL0     C23931   7.796   8.154   9.921  1.0278  0.6479 -0.8132
  182MOL0     C23932   7.662   8.119   9.851 -1.0943  0.1607  0.3070
  182MOL0     C23933   7.544   8.219   9.882  0.0302  0.2961  0.2327
  182MOL0     C23934   7.484   8.203  10.023 -0.4959  0.1802  0.3250
  182MOL0     C23935   7.340   8.267  10.032 -0.1755  0.6858  0.1866
  182MOL0    Cl23936   7.364   8.437  10.092  0.0377 -0.1847  0.1441
  182MOL0     C23937   8.354   7.783  10.139  0.1104  0.9304 -0.6022
  182MOL0     C23938   8.413   7.662  10.149  0.1428 -0.0818 -0.8724
  182MOL0     O23939   8.258   7.291  10.076 -0.0160  0.4823  0.7155
  182MOL0     C23940   8.553   7.165  10.243 -0.3464  0.2423  0.1185
  182MOL0     C23941   8.620   7.040  10.266  0.7094  0.6100  0.5694
  182MOL0     N23942   9.223   6.492  10.335 -0.4384 -0.5369 -0.2879
  182MOL0     N23943   9.337   6.488  10.388  0.7682  0.3391  0.0087
  182MOL0     C23944  10.477   6.570  10.696 -0.3269 -0.4952  0.1558
  182MOL0     C23945  10.609   6.541  10.720  0.3840 -0.2740  0.3138
  182MOL0     C23946  11.017   6.592  10.906 -0.0528  0.2874 -0.3535
  182MOL0     C23947  11.114   6.650  10.820  0.8728 -0.2766 -0.0746
  182MOL0     C23948  11.246   6.668  10.864 -0.0717 -0.9070 -0.3373
  182MOL0     C23949  11.290   6.622  10.982 -0.0546  0.1510  0.0864
  182MOL0     O23950  11.419   6.640  11.027  0.0494  0.0857 -0.0608
  182MOL0     C23951  11.441   6.677  11.165  0.6330 -0.3098  0.5855
  182MOL0     C23952  11.547   6.593  11.232  0.3898 -0.1583  0.5690
  182MOL0     C23953  11.505   6.443  11.252 -0.3618 -0.3842 -0.3049
  182MOL0     C23954  11.604   6.364  11.339 -0.0388 -0.0924 -0.3190
  182MOL0     C23955  11.604   6.408  11.471 -0.0091 -0.7346  0.1258
  182MOL0     C23956  11.601   6.465  11.574 -0.8915  0.1884 -1.4024
  182MOL0     C23957  11.197   6.555  11.066  0.2773 -0.0959  0.4195
  182MOL0     C23958  11.065   6.547  11.032  0.1274  0.5038  0.7407
  182MOL0     H23959  10.758   6.837  10.649  0.9490  0.2439  1.9985
  182MOL0     H23960  10.523   6.900  10.624  3.3459  1.4362 -1.2529
  182MOL0     H23961  10.248   6.667  10.837 -0.5571  1.2213  0.3622
  182MOL0     H23962  10.209   6.578  10.687  1.6307 -0.3030  0.7908
  182MOL0     H23963  10.098   6.862  10.752  0.7676  0.0898 -0.9241
  182MOL0     H23964  10.013   6.709  10.797  4.6697 -1.8142  3.9546
  182MOL0     H23965  10.071   6.774  10.494 -0.5145  0.0304 -1.2720
  182MOL0     H23966   9.940   6.847  10.586  1.9751  1.5203  0.8470
  182MOL0     H23967   9.974   6.541  10.550  0.9903  0.3157  2.2093
  182MOL0     H23968   9.863   6.626  10.666 -2.7922  2.4652 -1.6902
  182MOL0     H23969   9.759   6.546  10.461 -0.6356  0.2192 -0.7022
  182MOL0     H23970   9.850   6.677  10.374  1.5899  2.3309  1.0348
  182MOL0     H23971   9.759   6.842  10.474 -1.7686 -0.7854 -2.7560
  182MOL0     H23972   9.694   6.765  10.626  2.4041 -1.3825  0.7263
  182MOL0     H23973   9.513   6.813  10.432 -1.3578  0.0968  2.6468
  182MOL0     H23974   9.587   6.677  10.346 -1.1088  0.7260 -1.0492
  182MOL0     H23975   9.448   6.667  10.623 -1.9611 -1.1589 -0.2534
  182MOL0     H23976   9.534   6.525  10.546  0.9010 -0.4312 -2.6728
  182MOL0     H23977   9.238   6.766  10.519 -0.4942 -1.0906  3.3214
  182MOL0     H23978   9.025   6.669  10.232  0.2282 -0.0872  0.5204
  182MOL0     H23979   9.031   6.761  10.395  1.7340 -0.0878  0.9649
  182MOL0     H23980   8.907   6.603  10.495  0.1647 -1.8389  0.5592
  182MOL0     H23981   8.934   6.480  10.379  2.0492  0.5937 -2.7029
  182MOL0     H23982   8.790   6.598  10.208 -0.9479 -4.9959  1.5836
  182MOL0     H23983   8.703   6.563  10.349  2.1791 -0.8985  0.3342
  182MOL0     H23984   8.812   6.841  10.272 -0.6055 -0.4548  0.0421
  182MOL0     H23985   8.740   6.811  10.430  2.2148  4.7362 -2.4356
  182MOL0     H23986   8.395   6.827  10.144  1.1285 -0.7522  2.9217
  182MOL0     H23987   8.281   7.039  10.089 -0.2320  1.2861  0.7885
  182MOL0     H23988   8.141   7.478  10.206 -0.1975 -0.5074 -4.0636
  182MOL0     H23989   8.039   7.690  10.204  0.0136  1.7383 -1.6412
  182MOL0     H23990   8.053   7.843   9.951 -0.5738 -0.0632 -1.1993
  182MOL0     H23991   8.176   7.962   9.921 -2.3246 -0.9446 -2.4675
  182MOL0     H23992   8.059   8.146   9.996  0.5901 -0.1254 -0.1911
  182MOL0     H23993   7.961   8.056  10.102  3.8117  1.7195  1.3699
  182MOL0     H23994   7.848   7.958   9.882  1.3285 -0.6879  3.3904
  182MOL0     H23995   7.947   8.072   9.789  0.0747 -0.7080  0.5265
  182MOL0     H23996   7.769   8.161  10.026 -1.2220  0.8088 -1.3464
  182MOL0     H23997   7.846   8.251   9.907  3.3755 -0.2488  0.6357
  182MOL0     H23998   7.632   8.021   9.887  1.3252 -0.4808  0.7346
  182MOL0     H23999   7.673   8.117   9.742 -3.1000 -1.1857  0.0753
  182MOL0     H24000   7.459   8.184   9.822 -0.4789 -2.6902  2.4570
  182MOL0     H24001   7.575   8.324   9.878  1.0373 -0.0265 -1.6561
  182MOL0     H24002   7.484   8.095  10.041  0.5951  0.3302  1.3958
  182MOL0     H24003   7.543   8.255  10.099  1.4162  1.3942 -1.8725
  182MOL0     H24004   7.283   8.225  10.116  1.0427 -2.3803 -0.3947
  182MOL0     H24005   7.277   8.263   9.943  1.7301  0.8923 -1.2310
  182MOL0     H24006   8.414   7.870  10.116 -0.8382  2.3017  1.7657
  182MOL0     H24007   8.519   7.671  10.127  0.5763 -0.3467  0.9331
  182MOL0     H24008   8.612   7.253  10.268  0.9555 -0.5649 -0.0353
  182MOL0     H24009   8.723   7.047  10.301  2.2892 -3.0791 -2.5693
  182MOL0     H24010  10.411   6.488  10.722  1.3014 -1.7985  0.3944
  182MOL0     H24011  10.646   6.441  10.739  2.2539 -0.2857 -2.7381
  182MOL0     H24012  11.089   6.677  10.718  1.1496 -0.6827 -0.2523
  182MOL0     H24013  11.323   6.715  10.803 -1.4664  1.6123 -0.3015
  182MOL0     H24014  11.352   6.688  11.227 -0.0628  2.3584 -0.7174
  182MOL0     H24015  11.478   6.780  11.156 -1.7642  0.4999 -1.1174
  182MOL0     H24016  11.628   6.590  11.159 -0.8470 -1.6952 -0.8017
  182MOL0     H24017  11.583   6.650  11.319 -0.9619 -0.3466  1.2723
  182MOL0     H24018  11.482   6.396  11.156  0.1870 -4.1716  1.2608
  182MOL0     H24019  11.406   6.447  11.296 -1.4608  2.2741 -2.6540
  182MOL0     H24020  11.573   6.259  11.331  0.1922 -0.1868  0.0111
  182MOL0     H24021  11.710   6.368  11.311  0.3744  0.1194  1.1826
  182MOL0     H24022  11.604   6.504  11.673  2.3780 -0.8287 -0.9727
  182MOL0     H24023  11.239   6.512  11.157 -0.4274  0.0002  0.7923
  182MOL0     H24024  10.989   6.501  11.095  0.9028 -1.3424  0.3719
  183MOL0     O24025   4.283   6.954   4.098  0.4998  0.3183  0.2502
  183MOL0     C24026   4.263   7.079   4.098 -0.3620 -0.8671 -0.4157
  183MOL0     O24027   4.179   7.146   4.014  0.1702  0.6819 -0.0130
  183MOL0     C24028   4.134   7.094   3.896  0.8076  0.8150 -0.1197
  183MOL0     C24029   4.006   7.140   3.861  0.5067  0.4335  0.7743
  183MOL0     C24030   3.957   7.102   3.737 -0.1928  0.3286  0.4064
  183MOL0     C24031   4.038   7.046   3.642 -0.3774 -0.8226  0.3784
  183MOL0     O24032   4.004   7.031   3.510 -0.1118  0.4867 -0.3526
  183MOL0     C24033   3.860   7.019   3.482 -0.0621 -1.0023  0.7825
  183MOL0     C24034   3.809   6.880   3.533  0.3108 -0.3899 -0.9010
  183MOL0     C24035   3.906   6.755   3.505 -0.5860 -0.4399  0.8056
  183MOL0     C24036   3.905   6.641   3.606 -0.2540  1.0544  0.5464
  183MOL0     C24037   3.772   6.577   3.651 -0.1361 -0.3197  0.0680
  183MOL0     C24038   3.716   6.491   3.529  0.1998  1.1474  0.1292
  183MOL0     C24039   3.586   6.429   3.569  0.3803 -0.6801 -0.3829
  183MOL0     C24040   3.535   6.337   3.458 -0.0855 -0.3112 -0.6736
  183MOL0     N24041   3.398   6.294   3.481 -0.5818  0.7567 -0.4795
  183MOL0     C24042   3.368   6.201   3.576  0.4067  0.1128 -0.9493
  183MOL0     C24043   3.233   6.199   3.596  0.8747 -1.3916  0.8540
  183MOL0     C24044   3.145   6.106   3.664  0.7197  0.4442 -0.8987
  183MOL0     C24045   3.151   6.119   3.818 -0.5284 -0.1883  0.4948
  183MOL0     C24046   3.051   6.222   3.861 -0.0621  0.2983 -1.0015
  183MOL0     C24047   2.905   6.162   3.862 -0.0997 -0.3195 -0.3669
  183MOL0     O24048   2.879   6.071   3.973 -0.2862 -0.5855 -0.3766
  183MOL0     C24049   2.752   6.033   3.988 -0.0225 -0.0326  0.5914
  183MOL0     C24050   2.638   6.107   3.959 -0.2616  0.1005  0.2398
  183MOL0     C24051   2.513   6.058   3.974 -0.3522 -0.7008  0.3236
  183MOL0     C24052   2.485   5.931   4.032 -1.0090  0.6864 -0.2643
  183MOL0     C24053   2.354   5.871   4.023  0.1682 -0.6176  0.5633
  183MOL0     O24054   2.267   5.943   3.937  0.9816  0.0713  0.1092
  183MOL0     C24055   2.147   5.890   3.914  0.7626 -0.1877  1.1500
  183MOL0     C24056   2.048   5.987   3.896  0.0696 -0.1824  0.1753
  183MOL0     C24057   1.915   5.959   3.858  0.9256 -0.3467  0.1292
  183MOL0     C24058   1.882   5.819   3.852  0.7802  0.3500  0.7485
  183MOL0     O24059   1.750   5.779   3.844 -0.5647 -0.3691  0.3002
  183MOL0     C24060   1.717   5.680   3.748 -0.9314 -0.5393  0.6013
  183MOL0     C24061   1.621   5.581   3.821 -1.0710 -0.0369 -0.7600
  183MOL0     C24062   1.482   5.643   3.821  0.4905 -0.6924 -0.7300
  183MOL0     C24063   1.377   5.565   3.893  0.1194 -0.2987  0.0432
  183MOL0     C24064   1.253   5.646   3.920 -0.2647 -0.0164 -0.6219
  183MOL0     C24065   1.169   5.580   4.025  0.9605 -0.9930  0.1671
  183MOL0     C24066   1.077   5.681   4.093  0.4036 -0.4301  0.2900
  183MOL0     C24067   0.949   5.608   4.153  0.0794 -0.7397  0.5493
  183MOL0    Cl24068   0.826   5.577   4.018  0.1756 -0.4294 -0.0780
  183MOL0     C24069   1.979   5.722   3.882  0.8482 -0.3270 -0.2149
  183MOL0     C24070   2.115   5.756   3.901 -0.6425  0.4828 -0.3036
  183MOL0     O24071   2.327   5.768   4.078  0.3737  0.5559  0.5625
  183MOL0     C24072   2.594   5.862   4.069  0.1273  0.6988  0.2064
  183MOL0     C24073   2.724   5.914   4.058  0.5963  0.3076 -0.4014
  183MOL0     N24074   3.183   6.307   3.518 -0.8903 -0.4224  0.0583
  183MOL0     N24075   3.286   6.363   3.462  0.2285 -0.1239  0.1036
  183MOL0     C24076   4.171   7.003   3.680 -0.1102  0.1600  0.2810
  183MOL0     C24077   4.215   7.023   3.805  0.4839 -0.2592  0.2451
  183MOL0     C24078   4.350   7.158   4.185  0.1316  0.2895  0.2651
  183MOL0     C24079   4.395   7.278   4.145 -0.1307  0.5148  0.1194
  183MOL0     C24080   4.489   7.354   4.215 -0.0113 -0.4746 -1.1616
  183MOL0     C24081   4.552   7.298   4.330  0.3535  0.1161  0.3774
  183MOL0     O24082   4.649   7.355   4.411  0.3431  0.2684  0.7840
  183MOL0     C24083   4.723   7.457   4.349  0.3574  0.6553  0.6886
  183MOL0     C24084   4.841   7.468   4.444  1.0501 -0.4717 -0.0822
  183MOL0     C24085   4.944   7.574   4.416  1.0411 -0.2941  0.6561
  183MOL0     C24086   4.996   7.583   4.268  0.3221  0.4218  0.5185
  183MOL0     C24087   4.917   7.650   4.167  0.1403  0.3778 -0.4370
  183MOL0     C24088   4.866   7.696   4.067  0.2490  0.1972 -0.4333
  183MOL0     C24089   4.514   7.172   4.367  1.0062  0.8174 -0.1120
  183MOL0     C24090   4.416   7.103   4.291  0.5770 -0.6959  0.1569
  183MOL0     H24091   3.949   7.196   3.934  0.4252 -0.3559  1.3254
  183MOL0     H24092   3.860   7.150   3.725  0.5441  2.2133  1.6977
  183MOL0     H24093   3.840   7.016   3.374 -1.7765 -0.5993  1.0717
  183MOL0     H24094   3.800   7.103   3.517 -2.4602 -2.0799 -0.4639
  183MOL0     H24095   3.712   6.859   3.487 -0.8895 -0.3041  1.4384
  183MOL0     H24096   3.799   6.890   3.641  0.6027 -2.3562 -0.6549
  183MOL0     H24097   4.013   6.774   3.494  0.3313 -3.1394  3.5308
  183MOL0     H24098   3.877   6.714   3.408  0.5054 -0.0220  0.2856
  183MOL0     H24099   3.959   6.556   3.563 -1.1951  1.0852 -0.7752
  183MOL0     H24100   3.968   6.667   3.692  0.6067 -0.7069  0.4897
  183MOL0     H24101   3.705   6.657   3.685 -1.3331 -2.1052  2.1198
  183MOL0     H24102   3.786   6.508   3.734  1.5265  0.0212  0.1082
  183MOL0     H24103   3.788   6.412   3.511 -0.7159  0.5052 -0.8153
  183MOL0     H24104   3.701   6.542   3.433  1.5218 -3.9075 -3.1083
  183MOL0     H24105   3.590   6.371   3.662 -1.3981  0.2299  0.3042
  183MOL0     H24106   3.512   6.507   3.591 -0.9040 -1.9186 -0.1314
  183MOL0     H24107   3.587   6.241   3.451  2.7108  0.8496  2.0530
  183MOL0     H24108   3.547   6.394   3.365 -0.7262  0.4072 -0.3251
  183MOL0     H24109   3.435   6.128   3.619  2.4235  1.8584 -0.9448
  183MOL0     H24110   3.169   6.002   3.638 -0.7556  0.3408 -1.9724
  183MOL0     H24111   3.044   6.120   3.625 -0.2043 -2.8333 -0.0391
  183MOL0     H24112   3.251   6.154   3.845  1.0045 -2.0537 -2.2009
  183MOL0     H24113   3.132   6.032   3.882  0.9291 -1.5182 -0.7967
  183MOL0     H24114   3.083   6.252   3.961 -2.2548  2.2647 -0.8329
  183MOL0     H24115   3.029   6.308   3.798 -0.3677  2.0189  1.3153
  183MOL0     H24116   2.878   6.116   3.767 -1.0265  1.0409 -0.7871
  183MOL0     H24117   2.840   6.251   3.868 -0.2219 -0.3013 -1.7397
  183MOL0     H24118   2.634   6.204   3.910  2.2321 -0.3790 -1.0306
  183MOL0     H24119   2.438   6.126   3.933  2.5070  2.2056 -0.5369
  183MOL0     H24120   2.068   6.093   3.905 -3.4735  0.6959 -0.5326
  183MOL0     H24121   1.840   6.036   3.843  1.3791  0.6861  2.6732
  183MOL0     H24122   1.811   5.633   3.717  0.8703  2.0981  1.6615
  183MOL0     H24123   1.668   5.731   3.664 -1.5305 -0.3351  1.0712
  183MOL0     H24124   1.661   5.566   3.922  2.7625  1.4572 -1.8864
  183MOL0     H24125   1.615   5.482   3.774 -0.7328 -0.9671  1.0332
  183MOL0     H24126   1.442   5.677   3.725 -3.2055 -1.4235  0.3865
  183MOL0     H24127   1.502   5.730   3.885 -0.0728 -0.5345 -0.7686
  183MOL0     H24128   1.338   5.482   3.832  0.1948 -0.6048  0.4097
  183MOL0     H24129   1.426   5.528   3.983  0.1847  0.7424  0.4512
  183MOL0     H24130   1.191   5.649   3.829  2.9014 -1.5347 -3.0384
  183MOL0     H24131   1.295   5.741   3.953  0.2892  0.0385 -1.4506
  183MOL0     H24132   1.225   5.525   4.102  2.8714  1.4041  0.6226
  183MOL0     H24133   1.107   5.513   3.965 -0.5749 -1.3433  2.0459
  183MOL0     H24134   1.131   5.721   4.179  0.5347 -1.3064  0.6332
  183MOL0     H24135   1.043   5.765   4.032  0.4848 -0.0059  0.8249
  183MOL0     H24136   0.908   5.673   4.231  1.1110  2.1017 -1.1363
  183MOL0     H24137   0.976   5.514   4.202 -1.9754 -0.7946  1.6904
  183MOL0     H24138   1.944   5.621   3.899 -0.0367 -0.3961 -2.1202
  183MOL0     H24139   2.197   5.685   3.913  3.4181  4.9737  1.9156
  183MOL0     H24140   2.587   5.759   4.103 -0.7794  0.9711  0.8895
  183MOL0     H24141   2.809   5.857   4.094  1.0504  0.3515 -1.3661
  183MOL0     H24142   4.221   6.939   3.608 -0.4868  1.0339 -0.7762
  183MOL0     H24143   4.321   7.001   3.818  0.3585  0.1504  2.2384
  183MOL0     H24144   4.365   7.333   4.056 -2.4200  2.4698  1.9420
  183MOL0     H24145   4.523   7.454   4.187  0.2317 -0.6876 -1.6305
  183MOL0     H24146   4.666   7.549   4.333 -1.9915 -0.9919 -1.1474
  183MOL0     H24147   4.743   7.426   4.246 -3.0005  2.2910 -0.5973
  183MOL0     H24148   4.796   7.486   4.542 -0.8729 -0.9755 -0.8391
  183MOL0     H24149   4.902   7.377   4.450  2.5164  0.5548  1.6970
  183MOL0     H24150   5.031   7.560   4.482  2.4659 -1.1154 -1.3109
  183MOL0     H24151   4.904   7.670   4.450 -0.1295  0.2592 -2.0510
  183MOL0     H24152   5.101   7.611   4.261  1.6258 -3.7840  0.3406
  183MOL0     H24153   5.008   7.481   4.231  0.2430  1.5558 -3.0721
  183MOL0     H24154   4.826   7.751   3.984  2.5973  0.3252 -1.5722
  183MOL0     H24155   4.575   7.117   4.438 -0.0775 -0.6901 -0.2795
  183MOL0     H24156   4.395   6.997   4.304 -3.6533  0.1657  2.2511
  184MOL0     O24157   3.495  10.521  11.126  0.1301  0.7026  0.4393
  184MOL0     C24158   3.497  10.413  11.179 -0.2071  0.3234  0.1899
  184MOL0     O24159   3.593  10.319  11.166  0.8117  0.1888  0.0727
  184MOL0     C24160   3.724  10.347  11.140 -0.6167  1.0261 -0.0245
  184MOL0     C24161   3.806  10.234  11.144 -0.8616  0.2102 -0.1040
  184MOL0     C24162   3.949  10.240  11.129 -1.1743  0.5878 -0.0723
  184MOL0     C24163   4.012  10.363  11.137 -0.1277 -0.0087 -0.6009
  184MOL0     O24164   4.147  10.378  11.148  0.3601  0.1385 -0.5793
  184MOL0     C24165   4.224  10.359  11.024 -0.1251 -1.0327 -0.4330
  184MOL0     C24166   4.318  10.236  11.034  0.0118  0.3276 -1.0546
  184MOL0     C24167   4.434  10.253  10.952  0.0113 -0.9123 -0.6631
  184MOL0     C24168   4.534  10.365  11.014 -0.0863 -1.0311 -0.2080
  184MOL0     C24169   4.660  10.356  10.928 -0.9224 -0.0798  0.5623
  184MOL0     C24170   4.744  10.476  10.963 -0.1877  0.3706  0.0710
  184MOL0     C24171   4.877  10.500  10.888  0.3646  0.4492 -0.3934
  184MOL0     C24172   4.991  10.403  10.920 -0.3097  0.5115 -0.3928
  184MOL0     N24173   5.106  10.421  10.827  0.5068 -0.2570  0.0516
  184MOL0     C24174   5.162  10.534  10.786  0.5644 -0.6247 -0.5000
  184MOL0     C24175   5.232  10.503  10.679 -0.1661 -0.2114  0.1817
  184MOL0     C24176   5.314  10.597  10.599 -1.2441 -0.4436  0.5137
  184MOL0     C24177   5.285  10.596  10.449  0.2638  0.2757 -0.2406
  184MOL0     C24178   5.366  10.706  10.370 -0.3403 -0.2000  0.4941
  184MOL0     C24179   5.518  10.678  10.384 -0.1462 -1.1890 -0.4172
  184MOL0     O24180   5.574  10.762  10.489 -0.1592  0.3845 -0.1620
  184MOL0     C24181   5.684  10.719  10.558 -0.5908  0.6501 -0.1220
  184MOL0     C24182   5.750  10.805  10.642  0.3445 -0.3514  0.8005
  184MOL0     C24183   5.875  10.765  10.701  0.2843 -0.0969 -0.3463
  184MOL0     C24184   5.929  10.640  10.676 -0.8719  0.2576 -0.0641
  184MOL0     C24185   6.054  10.594  10.736 -0.0383 -0.2524 -0.3663
  184MOL0     O24186   6.122  10.675  10.821  0.2187 -0.3002  0.5569
  184MOL0     C24187   6.233  10.637  10.893  0.2623  0.7659 -0.0265
  184MOL0     C24188   6.236  10.510  10.960 -0.7082  0.0361 -0.9881
  184MOL0     C24189   6.341  10.479  11.051 -0.9304 -0.2514  0.5651
  184MOL0     C24190   6.430  10.579  11.077  0.3826  0.6306  0.1641
  184MOL0     O24191   6.531  10.565  11.152 -0.3792 -0.3529  0.3470
  184MOL0     C24192   6.549  10.453  11.237 -0.5440  0.2367 -0.3485
  184MOL0     C24193   6.653  10.493  11.336  0.2936  0.1308  0.2417
  184MOL0     C24194   6.768  10.585  11.287 -0.1678 -0.3673  0.5910
  184MOL0     C24195   6.862  10.634  11.393 -0.1862 -0.0702  0.5491
  184MOL0     C24196   6.956  10.746  11.352 -0.6130  0.3633  0.8162
  184MOL0     C24197   7.085  10.743  11.437 -0.6308  0.5233  0.7802
  184MOL0     C24198   7.182  10.629  11.382  0.4468  0.3131 -0.1149
  184MOL0     C24199   7.328  10.639  11.427  0.1987 -0.0568 -0.1230
  184MOL0    Cl24200   7.406  10.785  11.372  0.1917  0.3073 -0.1780
  184MOL0     C24201   6.431  10.701  11.002  0.2154 -0.4218 -0.2193
  184MOL0     C24202   6.334  10.729  10.912 -0.0978  0.4430  0.1856
  184MOL0     O24203   6.079  10.474  10.723  0.3494 -0.2076 -0.3685
  184MOL0     C24204   5.858  10.546  10.600  0.3822 -0.7385 -0.7732
  184MOL0     C24205   5.743  10.597  10.535 -0.5584  0.5935 -0.0522
  184MOL0     N24206   5.236  10.369  10.663  0.1922  0.7472 -0.5610
  184MOL0     N24207   5.158  10.319  10.748  0.1123 -0.9876  0.0557
  184MOL0     C24208   3.928  10.480  11.141  0.3344  0.2721 -1.0900
  184MOL0     C24209   3.783  10.473  11.140 -1.2521  0.7287 -0.0715
  184MOL0     C24210   3.377  10.371  11.254  1.1008 -0.7955  0.1671
  184MOL0     C24211   3.246  10.426  11.237  0.4124  0.8690  0.0550
  184MOL0     C24212   3.140  10.375  11.310 -0.9687 -0.6012  0.0894
  184MOL0     C24213   3.150  10.264  11.391  0.5706  0.4277 -0.1076
  184MOL0     O24214   3.037  10.208  11.452  0.2928  0.4318 -0.6015
  184MOL0     C24215   2.922  10.287  11.470  0.8297 -0.7840  0.1688
  184MOL0     C24216   2.801  10.203  11.515  0.6366  0.6832  0.0924
  184MOL0     C24217   2.771  10.096  11.408  0.2463 -0.0881  0.7546
  184MOL0     C24218   2.638  10.019  11.436  0.3335 -0.3184 -0.7620
  184MOL0     C24219   2.519  10.097  11.409 -0.3264 -0.2603  0.0852
  184MOL0     C24220   2.430  10.167  11.397  0.5616 -0.8866  0.4025
  184MOL0     C24221   3.281  10.210  11.407  0.5254  0.6545  0.0171
  184MOL0     C24222   3.390  10.265  11.340 -0.6108 -0.2919 -1.1023
  184MOL0     H24223   3.752  10.141  11.161  1.9452 -1.4757  0.2280
  184MOL0     H24224   4.008  10.150  11.121 -3.0643 -0.6439 -1.0330
  184MOL0     H24225   4.291  10.446  11.018  0.0164 -1.1375 -0.3905
  184MOL0     H24226   4.158  10.346  10.938  1.0222 -1.9266 -1.2024
  184MOL0     H24227   4.265  10.142  11.013  0.4974  0.2212 -1.8218
  184MOL0     H24228   4.352  10.236  11.138 -0.2377 -0.8395 -0.9545
  184MOL0     H24229   4.397  10.285  10.854 -1.6512  0.3649  0.3317
  184MOL0     H24230   4.486  10.160  10.927 -0.2021 -1.1625 -0.1904
  184MOL0     H24231   4.490  10.464  11.011 -1.8528 -1.8024 -1.3426
  184MOL0     H24232   4.564  10.339  11.116 -1.2672  1.0893  0.7154
  184MOL0     H24233   4.631  10.363  10.822 -1.5232  2.3293  0.8171
  184MOL0     H24234   4.713  10.267  10.961 -1.3027 -0.9927 -1.1629
  184MOL0     H24235   4.776  10.465  11.067  0.7969  3.5308  0.2094
  184MOL0     H24236   4.691  10.571  10.952  0.1804  0.3964 -1.7396
  184MOL0     H24237   4.860  10.482  10.782  2.2109  2.8980 -1.1955
  184MOL0     H24238   4.912  10.602  10.904  0.4997  0.3132  0.2202
  184MOL0     H24239   4.954  10.300  10.920 -1.5466  0.8717  2.0464
  184MOL0     H24240   5.011  10.435  11.023 -4.3365  3.9452 -0.4306
  184MOL0     H24241   5.142  10.633  10.827 -1.3884 -0.8777 -0.7476
  184MOL0     H24242   5.418  10.567  10.610 -0.4411  0.4369 -3.2751
  184MOL0     H24243   5.319  10.698  10.641  3.1455 -1.6855  3.5941
  184MOL0     H24244   5.181  10.625  10.432 -0.3301 -0.2617  2.1204
  184MOL0     H24245   5.295  10.496  10.406 -2.2015 -0.7566  1.3484
  184MOL0     H24246   5.348  10.685  10.264  0.8976 -0.7376  0.3630
  184MOL0     H24247   5.351  10.813  10.379  3.4942  0.8880 -2.7273
  184MOL0     H24248   5.565  10.720  10.295 -3.5076 -0.7824 -2.1667
  184MOL0     H24249   5.525  10.570  10.400  0.7357 -0.9248  1.2536
  184MOL0     H24250   5.712  10.904  10.663  2.3705  0.5690  0.3507
  184MOL0     H24251   5.922  10.839  10.765  0.3995  0.3681 -0.9595
  184MOL0     H24252   6.164  10.429  10.956  2.1664 -2.9724  1.5477
  184MOL0     H24253   6.370  10.380  11.085 -1.4422 -0.5710  0.0910
  184MOL0     H24254   6.595  10.369  11.185 -1.5954 -1.0753  0.7670
  184MOL0     H24255   6.468  10.420  11.302  0.3202 -1.0228  0.1269
  184MOL0     H24256   6.704  10.406  11.377  1.6092  1.8636  2.5200
  184MOL0     H24257   6.601  10.543  11.419 -0.2470  0.4204 -0.2575
  184MOL0     H24258   6.718  10.670  11.239  1.5562 -1.0961 -2.8497
  184MOL0     H24259   6.824  10.538  11.206 -2.9898 -0.3710 -1.5167
  184MOL0     H24260   6.808  10.679  11.477  0.9043 -1.1006  1.8654
  184MOL0     H24261   6.921  10.543  11.408  0.3150 -0.3709 -2.6403
  184MOL0     H24262   6.914  10.846  11.361 -2.4867 -0.2043 -0.8943
  184MOL0     H24263   6.995  10.745  11.250  1.1482  1.4533  1.4288
  184MOL0     H24264   7.069  10.720  11.542 -0.8729 -2.6993  0.1345
  184MOL0     H24265   7.138  10.835  11.408 -0.2065 -0.0643 -0.3962
  184MOL0     H24266   7.136  10.535  11.413 -0.1179 -0.1186 -2.1271
  184MOL0     H24267   7.179  10.625  11.272  1.1085 -0.5113 -0.1095
  184MOL0     H24268   7.384  10.551  11.393  1.8016  0.1065  1.8909
  184MOL0     H24269   7.325  10.642  11.536 -1.9708  0.8779 -0.1524
  184MOL0     H24270   6.509  10.773  11.025 -0.8738 -0.0216  2.6856
  184MOL0     H24271   6.321  10.823  10.860  3.0265  0.0401 -1.5630
  184MOL0     H24272   5.904  10.450  10.577  5.1639  1.2306 -0.5341
  184MOL0     H24273   5.719  10.531  10.452  0.0905  1.2141 -0.7452
  184MOL0     H24274   3.983  10.574  11.139 -1.2126  1.1999 -2.9989
  184MOL0     H24275   3.733  10.570  11.144  1.2226  2.1881 -1.8055
  184MOL0     H24276   3.226  10.504  11.163 -1.1558  1.2001  0.7787
  184MOL0     H24277   3.041  10.418  11.292 -1.7053 -2.0452  0.5664
  184MOL0     H24278   2.886  10.339  11.381 -0.8297  1.1337  1.8480
  184MOL0     H24279   2.935  10.368  11.542  2.5962 -1.5286  0.7517
  184MOL0     H24280   2.819  10.140  11.602 -0.2219 -0.8839 -0.8120
  184MOL0     H24281   2.714  10.264  11.537  0.4466  0.6741 -0.6038
  184MOL0     H24282   2.845  10.015  11.409 -2.8971 -3.2857 -0.4159
  184MOL0     H24283   2.770  10.132  11.304 -0.9087 -0.6389  0.5478
  184MOL0     H24284   2.632   9.931  11.372  1.0190  1.3504 -3.2514
  184MOL0     H24285   2.641   9.994  11.542 -0.2173  0.5663 -0.5205
  184MOL0     H24286   2.344  10.231  11.405  1.5767  0.3075  3.0837
  184MOL0     H24287   3.301  10.121  11.466  2.7883  0.7192 -0.5651
  184MOL0     H24288   3.488  10.220  11.352 -1.2541 -1.5226 -0.3560
  185MOL0     O24289  10.390   1.681   8.370  0.3057 -0.4993  0.7202
  185MOL0     C24290  10.411   1.714   8.250  0.3568 -0.1435 -0.1154
  185MOL0     O24291  10.312   1.731   8.149 -0.2403  0.6736 -0.2954
  185MOL0     C24292  10.210   1.641   8.152  0.3060  0.3389  0.2858
  185MOL0     C24293  10.220   1.513   8.106 -0.3843  0.2442 -0.1481
  185MOL0     C24294  10.112   1.428   8.091  0.6163  0.9496 -0.1694
  185MOL0     C24295   9.985   1.466   8.147 -0.3526 -0.5085  0.1859
  185MOL0     O24296   9.886   1.384   8.123  0.9456 -0.3289 -0.1475
  185MOL0     C24297   9.774   1.378   8.214 -1.1213 -0.2742 -0.0532
  185MOL0     C24298   9.675   1.290   8.142  0.5454 -0.8855  0.5552
  185MOL0     C24299   9.551   1.271   8.228  0.0601 -0.3996 -1.0166
  185MOL0     C24300   9.452   1.208   8.133  0.5552  0.3116 -0.3275
  185MOL0     C24301   9.318   1.161   8.192 -0.7856 -0.5133  0.1039
  185MOL0     C24302   9.232   1.100   8.080  0.8019  0.0058  0.8610
  185MOL0     C24303   9.115   1.028   8.144  0.1463 -0.1047  0.2850
  185MOL0     C24304   9.007   0.988   8.040  0.6642  1.3191 -0.2442
  185MOL0     N24305   8.889   0.923   8.103 -0.7995  0.4998 -0.3968
  185MOL0     C24306   8.757   0.960   8.076 -0.4030  0.1858  0.7380
  185MOL0     C24307   8.674   0.907   8.167  0.8541 -0.2330  0.0397
  185MOL0     C24308   8.517   0.927   8.166 -0.4694 -0.0063 -0.1876
  185MOL0     C24309   8.497   1.010   8.294 -0.6974  0.0533 -0.1556
  185MOL0     C24310   8.355   1.017   8.333  0.4755  0.1528 -0.4404
  185MOL0     C24311   8.258   1.085   8.236 -1.2860 -0.4123  0.7710
  185MOL0     O24312   8.139   1.122   8.298  0.2459 -1.1830 -0.6882
  185MOL0     C24313   8.027   1.042   8.274 -0.7852  0.2269 -0.2876
  185MOL0     C24314   8.018   0.920   8.203 -0.6311 -0.6176 -0.2126
  185MOL0     C24315   7.890   0.863   8.184 -0.3786  0.4707  0.1108
  185MOL0     C24316   7.783   0.907   8.259  0.0110 -0.7797 -0.7131
  185MOL0     C24317   7.643   0.844   8.248 -0.6532  0.0332 -0.5916
  185MOL0     O24318   7.529   0.923   8.263  0.0637  0.1350 -0.8188
  185MOL0     C24319   7.407   0.874   8.225 -0.2107 -0.2863 -0.7241
  185MOL0     C24320   7.287   0.920   8.296  0.3020  0.1242  0.7807
  185MOL0     C24321   7.163   0.895   8.241 -0.6169 -0.8466  0.9955
  185MOL0     C24322   7.137   0.817   8.131  0.3764 -0.3622 -0.6259
  185MOL0     O24323   7.007   0.800   8.094 -0.5905 -0.6098  0.3361
  185MOL0     C24324   6.973   0.818   7.956  0.7635  0.0978 -0.4269
  185MOL0     C24325   6.929   0.681   7.902 -0.4513 -0.0493  0.2000
  185MOL0     C24326   6.847   0.675   7.777  0.8653 -0.3827 -0.2650
  185MOL0     C24327   6.825   0.522   7.742 -0.4855  0.3810 -0.3741
  185MOL0     C24328   6.755   0.479   7.609 -0.2798  0.6048 -0.2928
  185MOL0     C24329   6.836   0.522   7.480  0.6217  0.0289  0.1475
  185MOL0     C24330   6.890   0.410   7.394  0.3564  0.3559  0.0616
  185MOL0     C24331   6.785   0.325   7.326 -0.0987 -0.4545  0.5171
  185MOL0    Cl24332   6.864   0.164   7.284 -0.1738 -0.4437  0.3511
  185MOL0     C24333   7.246   0.766   8.056  0.0918 -0.2779 -0.1272
  185MOL0     C24334   7.379   0.792   8.111  0.2800  1.5116  0.4598
  185MOL0     O24335   7.646   0.717   8.225 -0.0488 -0.9586 -0.5169
  185MOL0     C24336   7.792   1.037   8.317  0.5058 -0.4464 -0.4312
  185MOL0     C24337   7.915   1.091   8.337 -0.6478 -0.4196 -0.6981
  185MOL0     N24338   8.763   0.841   8.255  0.2325  0.1486  0.5577
  185MOL0     N24339   8.888   0.853   8.220 -0.1365 -0.8295 -0.2775
  185MOL0     C24340   9.974   1.596   8.201  0.5345 -0.7994 -0.5406
  185MOL0     C24341  10.084   1.678   8.203  0.3968 -0.7796  0.3401
  185MOL0     C24342  10.548   1.754   8.209  0.4188 -0.4285 -0.3476
  185MOL0     C24343  10.655   1.745   8.304  0.3997  0.3301 -0.3673
  185MOL0     C24344  10.779   1.794   8.274  0.2761 -0.0451  0.2233
  185MOL0     C24345  10.803   1.845   8.149  1.1692  0.0767  0.1759
  185MOL0     O24346  10.932   1.865   8.125 -0.8256  0.4651  0.1672
  185MOL0     C24347  10.972   1.905   7.998 -0.9076  0.0852 -0.5889
  185MOL0     C24348  11.120   1.906   7.982 -0.1279  0.1008  0.4474
  185MOL0     C24349  11.175   2.007   8.078  0.8631  0.3794 -0.4743
  185MOL0     C24350  11.324   1.994   8.100 -0.2313 -0.1054  0.7635
  185MOL0     C24351  11.351   1.872   8.166 -0.3967 -0.1119 -0.1701
  185MOL0     C24352  11.368   1.770   8.221 -0.2510 -0.3724 -0.0996
  185MOL0     C24353  10.694   1.864   8.061 -0.2189  0.2787 -0.6159
  185MOL0     C24354  10.566   1.815   8.085  0.4484  0.4284  0.0117
  185MOL0     H24355  10.323   1.491   8.083 -0.6815 -2.0597  0.4757
  185MOL0     H24356  10.132   1.327   8.057  0.5332  0.8104  0.1843
  185MOL0     H24357   9.748   1.482   8.239  0.2498  0.0084  0.2893
  185MOL0     H24358   9.799   1.335   8.312 -0.3398  2.0571  0.8600
  185MOL0     H24359   9.729   1.201   8.109  2.7362  0.4635  0.2736
  185MOL0     H24360   9.643   1.329   8.045  1.6505  1.4728  1.0550
  185MOL0     H24361   9.508   1.364   8.265  3.1379 -0.3886  3.2182
  185MOL0     H24362   9.573   1.210   8.316  0.6363  3.3062  1.6559
  185MOL0     H24363   9.423   1.277   8.053  0.6290  0.0104 -0.6152
  185MOL0     H24364   9.498   1.125   8.079  1.4332  0.3745  0.2937
  185MOL0     H24365   9.269   1.250   8.233 -3.1317 -2.4505  1.7669
  185MOL0     H24366   9.343   1.093   8.274  1.4442  1.2640  1.0085
  185MOL0     H24367   9.293   1.031   8.022  2.3690  1.3915  0.7818
  185MOL0     H24368   9.195   1.185   8.022  1.8648  0.5453  0.9519
  185MOL0     H24369   9.147   0.935   8.192  0.3073 -0.4927 -0.5518
  185MOL0     H24370   9.058   1.096   8.208 -1.8676 -0.8333 -0.6735
  185MOL0     H24371   9.043   0.925   7.958 -2.3533 -0.9021 -0.0278
  185MOL0     H24372   8.973   1.083   7.999 -1.3169  2.2664  3.1858
  185MOL0     H24373   8.719   1.021   7.994 -0.3527  0.1255  0.6695
  185MOL0     H24374   8.464   0.832   8.173  0.0305 -0.2660  0.1626
  185MOL0     H24375   8.501   0.989   8.077  1.0833 -1.6579 -1.7042
  185MOL0     H24376   8.539   1.111   8.289 -2.5562  0.8094 -1.3581
  185MOL0     H24377   8.547   0.968   8.382 -1.7466  0.3591  0.6021
  185MOL0     H24378   8.323   0.920   8.371  1.2394 -0.7953 -2.1073
  185MOL0     H24379   8.359   1.075   8.425  0.0711 -1.7437  0.8208
  185MOL0     H24380   8.246   1.013   8.154  0.9965 -2.1453  1.8688
  185MOL0     H24381   8.308   1.175   8.198  1.1864 -1.2750  1.8208
  185MOL0     H24382   8.112   0.875   8.173  1.3346  1.5129  2.2597
  185MOL0     H24383   7.887   0.770   8.128  1.0526  0.2713  0.3189
  185MOL0     H24384   7.289   0.975   8.389  0.0082  1.3939  0.0510
  185MOL0     H24385   7.080   0.926   8.303  2.1154  1.6200  3.7456
  185MOL0     H24386   7.062   0.858   7.907  0.8957 -2.6672 -2.7542
  185MOL0     H24387   6.883   0.880   7.957  0.9546  0.3883 -1.0304
  185MOL0     H24388   6.880   0.632   7.987  1.2847  1.7375  2.3753
  185MOL0     H24389   7.022   0.631   7.874  0.3307  2.0214 -1.2010
  185MOL0     H24390   6.900   0.723   7.695  0.1222  0.7014 -0.1328
  185MOL0     H24391   6.752   0.730   7.778  1.6106  0.9416  0.1993
  185MOL0     H24392   6.925   0.476   7.741  0.2769  0.8471  6.2180
  185MOL0     H24393   6.781   0.470   7.828  1.6038 -1.6179 -0.4022
  185MOL0     H24394   6.650   0.511   7.603 -1.3815 -1.6260  3.6227
  185MOL0     H24395   6.738   0.371   7.616 -0.9477  0.6692 -0.7718
  185MOL0     H24396   6.918   0.587   7.510  3.2124 -2.4801 -1.0192
  185MOL0     H24397   6.762   0.581   7.425 -1.8902 -1.2238  1.9921
  185MOL0     H24398   6.944   0.462   7.315 -0.9330  3.2986  0.9651
  185MOL0     H24399   6.960   0.352   7.455 -0.3878 -0.8900 -0.2504
  185MOL0     H24400   6.760   0.367   7.228 -0.2040 -1.0843  0.2682
  185MOL0     H24401   6.697   0.309   7.388  0.4061  0.3583  1.4610
  185MOL0     H24402   7.228   0.705   7.968  2.3218  0.8444 -1.4607
  185MOL0     H24403   7.456   0.754   8.044  1.1392  0.2261  2.1055
  185MOL0     H24404   7.706   1.087   8.361  0.2407  0.0293 -1.4566
  185MOL0     H24405   7.923   1.187   8.388 -1.7087 -0.3399 -0.6579
  185MOL0     H24406   9.885   1.642   8.243  1.5459  0.2551  0.5304
  185MOL0     H24407  10.061   1.779   8.237 -0.2895 -0.7141 -0.3085
  185MOL0     H24408  10.632   1.701   8.400 -5.4916  0.9149 -1.1434
  185MOL0     H24409  10.859   1.785   8.346 -0.0144 -3.5032  0.2931
  185MOL0     H24410  10.944   2.006   7.967  1.4253  1.0514  0.1944
  185MOL0     H24411  10.920   1.834   7.933 -0.8727 -1.2869  0.8377
  185MOL0     H24412  11.164   1.808   8.002  0.4963  0.1614 -0.5428
  185MOL0     H24413  11.146   1.942   7.882 -0.2120 -0.1139  0.3472
  185MOL0     H24414  11.129   1.999   8.177  1.6019  1.9613  0.0226
  185MOL0     H24415  11.162   2.107   8.034  0.7122  1.2538  1.4605
  185MOL0     H24416  11.378   1.995   8.005  0.0027  0.5566  0.9022
  185MOL0     H24417  11.358   2.074   8.167 -0.6169 -1.5792  2.8320
  185MOL0     H24418  11.363   1.671   8.262 -0.2227  0.2645  1.5383
  185MOL0     H24419  10.706   1.922   7.969 -1.6670  1.7521  0.0603
  185MOL0     H24420  10.483   1.826   8.016  0.8056  2.8592 -0.1067
  186MOL0     O24421   7.210   4.315  10.025 -0.2546 -0.2470  0.4324
  186MOL0     C24422   7.277   4.348   9.925 -0.2093  0.5842 -0.1064
  186MOL0     O24423   7.232   4.432   9.825 -0.1280  0.4237 -0.6345
  186MOL0     C24424   7.096   4.436   9.822  0.3515 -0.7772  0.1388
  186MOL0     C24425   7.015   4.342   9.755  0.0994  0.1934 -0.6423
  186MOL0     C24426   6.887   4.359   9.719 -0.0359 -0.1469 -0.5207
  186MOL0     C24427   6.830   4.480   9.761 -0.3441  0.0144  1.1294
  186MOL0     O24428   6.698   4.515   9.735  0.3341 -0.4690  1.0103
  186MOL0     C24429   6.644   4.482   9.601 -0.1657  0.2412 -0.6685
  186MOL0     C24430   6.501   4.530   9.604 -0.3734 -0.5836  0.8847
  186MOL0     C24431   6.499   4.673   9.561 -0.1180  0.9053  0.5605
  186MOL0     C24432   6.357   4.739   9.563  0.3515  0.2275 -0.2223
  186MOL0     C24433   6.254   4.685   9.467 -0.1549 -0.2970 -0.4663
  186MOL0     C24434   6.277   4.758   9.341 -0.8142  0.4308  0.4616
  186MOL0     C24435   6.172   4.856   9.291 -0.4037 -0.1710 -0.0626
  186MOL0     C24436   6.156   4.979   9.384 -0.3009  0.1139  0.0953
  186MOL0     N24437   6.033   5.058   9.385 -0.2419  0.6614  0.5732
  186MOL0     C24438   5.978   5.104   9.491 -0.6381 -0.2507  0.3484
  186MOL0     C24439   5.878   5.182   9.449 -0.9588  0.3090 -0.8493
  186MOL0     C24440   5.765   5.226   9.538  0.2818 -0.2090  0.2128
  186MOL0     C24441   5.651   5.322   9.470 -0.6501  0.4132  0.3113
  186MOL0     C24442   5.529   5.357   9.558 -0.1172  0.1996  0.2863
  186MOL0     C24443   5.418   5.249   9.558 -0.4830  0.2725  0.8534
  186MOL0     O24444   5.332   5.248   9.667  0.2059 -0.9029  0.1412
  186MOL0     C24445   5.202   5.205   9.658 -0.2411  0.7624 -1.6216
  186MOL0     C24446   5.155   5.115   9.566  0.9786  0.5061  0.2239
  186MOL0     C24447   5.024   5.059   9.578  0.4037 -0.7157  0.9851
  186MOL0     C24448   4.940   5.094   9.690 -0.0951  0.3845  0.0094
  186MOL0     C24449   4.810   5.036   9.699 -0.0933  0.6674  0.0118
  186MOL0     O24450   4.716   5.091   9.780  0.1683 -0.5282 -0.1207
  186MOL0     C24451   4.618   4.999   9.807 -0.1043  0.0584 -0.3484
  186MOL0     C24452   4.627   4.861   9.848 -0.4915 -0.7374 -0.7215
  186MOL0     C24453   4.514   4.785   9.893 -0.2384 -0.5320 -0.4735
  186MOL0     C24454   4.393   4.841   9.868 -0.0549  0.6365 -0.1083
  186MOL0     O24455   4.279   4.762   9.887  0.4414 -0.3238 -0.1407
  186MOL0     C24456   4.241   4.734  10.022 -0.0538  0.1470  0.7314
  186MOL0     C24457   4.086   4.739  10.036 -0.0695  0.4810 -0.9837
  186MOL0     C24458   4.017   4.832   9.932 -0.3343  0.1957  0.4436
  186MOL0     C24459   3.868   4.837   9.952  0.4873 -0.0506  0.7816
  186MOL0     C24460   3.833   4.915  10.079 -0.0868 -0.6385 -0.0856
  186MOL0     C24461   3.689   4.965  10.086  0.5148 -0.3044  0.1938
  186MOL0     C24462   3.656   5.038   9.956 -0.3633  0.8479 -0.1260
  186MOL0     C24463   3.539   5.133   9.978  0.9410  0.0409 -0.0696
  186MOL0    Cl24464   3.379   5.055  10.014 -0.5022  0.0447 -0.2686
  186MOL0     C24465   4.376   4.971   9.818 -0.9103 -0.2132 -0.5158
  186MOL0     C24466   4.487   5.053   9.803  0.2450  0.0375  0.5164
  186MOL0     O24467   4.799   4.930   9.634 -0.8234  0.3227 -0.2176
  186MOL0     C24468   4.988   5.175   9.794 -0.3794  0.5023  0.0844
  186MOL0     C24469   5.120   5.222   9.771 -0.2063  0.9149  0.3347
  186MOL0     N24470   5.869   5.186   9.315 -0.1097 -0.0604  0.3637
  186MOL0     N24471   5.965   5.106   9.274 -0.7973 -0.3242 -0.5084
  186MOL0     C24472   6.904   4.578   9.827  0.1840  1.1619  0.3318
  186MOL0     C24473   7.039   4.555   9.852 -0.3286 -0.1990 -1.3888
  186MOL0     C24474   7.423   4.305   9.937 -0.4382 -0.0271  0.1737
  186MOL0     C24475   7.489   4.296  10.060 -0.0236 -0.8805 -0.0702
  186MOL0     C24476   7.606   4.221  10.069 -0.9446 -0.3364 -0.8767
  186MOL0     C24477   7.658   4.147   9.953 -0.4930  0.7683  0.3174
  186MOL0     O24478   7.773   4.069   9.952  0.2714  0.0801 -0.9632
  186MOL0     C24479   7.870   4.086  10.054 -0.5921 -0.1041  0.2282
  186MOL0     C24480   7.856   3.984  10.174 -0.2427 -0.5151  0.2874
  186MOL0     C24481   7.805   3.839  10.144  0.2842 -0.5744  0.3135
  186MOL0     C24482   7.875   3.764  10.035 -0.0552  0.1854  1.3417
  186MOL0     C24483   8.013   3.722  10.075  0.3938 -0.1723 -0.2717
  186MOL0     C24484   8.131   3.701  10.081 -0.2255  0.0919 -0.5529
  186MOL0     C24485   7.591   4.162   9.830 -0.1733  0.7865  0.1595
  186MOL0     C24486   7.481   4.239   9.821  0.4975 -0.0052  0.0108
  186MOL0     H24487   7.056   4.247   9.721 -0.6079 -0.2418 -0.2998
  186MOL0     H24488   6.824   4.292   9.662 -2.2400 -0.2774  1.9214
  186MOL0     H24489   6.646   4.374   9.581 -2.0812  0.1869 -0.6775
  186MOL0     H24490   6.696   4.541   9.525 -0.5757 -0.1054 -1.2273
  186MOL0     H24491   6.469   4.521   9.708  0.3876  2.1492  1.4191
  186MOL0     H24492   6.438   4.459   9.549 -1.1775 -0.3388  1.4645
  186MOL0     H24493   6.546   4.678   9.462  1.9191 -1.4728  1.2815
  186MOL0     H24494   6.568   4.726   9.628 -0.2692  0.6674  0.9007
  186MOL0     H24495   6.333   4.712   9.666  2.0194 -2.6692 -0.4812
  186MOL0     H24496   6.363   4.848   9.557 -0.1473  0.3166  0.7211
  186MOL0     H24497   6.150   4.699   9.498  0.7178  0.7987  2.3065
  186MOL0     H24498   6.264   4.579   9.445 -0.9152  0.0445 -2.7952
  186MOL0     H24499   6.282   4.671   9.275 -0.4650 -2.2374  3.7037
  186MOL0     H24500   6.377   4.800   9.329  0.4047 -1.7852  1.9574
  186MOL0     H24501   6.182   4.885   9.186  0.6789  0.2765  0.1518
  186MOL0     H24502   6.074   4.809   9.303 -0.3592  0.3112  2.7853
  186MOL0     H24503   6.243   5.041   9.361  0.2124 -0.7253 -0.2700
  186MOL0     H24504   6.165   4.944   9.487 -0.6665  0.0667  0.1145
  186MOL0     H24505   6.010   5.079   9.592  1.2606  1.8765  0.3578
  186MOL0     H24506   5.807   5.274   9.627  0.7043 -3.8014  2.1077
  186MOL0     H24507   5.706   5.137   9.563 -1.0248  0.0753 -1.5957
  186MOL0     H24508   5.614   5.267   9.383 -0.2659 -1.7284  1.4576
  186MOL0     H24509   5.700   5.410   9.427  0.1156  0.1568  0.6431
  186MOL0     H24510   5.565   5.373   9.660 -1.7123  1.7614  0.6634
  186MOL0     H24511   5.482   5.450   9.523 -1.5264 -0.9826 -1.1210
  186MOL0     H24512   5.465   5.152   9.574 -1.8920  0.0145  4.5586
  186MOL0     H24513   5.376   5.246   9.457  3.0031  2.1142 -0.8184
  186MOL0     H24514   5.222   5.102   9.481  0.3715  2.4330 -0.5956
  186MOL0     H24515   4.996   5.002   9.491  1.5007 -2.1465  1.5267
  186MOL0     H24516   4.728   4.820   9.844 -1.4585 -3.2945 -0.4947
  186MOL0     H24517   4.531   4.679   9.903  0.6007 -0.2929  0.9560
  186MOL0     H24518   4.287   4.807  10.088  1.6308 -1.4934  1.4766
  186MOL0     H24519   4.294   4.639  10.039  0.0664 -0.3174 -1.8673
  186MOL0     H24520   4.058   4.758  10.140  1.6940 -1.0677 -0.1643
  186MOL0     H24521   4.058   4.634  10.020 -0.8751  0.6777 -0.9134
  186MOL0     H24522   4.044   4.792   9.834  2.1274  0.9356  0.7427
  186MOL0     H24523   4.055   4.935   9.930  3.0397 -0.9512  0.2758
  186MOL0     H24524   3.829   4.885   9.862  2.0881  1.2484  0.7314
  186MOL0     H24525   3.820   4.739   9.960  1.5778 -0.7009 -0.3255
  186MOL0     H24526   3.900   5.001  10.080  1.4545 -1.8037  0.3177
  186MOL0     H24527   3.870   4.857  10.164  0.5181 -3.4144 -2.1044
  186MOL0     H24528   3.676   5.032  10.171  1.2368  3.3914 -2.3641
  186MOL0     H24529   3.616   4.883  10.091  0.9475 -0.6575  0.8629
  186MOL0     H24530   3.740   5.092   9.911  0.1144 -0.7527 -1.2376
  186MOL0     H24531   3.627   4.964   9.881 -1.4729  1.0131  0.1197
  186MOL0     H24532   3.511   5.191   9.890 -2.1576  0.4172  1.0550
  186MOL0     H24533   3.566   5.208  10.053 -1.0976  1.8683 -1.0503
  186MOL0     H24534   4.280   5.008   9.786  0.0250  3.7362  0.6842
  186MOL0     H24535   4.459   5.155   9.779 -0.7933  0.2044  2.2281
  186MOL0     H24536   4.937   5.193   9.888  2.8041  2.1896  1.6665
  186MOL0     H24537   5.175   5.257   9.858  0.7262 -1.6938  0.8740
  186MOL0     H24538   6.863   4.674   9.858 -1.9401  1.7486 -3.6265
  186MOL0     H24539   7.116   4.617   9.897  0.0549  1.5413 -4.2231
  186MOL0     H24540   7.457   4.354  10.146  1.2514 -1.3885  0.7829
  186MOL0     H24541   7.658   4.211  10.164  0.0616 -2.3754 -1.5951
  186MOL0     H24542   7.861   4.188  10.093 -0.5503 -0.8760  2.4335
  186MOL0     H24543   7.966   4.079  10.001 -0.2669  2.2554  0.3623
  186MOL0     H24544   7.954   3.969  10.220 -0.2387  1.5737  1.0496
  186MOL0     H24545   7.789   4.029  10.247  0.1627  0.3394  0.1498
  186MOL0     H24546   7.701   3.840  10.110  0.1382  0.0363  0.7570
  186MOL0     H24547   7.800   3.784  10.238  0.3170 -3.1238 -1.0937
  186MOL0     H24548   7.812   3.681   9.998 -4.0041  2.7603  1.6439
  186MOL0     H24549   7.884   3.833   9.951  0.0352  2.5226  3.1502
  186MOL0     H24550   8.236   3.690  10.098 -0.4430 -2.8838 -0.4884
  186MOL0     H24551   7.639   4.124   9.740  2.1794  0.9678  1.2527
  186MOL0     H24552   7.435   4.245   9.723  0.9103  0.3814 -0.1611
  187MOL0     O24553   6.182   6.555   9.984 -0.3040 -0.9161 -0.1061
  187MOL0     C24554   6.272   6.607   9.920  0.0808  0.8587  0.8360
  187MOL0     O24555   6.273   6.646   9.790 -0.7862  0.1574  0.0433
  187MOL0     C24556   6.165   6.641   9.704 -0.2959  0.1579 -0.6341
  187MOL0     C24557   6.030   6.636   9.741 -0.3066  0.5163  0.0136
  187MOL0     C24558   5.923   6.628   9.658 -0.0848  0.2499 -0.6119
  187MOL0     C24559   5.957   6.631   9.519  0.1464 -0.2105 -0.3707
  187MOL0     O24560   5.868   6.635   9.410 -1.1292 -0.0081  0.2312
  187MOL0     C24561   5.728   6.604   9.430 -0.0622 -0.2470 -1.4083
  187MOL0     C24562   5.689   6.464   9.381 -0.4005 -0.6722  0.1177
  187MOL0     C24563   5.737   6.422   9.240 -0.3617  0.2835  0.9404
  187MOL0     C24564   5.637   6.321   9.173 -0.0595  0.3091  0.5204
  187MOL0     C24565   5.678   6.293   9.023  0.8685 -0.9079  1.1874
  187MOL0     C24566   5.801   6.208   9.021 -0.4226 -0.7633 -0.7672
  187MOL0     C24567   5.835   6.153   8.872 -0.5006  0.8590 -1.2026
  187MOL0     C24568   5.981   6.098   8.861  0.1524 -0.0747  0.2783
  187MOL0     N24569   6.080   6.192   8.808  0.6015  0.1799  0.2570
  187MOL0     C24570   6.184   6.243   8.884  0.4988  0.5219 -0.3967
  187MOL0     C24571   6.258   6.311   8.793  0.0515 -0.1836 -0.0208
  187MOL0     C24572   6.394   6.372   8.823  0.4582 -0.1961 -0.6272
  187MOL0     C24573   6.486   6.371   8.699 -0.6480  0.5800  0.4211
  187MOL0     C24574   6.626   6.390   8.744  0.0221  0.7144  0.9282
  187MOL0     C24575   6.714   6.272   8.773 -0.5629  0.0787 -0.0662
  187MOL0     O24576   6.676   6.194   8.892 -0.6651 -0.2502 -0.2598
  187MOL0     C24577   6.751   6.085   8.926  0.2280  0.0586  0.0303
  187MOL0     C24578   6.690   6.002   9.023 -0.0528 -0.8952  0.5994
  187MOL0     C24579   6.752   5.878   9.044 -0.8261  0.0189 -0.5205
  187MOL0     C24580   6.873   5.834   8.986 -0.6778  0.0672  0.4750
  187MOL0     C24581   6.926   5.705   9.020 -0.3257 -0.4045 -0.1985
  187MOL0     O24582   6.875   5.646   9.139 -0.0513  0.6186  0.0828
  187MOL0     C24583   6.931   5.538   9.198  1.1146 -1.2426 -1.0825
  187MOL0     C24584   6.857   5.490   9.307  0.1092  0.2250  0.1117
  187MOL0     C24585   6.910   5.380   9.383  0.1470 -1.0875 -0.4008
  187MOL0     C24586   7.017   5.304   9.336  0.9372  0.0719 -0.2780
  187MOL0     O24587   7.041   5.182   9.396 -0.3966 -0.0026  0.3620
  187MOL0     C24588   7.173   5.153   9.441 -0.8526  0.0725  0.1575
  187MOL0     C24589   7.220   5.023   9.374 -0.0123  0.9269 -0.7027
  187MOL0     C24590   7.310   4.934   9.463 -0.2393  0.0322  0.5493
  187MOL0     C24591   7.436   5.007   9.500  0.8718  0.0226 -0.1908
  187MOL0     C24592   7.557   4.921   9.522  0.2825  0.0493 -0.5880
  187MOL0     C24593   7.541   4.775   9.568  0.5268 -0.6101  0.4968
  187MOL0     C24594   7.684   4.711   9.578  0.6230  0.0120 -0.1381
  187MOL0     C24595   7.681   4.578   9.501  0.1415  1.0099  0.1012
  187MOL0    Cl24596   7.667   4.608   9.327  0.2568 -0.1526  0.0782
  187MOL0     C24597   7.097   5.357   9.241  0.7310 -0.2556  0.2587
  187MOL0     C24598   7.051   5.468   9.169  0.2869 -0.7442  0.0084
  187MOL0     O24599   7.008   5.654   8.943 -0.1139  0.4063 -0.7808
  187MOL0     C24600   6.936   5.923   8.900  0.6112 -0.7051 -0.2204
  187MOL0     C24601   6.867   6.041   8.865 -0.9618  1.7074  0.5645
  187MOL0     N24602   6.181   6.317   8.672 -0.3541  0.7797  0.3253
  187MOL0     N24603   6.077   6.243   8.682  0.2917 -0.0220 -0.6312
  187MOL0     C24604   6.084   6.642   9.476 -0.2439  0.9463 -0.5850
  187MOL0     C24605   6.189   6.652   9.569 -0.0752  0.1598  0.1700
  187MOL0     C24606   6.405   6.611   9.981  0.3780 -0.0728 -0.4519
  187MOL0     C24607   6.520   6.664   9.914 -0.4414 -0.0091  0.1288
  187MOL0     C24608   6.647   6.677   9.979  0.3001 -0.0884 -0.5469
  187MOL0     C24609   6.673   6.635  10.106  0.2094  0.2912 -0.4813
  187MOL0     O24610   6.791   6.657  10.171  0.4772 -0.4470  0.4441
  187MOL0     C24611   6.869   6.777  10.150 -0.1964  0.1054  0.8782
  187MOL0     C24612   7.005   6.749  10.193  0.4915 -0.2093 -0.1260
  187MOL0     C24613   7.073   6.639  10.122 -0.3709  0.3349  0.3788
  187MOL0     C24614   7.215   6.604  10.170  0.0727 -0.2525 -0.6346
  187MOL0     C24615   7.194   6.510  10.283 -0.7382  0.2148 -0.6374
  187MOL0     C24616   7.190   6.458  10.391 -0.5541  1.0119  0.4643
  187MOL0     C24617   6.563   6.579  10.172  0.2758 -0.3104  0.2634
  187MOL0     C24618   6.430   6.572  10.106 -0.6021  0.4143 -0.6211
  187MOL0     H24619   6.003   6.629   9.846  0.0239  0.1215  0.0727
  187MOL0     H24620   5.826   6.609   9.702  0.7443  1.4841  1.9858
  187MOL0     H24621   5.677   6.681   9.371  0.3197  4.5741  3.7571
  187MOL0     H24622   5.703   6.622   9.535 -1.2726 -1.1643 -1.5094
  187MOL0     H24623   5.582   6.447   9.377 -0.6520  0.9773 -2.6345
  187MOL0     H24624   5.743   6.400   9.452  0.7574 -0.8161 -0.8626
  187MOL0     H24625   5.839   6.383   9.250  0.0836  0.7714 -1.1831
  187MOL0     H24626   5.742   6.516   9.183  1.0652  0.6428  1.5929
  187MOL0     H24627   5.623   6.225   9.222 -2.5812 -0.4225 -1.4377
  187MOL0     H24628   5.539   6.369   9.181 -1.2583 -2.0837  1.0006
  187MOL0     H24629   5.687   6.385   8.964 -2.0381 -0.3845  1.3902
  187MOL0     H24630   5.587   6.261   8.972  0.4871  2.6721 -0.7609
  187MOL0     H24631   5.789   6.124   9.090 -3.1311  0.3012  0.1934
  187MOL0     H24632   5.886   6.265   9.061 -1.0804 -1.5387  1.8853
  187MOL0     H24633   5.753   6.086   8.843 -1.4715  0.4886  2.0123
  187MOL0     H24634   5.826   6.234   8.799 -1.5336 -1.2073 -3.4962
  187MOL0     H24635   5.975   6.019   8.787  2.2057 -1.0623  1.0948
  187MOL0     H24636   6.019   6.049   8.951  1.8746 -2.1556 -1.4716
  187MOL0     H24637   6.202   6.215   8.987 -0.9127  1.0618  0.0127
  187MOL0     H24638   6.429   6.309   8.906 -0.7708  1.2788  1.1044
  187MOL0     H24639   6.390   6.471   8.869  2.3231 -2.2963  4.9691
  187MOL0     H24640   6.458   6.455   8.635 -2.7599  1.3524  2.2180
  187MOL0     H24641   6.473   6.275   8.649 -0.7134  0.7789  0.0582
  187MOL0     H24642   6.674   6.437   8.657  0.3847 -2.2645 -0.6012
  187MOL0     H24643   6.631   6.467   8.821  0.0037  1.0280  0.6213
  187MOL0     H24644   6.809   6.319   8.796 -1.9197  2.3933  1.1986
  187MOL0     H24645   6.723   6.214   8.680 -1.2320  0.9556 -0.6913
  187MOL0     H24646   6.589   6.022   9.059 -0.1244  0.3068 -0.2199
  187MOL0     H24647   6.697   5.802   9.099 -0.9747 -0.7321 -1.6483
  187MOL0     H24648   6.759   5.529   9.331 -0.9435 -1.1456 -1.6631
  187MOL0     H24649   6.856   5.338   9.467  0.1953  1.0330  0.7679
  187MOL0     H24650   7.155   5.135   9.547  0.9359  0.5860  0.5808
  187MOL0     H24651   7.233   5.243   9.425 -3.5892  1.9241 -0.2778
  187MOL0     H24652   7.263   5.042   9.276 -0.2913 -2.5185 -1.6281
  187MOL0     H24653   7.130   4.971   9.339  0.1769  1.8700 -2.7331
  187MOL0     H24654   7.325   4.842   9.405 -3.7150  0.0314 -0.5881
  187MOL0     H24655   7.252   4.921   9.556 -0.0414 -2.4116  0.4163
  187MOL0     H24656   7.463   5.082   9.426 -2.5374  1.3575 -0.2407
  187MOL0     H24657   7.403   5.072   9.581 -2.9308  0.2724 -1.7028
  187MOL0     H24658   7.621   4.970   9.595 -0.1354  1.5891 -1.2071
  187MOL0     H24659   7.605   4.904   9.425 -1.3513 -0.1587 -1.3955
  187MOL0     H24660   7.487   4.728   9.486 -1.2567  3.4576 -0.9354
  187MOL0     H24661   7.475   4.769   9.655 -2.3760 -0.5964 -1.5700
  187MOL0     H24662   7.762   4.768   9.525  1.5420 -0.2219  0.9225
  187MOL0     H24663   7.697   4.700   9.686 -0.5287 -0.1478 -0.0055
  187MOL0     H24664   7.608   4.502   9.532  3.0767 -2.6719 -1.1770
  187MOL0     H24665   7.770   4.517   9.520 -2.1199 -2.4303  0.6185
  187MOL0     H24666   7.189   5.310   9.206  0.1354 -1.3312  0.1060
  187MOL0     H24667   7.110   5.496   9.082 -2.1877 -0.5905 -1.7341
  187MOL0     H24668   7.038   5.900   8.868  1.5127  0.1123  1.8751
  187MOL0     H24669   6.909   6.111   8.794  0.3110 -0.5717 -1.0741
  187MOL0     H24670   6.109   6.650   9.370 -3.6699 -0.1583 -1.6312
  187MOL0     H24671   6.290   6.672   9.534  0.2535  2.0579  1.9698
  187MOL0     H24672   6.510   6.701   9.812 -1.2322  1.2349  0.6387
  187MOL0     H24673   6.722   6.727   9.918  0.9678 -0.7716 -0.3093
  187MOL0     H24674   6.819   6.852  10.211  0.6918  1.4651 -0.0147
  187MOL0     H24675   6.860   6.811  10.046  1.3170  2.5674  1.4703
  187MOL0     H24676   7.062   6.840  10.173  1.4403 -0.8751 -0.5163
  187MOL0     H24677   7.001   6.727  10.300  0.1107 -1.7693 -0.4356
  187MOL0     H24678   7.084   6.671  10.018  0.0747  2.1491  0.9487
  187MOL0     H24679   7.009   6.551  10.128 -0.3035  0.2682  0.1350
  187MOL0     H24680   7.285   6.549  10.105  1.5352 -1.6834  1.9566
  187MOL0     H24681   7.266   6.695  10.203  0.1945  0.7382 -3.3193
  187MOL0     H24682   7.196   6.415  10.489 -0.0051  1.7333  0.7604
  187MOL0     H24683   6.574   6.534  10.270  2.0352 -1.8518 -0.5820
  187MOL0     H24684   6.350   6.534  10.169  0.2418  0.0785  0.2735
  188MOL0     O24685   5.333   2.866   2.675  0.4983 -0.0740 -0.0313
  188MOL0     C24686   5.398   2.771   2.721 -0.7930  0.7089  0.3295
  188MOL0     O24687   5.345   2.655   2.766 -0.4868 -0.5479  0.2605
  188MOL0     C24688   5.215   2.615   2.747  0.4412 -0.1947  0.3927
  188MOL0     C24689   5.129   2.664   2.646  0.6557  0.3325  0.3338
  188MOL0     C24690   4.994   2.626   2.646  0.0260  0.0296 -0.5448
  188MOL0     C24691   4.940   2.524   2.724  1.1865 -0.1175  0.1165
  188MOL0     O24692   4.806   2.501   2.721 -0.0447 -0.0283  0.2319
  188MOL0     C24693   4.782   2.371   2.668 -0.4288 -0.1107 -0.7751
  188MOL0     C24694   4.636   2.343   2.698  0.8588  0.0468  0.9487
  188MOL0     C24695   4.528   2.446   2.643  0.4270 -0.2961 -0.2270
  188MOL0     C24696   4.520   2.468   2.496  0.2359 -0.1355  0.4222
  188MOL0     C24697   4.423   2.583   2.463  0.4382 -0.6633 -0.2559
  188MOL0     C24698   4.409   2.602   2.311  0.0374  0.1863 -0.1045
  188MOL0     C24699   4.332   2.733   2.274 -0.4909  0.6512 -0.0377
  188MOL0     C24700   4.176   2.723   2.287 -0.1509 -0.3900 -0.5825
  188MOL0     N24701   4.126   2.848   2.232 -0.4447 -0.8299  1.1769
  188MOL0     C24702   4.100   2.970   2.294 -0.0036  0.7962 -1.1217
  188MOL0     C24703   4.036   3.034   2.195  0.3372 -0.5195 -0.5622
  188MOL0     C24704   3.983   3.176   2.196 -0.6919  0.2778 -0.0233
  188MOL0     C24705   3.863   3.185   2.286 -0.3756 -1.2225  0.0618
  188MOL0     C24706   3.726   3.143   2.222  0.1538 -0.4129 -0.2489
  188MOL0     C24707   3.652   3.054   2.318 -0.4173  0.4063  0.6002
  188MOL0     O24708   3.563   2.985   2.230 -0.1118 -1.1902  0.4963
  188MOL0     C24709   3.428   3.029   2.227  0.7610  0.0928  0.5564
  188MOL0     C24710   3.328   2.947   2.172 -0.3692  0.3950 -0.2459
  188MOL0     C24711   3.193   2.984   2.177 -0.1597  0.5073 -0.3454
  188MOL0     C24712   3.156   3.108   2.228 -0.4770 -0.3862 -0.3375
  188MOL0     C24713   3.013   3.154   2.236 -0.2804  0.3936  0.2801
  188MOL0     O24714   2.919   3.069   2.186  0.0710  0.2651 -0.0743
  188MOL0     C24715   2.794   3.128   2.191 -0.5238  0.9129  0.4017
  188MOL0     C24716   2.758   3.210   2.084 -1.3714 -0.5219  1.3793
  188MOL0     C24717   2.632   3.274   2.090  0.1957 -0.2130  0.3015
  188MOL0     C24718   2.548   3.255   2.195 -0.6348 -0.3873  0.1273
  188MOL0     O24719   2.430   3.326   2.201  0.7291  0.1407 -0.3238
  188MOL0     C24720   2.353   3.330   2.313  0.8261  0.2728 -0.3444
  188MOL0     C24721   2.234   3.401   2.270  0.2945  0.0849 -0.1419
  188MOL0     C24722   2.133   3.394   2.385 -0.3925 -0.7531 -0.0808
  188MOL0     C24723   1.997   3.441   2.342 -0.4920 -0.1234 -0.1519
  188MOL0     C24724   1.888   3.453   2.445  0.0310 -0.2074 -0.0544
  188MOL0     C24725   1.755   3.494   2.387 -1.2593 -0.2857 -0.1274
  188MOL0     C24726   1.653   3.478   2.497  0.6564 -0.0807 -0.6503
  188MOL0     C24727   1.524   3.550   2.461 -0.5035 -0.6926 -0.0042
  188MOL0    Cl24728   1.562   3.726   2.486  0.1135  0.0595 -0.1698
  188MOL0     C24729   2.585   3.160   2.293 -1.0946  0.0287  0.0021
  188MOL0     C24730   2.711   3.094   2.293  0.5070 -0.7850 -0.3729
  188MOL0     O24731   2.989   3.269   2.283 -0.1192  0.7260 -0.4389
  188MOL0     C24732   3.256   3.200   2.263  0.0262  0.2682  0.0036
  188MOL0     C24733   3.389   3.154   2.270  0.0396 -0.0883  0.3255
  188MOL0     N24734   4.024   2.955   2.085 -0.3707 -0.1572  0.2869
  188MOL0     N24735   4.082   2.852   2.105 -0.2762  1.5821  0.3360
  188MOL0     C24736   5.030   2.462   2.816  0.2863 -0.3016 -0.2724
  188MOL0     C24737   5.170   2.508   2.823  0.1312  0.3455  0.7350
  188MOL0     C24738   5.542   2.795   2.724 -0.3795 -0.7038 -1.3147
  188MOL0     C24739   5.625   2.704   2.797 -0.2125  0.6701  0.3027
  188MOL0     C24740   5.759   2.718   2.785 -0.0953 -0.5439 -0.0715
  188MOL0     C24741   5.823   2.821   2.717 -0.2797  0.6678  0.0633
  188MOL0     O24742   5.958   2.817   2.709 -0.3524  0.3471 -0.3783
  188MOL0     C24743   6.034   2.911   2.636  0.0569  0.0987 -0.5085
  188MOL0     C24744   6.184   2.881   2.614 -0.4185 -0.3181 -0.3110
  188MOL0     C24745   6.269   2.875   2.742  0.1432  0.0205 -0.1137
  188MOL0     C24746   6.278   3.016   2.804  1.0060  0.7055  1.1085
  188MOL0     C24747   6.179   3.049   2.908  0.2972 -0.2770 -0.0372
  188MOL0     C24748   6.115   3.094   3.004  0.4592  0.4189 -0.2750
  188MOL0     C24749   5.743   2.915   2.650  0.0548 -0.4820 -0.1262
  188MOL0     C24750   5.606   2.901   2.649  0.2591 -0.0324 -0.4851
  188MOL0     H24751   5.174   2.730   2.573  1.9088 -1.8335 -0.9517
  188MOL0     H24752   4.925   2.685   2.586 -0.5180  0.3844  0.4096
  188MOL0     H24753   4.845   2.290   2.705  3.0263  1.6840 -2.2453
  188MOL0     H24754   4.808   2.376   2.562  1.8966  0.0341 -0.2508
  188MOL0     H24755   4.636   2.323   2.806  3.4947  0.8059  1.1599
  188MOL0     H24756   4.606   2.250   2.648 -0.6595  0.2554  1.4375
  188MOL0     H24757   4.560   2.544   2.678  1.8448  0.1118 -2.4486
  188MOL0     H24758   4.431   2.422   2.688  0.0561 -0.7287 -1.2287
  188MOL0     H24759   4.613   2.504   2.452  0.3696 -1.1440 -0.1461
  188MOL0     H24760   4.489   2.374   2.450 -0.3206 -1.2231  2.8638
  188MOL0     H24761   4.437   2.683   2.504 -0.1620  0.0111 -1.6183
  188MOL0     H24762   4.329   2.555   2.511  1.2095 -1.8923  0.5896
  188MOL0     H24763   4.359   2.517   2.265  0.7408  0.5612 -1.6122
  188MOL0     H24764   4.506   2.605   2.260 -1.6652  1.1163 -3.5574
  188MOL0     H24765   4.366   2.809   2.345 -0.9032  0.8188 -0.0176
  188MOL0     H24766   4.361   2.753   2.170  4.0100  1.0983  1.1128
  188MOL0     H24767   4.149   2.722   2.393 -0.4490 -0.2300 -0.6562
  188MOL0     H24768   4.134   2.634   2.238 -0.0497 -0.5109 -0.4482
  188MOL0     H24769   4.133   3.005   2.391 -0.7078 -0.2700 -0.4763
  188MOL0     H24770   3.961   3.195   2.091  2.0472 -2.9973 -1.3799
  188MOL0     H24771   4.066   3.234   2.237  1.0483 -2.9927  1.5308
  188MOL0     H24772   3.851   3.291   2.309  1.8546 -1.0918  0.8424
  188MOL0     H24773   3.891   3.142   2.383  2.5843 -5.7177 -2.4480
  188MOL0     H24774   3.661   3.229   2.206  1.3352  0.1229 -2.7632
  188MOL0     H24775   3.754   3.097   2.126  1.2545  0.9024 -0.5915
  188MOL0     H24776   3.609   3.113   2.400  0.3268 -0.1985  1.4374
  188MOL0     H24777   3.715   2.974   2.356 -0.7570  1.0328  2.5801
  188MOL0     H24778   3.367   2.862   2.115  1.2476  0.7923  0.2302
  188MOL0     H24779   3.119   2.921   2.129 -0.2639  1.2476 -1.1895
  188MOL0     H24780   2.830   3.230   2.005  0.8312  0.8090  3.5648
  188MOL0     H24781   2.591   3.333   2.009 -0.4654 -1.7312 -0.4921
  188MOL0     H24782   2.396   3.394   2.391 -2.9921  4.4211 -1.2138
  188MOL0     H24783   2.318   3.232   2.344 -0.2160  0.0158 -2.2289
  188MOL0     H24784   2.186   3.355   2.184  2.0037 -2.2260  0.0255
  188MOL0     H24785   2.252   3.507   2.255 -0.3169  0.3826  1.1203
  188MOL0     H24786   2.178   3.448   2.469  3.9455  1.5264 -3.4643
  188MOL0     H24787   2.108   3.294   2.423 -0.6105  0.1579  2.3342
  188MOL0     H24788   2.001   3.543   2.301 -1.5133  0.3190  0.7952
  188MOL0     H24789   1.960   3.372   2.266  0.1629 -1.7178  0.9313
  188MOL0     H24790   1.920   3.514   2.530 -1.8501  0.9758 -0.1256
  188MOL0     H24791   1.868   3.361   2.500 -0.3389  0.1774  0.4760
  188MOL0     H24792   1.726   3.424   2.308  0.1547  0.6947 -1.5828
  188MOL0     H24793   1.765   3.597   2.350  2.5128 -0.7932 -0.9966
  188MOL0     H24794   1.632   3.374   2.525 -1.2413  0.6401  0.8847
  188MOL0     H24795   1.696   3.520   2.588  3.9155 -0.2465 -1.9979
  188MOL0     H24796   1.445   3.510   2.525 -2.2067 -1.9550 -2.7466
  188MOL0     H24797   1.494   3.531   2.358 -2.0187  0.7398  0.1331
  188MOL0     H24798   2.531   3.136   2.384  2.0642  1.0490  2.3436
  188MOL0     H24799   2.732   3.014   2.363 -1.7602 -0.5602  0.6402
  188MOL0     H24800   3.227   3.295   2.308 -0.3826 -0.6979  1.9172
  188MOL0     H24801   3.467   3.223   2.302 -1.1880  2.2455 -1.3990
  188MOL0     H24802   4.994   2.376   2.871  4.2742 -2.7467 -1.0567
  188MOL0     H24803   5.239   2.456   2.889 -1.3192 -2.1726  0.4192
  188MOL0     H24804   5.579   2.623   2.852 -1.5550  1.1586 -0.0560
  188MOL0     H24805   5.817   2.643   2.837  1.2899 -0.2721 -1.1806
  188MOL0     H24806   6.022   3.010   2.682 -0.9665 -1.2169  2.2516
  188MOL0     H24807   5.979   2.921   2.542  0.1964  0.3438 -0.5665
  188MOL0     H24808   6.187   2.776   2.583 -3.3047 -0.2400 -1.1904
  188MOL0     H24809   6.226   2.943   2.534  0.2355 -3.1049 -2.2828
  188MOL0     H24810   6.374   2.852   2.719  1.1775  2.2181  1.9561
  188MOL0     H24811   6.226   2.804   2.814 -0.9417  2.3263  1.6547
  188MOL0     H24812   6.379   3.042   2.838  0.9259  0.1531  1.7920
  188MOL0     H24813   6.256   3.089   2.726 -1.5563  1.3032  2.2792
  188MOL0     H24814   6.068   3.145   3.086 -0.7655  2.5023 -2.1619
  188MOL0     H24815   5.768   3.001   2.589 -5.3000  0.2236 -1.9059
  188MOL0     H24816   5.548   2.971   2.589  0.5765  0.7202  0.0589
  189MOL0     O24817   3.975  10.276   8.333  0.5979 -0.3593  0.0619
  189MOL0     C24818   4.030  10.385   8.322  0.6307 -0.8336  0.1972
  189MOL0     O24819   3.973  10.507   8.293 -0.5828  0.0723  0.3967
  189MOL0     C24820   3.837  10.499   8.272 -0.3206 -0.0174  0.7207
  189MOL0     C24821   3.782  10.419   8.164  0.1359  0.1192  0.5263
  189MOL0     C24822   3.651  10.460   8.120 -0.1369 -0.5968  1.1760
  189MOL0     C24823   3.583  10.568   8.174 -0.0812 -0.1560 -0.1823
  189MOL0     O24824   3.463  10.614   8.133  0.3620 -0.1295 -0.2197
  189MOL0     C24825   3.361  10.536   8.178  0.7059  0.1871  0.6136
  189MOL0     C24826   3.223  10.581   8.136 -1.0494  0.1735 -0.1000
  189MOL0     C24827   3.206  10.578   7.981 -0.2551 -0.2920 -0.2689
  189MOL0     C24828   3.063  10.606   7.937 -0.0160 -0.5004 -0.5683
  189MOL0     C24829   3.045  10.554   7.791 -0.6131  0.1209 -0.6115
  189MOL0     C24830   2.920  10.632   7.733  0.3768 -0.4755 -0.2003
  189MOL0     C24831   2.913  10.644   7.585 -0.2479  0.2297  0.9178
  189MOL0     C24832   2.765  10.689   7.534 -0.4186 -0.0138 -0.5075
  189MOL0     N24833   2.655  10.629   7.607 -0.2291 -0.0619  0.2815
  189MOL0     C24834   2.632  10.494   7.626 -0.6362  0.2596  0.0740
  189MOL0     C24835   2.511  10.497   7.697 -0.1110  0.5142  0.9974
  189MOL0     C24836   2.445  10.366   7.727 -0.5778  0.4002 -0.3149
  189MOL0     C24837   2.298  10.364   7.713 -0.0065 -0.6828 -1.1741
  189MOL0     C24838   2.233  10.242   7.773 -0.4339  0.5918 -0.3643
  189MOL0     C24839   2.301  10.104   7.743  0.3154  0.5280  1.0638
  189MOL0     O24840   2.294  10.072   7.597 -0.1902 -0.0102 -0.1526
  189MOL0     C24841   2.180  10.015   7.538  0.4268 -0.2982 -1.2754
  189MOL0     C24842   2.163  10.003   7.400 -0.3226  0.1057 -0.3088
  189MOL0     C24843   2.049   9.944   7.348 -0.0330 -0.3529 -0.6612
  189MOL0     C24844   1.945   9.901   7.436 -0.3412 -0.0505  0.2505
  189MOL0     C24845   1.824   9.839   7.381 -0.3365  0.7252  0.2058
  189MOL0     O24846   1.720   9.805   7.458 -0.2485  0.5743  0.1995
  189MOL0     C24847   1.624   9.720   7.411  0.5827 -0.6038  0.1686
  189MOL0     C24848   1.648   9.620   7.319  0.0255  0.6398  0.4067
  189MOL0     C24849   1.546   9.540   7.277  1.2354 -0.0547  0.1139
  189MOL0     C24850   1.414   9.561   7.331  0.6308  0.2079  0.5093
  189MOL0     O24851   1.312   9.496   7.265 -0.3690 -0.4569  0.4696
  189MOL0     C24852   1.218   9.569   7.183 -1.2718 -0.5084  0.1876
  189MOL0     C24853   1.097   9.476   7.170 -0.2691  0.3384  0.0264
  189MOL0     C24854   0.995   9.510   7.065 -0.4327  0.1421  0.0797
  189MOL0     C24855   0.902   9.386   7.023 -0.6229  0.3682 -0.4171
  189MOL0     C24856   0.851   9.419   6.878  0.5023  0.0637  0.4934
  189MOL0     C24857   0.789   9.289   6.819 -0.1203 -1.2157 -0.6318
  189MOL0     C24858   0.655   9.247   6.890  0.0031 -0.6120 -0.2651
  189MOL0     C24859   0.543   9.354   6.890  0.6377  0.4213  0.3700
  189MOL0    Cl24860   0.498   9.380   6.717  0.4744  0.3817 -0.1139
  189MOL0     C24861   1.391   9.665   7.413 -0.0269  0.2783 -1.5543
  189MOL0     C24862   1.499   9.740   7.453 -0.0948 -0.1884 -0.1719
  189MOL0     O24863   1.840   9.819   7.262 -0.2392 -0.1086  0.2223
  189MOL0     C24864   1.948   9.930   7.571 -0.6714 -0.3365  0.0535
  189MOL0     C24865   2.070   9.979   7.622 -0.0322  0.2064 -1.0395
  189MOL0     N24866   2.469  10.624   7.727 -0.0515 -1.1712  0.1148
  189MOL0     N24867   2.553  10.703   7.669 -0.1903 -0.4161 -0.7802
  189MOL0     C24868   3.638  10.631   8.279 -0.4416 -0.7927 -0.9426
  189MOL0     C24869   3.774  10.611   8.325 -0.3404 -0.7186  0.6995
  189MOL0     C24870   4.161  10.400   8.369  0.9201  0.2133  0.2494
  189MOL0     C24871   4.224  10.296   8.435 -1.0790  0.3166 -0.3880
  189MOL0     C24872   4.359  10.297   8.489 -0.3364 -0.3121 -0.5225
  189MOL0     C24873   4.433  10.412   8.478 -0.0021  0.1327  0.3046
  189MOL0     O24874   4.568  10.401   8.517  0.5383  0.8935  0.6647
  189MOL0     C24875   4.653  10.515   8.495  0.5120  0.6755  0.8376
  189MOL0     C24876   4.701  10.534   8.347  0.5225  0.3943 -0.1179
  189MOL0     C24877   4.790  10.657   8.330 -0.7246 -0.2643 -0.1556
  189MOL0     C24878   4.778  10.722   8.200  0.9642 -1.2232 -0.3975
  189MOL0     C24879   4.811  10.624   8.088 -1.1384 -0.0556  0.4186
  189MOL0     C24880   4.828  10.534   8.011 -0.4867  0.0838 -0.5759
  189MOL0     C24881   4.367  10.525   8.420  0.0255  0.4875 -0.7617
  189MOL0     C24882   4.237  10.523   8.368 -0.2806 -0.1206 -0.0890
  189MOL0     H24883   3.851  10.349   8.120  2.4341  1.8102  1.2802
  189MOL0     H24884   3.600  10.407   8.040  2.5357 -1.7381  0.1003
  189MOL0     H24885   3.376  10.527   8.286 -0.0239  1.1383  0.8147
  189MOL0     H24886   3.381  10.433   8.149 -0.7236  0.7632 -3.0062
  189MOL0     H24887   3.186  10.676   8.176 -1.0372  0.5538 -0.9686
  189MOL0     H24888   3.157  10.509   8.184  1.4505 -0.3016  2.9032
  189MOL0     H24889   3.243  10.483   7.941 -0.7527 -1.1467  1.2062
  189MOL0     H24890   3.276  10.652   7.942  0.2644 -1.2430 -1.1841
  189MOL0     H24891   2.990  10.559   8.004 -1.2529  0.9462 -0.8662
  189MOL0     H24892   3.053  10.715   7.934 -1.7898 -0.4706  2.2751
  189MOL0     H24893   3.036  10.445   7.782  3.4699 -0.3347 -1.0713
  189MOL0     H24894   3.132  10.572   7.727 -0.6259  2.0239 -0.1596
  189MOL0     H24895   2.929  10.732   7.776  1.6342 -1.2370  1.3875
  189MOL0     H24896   2.832  10.588   7.781  0.1315 -0.4731 -0.6368
  189MOL0     H24897   2.970  10.730   7.550  1.2197 -1.3702 -0.8447
  189MOL0     H24898   2.945  10.548   7.544 -1.1217  0.8772 -1.4683
  189MOL0     H24899   2.761  10.668   7.426  2.4342 -1.0481 -0.5051
  189MOL0     H24900   2.753  10.797   7.547  1.9071  0.3494 -0.8030
  189MOL0     H24901   2.699  10.412   7.601 -1.1804 -1.6541  4.0132
  189MOL0     H24902   2.464  10.350   7.833  3.8217  2.6123 -0.5458
  189MOL0     H24903   2.491  10.287   7.667 -1.8484  0.1140 -0.9550
  189MOL0     H24904   2.270  10.383   7.609 -2.3444  4.0635  0.0401
  189MOL0     H24905   2.247  10.449   7.759 -0.4492 -0.9972 -1.0753
  189MOL0     H24906   2.239  10.251   7.882  0.3118  1.6987 -0.4789
  189MOL0     H24907   2.127  10.238   7.746 -1.0436  2.8089  1.3594
  189MOL0     H24908   2.265  10.021   7.804  0.8629 -0.5031  0.0273
  189MOL0     H24909   2.403  10.109   7.781  0.3540  0.6646  0.9470
  189MOL0     H24910   2.250  10.036   7.344  1.6376  1.1390  3.0499
  189MOL0     H24911   2.034   9.931   7.241  1.3054 -1.8153 -0.7140
  189MOL0     H24912   1.744   9.597   7.274  0.2559 -1.3754  1.8013
  189MOL0     H24913   1.553   9.456   7.208 -0.6304 -2.1915  2.3446
  189MOL0     H24914   1.249   9.600   7.083  1.5464  1.6499  1.6298
  189MOL0     H24915   1.182   9.662   7.227  0.3107  0.6280 -0.8266
  189MOL0     H24916   1.053   9.473   7.270 -0.8413  0.0809 -0.2312
  189MOL0     H24917   1.132   9.378   7.136  1.4909  1.7771 -2.6333
  189MOL0     H24918   1.053   9.536   6.976 -2.7528 -1.6955 -2.1343
  189MOL0     H24919   0.933   9.590   7.104 -2.7357 -0.3659 -2.2918
  189MOL0     H24920   0.961   9.294   7.021 -0.9951  0.1318 -0.5998
  189MOL0     H24921   0.820   9.386   7.096  0.3631 -0.5592  0.7279
  189MOL0     H24922   0.935   9.453   6.817  2.0619 -1.1477  1.8687
  189MOL0     H24923   0.780   9.502   6.870 -0.4839 -0.6031  1.8817
  189MOL0     H24924   0.867   9.212   6.815  2.0451  0.9165 -1.1792
  189MOL0     H24925   0.767   9.317   6.716  0.8729  2.7187  0.0896
  189MOL0     H24926   0.621   9.150   6.852  1.3687 -1.1272 -0.2301
  189MOL0     H24927   0.663   9.222   6.996 -1.9515 -1.2410 -0.2177
  189MOL0     H24928   0.567   9.445   6.944  2.4737 -0.8306  1.7747
  189MOL0     H24929   0.448   9.315   6.928  0.3472  1.3964  0.6761
  189MOL0     H24930   1.297   9.682   7.465  3.0575  0.3169  4.8612
  189MOL0     H24931   1.479   9.812   7.533  3.1275 -0.2845  0.8684
  189MOL0     H24932   1.859   9.912   7.631 -0.7645 -0.4335 -0.1112
  189MOL0     H24933   2.072   9.996   7.729  2.4189  0.7907 -1.1348
  189MOL0     H24934   3.580  10.717   8.310  2.1362  0.0759  2.0036
  189MOL0     H24935   3.822  10.659   8.409  2.1710  3.5165 -2.6951
  189MOL0     H24936   4.172  10.201   8.443 -1.3247  0.0188 -3.9430
  189MOL0     H24937   4.402  10.203   8.525 -0.8127 -0.6517 -0.8272
  189MOL0     H24938   4.749  10.501   8.546  1.7001  2.7966 -0.6431
  189MOL0     H24939   4.596  10.598   8.536 -0.1096  0.6270  0.1006
  189MOL0     H24940   4.747  10.449   8.297 -1.7166 -1.4610  0.7795
  189MOL0     H24941   4.612  10.559   8.289  3.7534  4.2698 -4.0816
  189MOL0     H24942   4.895  10.634   8.349 -0.3514  2.8264  2.5016
  189MOL0     H24943   4.769  10.726   8.412 -1.9734  1.3027 -1.7206
  189MOL0     H24944   4.683  10.773   8.182  2.0002  1.8503  1.9709
  189MOL0     H24945   4.845  10.808   8.190 -2.1008  1.2410 -1.4716
  189MOL0     H24946   4.844  10.454   7.941  1.7115  0.0144 -0.0674
  189MOL0     H24947   4.413  10.623   8.427 -1.2163  1.0547 -0.1801
  189MOL0     H24948   4.204  10.602   8.302  1.3772  0.2849 -0.4653
  190MOL0     O24949   4.075   8.462   7.690  0.2074  0.9030 -0.2363
  190MOL0     C24950   4.153   8.359   7.694  0.2757 -0.6406  0.2920
  190MOL0     O24951   4.117   8.231   7.661 -0.6916 -0.9540 -0.0785
  190MOL0     C24952   3.985   8.200   7.662 -0.5021  0.0873 -0.7990
  190MOL0     C24953   3.930   8.128   7.769 -0.4704  0.6717  0.1815
  190MOL0     C24954   3.798   8.106   7.781  0.1693  0.3379 -0.1669
  190MOL0     C24955   3.709   8.144   7.680  0.2346 -0.4003 -0.4927
  190MOL0     O24956   3.580   8.100   7.690  0.8395 -0.0680 -0.8516
  190MOL0     C24957   3.487   8.144   7.594 -0.1957  0.5744  0.0244
  190MOL0     C24958   3.347   8.104   7.646 -0.8662  0.7489  0.2887
  190MOL0     C24959   3.307   7.957   7.622 -0.7493  0.6746 -0.0337
  190MOL0     C24960   3.160   7.932   7.679 -0.0999  0.2936  0.1873
  190MOL0     C24961   3.099   7.814   7.614  0.5611 -0.6303  0.2024
  190MOL0     C24962   3.115   7.686   7.698 -0.6521  0.0106  0.3532
  190MOL0     C24963   3.016   7.575   7.674  0.8625  0.0895  0.0872
  190MOL0     C24964   2.863   7.616   7.689 -0.0091  0.2924  0.5432
  190MOL0     N24965   2.779   7.498   7.685 -0.5018 -0.3065 -1.1542
  190MOL0     C24966   2.701   7.445   7.582  0.8681 -0.6521  0.4320
  190MOL0     C24967   2.636   7.339   7.636 -0.0978  0.1322  0.2312
  190MOL0     C24968   2.546   7.243   7.565 -0.3250  1.2821  0.0850
  190MOL0     C24969   2.403   7.288   7.572  0.2973  0.4059 -0.7531
  190MOL0     C24970   2.315   7.182   7.521  0.2185 -0.2033 -0.8604
  190MOL0     C24971   2.175   7.239   7.486  0.6853 -0.1269 -0.2044
  190MOL0     O24972   2.085   7.130   7.454  0.4777  0.3985  0.9876
  190MOL0     C24973   1.951   7.160   7.433 -0.9569  0.1743 -0.9204
  190MOL0     C24974   1.876   7.060   7.367  0.7100  0.1439  0.5062
  190MOL0     C24975   1.732   7.077   7.341 -1.2227  0.3140  0.5707
  190MOL0     C24976   1.666   7.185   7.398 -0.7612  0.0841  0.4277
  190MOL0     C24977   1.527   7.201   7.381 -1.0738 -0.3461  0.5312
  190MOL0     O24978   1.467   7.304   7.447 -0.6860  0.0549 -0.6463
  190MOL0     C24979   1.335   7.317   7.449  0.5499  0.1415  0.2613
  190MOL0     C24980   1.250   7.235   7.517 -0.1261  0.9777  0.2488
  190MOL0     C24981   1.108   7.255   7.495 -1.5061  0.0678 -0.6774
  190MOL0     C24982   1.056   7.349   7.414  0.1393 -0.7956  0.1021
  190MOL0     O24983   0.930   7.374   7.390  0.3165  0.0520 -0.3445
  190MOL0     C24984   0.847   7.256   7.387  0.6608  0.1092 -0.0525
  190MOL0     C24985   0.725   7.292   7.311  0.8838  0.1421  0.0638
  190MOL0     C24986   0.617   7.330   7.408 -0.0159  0.0037 -0.2070
  190MOL0     C24987   0.558   7.215   7.495 -0.1557 -0.4239  0.0520
  190MOL0     C24988   0.451   7.142   7.412  0.1711  0.4521  1.2975
  190MOL0     C24989   0.425   7.002   7.476 -0.2946 -0.2732 -0.5715
  190MOL0     C24990   0.318   6.919   7.409  0.1677 -0.0810 -0.5680
  190MOL0     C24991   0.223   6.853   7.510 -0.2771 -0.3649 -0.5709
  190MOL0    Cl24992   0.089   6.774   7.424  0.7602  0.0010 -0.5614
  190MOL0     C24993   1.148   7.432   7.345  0.3406  0.3493  0.4485
  190MOL0     C24994   1.284   7.420   7.375  0.5605  0.5457  0.8655
  190MOL0     O24995   1.466   7.119   7.318  0.1545 -0.2782  0.3032
  190MOL0     C24996   1.746   7.287   7.453 -0.6492 -0.3753  0.7329
  190MOL0     C24997   1.885   7.271   7.470 -0.5935  0.4929  0.7689
  190MOL0     N24998   2.667   7.334   7.771 -0.2871  0.3651 -0.0052
  190MOL0     N24999   2.749   7.433   7.799 -0.1205  0.2915 -0.0195
  190MOL0     C25000   3.768   8.215   7.570 -0.0639  0.0747 -0.2929
  190MOL0     C25001   3.898   8.248   7.567 -0.0960  0.3392 -0.1922
  190MOL0     C25002   4.289   8.387   7.746 -0.5488 -0.2857  0.9533
  190MOL0     C25003   4.351   8.513   7.722  0.3409 -0.8465 -0.0359
  190MOL0     C25004   4.490   8.525   7.752 -0.2359 -0.3610  1.1460
  190MOL0     C25005   4.561   8.423   7.814 -0.3847  0.4175 -0.2288
  190MOL0     O25006   4.697   8.423   7.834 -0.5550  0.0783  0.6527
  190MOL0     C25007   4.775   8.401   7.716  0.2680  0.2996 -0.3517
  190MOL0     C25008   4.838   8.264   7.723 -1.2643  0.9292 -0.1805
  190MOL0     C25009   4.959   8.271   7.826 -0.0650  0.5044  0.0821
  190MOL0     C25010   5.011   8.132   7.844  0.1339  0.2070 -0.9116
  190MOL0     C25011   5.158   8.125   7.845 -0.0648  0.0673 -0.0361
  190MOL0     C25012   5.278   8.107   7.842  0.1798  0.3619 -0.0084
  190MOL0     C25013   4.495   8.320   7.862 -0.3335  0.4734  1.4016
  190MOL0     C25014   4.361   8.286   7.817  0.1751 -0.7028  0.1028
  190MOL0     H25015   3.994   8.093   7.849  1.7873  2.7029 -0.6307
  190MOL0     H25016   3.752   8.049   7.861 -1.4669 -2.1751 -2.6895
  190MOL0     H25017   3.512   8.105   7.495  1.1302  0.3854  0.4151
  190MOL0     H25018   3.498   8.252   7.584  1.1944  0.6633  1.9085
  190MOL0     H25019   3.279   8.172   7.594  0.3524  3.8646  2.4658
  190MOL0     H25020   3.336   8.128   7.753 -3.3815 -3.1057  1.0934
  190MOL0     H25021   3.382   7.889   7.664  0.6850  2.2735  0.1072
  190MOL0     H25022   3.301   7.938   7.514 -2.8611  2.0793 -0.2207
  190MOL0     H25023   3.170   7.924   7.787  0.9424  2.1281  0.2693
  190MOL0     H25024   3.096   8.019   7.663  0.1219  0.3672 -0.3621
  190MOL0     H25025   3.132   7.794   7.511 -3.2330 -1.1007 -1.0995
  190MOL0     H25026   2.992   7.837   7.608  1.0043  2.2516  1.6213
  190MOL0     H25027   3.111   7.717   7.803 -2.9015  1.6248 -0.1394
  190MOL0     H25028   3.210   7.636   7.679 -1.1389 -0.1726 -1.8623
  190MOL0     H25029   3.039   7.524   7.580  3.6031  1.2954  0.0144
  190MOL0     H25030   3.032   7.506   7.757  1.3076 -2.9881 -2.3644
  190MOL0     H25031   2.831   7.705   7.634  3.5924  1.3709 -0.1260
  190MOL0     H25032   2.867   7.647   7.793  7.4909 -2.0329  1.6054
  190MOL0     H25033   2.693   7.503   7.490  2.3316 -0.9856  0.0544
  190MOL0     H25034   2.552   7.147   7.617 -1.8815 -0.6450 -2.9962
  190MOL0     H25035   2.579   7.220   7.464  0.9532 -0.6528  0.8816
  190MOL0     H25036   2.396   7.379   7.512  0.2328  1.7007  1.1176
  190MOL0     H25037   2.362   7.315   7.670 -1.8795 -2.8392 -0.6305
  190MOL0     H25038   2.358   7.149   7.426  0.9371  1.6900 -1.2315
  190MOL0     H25039   2.302   7.098   7.590 -0.8840  1.5746  1.1889
  190MOL0     H25040   2.179   7.309   7.402 -2.1284  0.4886  0.0972
  190MOL0     H25041   2.135   7.293   7.571 -0.9176  2.1830 -2.2929
  190MOL0     H25042   1.929   6.989   7.303  1.8400 -1.1477  2.7780
  190MOL0     H25043   1.676   6.995   7.296 -1.9712  1.9468 -1.6483
  190MOL0     H25044   1.285   7.153   7.579 -0.8425  1.6955  1.6636
  190MOL0     H25045   1.039   7.189   7.547 -1.4683  1.4395  1.1972
  190MOL0     H25046   0.824   7.229   7.491 -1.0470  0.0472 -0.4074
  190MOL0     H25047   0.895   7.175   7.332 -1.4141 -1.6096  0.4986
  190MOL0     H25048   0.699   7.206   7.249  1.2972 -1.9893  2.6747
  190MOL0     H25049   0.740   7.383   7.251 -2.0581 -1.3117 -3.1532
  190MOL0     H25050   0.534   7.380   7.358 -1.8788  1.4750  3.9038
  190MOL0     H25051   0.667   7.394   7.481  3.2488 -1.0962 -1.3102
  190MOL0     H25052   0.636   7.153   7.540 -0.0424  1.2716  2.4243
  190MOL0     H25053   0.511   7.257   7.584 -0.9352 -2.8770  0.8573
  190MOL0     H25054   0.472   7.130   7.305 -2.8709  1.4969  0.4746
  190MOL0     H25055   0.356   7.196   7.415 -0.0259  0.7264 -3.2906
  190MOL0     H25056   0.396   7.017   7.580 -0.5746 -1.6092 -0.4399
  190MOL0     H25057   0.520   6.949   7.472 -0.4733 -0.5609 -1.1032
  190MOL0     H25058   0.252   6.983   7.351 -4.7220 -2.1703  2.0845
  190MOL0     H25059   0.362   6.843   7.344 -1.4849 -2.4304  0.8806
  190MOL0     H25060   0.182   6.923   7.583  1.6596 -1.1460  1.3876
  190MOL0     H25061   0.275   6.771   7.561 -2.7027 -2.3658 -1.1074
  190MOL0     H25062   1.105   7.496   7.269 -2.8683 -2.0999 -0.0542
  190MOL0     H25063   1.360   7.476   7.320  1.2164 -0.7368  0.4201
  190MOL0     H25064   1.698   7.382   7.478  2.4074  1.8955 -1.3706
  190MOL0     H25065   1.940   7.348   7.522  1.0728 -0.3374  0.3299
  190MOL0     H25066   3.695   8.247   7.496 -4.2844 -2.5014  2.2921
  190MOL0     H25067   3.942   8.308   7.487  1.0126  0.4548  0.4843
  190MOL0     H25068   4.298   8.599   7.681  0.8913 -0.3361  0.2988
  190MOL0     H25069   4.541   8.614   7.718  2.2046 -2.1784 -0.2309
  190MOL0     H25070   4.850   8.481   7.719 -1.7379  2.2783  1.9058
  190MOL0     H25071   4.712   8.417   7.629 -0.6516  1.3426  0.4793
  190MOL0     H25072   4.758   8.192   7.744  2.6808 -3.8825  0.1904
  190MOL0     H25073   4.879   8.243   7.624  1.0604 -0.8899  1.0763
  190MOL0     H25074   4.939   8.324   7.919 -1.2491 -2.0755  1.4045
  190MOL0     H25075   5.053   8.315   7.792  0.8668 -2.1187 -0.9853
  190MOL0     H25076   4.982   8.096   7.943  1.9552  1.7266  0.2330
  190MOL0     H25077   4.977   8.064   7.765  0.9835  0.6401 -1.6657
  190MOL0     H25078   5.381   8.086   7.821 -0.7528 -1.8954 -3.0742
  190MOL0     H25079   4.550   8.232   7.894 -1.0350  0.0976  1.6023
  190MOL0     H25080   4.326   8.187   7.847  4.2308 -2.5221 -0.5251
  191MOL0     O25081  10.336  10.718   0.846  0.0824 -0.3314  0.9589
  191MOL0     C25082  10.428  10.795   0.870 -0.8998  0.8363 -1.0382
  191MOL0     O25083  10.417  10.906   0.954 -0.3267 -0.1991  0.1712
  191MOL0     C25084  10.298  10.956   1.002  0.1994 -0.4023  0.6987
  191MOL0     C25085  10.308  11.035   1.121 -0.0827 -0.0975  0.6888
  191MOL0     C25086  10.201  11.068   1.197  0.2594 -0.5192  0.5581
  191MOL0     C25087  10.068  11.047   1.147 -0.0351 -0.3242  0.4035
  191MOL0     O25088   9.958  11.106   1.204 -0.5392  0.4674 -0.0240
  191MOL0     C25089   9.974  11.219   1.291 -0.0274 -0.6069 -0.3734
  191MOL0     C25090   9.859  11.308   1.291 -0.2184 -0.4784 -0.6150
  191MOL0     C25091   9.740  11.249   1.370  0.2029  0.3070  0.8545
  191MOL0     C25092   9.614  11.301   1.308  0.0074 -0.3966 -0.2118
  191MOL0     C25093   9.515  11.263   1.414 -0.2485  0.3023  0.9255
  191MOL0     C25094   9.374  11.301   1.371  0.4031 -0.5920 -0.1740
  191MOL0     C25095   9.275  11.225   1.469  0.4132 -0.3810 -0.6590
  191MOL0     C25096   9.141  11.255   1.405  0.3065  0.7930 -0.8462
  191MOL0     N25097   9.095  11.380   1.458  0.2316 -0.9212  0.3964
  191MOL0     C25098   9.033  11.399   1.582  0.5615  0.2492  0.3829
  191MOL0     C25099   8.955  11.503   1.553 -0.0245 -0.0482 -0.1567
  191MOL0     C25100   8.861  11.565   1.648 -0.1368 -0.1033  0.9432
  191MOL0     C25101   8.863  11.710   1.646 -0.5527 -0.5619 -0.0324
  191MOL0     C25102   8.742  11.766   1.564 -0.3753  0.6588 -0.1810
  191MOL0     C25103   8.602  11.742   1.628  0.5139 -0.8729  0.3658
  191MOL0     O25104   8.512  11.834   1.560  0.2935 -0.2352  0.5932
  191MOL0     C25105   8.377  11.801   1.553 -0.0996  1.0854 -0.9495
  191MOL0     C25106   8.310  11.861   1.447 -0.4652 -0.8770 -0.2117
  191MOL0     C25107   8.174  11.829   1.416  0.4268  0.6289 -0.3739
  191MOL0     C25108   8.103  11.735   1.499 -0.3351  0.2796 -0.9888
  191MOL0     C25109   7.953  11.695   1.487 -0.3372  0.4575 -1.0255
  191MOL0     O25110   7.883  11.752   1.390  0.7999 -0.1195  0.6137
  191MOL0     C25111   7.748  11.753   1.396  0.2327  0.3162  0.1308
  191MOL0     C25112   7.679  11.753   1.521  0.1594 -0.2126 -0.1103
  191MOL0     C25113   7.547  11.781   1.518  0.6308 -0.0267 -0.0919
  191MOL0     C25114   7.473  11.813   1.403 -0.3689  0.1980  0.0409
  191MOL0     O25115   7.341  11.836   1.421 -0.0315 -0.1556 -0.2029
  191MOL0     C25116   7.254  11.834   1.302  0.5173 -0.3021  0.2469
  191MOL0     C25117   7.111  11.870   1.342  0.1577  0.7460 -0.0865
  191MOL0     C25118   7.001  11.887   1.237  0.3995 -0.0529 -0.4156
  191MOL0     C25119   7.018  12.012   1.156  0.1420  0.1859 -0.6229
  191MOL0     C25120   6.971  12.129   1.247  1.1818 -0.4561  0.4920
  191MOL0     C25121   7.064  12.242   1.243  0.1103 -0.4536  0.6702
  191MOL0     C25122   7.107  12.299   1.106 -0.1340  0.0123 -0.3857
  191MOL0     C25123   6.984  12.305   1.019  0.2037 -0.1442 -0.5105
  191MOL0    Cl25124   7.023  12.403   0.882  0.0189  0.0633  0.2007
  191MOL0     C25125   7.537  11.805   1.276  0.1322 -0.1324 -0.6351
  191MOL0     C25126   7.675  11.782   1.277  0.3644 -0.3067 -0.3212
  191MOL0     O25127   7.916  11.599   1.555 -0.0502  0.4554 -0.1704
  191MOL0     C25128   8.175  11.672   1.609 -0.4901 -0.4574  0.2695
  191MOL0     C25129   8.309  11.711   1.637  0.2461 -1.4959 -0.0902
  191MOL0     N25130   8.972  11.544   1.425 -0.4830  0.5647 -0.0231
  191MOL0     N25131   9.055  11.470   1.362 -0.4632  0.4352 -0.5320
  191MOL0     C25132  10.058  10.964   1.028  0.2748  0.3279 -0.3194
  191MOL0     C25133  10.173  10.923   0.957  0.9256 -1.1902 -0.0948
  191MOL0     C25134  10.562  10.763   0.814 -0.6188 -0.5733 -0.1672
  191MOL0     C25135  10.675  10.815   0.876 -0.5551 -0.2801  0.6024
  191MOL0     C25136  10.805  10.775   0.839  1.1667  0.2840 -0.1584
  191MOL0     C25137  10.819  10.677   0.743 -0.4554  0.0902 -0.9223
  191MOL0     O25138  10.945  10.657   0.704 -0.3789  0.0756  0.6728
  191MOL0     C25139  11.019  10.557   0.775  0.0986  0.6907 -0.1537
  191MOL0     C25140  11.161  10.526   0.713  0.4078 -0.6728  0.3628
  191MOL0     C25141  11.282  10.590   0.783 -0.0175 -0.3603 -0.1072
  191MOL0     C25142  11.270  10.738   0.802  0.2114  0.2425 -1.0990
  191MOL0     C25143  11.204  10.770   0.932 -0.4298 -0.7542  0.5605
  191MOL0     C25144  11.160  10.810   1.041  0.6438 -0.6350 -0.2421
  191MOL0     C25145  10.704  10.617   0.689  0.5925 -0.2511  0.7250
  191MOL0     C25146  10.579  10.658   0.724  1.4293  0.5146 -0.0243
  191MOL0     H25147  10.407  11.062   1.158 -0.0507  2.9583 -1.2802
  191MOL0     H25148  10.224  11.109   1.294 -1.1888 -2.6182  1.8650
  191MOL0     H25149  10.063  11.278   1.264 -0.4785  1.0007  1.4497
  191MOL0     H25150  10.002  11.197   1.394  0.3560 -0.2690 -0.3986
  191MOL0     H25151   9.829  11.334   1.189 -0.8552  2.6134  0.2446
  191MOL0     H25152   9.901  11.400   1.333  1.0632 -1.2035 -0.2515
  191MOL0     H25153   9.756  11.265   1.477  1.9513  0.4106  0.5953
  191MOL0     H25154   9.725  11.141   1.361 -1.1406  0.4965  0.5021
  191MOL0     H25155   9.616  11.409   1.291 -4.4928 -0.6615 -5.5057
  191MOL0     H25156   9.596  11.250   1.213  2.2809  0.0444 -0.9423
  191MOL0     H25157   9.535  11.313   1.510 -2.8479 -2.6796  3.2168
  191MOL0     H25158   9.511  11.156   1.434 -0.2640 -0.0314 -0.7827
  191MOL0     H25159   9.365  11.266   1.268 -1.3041 -0.2336 -0.1827
  191MOL0     H25160   9.347  11.407   1.380  0.9803 -0.6038  2.9662
  191MOL0     H25161   9.291  11.117   1.474 -1.5970 -0.8525 -2.7691
  191MOL0     H25162   9.286  11.268   1.569  0.5813  0.1016 -0.8814
  191MOL0     H25163   9.068  11.175   1.418  0.6470 -0.0344 -3.3975
  191MOL0     H25164   9.157  11.261   1.297 -0.5815  0.4602 -1.0073
  191MOL0     H25165   9.040  11.341   1.674 -0.0733 -0.1291  0.1991
  191MOL0     H25166   8.895  11.519   1.741  1.7474 -1.2869 -0.2740
  191MOL0     H25167   8.762  11.530   1.616 -0.5941  2.1759 -0.4021
  191MOL0     H25168   8.954  11.740   1.594 -0.1866 -0.8912  0.4165
  191MOL0     H25169   8.867  11.761   1.742  3.7667  0.0226 -0.3329
  191MOL0     H25170   8.766  11.873   1.558  0.4919  0.5621  1.0338
  191MOL0     H25171   8.739  11.731   1.460  2.5193  3.7580 -1.5178
  191MOL0     H25172   8.595  11.747   1.737 -0.2769 -3.2433  0.4941
  191MOL0     H25173   8.574  11.638   1.607  1.6421 -1.2244  0.5088
  191MOL0     H25174   8.364  11.936   1.390 -2.1023  0.4256 -0.1268
  191MOL0     H25175   8.121  11.887   1.341  0.2767 -0.4525 -1.1336
  191MOL0     H25176   7.726  11.734   1.617  1.6688 -0.6106 -0.9009
  191MOL0     H25177   7.491  11.770   1.610 -2.8645  0.6882 -1.9573
  191MOL0     H25178   7.255  11.736   1.254 -0.4396 -1.2568  2.0739
  191MOL0     H25179   7.276  11.902   1.219 -1.8536 -2.5187 -2.3566
  191MOL0     H25180   7.122  11.955   1.409  1.0782  0.0780  0.6232
  191MOL0     H25181   7.078  11.787   1.406  0.8947  1.6830  1.5742
  191MOL0     H25182   6.904  11.891   1.287 -0.1314  1.1569 -1.4827
  191MOL0     H25183   6.990  11.804   1.167 -1.9165  1.5798 -2.1768
  191MOL0     H25184   7.124  12.009   1.131 -0.5600 -1.2469 -3.8921
  191MOL0     H25185   6.971  12.016   1.057  1.0363  2.7654 -1.0387
  191MOL0     H25186   6.950  12.102   1.351 -0.3596  0.6995  0.5199
  191MOL0     H25187   6.868  12.154   1.221  0.7109 -1.8602  0.9308
  191MOL0     H25188   7.157  12.209   1.290  1.0560 -2.2519 -2.1737
  191MOL0     H25189   7.022  12.326   1.299  3.7423  2.9119 -1.1581
  191MOL0     H25190   7.154  12.397   1.120  3.7404 -1.7950  0.4545
  191MOL0     H25191   7.188  12.236   1.069  0.5986 -0.1312  1.3745
  191MOL0     H25192   6.895  12.335   1.074 -0.2141 -2.7045  0.3462
  191MOL0     H25193   6.959  12.202   0.991  0.5819 -1.1714  2.5734
  191MOL0     H25194   7.472  11.837   1.195 -2.4199  1.1735  1.7725
  191MOL0     H25195   7.728  11.807   1.186 -1.4658  1.4279 -0.9861
  191MOL0     H25196   8.114  11.602   1.665 -2.5813  1.2570  0.2657
  191MOL0     H25197   8.352  11.663   1.724  2.0596 -0.4834 -0.3636
  191MOL0     H25198   9.957  10.944   0.993  0.0804 -0.3269  0.5924
  191MOL0     H25199  10.158  10.874   0.861  1.3664 -0.8717 -0.3288
  191MOL0     H25200  10.664  10.888   0.956 -0.2046 -3.1020  3.4425
  191MOL0     H25201  10.892  10.830   0.873  0.5047  0.3659  1.4875
  191MOL0     H25202  10.961  10.464   0.777 -1.4593  1.5871  3.1751
  191MOL0     H25203  11.030  10.581   0.881 -2.9803 -1.8524  0.9366
  191MOL0     H25204  11.174  10.417   0.719 -3.1948 -1.2708 -0.0398
  191MOL0     H25205  11.150  10.557   0.609 -2.8815  0.2903  0.8736
  191MOL0     H25206  11.372  10.556   0.731  0.0179 -0.3946 -0.0266
  191MOL0     H25207  11.298  10.530   0.873  2.7890 -2.5224 -1.8898
  191MOL0     H25208  11.375  10.768   0.803 -0.0423  1.2781 -2.1758
  191MOL0     H25209  11.219  10.788   0.720 -1.5893  2.2101  1.0888
  191MOL0     H25210  11.113  10.832   1.135 -1.2507 -1.0167 -1.0450
  191MOL0     H25211  10.717  10.536   0.617 -3.4745 -0.7036  0.2587
  191MOL0     H25212  10.503  10.605   0.667  1.9372 -0.7239  0.4079
  192MOL0     O25213  10.163   1.706   3.394 -0.3844  0.0364 -0.6199
  192MOL0     C25214  10.148   1.620   3.310 -0.0151 -0.2092 -0.1896
  192MOL0     O25215  10.231   1.593   3.207 -0.5695  0.1146 -0.2993
  192MOL0     C25216  10.334   1.680   3.169  0.7019 -0.1015 -0.5705
  192MOL0     C25217  10.467   1.634   3.163 -0.4231  0.4421 -0.3903
  192MOL0     C25218  10.565   1.717   3.103 -0.8370 -0.3718  0.2306
  192MOL0     C25219  10.540   1.856   3.062  0.1413 -0.5086 -1.2035
  192MOL0     O25220  10.635   1.943   3.014 -0.2385 -0.6083  0.1923
  192MOL0     C25221  10.758   1.895   2.979 -0.6906  0.3174 -0.3942
  192MOL0     C25222  10.850   2.000   2.923  0.2781  0.9316 -0.8843
  192MOL0     C25223  10.922   2.106   3.014  0.1278  0.9102 -0.1909
  192MOL0     C25224  11.036   2.166   2.945  0.6156  0.3521  0.3346
  192MOL0     C25225  11.101   2.274   3.020 -1.1645 -0.5273  0.0769
  192MOL0     C25226  11.196   2.224   3.130 -0.5616 -0.7027 -0.4599
  192MOL0     C25227  11.269   2.342   3.178  0.4978 -0.7161  0.1931
  192MOL0     C25228  11.342   2.316   3.314 -0.8135 -0.2164 -0.5141
  192MOL0     N25229  11.253   2.265   3.417 -0.1899  0.2645  0.6312
  192MOL0     C25230  11.125   2.318   3.450 -0.3746  0.0968  0.5582
  192MOL0     C25231  11.076   2.228   3.535 -0.1649 -0.2026  0.1422
  192MOL0     C25232  10.942   2.239   3.607 -0.8634 -0.1307  0.4529
  192MOL0     C25233  10.825   2.273   3.503 -0.6685  0.2820 -0.3700
  192MOL0     C25234  10.804   2.182   3.374 -0.4375  0.0753  0.2547
  192MOL0     C25235  10.664   2.202   3.322  0.3870 -0.8286 -0.4387
  192MOL0     O25236  10.631   2.341   3.311  0.1578 -0.4272 -0.8971
  192MOL0     C25237  10.499   2.367   3.282  0.6812 -0.6248  0.0495
  192MOL0     C25238  10.402   2.276   3.229  1.0043 -0.9838  1.3147
  192MOL0     C25239  10.274   2.317   3.197 -0.5670  0.2305  0.4325
  192MOL0     C25240  10.232   2.444   3.219 -0.1716 -0.9767  0.1364
  192MOL0     C25241  10.098   2.495   3.192 -0.7413 -0.2107 -0.1012
  192MOL0     O25242  10.075   2.632   3.167  0.4068  0.9985 -0.4896
  192MOL0     C25243   9.950   2.684   3.150 -0.0067 -0.6723  0.4374
  192MOL0     C25244   9.852   2.613   3.069  0.2800 -0.7195 -0.2166
  192MOL0     C25245   9.724   2.677   3.057 -0.7991 -0.9519  0.5041
  192MOL0     C25246   9.690   2.807   3.113  0.0895 -0.2213 -0.5918
  192MOL0     O25247   9.562   2.868   3.101  0.2280 -0.6061 -0.2107
  192MOL0     C25248   9.507   2.940   3.219  0.5934  1.0127 -0.3766
  192MOL0     C25249   9.360   2.902   3.239  0.3757  0.5613 -0.7613
  192MOL0     C25250   9.339   2.751   3.267 -0.1112  0.1661  0.0730
  192MOL0     C25251   9.187   2.722   3.282 -0.7830  0.3560 -0.3382
  192MOL0     C25252   9.118   2.728   3.141  0.2549  0.3499 -0.9433
  192MOL0     C25253   8.984   2.655   3.135 -0.2597 -0.4564 -0.0803
  192MOL0     C25254   8.883   2.709   3.241 -0.8122  0.1683  0.0429
  192MOL0     C25255   8.735   2.675   3.223 -0.3666 -0.6560 -0.4973
  192MOL0    Cl25256   8.635   2.750   3.354  0.3722  0.0793  0.3449
  192MOL0     C25257   9.806   2.881   3.168  0.1052 -0.2943 -0.1625
  192MOL0     C25258   9.929   2.814   3.195  0.2982  0.8226 -1.4194
  192MOL0     O25259  10.014   2.406   3.195 -0.6842  0.3083  0.5109
  192MOL0     C25260  10.332   2.532   3.275  0.4442 -1.3358 -0.2432
  192MOL0     C25261  10.461   2.496   3.312 -0.1407 -1.0736 -0.4989
  192MOL0     N25262  11.167   2.126   3.551  0.3910 -0.1544 -0.1525
  192MOL0     N25263  11.273   2.151   3.477  0.4818  0.7804  0.8198
  192MOL0     C25264  10.401   1.904   3.071 -0.6138 -0.1110  0.6981
  192MOL0     C25265  10.306   1.809   3.121  0.7746 -0.2754 -0.1055
  192MOL0     C25266  10.022   1.538   3.327  0.8992  0.0901 -0.1716
  192MOL0     C25267   9.968   1.465   3.210  0.5690  0.3653 -1.1545
  192MOL0     C25268   9.842   1.393   3.225  0.7104 -0.1534  0.2675
  192MOL0     C25269   9.765   1.393   3.340 -0.1335  0.1158 -0.2372
  192MOL0     O25270   9.637   1.333   3.356  0.3309 -0.1603  0.3231
  192MOL0     C25271   9.568   1.289   3.232 -0.4575  0.1806  0.0969
  192MOL0     C25272   9.431   1.210   3.253  0.0924 -0.8034  1.0827
  192MOL0     C25273   9.343   1.302   3.324  0.3746 -0.4009  0.0292
  192MOL0     C25274   9.213   1.239   3.375 -0.2526  0.3616  0.1897
  192MOL0     C25275   9.227   1.151   3.492 -0.3130  0.0316  0.7389
  192MOL0     C25276   9.212   1.077   3.586  0.6839 -0.2345 -0.1983
  192MOL0     C25277   9.812   1.458   3.452  0.7134  0.2664  0.0450
  192MOL0     C25278   9.939   1.531   3.443  0.0854 -0.6738 -0.4789
  192MOL0     H25279  10.483   1.528   3.182  0.0594  0.2536 -1.7802
  192MOL0     H25280  10.656   1.668   3.070 -0.6593  1.8395 -3.0900
  192MOL0     H25281  10.757   1.830   2.891  2.9194 -1.2514  0.5420
  192MOL0     H25282  10.813   1.844   3.058 -0.8701  1.5600  0.5562
  192MOL0     H25283  10.797   2.061   2.850 -3.0130 -0.8479 -0.1588
  192MOL0     H25284  10.919   1.935   2.869 -0.7873 -0.7574 -0.2751
  192MOL0     H25285  10.951   2.059   3.109  0.6494  1.2471 -0.1797
  192MOL0     H25286  10.853   2.186   3.042 -1.1649 -0.0818 -0.4263
  192MOL0     H25287  11.108   2.085   2.924 -1.1690 -1.2473  0.0809
  192MOL0     H25288  10.992   2.198   2.850  0.3910 -1.6423 -0.2980
  192MOL0     H25289  11.012   2.330   3.052 -0.8423  0.2581 -0.3446
  192MOL0     H25290  11.150   2.329   2.939  1.2694 -1.7685  0.6388
  192MOL0     H25291  11.268   2.147   3.100  0.9198 -2.3027  5.7598
  192MOL0     H25292  11.131   2.178   3.205 -1.6576 -0.4670 -1.2445
  192MOL0     H25293  11.350   2.379   3.115  2.2880 -2.2623  1.4377
  192MOL0     H25294  11.191   2.416   3.195  0.3373 -0.7910 -0.2115
  192MOL0     H25295  11.403   2.399   3.351  0.6849 -1.3734 -0.3250
  192MOL0     H25296  11.421   2.243   3.299  2.2840  2.9556 -0.8180
  192MOL0     H25297  11.082   2.414   3.421 -0.0762  0.9111  2.6900
  192MOL0     H25298  10.953   2.313   3.687  0.9173  0.8317 -0.6055
  192MOL0     H25299  10.933   2.140   3.651  0.8137 -1.7800 -2.6516
  192MOL0     H25300  10.843   2.376   3.473  0.7655  0.1243 -0.1150
  192MOL0     H25301  10.729   2.266   3.556 -2.4689  0.3883 -3.3715
  192MOL0     H25302  10.887   2.212   3.310  2.0647  0.8712  3.6109
  192MOL0     H25303  10.821   2.081   3.414  1.4672  1.6813  4.0450
  192MOL0     H25304  10.585   2.150   3.377  1.3421  0.6432  2.5389
  192MOL0     H25305  10.668   2.161   3.220 -0.4717 -0.8688 -0.4608
  192MOL0     H25306  10.422   2.171   3.215 -2.8668 -1.4158 -4.5668
  192MOL0     H25307  10.202   2.248   3.153  2.1714 -2.9645  0.5660
  192MOL0     H25308   9.864   2.517   3.021 -0.7341 -0.6426 -0.6627
  192MOL0     H25309   9.646   2.626   3.002 -1.3727 -0.2028  0.6163
  192MOL0     H25310   9.502   3.046   3.194 -0.5975  0.5211 -2.4989
  192MOL0     H25311   9.561   2.927   3.313  0.9343 -0.3115 -0.7260
  192MOL0     H25312   9.305   2.920   3.146 -0.9884 -0.7922 -0.2740
  192MOL0     H25313   9.311   2.967   3.312 -2.4431 -0.1965 -1.8393
  192MOL0     H25314   9.396   2.716   3.354 -1.9677  1.7819  2.0332
  192MOL0     H25315   9.372   2.695   3.179  3.0510 -0.6297  1.5940
  192MOL0     H25316   9.175   2.620   3.319  0.3938  0.2557 -0.2114
  192MOL0     H25317   9.146   2.786   3.361 -0.9336 -2.7839  2.3083
  192MOL0     H25318   9.185   2.681   3.069 -0.6701 -2.7273  0.0608
  192MOL0     H25319   9.121   2.835   3.121  0.2193  0.3229 -1.0951
  192MOL0     H25320   9.005   2.548   3.149  0.6094 -0.2245  0.4537
  192MOL0     H25321   8.936   2.659   3.036  1.6894 -0.9895 -1.1000
  192MOL0     H25322   8.897   2.685   3.347  1.0829  0.8864 -0.0081
  192MOL0     H25323   8.883   2.818   3.238 -0.1661  0.1471 -1.4856
  192MOL0     H25324   8.706   2.570   3.226 -0.4877 -0.6052  1.7126
  192MOL0     H25325   8.719   2.707   3.119  0.2953  1.0610 -0.1101
  192MOL0     H25326   9.793   2.981   3.209  2.8639 -0.9494  2.6560
  192MOL0     H25327  10.016   2.864   3.237 -0.3334  2.5032 -1.9954
  192MOL0     H25328  10.295   2.633   3.289  1.3602 -0.4942 -3.0301
  192MOL0     H25329  10.533   2.569   3.348 -1.3539  0.4035 -0.9429
  192MOL0     H25330  10.363   1.997   3.029 -2.2208 -1.0951 -0.1705
  192MOL0     H25331  10.202   1.839   3.122  1.3722  1.9516  0.4415
  192MOL0     H25332  10.013   1.469   3.111  0.2476  0.7738 -1.2845
  192MOL0     H25333   9.817   1.331   3.139 -0.1195 -2.7812  2.2499
  192MOL0     H25334   9.632   1.214   3.183 -1.1093  1.3419 -2.7429
  192MOL0     H25335   9.543   1.361   3.154 -1.7582  0.6031  0.8806
  192MOL0     H25336   9.393   1.179   3.155  0.4475 -0.7497  0.9254
  192MOL0     H25337   9.447   1.114   3.303  0.4252 -1.9011 -1.0196
  192MOL0     H25338   9.313   1.381   3.254 -1.8689  2.2287  3.6327
  192MOL0     H25339   9.398   1.350   3.406 -0.5306 -0.0278  0.4343
  192MOL0     H25340   9.143   1.312   3.417  1.3319  2.7894 -1.0812
  192MOL0     H25341   9.152   1.191   3.298 -0.6612  1.7541 -0.3976
  192MOL0     H25342   9.194   1.016   3.672 -1.1958  3.3403  2.2034
  192MOL0     H25343   9.752   1.456   3.543  1.4550 -1.7514  0.5388
  192MOL0     H25344   9.984   1.574   3.532  2.2985  0.8461 -2.2363
  193MOL0     O25345   9.744   2.377   6.315 -0.0007 -0.3680  0.1752
  193MOL0     C25346   9.737   2.473   6.393 -0.2056  0.7911 -0.7126
  193MOL0     O25347   9.628   2.552   6.415 -0.3630 -0.2028  0.1118
  193MOL0     C25348   9.515   2.554   6.336  0.8247 -0.7999  0.9136
  193MOL0     C25349   9.412   2.627   6.396  0.0471  0.3308 -0.5744
  193MOL0     C25350   9.288   2.653   6.329 -0.7025  0.1714 -0.3670
  193MOL0     C25351   9.268   2.603   6.199 -0.2787 -0.2488 -0.7843
  193MOL0     O25352   9.152   2.630   6.131  1.2160  0.0637  0.4144
  193MOL0     C25353   9.071   2.531   6.066 -0.7125 -0.5953  0.1457
  193MOL0     C25354   8.995   2.433   6.163  0.2973 -0.0301 -0.2026
  193MOL0     C25355   8.883   2.495   6.238 -0.2579  0.4261 -0.3897
  193MOL0     C25356   8.809   2.403   6.341 -0.2401  0.3170  0.4575
  193MOL0     C25357   8.679   2.473   6.396  0.0434 -0.3576 -0.4242
  193MOL0     C25358   8.724   2.579   6.497 -0.6525 -0.7803  0.4922
  193MOL0     C25359   8.617   2.687   6.524  1.3372  0.0074 -0.4265
  193MOL0     C25360   8.504   2.627   6.621  0.4496 -0.2662  0.2084
  193MOL0     N25361   8.412   2.735   6.681  0.2579  0.0113 -0.3576
  193MOL0     C25362   8.322   2.794   6.598  1.1412  0.2066  0.1408
  193MOL0     C25363   8.284   2.900   6.670 -0.0379  0.0259 -0.5521
  193MOL0     C25364   8.201   3.015   6.619  0.5791  0.1338  0.0825
  193MOL0     C25365   8.050   2.982   6.616 -0.5536  0.0167 -0.6579
  193MOL0     C25366   7.957   3.061   6.515  0.5734  0.0241  0.0306
  193MOL0     C25367   7.808   3.035   6.541 -0.2415  0.9565  0.6652
  193MOL0     O25368   7.781   2.901   6.516  0.6569  0.1810 -0.7230
  193MOL0     C25369   7.656   2.847   6.547 -0.3966  0.2761  0.0681
  193MOL0     C25370   7.552   2.932   6.594 -0.0833 -1.1305  1.0067
  193MOL0     C25371   7.420   2.881   6.619 -0.5684  0.4560 -0.0513
  193MOL0     C25372   7.404   2.738   6.608 -0.0848 -0.7232  0.2738
  193MOL0     C25373   7.269   2.678   6.629  0.6325 -0.9329 -0.1319
  193MOL0     O25374   7.167   2.754   6.674 -0.0460 -0.5115 -0.2687
  193MOL0     C25375   7.038   2.699   6.694 -0.1043 -0.3312 -0.6734
  193MOL0     C25376   6.964   2.741   6.806  0.1095 -0.2253 -0.1822
  193MOL0     C25377   6.827   2.696   6.832 -0.0905  0.4146 -0.1395
  193MOL0     C25378   6.767   2.612   6.734 -0.7233 -0.7742 -0.8718
  193MOL0     O25379   6.664   2.536   6.766 -0.1186  0.3367  0.8963
  193MOL0     C25380   6.555   2.602   6.833  0.8284 -0.3785  0.2279
  193MOL0     C25381   6.428   2.540   6.795 -0.5903 -0.2170  0.8646
  193MOL0     C25382   6.341   2.622   6.701 -0.3396  0.1171  0.1638
  193MOL0     C25383   6.262   2.724   6.780  0.2627  0.7230  0.0748
  193MOL0     C25384   6.206   2.830   6.680  0.4859  0.1142 -0.3129
  193MOL0     C25385   6.106   2.933   6.743  0.1725 -0.0961 -0.3534
  193MOL0     C25386   6.125   3.071   6.676 -0.7569 -0.4800  0.0967
  193MOL0     C25387   6.018   3.168   6.730 -0.7679 -0.9947  0.0419
  193MOL0    Cl25388   5.999   3.146   6.904  0.2527  0.4472 -0.4444
  193MOL0     C25389   6.838   2.572   6.621 -0.7900 -0.1100  0.2395
  193MOL0     C25390   6.975   2.610   6.610  0.9178  0.3985  0.1295
  193MOL0     O25391   7.263   2.560   6.602 -0.7716  0.2009  0.4458
  193MOL0     C25392   7.506   2.650   6.569 -0.3122 -0.2391  0.4361
  193MOL0     C25393   7.625   2.708   6.531  1.4392 -0.0248  0.7043
  193MOL0     N25394   8.359   2.906   6.786 -0.1455  0.6238 -0.2764
  193MOL0     N25395   8.443   2.810   6.788  0.2232  0.2639  0.7404
  193MOL0     C25396   9.379   2.524   6.145  1.3342 -0.1581  0.2046
  193MOL0     C25397   9.493   2.502   6.208  0.8706  0.2841 -0.7511
  193MOL0     C25398   9.853   2.518   6.477  0.0575 -0.0121  0.1518
  193MOL0     C25399   9.981   2.457   6.451 -0.4304  0.2614  0.3182
  193MOL0     C25400  10.093   2.493   6.527  0.3866 -0.5890 -0.7387
  193MOL0     C25401  10.085   2.592   6.629 -0.4616 -0.1720 -0.4346
  193MOL0     O25402  10.192   2.622   6.713  0.2312  0.0212 -0.5262
  193MOL0     C25403  10.297   2.525   6.712 -0.2602 -0.4550  0.1502
  193MOL0     C25404  10.393   2.557   6.831 -0.7844  0.6141 -1.5872
  193MOL0     C25405  10.499   2.661   6.795 -0.0840  0.2391  0.3467
  193MOL0     C25406  10.613   2.682   6.898 -0.0265 -0.1796  0.2809
  193MOL0     C25407  10.703   2.571   6.910  0.2006  0.0676  0.5713
  193MOL0     C25408  10.752   2.460   6.928  0.6199 -0.6821 -0.1970
  193MOL0     C25409   9.960   2.667   6.641 -0.8566  0.0271  0.8896
  193MOL0     C25410   9.846   2.620   6.574 -0.8959  0.2918 -0.1064
  193MOL0     H25411   9.431   2.673   6.492 -0.3815  1.6100 -1.0763
  193MOL0     H25412   9.206   2.710   6.373  0.0932  0.7557  0.3876
  193MOL0     H25413   9.134   2.482   5.992 -1.2694  0.4596 -1.0573
  193MOL0     H25414   8.994   2.591   6.017 -2.2483  0.1838  3.2286
  193MOL0     H25415   9.062   2.392   6.239  2.2696  1.1077 -1.2564
  193MOL0     H25416   8.939   2.359   6.105  1.5805  0.4010 -2.0937
  193MOL0     H25417   8.818   2.530   6.157  0.6468  1.6449 -0.6153
  193MOL0     H25418   8.927   2.576   6.297 -1.8443 -0.2106  1.7714
  193MOL0     H25419   8.774   2.316   6.286  0.4662  0.8265 -0.8426
  193MOL0     H25420   8.880   2.367   6.416 -0.0872  0.0808  0.2017
  193MOL0     H25421   8.605   2.404   6.436  0.9352 -0.4743  1.1199
  193MOL0     H25422   8.635   2.527   6.312  0.0750  3.9204  2.0158
  193MOL0     H25423   8.814   2.632   6.464  0.1497 -1.6212  1.2705
  193MOL0     H25424   8.755   2.520   6.584  0.8252  2.1223  2.0966
  193MOL0     H25425   8.665   2.772   6.572 -0.3783  0.9535 -0.3114
  193MOL0     H25426   8.581   2.740   6.435  1.6927  0.5576 -0.2454
  193MOL0     H25427   8.559   2.582   6.704  4.0702  0.7391 -1.4331
  193MOL0     H25428   8.457   2.552   6.558 -1.7240 -0.0780  1.5141
  193MOL0     H25429   8.292   2.769   6.497  2.9807 -4.1240  0.4190
  193MOL0     H25430   8.235   3.044   6.520 -0.3022 -2.1267 -0.9634
  193MOL0     H25431   8.226   3.099   6.684  0.1279  0.3136  0.0296
  193MOL0     H25432   8.015   3.013   6.714  0.5209  1.8751 -0.8204
  193MOL0     H25433   8.025   2.876   6.613 -2.9938  0.4668  1.1798
  193MOL0     H25434   7.966   3.170   6.520 -1.4218  0.3389 -1.6035
  193MOL0     H25435   7.990   3.024   6.418  1.7456  2.2582 -0.5065
  193MOL0     H25436   7.744   3.095   6.475  1.4409  0.6493 -1.3645
  193MOL0     H25437   7.786   3.071   6.642 -1.0066 -1.2900  1.3648
  193MOL0     H25438   7.567   3.037   6.616  1.0798 -1.5455  2.2881
  193MOL0     H25439   7.339   2.949   6.645 -0.6641  1.8240 -3.4965
  193MOL0     H25440   7.016   2.807   6.875  3.6194 -2.5010 -0.3955
  193MOL0     H25441   6.774   2.733   6.920  1.2865 -0.6469  1.2037
  193MOL0     H25442   6.547   2.709   6.813 -2.5358 -0.6995 -0.6974
  193MOL0     H25443   6.573   2.596   6.941 -2.9957  0.3831  1.0590
  193MOL0     H25444   6.373   2.528   6.889 -0.8476  0.0744  0.7555
  193MOL0     H25445   6.438   2.442   6.748  1.9091 -0.5636  1.9850
  193MOL0     H25446   6.262   2.558   6.660 -0.8246  1.8828 -1.7870
  193MOL0     H25447   6.399   2.677   6.627 -1.1589  2.0440  0.8901
  193MOL0     H25448   6.172   2.681   6.825 -2.3051  1.8025 -3.4872
  193MOL0     H25449   6.329   2.767   6.855  2.3820  1.0555 -1.9173
  193MOL0     H25450   6.139   2.772   6.615 -0.9509  2.5123 -1.1011
  193MOL0     H25451   6.298   2.873   6.639  2.2519 -2.0861  1.1153
  193MOL0     H25452   6.138   2.947   6.847  0.3398 -0.3161 -0.3760
  193MOL0     H25453   6.002   2.902   6.737  0.3970 -0.8024 -0.7102
  193MOL0     H25454   6.222   3.097   6.720 -0.7961 -1.3000  0.7069
  193MOL0     H25455   6.141   3.065   6.568  0.8889 -2.9079  0.3849
  193MOL0     H25456   5.927   3.146   6.674  0.6958 -2.2019 -1.9748
  193MOL0     H25457   6.042   3.270   6.700 -3.5448 -0.8144 -1.8685
  193MOL0     H25458   6.802   2.492   6.557 -2.0112 -1.3467  2.3696
  193MOL0     H25459   7.023   2.571   6.521 -0.4859  2.8412 -1.8481
  193MOL0     H25460   7.499   2.544   6.551 -3.1390  0.2276 -1.8477
  193MOL0     H25461   7.709   2.652   6.492  0.6606  0.2331 -1.5509
  193MOL0     H25462   9.367   2.490   6.043 -4.0356  0.2232  0.4166
  193MOL0     H25463   9.566   2.449   6.148 -1.0364 -1.7692 -1.3921
  193MOL0     H25464   9.993   2.384   6.372  1.2312  2.1680 -1.2619
  193MOL0     H25465  10.184   2.440   6.500  0.5115 -1.5638  1.3509
  193MOL0     H25466  10.351   2.517   6.617 -0.3635 -2.5371  0.2140
  193MOL0     H25467  10.260   2.425   6.736 -1.8679 -0.8398 -3.2310
  193MOL0     H25468  10.338   2.613   6.907  4.0645  0.9363  2.1890
  193MOL0     H25469  10.442   2.467   6.870 -0.9824  1.6643  1.2581
  193MOL0     H25470  10.446   2.757   6.798 -1.9346 -0.7072 -1.0293
  193MOL0     H25471  10.543   2.635   6.699  2.7572  0.0326  1.5964
  193MOL0     H25472  10.669   2.774   6.883 -0.4703 -0.1419 -1.3078
  193MOL0     H25473  10.567   2.698   6.996 -0.7795  2.0511 -0.3709
  193MOL0     H25474  10.799   2.366   6.944 -0.0786 -1.5112 -2.5698
  193MOL0     H25475   9.950   2.746   6.715 -3.1486 -1.0245  1.8085
  193MOL0     H25476   9.757   2.675   6.599 -0.8413  0.0987  0.5274
  194MOL0     O25477   0.323   9.433   1.817 -0.1577 -0.9346  0.5054
  194MOL0     C25478   0.215   9.434   1.867  0.1986  0.2222 -0.1130
  194MOL0     O25479   0.126   9.533   1.858  0.1599  0.7931  0.3201
  194MOL0     C25480   0.144   9.655   1.791  0.0584 -0.4089  0.0128
  194MOL0     C25481   0.043   9.708   1.716 -0.0390 -0.6966 -0.7149
  194MOL0     C25482   0.061   9.842   1.658  0.6712  0.2203 -0.6495
  194MOL0     C25483   0.190   9.905   1.670  0.1814  0.4833  0.1762
  194MOL0     O25484   0.205  10.021   1.594 -1.0316  0.5101  0.4851
  194MOL0     C25485   0.268  10.133   1.654 -0.1809 -0.8010  0.6203
  194MOL0     C25486   0.222  10.266   1.596 -0.4461 -0.3027 -0.0252
  194MOL0     C25487   0.071  10.272   1.573 -0.1257  0.4005  0.2038
  194MOL0     C25488   0.008  10.273   1.703  0.6841 -0.2960  0.1875
  194MOL0     C25489  -0.139  10.314   1.708  0.5510 -0.7233 -0.8909
  194MOL0     C25490  -0.215  10.225   1.609 -0.1375  0.2576  0.0911
  194MOL0     C25491  -0.373  10.224   1.614 -0.2472 -0.8681 -0.4613
  194MOL0     C25492  -0.440  10.350   1.562  0.3895  0.2009 -0.2623
  194MOL0     N25493  -0.586  10.332   1.559 -0.6235  0.4944  0.0134
  194MOL0     C25494  -0.656  10.320   1.440 -1.1120  0.9348  0.0158
  194MOL0     C25495  -0.778  10.316   1.498 -0.0050 -0.4554 -0.0334
  194MOL0     C25496  -0.915  10.310   1.431 -0.4015 -0.3622 -0.1733
  194MOL0     C25497  -0.928  10.389   1.298 -0.8529 -0.4108  0.1147
  194MOL0     C25498  -0.935  10.547   1.319  0.1917 -0.5836  0.3359
  194MOL0     C25499  -0.917  10.647   1.200 -0.2948 -0.2681  0.3855
  194MOL0     O25500  -0.793  10.616   1.138 -0.1147  0.5165  0.6523
  194MOL0     C25501  -0.670  10.637   1.202  0.4556 -0.1131 -0.2271
  194MOL0     C25502  -0.560  10.554   1.169  0.7104  0.4298 -0.3243
  194MOL0     C25503  -0.434  10.577   1.223  0.2099  1.0041 -1.0648
  194MOL0     C25504  -0.412  10.685   1.308  0.5007 -0.1772  0.6758
  194MOL0     C25505  -0.284  10.704   1.373 -0.6159 -0.3665  0.2471
  194MOL0     O25506  -0.243  10.832   1.413  0.4095  0.4317 -0.7341
  194MOL0     C25507  -0.139  10.840   1.493 -1.1083  0.8078  1.1935
  194MOL0     C25508  -0.028  10.881   1.424  0.5442 -0.0045  0.0734
  194MOL0     C25509   0.086  10.906   1.498 -0.1653  0.6767  0.3851
  194MOL0     C25510   0.093  10.894   1.642 -0.5275  0.6244  0.9326
  194MOL0     O25511   0.213  10.915   1.700 -0.0492  0.1612  0.1869
  194MOL0     C25512   0.237  10.868   1.830  0.3499 -0.7479 -0.6670
  194MOL0     C25513   0.372  10.908   1.880 -0.5913 -0.1217  0.4692
  194MOL0     C25514   0.376  10.874   2.031 -0.0356  0.0596  0.4432
  194MOL0     C25515   0.497  10.940   2.086 -0.2024  0.7899 -0.0507
  194MOL0     C25516   0.523  10.912   2.238 -0.4431 -0.5742 -0.4769
  194MOL0     C25517   0.572  10.764   2.257  0.7776  0.1096 -0.6990
  194MOL0     C25518   0.614  10.750   2.404  0.0427 -0.1257  0.5235
  194MOL0     C25519   0.570  10.624   2.481 -0.0075 -0.4333  0.2257
  194MOL0    Cl25520   0.386  10.628   2.476  0.3394 -0.3693 -0.1342
  194MOL0     C25521  -0.024  10.850   1.705  0.0244  0.3228 -0.0215
  194MOL0     C25522  -0.138  10.805   1.624 -0.3116 -0.3951  0.0520
  194MOL0     O25523  -0.236  10.591   1.407  0.2006  0.2686  1.2673
  194MOL0     C25524  -0.523  10.769   1.344  0.2826  0.4751  0.7584
  194MOL0     C25525  -0.651  10.742   1.296  0.6970 -0.1113 -0.0136
  194MOL0     N25526  -0.782  10.331   1.638  0.0066  0.1499 -0.4549
  194MOL0     N25527  -0.665  10.327   1.669 -1.0247  0.2900 -0.1211
  194MOL0     C25528   0.287   9.854   1.756  0.3738  0.2097 -0.4279
  194MOL0     C25529   0.266   9.728   1.814  0.6793 -0.0264  1.0714
  194MOL0     C25530   0.184   9.308   1.941  0.7067 -0.6349 -0.1472
  194MOL0     C25531   0.262   9.192   1.918 -0.1578  0.2768 -0.2329
  194MOL0     C25532   0.225   9.078   1.986 -0.3583  0.6749  0.0128
  194MOL0     C25533   0.108   9.066   2.068 -0.9895  0.3831  0.4017
  194MOL0     O25534   0.079   8.942   2.122 -0.1975 -0.9537  0.1565
  194MOL0     C25535  -0.018   8.860   2.049 -0.5866  0.1737  0.0104
  194MOL0     C25536   0.060   8.773   1.936 -0.7234 -0.1212 -1.0241
  194MOL0     C25537  -0.010   8.791   1.796 -0.7278  0.7400 -0.0286
  194MOL0     C25538   0.008   8.690   1.682  0.4048 -0.5927 -0.5758
  194MOL0     C25539   0.008   8.547   1.734 -0.2372 -0.5286  0.7215
  194MOL0     C25540   0.014   8.425   1.763 -0.8038  0.0330  0.9419
  194MOL0     C25541   0.033   9.181   2.083 -0.0409 -0.3902 -0.8674
  194MOL0     C25542   0.069   9.302   2.024 -0.9178 -0.4913 -0.4648
  194MOL0     H25543  -0.049   9.651   1.707  0.5736 -2.0595  1.2049
  194MOL0     H25544  -0.022   9.890   1.606  0.3856  4.0954  2.8225
  194MOL0     H25545   0.377  10.126   1.650  0.1437  2.7760 -1.3530
  194MOL0     H25546   0.239  10.121   1.759  0.9008  0.5896  1.1037
  194MOL0     H25547   0.263  10.289   1.497 -1.5316  2.6508  0.1084
  194MOL0     H25548   0.245  10.355   1.655  1.8563 -0.6684 -0.2945
  194MOL0     H25549   0.023  10.186   1.525 -1.8510  1.4389 -0.0339
  194MOL0     H25550   0.046  10.361   1.514 -1.0613  0.2546  0.3613
  194MOL0     H25551   0.007  10.179   1.758  3.3156 -0.5438 -0.0467
  194MOL0     H25552   0.066  10.340   1.767  2.4325 -0.9795 -0.6096
  194MOL0     H25553  -0.142  10.416   1.670  2.6381 -0.5776 -0.8002
  194MOL0     H25554  -0.164  10.317   1.815  2.4474  0.3532 -0.4416
  194MOL0     H25555  -0.183  10.121   1.619  0.4117 -0.0210 -3.2181
  194MOL0     H25556  -0.186  10.255   1.508  2.0497  0.1989  0.6657
  194MOL0     H25557  -0.410  10.149   1.544  0.7439 -1.1932 -0.6456
  194MOL0     H25558  -0.412  10.189   1.710 -0.8189  2.7940  0.7945
  194MOL0     H25559  -0.396  10.384   1.468  2.0662  0.0774  0.4480
  194MOL0     H25560  -0.418  10.434   1.628 -1.5462  0.3820  0.2124
  194MOL0     H25561  -0.618  10.309   1.339 -0.0753  2.7983  0.1672
  194MOL0     H25562  -0.990  10.348   1.502 -1.4231  2.3155 -2.4859
  194MOL0     H25563  -0.930  10.204   1.410  1.0507 -0.1353 -2.7341
  194MOL0     H25564  -1.007  10.344   1.237 -0.8931 -3.2154  2.0294
  194MOL0     H25565  -0.836  10.369   1.242 -0.0988 -2.5424  1.9742
  194MOL0     H25566  -1.036  10.573   1.352 -0.6065  1.6149 -3.2560
  194MOL0     H25567  -0.861  10.570   1.396  2.0340  0.5875 -1.6835
  194MOL0     H25568  -0.907  10.751   1.233  1.8307  0.3322 -1.8153
  194MOL0     H25569  -1.003  10.641   1.133  0.8014 -0.7695 -1.0337
  194MOL0     H25570  -0.561  10.470   1.101 -2.4738 -1.1802  1.4519
  194MOL0     H25571  -0.343  10.523   1.198  0.5115  0.0057  1.8758
  194MOL0     H25572  -0.026  10.897   1.317  5.3808  0.0187 -0.0507
  194MOL0     H25573   0.172  10.938   1.439  0.0447  0.5452  0.6164
  194MOL0     H25574   0.210  10.762   1.842 -1.2678 -0.6879 -3.1189
  194MOL0     H25575   0.165  10.923   1.891  0.4223 -1.4126  0.0251
  194MOL0     H25576   0.394  11.013   1.857  1.8098 -0.8314 -0.7196
  194MOL0     H25577   0.441  10.842   1.827  1.3041  1.2119  1.1558
  194MOL0     H25578   0.372  10.765   2.036 -2.6737 -0.1050 -2.1078
  194MOL0     H25579   0.286  10.906   2.084 -0.5244 -1.3068  0.4555
  194MOL0     H25580   0.581  10.917   2.020 -0.5714  2.9332 -1.3725
  194MOL0     H25581   0.482  11.048   2.075 -0.7593  0.9301  1.7552
  194MOL0     H25582   0.435  10.930   2.301  1.6283  0.1117  2.4433
  194MOL0     H25583   0.593  10.979   2.288 -1.3227  0.4957 -0.6304
  194MOL0     H25584   0.661  10.751   2.194  1.6973 -1.7528  0.8831
  194MOL0     H25585   0.502  10.685   2.229  2.1333 -2.4194  2.4333
  194MOL0     H25586   0.722  10.730   2.401  0.2318  0.1615  3.2679
  194MOL0     H25587   0.587  10.839   2.461 -1.1430  2.0008 -3.0604
  194MOL0     H25588   0.615  10.630   2.581  0.6172  1.9395 -0.1285
  194MOL0     H25589   0.607  10.528   2.443 -1.4640 -1.2793  0.8603
  194MOL0     H25590  -0.024  10.834   1.812 -0.6836  1.2713  0.1395
  194MOL0     H25591  -0.223  10.756   1.670  0.8150  0.5132  3.3798
  194MOL0     H25592  -0.519  10.835   1.430  1.9001  1.4331 -0.0289
  194MOL0     H25593  -0.732  10.806   1.328  2.3105  1.1030  1.8237
  194MOL0     H25594   0.372   9.919   1.776 -0.3036  1.7151 -2.1501
  194MOL0     H25595   0.340   9.674   1.872  1.3194 -1.9116 -1.3042
  194MOL0     H25596   0.344   9.196   1.848  0.9524  1.3080  1.0564
  194MOL0     H25597   0.281   8.985   1.980  1.1870  1.3842  1.9490
  194MOL0     H25598  -0.101   8.923   2.019 -2.7400 -2.2923  0.4205
  194MOL0     H25599  -0.069   8.792   2.118 -2.5387  0.7679 -0.7912
  194MOL0     H25600   0.167   8.792   1.923 -0.9273  3.0323  0.9188
  194MOL0     H25601   0.054   8.670   1.972 -1.1754 -0.8594 -3.0870
  194MOL0     H25602   0.031   8.882   1.752 -0.4852  0.2885 -0.7486
  194MOL0     H25603  -0.115   8.804   1.823 -0.8481  1.0246 -0.6125
  194MOL0     H25604  -0.081   8.705   1.621  0.1876 -2.3585 -0.7591
  194MOL0     H25605   0.101   8.702   1.626  2.3084  0.2293  2.4947
  194MOL0     H25606   0.056   8.330   1.788 -0.2335 -0.5899 -1.9767
  194MOL0     H25607  -0.055   9.158   2.142 -0.2327  2.2098 -0.0100
  194MOL0     H25608   0.004   9.388   2.037  3.3427  3.8217 -3.8855
  195MOL0     O25609   9.096   4.356   8.483 -0.7756  0.5314 -0.6703
  195MOL0     C25610   8.989   4.303   8.500 -0.3934  1.5014 -1.5919
  195MOL0     O25611   8.965   4.167   8.503  0.2080 -0.1770 -0.0369
  195MOL0     C25612   9.073   4.094   8.463 -0.8793 -1.0389  0.2146
  195MOL0     C25613   9.116   4.089   8.326 -0.2035  0.2650 -0.9176
  195MOL0     C25614   9.213   4.003   8.288  0.7076  1.1092  0.3028
  195MOL0     C25615   9.272   3.923   8.385 -0.9512  1.2426 -0.9992
  195MOL0     O25616   9.385   3.837   8.371 -0.1933 -0.1450 -0.8037
  195MOL0     C25617   9.452   3.815   8.246  0.0622 -0.6026  1.2790
  195MOL0     C25618   9.368   3.724   8.156 -0.0228  0.8911  0.4688
  195MOL0     C25619   9.330   3.603   8.239  0.6521  0.6382  0.0377
  195MOL0     C25620   9.265   3.509   8.146  1.1769 -0.3483  0.2943
  195MOL0     C25621   9.218   3.389   8.219  0.4640  0.4322 -0.1688
  195MOL0     C25622   9.321   3.284   8.262 -0.0461 -0.4609 -0.3652
  195MOL0     C25623   9.245   3.156   8.300  1.4350  0.3808 -0.6250
  195MOL0     C25624   9.194   3.151   8.445  1.1392 -0.3469 -0.2173
  195MOL0     N25625   9.277   3.213   8.547  0.3419  0.7430  0.3148
  195MOL0     C25626   9.298   3.351   8.565 -0.6471 -0.7839 -0.0551
  195MOL0     C25627   9.410   3.368   8.642 -0.2471  0.1389  0.5322
  195MOL0     C25628   9.459   3.503   8.697 -0.3535 -0.6556 -0.4508
  195MOL0     C25629   9.615   3.499   8.690  0.1877  0.1692  0.1678
  195MOL0     C25630   9.649   3.642   8.713  0.6772 -0.0842 -0.3431
  195MOL0     C25631   9.799   3.664   8.719 -0.9278 -0.8243 -0.1295
  195MOL0     O25632   9.826   3.805   8.697  0.3170  0.4474 -0.2423
  195MOL0     C25633   9.952   3.859   8.704 -0.4570  0.5781 -0.1851
  195MOL0     C25634   9.964   4.000   8.689 -0.9608  1.3157 -1.7504
  195MOL0     C25635  10.093   4.059   8.676 -0.8496  0.9776 -0.3718
  195MOL0     C25636  10.217   3.979   8.683 -0.2355 -1.0816  0.0239
  195MOL0     C25637  10.346   4.052   8.652  0.1550 -0.1032  0.8853
  195MOL0     O25638  10.333   4.190   8.639  0.3263 -0.6342  0.4501
  195MOL0     C25639  10.445   4.261   8.605  0.2975  0.8213 -0.3276
  195MOL0     C25640  10.544   4.286   8.694  0.3824  0.7605 -0.1355
  195MOL0     C25641  10.667   4.347   8.639  0.0145  0.0698  0.0954
  195MOL0     C25642  10.689   4.371   8.504  0.7906 -0.0246 -0.8715
  195MOL0     O25643  10.813   4.413   8.469 -0.1724  0.1779  0.5657
  195MOL0     C25644  10.878   4.361   8.356 -0.1420  1.0534 -0.0070
  195MOL0     C25645  11.017   4.420   8.386  0.4425 -0.1932  0.5281
  195MOL0     C25646  11.099   4.353   8.502 -0.1507  0.6227  0.1699
  195MOL0     C25647  11.224   4.424   8.530 -0.0101 -0.5657  0.4049
  195MOL0     C25648  11.306   4.362   8.644 -0.7863 -0.8482 -0.2464
  195MOL0     C25649  11.444   4.422   8.652 -0.5445  0.0499 -0.1008
  195MOL0     C25650  11.537   4.347   8.751 -0.0429 -0.2903  0.6702
  195MOL0     C25651  11.545   4.198   8.752  0.7745 -0.7524 -0.0377
  195MOL0    Cl25652  11.672   4.155   8.870 -0.3026  0.1241 -0.2102
  195MOL0     C25653  10.588   4.336   8.414 -0.2913  1.2830 -0.1040
  195MOL0     C25654  10.465   4.280   8.462 -0.6594  0.0661 -0.5232
  195MOL0     O25655  10.447   3.992   8.623  0.3532 -0.1352  0.0304
  195MOL0     C25656  10.198   3.840   8.683 -0.1469 -0.1054 -0.8031
  195MOL0     C25657  10.072   3.779   8.701  0.3037  0.1240  0.2916
  195MOL0     N25658   9.437   3.241   8.695 -0.6783 -0.0241 -0.1611
  195MOL0     N25659   9.358   3.154   8.638  0.3906  0.0927 -0.3302
  195MOL0     C25660   9.234   3.926   8.525 -0.6599  0.0904  0.5358
  195MOL0     C25661   9.132   4.012   8.557  0.5434 -0.0383 -0.4950
  195MOL0     C25662   8.876   4.375   8.565 -0.3715  0.1499  0.1581
  195MOL0     C25663   8.744   4.330   8.556  0.1693  0.5295  0.0530
  195MOL0     C25664   8.634   4.406   8.613  0.1523 -0.1612 -0.0217
  195MOL0     C25665   8.664   4.523   8.675  0.5049  0.4324 -0.0395
  195MOL0     O25666   8.560   4.598   8.734 -0.2118  0.7705  0.3991
  195MOL0     C25667   8.577   4.736   8.719 -0.6466 -0.6144  0.0131
  195MOL0     C25668   8.451   4.802   8.676 -1.3185  0.1514 -0.1420
  195MOL0     C25669   8.366   4.727   8.579  0.4464  0.4540  0.1740
  195MOL0     C25670   8.244   4.806   8.510  0.2634  0.5296 -1.4325
  195MOL0     C25671   8.267   4.947   8.473 -0.1759 -0.1195  1.3396
  195MOL0     C25672   8.303   5.048   8.413 -0.4720  0.1880  0.1087
  195MOL0     C25673   8.803   4.562   8.693 -0.7763  0.2683 -0.5993
  195MOL0     C25674   8.904   4.489   8.632  0.7821 -0.9465 -0.3507
  195MOL0     H25675   9.054   4.151   8.263 -0.7621 -1.1146 -1.7680
  195MOL0     H25676   9.257   4.003   8.189  1.2161  0.0998  0.5094
  195MOL0     H25677   9.554   3.782   8.267  0.8926  0.6599 -0.4948
  195MOL0     H25678   9.476   3.912   8.202  1.9883 -0.6136  2.1942
  195MOL0     H25679   9.428   3.682   8.074  0.2005  0.2081  0.9761
  195MOL0     H25680   9.273   3.764   8.120 -0.5326  1.5095  2.4072
  195MOL0     H25681   9.278   3.628   8.332  3.8819  1.6710  1.7540
  195MOL0     H25682   9.421   3.552   8.275 -1.0082 -0.7513  2.6384
  195MOL0     H25683   9.177   3.561   8.106  0.6333  0.7975  2.7821
  195MOL0     H25684   9.333   3.483   8.064  1.8078  1.7612  0.0772
  195MOL0     H25685   9.160   3.333   8.145 -0.1357  0.1821  0.4800
  195MOL0     H25686   9.162   3.427   8.305  0.3376 -0.6766  0.2534
  195MOL0     H25687   9.394   3.310   8.339  0.8044 -0.2836 -1.2065
  195MOL0     H25688   9.384   3.268   8.174  1.2099  0.8862  0.2565
  195MOL0     H25689   9.166   3.140   8.226  1.9857  1.0539 -1.3652
  195MOL0     H25690   9.313   3.071   8.287  1.5617  0.5214 -0.8842
  195MOL0     H25691   9.183   3.046   8.471 -1.3440  0.2685  1.6713
  195MOL0     H25692   9.096   3.199   8.448  1.4422  0.3236 -0.7131
  195MOL0     H25693   9.228   3.421   8.521 -1.2155 -1.6290 -0.5256
  195MOL0     H25694   9.405   3.532   8.788 -0.8552  0.4681 -1.0883
  195MOL0     H25695   9.418   3.573   8.625  0.3678  2.5871  2.0486
  195MOL0     H25696   9.649   3.470   8.591  1.1429  2.0422 -0.1054
  195MOL0     H25697   9.650   3.428   8.765 -1.7152  0.9088  1.8747
  195MOL0     H25698   9.613   3.706   8.633 -0.7839 -0.1615  0.2093
  195MOL0     H25699   9.602   3.670   8.808 -0.0793 -0.1972 -0.6807
  195MOL0     H25700   9.842   3.620   8.629 -0.0524  3.0389 -1.8228
  195MOL0     H25701   9.836   3.626   8.815  0.3130  3.1734  1.1777
  195MOL0     H25702   9.883   4.073   8.694  1.5470  4.2625 -0.2044
  195MOL0     H25703  10.097   4.167   8.679  0.1347  0.9234  1.1340
  195MOL0     H25704  10.556   4.288   8.802  3.6032  4.7171 -0.2996
  195MOL0     H25705  10.756   4.368   8.697 -0.3861  0.2339  0.6637
  195MOL0     H25706  10.840   4.386   8.257  0.2211 -0.5050 -0.5796
  195MOL0     H25707  10.890   4.252   8.363 -0.7889  0.7928 -2.2202
  195MOL0     H25708  11.011   4.528   8.403  1.8954 -0.4806  3.6833
  195MOL0     H25709  11.071   4.400   8.293 -0.0627  0.3142  0.1139
  195MOL0     H25710  11.128   4.252   8.472  1.4943  1.6561 -1.9431
  195MOL0     H25711  11.051   4.339   8.600  0.7967 -2.3055  0.3142
  195MOL0     H25712  11.276   4.412   8.435 -1.4146 -1.9719 -0.2330
  195MOL0     H25713  11.198   4.529   8.548 -1.4785 -0.6443 -1.0280
  195MOL0     H25714  11.316   4.255   8.625  2.9405 -0.4753 -1.3404
  195MOL0     H25715  11.256   4.392   8.736 -1.6027 -2.6486 -0.0667
  195MOL0     H25716  11.439   4.529   8.677 -0.4418 -0.3731  1.9413
  195MOL0     H25717  11.492   4.401   8.556 -0.4368 -2.4658  0.4214
  195MOL0     H25718  11.637   4.378   8.717  0.1935 -2.6888 -1.0192
  195MOL0     H25719  11.522   4.395   8.849  0.8959  1.2098  0.1209
  195MOL0     H25720  11.577   4.152   8.658  2.9306 -1.7630  1.1151
  195MOL0     H25721  11.447   4.166   8.788  0.0294  1.8813  0.4753
  195MOL0     H25722  10.604   4.342   8.307  2.7649 -2.2877 -0.0484
  195MOL0     H25723  10.381   4.253   8.397 -1.5286 -2.8477  1.5806
  195MOL0     H25724  10.287   3.778   8.675 -0.4424 -0.5196 -0.9075
  195MOL0     H25725  10.057   3.674   8.721  0.6799  0.1293  0.6148
  195MOL0     H25726   9.290   3.871   8.600  0.4393  0.3203 -0.0869
  195MOL0     H25727   9.109   4.022   8.663  0.9329 -1.1241 -0.2892
  195MOL0     H25728   8.718   4.237   8.506  0.7582 -0.3366  1.3290
  195MOL0     H25729   8.529   4.382   8.598  0.3827 -0.7481 -0.7747
  195MOL0     H25730   8.653   4.782   8.655  0.3521  2.4247  3.0482
  195MOL0     H25731   8.600   4.758   8.824 -1.2395  0.2585 -0.0200
  195MOL0     H25732   8.396   4.814   8.770 -0.5301  0.3119  0.3107
  195MOL0     H25733   8.483   4.897   8.633  0.7168 -1.8098 -3.3797
  195MOL0     H25734   8.327   4.654   8.651  0.3293  1.0523  0.7296
  195MOL0     H25735   8.433   4.673   8.512 -0.7201 -0.1421 -0.5497
  195MOL0     H25736   8.212   4.735   8.433 -0.2713 -2.8956  1.6881
  195MOL0     H25737   8.174   4.804   8.594  0.6611 -0.2539 -1.1138
  195MOL0     H25738   8.342   5.129   8.355  3.4898 -0.4997  1.4502
  195MOL0     H25739   8.821   4.654   8.748 -0.0033  0.3619 -0.9970
  195MOL0     H25740   9.009   4.514   8.640  1.4466 -3.9555  3.4421
  196MOL0     O25741   1.092   3.324   7.964 -1.3521 -1.2228  0.0449
  196MOL0     C25742   1.124   3.220   8.023  0.1146 -0.5409  0.2749
  196MOL0     O25743   1.050   3.154   8.120 -0.5371  0.3312 -0.1762
  196MOL0     C25744   0.944   3.215   8.181 -0.0702  0.6044  0.7364
  196MOL0     C25745   0.824   3.137   8.195 -0.1402 -0.5787  0.7670
  196MOL0     C25746   0.708   3.188   8.251 -0.4393  0.2717  0.2749
  196MOL0     C25747   0.709   3.326   8.303 -0.3915  0.5134  1.2723
  196MOL0     O25748   0.606   3.389   8.352  0.4424  0.7238 -0.0022
  196MOL0     C25749   0.548   3.307   8.459  0.0467  0.7259  0.9271
  196MOL0     C25750   0.430   3.374   8.528 -0.3907 -0.4633 -0.2072
  196MOL0     C25751   0.460   3.510   8.581 -0.4047 -0.3845 -0.2179
  196MOL0     C25752   0.575   3.512   8.689 -0.0696  0.1854 -0.0479
  196MOL0     C25753   0.605   3.649   8.757  0.4311 -0.0740  0.2098
  196MOL0     C25754   0.640   3.751   8.642 -0.2929 -0.2627  0.4739
  196MOL0     C25755   0.702   3.879   8.703 -0.0620 -0.3035  0.9243
  196MOL0     C25756   0.599   3.996   8.699 -0.2370  0.0706  0.6590
  196MOL0     N25757   0.573   4.056   8.565  0.4186  0.1937  0.3490
  196MOL0     C25758   0.467   4.008   8.483  0.7703 -0.2219  0.0834
  196MOL0     C25759   0.446   4.109   8.386 -1.9377  0.0663  0.3646
  196MOL0     C25760   0.340   4.113   8.277  0.0617 -0.0650  0.3281
  196MOL0     C25761   0.216   4.192   8.325 -0.3022  0.6069 -0.7155
  196MOL0     C25762   0.079   4.136   8.277 -0.2129 -0.1458 -0.3032
  196MOL0     C25763   0.044   4.146   8.133 -0.4790  0.8730  0.3806
  196MOL0     O25764  -0.064   4.237   8.107 -0.5280 -0.2901 -0.1152
  196MOL0     C25765  -0.195   4.197   8.103  1.7830 -0.1781  0.5271
  196MOL0     C25766  -0.242   4.077   8.151  0.2617 -0.0659 -0.3552
  196MOL0     C25767  -0.383   4.049   8.141 -0.6223 -0.4708  1.1125
  196MOL0     C25768  -0.478   4.142   8.084 -0.0931  0.1520 -0.2137
  196MOL0     C25769  -0.619   4.110   8.085  0.5187 -0.3472  0.2114
  196MOL0     O25770  -0.654   3.986   8.135 -0.1763 -0.2902  0.5222
  196MOL0     C25771  -0.783   3.949   8.149  0.0940 -1.0913 -0.7487
  196MOL0     C25772  -0.839   3.882   8.043 -0.2555  0.4973  0.7175
  196MOL0     C25773  -0.958   3.813   8.062 -0.2639  0.1399  1.0753
  196MOL0     C25774  -1.029   3.816   8.187 -0.7147  0.0938 -1.0214
  196MOL0     O25775  -1.156   3.761   8.201 -0.0891 -0.0423  0.1727
  196MOL0     C25776  -1.234   3.780   8.322 -0.2097 -0.0849  1.1572
  196MOL0     C25777  -1.345   3.672   8.336  0.5552 -2.0860  0.0954
  196MOL0     C25778  -1.312   3.528   8.319  0.2661 -0.3514 -0.0333
  196MOL0     C25779  -1.189   3.486   8.406 -0.1521  1.1970 -1.4520
  196MOL0     C25780  -1.180   3.341   8.423  0.4442 -0.6404 -0.0649
  196MOL0     C25781  -1.042   3.285   8.407 -0.7671 -0.4200 -0.0747
  196MOL0     C25782  -1.031   3.127   8.423  0.2518  0.2764  0.3921
  196MOL0     C25783  -0.924   3.067   8.327  0.6724  0.6248 -2.1127
  196MOL0    Cl25784  -0.883   2.909   8.393 -0.4822 -0.0623 -0.0321
  196MOL0     C25785  -0.969   3.901   8.289 -0.1106  0.1490 -0.0954
  196MOL0     C25786  -0.853   3.971   8.270  0.0512 -0.7584 -0.1838
  196MOL0     O25787  -0.701   4.203   8.059  0.6254 -0.0508 -0.3625
  196MOL0     C25788  -0.426   4.259   8.035 -0.7457  0.8344 -0.6509
  196MOL0     C25789  -0.288   4.290   8.048  0.5818  0.3421  0.0519
  196MOL0     N25790   0.535   4.210   8.414 -0.9800 -0.2781 -0.9476
  196MOL0     N25791   0.610   4.180   8.527  1.0316 -0.2973  0.1224
  196MOL0     C25792   0.826   3.405   8.277  1.0511  0.5748 -0.0946
  196MOL0     C25793   0.948   3.340   8.235 -0.5545 -0.2161 -0.4304
  196MOL0     C25794   1.260   3.172   7.992  0.9328  0.1437  0.2487
  196MOL0     C25795   1.301   3.064   8.069 -0.9064  0.0343 -0.2972
  196MOL0     C25796   1.436   3.022   8.056  0.0239  0.7732 -0.0798
  196MOL0     C25797   1.528   3.086   7.969 -0.5481  0.2619  0.4285
  196MOL0     O25798   1.656   3.044   7.978  0.5303 -0.0798  0.0551
  196MOL0     C25799   1.735   3.151   8.035 -0.1433 -0.5132 -0.6471
  196MOL0     C25800   1.869   3.085   8.053 -0.0569 -0.1893  1.1418
  196MOL0     C25801   1.929   3.016   7.927 -0.2944  0.5299 -0.5414
  196MOL0     C25802   2.076   3.011   7.907  0.0389 -1.0498  0.6843
  196MOL0     C25803   2.122   3.141   7.865 -0.5475 -1.3967 -0.2550
  196MOL0     C25804   2.179   3.246   7.840 -0.0088  0.0557 -0.5758
  196MOL0     C25805   1.487   3.206   7.902 -0.3252 -0.1086 -0.6491
  196MOL0     C25806   1.355   3.244   7.904  0.5993  0.3437  0.9343
  196MOL0     H25807   0.815   3.036   8.155  1.6389 -1.0506  1.4849
  196MOL0     H25808   0.620   3.126   8.255  0.6622 -1.4484 -0.7346
  196MOL0     H25809   0.633   3.285   8.524  0.3073  1.0389  0.6967
  196MOL0     H25810   0.528   3.205   8.425  1.1825  0.5833  0.6338
  196MOL0     H25811   0.400   3.316   8.616 -2.0854  0.1440 -0.3420
  196MOL0     H25812   0.346   3.370   8.458 -0.3162  1.0989 -0.4065
  196MOL0     H25813   0.371   3.558   8.623  1.8636  1.8450  2.3947
  196MOL0     H25814   0.507   3.572   8.505  2.2633  0.6541  2.1021
  196MOL0     H25815   0.560   3.430   8.759 -0.2428 -1.3548 -1.8188
  196MOL0     H25816   0.667   3.489   8.634 -3.0501 -3.0211 -4.3246
  196MOL0     H25817   0.692   3.653   8.824  1.2392  1.8441 -0.8740
  196MOL0     H25818   0.518   3.693   8.807  2.7368  2.9027  1.9501
  196MOL0     H25819   0.543   3.782   8.602  0.0735  4.8102  2.6959
  196MOL0     H25820   0.702   3.700   8.569  0.9958  0.0487  1.3207
  196MOL0     H25821   0.728   3.863   8.808 -0.2384 -2.1511  0.7109
  196MOL0     H25822   0.787   3.926   8.652 -1.2109  0.9728  0.1065
  196MOL0     H25823   0.647   4.074   8.759  0.4478  0.3160 -0.1857
  196MOL0     H25824   0.502   3.960   8.736 -1.2529 -0.5744 -2.3489
  196MOL0     H25825   0.388   3.941   8.516 -0.0904  0.2561 -0.9350
  196MOL0     H25826   0.314   4.011   8.247  3.2343 -0.3163 -2.0131
  196MOL0     H25827   0.384   4.167   8.193 -1.1248 -1.9559 -1.6317
  196MOL0     H25828   0.200   4.295   8.291 -1.1565  0.8673  0.4432
  196MOL0     H25829   0.210   4.187   8.434 -2.0373 -0.2141 -0.8209
  196MOL0     H25830   0.052   4.032   8.298 -0.0154 -0.4448 -1.4710
  196MOL0     H25831   0.009   4.196   8.336 -0.7903  1.6373 -2.6655
  196MOL0     H25832   0.005   4.047   8.106  2.2378 -0.2283  0.1864
  196MOL0     H25833   0.127   4.160   8.063 -2.3277 -3.7502 -3.2572
  196MOL0     H25834  -0.174   4.009   8.202 -0.0639 -1.3458 -1.5399
  196MOL0     H25835  -0.414   3.952   8.179  0.7015 -0.9165  1.0867
  196MOL0     H25836  -0.793   3.872   7.945 -0.6323  0.0739  0.5781
  196MOL0     H25837  -1.007   3.745   7.993 -4.1085 -0.8878  4.4274
  196MOL0     H25838  -1.295   3.871   8.319 -1.6842 -1.0124  1.6297
  196MOL0     H25839  -1.179   3.788   8.416  0.4536 -1.5683  0.9209
  196MOL0     H25840  -1.431   3.694   8.272 -0.4974 -3.1150  1.1137
  196MOL0     H25841  -1.379   3.685   8.439 -0.2020 -0.0795 -0.3469
  196MOL0     H25842  -1.294   3.497   8.215 -2.0450 -1.2872 -0.2318
  196MOL0     H25843  -1.406   3.478   8.344  0.5424 -0.8019  0.1182
  196MOL0     H25844  -1.089   3.510   8.370  2.4520 -1.4490  3.0870
  196MOL0     H25845  -1.192   3.532   8.506  6.4303  0.6557 -0.5507
  196MOL0     H25846  -1.250   3.297   8.351  0.0307 -1.5835  0.8881
  196MOL0     H25847  -1.239   3.309   8.509 -0.9060 -0.4727 -0.9098
  196MOL0     H25848  -0.964   3.319   8.476 -0.0822 -2.0809  0.0142
  196MOL0     H25849  -1.008   3.310   8.306  2.2386  0.0878  0.9427
  196MOL0     H25850  -1.017   3.094   8.527 -0.9846 -0.2630  0.4076
  196MOL0     H25851  -1.131   3.087   8.408  0.4462  0.3972 -1.3585
  196MOL0     H25852  -0.839   3.135   8.319  0.8549  0.5852 -0.6968
  196MOL0     H25853  -0.979   3.066   8.232 -1.3795 -2.8601 -1.0785
  196MOL0     H25854  -1.025   3.912   8.381 -0.1711  0.1257 -0.1289
  196MOL0     H25855  -0.812   4.040   8.343 -1.2023 -0.5833  0.3722
  196MOL0     H25856  -0.494   4.334   7.996 -1.6050 -0.5334 -1.9321
  196MOL0     H25857  -0.248   4.373   7.992  0.5378 -0.4358 -1.1639
  196MOL0     H25858   0.834   3.509   8.309  0.2938  0.0963  1.7664
  196MOL0     H25859   1.040   3.393   8.216  0.2527 -1.1544  0.7722
  196MOL0     H25860   1.243   3.014   8.146 -0.1898  0.1896  0.3532
  196MOL0     H25861   1.464   2.938   8.118  0.4868 -0.4008 -1.8084
  196MOL0     H25862   1.695   3.193   8.127  3.5158  0.4538  0.6458
  196MOL0     H25863   1.734   3.232   7.962 -0.0706  1.6904  1.6796
  196MOL0     H25864   1.943   3.161   8.081  1.0460 -1.2412  1.2126
  196MOL0     H25865   1.864   3.017   8.139 -0.2929 -0.8672  0.6042
  196MOL0     H25866   1.882   3.053   7.834 -3.4779  1.3336  1.2292
  196MOL0     H25867   1.898   2.912   7.934 -2.1390  1.0778  0.0379
  196MOL0     H25868   2.133   2.985   7.997 -1.7950  1.9650  2.8845
  196MOL0     H25869   2.088   2.935   7.829  1.6262 -3.2657  2.9030
  196MOL0     H25870   2.228   3.337   7.813 -1.5452  0.7777 -1.0535
  196MOL0     H25871   1.557   3.277   7.860 -1.0356  1.7957  1.1923
  196MOL0     H25872   1.325   3.333   7.850  0.6448 -2.4240 -4.2828
  197MOL0     O25873   6.622   9.286   5.478  0.5437 -0.5776  0.2229
  197MOL0     C25874   6.650   9.165   5.508 -0.3064 -0.7738 -0.6082
  197MOL0     O25875   6.569   9.051   5.498 -0.2419 -0.1235 -0.2639
  197MOL0     C25876   6.446   9.057   5.430  0.2211  0.0860 -0.0354
  197MOL0     C25877   6.421   8.938   5.374  0.4324 -0.1346 -0.0642
  197MOL0     C25878   6.309   8.919   5.300  0.2726 -0.5642  0.3200
  197MOL0     C25879   6.211   9.014   5.276  0.2934 -0.4231  0.0614
  197MOL0     O25880   6.099   8.967   5.200 -0.4025 -0.0870  0.5314
  197MOL0     C25881   5.984   9.035   5.229  0.7925 -0.3575  0.9077
  197MOL0     C25882   5.871   8.934   5.205 -0.2769  0.7217 -0.1303
  197MOL0     C25883   5.734   8.991   5.197 -0.1024 -0.0263  0.6921
  197MOL0     C25884   5.631   8.947   5.298  0.6763 -0.2534  0.2898
  197MOL0     C25885   5.505   9.031   5.294  0.3003 -1.5594  0.5612
  197MOL0     C25886   5.393   8.982   5.193  0.3144  0.0958  0.7420
  197MOL0     C25887   5.306   8.867   5.263 -0.5881 -0.1590 -0.1457
  197MOL0     C25888   5.164   8.865   5.202  1.1816 -0.5915 -0.0666
  197MOL0     N25889   5.076   8.976   5.256  0.3282 -0.2885 -0.4292
  197MOL0     C25890   4.989   9.057   5.179  1.2194  0.4833 -0.4044
  197MOL0     C25891   4.921   9.126   5.270  0.0694  0.8574  0.1662
  197MOL0     C25892   4.790   9.193   5.226 -0.5875  0.5489 -0.6781
  197MOL0     C25893   4.764   9.335   5.273  0.0585 -0.5939  0.1201
  197MOL0     C25894   4.625   9.398   5.234  0.0016  0.0648  0.2329
  197MOL0     C25895   4.624   9.554   5.253 -0.0388  0.8999  0.1473
  197MOL0     O25896   4.544   9.638   5.164  0.3738 -0.1047  0.3211
  197MOL0     C25897   4.410   9.624   5.154  0.2497  0.9968  0.1121
  197MOL0     C25898   4.351   9.682   5.035 -0.1600 -0.2782 -1.5547
  197MOL0     C25899   4.218   9.680   5.007 -1.3469  0.6438 -0.1912
  197MOL0     C25900   4.136   9.614   5.100  0.0763 -0.1386  0.5318
  197MOL0     C25901   3.989   9.616   5.075  0.3773 -0.5032  0.7428
  197MOL0     O25902   3.920   9.587   5.193  0.8233 -0.1721  0.2244
  197MOL0     C25903   3.781   9.610   5.185 -0.1278 -0.1518  0.3183
  197MOL0     C25904   3.729   9.723   5.134  1.6495 -0.1498  0.1708
  197MOL0     C25905   3.594   9.747   5.143  0.7400 -0.5346  0.7129
  197MOL0     C25906   3.505   9.653   5.205  0.3171 -0.3156  0.4003
  197MOL0     O25907   3.377   9.693   5.230 -0.1359  0.3981 -0.1613
  197MOL0     C25908   3.283   9.610   5.285  0.0691  0.9660  0.4020
  197MOL0     C25909   3.165   9.694   5.323 -0.5425 -0.1092 -0.2446
  197MOL0     C25910   3.067   9.638   5.432 -0.0658  0.4954  0.3652
  197MOL0     C25911   2.949   9.558   5.372  0.6405  0.7647  0.6466
  197MOL0     C25912   2.834   9.543   5.467 -0.1603  0.0584 -0.3647
  197MOL0     C25913   2.722   9.449   5.417 -0.4507  0.3441  0.8116
  197MOL0     C25914   2.594   9.483   5.489  0.6446  0.7501  1.0555
  197MOL0     C25915   2.485   9.377   5.473 -0.4054 -0.0601  0.1419
  197MOL0    Cl25916   2.399   9.386   5.322  0.0250 -0.0889 -0.3758
  197MOL0     C25917   3.574   9.538   5.262 -0.1726 -0.1027 -0.5349
  197MOL0     C25918   3.713   9.518   5.255 -0.3270 -0.1252  0.5873
  197MOL0     O25919   3.938   9.641   4.960  0.3747  0.4553 -0.6161
  197MOL0     C25920   4.188   9.555   5.215 -0.3055 -0.3637 -0.0758
  197MOL0     C25921   4.333   9.561   5.242  0.1523 -0.5405  0.1686
  197MOL0     N25922   4.961   9.091   5.395 -0.1578  0.1977 -0.0457
  197MOL0     N25923   5.059   9.017   5.382 -0.0140  0.9212  0.7197
  197MOL0     C25924   6.233   9.137   5.335  0.0489 -0.0619 -0.1500
  197MOL0     C25925   6.353   9.161   5.405 -0.6919 -0.2647  1.1488
  197MOL0     C25926   6.790   9.153   5.561  0.2805 -0.2247  0.2873
  197MOL0     C25927   6.868   9.267   5.590 -0.4406  0.5669 -0.5883
  197MOL0     C25928   6.990   9.250   5.653 -0.5044  0.0447 -0.6675
  197MOL0     C25929   7.051   9.121   5.670 -0.2879 -0.4717  0.4979
  197MOL0     O25930   7.177   9.098   5.718 -0.3836 -0.1604 -0.1619
  197MOL0     C25931   7.278   9.204   5.705  0.2682  0.2790 -1.1986
  197MOL0     C25932   7.411   9.143   5.745 -0.3120 -0.9128 -0.3288
  197MOL0     C25933   7.425   9.092   5.891 -0.1146  0.2645 -0.3648
  197MOL0     C25934   7.567   9.063   5.935  0.3844  0.1923 -0.0796
  197MOL0     C25935   7.617   8.926   5.910 -0.6959  0.4219  1.5444
  197MOL0     C25936   7.659   8.816   5.875 -0.1958  0.9151  1.3766
  197MOL0     C25937   6.983   9.009   5.636 -0.4873 -0.3304  0.3153
  197MOL0     C25938   6.855   9.024   5.585  0.7374 -1.0799  0.4053
  197MOL0     H25939   6.486   8.857   5.408  0.5520  0.6363  1.6417
  197MOL0     H25940   6.305   8.814   5.274 -1.6640 -0.3930 -0.2247
  197MOL0     H25941   5.968   9.121   5.163 -1.2061 -1.9105 -0.7561
  197MOL0     H25942   5.978   9.068   5.334 -2.0205 -2.0184  1.3845
  197MOL0     H25943   5.869   8.864   5.289 -1.1407  1.0577  0.1380
  197MOL0     H25944   5.883   8.890   5.105 -0.0365  0.9867 -0.2210
  197MOL0     H25945   5.697   8.985   5.094  1.8329  3.5442 -0.3650
  197MOL0     H25946   5.739   9.100   5.204 -0.9219  0.1393 -0.9085
  197MOL0     H25947   5.587   8.848   5.291 -0.2256 -0.0412  2.2816
  197MOL0     H25948   5.682   8.958   5.395  2.1026  0.7650 -0.5295
  197MOL0     H25949   5.531   9.130   5.255 -0.4058 -1.8040 -0.5827
  197MOL0     H25950   5.475   9.059   5.395  1.1258 -0.5167  0.5346
  197MOL0     H25951   5.430   8.945   5.097  0.1538 -0.0068  0.7186
  197MOL0     H25952   5.329   9.065   5.161 -0.3206 -0.2008  1.2118
  197MOL0     H25953   5.352   8.768   5.256  0.8032 -0.0226  4.1251
  197MOL0     H25954   5.302   8.886   5.371 -1.6101  0.6979 -0.3228
  197MOL0     H25955   5.113   8.768   5.205 -2.1927  1.0266  0.4531
  197MOL0     H25956   5.174   8.879   5.094 -0.7785  0.4229 -0.1670
  197MOL0     H25957   4.950   9.051   5.078 -2.0529 -0.4626  0.8050
  197MOL0     H25958   4.716   9.126   5.270  1.3474 -0.9818  0.3664
  197MOL0     H25959   4.784   9.191   5.117 -1.5728  0.2968 -0.6314
  197MOL0     H25960   4.843   9.406   5.245 -0.1850  0.8154  2.6960
  197MOL0     H25961   4.764   9.329   5.383  1.6350  2.9399  0.4440
  197MOL0     H25962   4.623   9.381   5.126 -0.1236  0.4158  0.1769
  197MOL0     H25963   4.540   9.352   5.286 -0.4341 -1.4205 -1.6985
  197MOL0     H25964   4.725   9.589   5.230 -0.4170  2.0759  0.2451
  197MOL0     H25965   4.606   9.581   5.358  0.7424  2.8921 -0.1960
  197MOL0     H25966   4.404   9.736   4.957 -0.4743  0.7177 -1.0928
  197MOL0     H25967   4.173   9.709   4.913  2.3132  1.3140 -1.9137
  197MOL0     H25968   3.799   9.784   5.079 -0.5277  1.6311 -0.7926
  197MOL0     H25969   3.564   9.849   5.118 -3.3308 -1.5049  0.9844
  197MOL0     H25970   3.318   9.565   5.378  2.6892 -3.1708 -2.2781
  197MOL0     H25971   3.274   9.528   5.214  1.5520  0.2304  1.0319
  197MOL0     H25972   3.106   9.725   5.236 -1.5470  1.9356  1.0861
  197MOL0     H25973   3.196   9.781   5.381  2.8602 -2.2047  1.3828
  197MOL0     H25974   3.033   9.726   5.488 -2.6634  0.8306 -1.5390
  197MOL0     H25975   3.128   9.578   5.500 -1.7770 -0.1429  1.3939
  197MOL0     H25976   2.910   9.606   5.282 -2.0991  0.4941  1.5969
  197MOL0     H25977   2.984   9.456   5.354 -1.8352  0.3089 -2.4965
  197MOL0     H25978   2.797   9.641   5.498  4.4649  1.2743  2.2170
  197MOL0     H25979   2.850   9.500   5.566 -0.2786 -1.3165 -0.9272
  197MOL0     H25980   2.759   9.349   5.441 -1.3055 -0.0325  0.5628
  197MOL0     H25981   2.710   9.454   5.309  0.4092  1.0839  0.7357
  197MOL0     H25982   2.621   9.493   5.595  0.5380  0.2759  1.1257
  197MOL0     H25983   2.556   9.578   5.451 -1.0793  0.0694  1.0102
  197MOL0     H25984   2.418   9.397   5.557  0.3678  1.6340  0.3964
  197MOL0     H25985   2.540   9.283   5.478 -0.7483 -0.2680  5.6070
  197MOL0     H25986   3.511   9.465   5.313 -0.2836 -2.0027 -3.1843
  197MOL0     H25987   3.772   9.433   5.290  2.5349  1.6272  0.3534
  197MOL0     H25988   4.128   9.507   5.292 -1.5975 -0.3460 -1.0498
  197MOL0     H25989   4.366   9.513   5.334 -2.9860 -0.0369  1.6882
  197MOL0     H25990   6.157   9.212   5.313  0.6000  0.6581  0.3610
  197MOL0     H25991   6.387   9.259   5.438  1.3802 -0.9431  1.1460
  197MOL0     H25992   6.826   9.365   5.569 -1.1282 -0.2012 -3.2764
  197MOL0     H25993   7.047   9.336   5.687  1.0532 -1.6677  1.2764
  197MOL0     H25994   7.251   9.279   5.780  0.7166  0.4204 -1.1765
  197MOL0     H25995   7.282   9.246   5.604  3.8097  0.2815 -1.1548
  197MOL0     H25996   7.427   9.062   5.672 -3.4469 -2.1397  0.2005
  197MOL0     H25997   7.485   9.222   5.732 -2.5771  1.4032  0.0565
  197MOL0     H25998   7.351   9.016   5.919 -1.1048  1.2051 -0.3623
  197MOL0     H25999   7.391   9.182   5.943  0.0449  0.3923 -0.4773
  197MOL0     H26000   7.635   9.134   5.888 -0.0650 -1.5207 -3.6783
  197MOL0     H26001   7.578   9.058   6.043  3.2533 -2.0899 -0.3561
  197MOL0     H26002   7.698   8.719   5.852  0.7982  1.4970  0.5468
  197MOL0     H26003   7.019   8.911   5.665  3.0090  1.6875  3.5954
  197MOL0     H26004   6.799   8.935   5.557 -1.9774  0.3614  0.9194
  198MOL0     O26005   2.960   6.723  11.198 -0.0981 -0.6123 -0.0341
  198MOL0     C26006   3.002   6.837  11.191 -1.0400 -0.7136  0.0895
  198MOL0     O26007   2.928   6.946  11.171  1.0887  0.1150 -0.3657
  198MOL0     C26008   2.787   6.935  11.160  0.7560 -0.2353 -0.1464
  198MOL0     C26009   2.717   7.018  11.258 -0.4990  0.2838  0.1316
  198MOL0     C26010   2.578   7.013  11.271 -0.0117  0.3011  0.9833
  198MOL0     C26011   2.503   6.929  11.187 -0.1132  0.7886 -0.9606
  198MOL0     O26012   2.366   6.921  11.205  0.8163 -1.0278 -0.3734
  198MOL0     C26013   2.287   6.816  11.153 -1.0664  0.4847 -0.7235
  198MOL0     C26014   2.144   6.848  11.188  0.3970  0.1236  0.9741
  198MOL0     C26015   2.059   6.732  11.187 -0.5748  0.1738  0.7571
  198MOL0     C26016   1.916   6.774  11.218 -0.2123  0.0931  0.0277
  198MOL0     C26017   1.815   6.651  11.236 -0.4832 -0.8545  0.1739
  198MOL0     C26018   1.683   6.705  11.297  0.6457  0.7371 -0.3652
  198MOL0     C26019   1.576   6.595  11.299  0.1741  0.3036 -0.6899
  198MOL0     C26020   1.442   6.639  11.237 -1.0939 -0.6324  0.0571
  198MOL0     N26021   1.344   6.533  11.239  0.7404 -0.4661 -0.0467
  198MOL0     C26022   1.323   6.441  11.142 -0.0387  0.8316  0.0218
  198MOL0     C26023   1.193   6.402  11.147  0.0408 -0.6019 -0.0562
  198MOL0     C26024   1.107   6.325  11.056 -0.4686  1.6755 -0.4573
  198MOL0     C26025   1.059   6.409  10.941  0.7733  0.0234  0.3168
  198MOL0     C26026   1.157   6.472  10.843  0.2246 -0.8802 -0.1848
  198MOL0     C26027   1.241   6.383  10.752 -0.0160  0.4338 -0.0836
  198MOL0     O26028   1.349   6.315  10.807 -1.0587  0.2845 -0.5003
  198MOL0     C26029   1.474   6.371  10.814  0.1497 -0.7682  0.1685
  198MOL0     C26030   1.509   6.504  10.779  0.2173 -1.0530 -0.1833
  198MOL0     C26031   1.637   6.552  10.780  0.4940  0.4350 -0.3205
  198MOL0     C26032   1.739   6.462  10.829  0.3055 -0.2329  1.0761
  198MOL0     C26033   1.881   6.514  10.832  0.2342 -0.2230  0.0214
  198MOL0     O26034   1.906   6.642  10.786 -0.0696  0.2760 -0.5764
  198MOL0     C26035   2.035   6.675  10.766 -0.1826  0.2326 -0.2034
  198MOL0     C26036   2.057   6.816  10.784  0.5711  0.8796 -0.2304
  198MOL0     C26037   2.182   6.874  10.775 -0.6737 -0.8881  0.1662
  198MOL0     C26038   2.288   6.791  10.730 -0.1671  0.5839 -0.1420
  198MOL0     O26039   2.416   6.823  10.703  0.1286  0.0885 -0.0540
  198MOL0     C26040   2.467   6.922  10.785  0.1021  0.4582  0.3872
  198MOL0     C26041   2.477   7.046  10.695 -0.4521 -0.0990 -0.7381
  198MOL0     C26042   2.549   7.019  10.558  0.1766  0.1706 -0.0438
  198MOL0     C26043   2.562   7.141  10.464  0.5077 -0.8461  0.1369
  198MOL0     C26044   2.493   7.128  10.321 -0.3045 -0.1336 -0.0944
  198MOL0     C26045   2.346   7.158  10.326  0.4073 -0.0192 -0.5405
  198MOL0     C26046   2.294   7.224  10.198  0.1836 -0.2071 -0.0718
  198MOL0     C26047   2.344   7.369  10.185 -0.1625 -0.1359  0.0788
  198MOL0    Cl26048   2.224   7.482  10.245 -0.2145  0.5353  0.0627
  198MOL0     C26049   2.270   6.651  10.726  0.5957  0.6016  0.4501
  198MOL0     C26050   2.141   6.592  10.736  0.9443 -0.7952 -0.5648
  198MOL0     O26051   1.957   6.445  10.897 -0.1428 -0.0741 -0.0833
  198MOL0     C26052   1.708   6.331  10.859 -0.5308 -0.6001 -0.6297
  198MOL0     C26053   1.580   6.285  10.851  0.9389  0.5469 -1.1326
  198MOL0     N26054   1.131   6.476  11.247  0.2593 -0.1393  0.1955
  198MOL0     N26055   1.223   6.549  11.305  0.1318  0.0412 -0.9074
  198MOL0     C26056   2.575   6.845  11.093 -0.5031  0.4139 -0.4075
  198MOL0     C26057   2.713   6.848  11.077  0.0822 -0.3087 -0.2688
  198MOL0     C26058   3.152   6.857  11.179  0.4710 -0.5708 -0.8643
  198MOL0     C26059   3.240   6.753  11.155  0.7097 -0.5565 -0.2515
  198MOL0     C26060   3.378   6.774  11.137 -0.7578 -0.6938 -0.5355
  198MOL0     C26061   3.427   6.909  11.140  0.4039  0.3950 -0.7859
  198MOL0     O26062   3.566   6.928  11.131 -0.0452 -0.8156  0.2993
  198MOL0     C26063   3.641   7.046  11.169  0.1272 -0.5774 -0.7413
  198MOL0     C26064   3.649   7.060  11.326  0.2015  0.4487 -0.3526
  198MOL0     C26065   3.787   7.113  11.367 -0.2734  0.0083  0.3065
  198MOL0     C26066   3.794   7.263  11.349 -0.3460 -0.3097  0.1598
  198MOL0     C26067   3.932   7.305  11.341 -0.2205  0.2294  0.0883
  198MOL0     C26068   4.057   7.323  11.334  1.0313 -0.8640 -0.9899
  198MOL0     C26069   3.339   7.018  11.170 -0.6486 -0.0118  0.9644
  198MOL0     C26070   3.199   6.995  11.187 -0.3533 -0.1457  0.7042
  198MOL0     H26071   2.774   7.073  11.332  2.0508  2.5890 -3.2102
  198MOL0     H26072   2.524   7.064  11.350 -2.4419 -1.0222  0.2530
  198MOL0     H26073   2.303   6.722  11.206 -1.7985 -0.5755 -2.2905
  198MOL0     H26074   2.303   6.809  11.045  2.6285 -2.0991 -0.1703
  198MOL0     H26075   2.111   6.919  11.111 -1.4793  0.4069  1.9657
  198MOL0     H26076   2.139   6.898  11.285 -2.4708  0.4153  0.7644
  198MOL0     H26077   2.101   6.653  11.249  1.3040 -0.7855 -1.5420
  198MOL0     H26078   2.053   6.689  11.086 -1.3896  0.7758  0.5418
  198MOL0     H26079   1.913   6.835  11.309 -2.0377 -1.8557  1.3631
  198MOL0     H26080   1.860   6.817  11.135 -3.8656 -1.3872  1.5530
  198MOL0     H26081   1.851   6.579  11.309  1.4784  0.4717  0.5735
  198MOL0     H26082   1.804   6.608  11.135 -1.3621 -0.5879  0.1491
  198MOL0     H26083   1.658   6.795  11.240  1.0130  2.8609  2.5690
  198MOL0     H26084   1.694   6.747  11.398  1.6005  0.1342 -0.1999
  198MOL0     H26085   1.607   6.498  11.258 -0.5347 -0.5717  0.7905
  198MOL0     H26086   1.557   6.572  11.404 -0.5596 -1.6442 -1.1917
  198MOL0     H26087   1.460   6.673  11.135 -1.2704  0.1305  0.2698
  198MOL0     H26088   1.403   6.723  11.297 -0.3928  0.6901 -1.2733
  198MOL0     H26089   1.391   6.420  11.061 -0.7548 -0.6549 -0.2245
  198MOL0     H26090   1.028   6.279  11.117  0.4685 -1.5823 -1.5487
  198MOL0     H26091   1.154   6.239  11.009  0.4105  0.7588  1.9482
  198MOL0     H26092   1.013   6.493  10.994  2.2390 -0.3638  2.2913
  198MOL0     H26093   0.987   6.353  10.881  1.7226  1.2338 -2.0833
  198MOL0     H26094   1.095   6.541  10.786  2.8246  2.3883  0.6173
  198MOL0     H26095   1.223   6.547  10.887 -0.3765  0.4906 -1.5155
  198MOL0     H26096   1.270   6.423  10.654  2.4605 -1.3517 -0.1724
  198MOL0     H26097   1.172   6.301  10.730 -0.2433  0.7843 -0.6894
  198MOL0     H26098   1.428   6.572  10.755  1.9245  0.9324 -0.6426
  198MOL0     H26099   1.651   6.657  10.760 -1.8977  0.6846 -1.0098
  198MOL0     H26100   1.973   6.882  10.803  2.4932  3.6044 -0.5880
  198MOL0     H26101   2.198   6.977  10.805 -4.3332  0.3563 -1.5117
  198MOL0     H26102   2.569   6.897  10.816 -0.0654 -1.3408 -0.4168
  198MOL0     H26103   2.414   6.927  10.880  0.1777 -1.4442  0.5649
  198MOL0     H26104   2.542   7.121  10.740  1.6447 -1.6430 -1.0539
  198MOL0     H26105   2.383   7.100  10.678 -0.0165  0.9371 -0.0220
  198MOL0     H26106   2.490   6.944  10.504  0.1103  0.5179 -0.4644
  198MOL0     H26107   2.646   6.970  10.568  0.7933  1.3084 -0.2265
  198MOL0     H26108   2.537   7.226  10.527 -1.3737 -1.0897 -0.2215
  198MOL0     H26109   2.671   7.144  10.450  0.8019  1.6927  2.3371
  198MOL0     H26110   2.515   7.035  10.268 -0.6700 -0.2439 -0.0559
  198MOL0     H26111   2.544   7.200  10.256  0.1783 -0.8114 -0.4767
  198MOL0     H26112   2.316   7.223  10.409 -1.7935  1.3794 -2.3249
  198MOL0     H26113   2.302   7.059  10.340  3.4030 -1.3483  0.2316
  198MOL0     H26114   2.348   7.170  10.120  1.3987  3.7075 -2.1929
  198MOL0     H26115   2.188   7.204  10.182 -0.1070  1.0500  0.1239
  198MOL0     H26116   2.358   7.384  10.078 -0.1411 -1.2831 -0.0919
  198MOL0     H26117   2.443   7.378  10.230 -1.6731  4.0121  3.2433
  198MOL0     H26118   2.351   6.583  10.701  1.0173  0.9986  0.7246
  198MOL0     H26119   2.135   6.486  10.714 -0.7311 -0.6388 -0.9753
  198MOL0     H26120   1.787   6.259  10.876  0.6128  0.0875 -2.6586
  198MOL0     H26121   1.562   6.184  10.885 -1.1035  1.8444  2.2317
  198MOL0     H26122   2.529   6.758  11.046 -4.2062  1.3261  1.1194
  198MOL0     H26123   2.773   6.782  11.016  2.0183 -1.5039  2.6817
  198MOL0     H26124   3.198   6.653  11.160 -0.7482  0.0858  1.9461
  198MOL0     H26125   3.445   6.691  11.121 -4.1230 -4.2038  1.8356
  198MOL0     H26126   3.591   7.134  11.128  0.9999  0.2728 -0.0119
  198MOL0     H26127   3.738   7.029  11.121 -0.0158 -3.1821 -0.2592
  198MOL0     H26128   3.568   7.127  11.355 -0.3894 -0.4228  0.0645
  198MOL0     H26129   3.627   6.969  11.383  1.8178 -0.5583 -1.2307
  198MOL0     H26130   3.871   7.063  11.318  0.0340 -0.8719  1.6587
  198MOL0     H26131   3.791   7.074  11.469 -3.5093 -0.5957  0.3017
  198MOL0     H26132   3.733   7.286  11.261 -1.5759 -0.4600  0.9453
  198MOL0     H26133   3.746   7.320  11.430 -0.3713  1.3583 -0.9688
  198MOL0     H26134   4.161   7.347  11.348  0.6536  0.2275  0.1338
  198MOL0     H26135   3.377   7.119  11.163 -0.9359  0.3118  3.3642
  198MOL0     H26136   3.138   7.084  11.203  0.6785  1.1748 -2.1549
  199MOL0     O26137   3.953  10.189   0.643  0.1248 -0.0647 -0.4776
  199MOL0     C26138   4.043  10.227   0.567  0.5387  0.0156  0.5249
  199MOL0     O26139   4.021  10.305   0.455  0.6063  0.2374 -0.1189
  199MOL0     C26140   3.909  10.383   0.428  1.0563  0.5298 -0.9366
  199MOL0     C26141   3.893  10.423   0.292 -0.7448  0.6690 -0.8564
  199MOL0     C26142   3.772  10.471   0.245 -0.3514 -0.4557 -0.7555
  199MOL0     C26143   3.668  10.501   0.334  1.0504 -0.0268  0.3643
  199MOL0     O26144   3.552  10.557   0.273 -0.6906  0.3082 -0.4420
  199MOL0     C26145   3.479  10.660   0.337  0.1430 -0.2907  0.1341
  199MOL0     C26146   3.358  10.597   0.404 -0.1726 -0.6211 -0.1023
  199MOL0     C26147   3.289  10.692   0.492  0.0206 -1.2108 -0.8109
  199MOL0     C26148   3.217  10.799   0.402 -0.5994  0.1067 -0.5946
  199MOL0     C26149   3.130  10.890   0.481  0.1254 -0.5493 -0.2942
  199MOL0     C26150   3.062  10.994   0.397 -0.1136 -0.7338  0.3344
  199MOL0     C26151   3.006  11.107   0.491 -1.0238  0.7189  0.8586
  199MOL0     C26152   2.889  11.053   0.575  0.6535  0.2385 -0.6251
  199MOL0     N26153   2.837  11.168   0.662  0.2264 -0.1224  0.1145
  199MOL0     C26154   2.715  11.228   0.650 -0.3980 -0.5347 -0.5619
  199MOL0     C26155   2.716  11.331   0.737  0.6266  1.1389 -0.0373
  199MOL0     C26156   2.613  11.426   0.775  0.2753 -0.2594  0.3933
  199MOL0     C26157   2.497  11.438   0.678 -0.4808  0.0714  0.2372
  199MOL0     C26158   2.414  11.562   0.714  0.1225 -0.1444 -0.3670
  199MOL0     C26159   2.267  11.563   0.650  0.4355  0.2362  1.3996
  199MOL0     O26160   2.177  11.459   0.670  0.1997  0.4900  0.8214
  199MOL0     C26161   2.071  11.446   0.593  1.0167  0.7288  1.2963
  199MOL0     C26162   2.070  11.367   0.478  0.0089  0.1594 -0.0482
  199MOL0     C26163   1.945  11.333   0.420  0.3648 -0.4686  0.5601
  199MOL0     C26164   1.824  11.394   0.453  0.2157  0.7036  0.7686
  199MOL0     C26165   1.697  11.363   0.377  0.0545  0.1755 -0.2659
  199MOL0     O26166   1.688  11.253   0.298  0.0029  0.4538  0.0205
  199MOL0     C26167   1.559  11.192   0.267  0.9105 -0.4601 -0.4536
  199MOL0     C26168   1.557  11.099   0.170 -0.4118 -0.1595  0.9683
  199MOL0     C26169   1.447  11.030   0.146 -0.6532  1.1435  0.5232
  199MOL0     C26170   1.322  11.057   0.189 -0.4559  0.3491  0.7035
  199MOL0     O26171   1.218  10.991   0.126 -0.3775  1.0454 -0.3254
  199MOL0     C26172   1.081  11.038   0.129 -0.1490 -0.6296 -0.0642
  199MOL0     C26173   1.065  11.128  -0.001 -0.1907  0.4857  0.3001
  199MOL0     C26174   0.920  11.183  -0.017  0.2710 -0.6848 -0.5237
  199MOL0     C26175   0.811  11.087  -0.039  0.5332 -0.9011 -0.1318
  199MOL0     C26176   0.678  11.146  -0.107 -1.2378 -0.5603 -0.4558
  199MOL0     C26177   0.573  11.037  -0.128 -0.5532 -0.3184 -0.9801
  199MOL0     C26178   0.638  10.919  -0.193  0.3652 -0.8872  1.0013
  199MOL0     C26179   0.531  10.838  -0.283 -0.3143 -0.2540  0.4600
  199MOL0    Cl26180   0.379  10.824  -0.177  0.6164 -0.3908  0.4490
  199MOL0     C26181   1.313  11.155   0.288 -0.6090  0.1530  1.5032
  199MOL0     C26182   1.432  11.215   0.334  0.3943  0.4943  0.3395
  199MOL0     O26183   1.596  11.437   0.399  0.3661 -0.6983  0.3844
  199MOL0     C26184   1.834  11.487   0.565 -0.1844  0.4127 -0.1191
  199MOL0     C26185   1.954  11.497   0.633  0.0400 -0.4750 -0.1759
  199MOL0     N26186   2.838  11.326   0.798  0.2250 -0.5555 -0.2563
  199MOL0     N26187   2.905  11.235   0.755 -0.2847 -0.1928  0.5275
  199MOL0     C26188   3.685  10.459   0.467 -0.7420  0.1322 -0.4896
  199MOL0     C26189   3.803  10.404   0.516  0.0816 -0.2480 -0.2946
  199MOL0     C26190   4.187  10.183   0.598  0.8635 -0.9069  0.1017
  199MOL0     C26191   4.291  10.208   0.511  0.4719  0.1546  0.2529
  199MOL0     C26192   4.426  10.163   0.539 -0.1040 -0.2519 -0.0077
  199MOL0     C26193   4.453  10.094   0.661 -0.4145  0.1278 -0.1858
  199MOL0     O26194   4.589  10.054   0.672  0.6592  0.3363 -0.0727
  199MOL0     C26195   4.620   9.994   0.795 -0.5513 -0.1294  0.8411
  199MOL0     C26196   4.765   9.977   0.795 -0.4306 -0.0485 -0.3740
  199MOL0     C26197   4.825   9.939   0.664  0.6776  0.4697 -0.1809
  199MOL0     C26198   4.957   9.873   0.676 -0.0885 -0.5119  0.7753
  199MOL0     C26199   5.051   9.977   0.714  0.6720 -0.0143 -0.7432
  199MOL0     C26200   5.123  10.074   0.734 -0.1874 -0.2149  0.0199
  199MOL0     C26201   4.344  10.076   0.752  0.3105  0.4165 -0.1311
  199MOL0     C26202   4.213  10.121   0.720 -0.9441  0.3606  0.6513
  199MOL0     H26203   3.972  10.399   0.221 -1.1128 -2.3372 -0.3605
  199MOL0     H26204   3.755  10.504   0.143  0.1745 -1.7524 -1.2878
  199MOL0     H26205   3.444  10.731   0.261 -1.8553  1.5541  2.6192
  199MOL0     H26206   3.538  10.711   0.413  1.2034 -0.9700 -0.2078
  199MOL0     H26207   3.385  10.507   0.461  0.8232 -1.4077 -1.7335
  199MOL0     H26208   3.284  10.561   0.332 -2.0292  2.3024  0.1794
  199MOL0     H26209   3.361  10.742   0.558 -0.2576  0.8798 -1.9868
  199MOL0     H26210   3.223  10.634   0.557  1.3877 -1.2349  0.5947
  199MOL0     H26211   3.287  10.862   0.345  2.1093 -0.6357  1.6699
  199MOL0     H26212   3.164  10.747   0.322  1.1102  1.2865 -2.6227
  199MOL0     H26213   3.191  10.934   0.560 -1.7794  1.2191  0.2492
  199MOL0     H26214   3.051  10.824   0.518 -0.6909  1.8210  2.4655
  199MOL0     H26215   2.982  10.945   0.342 -4.5229  4.0852  1.6220
  199MOL0     H26216   3.132  11.047   0.332  1.3914  0.0710  2.5026
  199MOL0     H26217   3.083  11.139   0.561  0.3172  0.5592 -0.4717
  199MOL0     H26218   2.979  11.193   0.430  1.3106 -0.2687 -1.8266
  199MOL0     H26219   2.908  10.963   0.633 -2.9868  0.0786  0.6146
  199MOL0     H26220   2.816  11.024   0.498  1.2863  1.4751 -1.7383
  199MOL0     H26221   2.633  11.198   0.586 -2.5779  2.6119  0.5145
  199MOL0     H26222   2.654  11.523   0.804 -0.1694 -0.5714  2.2145
  199MOL0     H26223   2.567  11.379   0.863  0.8785 -1.7019 -0.0272
  199MOL0     H26224   2.441  11.344   0.673 -0.1376 -0.0820 -1.1094
  199MOL0     H26225   2.546  11.452   0.581 -2.0114  0.3205 -0.5302
  199MOL0     H26226   2.397  11.557   0.822  1.0390  3.0953  0.0406
  199MOL0     H26227   2.463  11.658   0.692 -0.0352  0.6177  2.2990
  199MOL0     H26228   2.282  11.582   0.543 -1.9568  4.8821  1.6245
  199MOL0     H26229   2.218  11.658   0.675 -0.0586  0.2136  0.5617
  199MOL0     H26230   2.166  11.327   0.448  0.5721  2.1489 -1.0070
  199MOL0     H26231   1.971  11.280   0.329  1.2335  0.1217  0.4555
  199MOL0     H26232   1.653  11.076   0.125 -0.1235  1.0617  0.9129
  199MOL0     H26233   1.460  10.958   0.065 -0.6741  0.7396  0.8784
  199MOL0     H26234   1.051  11.099   0.214 -1.3592 -0.5675 -0.5282
  199MOL0     H26235   1.019  10.948   0.127 -0.2060 -0.5804 -1.8116
  199MOL0     H26236   1.105  11.063  -0.079  1.2895 -1.4130  2.5009
  199MOL0     H26237   1.135  11.212  -0.001 -1.6273  1.7351  0.0222
  199MOL0     H26238   0.914  11.254  -0.100  0.2433  0.0502  0.1057
  199MOL0     H26239   0.898  11.241   0.073 -1.7183 -2.1836  0.0339
  199MOL0     H26240   0.846  11.005  -0.102 -1.1754 -0.5978 -1.5280
  199MOL0     H26241   0.790  11.054   0.064  2.8496 -2.6839 -0.1558
  199MOL0     H26242   0.710  11.176  -0.207  2.8399 -3.4260 -0.2842
  199MOL0     H26243   0.643  11.228  -0.043 -1.0567 -2.7879  2.7314
  199MOL0     H26244   0.493  11.080  -0.189  1.4988  2.7265 -1.7972
  199MOL0     H26245   0.542  11.013  -0.026 -0.1103  0.9685 -0.5164
  199MOL0     H26246   0.711  10.949  -0.269 -2.7804 -2.3479 -2.9361
  199MOL0     H26247   0.696  10.861  -0.120  1.5627  0.4662  1.1669
  199MOL0     H26248   0.566  10.747  -0.333 -1.7039 -0.6392  0.1278
  199MOL0     H26249   0.508  10.904  -0.368 -1.5042 -0.1147  0.8631
  199MOL0     H26250   1.219  11.184   0.332 -1.1483 -0.0456  0.5173
  199MOL0     H26251   1.425  11.287   0.415  0.0436 -0.3126  1.0384
  199MOL0     H26252   1.751  11.548   0.600  0.6706  0.6623  1.5655
  199MOL0     H26253   1.966  11.552   0.726  1.1774 -0.2652 -0.4331
  199MOL0     H26254   3.614  10.471   0.549  1.8722  1.2801  1.7647
  199MOL0     H26255   3.812  10.382   0.622 -1.5897  1.3150  0.2166
  199MOL0     H26256   4.279  10.272   0.424  1.8379 -0.7480 -0.6423
  199MOL0     H26257   4.510  10.186   0.474  1.8289 -3.5817  1.0663
  199MOL0     H26258   4.567   9.898   0.791  0.8483 -0.9107 -2.4757
  199MOL0     H26259   4.592  10.051   0.884  3.2732  1.1018  1.4201
  199MOL0     H26260   4.811  10.065   0.840  2.1095  0.3409 -3.4257
  199MOL0     H26261   4.779   9.893   0.864 -1.1670 -1.2288 -1.6016
  199MOL0     H26262   4.816  10.022   0.593  0.8376  1.7646  1.2632
  199MOL0     H26263   4.776   9.854   0.616  2.5701  0.4378 -2.2120
  199MOL0     H26264   4.962   9.781   0.735 -2.4667 -1.8959 -1.0136
  199MOL0     H26265   4.988   9.840   0.576  0.1057  1.4699  0.1338
  199MOL0     H26266   5.182  10.156   0.769 -0.8777 -1.6603  5.6219
  199MOL0     H26267   4.353  10.017   0.842  0.5545 -0.9070 -0.9904
  199MOL0     H26268   4.136  10.095   0.792 -1.4377 -1.5536 -0.5044
  200MOL0     O26269   1.542  10.132   7.734 -0.0381 -0.4425  0.1706
  200MOL0     C26270   1.504  10.022   7.786  0.3664 -0.1679 -0.0008
  200MOL0     O26271   1.570   9.959   7.891  0.1908 -0.2647  0.5500
  200MOL0     C26272   1.692  10.011   7.938  0.4167  0.2097  0.1197
  200MOL0     C26273   1.724   9.971   8.074  0.3240  0.2389 -0.1109
  200MOL0     C26274   1.846  10.008   8.126  0.1482 -0.1270 -0.1403
  200MOL0     C26275   1.932  10.094   8.062 -0.2915 -0.5422  0.3509
  200MOL0     O26276   2.052  10.136   8.107  0.0405  0.5237 -0.9215
  200MOL0     C26277   2.097  10.104   8.243  0.7502 -0.6173 -0.6029
  200MOL0     C26278   2.246  10.133   8.248 -0.3558  0.6615  0.0071
  200MOL0     C26279   2.333  10.032   8.173 -0.1927 -0.1726 -0.2725
  200MOL0     C26280   2.470  10.093   8.134  0.8303 -0.4587 -0.8053
  200MOL0     C26281   2.552  10.003   8.037  0.4127 -0.4951  0.2850
  200MOL0     C26282   2.691  10.079   8.034 -0.1127 -0.0939  0.2520
  200MOL0     C26283   2.686  10.209   7.940 -0.7073 -0.1411 -0.6218
  200MOL0     C26284   2.829  10.260   7.894  0.4416 -0.7013 -0.5322
  200MOL0     N26285   2.891  10.189   7.777 -0.1830  0.1309 -0.2678
  200MOL0     C26286   2.934  10.059   7.773  0.6272 -0.1327 -0.1516
  200MOL0     C26287   2.934  10.011   7.646 -0.4843 -0.4776  0.2417
  200MOL0     C26288   2.968   9.881   7.605  0.2022  0.2888 -0.2589
  200MOL0     C26289   2.874   9.769   7.633 -0.2478  0.2125 -1.0381
  200MOL0     C26290   2.738   9.789   7.571 -0.0620  0.2401  0.1924
  200MOL0     C26291   2.648   9.879   7.661  0.1845 -0.1295 -0.4380
  200MOL0     O26292   2.596   9.802   7.770 -0.1517 -0.4538  0.1702
  200MOL0     C26293   2.473   9.744   7.747  0.0439 -0.3276 -0.2397
  200MOL0     C26294   2.420   9.721   7.616  0.6099  0.4990  0.9338
  200MOL0     C26295   2.290   9.674   7.615  0.7841 -0.0934 -0.6598
  200MOL0     C26296   2.210   9.652   7.736 -0.5106  0.6045 -0.5909
  200MOL0     C26297   2.080   9.589   7.723 -0.7930 -0.4792  0.9198
  200MOL0     O26298   2.005   9.572   7.842  0.2139 -0.7191  0.1574
  200MOL0     C26299   1.867   9.544   7.832 -0.1451  0.8942 -0.0891
  200MOL0     C26300   1.766   9.636   7.801  0.2886  0.3709 -0.5342
  200MOL0     C26301   1.629   9.595   7.805  0.2149  0.0658 -0.5803
  200MOL0     C26302   1.596   9.466   7.845  0.3321 -0.0954 -0.1247
  200MOL0     O26303   1.468   9.420   7.846 -0.5624 -0.6723 -0.9267
  200MOL0     C26304   1.375   9.444   7.740  0.3885 -0.3497 -0.0946
  200MOL0     C26305   1.251   9.352   7.749  0.2361  0.5534  1.2828
  200MOL0     C26306   1.155   9.374   7.631  0.1609  0.4449 -0.2687
  200MOL0     C26307   1.022   9.298   7.658 -1.1857 -1.0588 -0.0788
  200MOL0     C26308   0.945   9.277   7.534 -0.3370 -0.2103  0.3163
  200MOL0     C26309   0.991   9.172   7.428 -0.3351 -0.6787  0.1604
  200MOL0     C26310   0.885   9.147   7.323  1.1596 -0.4636  0.2460
  200MOL0     C26311   0.924   9.047   7.214  0.2195 -0.7444  0.0361
  200MOL0    Cl26312   0.910   8.897   7.296 -0.1207 -0.0188  0.2599
  200MOL0     C26313   1.694   9.383   7.883  0.4530  0.5912  0.1117
  200MOL0     C26314   1.825   9.411   7.866 -0.1505 -0.9741 -0.4737
  200MOL0     O26315   2.041   9.548   7.611  0.0702 -1.2573 -0.8489
  200MOL0     C26316   2.264   9.674   7.857 -0.9307  0.2083  0.3679
  200MOL0     C26317   2.398   9.714   7.865  0.1765  0.0104 -0.1344
  200MOL0     N26318   2.893  10.122   7.572 -0.0096  0.1457 -0.1725
  200MOL0     N26319   2.867  10.220   7.651  0.4685 -0.5172 -0.1370
  200MOL0     C26320   1.898  10.132   7.932  1.0244 -0.3043 -1.0082
  200MOL0     C26321   1.779  10.093   7.872 -0.9899 -0.8880 -0.2736
  200MOL0     C26322   1.377   9.953   7.739  0.3434 -0.7364 -0.3565
  200MOL0     C26323   1.323   9.999   7.614  0.3474 -0.1715  0.3490
  200MOL0     C26324   1.216   9.920   7.559 -0.9999 -1.1064 -0.2192
  200MOL0     C26325   1.151   9.821   7.633  0.4881  0.0776  0.9610
  200MOL0     O26326   1.037   9.756   7.605 -0.3819  0.1590  0.0074
  200MOL0     C26327   0.980   9.798   7.481  0.2232 -0.5134  0.2969
  200MOL0     C26328   0.856   9.716   7.446 -0.2382  0.0204  0.2232
  200MOL0     C26329   0.750   9.772   7.364  0.9290  0.0005  0.1152
  200MOL0     C26330   0.653   9.859   7.443 -0.7771  0.5598 -0.5520
  200MOL0     C26331   0.534   9.879   7.380  0.1171 -0.3172 -0.8458
  200MOL0     C26332   0.412   9.903   7.351 -0.1893  0.0567  0.2061
  200MOL0     C26333   1.199   9.780   7.756  0.5108 -0.5798  0.0363
  200MOL0     C26334   1.323   9.844   7.808 -0.4484 -0.7574 -0.3403
  200MOL0     H26335   1.668   9.892   8.123  1.0626 -1.0002 -1.2143
  200MOL0     H26336   1.875   9.971   8.224  1.9482 -1.3368 -1.0724
  200MOL0     H26337   2.088   9.996   8.259  0.2143 -0.8458 -2.2398
  200MOL0     H26338   2.041  10.166   8.314 -0.4374 -1.9948 -0.2905
  200MOL0     H26339   2.285  10.135   8.351 -1.3002 -1.6798  0.4600
  200MOL0     H26340   2.256  10.234   8.207 -0.3772  1.1561  1.1581
  200MOL0     H26341   2.282  10.021   8.076  0.9340 -0.2848 -0.8759
  200MOL0     H26342   2.341   9.941   8.231 -0.5953 -0.0025  0.0530
  200MOL0     H26343   2.456  10.194   8.096  0.2720 -0.5246 -0.7845
  200MOL0     H26344   2.527  10.112   8.226  2.0852  1.2318 -1.8737
  200MOL0     H26345   2.510   9.994   7.936  0.5921 -0.7060  0.2302
  200MOL0     H26346   2.572   9.904   8.077 -1.1258 -0.3719  1.4313
  200MOL0     H26347   2.764  10.019   7.978 -1.3906 -0.4819 -1.0651
  200MOL0     H26348   2.732  10.114   8.129  4.1169 -3.3512 -0.0851
  200MOL0     H26349   2.633  10.184   7.848 -0.4857  0.3168 -0.8762
  200MOL0     H26350   2.640  10.284   8.004 -2.2138 -1.6706  0.1907
  200MOL0     H26351   2.902  10.251   7.975 -0.1304  1.5208  0.3004
  200MOL0     H26352   2.837  10.367   7.874  1.4225 -0.8148 -0.8122
  200MOL0     H26353   2.961   9.998   7.859  0.5209  3.1384  2.4325
  200MOL0     H26354   3.068   9.867   7.647  1.4213  5.2331 -0.9070
  200MOL0     H26355   2.983   9.883   7.497  2.6708  1.6213  0.0485
  200MOL0     H26356   2.869   9.744   7.740  0.3704 -1.4017 -1.3576
  200MOL0     H26357   2.927   9.688   7.583 -1.2384 -0.4195 -1.0826
  200MOL0     H26358   2.737   9.835   7.472 -0.6092  1.0894  0.5816
  200MOL0     H26359   2.693   9.690   7.557 -3.0077  1.7089 -1.7336
  200MOL0     H26360   2.563   9.916   7.604  1.2630  0.3909 -1.7657
  200MOL0     H26361   2.695   9.973   7.693  2.4247 -0.6092 -2.0891
  200MOL0     H26362   2.482   9.722   7.527  1.4463  0.1834  1.4968
  200MOL0     H26363   2.243   9.662   7.518  0.2713 -2.3268 -0.1884
  200MOL0     H26364   1.783   9.740   7.775  0.1265  0.8754  1.2313
  200MOL0     H26365   1.547   9.663   7.783 -1.2706 -0.9590  1.4908
  200MOL0     H26366   1.414   9.447   7.637  0.1616  2.7567 -0.1885
  200MOL0     H26367   1.346   9.548   7.755 -0.1125 -0.7256  1.7744
  200MOL0     H26368   1.204   9.358   7.848  0.0158 -1.8497  1.3992
  200MOL0     H26369   1.285   9.248   7.748  0.9120  0.7609  1.8681
  200MOL0     H26370   1.202   9.327   7.544  3.0002 -0.4094  1.5919
  200MOL0     H26371   1.134   9.481   7.622 -0.2723  0.7031  2.7150
  200MOL0     H26372   1.042   9.203   7.708 -0.6021  0.0773  1.9736
  200MOL0     H26373   0.967   9.356   7.733  1.2432 -0.5763  1.4341
  200MOL0     H26374   0.940   9.370   7.476 -1.4527 -1.7441 -2.2232
  200MOL0     H26375   0.841   9.263   7.566 -0.3394  1.4169  1.1287
  200MOL0     H26376   1.017   9.076   7.473 -0.3444 -1.8015 -2.1362
  200MOL0     H26377   1.086   9.212   7.393  1.0378 -1.8313  2.3622
  200MOL0     H26378   0.789   9.119   7.368 -0.0120  0.0912 -1.7599
  200MOL0     H26379   0.870   9.247   7.281 -1.9540 -1.5239 -1.5349
  200MOL0     H26380   1.020   9.066   7.165  1.4186 -2.7536  1.4361
  200MOL0     H26381   0.843   9.057   7.141  0.8717 -0.5239 -0.6686
  200MOL0     H26382   1.646   9.301   7.936 -2.2470  3.1851  1.9963
  200MOL0     H26383   1.903   9.354   7.916  1.5231  1.3017 -0.2992
  200MOL0     H26384   2.212   9.639   7.945 -1.7251 -0.8490 -0.5059
  200MOL0     H26385   2.449   9.727   7.959  0.3185 -2.3859  0.1687
  200MOL0     H26386   1.970  10.187   7.873 -0.0342  0.1714 -1.9028
  200MOL0     H26387   1.768  10.117   7.767  2.0550  0.9275 -0.2867
  200MOL0     H26388   1.370  10.080   7.558 -1.7042 -1.3826 -3.4853
  200MOL0     H26389   1.188   9.965   7.464  0.7286  0.2712 -0.1108
  200MOL0     H26390   1.047   9.792   7.394  0.0886 -0.7124  0.2070
  200MOL0     H26391   0.954   9.904   7.491 -0.4551 -0.7035  0.6085
  200MOL0     H26392   0.888   9.637   7.376  0.7760 -0.2061  0.9180
  200MOL0     H26393   0.809   9.686   7.540 -0.1626  0.5312  0.4276
  200MOL0     H26394   0.684   9.690   7.335 -0.2861  0.7826  0.5510
  200MOL0     H26395   0.786   9.814   7.270 -1.1608 -3.3530 -2.4321
  200MOL0     H26396   0.620   9.789   7.521  0.5001 -2.5698 -2.6318
  200MOL0     H26397   0.683   9.952   7.492  0.4994 -0.5465  0.8790
  200MOL0     H26398   0.307   9.919   7.341 -0.1181  0.0986 -0.5008
  200MOL0     H26399   1.152   9.716   7.830  0.7298  0.8989  1.5010
  200MOL0     H26400   1.360   9.805   7.902 -1.0858  1.6385  0.9951
  201MOL0     O26401   3.208   9.456   4.655 -0.4749  0.3264 -0.2355
  201MOL0     C26402   3.271   9.501   4.754  0.0818  0.1506 -0.0053
  201MOL0     O26403   3.216   9.562   4.862 -0.4391  0.4981 -0.4047
  201MOL0     C26404   3.076   9.569   4.872  0.6100  0.2166 -0.1795
  201MOL0     C26405   3.004   9.638   4.777 -0.0560  0.2887  0.3742
  201MOL0     C26406   2.860   9.656   4.781 -0.2330 -0.3339  0.0497
  201MOL0     C26407   2.792   9.580   4.873  0.5676  0.1739 -0.5605
  201MOL0     O26408   2.659   9.587   4.895 -0.0113 -0.2009  0.0868
  201MOL0     C26409   2.574   9.682   4.833  0.3700  0.0349  0.4182
  201MOL0     C26410   2.436   9.675   4.881  0.9118  0.7841  0.2429
  201MOL0     C26411   2.361   9.786   4.825 -0.6462 -0.4482 -0.1079
  201MOL0     C26412   2.226   9.802   4.896 -0.7545 -0.0656  0.0292
  201MOL0     C26413   2.114   9.888   4.834  0.3585 -0.0432 -0.4595
  201MOL0     C26414   1.981   9.901   4.918 -1.0393 -0.5359  0.0053
  201MOL0     C26415   1.874   9.819   4.856  0.2761 -0.4741 -0.5579
  201MOL0     C26416   1.747   9.840   4.942  0.1851  0.7848  0.0709
  201MOL0     N26417   1.643   9.756   4.899  0.1332 -0.5179  0.3971
  201MOL0     C26418   1.645   9.645   4.816 -0.6751 -0.4560 -0.4595
  201MOL0     C26419   1.531   9.574   4.831 -0.1699  0.3415 -0.8430
  201MOL0     C26420   1.510   9.432   4.780  0.2493  0.0210 -0.3201
  201MOL0     C26421   1.431   9.462   4.650  0.0953 -0.2405  0.4993
  201MOL0     C26422   1.385   9.328   4.576 -1.0077 -0.5426  0.4133
  201MOL0     C26423   1.349   9.356   4.433  0.4449  0.1157 -0.1627
  201MOL0     O26424   1.298   9.485   4.386 -0.2955  0.0388  0.1143
  201MOL0     C26425   1.158   9.510   4.382 -0.4932  1.0741 -0.3946
  201MOL0     C26426   1.058   9.448   4.458 -0.6655  0.5040  0.2276
  201MOL0     C26427   0.931   9.494   4.448  0.0080  0.8344  0.6270
  201MOL0     C26428   0.896   9.602   4.365 -0.3474 -0.2630  0.1268
  201MOL0     C26429   0.756   9.651   4.353  0.1234  0.6925  0.4383
  201MOL0     O26430   0.723   9.759   4.277  0.4733 -0.3301 -0.1462
  201MOL0     C26431   0.588   9.782   4.252 -0.5185 -0.5411 -0.6183
  201MOL0     C26432   0.549   9.918   4.248  0.4856  0.2895  0.0771
  201MOL0     C26433   0.419   9.958   4.210 -0.6926  0.0229 -0.7084
  201MOL0     C26434   0.323   9.853   4.171 -1.3817 -0.2344 -0.6042
  201MOL0     O26435   0.196   9.896   4.147  0.0061 -0.0731 -0.5362
  201MOL0     C26436   0.101   9.821   4.062 -0.7285  0.3271 -0.2708
  201MOL0     C26437  -0.013   9.915   4.017  0.3319  0.0130  0.5843
  201MOL0     C26438  -0.105   9.923   4.130 -0.2127 -0.6222  0.8317
  201MOL0     C26439  -0.200  10.031   4.089  0.8029 -0.6042  0.0376
  201MOL0     C26440  -0.312  10.033   4.201 -0.3494 -0.0106 -0.0087
  201MOL0     C26441  -0.434  10.105   4.148  0.2324 -0.5371  0.8960
  201MOL0     C26442  -0.558  10.061   4.227 -0.1382  0.0038 -0.5727
  201MOL0     C26443  -0.608   9.932   4.159 -0.5206  0.5752 -0.3071
  201MOL0    Cl26444  -0.755   9.864   4.257 -0.1599 -0.3103  0.1241
  201MOL0     C26445   0.368   9.730   4.158 -1.2086 -0.0381  0.0741
  201MOL0     C26446   0.495   9.689   4.211  0.6132  0.7180  0.1153
  201MOL0     O26447   0.678   9.576   4.411  0.5032 -0.6924 -0.4728
  201MOL0     C26448   0.997   9.663   4.296  0.1407  0.1321 -0.8219
  201MOL0     C26449   1.131   9.620   4.305  0.2470 -0.4245  0.9717
  201MOL0     N26450   1.445   9.651   4.919 -0.2156 -0.1960  0.4814
  201MOL0     N26451   1.519   9.754   4.958  0.1684 -1.4589  0.1565
  201MOL0     C26452   2.866   9.511   4.972 -0.3064  0.4020  0.6613
  201MOL0     C26453   3.003   9.509   4.978  0.3702 -0.4696  0.1592
  201MOL0     C26454   3.419   9.472   4.757 -0.7610  0.2348  0.0303
  201MOL0     C26455   3.504   9.509   4.860 -0.3071  0.3763  0.0255
  201MOL0     C26456   3.641   9.490   4.856  0.1621  0.2231 -0.5602
  201MOL0     C26457   3.702   9.408   4.761  0.6409  0.3913  0.5655
  201MOL0     O26458   3.838   9.383   4.775  0.0704 -0.4570 -0.2887
  201MOL0     C26459   3.908   9.299   4.685 -0.1209  0.3474 -0.2737
  201MOL0     C26460   4.033   9.277   4.759 -0.8057 -0.3931  0.4846
  201MOL0     C26461   4.133   9.403   4.776  0.2229  0.0802 -0.9058
  201MOL0     C26462   4.157   9.481   4.645  0.1617 -1.1447 -0.3041
  201MOL0     C26463   4.232   9.404   4.541 -0.4296  1.0785 -0.7158
  201MOL0     C26464   4.287   9.331   4.461  0.3251 -0.4012 -0.3418
  201MOL0     C26465   3.614   9.358   4.659 -0.2240  0.1163  0.9528
  201MOL0     C26466   3.475   9.393   4.650 -0.3168  0.4405  0.3557
  201MOL0     H26467   3.057   9.687   4.696 -0.6124  0.7196  0.2687
  201MOL0     H26468   2.808   9.720   4.710 -2.8345 -2.0511  0.2886
  201MOL0     H26469   2.572   9.659   4.726  0.7496 -1.4619  0.7073
  201MOL0     H26470   2.614   9.783   4.841  1.6602 -0.4243  0.1250
  201MOL0     H26471   2.406   9.677   4.987 -0.2318  0.6047 -0.0586
  201MOL0     H26472   2.395   9.578   4.849  1.4937  0.6499 -0.1063
  201MOL0     H26473   2.347   9.778   4.717  3.2225  0.8194 -0.8712
  201MOL0     H26474   2.407   9.885   4.838 -2.6781  0.3618  1.3586
  201MOL0     H26475   2.181   9.703   4.883 -1.9375  0.6361 -1.5392
  201MOL0     H26476   2.240   9.826   5.002  0.5812  1.8669 -0.5504
  201MOL0     H26477   2.084   9.850   4.736 -1.0247  0.4577 -0.2671
  201MOL0     H26478   2.166   9.984   4.829  2.0032 -0.9055 -0.4296
  201MOL0     H26479   1.962  10.008   4.912 -1.6519 -0.2618  3.8214
  201MOL0     H26480   2.009   9.883   5.023  2.1697  0.0198 -0.6654
  201MOL0     H26481   1.859   9.856   4.754  0.6482  0.5397 -0.2568
  201MOL0     H26482   1.907   9.715   4.858 -0.4431 -0.7039 -0.2270
  201MOL0     H26483   1.711   9.944   4.941 -0.1868  0.6608  0.4344
  201MOL0     H26484   1.767   9.814   5.046 -0.2767 -0.9989 -0.2590
  201MOL0     H26485   1.723   9.615   4.746 -3.1184 -3.1562 -2.2215
  201MOL0     H26486   1.458   9.369   4.852  0.8310  2.1095  2.0760
  201MOL0     H26487   1.609   9.392   4.755  0.5848  1.4894 -1.4782
  201MOL0     H26488   1.484   9.523   4.576 -2.4086 -2.1193 -3.1463
  201MOL0     H26489   1.338   9.517   4.668 -0.1021  0.3530 -1.9918
  201MOL0     H26490   1.469   9.258   4.577  2.2557  3.0653  0.2300
  201MOL0     H26491   1.305   9.289   4.641 -0.3504  1.3492  2.4806
  201MOL0     H26492   1.272   9.284   4.405 -0.7562 -0.0530  3.1689
  201MOL0     H26493   1.440   9.328   4.379 -0.2335 -2.3511 -0.1366
  201MOL0     H26494   1.094   9.373   4.527 -0.5079 -0.0781 -0.4793
  201MOL0     H26495   0.856   9.443   4.507  0.8394 -1.0377  0.1384
  201MOL0     H26496   0.623   9.991   4.280  0.0047 -0.3163  2.8541
  201MOL0     H26497   0.393  10.062   4.227 -0.2849  0.2094 -1.1975
  201MOL0     H26498   0.060   9.738   4.119  2.3287 -0.9400  0.2741
  201MOL0     H26499   0.154   9.782   3.975 -1.7831  1.9227 -1.6915
  201MOL0     H26500  -0.060   9.869   3.930 -0.0012  2.0245 -0.3395
  201MOL0     H26501   0.018  10.013   3.981 -0.5227  0.5991  1.3720
  201MOL0     H26502  -0.044   9.948   4.217  3.5084 -2.5045 -0.9562
  201MOL0     H26503  -0.161   9.833   4.157 -1.2126  0.4214  2.3528
  201MOL0     H26504  -0.150  10.128   4.103 -0.4571  0.5321 -2.5686
  201MOL0     H26505  -0.247  10.013   3.992  0.8221 -1.6727  0.2185
  201MOL0     H26506  -0.266  10.093   4.280  4.1634  1.0953 -3.0322
  201MOL0     H26507  -0.336   9.933   4.238  0.1190 -1.1105 -2.4559
  201MOL0     H26508  -0.446  10.083   4.041 -1.8455  1.0613  0.7418
  201MOL0     H26509  -0.424  10.214   4.154  1.8264 -0.4231 -1.8252
  201MOL0     H26510  -0.540  10.044   4.334  2.9590 -1.6801 -1.2347
  201MOL0     H26511  -0.640  10.131   4.211  0.4995  1.1801  1.0177
  201MOL0     H26512  -0.532   9.854   4.164 -2.6475 -1.6469 -0.8175
  201MOL0     H26513  -0.622   9.951   4.052  1.6012 -1.7031 -1.0748
  201MOL0     H26514   0.300   9.649   4.134 -0.4001 -0.1342 -2.0822
  201MOL0     H26515   0.519   9.584   4.217 -0.5173  0.4530  0.0162
  201MOL0     H26516   0.971   9.754   4.243 -1.8116 -1.1978 -2.3155
  201MOL0     H26517   1.201   9.675   4.244 -1.7636 -0.2439 -1.3160
  201MOL0     H26518   2.815   9.461   5.054  1.3372  0.3734  1.7121
  201MOL0     H26519   3.066   9.460   5.052  5.4726  1.6423 -2.2875
  201MOL0     H26520   3.469   9.561   4.948  1.0218 -0.0854  0.8658
  201MOL0     H26521   3.703   9.527   4.936 -1.5675  1.5032  0.2475
  201MOL0     H26522   3.934   9.343   4.589  0.7555  0.0924 -0.1604
  201MOL0     H26523   3.860   9.202   4.669 -0.6200  0.6493 -0.6183
  201MOL0     H26524   4.023   9.229   4.857  0.8041 -0.7474  0.5101
  201MOL0     H26525   4.089   9.205   4.698  0.0999  2.7103 -2.6267
  201MOL0     H26526   4.226   9.371   4.823 -0.6665 -0.5969  0.4720
  201MOL0     H26527   4.084   9.474   4.843  2.6746  2.3462 -1.3686
  201MOL0     H26528   4.070   9.542   4.621  1.8873  2.1003  0.9955
  201MOL0     H26529   4.220   9.564   4.678 -2.8643  1.4075 -0.4555
  201MOL0     H26530   4.345   9.262   4.403  0.7098  1.4923 -2.3518
  201MOL0     H26531   3.659   9.296   4.581 -0.7250  2.9912 -1.8528
  201MOL0     H26532   3.417   9.359   4.565  2.1245 -0.3124 -1.1119
  202MOL0     O26533   2.343   9.992   5.482 -0.3616  0.9079 -0.0635
  202MOL0     C26534   2.365   9.971   5.362 -0.2500  0.8034  0.0998
  202MOL0     O26535   2.269   9.959   5.269 -0.0806  0.0172  0.4432
  202MOL0     C26536   2.146   9.924   5.309  1.1590 -0.7036 -0.2884
  202MOL0     C26537   2.050  10.026   5.303 -0.0097  0.5078 -0.5831
  202MOL0     C26538   1.916   9.999   5.331  0.1902 -0.2109 -0.5493
  202MOL0     C26539   1.875   9.873   5.369  0.2579 -0.4570  0.8339
  202MOL0     O26540   1.742   9.836   5.377  0.5787 -0.0119 -0.2214
  202MOL0     C26541   1.709   9.703   5.439  0.5174  0.5104 -0.3901
  202MOL0     C26542   1.552   9.682   5.457 -0.5066 -0.4376 -0.4857
  202MOL0     C26543   1.487   9.696   5.327 -0.3066  0.2321  1.0094
  202MOL0     C26544   1.343   9.662   5.340 -0.3614  0.7709  0.4826
  202MOL0     C26545   1.269   9.693   5.211  0.3037  0.9790 -0.5740
  202MOL0     C26546   1.122   9.695   5.227  0.4908  0.3692  0.0512
  202MOL0     C26547   1.070   9.555   5.237 -0.1630 -0.2606  0.1489
  202MOL0     C26548   0.919   9.555   5.232  0.2563 -0.5558  0.2907
  202MOL0     N26549   0.844   9.425   5.214  0.0638  0.1014  0.6525
  202MOL0     C26550   0.762   9.385   5.111  0.1575  0.3848 -0.2825
  202MOL0     C26551   0.719   9.264   5.145  0.5352  0.2731 -0.0488
  202MOL0     C26552   0.618   9.179   5.070  0.8590  0.7074 -0.1128
  202MOL0     C26553   0.679   9.093   4.960  0.0660  0.1975  0.0927
  202MOL0     C26554   0.600   8.968   4.942 -0.1417 -0.5525  0.1070
  202MOL0     C26555   0.464   8.989   4.891 -0.5587  0.3807  0.8443
  202MOL0     O26556   0.372   8.998   5.001  0.2767  0.6628 -1.0903
  202MOL0     C26557   0.273   8.902   5.010 -0.1721 -0.8001 -1.0586
  202MOL0     C26558   0.282   8.776   4.957 -0.6638 -0.0343  0.5140
  202MOL0     C26559   0.176   8.676   4.965 -0.6464 -0.4808 -0.2541
  202MOL0     C26560   0.054   8.717   5.018  0.3659  0.2046 -0.0335
  202MOL0     C26561  -0.075   8.624   5.017 -0.2590 -0.1902 -0.1221
  202MOL0     O26562  -0.179   8.651   5.106 -0.2002  0.0023  0.1234
  202MOL0     C26563  -0.284   8.562   5.129 -0.3251 -0.0582  0.0259
  202MOL0     C26564  -0.420   8.598   5.096  0.7386  1.4912  0.9847
  202MOL0     C26565  -0.524   8.504   5.120  0.9365 -0.0488  1.2176
  202MOL0     C26566  -0.506   8.388   5.185  1.5629  0.5528 -0.3170
  202MOL0     O26567  -0.608   8.296   5.219 -0.5838  0.0285  0.1041
  202MOL0     C26568  -0.735   8.328   5.179 -0.0448 -0.0211  0.5914
  202MOL0     C26569  -0.819   8.216   5.231 -0.5748 -0.0363  0.0537
  202MOL0     C26570  -0.971   8.213   5.188  0.9306  0.2726 -0.4579
  202MOL0     C26571  -1.039   8.083   5.245 -0.1645  1.0783 -1.0816
  202MOL0     C26572  -1.183   8.080   5.205 -0.3928  0.2980  0.9786
  202MOL0     C26573  -1.208   8.068   5.047  0.3487  0.3264  0.1394
  202MOL0     C26574  -1.355   8.026   5.016 -0.0091 -0.1582 -0.2764
  202MOL0     C26575  -1.461   8.132   5.057 -0.0846 -0.5317  0.9757
  202MOL0    Cl26576  -1.620   8.083   4.999 -0.3515  0.4047 -0.0019
  202MOL0     C26577  -0.375   8.350   5.220 -0.2339 -0.0630  0.0527
  202MOL0     C26578  -0.269   8.434   5.188 -0.6077  0.0243  0.4084
  202MOL0     O26579  -0.060   8.524   4.946  0.6981  0.1555 -0.3209
  202MOL0     C26580   0.034   8.853   5.061 -0.3717 -1.2466  0.2378
  202MOL0     C26581   0.152   8.947   5.065  0.6573  0.5005 -0.3469
  202MOL0     N26582   0.785   9.215   5.259  0.2354  0.1340  0.2040
  202MOL0     N26583   0.850   9.319   5.305  0.2961 -0.3461 -0.3691
  202MOL0     C26584   1.974   9.770   5.380  0.1392  0.0079 -0.3827
  202MOL0     C26585   2.110   9.802   5.348  0.6456  1.4956 -0.1746
  202MOL0     C26586   2.503   9.970   5.315 -0.1906  0.1337 -0.6496
  202MOL0     C26587   2.605  10.004   5.407  0.1353 -0.2913 -0.2673
  202MOL0     C26588   2.738  10.003   5.368 -0.0512 -0.4512  0.1450
  202MOL0     C26589   2.769   9.967   5.240 -0.9250 -0.2914  0.1973
  202MOL0     O26590   2.900   9.961   5.214  0.0931 -0.4356 -0.5872
  202MOL0     C26591   2.946   9.908   5.096  0.2851  1.0056 -0.0321
  202MOL0     C26592   3.091   9.953   5.088 -0.2633  0.2305 -0.0551
  202MOL0     C26593   3.103  10.104   5.086  0.2008  0.2941 -0.1482
  202MOL0     C26594   3.261  10.147   5.111  0.4908  0.6725 -0.2829
  202MOL0     C26595   3.356  10.070   5.039  0.7149 -0.6348  0.8328
  202MOL0     C26596   3.450  10.034   4.969  0.2958  0.7827 -0.0365
  202MOL0     C26597   2.670   9.928   5.150  0.0571  0.3675  0.3409
  202MOL0     C26598   2.538   9.928   5.184  0.2065  0.0907  0.0869
  202MOL0     H26599   2.083  10.123   5.268 -2.6605  1.1841 -1.3918
  202MOL0     H26600   1.847  10.082   5.320 -0.7576 -0.9750 -0.3922
  202MOL0     H26601   1.767   9.688   5.531  2.3493 -4.6184 -2.0239
  202MOL0     H26602   1.735   9.622   5.370 -1.4951  0.6982 -1.4393
  202MOL0     H26603   1.515   9.749   5.534 -1.7901 -1.8758  0.2007
  202MOL0     H26604   1.538   9.581   5.497  0.7260  0.5837  2.8235
  202MOL0     H26605   1.525   9.624   5.254 -0.8455 -0.8107  1.7304
  202MOL0     H26606   1.512   9.794   5.287 -0.1797 -0.2233 -0.0559
  202MOL0     H26607   1.335   9.556   5.365 -1.0272  0.9176  0.9198
  202MOL0     H26608   1.305   9.726   5.419  0.3415  2.6803 -0.6554
  202MOL0     H26609   1.300   9.617   5.139 -0.7173  1.7617 -1.8926
  202MOL0     H26610   1.307   9.785   5.165 -0.2771  1.4192 -0.1862
  202MOL0     H26611   1.082   9.740   5.135  1.5858 -5.0368 -3.5163
  202MOL0     H26612   1.094   9.761   5.310 -0.7516  2.0015 -1.5744
  202MOL0     H26613   1.100   9.490   5.155  0.9029 -1.6005  1.5362
  202MOL0     H26614   1.112   9.510   5.328 -0.5396 -0.3842  0.2656
  202MOL0     H26615   0.902   9.614   5.141 -0.5193 -1.5375 -0.2328
  202MOL0     H26616   0.879   9.599   5.323 -1.1029 -1.8006  0.3324
  202MOL0     H26617   0.720   9.443   5.029  1.9418  2.2009  0.0161
  202MOL0     H26618   0.539   9.242   5.029 -0.9047 -1.3725 -0.0871
  202MOL0     H26619   0.570   9.109   5.138  2.4710 -2.2781 -1.8341
  202MOL0     H26620   0.779   9.060   4.989 -0.7726 -1.6371  1.0956
  202MOL0     H26621   0.667   9.148   4.867 -1.0407 -1.3842 -0.7586
  202MOL0     H26622   0.650   8.909   4.865 -1.3864 -1.8526  0.2472
  202MOL0     H26623   0.608   8.910   5.034  1.2556 -2.4840 -1.1618
  202MOL0     H26624   0.446   8.909   4.818  0.1156  2.1871 -1.4484
  202MOL0     H26625   0.451   9.076   4.826 -1.5167  0.4221  1.0801
  202MOL0     H26626   0.377   8.751   4.911 -1.7061  0.3512 -2.0520
  202MOL0     H26627   0.190   8.576   4.925 -0.2901 -0.2502 -0.7170
  202MOL0     H26628  -0.446   8.694   5.053  3.0837  0.1674 -4.1980
  202MOL0     H26629  -0.621   8.540   5.087 -0.6548 -3.2060  2.0067
  202MOL0     H26630  -0.728   8.347   5.071 -0.5937  0.0194  0.5626
  202MOL0     H26631  -0.770   8.421   5.223  0.6253  0.0900  0.9029
  202MOL0     H26632  -0.801   8.213   5.339 -1.1078  0.5358  0.1637
  202MOL0     H26633  -0.771   8.129   5.185 -0.5943  1.1853 -2.4470
  202MOL0     H26634  -0.982   8.209   5.079 -2.9069 -2.3970 -0.1685
  202MOL0     H26635  -1.031   8.292   5.233 -1.1088 -1.3998 -0.0620
  202MOL0     H26636  -0.990   7.996   5.200 -2.0168 -1.3894  1.3668
  202MOL0     H26637  -1.021   8.077   5.352 -1.8238  0.9746 -0.7759
  202MOL0     H26638  -1.232   8.164   5.255  0.4366  1.2457  0.2370
  202MOL0     H26639  -1.223   7.996   5.262 -1.4390  1.4716  2.0381
  202MOL0     H26640  -1.131   8.009   4.995 -0.9329  0.3953 -1.9959
  202MOL0     H26641  -1.190   8.170   5.013  0.4781 -0.8138 -3.8251
  202MOL0     H26642  -1.373   8.016   4.909 -0.8700 -1.0975 -0.0597
  202MOL0     H26643  -1.373   7.929   5.063 -3.4762  0.7425  0.5214
  202MOL0     H26644  -1.425   8.231   5.028  0.5868 -0.7318  1.1105
  202MOL0     H26645  -1.471   8.145   5.165 -2.4042 -0.0213  0.7412
  202MOL0     H26646  -0.351   8.254   5.264 -0.8624  1.4829  4.1282
  202MOL0     H26647  -0.168   8.398   5.205 -0.4995  0.2436  0.2443
  202MOL0     H26648  -0.057   8.883   5.113 -2.0900 -2.2928 -1.9804
  202MOL0     H26649   0.141   9.053   5.083 -0.6242  0.6967 -1.9982
  202MOL0     H26650   1.952   9.667   5.406  1.8730  0.1951  2.1699
  202MOL0     H26651   2.190   9.729   5.343 -1.8448 -1.5290  0.7407
  202MOL0     H26652   2.579  10.043   5.505 -5.0305  1.7252 -2.0936
  202MOL0     H26653   2.820  10.019   5.437  1.3304 -1.3365 -1.2218
  202MOL0     H26654   2.894   9.934   5.003 -2.7043 -1.4184  0.7714
  202MOL0     H26655   2.953   9.799   5.101  1.8876  1.1449  2.2631
  202MOL0     H26656   3.145   9.908   5.173  1.9039  1.0882 -0.8946
  202MOL0     H26657   3.124   9.908   4.994 -0.9092  1.0787 -0.7023
  202MOL0     H26658   3.038  10.163   5.152 -0.6260  1.7163 -2.1300
  202MOL0     H26659   3.071  10.124   4.983 -0.1922 -1.5111 -0.4279
  202MOL0     H26660   3.269  10.254   5.089 -0.3676  1.5918  3.2249
  202MOL0     H26661   3.268  10.127   5.219 -1.6810 -1.1711 -0.4238
  202MOL0     H26662   3.537  10.002   4.915  0.6284  0.9362  0.3977
  202MOL0     H26663   2.696   9.879   5.057 -0.8474  0.6567 -0.0759
  202MOL0     H26664   2.462   9.876   5.126 -0.7038  0.5883  0.7925
  203MOL0     O26665   1.792  11.055   6.687  0.1261  1.3111  0.8631
  203MOL0     C26666   1.725  11.158   6.661  0.4910 -0.2407 -0.4749
  203MOL0     O26667   1.769  11.279   6.611 -0.2804  0.3168 -0.1859
  203MOL0     C26668   1.901  11.291   6.562 -0.2213  0.6434  0.1684
  203MOL0     C26669   1.979  11.401   6.605 -0.5803  0.2710  0.5563
  203MOL0     C26670   2.108  11.420   6.562  0.2938 -0.3578 -0.4403
  203MOL0     C26671   2.167  11.327   6.471 -0.2311 -0.2123 -0.8965
  203MOL0     O26672   2.294  11.337   6.421  0.1340  0.4510  0.1053
  203MOL0     C26673   2.392  11.372   6.516 -0.0054 -0.6238 -0.4703
  203MOL0     C26674   2.526  11.319   6.471 -0.0731 -0.7957 -0.3662
  203MOL0     C26675   2.530  11.170   6.423 -0.6946 -0.0584  0.0235
  203MOL0     C26676   2.516  11.070   6.534 -0.2878  0.0054  0.3375
  203MOL0     C26677   2.509  10.924   6.478  0.1284  0.6618  0.1451
  203MOL0     C26678   2.635  10.880   6.408 -0.1251 -0.0252 -0.0211
  203MOL0     C26679   2.632  10.738   6.350  0.7846 -0.2981  0.1822
  203MOL0     C26680   2.748  10.653   6.405  0.5901  0.0145  1.4047
  203MOL0     N26681   2.727  10.635   6.546  0.0346  0.0799 -1.3787
  203MOL0     C26682   2.631  10.555   6.607  0.3665  0.5084 -0.1422
  203MOL0     C26683   2.661  10.561   6.739 -0.0461 -0.6628  0.3557
  203MOL0     C26684   2.608  10.485   6.858  0.0066 -0.1460  0.3335
  203MOL0     C26685   2.459  10.516   6.872  0.3891 -1.0212 -0.7703
  203MOL0     C26686   2.432  10.655   6.926  0.8157  0.2855  0.0711
  203MOL0     C26687   2.312  10.722   6.865 -0.4689 -0.4142  0.0941
  203MOL0     O26688   2.208  10.625   6.834  0.4383 -0.4508 -0.2238
  203MOL0     C26689   2.103  10.668   6.753 -0.5985 -0.0457  0.8069
  203MOL0     C26690   1.976  10.600   6.767 -0.5134  0.2830 -0.9361
  203MOL0     C26691   1.861  10.624   6.689 -0.6179 -1.7623  0.7047
  203MOL0     C26692   1.868  10.726   6.597 -0.1191 -0.2323  0.0976
  203MOL0     C26693   1.753  10.755   6.508  0.3425 -0.4428  0.6231
  203MOL0     O26694   1.653  10.660   6.515  0.1557 -0.6432 -0.0970
  203MOL0     C26695   1.522  10.691   6.479  0.3829  0.2240 -0.9812
  203MOL0     C26696   1.451  10.810   6.476  0.2371 -0.4571 -0.7045
  203MOL0     C26697   1.315  10.819   6.441 -1.2557 -0.5696  0.9329
  203MOL0     C26698   1.247  10.705   6.407 -0.1545 -0.5049 -0.4861
  203MOL0     O26699   1.113  10.729   6.390 -0.4043  0.3357 -0.8140
  203MOL0     C26700   1.051  10.634   6.312 -0.1058 -0.0016  0.5538
  203MOL0     C26701   0.933  10.680   6.233  0.4986 -0.5366  0.1047
  203MOL0     C26702   0.972  10.780   6.123 -0.1089  1.1211 -0.0453
  203MOL0     C26703   0.848  10.797   6.036 -0.6338  0.5985 -0.0284
  203MOL0     C26704   0.861  10.879   5.902 -0.9638  0.4387  0.1555
  203MOL0     C26705   0.722  10.869   5.827 -0.8286 -0.2342 -0.4803
  203MOL0     C26706   0.742  10.891   5.674  0.0189 -0.7307 -0.1069
  203MOL0     C26707   0.833  10.787   5.599  0.8911 -0.3290  0.3473
  203MOL0    Cl26708   0.744  10.630   5.572 -0.1718  0.1724 -0.3047
  203MOL0     C26709   1.315  10.580   6.410 -0.2846  0.4573 -1.0357
  203MOL0     C26710   1.455  10.571   6.439  0.3532  0.2294  0.1409
  203MOL0     O26711   1.756  10.853   6.432 -0.2733  0.8631 -0.0403
  203MOL0     C26712   1.989  10.798   6.576 -1.2680 -0.4448 -0.2815
  203MOL0     C26713   2.108  10.762   6.649 -0.4524 -0.2942  0.4315
  203MOL0     N26714   2.754  10.667   6.759  0.5391  0.5372  0.8776
  203MOL0     N26715   2.801  10.700   6.640 -0.9559 -0.3831 -0.0172
  203MOL0     C26716   2.088  11.223   6.425  0.0225 -0.5892 -0.3901
  203MOL0     C26717   1.964  11.192   6.481 -0.3007 -0.4842 -0.0051
  203MOL0     C26718   1.579  11.146   6.680 -0.4893 -0.1641 -0.2897
  203MOL0     C26719   1.494  11.250   6.638 -0.3650 -0.2976 -0.9951
  203MOL0     C26720   1.354  11.234   6.652 -0.2761  0.5421  0.3480
  203MOL0     C26721   1.292  11.121   6.711 -0.0809 -0.1339 -0.0104
  203MOL0     O26722   1.157  11.097   6.711 -0.8256 -0.2312 -0.0596
  203MOL0     C26723   1.065  11.203   6.736 -0.2265 -0.0961 -0.8954
  203MOL0     C26724   1.089  11.227   6.893  0.7540 -0.7155  0.5329
  203MOL0     C26725   0.989  11.144   6.984 -1.2232 -0.0070 -0.3491
  203MOL0     C26726   1.015  11.175   7.134 -0.2443  0.2723  0.0750
  203MOL0     C26727   0.912  11.101   7.200 -0.1574  0.6840  0.8696
  203MOL0     C26728   0.826  11.035   7.260  0.0887 -0.0738 -0.1617
  203MOL0     C26729   1.376  11.024   6.756 -0.1986  0.0373 -1.4386
  203MOL0     C26730   1.516  11.036   6.745 -0.3397 -0.3022 -0.8432
  203MOL0     H26731   1.941  11.474   6.676 -1.8876  0.4440 -0.2846
  203MOL0     H26732   2.160  11.502   6.610 -0.2780 -0.5737  0.5737
  203MOL0     H26733   2.357  11.334   6.612 -0.5184  0.7314 -0.0866
  203MOL0     H26734   2.402  11.481   6.527 -0.8007 -0.5270 -0.6196
  203MOL0     H26735   2.589  11.330   6.560  0.3678 -1.9110 -0.5228
  203MOL0     H26736   2.564  11.388   6.395  1.9078 -2.8111 -1.3217
  203MOL0     H26737   2.625  11.155   6.372 -1.7981 -1.9855 -1.5973
  203MOL0     H26738   2.458  11.160   6.341 -0.3936 -3.1943  0.0226
  203MOL0     H26739   2.606  11.084   6.596  0.2746 -0.3631 -0.3789
  203MOL0     H26740   2.428  11.099   6.591 -0.0943  1.3605 -0.0229
  203MOL0     H26741   2.425  10.930   6.408  0.1664  2.4692  0.2099
  203MOL0     H26742   2.482  10.853   6.556 -0.6914  0.6579 -0.1287
  203MOL0     H26743   2.725  10.897   6.468  1.3460  1.1103 -2.3695
  203MOL0     H26744   2.648  10.954   6.328  1.0166 -1.2423 -0.9963
  203MOL0     H26745   2.539  10.687   6.377 -0.1341 -0.3374 -2.6884
  203MOL0     H26746   2.637  10.734   6.240  2.0309  0.7155  0.1721
  203MOL0     H26747   2.844  10.704   6.391 -0.5702  1.5031 -2.6413
  203MOL0     H26748   2.752  10.560   6.348 -1.4446  0.7614 -0.0623
  203MOL0     H26749   2.558  10.501   6.547 -1.3744  2.1742  0.3844
  203MOL0     H26750   2.647  10.534   6.948  1.8897 -0.6939 -0.1561
  203MOL0     H26751   2.633  10.379   6.857  1.3596  0.1404  1.1709
  203MOL0     H26752   2.424  10.453   6.953 -0.3520 -0.2296 -0.4655
  203MOL0     H26753   2.398  10.498   6.783 -0.8078  1.8123 -0.6077
  203MOL0     H26754   2.429  10.636   7.034 -2.9489 -0.8823 -0.0925
  203MOL0     H26755   2.521  10.718   6.920  1.3112 -0.1935  1.7596
  203MOL0     H26756   2.341  10.800   6.793  1.7884 -0.2076  1.1314
  203MOL0     H26757   2.276  10.787   6.946  0.3096  0.6017 -0.3434
  203MOL0     H26758   1.987  10.530   6.849 -2.1927 -0.8379 -1.6007
  203MOL0     H26759   1.772  10.565   6.711 -1.9175 -0.6607 -1.3442
  203MOL0     H26760   1.506  10.899   6.505  1.5812 -1.5371  0.2022
  203MOL0     H26761   1.266  10.915   6.431  1.4431  0.7261 -0.7415
  203MOL0     H26762   1.034  10.535   6.358  0.8942 -0.2932  0.3068
  203MOL0     H26763   1.122  10.620   6.231 -0.9365 -1.7232  0.0589
  203MOL0     H26764   0.871  10.724   6.311  3.2503  0.2370  1.9948
  203MOL0     H26765   0.882  10.591   6.195  0.3258 -0.3865 -0.0185
  203MOL0     H26766   1.050  10.740   6.057 -2.2374 -0.2575 -1.8636
  203MOL0     H26767   0.986  10.879   6.168 -2.1131  1.8825 -0.9692
  203MOL0     H26768   0.823  10.694   6.008  0.9048 -0.2915  1.6753
  203MOL0     H26769   0.760  10.832   6.092  1.4293  2.3394  2.3183
  203MOL0     H26770   0.945  10.830   5.852  0.1237 -0.6024  2.8011
  203MOL0     H26771   0.899  10.978   5.929  1.0850 -0.8287  2.3740
  203MOL0     H26772   0.649  10.941   5.865 -1.7122 -1.1292 -0.4506
  203MOL0     H26773   0.686  10.770   5.853  2.3608 -0.8726  2.1612
  203MOL0     H26774   0.646  10.886   5.621 -1.7464  0.7037  2.6814
  203MOL0     H26775   0.783  10.990   5.651 -0.7396 -0.7114 -1.4602
  203MOL0     H26776   0.915  10.757   5.663  1.7250  2.4331  0.7033
  203MOL0     H26777   0.853  10.835   5.502 -0.0760 -2.9538 -1.2546
  203MOL0     H26778   1.256  10.489   6.400  2.5757 -2.0530  2.2670
  203MOL0     H26779   1.511  10.479   6.436 -0.0690 -0.0065 -0.7178
  203MOL0     H26780   1.991  10.879   6.504 -0.2290  0.6955  0.9927
  203MOL0     H26781   2.201  10.814   6.626 -1.3301  0.3115 -2.1010
  203MOL0     H26782   2.133  11.148   6.360 -3.4277 -0.6740 -3.0160
  203MOL0     H26783   1.903  11.110   6.443 -2.3131  0.5895  0.7253
  203MOL0     H26784   1.525  11.351   6.612 -0.2375  0.4017  1.5567
  203MOL0     H26785   1.292  11.316   6.619 -1.5490 -0.8168 -0.7354
  203MOL0     H26786   0.961  11.170   6.721 -0.2810 -0.5359  0.3254
  203MOL0     H26787   1.087  11.291   6.675 -0.9625 -0.3486 -1.5506
  203MOL0     H26788   1.194  11.209   6.917  1.8875 -0.5380 -3.5216
  203MOL0     H26789   1.069  11.334   6.909  3.8751  0.0696 -0.1838
  203MOL0     H26790   0.991  11.037   6.964  3.0210  0.1672 -1.9781
  203MOL0     H26791   0.891  11.188   6.964 -0.3871  3.1424  1.5722
  203MOL0     H26792   1.118  11.149   7.160  1.3376  2.8782 -2.9803
  203MOL0     H26793   1.004  11.282   7.156 -0.8174  0.1227  0.5442
  203MOL0     H26794   0.756  10.985   7.324  2.5768 -3.8190  0.0167
  203MOL0     H26795   1.332  10.935   6.799  1.9714  0.1862  1.3535
  203MOL0     H26796   1.571  10.959   6.799 -2.0622 -0.2182  1.1579
  204MOL0     O26797   6.061   2.302   0.885  0.5221  0.4493 -0.2296
  204MOL0     C26798   6.102   2.330   0.998  0.6243  0.1885  1.0643
  204MOL0     O26799   6.070   2.442   1.065 -0.5648 -0.2888  0.4734
  204MOL0     C26800   5.969   2.528   1.032  0.1404 -0.5566  0.3501
  204MOL0     C26801   5.982   2.580   0.900  0.9691  0.0596 -0.2999
  204MOL0     C26802   5.899   2.693   0.869  0.1219 -0.6703 -0.0879
  204MOL0     C26803   5.811   2.742   0.965 -0.3824  0.1655 -0.7093
  204MOL0     O26804   5.731   2.853   0.921  0.3640  0.0216 -0.4142
  204MOL0     C26805   5.593   2.812   0.902  0.8893  0.1253 -0.4746
  204MOL0     C26806   5.494   2.922   0.909  0.6448  0.0872 -0.1754
  204MOL0     C26807   5.363   2.876   0.850 -0.0768  0.5020 -0.3339
  204MOL0     C26808   5.256   2.984   0.885 -0.5570  0.5881  0.4103
  204MOL0     C26809   5.113   2.923   0.883  0.5215  0.3005  0.0596
  204MOL0     C26810   5.012   3.031   0.939 -0.4755 -0.2778  0.1552
  204MOL0     C26811   5.000   3.144   0.836 -0.5795  0.3227  0.4346
  204MOL0     C26812   4.853   3.186   0.804  0.0900 -0.0220 -0.1956
  204MOL0     N26813   4.855   3.320   0.759  0.4015 -0.1892 -0.5859
  204MOL0     C26814   4.790   3.434   0.817  0.8917  1.4478  0.1730
  204MOL0     C26815   4.825   3.538   0.747 -0.7231  0.0457 -0.7081
  204MOL0     C26816   4.791   3.684   0.784 -0.8036  0.2385  0.1220
  204MOL0     C26817   4.910   3.763   0.820  0.5634  0.1430  0.2554
  204MOL0     C26818   4.993   3.721   0.937 -0.7530 -0.4054  1.8186
  204MOL0     C26819   4.923   3.726   1.071  0.0124  0.6666 -0.4368
  204MOL0     O26820   4.918   3.859   1.112 -0.5722  0.6110 -0.3957
  204MOL0     C26821   4.804   3.938   1.098 -0.3109 -0.1639 -0.5983
  204MOL0     C26822   4.682   3.885   1.074  1.6744  0.0165  0.3158
  204MOL0     C26823   4.566   3.963   1.056  0.4204 -1.4056  0.4576
  204MOL0     C26824   4.576   4.098   1.074 -0.3836  0.7432 -0.5772
  204MOL0     C26825   4.457   4.184   1.047 -0.3757 -0.7699 -0.3875
  204MOL0     O26826   4.332   4.120   1.042 -0.7607 -0.7511  0.2866
  204MOL0     C26827   4.228   4.172   0.970 -0.4925  0.1152 -0.0318
  204MOL0     C26828   4.104   4.134   1.019 -0.8804  0.5677  0.8274
  204MOL0     C26829   3.994   4.177   0.949  1.1195  0.3451  0.0430
  204MOL0     C26830   4.003   4.260   0.840 -0.7693  0.0762 -0.8683
  204MOL0     O26831   3.894   4.300   0.771 -0.4074 -0.5873 -0.3979
  204MOL0     C26832   3.831   4.417   0.821 -0.2541 -0.0049  0.7204
  204MOL0     C26833   3.683   4.408   0.777  0.9733 -0.0478  0.5094
  204MOL0     C26834   3.608   4.543   0.794 -0.6329  0.8927 -0.1305
  204MOL0     C26835   3.465   4.513   0.839 -0.1661 -0.5948 -0.4691
  204MOL0     C26836   3.371   4.441   0.735 -0.6068 -0.3988  0.1552
  204MOL0     C26837   3.219   4.443   0.778  0.5278 -0.0509 -0.3034
  204MOL0     C26838   3.135   4.381   0.676 -0.5363 -0.0178  0.4327
  204MOL0     C26839   2.990   4.398   0.696 -0.1523  0.8720 -0.4892
  204MOL0    Cl26840   2.934   4.563   0.669 -0.2892  0.0394 -0.1967
  204MOL0     C26841   4.134   4.296   0.793  0.5929 -0.3843  0.3938
  204MOL0     C26842   4.240   4.249   0.858  0.1572  0.3808 -0.3158
  204MOL0     O26843   4.476   4.300   1.013 -0.1563 -0.1903 -0.0409
  204MOL0     C26844   4.699   4.157   1.085 -0.4006  0.3538 -0.0606
  204MOL0     C26845   4.808   4.078   1.103 -1.1322 -0.0054  0.0108
  204MOL0     N26846   4.917   3.496   0.648  0.6085  0.0927  0.3297
  204MOL0     N26847   4.927   3.367   0.656 -0.0085  0.1628  0.0778
  204MOL0     C26848   5.799   2.688   1.094  0.8983 -0.4174  0.7738
  204MOL0     C26849   5.881   2.584   1.131  0.6232 -0.2465 -0.4205
  204MOL0     C26850   6.219   2.248   1.056  0.0770 -0.2849 -1.0979
  204MOL0     C26851   6.279   2.141   0.999 -0.2752  1.2203  0.7941
  204MOL0     C26852   6.379   2.064   1.060 -0.2588  0.4524 -0.2442
  204MOL0     C26853   6.405   2.085   1.190 -0.2675  0.3263  0.5976
  204MOL0     O26854   6.513   2.007   1.240  0.4335  0.2911  0.3805
  204MOL0     C26855   6.539   2.006   1.379 -0.0332  0.1705  0.2183
  204MOL0     C26856   6.688   2.005   1.387 -0.1468 -0.5923 -0.6982
  204MOL0     C26857   6.717   2.016   1.538  0.2420 -0.2960  1.4956
  204MOL0     C26858   6.865   2.010   1.557  0.2206  0.5690  0.4205
  204MOL0     C26859   6.937   2.129   1.514 -0.3227  0.1553 -0.5892
  204MOL0     C26860   6.988   2.227   1.472 -0.3134  0.4213  0.9964
  204MOL0     C26861   6.363   2.205   1.247  0.4492  0.0324  0.6806
  204MOL0     C26862   6.261   2.276   1.179  0.8289  1.2278 -0.0953
  204MOL0     H26863   6.053   2.529   0.837 -0.5656 -1.8049 -0.6077
  204MOL0     H26864   5.912   2.745   0.774  3.0344 -1.5087 -0.2369
  204MOL0     H26865   5.568   2.744   0.985  0.2459  0.5440 -0.3271
  204MOL0     H26866   5.567   2.763   0.808 -0.8288  0.1201 -0.0273
  204MOL0     H26867   5.518   3.014   0.855  0.3970  2.1256  2.9074
  204MOL0     H26868   5.484   2.952   1.014  0.2951 -0.1537 -0.1378
  204MOL0     H26869   5.329   2.781   0.890 -0.7297 -0.1109 -2.2369
  204MOL0     H26870   5.367   2.863   0.741  0.0962 -0.5967 -0.2056
  204MOL0     H26871   5.269   3.041   0.977  0.4705  1.9111 -0.5154
  204MOL0     H26872   5.260   3.064   0.810  2.8093  0.0863 -0.0838
  204MOL0     H26873   5.102   2.837   0.948 -0.9545  0.0813 -0.4563
  204MOL0     H26874   5.093   2.894   0.779  1.2905  0.7908 -0.2406
  204MOL0     H26875   5.044   3.079   1.032 -0.1714 -0.3973  0.1115
  204MOL0     H26876   4.919   2.982   0.969  0.3582 -1.6489  0.6206
  204MOL0     H26877   5.069   3.223   0.869 -0.8902 -0.1694  2.4086
  204MOL0     H26878   5.047   3.104   0.746  3.0631  1.0394  1.8348
  204MOL0     H26879   4.785   3.164   0.887 -4.0425  3.8731 -2.1368
  204MOL0     H26880   4.824   3.122   0.720  0.8078  1.0549 -1.3079
  204MOL0     H26881   4.734   3.433   0.910  1.3255 -0.0757  0.4465
  204MOL0     H26882   4.713   3.689   0.861  0.0062  1.5680  0.8867
  204MOL0     H26883   4.749   3.743   0.701  1.8940  3.7047  0.9752
  204MOL0     H26884   4.876   3.866   0.836  1.0399  1.0173 -3.4870
  204MOL0     H26885   4.983   3.779   0.741  0.9705  0.9820  0.7939
  204MOL0     H26886   5.024   3.618   0.919 -1.1499 -0.0466 -1.6299
  204MOL0     H26887   5.086   3.779   0.947 -1.1167 -0.0039  2.9584
  204MOL0     H26888   4.983   3.670   1.143  0.6582  0.9137 -0.7688
  204MOL0     H26889   4.831   3.667   1.069  0.0494  0.6085 -1.9663
  204MOL0     H26890   4.662   3.779   1.062  0.0204  0.5308 -2.1472
  204MOL0     H26891   4.465   3.924   1.054 -0.3079  0.3170  1.8061
  204MOL0     H26892   4.100   4.092   1.119  1.1746 -1.3183  0.2041
  204MOL0     H26893   3.895   4.144   0.980 -0.5855  1.3840 -3.6966
  204MOL0     H26894   3.874   4.511   0.785  0.5369 -0.7249 -0.3017
  204MOL0     H26895   3.821   4.426   0.929  0.3995 -1.8043  0.9662
  204MOL0     H26896   3.632   4.336   0.842 -1.7130  0.7290 -0.5816
  204MOL0     H26897   3.660   4.368   0.677  0.0687  4.6562 -1.4407
  204MOL0     H26898   3.616   4.606   0.705  2.2803  1.0873  0.1619
  204MOL0     H26899   3.650   4.601   0.877 -0.5259 -0.0529  0.5006
  204MOL0     H26900   3.461   4.456   0.932 -2.1160 -0.2803 -0.3163
  204MOL0     H26901   3.418   4.611   0.851 -0.5742 -0.5603 -2.1178
  204MOL0     H26902   3.403   4.339   0.713  0.5598 -0.5139  2.1820
  204MOL0     H26903   3.381   4.498   0.643 -4.3498 -0.2756 -0.3455
  204MOL0     H26904   3.189   4.548   0.787 -2.0712 -0.6564 -1.1645
  204MOL0     H26905   3.208   4.389   0.872 -3.4692  1.7383  0.4348
  204MOL0     H26906   3.169   4.427   0.583  1.5306 -2.7616 -0.2924
  204MOL0     H26907   3.157   4.275   0.660  0.5799  0.1576  0.7167
  204MOL0     H26908   2.968   4.368   0.798  0.6407 -1.2697 -0.8858
  204MOL0     H26909   2.945   4.329   0.624 -0.2956  0.1856  0.2524
  204MOL0     H26910   4.134   4.365   0.709  1.3509 -0.9181 -0.0589
  204MOL0     H26911   4.336   4.292   0.830  0.5430 -0.0935  0.2391
  204MOL0     H26912   4.719   4.264   1.088 -0.1583  0.3888 -1.9443
  204MOL0     H26913   4.904   4.129   1.106 -0.8517  0.0197 -4.0666
  204MOL0     H26914   5.727   2.725   1.166  0.5655 -0.7193  0.6016
  204MOL0     H26915   5.879   2.548   1.233 -2.8184 -1.5479 -0.8027
  204MOL0     H26916   6.259   2.109   0.897  2.0255  3.0935 -0.3477
  204MOL0     H26917   6.418   1.980   1.003 -3.9766 -1.9025  0.2840
  204MOL0     H26918   6.489   1.918   1.419 -0.5772 -0.0628 -0.9471
  204MOL0     H26919   6.493   2.090   1.433  0.8154 -1.1895  3.2437
  204MOL0     H26920   6.729   1.909   1.355  1.5426 -0.2088  0.1317
  204MOL0     H26921   6.740   2.087   1.336  0.7591  0.3168  1.5189
  204MOL0     H26922   6.658   1.943   1.594 -2.1939  1.1394  0.9458
  204MOL0     H26923   6.669   2.111   1.563 -1.6305 -0.9078  0.4125
  204MOL0     H26924   6.890   1.985   1.661  2.3972 -0.5613 -0.3200
  204MOL0     H26925   6.914   1.923   1.514  0.7400  0.6418  0.8596
  204MOL0     H26926   7.037   2.313   1.431  1.5668 -0.4588  1.2799
  204MOL0     H26927   6.400   2.241   1.343 -0.7782 -2.5037  2.2169
  204MOL0     H26928   6.212   2.352   1.238  0.6484  0.6268  0.5397
  205MOL0     O26929   0.623   2.386   7.482  0.4033  0.2658 -0.2026
  205MOL0     C26930   0.736   2.424   7.521 -0.6510  0.3503  0.2343
  205MOL0     O26931   0.766   2.525   7.609  0.3321  0.0139  0.6820
  205MOL0     C26932   0.663   2.594   7.668  0.0623  0.9039  0.8973
  205MOL0     C26933   0.618   2.715   7.619 -0.7246  0.7746  0.2988
  205MOL0     C26934   0.515   2.784   7.682  0.0383  0.0801 -0.3267
  205MOL0     C26935   0.449   2.719   7.791  0.0620 -0.4222  0.4208
  205MOL0     O26936   0.325   2.753   7.837  0.0150 -0.2553 -0.1413
  205MOL0     C26937   0.277   2.881   7.788  0.5948  0.4226 -0.5456
  205MOL0     C26938   0.138   2.897   7.848 -0.4601  0.8441  1.0943
  205MOL0     C26939   0.071   3.029   7.805  0.5425 -0.0459  0.2585
  205MOL0     C26940  -0.060   3.055   7.873 -0.0777 -0.1617 -0.2489
  205MOL0     C26941  -0.142   3.159   7.799  0.0281  0.0491 -0.0602
  205MOL0     C26942  -0.273   3.215   7.860 -0.9327 -0.3220 -0.3605
  205MOL0     C26943  -0.394   3.227   7.762 -0.4743  0.9960  0.7496
  205MOL0     C26944  -0.361   3.339   7.674  0.8172 -0.4824 -0.9101
  205MOL0     N26945  -0.334   3.470   7.736 -0.4498 -0.8045  0.0576
  205MOL0     C26946  -0.423   3.559   7.795  0.0679 -0.0381 -0.7889
  205MOL0     C26947  -0.362   3.672   7.822 -0.8350  0.1165  0.3073
  205MOL0     C26948  -0.416   3.794   7.885 -0.3281  0.4417 -0.0539
  205MOL0     C26949  -0.412   3.916   7.793 -0.2770  0.8041  0.8539
  205MOL0     C26950  -0.519   3.915   7.675  0.3442  0.9844 -0.4305
  205MOL0     C26951  -0.509   4.050   7.602  0.8878  0.0118 -0.0744
  205MOL0     O26952  -0.598   4.047   7.491 -0.6794 -0.1950 -0.1998
  205MOL0     C26953  -0.726   4.075   7.503  0.3103  0.6731  0.1516
  205MOL0     C26954  -0.786   4.112   7.621  1.2630  0.4314  0.1488
  205MOL0     C26955  -0.930   4.124   7.625 -0.0998 -0.7239  0.5676
  205MOL0     C26956  -1.002   4.111   7.508  0.3314  0.2853  0.7133
  205MOL0     C26957  -1.145   4.148   7.512 -0.0677  0.0193  0.9633
  205MOL0     O26958  -1.192   4.222   7.617  0.4159  0.3032 -0.3415
  205MOL0     C26959  -1.324   4.249   7.614  0.5086  0.9273 -0.2539
  205MOL0     C26960  -1.407   4.240   7.731 -0.2535  0.9759 -0.3608
  205MOL0     C26961  -1.542   4.283   7.735  0.2850 -0.2521  0.8156
  205MOL0     C26962  -1.596   4.342   7.624  0.2978 -0.1418 -0.5147
  205MOL0     O26963  -1.720   4.404   7.631  0.0286  1.0382 -0.0586
  205MOL0     C26964  -1.826   4.340   7.701 -0.2025 -0.0565 -0.1070
  205MOL0     C26965  -1.949   4.420   7.645  0.7747  0.4068 -0.2043
  205MOL0     C26966  -2.086   4.352   7.694 -0.6834  0.3049  0.2114
  205MOL0     C26967  -2.193   4.456   7.675 -0.3595 -0.7897  0.2038
  205MOL0     C26968  -2.333   4.390   7.690 -0.4593  0.7243  0.2848
  205MOL0     C26969  -2.443   4.463   7.614  0.2538 -0.5232 -1.3304
  205MOL0     C26970  -2.582   4.432   7.668 -0.5174 -0.9274  0.2468
  205MOL0     C26971  -2.702   4.478   7.591 -0.6774  0.8241 -0.8275
  205MOL0    Cl26972  -2.832   4.381   7.641 -0.0520  0.2883 -0.2414
  205MOL0     C26973  -1.521   4.359   7.510 -0.1326 -0.5982  0.5311
  205MOL0     C26974  -1.380   4.325   7.512  0.5115 -0.3357 -0.2421
  205MOL0     O26975  -1.215   4.109   7.420 -0.0407  0.1543  0.1255
  205MOL0     C26976  -0.940   4.083   7.385 -0.8527  0.0952  0.3201
  205MOL0     C26977  -0.795   4.070   7.383  0.4740 -0.2908  0.7448
  205MOL0     N26978  -0.230   3.667   7.777  0.1401 -0.7516  0.2272
  205MOL0     N26979  -0.218   3.544   7.720  0.0474  0.3060 -0.2658
  205MOL0     C26980   0.498   2.595   7.844 -0.3848 -0.9214 -0.5398
  205MOL0     C26981   0.604   2.533   7.776 -0.0580 -0.5723  0.2829
  205MOL0     C26982   0.852   2.337   7.481 -0.1486 -0.0473 -0.1057
  205MOL0     C26983   0.827   2.225   7.404 -0.1693 -0.1282 -0.0291
  205MOL0     C26984   0.927   2.133   7.374 -0.2311  0.1804  1.0901
  205MOL0     C26985   1.067   2.156   7.409 -0.6764  0.2096  0.3242
  205MOL0     O26986   1.156   2.052   7.374  0.3971 -0.6403 -0.0974
  205MOL0     C26987   1.290   2.081   7.396 -1.1922 -0.3984  0.4144
  205MOL0     C26988   1.374   1.968   7.343  0.5558  0.2548  0.3865
  205MOL0     C26989   1.527   1.985   7.363  0.1963  0.4014  0.1071
  205MOL0     C26990   1.617   1.892   7.283 -0.6789 -0.0119 -1.2502
  205MOL0     C26991   1.600   1.752   7.328  0.0627 -0.1166 -0.6091
  205MOL0     C26992   1.589   1.640   7.376  0.4445  0.1140  0.5316
  205MOL0     C26993   1.089   2.272   7.481 -0.6890 -0.4318  0.3535
  205MOL0     C26994   0.985   2.363   7.519 -0.4416 -0.1378 -0.9828
  205MOL0     H26995   0.678   2.742   7.533 -1.9273 -1.9180 -1.5233
  205MOL0     H26996   0.499   2.885   7.645  1.1686  0.2212 -0.4835
  205MOL0     H26997   0.279   2.907   7.682 -0.3197 -0.7366 -0.8612
  205MOL0     H26998   0.344   2.950   7.841  1.1522 -1.3654  1.2084
  205MOL0     H26999   0.153   2.899   7.956  0.2518  1.5897  0.9901
  205MOL0     H27000   0.075   2.813   7.818 -1.2633  0.5513  3.4342
  205MOL0     H27001   0.046   3.007   7.701 -0.7106  0.1564  0.4954
  205MOL0     H27002   0.129   3.121   7.818  2.8922 -1.4964  0.7369
  205MOL0     H27003  -0.117   2.963   7.884  0.5303 -0.4778  0.3452
  205MOL0     H27004  -0.033   3.096   7.971 -0.6972 -0.3930  0.0238
  205MOL0     H27005  -0.176   3.110   7.707 -0.9842 -0.5079  0.5986
  205MOL0     H27006  -0.086   3.250   7.775 -1.2325  1.3360  1.6523
  205MOL0     H27007  -0.255   3.308   7.914  2.3447  0.1778 -2.0188
  205MOL0     H27008  -0.310   3.141   7.931  0.6826 -0.6295  0.2167
  205MOL0     H27009  -0.405   3.137   7.701 -2.8618  1.1178  0.9078
  205MOL0     H27010  -0.487   3.245   7.818 -1.1732  0.2853 -0.1413
  205MOL0     H27011  -0.455   3.363   7.623  1.6360  1.5181 -1.5930
  205MOL0     H27012  -0.286   3.315   7.598 -0.4596  0.4462 -2.5161
  205MOL0     H27013  -0.527   3.544   7.821  0.8552 -1.2519  2.0542
  205MOL0     H27014  -0.343   3.825   7.960 -1.7508  5.1412 -0.3196
  205MOL0     H27015  -0.512   3.784   7.937 -0.6932  2.9472 -0.1507
  205MOL0     H27016  -0.310   3.925   7.754  0.0850 -1.3173  1.1786
  205MOL0     H27017  -0.431   4.002   7.858 -1.3907  0.8444  0.5064
  205MOL0     H27018  -0.485   3.840   7.604  3.4914  0.8977  1.0213
  205MOL0     H27019  -0.621   3.894   7.708 -0.7479  2.9576 -2.2870
  205MOL0     H27020  -0.407   4.072   7.569  0.6531 -1.0471 -1.5646
  205MOL0     H27021  -0.529   4.135   7.668  2.5371 -1.1790  2.0755
  205MOL0     H27022  -0.743   4.119   7.720 -2.1503 -0.1213  1.8386
  205MOL0     H27023  -0.982   4.164   7.711 -1.8484  2.7143 -1.8274
  205MOL0     H27024  -1.370   4.194   7.823 -3.3720  1.3096  1.2032
  205MOL0     H27025  -1.601   4.267   7.825 -1.9839 -0.1195 -0.5783
  205MOL0     H27026  -1.825   4.335   7.810  0.6978 -3.1597 -0.1493
  205MOL0     H27027  -1.829   4.235   7.671 -1.2256  0.1692 -0.8335
  205MOL0     H27028  -1.948   4.430   7.536 -0.1821  0.2790 -0.2338
  205MOL0     H27029  -1.944   4.522   7.684  0.0607  0.3229  0.1091
  205MOL0     H27030  -2.079   4.323   7.799  0.2794 -0.3596 -0.0225
  205MOL0     H27031  -2.110   4.258   7.644 -1.8873 -0.7121  2.5479
  205MOL0     H27032  -2.178   4.537   7.748 -0.4003  0.4256 -1.0862
  205MOL0     H27033  -2.182   4.511   7.581 -0.1825  0.8323  1.1287
  205MOL0     H27034  -2.363   4.386   7.795 -0.7709  1.1196  0.2114
  205MOL0     H27035  -2.333   4.288   7.649 -1.1165  0.4937  0.8366
  205MOL0     H27036  -2.435   4.454   7.505 -0.3911 -0.6334 -1.3719
  205MOL0     H27037  -2.432   4.569   7.639  1.6570 -0.6293 -1.3967
  205MOL0     H27038  -2.600   4.324   7.660 -0.5160 -0.9253  0.2121
  205MOL0     H27039  -2.584   4.469   7.770 -1.3525 -1.7363  0.5365
  205MOL0     H27040  -2.677   4.460   7.486  3.5200  0.8594  0.0118
  205MOL0     H27041  -2.711   4.586   7.605  1.3684  0.7748  1.4717
  205MOL0     H27042  -1.560   4.422   7.431 -3.4445  0.2546  2.6661
  205MOL0     H27043  -1.317   4.374   7.439  2.4895  0.5572  1.9189
  205MOL0     H27044  -1.009   4.073   7.302 -0.8556  2.2028  0.0215
  205MOL0     H27045  -0.739   4.047   7.293 -0.3841  0.7080 -0.0688
  205MOL0     H27046   0.456   2.542   7.929  0.6248  0.6861  1.0214
  205MOL0     H27047   0.640   2.436   7.807  1.5438 -0.6007 -1.4566
  205MOL0     H27048   0.728   2.201   7.367  0.8546 -1.7204 -1.9092
  205MOL0     H27049   0.894   2.043   7.324 -1.0548  1.3987 -0.6562
  205MOL0     H27050   1.308   2.106   7.500  0.4913  5.8115 -0.9701
  205MOL0     H27051   1.324   2.161   7.330 -1.1297 -0.4600  0.3725
  205MOL0     H27052   1.325   1.887   7.397 -2.5456 -0.2818 -2.8876
  205MOL0     H27053   1.347   1.944   7.240 -3.4859 -4.0361  2.0963
  205MOL0     H27054   1.539   1.952   7.467  2.2034 -0.4367 -0.3573
  205MOL0     H27055   1.559   2.089   7.355  2.4271 -0.2372  0.0783
  205MOL0     H27056   1.607   1.886   7.175 -0.3677 -0.8237 -1.2411
  205MOL0     H27057   1.723   1.917   7.296 -1.1021  0.2882  3.4176
  205MOL0     H27058   1.578   1.550   7.433 -0.0495  0.9617  1.8164
  205MOL0     H27059   1.187   2.288   7.525 -0.1870 -1.0453 -0.5095
  205MOL0     H27060   0.998   2.437   7.597 -2.3426 -1.4465  0.6717
  206MOL0     O27061   8.856   0.481   8.565  0.6296 -0.4804 -0.8954
  206MOL0     C27062   8.922   0.559   8.632 -1.6084  0.8713  0.7622
  206MOL0     O27063   8.876   0.657   8.711 -0.1396 -0.5442  0.1634
  206MOL0     C27064   8.742   0.672   8.739  0.1925  0.7193  0.7100
  206MOL0     C27065   8.692   0.606   8.855  0.6783 -0.5955  0.7436
  206MOL0     C27066   8.553   0.589   8.881 -0.6722 -0.2609  0.6251
  206MOL0     C27067   8.464   0.654   8.790 -0.2115 -0.2533  0.7403
  206MOL0     O27068   8.324   0.660   8.810 -0.5992 -0.4046  0.2225
  206MOL0     C27069   8.269   0.597   8.927 -0.0433 -0.0674 -0.3482
  206MOL0     C27070   8.128   0.609   8.954  0.8500  0.1280 -0.1334
  206MOL0     C27071   8.082   0.750   8.994  1.0026 -0.3757  0.2485
  206MOL0     C27072   7.923   0.773   9.010  0.3494  0.4303  0.1506
  206MOL0     C27073   7.888   0.911   9.067  0.1722  0.5388  0.5686
  206MOL0     C27074   7.733   0.933   9.097 -0.3579 -0.5814  0.6525
  206MOL0     C27075   7.701   1.086   9.120  0.4624 -0.1689 -0.8101
  206MOL0     C27076   7.549   1.099   9.141 -0.1429  0.2243  0.7089
  206MOL0     N27077   7.483   1.233   9.113 -0.4435  0.4420 -0.2380
  206MOL0     C27078   7.358   1.249   9.068  1.1528 -0.0088 -0.2597
  206MOL0     C27079   7.340   1.384   9.073  0.8949 -0.1190  0.0093
  206MOL0     C27080   7.225   1.476   9.031  0.0134 -0.2781 -0.3202
  206MOL0     C27081   7.083   1.422   9.043  0.2447  0.7053 -0.7983
  206MOL0     C27082   7.037   1.338   8.919  1.2479  0.3200 -0.2379
  206MOL0     C27083   6.882   1.304   8.917 -0.1816  0.5494 -0.2660
  206MOL0     O27084   6.841   1.281   9.049 -0.1667 -0.6320 -0.7242
  206MOL0     C27085   6.705   1.291   9.067  0.8685  0.1531 -0.4297
  206MOL0     C27086   6.675   1.372   9.174 -0.2620 -0.8174 -0.7024
  206MOL0     C27087   6.540   1.410   9.199 -0.1369 -0.9286 -0.6222
  206MOL0     C27088   6.440   1.364   9.115  0.3745  0.1075  0.0305
  206MOL0     C27089   6.301   1.397   9.155  0.5340  0.3857 -0.1959
  206MOL0     O27090   6.272   1.461   9.271 -0.1268  0.1731 -0.0900
  206MOL0     C27091   6.155   1.529   9.295  0.2923  0.1110 -0.0691
  206MOL0     C27092   6.121   1.553   9.426 -0.4000  0.0731  0.5123
  206MOL0     C27093   6.012   1.633   9.468  0.0714  0.0819 -0.6600
  206MOL0     C27094   5.934   1.688   9.378  0.9744  0.0153 -0.1060
  206MOL0     O27095   5.822   1.764   9.414 -0.6444 -0.4541  0.5984
  206MOL0     C27096   5.811   1.845   9.534 -0.5038 -0.4465 -0.6214
  206MOL0     C27097   5.680   1.926   9.534 -0.4855  0.6607  0.6303
  206MOL0     C27098   5.659   2.009   9.656 -0.1855  0.2643 -1.0948
  206MOL0     C27099   5.526   2.073   9.657 -0.0657  0.6346  0.0200
  206MOL0     C27100   5.494   2.119   9.802  0.0304 -0.1818  0.3317
  206MOL0     C27101   5.363   2.200   9.812  0.1150  0.2339 -0.6771
  206MOL0     C27102   5.227   2.125   9.788 -0.1458 -0.1230  0.0472
  206MOL0     C27103   5.118   2.232   9.782  0.7223 -0.5695 -0.4784
  206MOL0    Cl27104   5.005   2.171   9.672  0.1274 -0.5377  0.0042
  206MOL0     C27105   5.956   1.657   9.241  0.9633 -0.2850 -1.2850
  206MOL0     C27106   6.057   1.580   9.203 -0.8298 -0.4432 -0.0152
  206MOL0     O27107   6.212   1.364   9.070  0.4902 -0.2666 -0.2220
  206MOL0     C27108   6.474   1.266   9.017 -0.1359 -0.4492 -0.0470
  206MOL0     C27109   6.606   1.232   8.993  0.2037  0.3798  0.5118
  206MOL0     N27110   7.451   1.448   9.119 -0.4731  0.3066  0.7548
  206MOL0     N27111   7.532   1.354   9.153  0.4618 -0.2979  0.1492
  206MOL0     C27112   8.518   0.718   8.673  0.1614  0.0547 -0.1385
  206MOL0     C27113   8.650   0.728   8.648 -0.1788  0.1682 -0.1616
  206MOL0     C27114   9.065   0.537   8.624 -0.6599 -0.3463  0.0447
  206MOL0     C27115   9.124   0.431   8.557  0.3342  0.0710  0.4244
  206MOL0     C27116   9.260   0.404   8.558  0.7352  0.8048 -0.6473
  206MOL0     C27117   9.347   0.485   8.625  0.1857  0.6111 -0.1031
  206MOL0     O27118   9.474   0.454   8.634  0.0372  0.1373  0.5961
  206MOL0     C27119   9.568   0.521   8.559  0.2738  0.8860  1.1503
  206MOL0     C27120   9.574   0.482   8.412 -0.1480  0.4620 -0.0576
  206MOL0     C27121   9.630   0.338   8.390 -1.0475  0.0668 -0.6242
  206MOL0     C27122   9.706   0.321   8.263 -0.0229  0.6272  0.3422
  206MOL0     C27123   9.846   0.361   8.276  0.5883  0.4050  0.7145
  206MOL0     C27124   9.957   0.393   8.288  0.5069 -0.5201 -0.4243
  206MOL0     C27125   9.290   0.593   8.698  0.0949 -1.2072  1.0624
  206MOL0     C27126   9.151   0.624   8.698 -0.1615 -0.4631  0.8996
  206MOL0     H27127   8.770   0.547   8.903  0.6255 -2.9434 -1.7899
  206MOL0     H27128   8.517   0.533   8.966  0.4128  2.5606  3.1015
  206MOL0     H27129   8.320   0.633   9.017  1.2687  0.1305 -1.1590
  206MOL0     H27130   8.285   0.489   8.936  0.8909  0.2247  2.4257
  206MOL0     H27131   8.093   0.548   9.037 -2.8911 -0.2406 -1.7528
  206MOL0     H27132   8.070   0.568   8.871  1.6625 -0.6013 -0.3489
  206MOL0     H27133   8.127   0.832   8.938  2.8353 -0.7734  1.0536
  206MOL0     H27134   8.128   0.769   9.092  1.8440  1.5625 -0.4876
  206MOL0     H27135   7.882   0.770   8.909 -0.2004  2.3565  0.2819
  206MOL0     H27136   7.882   0.693   9.073  2.1978 -1.0689 -0.4225
  206MOL0     H27137   7.904   0.977   8.982  0.4184  0.9889  0.9554
  206MOL0     H27138   7.953   0.947   9.148  0.7960  3.0793 -0.9292
  206MOL0     H27139   7.692   0.874   9.179 -2.2440 -1.4950 -0.8552
  206MOL0     H27140   7.687   0.892   9.006  1.1889  0.7757 -0.8160
  206MOL0     H27141   7.747   1.115   9.215 -2.5068 -2.4944  1.5078
  206MOL0     H27142   7.735   1.142   9.032  4.5273 -0.2116  0.5338
  206MOL0     H27143   7.522   1.074   9.244 -1.9789 -2.5137 -0.3011
  206MOL0     H27144   7.489   1.034   9.076 -0.8068  1.1191  0.4057
  206MOL0     H27145   7.290   1.167   9.044 -0.1984  1.6373 -2.4191
  206MOL0     H27146   7.240   1.498   8.925 -0.7946  0.7516 -0.2486
  206MOL0     H27147   7.229   1.564   9.097  3.0432 -0.0920 -0.6230
  206MOL0     H27148   7.017   1.510   9.044 -2.8983 -1.4912 -0.9696
  206MOL0     H27149   7.072   1.367   9.137  2.8413  0.5134 -0.5439
  206MOL0     H27150   7.052   1.388   8.823 -1.8559  2.0059  0.0253
  206MOL0     H27151   7.087   1.241   8.929 -2.3620 -1.7728 -0.9908
  206MOL0     H27152   6.879   1.224   8.844  1.5754  2.3372 -2.4391
  206MOL0     H27153   6.823   1.386   8.876  0.6898  0.4958 -1.6693
  206MOL0     H27154   6.750   1.420   9.237 -1.5057  1.7883 -1.0540
  206MOL0     H27155   6.505   1.470   9.282 -0.0634  1.4664 -2.2427
  206MOL0     H27156   6.191   1.517   9.501  0.2022  1.4261  0.6174
  206MOL0     H27157   5.985   1.629   9.573 -0.2507 -3.1007 -0.7629
  206MOL0     H27158   5.897   1.913   9.531 -0.1961 -0.8596 -2.3013
  206MOL0     H27159   5.807   1.777   9.620 -0.9638 -0.3356 -0.5518
  206MOL0     H27160   5.595   1.864   9.503  0.0739  0.9409 -1.5804
  206MOL0     H27161   5.700   1.996   9.453  0.1176  0.9030  0.9808
  206MOL0     H27162   5.736   2.087   9.650  1.2993 -0.8311  1.6655
  206MOL0     H27163   5.673   1.946   9.745 -1.7403 -0.2588 -1.1888
  206MOL0     H27164   5.514   2.156   9.587  0.3865  2.3333  1.8788
  206MOL0     H27165   5.449   2.000   9.630  1.0178 -0.5357  0.0038
  206MOL0     H27166   5.575   2.191   9.819  1.8270 -2.1939  0.6983
  206MOL0     H27167   5.499   2.040   9.877 -0.8312 -0.4890  0.0748
  206MOL0     H27168   5.382   2.280   9.740 -2.0888  1.5712  0.1499
  206MOL0     H27169   5.369   2.237   9.915  0.9863 -1.6580 -0.0010
  206MOL0     H27170   5.239   2.075   9.692  2.6555 -0.3177  0.4343
  206MOL0     H27171   5.205   2.054   9.869 -1.3531  1.9353  1.6296
  206MOL0     H27172   5.157   2.329   9.750  1.0855  0.6103  3.1296
  206MOL0     H27173   5.075   2.247   9.881 -2.8911 -2.0286 -1.6751
  206MOL0     H27174   5.897   1.699   9.160 -0.1175  0.2339 -0.2587
  206MOL0     H27175   6.082   1.580   9.097 -1.0250  0.1076 -0.0639
  206MOL0     H27176   6.398   1.234   8.946 -0.3149 -1.9229  0.7611
  206MOL0     H27177   6.635   1.156   8.922 -0.9991 -1.1177  1.5500
  206MOL0     H27178   8.452   0.754   8.595 -0.0670 -3.7458 -1.9200
  206MOL0     H27179   8.681   0.759   8.549 -0.0663 -0.3822 -0.3005
  206MOL0     H27180   9.057   0.374   8.493  1.1821 -1.3027  0.7212
  206MOL0     H27181   9.302   0.318   8.506 -0.9075 -2.1365  2.4457
  206MOL0     H27182   9.670   0.512   8.598 -0.0605 -1.1125  1.6776
  206MOL0     H27183   9.556   0.629   8.557  2.4308  1.2380 -3.0980
  206MOL0     H27184   9.482   0.506   8.358  1.1871 -2.0140 -3.7635
  206MOL0     H27185   9.640   0.556   8.367  2.1725 -1.1786  0.4566
  206MOL0     H27186   9.549   0.264   8.399 -3.0805  2.4067  2.1456
  206MOL0     H27187   9.692   0.319   8.478  2.0307  2.7918 -1.9772
  206MOL0     H27188   9.710   0.212   8.249 -0.0760  0.4523  1.5953
  206MOL0     H27189   9.643   0.363   8.184 -0.5538 -0.3183  0.2467
  206MOL0     H27190  10.060   0.397   8.315 -0.6855  0.5111  5.3231
  206MOL0     H27191   9.346   0.670   8.750  0.7637 -1.4713  0.7465
  206MOL0     H27192   9.098   0.696   8.759 -1.7134 -1.2371  0.5245
  207MOL0     O27193   9.592   9.872   2.347  0.4226 -0.6631 -0.0742
  207MOL0     C27194   9.585   9.776   2.269  0.6972  0.4554  0.0622
  207MOL0     O27195   9.468   9.742   2.186  0.1647  0.3561  0.0315
  207MOL0     C27196   9.349   9.813   2.210  0.4367  0.4865 -0.5819
  207MOL0     C27197   9.287   9.794   2.333  1.1866  0.2061  0.6931
  207MOL0     C27198   9.176   9.866   2.360  0.3917 -0.1190  0.0195
  207MOL0     C27199   9.120   9.954   2.267 -0.5875 -1.3025  0.3768
  207MOL0     O27200   9.006  10.032   2.282  0.9252  0.0060 -0.1480
  207MOL0     C27201   8.933  10.007   2.407  0.4141  0.2274 -0.3882
  207MOL0     C27202   8.796  10.075   2.398 -0.1945 -0.8872  0.6067
  207MOL0     C27203   8.696  10.002   2.484  0.6685 -0.9189 -0.8502
  207MOL0     C27204   8.563  10.062   2.493 -0.2531 -0.4581  0.7654
  207MOL0     C27205   8.462   9.983   2.593 -0.8168 -0.6003  0.1735
  207MOL0     C27206   8.319  10.054   2.592  0.1021  0.2848 -0.4984
  207MOL0     C27207   8.241  10.051   2.459 -0.8501 -0.3551 -0.0253
  207MOL0     C27208   8.194   9.910   2.415 -0.6487  0.4018 -0.7006
  207MOL0     N27209   8.220   9.904   2.277 -0.1690  0.2881  0.8133
  207MOL0     C27210   8.333   9.870   2.208 -0.3207 -0.2901 -0.9236
  207MOL0     C27211   8.298   9.842   2.078  0.1937  0.0648  1.6626
  207MOL0     C27212   8.379   9.801   1.965 -1.1126 -0.2440 -0.5223
  207MOL0     C27213   8.428   9.923   1.883 -0.3342  0.5237  0.6476
  207MOL0     C27214   8.315  10.006   1.805 -0.6136 -0.3015  0.4430
  207MOL0     C27215   8.333  10.162   1.819  0.1046 -0.2348 -0.8450
  207MOL0     O27216   8.382  10.229   1.700 -0.0357  0.1214  0.8004
  207MOL0     C27217   8.300  10.246   1.591 -0.0651  1.0078 -1.1315
  207MOL0     C27218   8.163  10.225   1.598 -0.1090  0.0346  0.1471
  207MOL0     C27219   8.089  10.243   1.478 -1.0952 -0.2074 -0.0917
  207MOL0     C27220   8.151  10.306   1.367 -0.0348 -0.4748  0.6334
  207MOL0     C27221   8.066  10.334   1.245 -0.8278  1.0661 -0.2865
  207MOL0     O27222   7.938  10.280   1.252  0.3605  0.0848  0.7570
  207MOL0     C27223   7.850  10.304   1.149 -0.2053  0.5040  0.0687
  207MOL0     C27224   7.864  10.237   1.033 -0.1622  0.1528  0.3620
  207MOL0     C27225   7.780  10.254   0.926  0.0327 -0.1980 -0.2004
  207MOL0     C27226   7.669  10.342   0.943 -0.1771  0.9859  0.2530
  207MOL0     O27227   7.576  10.369   0.849  0.3767 -0.1848  0.0315
  207MOL0     C27228   7.492  10.245   0.855 -0.1210 -0.2650 -0.2947
  207MOL0     C27229   7.378  10.272   0.758  0.5351  0.9535 -0.1768
  207MOL0     C27230   7.247  10.232   0.814  0.1294 -0.2962  0.0272
  207MOL0     C27231   7.131  10.278   0.729  0.3317  1.1526  0.9113
  207MOL0     C27232   6.997  10.263   0.800 -0.1073  0.4201 -0.0352
  207MOL0     C27233   6.894  10.361   0.746  0.3587 -0.0022  0.3939
  207MOL0     C27234   6.890  10.491   0.832  0.4232 -0.4706  0.6078
  207MOL0     C27235   6.780  10.593   0.792 -0.1942  0.2852  0.9183
  207MOL0    Cl27236   6.757  10.719   0.910  0.0313  0.2527 -0.3367
  207MOL0     C27237   7.666  10.428   1.058  0.0605  0.5193  0.3488
  207MOL0     C27238   7.752  10.410   1.164  0.9362  0.2010 -1.3919
  207MOL0     O27239   8.113  10.393   1.150 -0.6038  0.2681  0.1967
  207MOL0     C27240   8.291  10.336   1.365 -0.6017 -0.0869 -0.1359
  207MOL0     C27241   8.359  10.289   1.478 -0.6437  0.5077  0.6735
  207MOL0     N27242   8.167   9.868   2.068  0.0686 -0.0611  0.2050
  207MOL0     N27243   8.120   9.908   2.183  0.8737  0.5072 -0.1154
  207MOL0     C27244   9.186   9.977   2.143 -0.2196 -0.1453  0.8093
  207MOL0     C27245   9.309   9.918   2.122  1.2991 -0.1711 -0.1602
  207MOL0     C27246   9.711   9.691   2.250 -0.3347 -0.5894 -0.0283
  207MOL0     C27247   9.721   9.590   2.157 -1.2928 -0.0889 -0.7273
  207MOL0     C27248   9.839   9.515   2.147  0.2677  0.0198 -0.0513
  207MOL0     C27249   9.950   9.540   2.227  0.3889 -0.2056  0.2156
  207MOL0     O27250  10.059   9.451   2.218  0.3027  0.0375 -0.0673
  207MOL0     C27251  10.159   9.459   2.319 -0.4551  0.6249 -0.1232
  207MOL0     C27252  10.278   9.364   2.259  0.6661 -1.6885 -0.3774
  207MOL0     C27253  10.412   9.381   2.320 -0.6655  0.2919 -0.6936
  207MOL0     C27254  10.414   9.381   2.474 -0.3741 -0.2391  0.1725
  207MOL0     C27255  10.528   9.291   2.507  0.5833  0.1442  0.6301
  207MOL0     C27256  10.629   9.234   2.542  0.4241 -0.0176 -0.0643
  207MOL0     C27257   9.940   9.643   2.326 -0.1147 -0.0744 -0.5561
  207MOL0     C27258   9.821   9.718   2.328 -0.2113  0.0698 -0.2088
  207MOL0     H27259   9.333   9.729   2.407  0.0911 -0.2486  0.9835
  207MOL0     H27260   9.120   9.847   2.451 -0.4343  2.1852  0.0496
  207MOL0     H27261   8.997  10.045   2.487  0.7961 -1.5260  0.2047
  207MOL0     H27262   8.916   9.901   2.431  0.5559  0.5194  1.1106
  207MOL0     H27263   8.762  10.067   2.294  2.7506 -2.1506 -0.3735
  207MOL0     H27264   8.810  10.181   2.418  0.7566 -1.3304  2.6176
  207MOL0     H27265   8.730   9.994   2.588  1.5341 -0.0527 -1.0492
  207MOL0     H27266   8.679   9.898   2.453  0.9487 -1.3774  0.4761
  207MOL0     H27267   8.579  10.164   2.531  4.2501 -0.6821 -0.0880
  207MOL0     H27268   8.518  10.069   2.394 -1.0088 -2.0059  0.9691
  207MOL0     H27269   8.497   9.991   2.697 -2.6518  0.2178  0.7622
  207MOL0     H27270   8.452   9.877   2.567 -1.7151 -0.3898 -0.3780
  207MOL0     H27271   8.335  10.160   2.614  1.1060  0.2554 -1.0197
  207MOL0     H27272   8.258  10.013   2.673  3.5050  0.6287  2.5140
  207MOL0     H27273   8.148  10.108   2.469 -2.4392 -2.3418 -2.1362
  207MOL0     H27274   8.283  10.096   2.368 -2.1838  1.0249  0.0174
  207MOL0     H27275   8.091   9.883   2.444 -0.0625  0.9857  2.2109
  207MOL0     H27276   8.252   9.829   2.460 -0.1544 -0.7326 -3.1672
  207MOL0     H27277   8.431   9.875   2.253 -0.2345 -1.9801 -0.8490
  207MOL0     H27278   8.323   9.729   1.905 -0.7284 -1.5986  0.7129
  207MOL0     H27279   8.463   9.746   2.008 -2.6516  0.5570  4.1209
  207MOL0     H27280   8.503   9.886   1.812 -0.0124  0.6129  0.9334
  207MOL0     H27281   8.485   9.985   1.954 -0.4071  2.0432 -0.5682
  207MOL0     H27282   8.314   9.979   1.699  0.1088  1.5761 -0.0954
  207MOL0     H27283   8.220   9.983   1.853 -2.1926  1.6508 -1.5208
  207MOL0     H27284   8.405  10.178   1.900  1.0918  0.3749 -1.8226
  207MOL0     H27285   8.239  10.204   1.857  0.3093 -0.2115 -0.3481
  207MOL0     H27286   8.106  10.191   1.685  0.8826  1.8194  1.5562
  207MOL0     H27287   7.984  10.219   1.473 -0.6931 -2.3707  0.7551
  207MOL0     H27288   7.942  10.164   1.015  1.1463  1.9542 -1.9155
  207MOL0     H27289   7.787  10.192   0.838  1.7380  0.2111 -0.3920
  207MOL0     H27290   7.455  10.212   0.953  0.7560 -0.2446  0.0486
  207MOL0     H27291   7.545  10.157   0.816 -0.0834 -1.5020  2.3314
  207MOL0     H27292   7.395  10.202   0.675  0.1892  1.9283 -1.0918
  207MOL0     H27293   7.374  10.373   0.717 -1.3852  1.3483  0.8939
  207MOL0     H27294   7.227  10.275   0.912 -0.3551  0.9018 -0.5836
  207MOL0     H27295   7.250  10.123   0.814  1.1603 -0.2845  0.9909
  207MOL0     H27296   7.144  10.382   0.698 -0.6514  0.8269 -0.6705
  207MOL0     H27297   7.133  10.215   0.640  0.8840 -0.1483  1.7986
  207MOL0     H27298   6.999  10.285   0.907  0.9846 -1.0601  0.2670
  207MOL0     H27299   6.964  10.159   0.801 -1.2814  0.7766  1.2640
  207MOL0     H27300   6.793  10.323   0.763 -0.0373  0.6349 -0.5161
  207MOL0     H27301   6.911  10.373   0.639 -0.8812 -1.2542  0.0309
  207MOL0     H27302   6.883  10.467   0.939  2.5586 -1.5161  0.5697
  207MOL0     H27303   6.984  10.546   0.829  0.7759 -1.0993 -0.0215
  207MOL0     H27304   6.683  10.543   0.791 -0.8107  1.4398  0.6068
  207MOL0     H27305   6.800  10.638   0.694 -2.4009  1.4046  0.9247
  207MOL0     H27306   7.588  10.503   1.055  1.1805  1.6762 -1.0684
  207MOL0     H27307   7.739  10.475   1.250 -1.2180  0.1460 -1.6233
  207MOL0     H27308   8.342  10.394   1.289 -1.1899  1.7918  0.8299
  207MOL0     H27309   8.467  10.299   1.487 -0.1002 -3.0210 -0.0734
  207MOL0     H27310   9.152  10.031   2.055  2.2523 -2.7738 -2.0137
  207MOL0     H27311   9.355   9.924   2.024  0.3885 -0.2044 -0.6103
  207MOL0     H27312   9.633   9.583   2.095 -1.4357 -1.2802 -0.4113
  207MOL0     H27313   9.855   9.457   2.056  1.4445  3.4358 -2.1976
  207MOL0     H27314  10.136   9.410   2.414  0.3787  0.1177 -0.1696
  207MOL0     H27315  10.193   9.561   2.342  1.2688 -0.6423  3.8891
  207MOL0     H27316  10.241   9.261   2.267  0.9293 -1.6617  1.7084
  207MOL0     H27317  10.282   9.392   2.154  1.6455  3.0892  0.7248
  207MOL0     H27318  10.463   9.474   2.290 -0.7319 -0.3707 -3.0838
  207MOL0     H27319  10.458   9.288   2.286 -1.0415 -0.1210 -0.0754
  207MOL0     H27320  10.420   9.479   2.521 -3.0686 -1.0259  2.4725
  207MOL0     H27321  10.326   9.335   2.520  0.9329  0.3453  3.6060
  207MOL0     H27322  10.711   9.181   2.586  0.0655  1.9526  3.3600
  207MOL0     H27323  10.013   9.670   2.402 -3.2482  4.4009  1.3100
  207MOL0     H27324   9.806   9.781   2.415 -2.4827 -2.3287  1.2510
  208MOL0     O27325   0.464   7.040   2.183  0.3553  1.1910  0.3907
  208MOL0     C27326   0.583   7.011   2.188  0.4857 -0.2696 -0.6752
  208MOL0     O27327   0.639   6.897   2.146 -0.0682  0.0464 -0.3688
  208MOL0     C27328   0.572   6.798   2.065 -0.8270 -0.2245 -0.2926
  208MOL0     C27329   0.526   6.828   1.940  0.0497  0.9345 -0.0415
  208MOL0     C27330   0.494   6.729   1.845 -0.6398  0.3602 -1.0846
  208MOL0     C27331   0.489   6.600   1.885 -0.4161 -0.6561  0.6194
  208MOL0     O27332   0.446   6.504   1.793 -0.3738  0.3780  0.7486
  208MOL0     C27333   0.338   6.419   1.837 -0.4722 -0.0494 -0.7522
  208MOL0     C27334   0.219   6.502   1.872 -0.5068  0.1000  0.2617
  208MOL0     C27335   0.113   6.509   1.761 -0.2841 -0.2722 -0.4245
  208MOL0     C27336  -0.010   6.577   1.823 -0.3375  0.0172 -1.0029
  208MOL0     C27337  -0.122   6.598   1.720  0.6741 -0.2249  0.3884
  208MOL0     C27338  -0.250   6.659   1.783 -0.6520  0.7299  0.1184
  208MOL0     C27339  -0.323   6.557   1.885 -0.3996  0.1045 -0.0910
  208MOL0     C27340  -0.467   6.589   1.951  0.6782 -0.3160 -0.5215
  208MOL0     N27341  -0.580   6.554   1.859 -0.8304 -0.5491 -0.2586
  208MOL0     C27342  -0.712   6.598   1.880 -0.6259 -0.6236  0.7848
  208MOL0     C27343  -0.783   6.558   1.769  0.1117 -0.3854  0.6303
  208MOL0     C27344  -0.936   6.564   1.753  0.8667 -0.9442 -0.1905
  208MOL0     C27345  -1.013   6.459   1.836 -0.0256  0.1443 -0.4598
  208MOL0     C27346  -1.019   6.325   1.758 -0.3635 -0.5806 -0.5842
  208MOL0     C27347  -1.155   6.302   1.677 -0.2097 -0.2905 -0.5323
  208MOL0     O27348  -1.157   6.164   1.631 -0.3722 -0.5299 -0.2859
  208MOL0     C27349  -1.245   6.123   1.529  0.3770  0.4258 -0.8553
  208MOL0     C27350  -1.310   6.197   1.428 -0.0123  0.3096  0.2000
  208MOL0     C27351  -1.375   6.148   1.319 -0.8534 -0.0069  0.3343
  208MOL0     C27352  -1.367   6.007   1.296  1.0434 -0.1520  0.8851
  208MOL0     C27353  -1.450   5.947   1.187 -0.1440 -0.1300  0.0087
  208MOL0     O27354  -1.487   6.018   1.077  0.3159 -0.5971  0.0849
  208MOL0     C27355  -1.579   5.982   0.989 -0.3800 -0.3123  0.1652
  208MOL0     C27356  -1.564   5.856   0.926 -0.2066 -0.2450  0.1768
  208MOL0     C27357  -1.668   5.793   0.867 -0.2415  0.0108 -0.5958
  208MOL0     C27358  -1.793   5.850   0.862 -0.1346 -0.4849 -0.5868
  208MOL0     O27359  -1.899   5.776   0.823 -0.1455 -0.2617  0.1348
  208MOL0     C27360  -1.940   5.802   0.688  1.3370 -0.4058  0.2885
  208MOL0     C27361  -1.967   5.677   0.607 -0.8761  0.2222 -1.1349
  208MOL0     C27362  -1.832   5.598   0.585 -0.1608  0.1841  0.4108
  208MOL0     C27363  -1.741   5.649   0.471  1.1596  0.1158 -0.7986
  208MOL0     C27364  -1.599   5.589   0.460 -0.2742 -0.6182 -0.6037
  208MOL0     C27365  -1.596   5.439   0.431 -0.0545 -0.2482  0.2480
  208MOL0     C27366  -1.459   5.379   0.426  1.3425  0.2485 -1.1391
  208MOL0     C27367  -1.361   5.433   0.322 -1.0299  0.5145  0.6853
  208MOL0    Cl27368  -1.239   5.300   0.312 -0.3986 -0.3664 -0.1206
  208MOL0     C27369  -1.809   5.982   0.916 -0.1271  0.3770  0.2848
  208MOL0     C27370  -1.699   6.053   0.974 -0.6990  0.6005 -0.1945
  208MOL0     O27371  -1.482   5.834   1.208 -0.0781  0.2867 -0.1491
  208MOL0     C27372  -1.311   5.926   1.394  1.6719  0.2215 -0.2015
  208MOL0     C27373  -1.252   5.983   1.510 -0.8680 -0.2268 -0.3509
  208MOL0     N27374  -0.690   6.501   1.683 -0.3422 -0.2710  0.5258
  208MOL0     N27375  -0.576   6.496   1.741 -0.3371 -0.2649  0.2199
  208MOL0     C27376   0.529   6.566   2.021 -0.3410 -0.4544  0.4981
  208MOL0     C27377   0.583   6.659   2.101 -0.4439  0.1168 -0.4436
  208MOL0     C27378   0.674   7.111   2.255  0.2127  0.1424 -0.5820
  208MOL0     C27379   0.614   7.228   2.308  0.0648  0.1310 -0.8106
  208MOL0     C27380   0.695   7.328   2.376  0.8178  0.3095 -1.0272
  208MOL0     C27381   0.831   7.316   2.394 -0.3267  0.0912 -0.0241
  208MOL0     O27382   0.888   7.418   2.466  0.4155  0.5512  0.6209
  208MOL0     C27383   1.025   7.409   2.468  0.2610 -0.3318 -1.1150
  208MOL0     C27384   1.093   7.540   2.504  0.9842 -0.0041  0.7813
  208MOL0     C27385   1.036   7.607   2.632  0.9973  0.0114  0.0906
  208MOL0     C27386   0.929   7.713   2.586 -0.6522  0.2620  1.1442
  208MOL0     C27387   0.900   7.795   2.709 -0.3160  0.7878  0.4702
  208MOL0     C27388   0.900   7.860   2.807 -0.4696  0.4044 -0.6297
  208MOL0     C27389   0.896   7.194   2.346 -0.5255 -0.4344  0.8227
  208MOL0     C27390   0.812   7.095   2.282  0.3006  0.2936  0.5669
  208MOL0     H27391   0.525   6.931   1.907  0.4874  1.2251  0.8447
  208MOL0     H27392   0.476   6.748   1.740  0.7391  0.1808 -1.3721
  208MOL0     H27393   0.371   6.365   1.927  0.9165  0.1278 -1.1385
  208MOL0     H27394   0.308   6.340   1.768 -2.6195 -0.2148  0.2622
  208MOL0     H27395   0.247   6.603   1.903 -2.6150 -0.3587  4.3210
  208MOL0     H27396   0.177   6.457   1.962  1.9552  3.1516  3.1913
  208MOL0     H27397   0.082   6.409   1.731  1.1679 -0.8779 -0.0244
  208MOL0     H27398   0.158   6.556   1.673  0.8733 -1.3983 -0.4681
  208MOL0     H27399  -0.037   6.518   1.911  0.4919  1.4249  0.2619
  208MOL0     H27400   0.027   6.680   1.836  0.5988 -0.2454 -1.5114
  208MOL0     H27401  -0.147   6.504   1.669  1.5451 -0.1516 -0.1983
  208MOL0     H27402  -0.093   6.665   1.639  1.4514 -2.6403 -1.4765
  208MOL0     H27403  -0.320   6.686   1.704  0.3946  2.1438 -0.3742
  208MOL0     H27404  -0.217   6.753   1.831 -1.2708  1.7014 -1.2964
  208MOL0     H27405  -0.331   6.461   1.833 -0.5881  0.3789 -0.5782
  208MOL0     H27406  -0.253   6.541   1.968  0.2048 -1.8150 -0.8913
  208MOL0     H27407  -0.484   6.694   1.974 -3.1225 -0.6486 -1.0369
  208MOL0     H27408  -0.471   6.538   2.048  3.2371 -1.3626 -0.8862
  208MOL0     H27409  -0.758   6.638   1.970  0.1383 -0.5508  1.1530
  208MOL0     H27410  -0.970   6.578   1.650  1.1245  3.4371  0.1144
  208MOL0     H27411  -0.964   6.658   1.802 -0.3794 -0.9921 -0.7654
  208MOL0     H27412  -1.117   6.490   1.847 -0.5156 -1.2009 -1.0634
  208MOL0     H27413  -0.961   6.435   1.929 -0.6493 -4.3416 -1.0252
  208MOL0     H27414  -0.938   6.326   1.684  0.4281  1.3326  0.2479
  208MOL0     H27415  -1.001   6.237   1.820  0.3673  0.5568  0.8922
  208MOL0     H27416  -1.173   6.367   1.590  0.8547  2.0048  0.8873
  208MOL0     H27417  -1.247   6.319   1.734 -1.9254 -1.5058 -2.7311
  208MOL0     H27418  -1.304   6.305   1.427  2.5389  0.2425 -0.0282
  208MOL0     H27419  -1.419   6.210   1.241  1.3983  2.8648  1.1495
  208MOL0     H27420  -1.477   5.794   0.945  0.6333  0.9117  0.2035
  208MOL0     H27421  -1.649   5.689   0.843  1.2058 -0.8928  3.6062
  208MOL0     H27422  -1.874   5.865   0.628 -1.7709 -1.9821 -5.5148
  208MOL0     H27423  -2.037   5.853   0.694  2.1918  1.3153  0.0033
  208MOL0     H27424  -2.001   5.711   0.508 -1.7597  3.7738  0.2154
  208MOL0     H27425  -2.040   5.609   0.651 -0.1241 -0.5879 -1.1174
  208MOL0     H27426  -1.862   5.498   0.554  0.9501 -0.5894  1.7729
  208MOL0     H27427  -1.785   5.585   0.682  3.5545  2.3797 -0.8745
  208MOL0     H27428  -1.792   5.643   0.375 -0.5282  2.1982 -0.1154
  208MOL0     H27429  -1.737   5.757   0.486 -1.4761  0.1142  0.4838
  208MOL0     H27430  -1.546   5.599   0.555  1.2594 -2.8011 -1.1475
  208MOL0     H27431  -1.555   5.638   0.373  1.3792 -2.6578 -0.9940
  208MOL0     H27432  -1.649   5.405   0.342  0.8491 -3.9989  0.9892
  208MOL0     H27433  -1.661   5.386   0.501  0.0119  0.7419  1.0952
  208MOL0     H27434  -1.422   5.387   0.529  1.0489 -0.7116 -0.9426
  208MOL0     H27435  -1.459   5.270   0.410  4.0935 -0.0311  0.1171
  208MOL0     H27436  -1.323   5.529   0.358  0.0872 -0.3315  1.8316
  208MOL0     H27437  -1.399   5.452   0.221  1.9031 -0.0641 -0.6226
  208MOL0     H27438  -1.899   6.042   0.916 -1.1368 -0.1666 -7.1714
  208MOL0     H27439  -1.713   6.148   1.024 -2.8047  0.3843 -0.2585
  208MOL0     H27440  -1.297   5.818   1.384  0.5343  0.1427 -1.1265
  208MOL0     H27441  -1.203   5.930   1.591  3.0864 -0.1576 -2.4294
  208MOL0     H27442   0.532   6.463   2.056  0.6432 -0.8116 -0.6021
  208MOL0     H27443   0.636   6.634   2.193  3.0840  1.6626 -1.8708
  208MOL0     H27444   0.506   7.241   2.313  0.1162  0.1843  1.2827
  208MOL0     H27445   0.655   7.416   2.425 -0.3454 -0.0078 -1.3773
  208MOL0     H27446   1.075   7.389   2.373  1.0149 -0.7365 -0.6375
  208MOL0     H27447   1.053   7.334   2.543 -2.9307 -0.0154  0.5708
  208MOL0     H27448   1.197   7.516   2.525  2.1689  3.5370 -0.3761
  208MOL0     H27449   1.084   7.599   2.413  0.0904  0.6921  1.3016
  208MOL0     H27450   1.102   7.661   2.701  0.1345  0.3333  0.6800
  208MOL0     H27451   0.988   7.531   2.694  0.8832  0.5370  0.6537
  208MOL0     H27452   0.959   7.789   2.513 -1.8668 -2.2780 -2.2274
  208MOL0     H27453   0.840   7.656   2.557 -1.2284  2.1021 -0.9736
  208MOL0     H27454   0.897   7.906   2.903 -0.1082 -4.2521  1.9210
  208MOL0     H27455   0.999   7.165   2.364 -0.6928 -1.6689 -0.0783
  208MOL0     H27456   0.867   7.009   2.245  1.2495  0.6499  1.1318
  209MOL0     O27457   6.583   3.924   2.929  0.6663 -0.2419 -0.3315
  209MOL0     C27458   6.604   3.817   2.881  0.5492  0.2628 -0.1964
  209MOL0     O27459   6.519   3.740   2.817  1.0254 -0.0271 -0.2207
  209MOL0     C27460   6.386   3.776   2.809 -0.5818  0.1509  0.4736
  209MOL0     C27461   6.337   3.743   2.683  0.2224 -0.2329  0.0785
  209MOL0     C27462   6.202   3.768   2.647  0.5579  0.4992  0.6507
  209MOL0     C27463   6.116   3.835   2.732 -0.3539 -0.0583 -0.4457
  209MOL0     O27464   5.983   3.857   2.705 -0.3151  0.4521  0.1062
  209MOL0     C27465   5.923   3.812   2.585 -0.0946  0.1355  0.1077
  209MOL0     C27466   5.798   3.898   2.580  0.4825  0.7072 -0.5528
  209MOL0     C27467   5.695   3.845   2.679 -0.2749  0.0327  0.2982
  209MOL0     C27468   5.559   3.925   2.681 -1.1772 -0.3623 -0.1585
  209MOL0     C27469   5.487   3.926   2.820  0.5523  0.7880  0.5688
  209MOL0     C27470   5.352   3.989   2.812 -0.1695  0.7995 -0.0567
  209MOL0     C27471   5.275   3.979   2.939 -0.3087 -0.3998  0.5007
  209MOL0     C27472   5.141   4.075   2.946 -0.4947  0.2116 -0.3752
  209MOL0     N27473   5.030   4.006   2.872  0.1441 -0.0707 -0.1880
  209MOL0     C27474   4.952   4.072   2.781  0.1635 -0.6989  1.3163
  209MOL0     C27475   4.881   3.977   2.715  1.0403 -0.0091  0.6168
  209MOL0     C27476   4.769   3.985   2.615 -0.6776  0.5276  0.7483
  209MOL0     C27477   4.637   4.028   2.686  0.3239  0.4653 -0.1491
  209MOL0     C27478   4.597   3.922   2.786 -0.3570  0.0161  0.5654
  209MOL0     C27479   4.454   3.949   2.843 -0.0098  0.1899  0.2844
  209MOL0     O27480   4.437   4.049   2.940  0.2470 -0.8835 -0.6389
  209MOL0     C27481   4.315   4.069   3.004 -0.4696  0.9100  1.2067
  209MOL0     C27482   4.307   4.167   3.095 -0.0752 -0.2982 -0.5736
  209MOL0     C27483   4.195   4.182   3.171  0.1478  0.3413  0.1169
  209MOL0     C27484   4.083   4.094   3.152  0.5629  0.6232  0.1791
  209MOL0     C27485   3.960   4.100   3.238  0.1747 -1.2780  0.1053
  209MOL0     O27486   3.970   4.163   3.357  0.4033  0.1336 -0.2077
  209MOL0     C27487   3.866   4.144   3.451 -0.1446 -0.9443 -0.5366
  209MOL0     C27488   3.790   4.026   3.471 -0.6183  0.2676 -0.3246
  209MOL0     C27489   3.687   4.022   3.571 -0.7575  0.3454  0.3775
  209MOL0     C27490   3.654   4.140   3.638 -0.0323  0.4033  0.9956
  209MOL0     O27491   3.574   4.148   3.750  0.3315  0.1116  0.5025
  209MOL0     C27492   3.492   4.040   3.798 -0.3598  0.7290 -0.5685
  209MOL0     C27493   3.573   3.956   3.885 -0.6667  0.5036 -0.5377
  209MOL0     C27494   3.516   3.813   3.901  0.2174  0.5621 -0.2428
  209MOL0     C27495   3.563   3.722   3.789  0.0791 -0.2551 -0.1496
  209MOL0     C27496   3.547   3.567   3.834 -0.3388 -0.4219 -0.0705
  209MOL0     C27497   3.405   3.512   3.848 -0.0322 -0.1182  0.1100
  209MOL0     C27498   3.404   3.363   3.895 -0.3300  0.9202 -0.0701
  209MOL0     C27499   3.454   3.324   4.032  0.4047  0.4831  0.4947
  209MOL0    Cl27500   3.466   3.149   4.022 -0.1148  0.2732 -0.1547
  209MOL0     C27501   3.728   4.256   3.620 -0.8442  0.3577  1.3909
  209MOL0     C27502   3.838   4.251   3.523  0.3267 -0.2512 -0.2213
  209MOL0     O27503   3.861   4.038   3.193  0.2148 -0.4955 -0.8919
  209MOL0     C27504   4.086   4.004   3.042  0.3989  0.2203 -0.5578
  209MOL0     C27505   4.205   3.984   2.979  0.6974 -0.0251  0.0002
  209MOL0     N27506   4.924   3.856   2.765 -0.3222 -0.5282 -0.2132
  209MOL0     N27507   5.007   3.868   2.862 -0.1339 -0.2310  0.0888
  209MOL0     C27508   6.170   3.866   2.861  0.2577  0.3321 -0.2656
  209MOL0     C27509   6.305   3.837   2.902 -0.1865 -0.7376 -0.7064
  209MOL0     C27510   6.749   3.773   2.896  0.6331  0.3388  0.1762
  209MOL0     C27511   6.848   3.864   2.921 -0.3050  0.0113  0.2850
  209MOL0     C27512   6.983   3.828   2.937  0.6757 -0.3837 -0.6191
  209MOL0     C27513   7.013   3.685   2.925 -0.2695 -1.0738  0.4360
  209MOL0     O27514   7.147   3.656   2.927  0.9411  0.5405 -0.4025
  209MOL0     C27515   7.184   3.519   2.941  0.7579  0.2659  0.1495
  209MOL0     C27516   7.338   3.520   2.937  0.3399  0.0816  0.5771
  209MOL0     C27517   7.405   3.379   2.976 -0.0290  0.4377 -0.3111
  209MOL0     C27518   7.559   3.374   2.947 -0.3609 -0.3811 -0.1438
  209MOL0     C27519   7.642   3.454   3.041 -0.5920 -0.1500 -0.0695
  209MOL0     C27520   7.710   3.540   3.104  0.7211 -0.9768  0.7069
  209MOL0     C27521   6.916   3.590   2.886  0.8040 -0.4264  0.0117
  209MOL0     C27522   6.778   3.636   2.873 -0.1767 -0.4476 -0.3777
  209MOL0     H27523   6.401   3.699   2.608  0.5881 -0.5891  0.5978
  209MOL0     H27524   6.175   3.713   2.557 -0.8105 -1.2257  2.0475
  209MOL0     H27525   5.908   3.705   2.571 -0.4418  0.3589 -1.3034
  209MOL0     H27526   5.975   3.844   2.494 -0.5302  3.3422  0.8679
  209MOL0     H27527   5.747   3.891   2.484  0.9377 -1.4725 -0.6729
  209MOL0     H27528   5.817   4.005   2.594  0.1175  0.7227 -0.1367
  209MOL0     H27529   5.732   3.858   2.781  1.8115  0.8110 -0.5061
  209MOL0     H27530   5.668   3.740   2.663 -0.7899  0.1031  0.6745
  209MOL0     H27531   5.586   4.027   2.653 -0.6179 -0.5493 -0.3036
  209MOL0     H27532   5.492   3.878   2.609  0.8020 -2.3196 -0.8300
  209MOL0     H27533   5.554   3.963   2.898  1.6195  1.2546 -0.5462
  209MOL0     H27534   5.465   3.823   2.849  1.3795 -0.8543 -3.8263
  209MOL0     H27535   5.293   3.935   2.737  1.1694 -0.3763 -0.2976
  209MOL0     H27536   5.363   4.087   2.764  0.4553  0.3882 -0.7769
  209MOL0     H27537   5.247   3.874   2.952  1.3286 -0.6958  1.8545
  209MOL0     H27538   5.350   4.009   3.012 -0.3006 -0.4041  0.4937
  209MOL0     H27539   5.171   4.167   2.895  1.4707  0.8501  1.7821
  209MOL0     H27540   5.126   4.099   3.051  2.9887  0.0283  0.2784
  209MOL0     H27541   4.952   4.177   2.754 -0.4893 -1.3851 -1.7477
  209MOL0     H27542   4.757   3.889   2.562 -1.4795  1.9814 -1.9112
  209MOL0     H27543   4.791   4.059   2.537  0.5029  0.6677  1.2042
  209MOL0     H27544   4.556   4.047   2.616  0.2421  1.3541  0.1770
  209MOL0     H27545   4.660   4.118   2.744  0.0059  1.1121 -1.0083
  209MOL0     H27546   4.594   3.823   2.740  2.2574  1.0790 -2.1827
  209MOL0     H27547   4.665   3.922   2.872 -0.1749  1.0238  0.4305
  209MOL0     H27548   4.421   3.858   2.894 -2.0042 -0.4267 -1.9283
  209MOL0     H27549   4.389   3.953   2.755  0.4359 -3.4453 -0.3757
  209MOL0     H27550   4.398   4.219   3.126  1.0268  0.3050 -4.3483
  209MOL0     H27551   4.191   4.262   3.245 -1.4607  0.2681  0.1474
  209MOL0     H27552   3.805   3.934   3.417  3.2732 -0.4817  1.6758
  209MOL0     H27553   3.648   3.921   3.583  1.3215 -0.3676  1.7565
  209MOL0     H27554   3.458   3.977   3.716 -0.7703  0.4568 -0.1956
  209MOL0     H27555   3.407   4.063   3.864 -0.1541 -0.7930  0.2931
  209MOL0     H27556   3.581   4.000   3.985  1.5043 -3.8849  1.5261
  209MOL0     H27557   3.677   3.945   3.852 -0.5039  1.2961 -0.3248
  209MOL0     H27558   3.407   3.805   3.901  0.0566  1.9659 -1.9978
  209MOL0     H27559   3.563   3.771   3.990 -3.2418 -0.2154  1.3870
  209MOL0     H27560   3.520   3.742   3.691  3.2348 -2.1721 -2.0627
  209MOL0     H27561   3.669   3.738   3.768  0.8362 -3.1068  1.1063
  209MOL0     H27562   3.604   3.566   3.928 -0.7227  1.7187  0.2490
  209MOL0     H27563   3.602   3.509   3.760 -1.1138 -2.3369  0.7815
  209MOL0     H27564   3.347   3.509   3.755  2.6761  2.2701 -1.8150
  209MOL0     H27565   3.349   3.577   3.916 -1.7050 -0.0681 -1.2551
  209MOL0     H27566   3.306   3.318   3.874 -0.1831  1.3317 -1.7825
  209MOL0     H27567   3.479   3.309   3.837 -0.4080  2.8500 -2.1370
  209MOL0     H27568   3.382   3.338   4.113 -1.5528 -2.7130 -0.5216
  209MOL0     H27569   3.555   3.361   4.055  1.6631 -2.3560 -0.0280
  209MOL0     H27570   3.713   4.343   3.683 -0.0943 -1.4100  4.1820
  209MOL0     H27571   3.891   4.344   3.503  0.9655 -0.7399 -0.8847
  209MOL0     H27572   4.003   3.935   3.027  1.2851 -1.2796  1.0714
  209MOL0     H27573   4.209   3.908   2.901  2.5925 -2.5155  2.3022
  209MOL0     H27574   6.114   3.924   2.934 -0.5741 -1.1181  0.2767
  209MOL0     H27575   6.333   3.872   3.001  1.4695  5.8099 -2.9387
  209MOL0     H27576   6.818   3.966   2.943 -0.4167 -0.0436  0.3873
  209MOL0     H27577   7.057   3.897   2.977  0.3344 -0.4920  0.2246
  209MOL0     H27578   7.148   3.449   2.865  1.8532  0.0223 -0.1699
  209MOL0     H27579   7.150   3.488   3.040 -1.5454 -1.0358 -0.9904
  209MOL0     H27580   7.361   3.537   2.831 -1.4538  0.8266  0.2684
  209MOL0     H27581   7.386   3.595   3.000 -2.7547  0.8113  2.2515
  209MOL0     H27582   7.353   3.302   2.919 -1.1472 -1.5386  3.0896
  209MOL0     H27583   7.381   3.365   3.082  1.5667  1.0810  0.1650
  209MOL0     H27584   7.592   3.270   2.958  1.8304  0.3055  0.3127
  209MOL0     H27585   7.581   3.420   2.850 -1.8284  3.6050  1.2223
  209MOL0     H27586   7.747   3.628   3.154 -0.6622  0.4339 -0.6307
  209MOL0     H27587   6.924   3.490   2.845  1.7452 -0.1753 -0.4391
  209MOL0     H27588   6.700   3.566   2.844 -1.5825  1.0865 -0.4588
  210MOL0     O27589  10.187   9.648   1.923 -0.4820 -0.1361 -0.2221
  210MOL0     C27590  10.286   9.579   1.914 -0.0888  1.5819 -0.1492
  210MOL0     O27591  10.292   9.463   1.848 -0.2471 -0.5644 -0.2205
  210MOL0     C27592  10.176   9.417   1.793  0.9076 -0.2519  0.2132
  210MOL0     C27593  10.108   9.318   1.858 -0.0303 -0.6507 -0.3948
  210MOL0     C27594   9.985   9.268   1.817  0.2899 -0.0541 -0.5595
  210MOL0     C27595   9.931   9.324   1.697 -0.9633 -0.6094 -0.8277
  210MOL0     O27596   9.824   9.270   1.625  0.1654 -0.0360  0.6454
  210MOL0     C27597   9.710   9.231   1.705 -0.1902  0.1538 -0.8335
  210MOL0     C27598   9.590   9.222   1.617  0.1739 -0.1605  0.5328
  210MOL0     C27599   9.546   9.353   1.560 -0.3090 -0.4698 -0.4074
  210MOL0     C27600   9.439   9.346   1.454 -0.7894  0.1822  0.8853
  210MOL0     C27601   9.303   9.320   1.520  0.3481 -0.2435 -0.9268
  210MOL0     C27602   9.203   9.269   1.415 -0.1790  0.2163  0.4072
  210MOL0     C27603   9.061   9.234   1.460  0.2304 -0.5032  0.2319
  210MOL0     C27604   8.988   9.345   1.546  0.5041  0.1782  1.0239
  210MOL0     N27605   8.839   9.313   1.551  0.7586  0.2001  0.1717
  210MOL0     C27606   8.723   9.386   1.512  0.0626 -1.1444 -0.5403
  210MOL0     C27607   8.621   9.296   1.530 -0.3105 -0.5293  0.7271
  210MOL0     C27608   8.477   9.307   1.493  0.2257  0.9461 -0.2360
  210MOL0     C27609   8.418   9.438   1.536 -0.0251 -0.8918 -0.4343
  210MOL0     C27610   8.262   9.436   1.519 -0.6099  0.3771 -0.1476
  210MOL0     C27611   8.193   9.551   1.593 -0.2787  0.7723  0.3599
  210MOL0     O27612   8.054   9.544   1.594  0.2952 -0.0926 -0.3859
  210MOL0     C27613   7.990   9.665   1.626 -0.7997 -0.1578 -1.4571
  210MOL0     C27614   8.060   9.781   1.682  0.8121 -0.2524  0.9756
  210MOL0     C27615   7.991   9.909   1.692 -0.7900 -0.5714  0.1826
  210MOL0     C27616   7.862   9.922   1.653  0.0181 -0.2893 -0.4272
  210MOL0     C27617   7.790  10.056   1.644  0.0550  0.9821 -0.2373
  210MOL0     O27618   7.652  10.052   1.617 -0.1404  0.6607 -0.4542
  210MOL0     C27619   7.597  10.176   1.609  0.8173 -0.7243 -0.1308
  210MOL0     C27620   7.536  10.238   1.716 -0.8313  0.8197 -0.3615
  210MOL0     C27621   7.475  10.359   1.705 -0.2934 -0.6078  0.6057
  210MOL0     C27622   7.485  10.431   1.586 -0.2658 -0.5691  0.3387
  210MOL0     O27623   7.430  10.557   1.582 -0.4179 -0.3775 -0.8294
  210MOL0     C27624   7.467  10.644   1.470  0.4564 -1.1963  0.6178
  210MOL0     C27625   7.431  10.787   1.508 -0.6995  0.3753 -0.1738
  210MOL0     C27626   7.292  10.825   1.457  0.3009 -0.2378 -0.6008
  210MOL0     C27627   7.252  10.963   1.515  0.8042  0.4602 -0.3237
  210MOL0     C27628   7.346  11.070   1.461  0.8106 -0.1044 -0.1399
  210MOL0     C27629   7.278  11.206   1.477  0.5632  0.3886 -0.3436
  210MOL0     C27630   7.350  11.327   1.411 -1.6360 -0.4167  0.2174
  210MOL0     C27631   7.265  11.455   1.422 -0.2044 -0.2627  0.3787
  210MOL0    Cl27632   7.303  11.543   1.568 -0.0226 -0.4087  0.2669
  210MOL0     C27633   7.553  10.373   1.479  0.2047  0.6338  0.9074
  210MOL0     C27634   7.612  10.249   1.492  0.4815 -0.1875 -0.3686
  210MOL0     O27635   7.858  10.157   1.670  0.3664 -0.5139 -0.7084
  210MOL0     C27636   7.795   9.805   1.620 -0.1613  0.2743 -0.7546
  210MOL0     C27637   7.864   9.682   1.600  1.1385  0.0391  0.0195
  210MOL0     N27638   8.668   9.177   1.592  0.6950  0.4015  0.2581
  210MOL0     N27639   8.795   9.191   1.598  0.5605  0.1106 -0.5761
  210MOL0     C27640  10.001   9.423   1.626  0.2189  1.3342 -0.0715
  210MOL0     C27641  10.120   9.471   1.673  0.1911  0.3738 -0.5570
  210MOL0     C27642  10.402   9.609   2.005 -0.5014  0.2170 -0.2120
  210MOL0     C27643  10.537   9.570   1.983 -0.1650 -0.0224  0.3512
  210MOL0     C27644  10.642   9.605   2.063 -0.2636  0.0874 -0.1974
  210MOL0     C27645  10.609   9.690   2.178 -0.4754  1.6448 -0.3948
  210MOL0     O27646  10.709   9.738   2.261  0.9347  0.4057  0.0661
  210MOL0     C27647  10.827   9.660   2.270  0.1091 -0.8431 -0.2992
  210MOL0     C27648  10.879   9.656   2.406  0.1047  0.8895 -0.4731
  210MOL0     C27649  10.849   9.767   2.510  0.0959 -0.6303  0.5113
  210MOL0     C27650  10.843   9.907   2.450 -0.2374 -0.0368 -0.1351
  210MOL0     C27651  10.882  10.000   2.560 -0.3480 -0.5148  0.3837
  210MOL0     C27652  10.876  10.062   2.660  0.2122  0.0056  0.4449
  210MOL0     C27653  10.481   9.730   2.198 -0.9785  0.5912  0.6734
  210MOL0     C27654  10.379   9.687   2.116 -0.2175  0.4793 -0.6069
  210MOL0     H27655  10.153   9.293   1.954 -0.2152 -0.5869 -0.2919
  210MOL0     H27656   9.930   9.186   1.863 -1.2052 -1.2400 -4.1391
  210MOL0     H27657   9.706   9.295   1.794  2.3907 -1.3823  0.4970
  210MOL0     H27658   9.724   9.131   1.747  0.8553 -0.5769 -2.7995
  210MOL0     H27659   9.501   9.182   1.666 -1.8688  0.5145 -2.3441
  210MOL0     H27660   9.624   9.157   1.536 -1.9424 -0.7824  0.0884
  210MOL0     H27661   9.635   9.397   1.514  0.8652 -1.3034  0.9933
  210MOL0     H27662   9.509   9.415   1.642 -3.2718 -3.3131  0.6323
  210MOL0     H27663   9.436   9.438   1.395  1.4033 -0.9333 -1.1576
  210MOL0     H27664   9.456   9.256   1.393  1.1514  1.1130 -0.0500
  210MOL0     H27665   9.264   9.418   1.551 -0.0978  0.2421 -2.9064
  210MOL0     H27666   9.315   9.254   1.607  3.3149  2.1183  0.6513
  210MOL0     H27667   9.252   9.185   1.364  2.6517 -0.1581  3.3806
  210MOL0     H27668   9.188   9.357   1.351  0.3158  0.2868  0.3855
  210MOL0     H27669   9.006   9.196   1.374  3.1463 -2.0442 -1.0897
  210MOL0     H27670   9.058   9.151   1.532 -0.9750  0.3612  1.2320
  210MOL0     H27671   9.007   9.441   1.495 -1.0449 -0.5070 -0.9728
  210MOL0     H27672   9.028   9.340   1.647  1.0102 -1.1334  0.7727
  210MOL0     H27673   8.706   9.483   1.467  1.2476 -0.3522  0.6603
  210MOL0     H27674   8.420   9.225   1.537 -1.6380  2.8356  1.0068
  210MOL0     H27675   8.467   9.297   1.384  2.5627  1.3560 -0.5600
  210MOL0     H27676   8.456   9.518   1.472 -1.4681  1.3612  1.4110
  210MOL0     H27677   8.444   9.454   1.641 -0.6811  2.1857 -0.6720
  210MOL0     H27678   8.235   9.460   1.416 -1.1880 -0.5138 -0.2204
  210MOL0     H27679   8.213   9.340   1.539  1.2735 -0.1571  2.3917
  210MOL0     H27680   8.231   9.641   1.544 -0.6357  0.0175 -1.3936
  210MOL0     H27681   8.236   9.555   1.693 -0.5943 -0.7039  0.5830
  210MOL0     H27682   8.165   9.784   1.705  0.8995  0.1758  0.5243
  210MOL0     H27683   8.044   9.999   1.723 -1.8905 -0.0424  0.6022
  210MOL0     H27684   7.527  10.179   1.807  3.7207  2.2529  1.3050
  210MOL0     H27685   7.429  10.409   1.790  0.3125  0.2412  0.4323
  210MOL0     H27686   7.410  10.616   1.381  0.4704  0.2932  0.1211
  210MOL0     H27687   7.574  10.641   1.448  0.9320  1.2735  2.1975
  210MOL0     H27688   7.508  10.852   1.465  1.1272  0.1435  2.5185
  210MOL0     H27689   7.432  10.809   1.615  0.6989  2.2534 -0.5185
  210MOL0     H27690   7.219  10.747   1.483 -0.4531  0.9069  0.8862
  210MOL0     H27691   7.293  10.829   1.348  1.0697  3.6956 -0.6042
  210MOL0     H27692   7.155  10.989   1.472  0.3127 -1.5792 -0.5695
  210MOL0     H27693   7.239  10.970   1.623  1.7331  1.6866 -0.2770
  210MOL0     H27694   7.372  11.069   1.354 -1.0667 -0.3868 -0.6338
  210MOL0     H27695   7.444  11.074   1.510  0.4074  2.0914  0.6188
  210MOL0     H27696   7.270  11.229   1.584  0.9773 -1.5111  0.1323
  210MOL0     H27697   7.179  11.205   1.431 -0.6296 -0.1554  2.0380
  210MOL0     H27698   7.452  11.346   1.447 -0.5096 -3.7157 -0.8085
  210MOL0     H27699   7.366  11.298   1.307 -0.7840  1.7214 -0.3147
  210MOL0     H27700   7.161  11.426   1.408 -0.2145 -0.5986  1.1512
  210MOL0     H27701   7.290  11.519   1.337 -0.4378  0.0828  0.5674
  210MOL0     H27702   7.555  10.430   1.386 -1.8238  2.8556  2.1140
  210MOL0     H27703   7.683  10.205   1.423 -1.0619  0.6136 -2.5792
  210MOL0     H27704   7.691   9.802   1.588 -0.4228 -0.7337  0.1452
  210MOL0     H27705   7.810   9.597   1.561  0.8662  0.7680 -1.2324
  210MOL0     H27706   9.966   9.464   1.532  2.2044  1.3451 -0.8538
  210MOL0     H27707  10.172   9.555   1.627 -0.3058  0.0743 -1.7133
  210MOL0     H27708  10.557   9.507   1.897  1.4332  1.0695 -0.1186
  210MOL0     H27709  10.741   9.566   2.039  0.7211  2.5748 -0.5117
  210MOL0     H27710  10.895   9.711   2.201 -0.1485 -3.4057 -2.6178
  210MOL0     H27711  10.831   9.557   2.233  1.7582 -0.3075 -1.7476
  210MOL0     H27712  10.835   9.564   2.444 -3.3314  1.6337 -2.2857
  210MOL0     H27713  10.988   9.644   2.403  0.1821  1.5556 -0.4548
  210MOL0     H27714  10.935   9.762   2.579 -0.6362  0.6740  1.5795
  210MOL0     H27715  10.755   9.744   2.560 -0.0826 -2.8906 -0.7671
  210MOL0     H27716  10.917   9.918   2.370 -4.4482  0.3723 -4.3974
  210MOL0     H27717  10.753   9.941   2.400 -0.6718 -4.3850 -2.8167
  210MOL0     H27718  10.871  10.121   2.749  0.6882  1.3149 -0.3704
  210MOL0     H27719  10.461   9.786   2.289  0.9666  0.9739  0.8946
  210MOL0     H27720  10.275   9.706   2.138  0.4722  0.7283  3.3306
  211MOL0     O27721   9.227   1.514   5.959  0.1027  0.5516  0.1458
  211MOL0     C27722   9.291   1.534   6.064  1.0270 -0.1069 -0.1498
  211MOL0     O27723   9.242   1.592   6.177 -0.0934 -0.3496  0.4121
  211MOL0     C27724   9.112   1.631   6.191  0.4331 -0.0398  0.0636
  211MOL0     C27725   9.074   1.756   6.240 -0.0121  0.4653 -0.4496
  211MOL0     C27726   8.942   1.789   6.264  0.4907  0.9334  0.5287
  211MOL0     C27727   8.846   1.696   6.244  0.0557 -0.1587  0.0605
  211MOL0     O27728   8.716   1.728   6.262 -0.1591  0.0579  0.1881
  211MOL0     C27729   8.622   1.697   6.162 -0.4185  0.4342 -0.2627
  211MOL0     C27730   8.537   1.812   6.127  0.7037 -0.3090 -0.3593
  211MOL0     C27731   8.419   1.771   6.042  0.2326  0.3639 -0.1061
  211MOL0     C27732   8.333   1.884   6.027 -0.3334 -0.6420 -0.6717
  211MOL0     C27733   8.201   1.863   5.946 -0.6153 -0.3384 -0.9401
  211MOL0     C27734   8.124   2.000   5.950 -0.0716  0.3530  0.2578
  211MOL0     C27735   7.981   1.976   5.880 -0.5951 -0.4375 -0.4756
  211MOL0     C27736   7.892   2.105   5.905 -0.2864 -0.6773 -0.2917
  211MOL0     N27737   7.855   2.119   6.048 -0.2360 -0.0628 -0.3620
  211MOL0     C27738   7.834   2.018   6.143 -0.1710 -0.2565  0.3682
  211MOL0     C27739   7.810   2.085   6.255 -0.7981 -0.5081 -0.4205
  211MOL0     C27740   7.785   2.015   6.398  0.1329 -0.4789  0.2362
  211MOL0     C27741   7.774   2.113   6.516 -0.8671 -0.2829 -0.1428
  211MOL0     C27742   7.626   2.148   6.536 -0.0959  0.5653 -0.4664
  211MOL0     C27743   7.552   2.229   6.425  0.1426  0.5323 -0.3276
  211MOL0     O27744   7.424   2.277   6.471 -0.3052  0.0683  0.1526
  211MOL0     C27745   7.315   2.190   6.483 -0.4145 -0.2534  0.4540
  211MOL0     C27746   7.312   2.047   6.466 -1.1688  0.2481 -0.2311
  211MOL0     C27747   7.195   1.973   6.488 -0.4316  0.3097  0.4203
  211MOL0     C27748   7.068   2.033   6.501 -0.0187  0.0039 -0.9375
  211MOL0     C27749   6.939   1.962   6.515 -0.2542 -0.1114  0.1259
  211MOL0     O27750   6.817   2.037   6.499  0.5852  0.3679  0.1636
  211MOL0     C27751   6.698   1.987   6.560  0.2161  0.4241  0.0521
  211MOL0     C27752   6.653   1.855   6.537 -0.2224  0.8235 -0.1616
  211MOL0     C27753   6.538   1.815   6.610  0.4185  0.1510 -0.4719
  211MOL0     C27754   6.469   1.910   6.687  0.5893 -0.3760 -0.0652
  211MOL0     O27755   6.360   1.846   6.744 -0.1255 -0.3261 -0.2946
  211MOL0     C27756   6.280   1.931   6.823 -0.3814 -0.5174 -0.4486
  211MOL0     C27757   6.174   1.851   6.898  0.3790  0.1131  0.1620
  211MOL0     C27758   6.071   1.942   6.965 -0.0867 -0.4021 -0.9098
  211MOL0     C27759   5.967   1.855   7.039 -1.0608  0.1893  0.9628
  211MOL0     C27760   5.909   1.954   7.146  0.5056 -0.8614  0.5973
  211MOL0     C27761   5.815   1.870   7.233 -0.4902  0.4525 -0.8612
  211MOL0     C27762   5.731   1.940   7.335  0.3772  0.0419 -0.9406
  211MOL0     C27763   5.622   1.846   7.401  0.0615  0.6519 -0.1160
  211MOL0    Cl27764   5.470   1.919   7.437 -0.1292 -0.2772  0.0308
  211MOL0     C27765   6.507   2.049   6.687  0.3353  0.1690 -0.6858
  211MOL0     C27766   6.621   2.081   6.624  0.5455 -0.7099 -0.2731
  211MOL0     O27767   6.950   1.846   6.550  0.0390  0.1396 -0.3340
  211MOL0     C27768   7.066   2.166   6.499 -0.4119  0.1866  1.5272
  211MOL0     C27769   7.186   2.247   6.507 -0.4120  0.9761 -0.1500
  211MOL0     N27770   7.834   2.224   6.234 -0.0847  0.5224 -0.2678
  211MOL0     N27771   7.853   2.242   6.111 -0.1456 -0.0059 -0.3116
  211MOL0     C27772   8.878   1.573   6.195 -0.3684 -0.2751 -1.0096
  211MOL0     C27773   9.007   1.542   6.173  0.3012 -0.3235  0.2135
  211MOL0     C27774   9.432   1.473   6.067 -0.2116  0.2882  0.6980
  211MOL0     C27775   9.521   1.476   6.178 -0.4345  0.2822 -0.1084
  211MOL0     C27776   9.648   1.419   6.171 -0.0420  0.7391 -0.6247
  211MOL0     C27777   9.687   1.348   6.061 -0.0431 -0.5753 -0.1939
  211MOL0     O27778   9.807   1.276   6.077  0.0968 -0.4490  0.0394
  211MOL0     C27779   9.870   1.207   5.959 -0.7555  0.1386 -0.6409
  211MOL0     C27780  10.021   1.198   5.988  0.3619 -0.1429 -0.1451
  211MOL0     C27781  10.082   1.095   5.894  0.3835 -0.2224 -0.0071
  211MOL0     C27782  10.235   1.093   5.928 -0.5222  0.7613 -0.2122
  211MOL0     C27783  10.324   1.043   5.820  0.5964  0.4483  0.6140
  211MOL0     C27784  10.406   1.005   5.728 -0.0246  0.2740 -0.3298
  211MOL0     C27785   9.598   1.340   5.956 -0.3115  0.1600  0.0283
  211MOL0     C27786   9.477   1.409   5.944  0.4928  1.1776 -0.0007
  211MOL0     H27787   9.156   1.826   6.254  2.6564 -1.6555 -3.9429
  211MOL0     H27788   8.914   1.891   6.289  0.2344  0.9174  0.3152
  211MOL0     H27789   8.560   1.621   6.210  0.0048  0.0757 -0.2697
  211MOL0     H27790   8.677   1.661   6.074 -1.0665  1.5232 -1.1276
  211MOL0     H27791   8.592   1.875   6.057  1.3857  0.7318  1.0554
  211MOL0     H27792   8.513   1.872   6.215  2.4894  0.3100 -0.2336
  211MOL0     H27793   8.361   1.685   6.077  1.6647 -0.7460 -0.3851
  211MOL0     H27794   8.463   1.747   5.945  0.6088 -1.3738  0.4536
  211MOL0     H27795   8.310   1.926   6.126 -0.3706 -2.0198 -0.0695
  211MOL0     H27796   8.391   1.956   5.969  1.2197  0.1408  1.6796
  211MOL0     H27797   8.137   1.787   5.992 -0.3314 -0.2958 -0.4688
  211MOL0     H27798   8.218   1.828   5.844  0.2409 -0.6762 -0.6904
  211MOL0     H27799   8.190   2.064   5.891 -1.8426  1.8710 -0.1462
  211MOL0     H27800   8.111   2.013   6.058  0.0857 -3.3235  0.8653
  211MOL0     H27801   7.995   1.966   5.772  1.5404 -0.5180 -0.2284
  211MOL0     H27802   7.947   1.882   5.924  3.8327 -1.3901  1.4233
  211MOL0     H27803   7.804   2.096   5.841  0.7423 -1.7116 -1.6171
  211MOL0     H27804   7.947   2.192   5.868 -0.8284  0.0823  0.6307
  211MOL0     H27805   7.827   1.912   6.119  1.3810 -0.1990 -0.4417
  211MOL0     H27806   7.863   1.943   6.422  0.3542 -0.1054  0.6553
  211MOL0     H27807   7.692   1.959   6.386 -0.8251  1.0744  0.0793
  211MOL0     H27808   7.842   2.198   6.500  0.9195 -1.7070 -0.5183
  211MOL0     H27809   7.816   2.063   6.604 -0.8302  2.4426  1.5075
  211MOL0     H27810   7.577   2.054   6.562 -3.0463  2.3009  0.8738
  211MOL0     H27811   7.615   2.197   6.634  1.0016 -2.9784  1.5830
  211MOL0     H27812   7.546   2.163   6.338  1.2833  1.1096 -0.8597
  211MOL0     H27813   7.614   2.318   6.409 -0.4322  1.1897  0.9655
  211MOL0     H27814   7.402   1.988   6.449 -2.6972 -1.4500 -3.1859
  211MOL0     H27815   7.220   1.867   6.489 -0.0714  0.3904  2.2965
  211MOL0     H27816   6.710   1.790   6.472 -1.2748  1.4784 -1.7962
  211MOL0     H27817   6.511   1.711   6.599 -1.4308  0.5111  0.2387
  211MOL0     H27818   6.239   2.010   6.759  1.0210  2.4302  2.0332
  211MOL0     H27819   6.347   1.980   6.895  0.3863 -1.8690 -0.2065
  211MOL0     H27820   6.234   1.786   6.962  0.5512 -0.1766 -0.2877
  211MOL0     H27821   6.114   1.781   6.839 -0.4279 -3.6899  4.8832
  211MOL0     H27822   6.030   2.000   6.882 -1.9674 -0.2217  0.0884
  211MOL0     H27823   6.118   2.012   7.035  0.5835 -1.1348 -0.6055
  211MOL0     H27824   5.898   1.821   6.961 -1.4777 -0.6986  1.6872
  211MOL0     H27825   6.010   1.763   7.080 -0.4530 -0.4374 -0.9737
  211MOL0     H27826   5.840   2.026   7.100  0.7954 -1.8807 -1.5347
  211MOL0     H27827   5.983   2.003   7.210  0.2126  0.2643  0.0982
  211MOL0     H27828   5.879   1.798   7.286 -1.8943 -0.0860  0.1665
  211MOL0     H27829   5.744   1.813   7.173 -1.3225  0.1228  0.4047
  211MOL0     H27830   5.790   1.977   7.419  1.0218 -0.3713 -1.2123
  211MOL0     H27831   5.677   2.020   7.281 -2.2513 -1.3207 -0.5153
  211MOL0     H27832   5.662   1.813   7.498  0.4118  0.6894 -0.2464
  211MOL0     H27833   5.611   1.750   7.350  0.5775 -1.3972  3.3136
  211MOL0     H27834   6.448   2.126   6.736 -0.0030  0.0926 -0.9694
  211MOL0     H27835   6.656   2.183   6.639 -3.2618  0.7841 -0.1813
  211MOL0     H27836   6.971   2.217   6.511 -0.0758  1.2495  0.0149
  211MOL0     H27837   7.185   2.355   6.514 -0.7226  1.0198 -0.8321
  211MOL0     H27838   8.799   1.501   6.174 -2.0172  0.6520  1.6050
  211MOL0     H27839   9.030   1.438   6.149 -0.1445 -0.5124  0.5855
  211MOL0     H27840   9.484   1.535   6.261 -1.0716  1.4796 -1.1986
  211MOL0     H27841   9.721   1.432   6.250 -1.7814  1.7936  0.9021
  211MOL0     H27842   9.861   1.252   5.859 -0.1180  0.0981 -0.7240
  211MOL0     H27843   9.831   1.105   5.953  0.9247 -0.5121 -1.0737
  211MOL0     H27844  10.070   1.291   5.961  3.3124 -1.9321 -1.4787
  211MOL0     H27845  10.037   1.179   6.095  2.9279  0.5918 -0.3415
  211MOL0     H27846  10.066   1.126   5.790 -4.4791 -1.3195  0.1768
  211MOL0     H27847  10.030   0.999   5.905  0.5468 -0.2936  0.1525
  211MOL0     H27848  10.279   1.191   5.948  3.4856 -0.8178 -0.4235
  211MOL0     H27849  10.250   1.023   6.011  0.0624 -2.3211 -2.6888
  211MOL0     H27850  10.480   0.969   5.660  0.3930 -1.9728  1.1842
  211MOL0     H27851   9.635   1.288   5.868  3.7234  1.9220  0.4695
  211MOL0     H27852   9.427   1.418   5.848  1.2307 -1.2561 -0.6842
  212MOL0     O27853   7.645   8.260   3.075 -0.1999  0.3812  1.0398
  212MOL0     C27854   7.617   8.212   2.966 -0.4923 -0.2306 -0.6249
  212MOL0     O27855   7.507   8.242   2.892  1.1585 -0.0623 -1.1012
  212MOL0     C27856   7.420   8.339   2.932  0.4147 -0.2925 -0.0499
  212MOL0     C27857   7.372   8.347   3.065 -0.7834  0.2876  0.6168
  212MOL0     C27858   7.286   8.444   3.103 -0.3998 -0.0171  0.7471
  212MOL0     C27859   7.236   8.542   3.009  0.2404  0.0528 -0.8929
  212MOL0     O27860   7.145   8.647   3.042 -0.1604 -0.0208 -0.0033
  212MOL0     C27861   7.065   8.622   3.161  0.4068 -0.2692 -0.7750
  212MOL0     C27862   6.969   8.740   3.182 -0.1928 -0.3458  0.9407
  212MOL0     C27863   6.883   8.773   3.066 -0.0759  0.2007  0.9231
  212MOL0     C27864   6.783   8.893   3.086  0.1354  0.1540 -0.2192
  212MOL0     C27865   6.835   9.032   3.039  0.8635  0.4774  0.0076
  212MOL0     C27866   6.729   9.142   3.036  1.2049  0.0037  0.5348
  212MOL0     C27867   6.772   9.261   2.951  0.3114  0.2020 -0.4218
  212MOL0     C27868   6.665   9.371   2.952  0.2363  0.3466 -0.3115
  212MOL0     N27869   6.537   9.336   2.875  0.7612 -0.0486  0.0847
  212MOL0     C27870   6.504   9.372   2.751 -1.0389 -0.6269  0.5112
  212MOL0     C27871   6.379   9.320   2.734 -0.3796  0.0935  0.1134
  212MOL0     C27872   6.307   9.351   2.606  0.8528  0.0073 -0.3787
  212MOL0     C27873   6.185   9.253   2.596  0.2140  0.0726 -0.6852
  212MOL0     C27874   6.092   9.263   2.470  0.4284 -0.3465  0.2251
  212MOL0     C27875   6.021   9.396   2.446 -0.2291  0.3618  0.6700
  212MOL0     O27876   5.929   9.407   2.550  0.1488  0.4443  0.0824
  212MOL0     C27877   5.832   9.499   2.548 -0.4230 -0.4655 -0.4799
  212MOL0     C27878   5.741   9.502   2.657 -0.4116  0.1924  0.5304
  212MOL0     C27879   5.625   9.574   2.655 -0.1201 -0.2828  0.1201
  212MOL0     C27880   5.591   9.653   2.550  0.1098  0.1365  0.1957
  212MOL0     C27881   5.462   9.729   2.547  0.8751 -0.0698 -0.2687
  212MOL0     O27882   5.376   9.717   2.658  0.4361  0.1509  0.2922
  212MOL0     C27883   5.251   9.766   2.643  0.1902 -0.2623 -0.6055
  212MOL0     C27884   5.164   9.722   2.534 -0.0644 -0.3528  0.4484
  212MOL0     C27885   5.034   9.774   2.526  0.1890 -0.1681  0.3591
  212MOL0     C27886   4.986   9.873   2.607  0.1609 -0.1958 -0.6012
  212MOL0     O27887   4.857   9.924   2.598  0.5287  1.0789  0.1834
  212MOL0     C27888   4.804  10.018   2.691 -0.6030 -0.0194  0.0654
  212MOL0     C27889   4.666  10.064   2.655  0.2773 -0.1787 -0.3508
  212MOL0     C27890   4.596  10.108   2.781 -1.0448  0.6476 -0.6268
  212MOL0     C27891   4.447  10.113   2.754  0.6564 -0.4367 -1.1668
  212MOL0     C27892   4.379  10.230   2.831  0.3904 -0.5833 -0.0093
  212MOL0     C27893   4.226  10.253   2.769 -1.0586 -0.7837 -0.0963
  212MOL0     C27894   4.163  10.395   2.795  0.4074 -0.3622  0.6232
  212MOL0     C27895   4.008  10.395   2.820  0.3264 -0.1912 -0.0345
  212MOL0    Cl27896   3.946  10.564   2.821  0.3017  0.5588 -0.1872
  212MOL0     C27897   5.074   9.912   2.710  0.2485 -0.2509  0.4529
  212MOL0     C27898   5.202   9.858   2.733  1.5390 -1.1085  0.7352
  212MOL0     O27899   5.428   9.770   2.431  0.5251  0.0735 -0.3555
  212MOL0     C27900   5.683   9.653   2.448  0.1407 -0.6720  0.9284
  212MOL0     C27901   5.803   9.581   2.436  0.7090  0.0313 -0.4412
  212MOL0     N27902   6.349   9.237   2.831 -0.6668  0.6497  0.4517
  212MOL0     N27903   6.445   9.247   2.914  0.3448 -0.4893 -0.6628
  212MOL0     C27904   7.294   8.541   2.883 -0.5701 -0.2006  0.3237
  212MOL0     C27905   7.383   8.441   2.839 -0.8502  0.4521  0.2576
  212MOL0     C27906   7.723   8.126   2.904 -0.0314 -0.5825 -0.4406
  212MOL0     C27907   7.693   8.075   2.780  0.0279 -0.1747 -0.1500
  212MOL0     C27908   7.786   7.996   2.712 -0.5741  0.1734 -0.1791
  212MOL0     C27909   7.909   7.975   2.769  0.3556  0.1292  0.0781
  212MOL0     O27910   7.996   7.892   2.703  0.8742 -0.3026 -0.1010
  212MOL0     C27911   7.998   7.895   2.560 -0.2799 -0.1048  0.4594
  212MOL0     C27912   8.119   7.819   2.508 -0.1732 -0.2988  0.2772
  212MOL0     C27913   8.138   7.859   2.363  0.0585 -0.2289  0.8552
  212MOL0     C27914   8.216   7.771   2.276 -0.2971  0.1834  0.4688
  212MOL0     C27915   8.207   7.807   2.133  1.2227 -0.5141 -0.2450
  212MOL0     C27916   8.172   7.829   2.018 -1.2322  0.3133  0.0201
  212MOL0     C27917   7.937   8.023   2.895  0.8153  0.0538  0.5522
  212MOL0     C27918   7.841   8.097   2.963 -1.1800 -0.5271  0.2102
  212MOL0     H27919   7.400   8.288   3.151  2.6302  1.4926  0.4842
  212MOL0     H27920   7.247   8.436   3.204 -1.6704 -1.1120  0.1900
  212MOL0     H27921   7.125   8.621   3.253  0.3237  0.2604 -0.7085
  212MOL0     H27922   7.010   8.528   3.150  1.2875 -0.8301 -0.4422
  212MOL0     H27923   7.040   8.821   3.199  1.2719 -0.8498 -2.1110
  212MOL0     H27924   6.907   8.722   3.271 -1.2396  1.6335  0.6706
  212MOL0     H27925   6.835   8.676   3.052  1.3832 -0.2531 -1.3728
  212MOL0     H27926   6.944   8.804   2.980  0.4022  4.2105  2.4944
  212MOL0     H27927   6.688   8.875   3.035  0.1483  0.4349 -0.3445
  212MOL0     H27928   6.756   8.900   3.191 -2.4439  0.5329 -0.8466
  212MOL0     H27929   6.874   9.020   2.937  1.3094 -1.3208  0.3604
  212MOL0     H27930   6.927   9.054   3.094  1.7847  1.1126 -1.7095
  212MOL0     H27931   6.722   9.169   3.142 -1.3308  3.1640 -0.2473
  212MOL0     H27932   6.632   9.101   3.005  2.0495 -1.4802 -0.2373
  212MOL0     H27933   6.871   9.295   2.983 -0.9048  2.5022  1.1906
  212MOL0     H27934   6.786   9.227   2.849 -2.1244 -0.0624 -0.7460
  212MOL0     H27935   6.706   9.460   2.903  0.3993  0.6128  0.3093
  212MOL0     H27936   6.631   9.393   3.053 -0.9227 -0.0900 -0.5964
  212MOL0     H27937   6.545   9.445   2.682 -0.7184  0.0220  1.3622
  212MOL0     H27938   6.378   9.344   2.523  1.1249 -0.3831 -0.1148
  212MOL0     H27939   6.268   9.453   2.599  1.1020  0.2986  1.8445
  212MOL0     H27940   6.123   9.264   2.685  0.1090  5.0893 -1.0717
  212MOL0     H27941   6.220   9.150   2.602  1.4167  0.4843 -0.2040
  212MOL0     H27942   6.153   9.262   2.380 -0.3471 -1.0500 -0.3112
  212MOL0     H27943   6.026   9.176   2.459  0.4148 -0.0703 -2.5596
  212MOL0     H27944   5.983   9.387   2.343 -1.6444  2.0490  1.0105
  212MOL0     H27945   6.085   9.484   2.453  1.3405 -0.7964  1.7907
  212MOL0     H27946   5.753   9.429   2.736  0.8601  0.0908  0.2612
  212MOL0     H27947   5.559   9.546   2.737 -0.1516 -1.5125 -0.3037
  212MOL0     H27948   5.189   9.641   2.465  0.5916 -1.8793  2.3740
  212MOL0     H27949   4.979   9.729   2.444 -0.0848 -2.3102  1.6623
  212MOL0     H27950   4.866  10.107   2.706  2.2151 -2.3772  4.7544
  212MOL0     H27951   4.795   9.962   2.784  1.7198 -1.4460 -0.5027
  212MOL0     H27952   4.610   9.978   2.617  0.4101 -0.6473  0.4840
  212MOL0     H27953   4.675  10.148   2.586 -0.5461 -1.8962 -2.6845
  212MOL0     H27954   4.636  10.205   2.814  1.6700 -0.0559 -1.5763
  212MOL0     H27955   4.610  10.038   2.864  1.1981  0.2546 -1.2770
  212MOL0     H27956   4.415  10.115   2.649 -0.7414 -5.0055 -1.0605
  212MOL0     H27957   4.397  10.020   2.783 -0.4077 -0.8552 -3.9811
  212MOL0     H27958   4.439  10.320   2.813 -2.4047  2.3067  3.5528
  212MOL0     H27959   4.367  10.219   2.939 -1.2490  2.9270  0.3109
  212MOL0     H27960   4.169  10.172   2.817 -0.2482 -2.7088 -2.2312
  212MOL0     H27961   4.197  10.215   2.671 -2.4252 -1.7818  0.6424
  212MOL0     H27962   4.214  10.428   2.886  1.9543  0.1115 -0.3654
  212MOL0     H27963   4.184  10.459   2.709  0.1770  1.0510  1.5769
  212MOL0     H27964   3.997  10.334   2.911  0.6207 -1.6819 -0.9669
  212MOL0     H27965   3.966  10.338   2.737  2.1355  1.0153 -1.8692
  212MOL0     H27966   5.038   9.989   2.778  1.2700 -0.7233  1.5587
  212MOL0     H27967   5.253   9.903   2.817 -0.2511  5.8650 -1.2436
  212MOL0     H27968   5.650   9.705   2.359 -0.1301 -1.9732  0.2530
  212MOL0     H27969   5.854   9.581   2.340  2.3889  0.9851  0.4089
  212MOL0     H27970   7.262   8.603   2.799  0.0053 -3.9469 -2.9459
  212MOL0     H27971   7.433   8.443   2.743 -4.3143  0.0940 -1.7089
  212MOL0     H27972   7.601   8.094   2.726 -0.5342 -3.1385 -0.3951
  212MOL0     H27973   7.758   7.953   2.617 -2.3554 -1.1907  0.8933
  212MOL0     H27974   7.999   7.999   2.526 -0.9109 -0.6160 -1.2172
  212MOL0     H27975   7.907   7.858   2.512  0.4517  2.5639 -3.4573
  212MOL0     H27976   8.205   7.856   2.566  0.6801  3.0437 -2.7510
  212MOL0     H27977   8.110   7.711   2.520  2.3291 -0.7449 -1.3220
  212MOL0     H27978   8.173   7.962   2.352  1.2695 -0.8884 -2.5561
  212MOL0     H27979   8.037   7.873   2.323  0.5284 -0.5551 -0.4889
  212MOL0     H27980   8.323   7.763   2.302 -0.3240 -2.7795 -0.0150
  212MOL0     H27981   8.178   7.670   2.294 -1.8782  0.9135  1.4194
  212MOL0     H27982   8.153   7.839   1.913  0.4554 -0.8739 -0.4442
  212MOL0     H27983   8.029   8.004   2.950 -0.2365 -2.1853  1.6664
  212MOL0     H27984   7.874   8.148   3.053  0.1325 -2.0083  0.6089
  213MOL0     O27985   8.156   7.835   9.699 -0.6395  0.7663 -0.1652
  213MOL0     C27986   8.278   7.839   9.662  1.1542  0.6025 -0.1287
  213MOL0     O27987   8.337   7.951   9.611 -0.3783  1.1217  0.1712
  213MOL0     C27988   8.253   8.049   9.563 -0.0740 -0.3582  0.1388
  213MOL0     C27989   8.214   8.142   9.663 -0.0644  0.0819 -0.0197
  213MOL0     C27990   8.137   8.247   9.621  0.4489  0.7696 -0.5032
  213MOL0     C27991   8.076   8.259   9.495  0.1623 -0.3412 -0.7328
  213MOL0     O27992   7.968   8.330   9.455 -0.3593 -0.1529 -0.1825
  213MOL0     C27993   7.902   8.402   9.559  0.2695 -0.0503 -0.4327
  213MOL0     C27994   7.779   8.466   9.489 -0.2748 -0.1781 -0.4982
  213MOL0     C27995   7.667   8.500   9.589 -0.5134  0.7033  0.1996
  213MOL0     C27996   7.580   8.606   9.512  0.7878 -0.4010  0.0089
  213MOL0     C27997   7.476   8.669   9.611  0.5452  0.4415  1.0768
  213MOL0     C27998   7.357   8.581   9.639  0.8476 -0.1732  0.5331
  213MOL0     C27999   7.248   8.679   9.684  0.4881  0.7297 -0.0153
  213MOL0     C28000   7.128   8.611   9.737  0.0796  0.3700 -0.4798
  213MOL0     N28001   7.041   8.711   9.810 -0.2707  0.2924  1.1171
  213MOL0     C28002   6.963   8.804   9.736  0.0624  1.3412 -0.4759
  213MOL0     C28003   6.913   8.881   9.836 -0.5659  0.7939 -0.5562
  213MOL0     C28004   6.830   9.007   9.810 -0.4593  0.2312 -0.5015
  213MOL0     C28005   6.724   9.037   9.915 -0.1835 -0.1458  0.1197
  213MOL0     C28006   6.672   9.177   9.888 -0.0489 -0.2559 -0.0143
  213MOL0     C28007   6.564   9.205   9.990  0.3370 -0.6684 -0.2884
  213MOL0     O28008   6.504   9.335   9.961 -0.8480 -0.3031 -0.0860
  213MOL0     C28009   6.393   9.378  10.041  0.3064 -0.1917  0.2031
  213MOL0     C28010   6.338   9.294  10.137 -0.1504 -0.6734  0.1781
  213MOL0     C28011   6.232   9.333  10.219 -0.8781 -0.5198  0.0132
  213MOL0     C28012   6.155   9.453  10.185  1.1661  0.4182  0.5332
  213MOL0     C28013   6.027   9.492  10.262  0.2828 -0.0271  0.5102
  213MOL0     O28014   5.986   9.622  10.227 -0.0132  0.2269  0.2208
  213MOL0     C28015   5.885   9.669  10.303  0.2324  0.4501  0.8358
  213MOL0     C28016   5.760   9.686  10.248  0.3145 -0.2787  0.2369
  213MOL0     C28017   5.656   9.724  10.336  0.1619 -0.4943 -0.6611
  213MOL0     C28018   5.674   9.748  10.473 -1.3593  0.3837  0.3390
  213MOL0     O28019   5.581   9.748  10.565 -0.0485 -0.4985  0.4598
  213MOL0     C28020   5.470   9.832  10.535  0.1197  0.4973  0.8863
  213MOL0     C28021   5.381   9.850  10.655  0.1432  0.1588  0.1375
  213MOL0     C28022   5.252   9.929  10.607 -0.1756  0.5394 -0.2944
  213MOL0     C28023   5.154   9.918  10.720 -0.3451 -0.5309 -0.7495
  213MOL0     C28024   5.017   9.967  10.677 -0.0416 -0.6558  0.3672
  213MOL0     C28025   4.921   9.978  10.793  0.6063  0.1336  0.1198
  213MOL0     C28026   4.771  10.003  10.761 -0.6701  0.2299 -0.0070
  213MOL0     C28027   4.767  10.122  10.663 -0.7533  0.3996 -0.2816
  213MOL0    Cl28028   4.592  10.147  10.623  0.2267  0.1332 -0.2390
  213MOL0     C28029   5.800   9.743  10.525  0.1470 -0.3185 -0.5509
  213MOL0     C28030   5.907   9.700  10.434  1.0883  0.3415 -0.2617
  213MOL0     O28031   5.988   9.416  10.347  0.4238 -0.3594  0.4271
  213MOL0     C28032   6.214   9.534  10.086  0.5016  0.5015 -0.1765
  213MOL0     C28033   6.330   9.501  10.015 -0.2202 -0.2941 -0.0460
  213MOL0     N28034   6.958   8.837   9.966  0.1843  0.6673 -0.3527
  213MOL0     N28035   7.031   8.726   9.947  0.1058  0.0449  0.1379
  213MOL0     C28036   8.114   8.166   9.394 -0.2520 -0.2972 -0.5198
  213MOL0     C28037   8.200   8.056   9.432  0.4413  0.0743  0.2282
  213MOL0     C28038   8.373   7.740   9.708 -0.8044 -0.0895  0.7251
  213MOL0     C28039   8.327   7.619   9.752 -0.9483  0.3803 -0.6891
  213MOL0     C28040   8.422   7.531   9.810 -0.0051  0.0557 -0.5840
  213MOL0     C28041   8.556   7.556   9.809  0.5419  0.3228 -0.0696
  213MOL0     O28042   8.631   7.463   9.872  0.3046 -0.3023  0.0557
  213MOL0     C28043   8.775   7.463   9.861  0.9503  1.2213  0.2244
  213MOL0     C28044   8.845   7.477   9.994 -0.5583 -0.3072 -0.1033
  213MOL0     C28045   8.791   7.596  10.073  0.5752 -0.2422  0.7909
  213MOL0     C28046   8.873   7.633  10.204 -0.2218 -0.6124  0.0169
  213MOL0     C28047   8.881   7.508  10.286 -0.8422  0.1016  0.2000
  213MOL0     C28048   8.896   7.407  10.348 -0.1315 -0.2380 -0.3485
  213MOL0     C28049   8.602   7.671   9.745 -0.0305 -1.3039 -0.5033
  213MOL0     C28050   8.514   7.767   9.687  0.3901 -0.9205 -0.3587
  213MOL0     H28051   8.241   8.121   9.766 -0.2350  0.8045  0.1771
  213MOL0     H28052   8.124   8.327   9.693  1.5161  2.6787 -2.3203
  213MOL0     H28053   7.970   8.484   9.587 -0.5000  2.1854 -4.3339
  213MOL0     H28054   7.875   8.351   9.651  1.9850 -0.9812 -0.4105
  213MOL0     H28055   7.730   8.408   9.411  1.4951 -1.2747 -0.8664
  213MOL0     H28056   7.805   8.566   9.453  0.0159 -0.4175 -0.9831
  213MOL0     H28057   7.709   8.542   9.681 -3.5983  2.6740  0.8669
  213MOL0     H28058   7.609   8.415   9.626  2.5842 -0.0362  3.9994
  213MOL0     H28059   7.630   8.695   9.472 -1.8361  1.2170  0.1270
  213MOL0     H28060   7.523   8.562   9.430 -1.0339 -1.2195  1.6402
  213MOL0     H28061   7.445   8.755   9.552  3.7758 -0.4362 -2.2438
  213MOL0     H28062   7.524   8.706   9.702  3.5218 -0.2268 -0.1221
  213MOL0     H28063   7.384   8.510   9.718  4.7429 -1.7247 -1.8641
  213MOL0     H28064   7.325   8.532   9.547 -1.7999  3.1143 -0.5197
  213MOL0     H28065   7.294   8.734   9.767  1.1991 -1.1836  0.9236
  213MOL0     H28066   7.217   8.752   9.609  0.6835  1.6643  0.7839
  213MOL0     H28067   7.150   8.537   9.814 -3.0908 -1.0492 -0.7845
  213MOL0     H28068   7.072   8.566   9.655  0.3043  0.1033 -0.4852
  213MOL0     H28069   6.955   8.830   9.631 -0.1282  1.3040 -0.4707
  213MOL0     H28070   6.794   8.994   9.707  0.4418 -0.7928 -0.7082
  213MOL0     H28071   6.902   9.089   9.813  0.7305 -0.8150  1.2196
  213MOL0     H28072   6.775   9.038  10.011  0.6867 -0.7248 -0.3215
  213MOL0     H28073   6.639   8.969   9.905 -1.4985  1.0405  2.4899
  213MOL0     H28074   6.756   9.246   9.890 -0.5608  0.3705  0.4680
  213MOL0     H28075   6.631   9.184   9.786 -0.8750 -2.2628  0.1294
  213MOL0     H28076   6.607   9.204  10.090  2.1281  0.8628 -0.9906
  213MOL0     H28077   6.491   9.124   9.986  0.2745 -0.6424  0.2499
  213MOL0     H28078   6.391   9.202  10.156  0.7848 -0.9251 -3.0061
  213MOL0     H28079   6.197   9.275  10.303 -4.6587  0.3498 -0.7991
  213MOL0     H28080   5.748   9.676  10.141  0.8022  2.4704 -0.1538
  213MOL0     H28081   5.554   9.728  10.300 -0.3964  0.5936  0.9545
  213MOL0     H28082   5.404   9.793  10.457 -2.4510 -0.4745  3.3742
  213MOL0     H28083   5.504   9.934  10.512 -1.9763  0.3837 -4.0984
  213MOL0     H28084   5.440   9.909  10.726  0.1241 -0.5931  0.7897
  213MOL0     H28085   5.348   9.754  10.695  1.5762  0.2068  1.5244
  213MOL0     H28086   5.202   9.873  10.528 -0.6502 -2.2639  1.8486
  213MOL0     H28087   5.274  10.031  10.573  0.8697 -0.1605 -1.8284
  213MOL0     H28088   5.150   9.810  10.742  2.6541 -0.5615  0.0582
  213MOL0     H28089   5.187   9.974  10.807 -0.4160 -0.2044 -0.9329
  213MOL0     H28090   4.975   9.897  10.605  0.9131  1.5243 -2.5246
  213MOL0     H28091   5.016  10.065  10.629 -1.5619 -0.6051  0.4730
  213MOL0     H28092   4.959  10.068  10.843  1.2789 -0.3662  0.5251
  213MOL0     H28093   4.938   9.894  10.861  1.6079 -0.5365 -0.9299
  213MOL0     H28094   4.727   9.912  10.719  0.2967  0.3199 -1.2804
  213MOL0     H28095   4.714  10.025  10.852 -2.2960 -1.9060 -0.4189
  213MOL0     H28096   4.819  10.099  10.570  2.6474  1.2451  1.2719
  213MOL0     H28097   4.816  10.204  10.716  1.7681 -0.3791 -1.2899
  213MOL0     H28098   5.812   9.761  10.631  1.3559  1.1500 -0.8960
  213MOL0     H28099   6.007   9.685  10.473  1.4695  0.1257 -1.2797
  213MOL0     H28100   6.182   9.636  10.064  4.1735  1.6337 -0.9965
  213MOL0     H28101   6.366   9.576   9.946 -0.4108 -0.8719 -0.7913
  213MOL0     H28102   8.073   8.179   9.294  0.6559  2.8723 -0.6108
  213MOL0     H28103   8.224   7.990   9.350  0.3728 -0.7472  0.8618
  213MOL0     H28104   8.223   7.589   9.741 -0.6779 -0.7930 -0.2173
  213MOL0     H28105   8.397   7.430   9.841 -2.5105  0.5841 -0.6642
  213MOL0     H28106   8.809   7.552   9.807 -0.5291  1.2139 -0.7920
  213MOL0     H28107   8.821   7.374   9.818 -0.5621 -0.8718  2.6097
  213MOL0     H28108   8.832   7.386  10.054 -2.6756  0.1373  0.1795
  213MOL0     H28109   8.954   7.489   9.984 -0.0403 -3.5077  0.4879
  213MOL0     H28110   8.687   7.568  10.094  0.0356  0.7517 -0.4229
  213MOL0     H28111   8.763   7.675  10.003 -1.9271 -2.1566 -0.5154
  213MOL0     H28112   8.973   7.676  10.192  0.5143 -2.2394  0.0372
  213MOL0     H28113   8.819   7.712  10.257  0.3106  0.5699 -1.1332
  213MOL0     H28114   8.913   7.316  10.402  4.2375  1.8253  2.3181
  213MOL0     H28115   8.707   7.695   9.732 -0.3218  0.3459 -0.1441
  213MOL0     H28116   8.558   7.856   9.645  1.4910 -2.1940 -2.0156
  214MOL0     O28117   4.431   1.169   1.691  0.3974 -0.2875  1.1936
  214MOL0     C28118   4.425   1.173   1.556  0.7036  0.2480 -0.3350
  214MOL0     O28119   4.418   1.291   1.484  0.3626  0.4694  0.5210
  214MOL0     C28120   4.342   1.393   1.534  0.2464 -0.0667 -0.5350
  214MOL0     C28121   4.375   1.521   1.497  0.3554  0.2886 -0.0798
  214MOL0     C28122   4.285   1.629   1.516  0.8458 -0.1208  0.2293
  214MOL0     C28123   4.166   1.621   1.591 -1.4663 -0.7172 -0.8403
  214MOL0     O28124   4.082   1.720   1.616 -0.0712 -0.0145 -0.1996
  214MOL0     C28125   4.136   1.851   1.636 -0.6666  0.1331  0.0546
  214MOL0     C28126   4.032   1.924   1.718 -0.5079 -1.4092 -0.8396
  214MOL0     C28127   4.062   2.078   1.718  0.4765  0.3666  0.0307
  214MOL0     C28128   3.927   2.150   1.755  0.3172  0.1895  1.1324
  214MOL0     C28129   3.947   2.297   1.778  0.3477  0.2438 -0.3188
  214MOL0     C28130   3.837   2.346   1.867  0.2196 -0.3429 -1.5482
  214MOL0     C28131   3.836   2.496   1.918  0.2777  0.1180 -0.2710
  214MOL0     C28132   3.757   2.531   2.039 -0.1753 -0.1315  0.3594
  214MOL0     N28133   3.613   2.557   2.028  0.4814 -0.1977  0.4149
  214MOL0     C28134   3.572   2.625   1.920 -0.3285 -0.3074 -0.0978
  214MOL0     C28135   3.437   2.622   1.934  0.5274 -1.2407  0.3193
  214MOL0     C28136   3.336   2.676   1.833  0.1115 -1.0656  0.0743
  214MOL0     C28137   3.194   2.684   1.886 -0.0369  0.5271  0.3161
  214MOL0     C28138   3.092   2.721   1.784  0.1882 -0.5505  0.1620
  214MOL0     C28139   3.086   2.873   1.757 -0.2259 -0.2136 -0.2805
  214MOL0     O28140   2.982   2.920   1.675  0.5486  0.5367  0.1185
  214MOL0     C28141   2.859   2.943   1.727  0.2047  0.3172  0.5015
  214MOL0     C28142   2.767   3.006   1.650  0.1722  0.7942 -0.0946
  214MOL0     C28143   2.632   3.034   1.681 -0.0386  1.0804  0.6982
  214MOL0     C28144   2.588   2.995   1.804  0.5554  0.1537 -0.0790
  214MOL0     C28145   2.444   3.011   1.843 -0.0008  0.3500 -0.5653
  214MOL0     O28146   2.416   2.960   1.963 -0.5552 -0.0767  0.4898
  214MOL0     C28147   2.285   2.966   2.001  0.4396  0.3516  0.5975
  214MOL0     C28148   2.202   2.855   2.004  0.0833 -0.2061 -0.0119
  214MOL0     C28149   2.069   2.862   2.047 -0.0339  0.7681 -0.1820
  214MOL0     C28150   2.022   2.983   2.102  0.2573  0.4223 -0.1416
  214MOL0     O28151   1.889   2.988   2.145  0.3469  0.1331  0.0755
  214MOL0     C28152   1.831   3.104   2.198 -0.3681  0.2874 -0.3067
  214MOL0     C28153   1.691   3.068   2.264 -0.7933 -0.9180  0.0898
  214MOL0     C28154   1.721   2.966   2.374  0.5698  0.3347 -0.3647
  214MOL0     C28155   1.609   2.962   2.476  0.4561  0.7328  0.3947
  214MOL0     C28156   1.578   3.100   2.542  0.0603 -0.2044 -0.5223
  214MOL0     C28157   1.474   3.078   2.654  0.3309 -0.3446 -0.0696
  214MOL0     C28158   1.345   3.050   2.585 -0.4099 -0.2447 -0.2997
  214MOL0     C28159   1.239   3.027   2.694 -0.1340 -0.2349  0.0781
  214MOL0    Cl28160   1.074   3.045   2.633  0.4127 -0.0102  0.3952
  214MOL0     C28161   2.105   3.092   2.103 -0.7036 -0.6605  1.5746
  214MOL0     C28162   2.235   3.084   2.055 -0.5250  0.1839  0.0022
  214MOL0     O28163   2.373   3.081   1.769  0.1686  1.0958  0.6891
  214MOL0     C28164   2.682   2.934   1.894  0.0444  0.6749  0.1418
  214MOL0     C28165   2.813   2.908   1.856 -0.1104 -0.2438  0.0299
  214MOL0     N28166   3.409   2.572   2.060  0.2972 -0.4395  0.0260
  214MOL0     N28167   3.514   2.528   2.112  0.1946 -0.2755 -0.6462
  214MOL0     C28168   4.138   1.493   1.642 -0.8563 -0.3006 -0.1493
  214MOL0     C28169   4.221   1.388   1.604 -0.4497  0.2524 -0.1794
  214MOL0     C28170   4.455   1.046   1.485 -0.4394  0.1204  0.1912
  214MOL0     C28171   4.398   1.021   1.354 -0.7202 -0.2035 -0.9110
  214MOL0     C28172   4.442   0.911   1.286  0.1992  0.8130 -0.0149
  214MOL0     C28173   4.528   0.814   1.342  0.6166 -1.3298 -0.4868
  214MOL0     O28174   4.555   0.710   1.261 -0.0388 -1.3165 -0.4473
  214MOL0     C28175   4.661   0.618   1.295 -1.2325 -0.3084 -0.7714
  214MOL0     C28176   4.621   0.484   1.223  0.6040  0.1629 -0.5891
  214MOL0     C28177   4.696   0.363   1.283  0.0063 -0.7359 -0.2344
  214MOL0     C28178   4.671   0.233   1.208  0.9360 -0.2575  0.1097
  214MOL0     C28179   4.521   0.209   1.178  0.2254  0.9170  0.3652
  214MOL0     C28180   4.407   0.201   1.152 -0.1604  0.2328  0.0963
  214MOL0     C28181   4.571   0.830   1.471 -0.5636  0.0973  0.1120
  214MOL0     C28182   4.538   0.947   1.544 -0.2426 -0.6953 -0.6294
  214MOL0     H28183   4.466   1.541   1.441  1.6430  0.7336  2.0580
  214MOL0     H28184   4.315   1.719   1.462  1.2478 -0.3982 -0.0180
  214MOL0     H28185   4.136   1.902   1.539 -1.7835 -1.6072 -0.9226
  214MOL0     H28186   4.238   1.849   1.675  0.8942 -1.6929 -3.6363
  214MOL0     H28187   4.024   1.891   1.822 -2.6206 -3.6009 -1.6022
  214MOL0     H28188   3.934   1.911   1.672 -1.3023  1.8230 -0.2827
  214MOL0     H28189   4.094   2.108   1.618 -1.1071 -4.2980 -2.1443
  214MOL0     H28190   4.146   2.100   1.785  0.4243  3.5781 -0.7982
  214MOL0     H28191   3.853   2.138   1.675  0.6844  0.0708  0.8071
  214MOL0     H28192   3.890   2.100   1.844  2.2048 -1.5656  1.0009
  214MOL0     H28193   3.926   2.353   1.687 -1.0478 -1.0778 -0.8367
  214MOL0     H28194   4.052   2.319   1.802  0.3949  3.1146 -2.6077
  214MOL0     H28195   3.849   2.296   1.964  1.6909 -1.2141 -2.1537
  214MOL0     H28196   3.742   2.319   1.819 -0.9614  0.5655  0.1674
  214MOL0     H28197   3.938   2.518   1.949 -0.0218  1.6409 -0.2740
  214MOL0     H28198   3.806   2.562   1.836 -1.7316  0.9282  1.0114
  214MOL0     H28199   3.797   2.628   2.069 -0.0258 -0.7127  2.1386
  214MOL0     H28200   3.783   2.449   2.107  2.6190 -0.7799 -1.2995
  214MOL0     H28201   3.627   2.651   1.830 -0.8915 -4.0631 -1.7112
  214MOL0     H28202   3.349   2.621   1.739 -4.0590  0.1617 -1.4552
  214MOL0     H28203   3.361   2.778   1.804 -2.0788  0.4989  3.1825
  214MOL0     H28204   3.195   2.747   1.976  0.4936 -0.7147  1.2032
  214MOL0     H28205   3.165   2.587   1.928  0.3415 -0.3628 -1.4075
  214MOL0     H28206   3.103   2.676   1.685 -3.4805 -0.2988 -0.4776
  214MOL0     H28207   2.993   2.689   1.817 -2.1680 -0.1736 -5.4076
  214MOL0     H28208   3.185   2.904   1.723 -0.2380 -0.3646 -0.4602
  214MOL0     H28209   3.075   2.924   1.853 -0.3271  1.1490 -1.0026
  214MOL0     H28210   2.800   3.046   1.554 -1.1733  1.6516 -0.2420
  214MOL0     H28211   2.571   3.088   1.609  1.3127 -0.5909 -1.8499
  214MOL0     H28212   2.239   2.760   1.965 -1.6027 -0.4886 -1.0242
  214MOL0     H28213   2.013   2.769   2.041  3.2664 -1.3847 -0.6886
  214MOL0     H28214   1.803   3.171   2.116  0.4762  1.1219  0.0786
  214MOL0     H28215   1.903   3.155   2.261 -0.8827  2.3454 -1.2877
  214MOL0     H28216   1.616   3.027   2.196 -0.5278 -0.6744 -0.3530
  214MOL0     H28217   1.653   3.164   2.299 -2.6531 -1.1275 -1.1793
  214MOL0     H28218   1.817   2.986   2.422  0.7030  0.5534 -0.7101
  214MOL0     H28219   1.722   2.863   2.337 -2.1567 -0.0326  0.3208
  214MOL0     H28220   1.522   2.922   2.423 -1.3660  2.5513  1.8645
  214MOL0     H28221   1.637   2.894   2.557 -0.1829  0.0625  0.0662
  214MOL0     H28222   1.550   3.183   2.477  1.2289  0.7150  0.1247
  214MOL0     H28223   1.672   3.136   2.583 -0.1651 -1.4475  1.1975
  214MOL0     H28224   1.472   3.164   2.721 -2.6174 -1.2752  1.1803
  214MOL0     H28225   1.508   2.993   2.713 -1.0336  0.2067  1.5795
  214MOL0     H28226   1.328   3.135   2.519  3.5787  1.3255  0.3911
  214MOL0     H28227   1.340   2.969   2.511  0.5588  0.0715 -0.7299
  214MOL0     H28228   1.257   3.103   2.771  0.2509  1.3900 -1.5441
  214MOL0     H28229   1.261   2.935   2.749  1.4270 -0.7559 -1.3223
  214MOL0     H28230   2.072   3.193   2.125 -2.9757 -1.4127  1.8625
  214MOL0     H28231   2.293   3.176   2.058 -2.7229  1.6208  2.2922
  214MOL0     H28232   2.641   2.902   1.989 -0.9538 -0.2511 -0.5868
  214MOL0     H28233   2.873   2.845   1.921  0.2451 -0.2021 -0.2574
  214MOL0     H28234   4.047   1.476   1.700 -0.0430 -3.3441  0.4045
  214MOL0     H28235   4.190   1.286   1.625  0.2783  0.0199 -0.1728
  214MOL0     H28236   4.335   1.096   1.309  1.2291  1.9631 -0.2610
  214MOL0     H28237   4.405   0.895   1.185 -0.6974 -0.0661  0.4314
  214MOL0     H28238   4.654   0.608   1.404 -0.1856 -3.4229 -0.8878
  214MOL0     H28239   4.760   0.658   1.271  0.3690 -0.6827  4.0437
  214MOL0     H28240   4.515   0.459   1.221  1.4942 -4.3044 -1.8941
  214MOL0     H28241   4.647   0.499   1.117  1.3973 -1.1010 -0.5944
  214MOL0     H28242   4.667   0.353   1.388 -3.2405  3.0852 -0.5176
  214MOL0     H28243   4.800   0.394   1.289 -0.8230  2.2277  0.8823
  214MOL0     H28244   4.721   0.249   1.113 -1.2277 -0.0471 -1.0476
  214MOL0     H28245   4.715   0.156   1.272 -1.9392  0.3811  3.1656
  214MOL0     H28246   4.300   0.205   1.147 -0.1261  0.0604 -2.1181
  214MOL0     H28247   4.633   0.758   1.523 -2.6482 -1.4713  0.5518
  214MOL0     H28248   4.579   0.951   1.645  0.3566  0.3830 -0.8985
  215MOL0     O28249   6.510   3.147   5.356  0.0935  0.3469  0.6962
  215MOL0     C28250   6.579   3.122   5.449  0.0183  0.1718 -0.4811
  215MOL0     O28251   6.540   3.096   5.581  0.1547  0.2129 -0.1397
  215MOL0     C28252   6.403   3.086   5.606 -1.0613  0.2206  0.7924
  215MOL0     C28253   6.309   3.022   5.532 -0.0802 -0.4161  0.0456
  215MOL0     C28254   6.175   3.025   5.554  1.0993  0.0108  0.0705
  215MOL0     C28255   6.123   3.099   5.658  1.3026  0.1750 -0.5046
  215MOL0     O28256   5.988   3.137   5.682 -0.1007 -0.2024  0.3621
  215MOL0     C28257   5.885   3.093   5.585 -0.0593 -0.9990  0.1641
  215MOL0     C28258   5.754   3.143   5.649  0.3662  0.3301  0.2447
  215MOL0     C28259   5.623   3.063   5.604 -0.5253 -0.1470 -1.0236
  215MOL0     C28260   5.500   3.107   5.686 -0.0757 -0.0635  0.2220
  215MOL0     C28261   5.373   3.051   5.607 -0.3312 -0.3604 -0.9686
  215MOL0     C28262   5.235   3.084   5.677 -0.1803 -0.2482  0.4322
  215MOL0     C28263   5.128   3.096   5.565 -0.8160 -0.5504  0.5528
  215MOL0     C28264   4.985   3.084   5.625  0.5669  1.1852  0.7126
  215MOL0     N28265   4.952   3.189   5.732  0.3030  0.2716 -0.6706
  215MOL0     C28266   4.866   3.286   5.723  0.0079  0.2702  0.9769
  215MOL0     C28267   4.859   3.339   5.847 -0.5709 -0.0759 -0.3345
  215MOL0     C28268   4.776   3.453   5.913 -0.0366  0.1596 -0.5461
  215MOL0     C28269   4.698   3.415   6.036 -0.1584  0.7975 -0.4401
  215MOL0     C28270   4.614   3.289   6.009  0.8150 -0.6544 -0.6233
  215MOL0     C28271   4.517   3.268   6.122 -1.2692  1.0671  0.3658
  215MOL0     O28272   4.409   3.364   6.123  0.3736  0.4763  0.5147
  215MOL0     C28273   4.294   3.345   6.192  0.2258  0.6607 -0.9280
  215MOL0     C28274   4.280   3.248   6.296 -0.3171  0.6556  0.3352
  215MOL0     C28275   4.151   3.242   6.365 -0.5283 -0.8612  0.7026
  215MOL0     C28276   4.040   3.321   6.319  0.1628 -0.2492  0.0268
  215MOL0     C28277   3.918   3.326   6.397  0.7131  0.0303 -0.6345
  215MOL0     O28278   3.888   3.207   6.463 -0.3108 -0.6590  0.3065
  215MOL0     C28279   3.764   3.170   6.511 -0.0094 -0.8379 -0.7137
  215MOL0     C28280   3.671   3.269   6.560  0.8160 -0.0902 -0.2674
  215MOL0     C28281   3.554   3.236   6.623  0.1303  0.9269  0.6556
  215MOL0     C28282   3.527   3.097   6.648  0.3552  0.5755 -0.6369
  215MOL0     O28283   3.416   3.040   6.704  0.3476  0.2256  0.3096
  215MOL0     C28284   3.325   3.134   6.747  1.0171 -0.2517  0.3826
  215MOL0     C28285   3.191   3.055   6.763 -0.6082 -0.3731 -0.1386
  215MOL0     C28286   3.069   3.150   6.799  0.6319 -0.4314 -0.3398
  215MOL0     C28287   2.934   3.071   6.816  0.4765  0.1411  0.1279
  215MOL0     C28288   2.828   3.164   6.867  0.5560 -0.1343  0.4734
  215MOL0     C28289   2.689   3.108   6.837 -0.2173  1.0952 -0.4610
  215MOL0     C28290   2.573   3.211   6.843  0.1395 -0.3363 -0.1017
  215MOL0     C28291   2.432   3.160   6.889 -0.9565  0.3687  0.0853
  215MOL0    Cl28292   2.384   3.004   6.801  0.2866 -0.2022  0.1007
  215MOL0     C28293   3.622   3.004   6.605  1.1831  0.6906 -0.2805
  215MOL0     C28294   3.741   3.043   6.545  0.4634  0.2460 -1.0055
  215MOL0     O28295   3.840   3.419   6.382 -0.0817  1.0429  0.0283
  215MOL0     C28296   4.063   3.409   6.208 -0.2453  0.1893  0.0256
  215MOL0     C28297   4.189   3.427   6.154 -0.3931 -0.4227 -0.1289
  215MOL0     N28298   4.955   3.276   5.927  0.1998  0.3375 -0.6222
  215MOL0     N28299   5.012   3.180   5.857  0.4525 -0.1309  0.0796
  215MOL0     C28300   6.215   3.156   5.753 -0.0890 -0.1337  0.1140
  215MOL0     C28301   6.352   3.147   5.725 -0.0327 -0.7441  1.2005
  215MOL0     C28302   6.726   3.105   5.432 -0.8330 -0.1323 -0.3093
  215MOL0     C28303   6.784   3.130   5.313 -0.5185 -0.5443  0.2921
  215MOL0     C28304   6.921   3.117   5.294  0.2271  0.3470  1.2234
  215MOL0     C28305   7.004   3.106   5.402 -1.0318  0.1395 -0.4130
  215MOL0     O28306   7.139   3.103   5.372  0.5721 -0.2073  0.7936
  215MOL0     C28307   7.224   3.142   5.486  0.1710 -0.9093  1.0463
  215MOL0     C28308   7.359   3.200   5.422  0.9566 -1.0912  0.0170
  215MOL0     C28309   7.454   3.098   5.385  0.3349  1.3371 -0.2201
  215MOL0     C28310   7.598   3.162   5.388  0.6705  0.0596  0.1935
  215MOL0     C28311   7.696   3.059   5.359 -0.8931 -0.1011 -0.1448
  215MOL0     C28312   7.796   2.985   5.359  0.2783  0.1097  1.3205
  215MOL0     C28313   6.943   3.083   5.526  0.1835 -0.5851 -0.1652
  215MOL0     C28314   6.807   3.082   5.531  0.2199 -0.6592  0.6408
  215MOL0     H28315   6.344   2.948   5.460 -0.8523 -0.6959 -0.0543
  215MOL0     H28316   6.106   2.969   5.491  0.9911  1.6177 -1.3061
  215MOL0     H28317   5.890   2.984   5.575  0.2598 -1.0730  1.0174
  215MOL0     H28318   5.911   3.135   5.488  0.4116 -1.5359  0.0470
  215MOL0     H28319   5.734   3.247   5.621 -0.3443  0.1397  0.0347
  215MOL0     H28320   5.764   3.144   5.758  2.0729  2.2917  0.1456
  215MOL0     H28321   5.637   2.955   5.616  0.1995  0.1490  1.3165
  215MOL0     H28322   5.607   3.096   5.500 -0.5888 -2.4355 -1.7944
  215MOL0     H28323   5.498   3.063   5.786 -0.1916 -0.5195  0.0209
  215MOL0     H28324   5.502   3.216   5.686 -2.3541  0.0441 -1.4513
  215MOL0     H28325   5.379   2.949   5.569 -0.3798 -2.1353  3.2775
  215MOL0     H28326   5.380   3.115   5.518 -3.7596 -0.5262 -1.4865
  215MOL0     H28327   5.237   3.174   5.739  0.3303  0.3370 -0.4167
  215MOL0     H28328   5.220   2.993   5.736  0.6643 -0.3095  0.5679
  215MOL0     H28329   5.140   3.187   5.507 -1.7180  0.5839  2.0681
  215MOL0     H28330   5.126   3.020   5.486 -0.9796  0.8123 -0.7856
  215MOL0     H28331   4.975   2.987   5.674  0.4447  2.0320  2.4689
  215MOL0     H28332   4.914   3.097   5.543  2.8492  1.2253 -1.3543
  215MOL0     H28333   4.822   3.312   5.627  0.2786 -3.0728 -0.1662
  215MOL0     H28334   4.706   3.494   5.839 -1.2512 -0.2649  0.3440
  215MOL0     H28335   4.837   3.538   5.945 -1.3051  0.8724  0.0444
  215MOL0     H28336   4.635   3.501   6.061 -3.5698 -1.9937  1.6043
  215MOL0     H28337   4.770   3.403   6.117  0.1658  1.0610 -0.6904
  215MOL0     H28338   4.543   3.285   5.926 -0.4440  0.0825  0.3736
  215MOL0     H28339   4.684   3.205   6.014  0.1000 -1.2047  1.4068
  215MOL0     H28340   4.570   3.274   6.218  0.6203  2.1916 -0.6843
  215MOL0     H28341   4.461   3.174   6.115 -1.4272  1.2252 -0.5454
  215MOL0     H28342   4.366   3.187   6.321  0.3257  1.0738 -0.7580
  215MOL0     H28343   4.141   3.176   6.450  1.2980 -1.4733  0.4920
  215MOL0     H28344   3.695   3.375   6.560  1.5407 -0.1827  2.5131
  215MOL0     H28345   3.480   3.308   6.656  0.0169 -0.1102  2.9156
  215MOL0     H28346   3.302   3.204   6.666 -0.3536  0.4760  1.3499
  215MOL0     H28347   3.338   3.187   6.842 -1.6062 -0.8043  1.1289
  215MOL0     H28348   3.214   2.978   6.837  0.8060 -0.0934 -0.2563
  215MOL0     H28349   3.174   3.000   6.671 -0.3981 -0.2554 -0.2484
  215MOL0     H28350   3.062   3.228   6.722  1.1607  2.0801  2.0123
  215MOL0     H28351   3.095   3.190   6.897  1.5927 -3.2324  0.6470
  215MOL0     H28352   2.908   3.041   6.714 -0.9749 -1.9214  1.0586
  215MOL0     H28353   2.937   2.984   6.882  2.5612 -1.1826 -1.5697
  215MOL0     H28354   2.837   3.251   6.802  3.2637 -2.1152 -2.0768
  215MOL0     H28355   2.839   3.201   6.970 -4.0846 -0.7131  1.3961
  215MOL0     H28356   2.666   3.021   6.900 -0.3648  1.0926 -0.5179
  215MOL0     H28357   2.701   3.064   6.737  1.4600  1.2450 -0.3521
  215MOL0     H28358   2.600   3.290   6.914  2.6666 -0.2591 -1.0336
  215MOL0     H28359   2.572   3.246   6.740  1.6122 -2.0593 -0.7689
  215MOL0     H28360   2.362   3.244   6.880  0.5982  1.6514 -0.5305
  215MOL0     H28361   2.439   3.132   6.994 -1.5054 -2.4208 -0.5465
  215MOL0     H28362   3.605   2.898   6.624  2.4577  0.5865  0.3350
  215MOL0     H28363   3.815   2.965   6.532  1.4741  0.8527  0.7401
  215MOL0     H28364   3.983   3.476   6.179  0.9390  1.0443 -1.4323
  215MOL0     H28365   4.197   3.505   6.079  2.3375  0.4819  0.9830
  215MOL0     H28366   6.189   3.203   5.847 -3.2277  0.0142 -0.7111
  215MOL0     H28367   6.421   3.188   5.797  3.6507  3.0002 -3.7613
  215MOL0     H28368   6.717   3.135   5.227 -1.0935 -1.8806  0.6284
  215MOL0     H28369   6.970   3.124   5.197 -2.0615  0.0665 -0.0028
  215MOL0     H28370   7.253   3.059   5.550 -1.2728 -1.9473  0.4091
  215MOL0     H28371   7.176   3.223   5.542  3.1569  1.2454  0.7511
  215MOL0     H28372   7.326   3.260   5.335  1.5347 -1.1505 -0.2459
  215MOL0     H28373   7.401   3.265   5.499  0.4696 -0.1783 -0.4572
  215MOL0     H28374   7.430   3.047   5.291  0.1630 -0.1401  0.5939
  215MOL0     H28375   7.459   3.014   5.455 -0.1608  0.6470 -0.9990
  215MOL0     H28376   7.607   3.249   5.322  2.5399  1.9331  2.7213
  215MOL0     H28377   7.605   3.191   5.493 -1.3978  1.0216  0.1098
  215MOL0     H28378   7.876   2.916   5.344  0.5323  0.8282 -1.0460
  215MOL0     H28379   7.001   3.066   5.616  2.9708 -3.3382 -2.2148
  215MOL0     H28380   6.766   3.078   5.632 -3.3230  2.2409 -0.4534
  216MOL0     O28381   6.469   8.671   1.891 -0.4277  0.0547 -0.7611
  216MOL0     C28382   6.565   8.701   1.973 -0.0492  0.5826 -1.1679
  216MOL0     O28383   6.552   8.736   2.106  0.0154 -0.8057 -0.8288
  216MOL0     C28384   6.428   8.792   2.149 -0.1788 -0.1193  0.1233
  216MOL0     C28385   6.375   8.909   2.094 -0.2999  0.1905  1.0280
  216MOL0     C28386   6.267   8.973   2.149 -0.4142 -0.0777 -0.5967
  216MOL0     C28387   6.200   8.918   2.254 -0.5520  0.3986 -0.6495
  216MOL0     O28388   6.083   8.955   2.298  0.6410  1.0207 -0.0394
  216MOL0     C28389   5.960   8.911   2.244 -0.9232  0.1755 -0.0683
  216MOL0     C28390   5.913   8.996   2.129  0.0579  0.3077 -0.4804
  216MOL0     C28391   5.793   8.927   2.054  1.2350 -0.1607 -0.4955
  216MOL0     C28392   5.733   9.015   1.940  0.1122 -0.6491 -1.0610
  216MOL0     C28393   5.633   8.933   1.859  0.6999  1.3003 -0.3193
  216MOL0     C28394   5.516   8.876   1.940  0.2345  0.3783 -1.0356
  216MOL0     C28395   5.443   8.783   1.843  0.1486  0.4386  0.1779
  216MOL0     C28396   5.301   8.751   1.887 -0.3006  0.2359  1.2302
  216MOL0     N28397   5.211   8.870   1.869  0.2135 -0.5217 -0.0072
  216MOL0     C28398   5.147   8.901   1.754 -0.0461  0.5345 -0.1370
  216MOL0     C28399   5.062   8.994   1.792  0.1908 -0.3659 -0.1525
  216MOL0     C28400   4.961   9.076   1.708 -0.5872  0.2059 -0.1200
  216MOL0     C28401   4.847   9.135   1.792 -0.7588  1.0028 -0.0559
  216MOL0     C28402   4.721   9.158   1.701 -0.1698  0.0764 -0.1441
  216MOL0     C28403   4.593   9.192   1.779  0.0452 -0.0862  0.0442
  216MOL0     O28404   4.533   9.070   1.823 -0.3803  0.1967 -0.3962
  216MOL0     C28405   4.409   9.067   1.881 -0.6443  0.8509 -0.9667
  216MOL0     C28406   4.368   9.164   1.968  1.4046 -0.0386  0.1780
  216MOL0     C28407   4.247   9.161   2.026  1.0321  0.9594 -0.6145
  216MOL0     C28408   4.158   9.056   2.003  1.1997 -0.6267  0.1729
  216MOL0     C28409   4.028   9.048   2.074  0.2874 -0.2174 -0.5621
  216MOL0     O28410   3.989   9.157   2.152 -0.4689  0.3107 -0.1112
  216MOL0     C28411   3.863   9.154   2.209  0.7322  0.0129 -0.9344
  216MOL0     C28412   3.849   9.168   2.352  0.2996  0.2326  0.1397
  216MOL0     C28413   3.726   9.164   2.408  0.1335  0.1051 -0.2810
  216MOL0     C28414   3.608   9.137   2.333  0.9289 -0.2730  0.1194
  216MOL0     O28415   3.485   9.120   2.388  0.0695  0.1087  0.2822
  216MOL0     C28416   3.430   9.224   2.470  0.3388 -0.6177 -1.4682
  216MOL0     C28417   3.296   9.179   2.531  0.3117 -0.5967  0.3255
  216MOL0     C28418   3.228   9.280   2.620  0.1818 -0.1498 -0.1558
  216MOL0     C28419   3.092   9.239   2.687 -0.0202  0.3990  0.0299
  216MOL0     C28420   3.037   9.344   2.769 -0.6655 -1.1059 -0.1413
  216MOL0     C28421   2.906   9.299   2.827  0.5978  0.0955  0.0628
  216MOL0     C28422   2.843   9.412   2.899  0.4349 -0.5464  0.3364
  216MOL0     C28423   2.716   9.374   2.987 -0.6117  0.7223  0.8559
  216MOL0    Cl28424   2.671   9.528   3.061 -0.3496  0.1972  0.1658
  216MOL0     C28425   3.621   9.132   2.194 -0.1848 -0.7368  0.0070
  216MOL0     C28426   3.748   9.142   2.126  0.6483 -0.2456 -0.2089
  216MOL0     O28427   3.954   8.956   2.048 -0.2860  0.3471 -0.2833
  216MOL0     C28428   4.198   8.955   1.914  0.4273 -0.2678  0.4605
  216MOL0     C28429   4.321   8.960   1.848 -0.2511 -0.6032  0.0847
  216MOL0     N28430   5.077   9.026   1.922 -0.6825  0.0551  0.2711
  216MOL0     N28431   5.159   8.941   1.975  0.2110  0.2691  0.4427
  216MOL0     C28432   6.250   8.800   2.311  0.1395 -0.2639  0.0394
  216MOL0     C28433   6.366   8.738   2.254 -0.2209 -0.4279  0.2714
  216MOL0     C28434   6.706   8.677   1.922 -0.6375  0.0628 -1.2597
  216MOL0     C28435   6.730   8.637   1.791  0.1712  0.4018  0.1493
  216MOL0     C28436   6.860   8.600   1.747 -0.2495 -0.6896 -0.2391
  216MOL0     C28437   6.968   8.607   1.838  0.2671 -0.2729 -1.2161
  216MOL0     O28438   7.094   8.577   1.804 -0.3902 -0.7908  0.3517
  216MOL0     C28439   7.123   8.587   1.662  0.0364 -0.2965  0.0015
  216MOL0     C28440   7.272   8.591   1.646  0.3926  0.1063  0.5126
  216MOL0     C28441   7.352   8.695   1.727  0.4661 -0.0914  0.0477
  216MOL0     C28442   7.310   8.839   1.700  0.0877  0.6812  0.1922
  216MOL0     C28443   7.411   8.937   1.749  0.4488  0.8944 -0.4703
  216MOL0     C28444   7.483   9.025   1.778 -0.4310  0.5238 -0.5603
  216MOL0     C28445   6.947   8.658   1.962  0.5641  0.1402 -0.6751
  216MOL0     C28446   6.817   8.693   2.006 -0.6526  0.5236 -0.0117
  216MOL0     H28447   6.421   8.957   2.008 -0.0419  1.3409  1.7981
  216MOL0     H28448   6.228   9.065   2.108 -2.0057 -0.2521  0.4407
  216MOL0     H28449   5.881   8.917   2.319  0.5736 -0.7007  1.6363
  216MOL0     H28450   5.972   8.806   2.215  0.2314  0.1463  0.4434
  216MOL0     H28451   5.995   9.008   2.058  0.1418  1.0764 -0.2670
  216MOL0     H28452   5.876   9.092   2.166 -1.1409 -0.8129  1.3893
  216MOL0     H28453   5.716   8.931   2.132  1.5378  4.0083 -0.1631
  216MOL0     H28454   5.831   8.831   2.020  5.5855  0.6679  1.3720
  216MOL0     H28455   5.681   9.099   1.986 -1.1100 -1.8263 -0.1882
  216MOL0     H28456   5.813   9.047   1.873 -0.4382 -1.7435 -2.3104
  216MOL0     H28457   5.693   8.852   1.816 -0.5592  0.3480 -0.3420
  216MOL0     H28458   5.595   8.996   1.778  0.7644  0.2033 -1.2380
  216MOL0     H28459   5.452   8.959   1.972 -0.2099 -0.1025 -0.6729
  216MOL0     H28460   5.545   8.823   2.031  1.4979  0.7713 -1.1956
  216MOL0     H28461   5.441   8.810   1.737 -0.6267  2.1349  0.5807
  216MOL0     H28462   5.488   8.688   1.873 -0.2789  0.7806  2.0355
  216MOL0     H28463   5.298   8.722   1.992 -3.6698  3.1604  2.1077
  216MOL0     H28464   5.272   8.668   1.821  3.1519  1.1562 -1.7935
  216MOL0     H28465   5.141   8.858   1.654 -3.3251 -1.7040  0.8783
  216MOL0     H28466   4.903   9.006   1.646 -0.2996  0.8270 -1.1099
  216MOL0     H28467   5.009   9.152   1.645 -2.6483  2.7645  1.2533
  216MOL0     H28468   4.891   9.229   1.826  0.3251  0.8946 -1.0879
  216MOL0     H28469   4.819   9.068   1.875 -0.0042  0.4040 -0.2682
  216MOL0     H28470   4.743   9.246   1.641  2.4916  1.0892  2.0898
  216MOL0     H28471   4.697   9.073   1.636 -0.1516  0.6283 -0.8805
  216MOL0     H28472   4.530   9.241   1.704 -0.1299  0.2569  0.4180
  216MOL0     H28473   4.621   9.255   1.863  1.3118 -0.2333 -0.2449
  216MOL0     H28474   4.435   9.241   2.005  1.9288 -0.3956 -0.0176
  216MOL0     H28475   4.227   9.240   2.098  1.6678  0.8484 -0.3124
  216MOL0     H28476   3.935   9.179   2.417  0.4783  1.8916 -0.3305
  216MOL0     H28477   3.705   9.194   2.510 -1.3656  1.1065 -0.8519
  216MOL0     H28478   3.430   9.320   2.417  3.1803  0.4627  0.2414
  216MOL0     H28479   3.484   9.235   2.564  1.7036 -0.2654 -2.2615
  216MOL0     H28480   3.294   9.087   2.591 -2.8505 -1.0801 -0.3138
  216MOL0     H28481   3.223   9.171   2.451  1.7456  2.5226 -1.4829
  216MOL0     H28482   3.214   9.374   2.567 -1.7621  0.1475  0.8033
  216MOL0     H28483   3.288   9.288   2.711 -2.3427 -1.9545  1.8273
  216MOL0     H28484   3.021   9.211   2.608  0.4130 -1.2228  0.1825
  216MOL0     H28485   3.100   9.149   2.749 -1.2013  2.2407  3.0247
  216MOL0     H28486   3.022   9.433   2.708 -0.4372 -0.8833  0.1209
  216MOL0     H28487   3.107   9.375   2.847  1.1098 -2.3155 -1.1621
  216MOL0     H28488   2.918   9.217   2.898 -0.5580 -0.8812 -0.8224
  216MOL0     H28489   2.841   9.253   2.752  1.2397 -3.5914  1.5577
  216MOL0     H28490   2.922   9.452   2.964 -0.6308 -2.4620  2.9355
  216MOL0     H28491   2.815   9.487   2.824 -3.2776 -0.6412  1.4585
  216MOL0     H28492   2.742   9.308   3.071  0.9309  0.1981  0.0054
  216MOL0     H28493   2.637   9.323   2.931 -1.7682  0.5253  2.5693
  216MOL0     H28494   3.522   9.116   2.154 -0.6708 -2.4429  1.7621
  216MOL0     H28495   3.760   9.132   2.018  0.8816  1.8482 -0.4167
  216MOL0     H28496   4.125   8.878   1.891  0.1872  0.6376 -2.2124
  216MOL0     H28497   4.350   8.885   1.775  0.3393 -0.8631  0.5819
  216MOL0     H28498   6.197   8.744   2.387  3.0679 -3.6159 -0.1324
  216MOL0     H28499   6.417   8.659   2.308 -0.5362  0.3253  1.7115
  216MOL0     H28500   6.647   8.622   1.722 -0.4122  1.9307  0.4825
  216MOL0     H28501   6.865   8.563   1.645  0.1330  0.1892 -0.5492
  216MOL0     H28502   7.087   8.688   1.639  0.1698 -0.2781 -0.1208
  216MOL0     H28503   7.066   8.512   1.607 -1.8536 -0.1275  1.5723
  216MOL0     H28504   7.312   8.490   1.660 -4.4992 -2.0873  1.1111
  216MOL0     H28505   7.288   8.613   1.540  1.9541  0.2859  0.7732
  216MOL0     H28506   7.456   8.680   1.698  0.2205 -2.6866  0.2381
  216MOL0     H28507   7.344   8.668   1.832 -0.5280 -4.1893 -0.8862
  216MOL0     H28508   7.281   8.849   1.595 -2.6522  2.3827  1.0007
  216MOL0     H28509   7.226   8.885   1.752  0.0876  0.5536  0.3064
  216MOL0     H28510   7.544   9.107   1.810 -0.4834 -0.8709  3.8357
  216MOL0     H28511   7.028   8.664   2.035  0.0638 -0.8728 -0.0157
  216MOL0     H28512   6.799   8.720   2.110 -0.2046  0.1167  0.1753
  217MOL0     O28513   7.742   0.249   3.416 -0.1670  0.7156  0.2695
  217MOL0     C28514   7.834   0.217   3.498 -0.4139 -0.6128 -0.3073
  217MOL0     O28515   7.815   0.230   3.639  0.7326  0.0823  0.1351
  217MOL0     C28516   7.700   0.286   3.699 -0.4303 -0.2253  0.5265
  217MOL0     C28517   7.570   0.280   3.635  0.1848  0.6434  0.2465
  217MOL0     C28518   7.463   0.346   3.690  0.4253  1.4976 -0.3969
  217MOL0     C28519   7.467   0.412   3.805 -0.4195  0.5674 -0.4442
  217MOL0     O28520   7.371   0.489   3.863  0.0062 -0.2795  0.3300
  217MOL0     C28521   7.242   0.516   3.797  0.5291 -0.9423  0.2301
  217MOL0     C28522   7.250   0.615   3.679 -0.0892 -0.3464  1.3998
  217MOL0     C28523   7.308   0.753   3.721 -0.7168  0.8142 -0.0783
  217MOL0     C28524   7.331   0.844   3.600 -0.3130 -0.8758 -0.2307
  217MOL0     C28525   7.374   0.988   3.635 -0.1423 -0.3491 -1.1678
  217MOL0     C28526   7.261   1.073   3.686  0.4137 -0.3278 -0.9366
  217MOL0     C28527   7.294   1.223   3.726 -0.8044 -0.0560  0.1478
  217MOL0     C28528   7.309   1.321   3.606  0.1147 -0.2705 -0.1679
  217MOL0     N28529   7.186   1.328   3.531  0.1920  0.3758  0.1051
  217MOL0     C28530   7.099   1.437   3.559 -0.0349  0.0028  0.0294
  217MOL0     C28531   7.014   1.451   3.458  0.3636 -0.3184 -0.3515
  217MOL0     C28532   6.900   1.554   3.437 -0.3221 -0.5203  0.0974
  217MOL0     C28533   6.773   1.494   3.363  0.7350 -0.1971  0.0032
  217MOL0     C28534   6.675   1.609   3.352  0.2144  0.4800  1.3548
  217MOL0     C28535   6.579   1.611   3.477  0.6277 -0.0432 -0.3160
  217MOL0     O28536   6.480   1.504   3.476 -0.9316 -0.4054 -0.0297
  217MOL0     C28537   6.359   1.521   3.542  0.3199  0.5797 -0.0557
  217MOL0     C28538   6.310   1.634   3.609 -0.1890  0.0257  0.5574
  217MOL0     C28539   6.184   1.641   3.658  0.0605  0.2973  0.7355
  217MOL0     C28540   6.089   1.535   3.658  0.4761  0.1864 -0.0342
  217MOL0     C28541   5.956   1.539   3.711  0.4661 -0.3561 -0.1088
  217MOL0     O28542   5.919   1.658   3.760  0.7225 -0.6677  0.0196
  217MOL0     C28543   5.784   1.673   3.784  0.1197 -0.7888 -0.6192
  217MOL0     C28544   5.739   1.712   3.910 -0.3007 -0.6513  0.5005
  217MOL0     C28545   5.603   1.712   3.936  0.0161  0.0724 -0.4693
  217MOL0     C28546   5.512   1.669   3.838  0.7529 -0.3990  1.8493
  217MOL0     O28547   5.374   1.652   3.849 -0.0480 -0.1838  0.3242
  217MOL0     C28548   5.304   1.705   3.956 -0.5225  0.7639  0.2334
  217MOL0     C28549   5.160   1.673   3.951  0.3662 -0.1405  0.0847
  217MOL0     C28550   5.087   1.748   4.070 -0.0854  0.8010 -0.3217
  217MOL0     C28551   4.929   1.733   4.060 -1.0729 -0.0622 -0.3930
  217MOL0     C28552   4.874   1.834   4.163 -0.0926  0.0874 -0.3000
  217MOL0     C28553   4.727   1.841   4.149  0.2341 -0.2754 -0.2930
  217MOL0     C28554   4.671   1.964   4.230  1.3823 -1.2126  0.1378
  217MOL0     C28555   4.662   1.930   4.380 -0.3173  0.8597 -0.3978
  217MOL0    Cl28556   4.526   1.830   4.417  0.1829  0.0068 -0.0541
  217MOL0     C28557   5.561   1.645   3.714 -0.2241  1.0332  0.0398
  217MOL0     C28558   5.697   1.646   3.684  0.0828  0.1050  0.1233
  217MOL0     O28559   5.879   1.439   3.697 -0.2647 -0.6438 -0.6539
  217MOL0     C28560   6.141   1.416   3.592 -0.2163 -0.5930 -0.5174
  217MOL0     C28561   6.272   1.410   3.530  0.2944 -0.3371 -0.4233
  217MOL0     N28562   7.057   1.360   3.357 -0.6119  0.1278 -0.1958
  217MOL0     N28563   7.158   1.284   3.407 -0.2049  0.8943 -0.9424
  217MOL0     C28564   7.592   0.415   3.874 -0.7677  0.1259  0.3353
  217MOL0     C28565   7.704   0.343   3.827  0.1828 -0.5461  1.1111
  217MOL0     C28566   7.960   0.159   3.442  0.4376  0.3720  0.3466
  217MOL0     C28567   8.059   0.139   3.538  0.9172  0.2339  0.0168
  217MOL0     C28568   8.179   0.096   3.488 -0.3892  0.4301  0.1644
  217MOL0     C28569   8.208   0.087   3.347 -0.6264  0.9345 -0.0058
  217MOL0     O28570   8.333   0.041   3.302  0.1663  0.2615 -0.6104
  217MOL0     C28571   8.422   0.129   3.242  0.8208 -0.1810  0.0639
  217MOL0     C28572   8.571   0.083   3.277 -0.0786 -0.4403  0.3363
  217MOL0     C28573   8.582  -0.074   3.264 -0.6349  0.2031  0.2574
  217MOL0     C28574   8.731  -0.117   3.294 -0.7786  0.4924  0.6942
  217MOL0     C28575   8.739  -0.264   3.279 -0.2511 -0.3004 -0.1555
  217MOL0     C28576   8.740  -0.381   3.241  0.1736  0.0750  0.7682
  217MOL0     C28577   8.092   0.095   3.257  0.1987 -0.2567 -1.4724
  217MOL0     C28578   7.979   0.139   3.310  0.2264  0.6862  0.5547
  217MOL0     H28579   7.537   0.222   3.549 -1.1484  3.5605 -1.3679
  217MOL0     H28580   7.370   0.336   3.634 -0.5981  1.2913  1.2635
  217MOL0     H28581   7.161   0.555   3.859 -0.4975 -2.7575  0.1148
  217MOL0     H28582   7.204   0.418   3.766 -2.1897 -0.0275  0.3776
  217MOL0     H28583   7.153   0.644   3.636  0.2010  0.6802  1.3947
  217MOL0     H28584   7.303   0.568   3.596 -0.3526  1.4335  0.1704
  217MOL0     H28585   7.405   0.742   3.770 -1.3876 -0.4167  1.0256
  217MOL0     H28586   7.259   0.812   3.799  0.0307  1.6266 -0.1952
  217MOL0     H28587   7.403   0.796   3.533 -2.1293 -2.3907 -1.2235
  217MOL0     H28588   7.240   0.851   3.539 -2.0964 -1.6298  2.2161
  217MOL0     H28589   7.422   1.042   3.554  1.5195 -1.6219 -1.0907
  217MOL0     H28590   7.442   0.980   3.721  1.1942 -2.3887 -2.3226
  217MOL0     H28591   7.214   1.024   3.772  3.0142 -0.5305  0.4706
  217MOL0     H28592   7.192   1.074   3.601  0.5531 -0.1875 -1.0490
  217MOL0     H28593   7.210   1.257   3.787 -0.3941  1.0061  0.1582
  217MOL0     H28594   7.377   1.230   3.797 -1.7264 -0.0178  1.2485
  217MOL0     H28595   7.394   1.298   3.541  0.8671 -0.1004  0.7259
  217MOL0     H28596   7.335   1.419   3.648  1.1279 -0.4871 -0.2591
  217MOL0     H28597   7.098   1.502   3.646 -2.3312 -0.0238  0.0831
  217MOL0     H28598   6.923   1.645   3.382 -4.3679 -0.1654 -1.2690
  217MOL0     H28599   6.865   1.580   3.537  2.2973 -3.0115  1.8502
  217MOL0     H28600   6.725   1.410   3.415  0.3501 -0.5958 -0.9835
  217MOL0     H28601   6.800   1.461   3.263 -0.5831 -0.5264 -0.2680
  217MOL0     H28602   6.727   1.702   3.327 -2.3351  1.4003 -1.0856
  217MOL0     H28603   6.600   1.594   3.274  1.6547  0.3982 -0.0848
  217MOL0     H28604   6.532   1.710   3.481 -0.9219 -0.7691  0.8344
  217MOL0     H28605   6.631   1.599   3.573  0.4037 -0.7574 -0.2747
  217MOL0     H28606   6.372   1.720   3.634  0.1232 -0.6837  2.4121
  217MOL0     H28607   6.161   1.734   3.709  0.7183  0.4411  0.7708
  217MOL0     H28608   5.808   1.739   3.989  0.9040 -2.0386 -0.0219
  217MOL0     H28609   5.561   1.739   4.032  1.5620 -0.2647  0.3443
  217MOL0     H28610   5.321   1.813   3.962  0.3615  0.6066  0.7116
  217MOL0     H28611   5.352   1.654   4.040 -0.9453 -1.5642 -0.8572
  217MOL0     H28612   5.140   1.566   3.964  0.7590 -0.2416 -0.1187
  217MOL0     H28613   5.108   1.710   3.863  1.2639  0.1553 -0.3251
  217MOL0     H28614   5.107   1.856   4.072 -0.7749  0.9251  0.9552
  217MOL0     H28615   5.121   1.700   4.163  3.5986  1.8491 -0.9709
  217MOL0     H28616   4.889   1.752   3.960 -3.4006 -2.4224 -0.0363
  217MOL0     H28617   4.900   1.631   4.086 -2.4779 -0.2537 -2.4837
  217MOL0     H28618   4.912   1.936   4.160 -1.8688  0.9573  2.5773
  217MOL0     H28619   4.890   1.787   4.260 -0.3839  2.0370  0.7334
  217MOL0     H28620   4.681   1.745   4.175  3.7668 -2.1751 -0.3547
  217MOL0     H28621   4.703   1.856   4.044  1.6720 -3.8173 -1.2905
  217MOL0     H28622   4.738   2.051   4.224 -1.2494  0.8344 -1.9411
  217MOL0     H28623   4.579   2.009   4.191  0.1464 -0.5250  3.5054
  217MOL0     H28624   4.637   2.011   4.450  0.8667 -0.6086  1.8512
  217MOL0     H28625   4.750   1.877   4.417 -0.8332 -0.2506 -0.7346
  217MOL0     H28626   5.501   1.609   3.631 -0.7577  0.4756  0.6624
  217MOL0     H28627   5.736   1.614   3.588 -1.3761 -2.1233  0.2074
  217MOL0     H28628   6.084   1.324   3.581 -2.2251  0.3376  1.4916
  217MOL0     H28629   6.308   1.320   3.482  0.5439 -0.2917 -0.3216
  217MOL0     H28630   7.591   0.480   3.960 -1.1173 -0.3640  0.7025
  217MOL0     H28631   7.801   0.331   3.874  0.0381 -1.2177  1.2403
  217MOL0     H28632   8.034   0.136   3.643 -0.2767 -1.7581 -0.2704
  217MOL0     H28633   8.251   0.066   3.563  0.3422 -2.1484 -1.4570
  217MOL0     H28634   8.406   0.229   3.282  1.4012 -0.2060  0.3717
  217MOL0     H28635   8.401   0.137   3.135  1.0515  1.1547  0.1056
  217MOL0     H28636   8.642   0.127   3.206  0.0492 -2.3352 -0.7796
  217MOL0     H28637   8.607   0.106   3.377  2.0082 -0.1424 -0.4136
  217MOL0     H28638   8.557  -0.099   3.160  0.9062  0.1341 -0.1234
  217MOL0     H28639   8.516  -0.126   3.334 -1.6278  0.7617 -0.2493
  217MOL0     H28640   8.793  -0.059   3.224  1.6140 -2.8345 -0.1911
  217MOL0     H28641   8.769  -0.082   3.390 -0.7752 -0.2304  0.9594
  217MOL0     H28642   8.761  -0.477   3.200  5.1709  0.6030  1.5015
  217MOL0     H28643   8.101   0.059   3.155  1.0921 -2.5783 -0.6513
  217MOL0     H28644   7.894   0.147   3.243  0.4127 -1.1133  0.0653
  218MOL0     O28645   3.869   2.396   1.080 -0.0466 -0.0380  0.4020
  218MOL0     C28646   3.883   2.456   0.979  0.9870 -0.5094  0.2055
  218MOL0     O28647   3.772   2.508   0.903 -0.2461  0.1971 -0.1998
  218MOL0     C28648   3.644   2.463   0.943 -0.9141 -0.6050 -0.7626
  218MOL0     C28649   3.566   2.566   0.992 -0.6543  0.6034  0.0608
  218MOL0     C28650   3.431   2.537   1.034 -0.8136  0.6875 -0.5889
  218MOL0     C28651   3.380   2.407   1.006 -0.1548 -0.4102  0.4820
  218MOL0     O28652   3.248   2.387   1.015  0.5159 -0.5842  0.1034
  218MOL0     C28653   3.194   2.255   1.046  0.1624  0.2272  0.5359
  218MOL0     C28654   3.040   2.278   1.067 -0.0111 -0.2717  0.2964
  218MOL0     C28655   3.010   2.342   1.201  0.3481  0.7640 -0.4619
  218MOL0     C28656   3.073   2.478   1.236 -0.0072  0.3391 -0.5787
  218MOL0     C28657   3.019   2.553   1.352  0.1966  0.3166  0.1439
  218MOL0     C28658   2.883   2.624   1.320 -0.7660 -0.4129 -0.4379
  218MOL0     C28659   2.815   2.673   1.450 -0.1613  0.3636  0.4852
  218MOL0     C28660   2.754   2.560   1.534  0.7077  0.6143 -0.5140
  218MOL0     N28661   2.637   2.602   1.616 -0.3185 -0.3930 -0.3737
  218MOL0     C28662   2.522   2.649   1.560 -0.3474 -0.0634 -0.6444
  218MOL0     C28663   2.442   2.686   1.663 -0.2824 -0.3810  0.4664
  218MOL0     C28664   2.306   2.736   1.665  0.0992  0.6067 -0.4441
  218MOL0     C28665   2.260   2.801   1.531  0.6531  0.5119 -0.5132
  218MOL0     C28666   2.124   2.856   1.529 -0.0284 -0.6755  0.2513
  218MOL0     C28667   2.103   2.987   1.614  0.5200 -1.0122 -0.2967
  218MOL0     O28668   1.987   3.058   1.565  0.3137  0.1482 -0.3449
  218MOL0     C28669   1.862   3.010   1.601  0.4175  1.7343 -0.4284
  218MOL0     C28670   1.764   3.018   1.494 -0.4500  0.4510  0.4436
  218MOL0     C28671   1.638   2.952   1.506 -0.5253 -0.7338  0.1547
  218MOL0     C28672   1.616   2.884   1.628 -0.3923 -0.3298 -0.7899
  218MOL0     C28673   1.502   2.786   1.640 -0.4883 -0.6775  0.2593
  218MOL0     O28674   1.439   2.776   1.756  0.1321 -0.0432 -0.1260
  218MOL0     C28675   1.321   2.705   1.780 -0.0142 -0.0371  0.2718
  218MOL0     C28676   1.292   2.578   1.735  0.9510  0.3046 -0.1294
  218MOL0     C28677   1.173   2.511   1.778  0.0261 -0.0578 -0.8046
  218MOL0     C28678   1.077   2.572   1.853  0.5476  0.0549 -0.3753
  218MOL0     O28679   0.945   2.528   1.886  0.0700  0.1031 -0.8146
  218MOL0     C28680   0.938   2.390   1.931 -0.0965 -0.6189 -0.1355
  218MOL0     C28681   0.838   2.376   2.046  0.1165 -0.9125 -0.7937
  218MOL0     C28682   0.701   2.438   2.014  0.4143  0.9636  0.3835
  218MOL0     C28683   0.612   2.422   2.136  0.8501 -0.8074 -0.5296
  218MOL0     C28684   0.471   2.472   2.112 -1.5743  0.1044 -0.1720
  218MOL0     C28685   0.370   2.403   2.207  0.9847  0.4326  0.0632
  218MOL0     C28686   0.351   2.247   2.187 -0.1195 -0.1280 -0.2558
  218MOL0     C28687   0.274   2.219   2.061  0.5417 -0.0491  0.3943
  218MOL0    Cl28688   0.098   2.239   2.084 -0.2477 -0.4508  0.1486
  218MOL0     C28689   1.100   2.704   1.900 -0.5113 -0.2294  0.5679
  218MOL0     C28690   1.227   2.765   1.861 -0.5437 -0.0738 -0.2223
  218MOL0     O28691   1.468   2.731   1.536 -0.4638 -0.3291  0.1216
  218MOL0     C28692   1.699   2.893   1.738 -0.5152 -0.3525  1.1319
  218MOL0     C28693   1.828   2.948   1.721  0.4059  0.6994  0.3280
  218MOL0     N28694   2.513   2.653   1.776 -1.0421 -0.2855 -0.6059
  218MOL0     N28695   2.639   2.621   1.755  0.2843  0.0179 -0.0425
  218MOL0     C28696   3.467   2.295   0.978  0.1632  0.2430 -0.0214
  218MOL0     C28697   3.596   2.330   0.940  0.0194  0.1384 -0.1040
  218MOL0     C28698   4.017   2.480   0.916 -0.2706  0.4502 -1.2775
  218MOL0     C28699   4.137   2.432   0.980  0.7866 -0.4797 -0.6567
  218MOL0     C28700   4.257   2.455   0.907 -1.2179  0.2780 -0.3419
  218MOL0     C28701   4.259   2.515   0.784  0.2529 -0.2421  0.8224
  218MOL0     O28702   4.381   2.521   0.717 -0.3695  0.1479  0.2728
  218MOL0     C28703   4.426   2.650   0.670  0.5520  0.0997  0.0153
  218MOL0     C28704   4.495   2.705   0.797 -0.7184  0.6337  0.2363
  218MOL0     C28705   4.624   2.626   0.850 -0.3792  0.1955  0.6374
  218MOL0     C28706   4.699   2.681   0.973  0.8109  0.1211 -0.2586
  218MOL0     C28707   4.826   2.615   0.981 -0.3274 -0.1689 -0.6055
  218MOL0     C28708   4.936   2.558   0.978  0.3263 -0.2234  0.2520
  218MOL0     C28709   4.146   2.564   0.723  0.3500  0.3837 -0.0308
  218MOL0     C28710   4.024   2.540   0.785 -0.5678  0.0502 -0.3993
  218MOL0     H28711   3.613   2.663   0.995  0.7523 -0.0435 -0.3071
  218MOL0     H28712   3.366   2.609   1.083 -3.0115 -1.0970 -0.7319
  218MOL0     H28713   3.229   2.206   1.138 -4.3297 -0.5581  2.0967
  218MOL0     H28714   3.210   2.187   0.962  0.1551 -1.3194  1.7362
  218MOL0     H28715   2.987   2.183   1.064 -1.0460  0.2295  1.7553
  218MOL0     H28716   3.009   2.354   0.994 -1.5445  1.0440  2.2367
  218MOL0     H28717   3.046   2.269   1.274 -1.4708 -0.0291 -0.3082
  218MOL0     H28718   2.902   2.339   1.217  0.8010  0.9015  3.4666
  218MOL0     H28719   3.182   2.464   1.242  0.4058  2.2668 -2.5041
  218MOL0     H28720   3.060   2.541   1.147  2.0545 -0.9450 -1.8775
  218MOL0     H28721   3.105   2.604   1.395  0.4575  1.0033 -1.1389
  218MOL0     H28722   2.996   2.484   1.433  0.6022 -0.7459 -0.6224
  218MOL0     H28723   2.818   2.549   1.275 -0.3178  1.2119 -4.1091
  218MOL0     H28724   2.913   2.706   1.254  2.5674  0.8113  2.2657
  218MOL0     H28725   2.879   2.741   1.508 -0.6398  1.3649 -0.1361
  218MOL0     H28726   2.729   2.731   1.416 -1.4541 -0.2764  2.4671
  218MOL0     H28727   2.836   2.514   1.590  0.4915 -2.0365 -2.1811
  218MOL0     H28728   2.714   2.483   1.468 -1.6535  2.1998 -1.0547
  218MOL0     H28729   2.498   2.649   1.454  0.3210 -2.0839 -0.8410
  218MOL0     H28730   2.295   2.807   1.748  0.6116  0.6652 -0.4258
  218MOL0     H28731   2.243   2.649   1.682  2.4385 -1.9343 -3.5674
  218MOL0     H28732   2.260   2.713   1.466  2.6161 -2.0413  2.5938
  218MOL0     H28733   2.332   2.880   1.508  0.8637  1.0689  1.7565
  218MOL0     H28734   2.105   2.887   1.425  4.4382 -0.6372 -0.7771
  218MOL0     H28735   2.056   2.779   1.566 -0.3060  0.6029  2.5861
  218MOL0     H28736   2.185   3.053   1.583  1.8080 -2.7366 -0.7388
  218MOL0     H28737   2.108   2.975   1.722  0.8757 -0.2052 -0.2168
  218MOL0     H28738   1.789   3.066   1.401  2.1588 -1.1564  0.2239
  218MOL0     H28739   1.566   2.964   1.427 -0.1779 -2.3763 -0.4479
  218MOL0     H28740   1.360   2.526   1.668 -0.7995 -0.5775 -1.3200
  218MOL0     H28741   1.141   2.414   1.741 -0.1852 -0.2925 -0.0273
  218MOL0     H28742   1.036   2.365   1.972  0.4742 -0.3747 -1.3061
  218MOL0     H28743   0.930   2.318   1.849  0.3051 -0.3370 -0.4272
  218MOL0     H28744   0.866   2.436   2.134 -0.3536 -1.4525 -0.2707
  218MOL0     H28745   0.828   2.272   2.077 -0.6945 -1.2803 -2.2403
  218MOL0     H28746   0.641   2.383   1.940  1.1548 -0.4993  0.8217
  218MOL0     H28747   0.707   2.542   1.982 -2.1623  1.4250  1.1759
  218MOL0     H28748   0.612   2.318   2.170 -1.1095 -0.2847  1.2919
  218MOL0     H28749   0.655   2.479   2.219  1.5555 -1.0588 -0.7098
  218MOL0     H28750   0.435   2.456   2.010 -1.1385  3.9398 -1.0934
  218MOL0     H28751   0.475   2.580   2.129 -2.0532  0.0682  0.1977
  218MOL0     H28752   0.268   2.444   2.200  0.7791 -0.0025  0.4050
  218MOL0     H28753   0.403   2.428   2.308  0.1738 -0.5218  0.5905
  218MOL0     H28754   0.450   2.202   2.176  0.9270  1.8847  0.4206
  218MOL0     H28755   0.306   2.204   2.276  0.9013 -0.5414  0.0704
  218MOL0     H28756   0.272   2.115   2.027 -3.5788  0.0513 -0.1294
  218MOL0     H28757   0.310   2.288   1.984 -1.0996 -1.0771 -1.3722
  218MOL0     H28758   1.028   2.743   1.971 -1.3970 -1.4183  0.3530
  218MOL0     H28759   1.252   2.862   1.904  2.8071 -1.8579  2.2603
  218MOL0     H28760   1.684   2.855   1.839 -1.9816  1.9850  1.8879
  218MOL0     H28761   1.895   2.965   1.805 -0.0523  0.8826  0.6611
  218MOL0     H28762   3.436   2.195   0.952 -0.7852  1.3314 -3.6432
  218MOL0     H28763   3.673   2.254   0.928 -0.4868 -0.3540 -0.2491
  218MOL0     H28764   4.145   2.369   1.068 -1.0840 -1.1594 -0.9247
  218MOL0     H28765   4.353   2.425   0.949 -0.8607 -1.8869 -2.5026
  218MOL0     H28766   4.348   2.723   0.647  0.5580 -0.1939 -1.0017
  218MOL0     H28767   4.495   2.639   0.586  2.1572  4.2312  0.5962
  218MOL0     H28768   4.521   2.810   0.782  1.1674  0.3084  1.0263
  218MOL0     H28769   4.432   2.693   0.886  0.1287 -0.7406  0.6848
  218MOL0     H28770   4.699   2.633   0.770 -1.4073  2.0554 -0.2259
  218MOL0     H28771   4.598   2.523   0.876  5.2027 -1.8610 -0.3983
  218MOL0     H28772   4.700   2.790   0.977  1.9251  0.1939 -1.6574
  218MOL0     H28773   4.641   2.650   1.060 -0.1778 -3.0466 -1.9063
  218MOL0     H28774   5.024   2.498   0.966 -0.1582 -1.6092  2.7272
  218MOL0     H28775   4.155   2.603   0.622 -0.9890 -1.6026 -0.9760
  218MOL0     H28776   3.931   2.580   0.747 -2.6559 -1.1697  3.0364
  219MOL0     O28777   1.326   8.730   0.090  0.5120  0.5276  0.1714
  219MOL0     C28778   1.277   8.620   0.076  0.2211  0.4209 -0.3474
  219MOL0     O28779   1.344   8.500   0.092 -0.0990 -0.2793 -0.0259
  219MOL0     C28780   1.481   8.516   0.100 -0.3639  0.3819  0.2935
  219MOL0     C28781   1.552   8.508  -0.017 -0.0925 -0.0298 -0.6618
  219MOL0     C28782   1.690   8.526  -0.020  0.2397  0.3589 -0.4785
  219MOL0     C28783   1.755   8.553   0.099 -0.6766 -0.1555  0.4191
  219MOL0     O28784   1.885   8.564   0.068 -0.2063 -0.2294  0.4435
  219MOL0     C28785   1.955   8.644   0.155 -0.1566  0.5010 -0.2439
  219MOL0     C28786   2.086   8.674   0.075  0.4733 -0.3721  0.8215
  219MOL0     C28787   2.072   8.749  -0.063  0.5995  0.2895  0.2935
  219MOL0     C28788   2.069   8.903  -0.047 -1.0320 -0.4391  0.1629
  219MOL0     C28789   2.202   8.957  -0.000  0.1600  0.6687 -0.1534
  219MOL0     C28790   2.313   8.917  -0.084 -1.5244  0.0195 -0.1434
  219MOL0     C28791   2.432   8.999  -0.030 -0.4569  1.2500  0.3665
  219MOL0     C28792   2.551   8.994  -0.130 -0.4497  0.3490  0.3530
  219MOL0     N28793   2.606   8.866  -0.155 -0.1144  0.4699  0.1395
  219MOL0     C28794   2.690   8.791  -0.075  1.1772 -0.2228 -0.6430
  219MOL0     C28795   2.723   8.679  -0.156 -0.2990  0.1702 -0.0993
  219MOL0     C28796   2.803   8.558  -0.121  0.2395 -0.3962 -0.3882
  219MOL0     C28797   2.924   8.539  -0.212  0.6538  0.2396 -0.2710
  219MOL0     C28798   3.011   8.666  -0.224 -0.2993  0.1645  0.2116
  219MOL0     C28799   3.124   8.636  -0.330 -0.6067  0.7966 -0.5092
  219MOL0     O28800   3.200   8.528  -0.275 -1.3410  0.2464 -0.1488
  219MOL0     C28801   3.298   8.479  -0.358  0.2228  1.2445 -0.4528
  219MOL0     C28802   3.323   8.520  -0.493  0.5446  0.5407  0.3197
  219MOL0     C28803   3.443   8.467  -0.555  0.0989 -0.6634 -0.2309
  219MOL0     C28804   3.520   8.367  -0.502  0.4029  0.6391  0.6310
  219MOL0     C28805   3.618   8.300  -0.583 -0.9726  0.3852  0.4633
  219MOL0     O28806   3.695   8.209  -0.519  0.1172 -0.2539 -0.0492
  219MOL0     C28807   3.800   8.131  -0.557 -0.3426 -0.2697 -0.1511
  219MOL0     C28808   3.858   8.061  -0.455 -0.1359 -0.1005  0.4634
  219MOL0     C28809   3.969   7.977  -0.468  0.7723  0.5264  0.5983
  219MOL0     C28810   4.031   7.966  -0.595 -0.5031 -0.3441  0.3357
  219MOL0     O28811   4.139   7.882  -0.599  0.4232  0.0773 -0.2229
  219MOL0     C28812   4.182   7.843  -0.730 -1.2218  0.0152  0.1447
  219MOL0     C28813   4.118   7.706  -0.769 -0.1041 -0.1414 -0.2698
  219MOL0     C28814   4.161   7.646  -0.904 -0.7455 -0.5055 -0.1922
  219MOL0     C28815   4.291   7.564  -0.875 -0.9589  0.7637  0.5972
  219MOL0     C28816   4.354   7.521  -1.009  0.7684 -0.5818  0.0250
  219MOL0     C28817   4.471   7.437  -0.989  0.2805 -0.6705  0.4189
  219MOL0     C28818   4.542   7.414  -1.119  0.2772 -0.1371  0.1568
  219MOL0     C28819   4.605   7.266  -1.130  0.1393 -0.8884 -0.8196
  219MOL0    Cl28820   4.471   7.142  -1.116 -0.0840 -0.3623  0.0904
  219MOL0     C28821   3.958   8.018  -0.707 -0.3716  0.1814 -0.9886
  219MOL0     C28822   3.846   8.095  -0.688  0.1801 -0.6483 -0.2609
  219MOL0     O28823   3.627   8.328  -0.702  0.0261  0.3615  0.5793
  219MOL0     C28824   3.498   8.335  -0.368 -0.0672 -0.6115  0.3033
  219MOL0     C28825   3.392   8.397  -0.296 -0.3773 -0.2804  0.2434
  219MOL0     N28826   2.653   8.688  -0.272 -0.0986 -0.0459  0.2935
  219MOL0     N28827   2.573   8.789  -0.263  1.5520 -0.0687  0.1530
  219MOL0     C28828   1.692   8.560   0.224  0.9389  0.0806  0.1128
  219MOL0     C28829   1.546   8.559   0.226  0.3265  1.0235  0.1913
  219MOL0     C28830   1.137   8.616   0.040  0.2577  0.3160 -0.1277
  219MOL0     C28831   1.050   8.726   0.057  0.0125  0.6321 -0.1248
  219MOL0     C28832   0.917   8.713   0.042  0.4584 -0.3267  0.7726
  219MOL0     C28833   0.855   8.596   0.005 -0.1615  0.0217 -0.2826
  219MOL0     O28834   0.715   8.605  -0.006 -1.2209  0.0740  0.7891
  219MOL0     C28835   0.640   8.516  -0.079 -1.0106  0.5336 -1.0059
  219MOL0     C28836   0.640   8.549  -0.229  0.2973  0.0199 -0.9278
  219MOL0     C28837   0.539   8.482  -0.311 -0.4175  0.6684 -0.5789
  219MOL0     C28838   0.403   8.521  -0.243  0.2698 -0.2020  0.2176
  219MOL0     C28839   0.300   8.530  -0.347 -0.4608  0.9590  0.0082
  219MOL0     C28840   0.212   8.552  -0.423  1.3794  0.0184 -0.3300
  219MOL0     C28841   0.932   8.479  -0.017 -0.6173  0.3212  0.2836
  219MOL0     C28842   1.074   8.490  -0.010 -0.6196  0.3002  0.2004
  219MOL0     H28843   1.506   8.485  -0.112  2.3088 -2.1167 -1.4049
  219MOL0     H28844   1.759   8.517  -0.103  1.9305 -1.3532  0.9993
  219MOL0     H28845   1.984   8.594   0.248 -0.2643  5.7644  3.0491
  219MOL0     H28846   1.893   8.729   0.185 -3.3794 -1.8625  0.3026
  219MOL0     H28847   2.128   8.574   0.065 -0.9740 -0.7978 -2.5000
  219MOL0     H28848   2.154   8.736   0.135  1.3516 -1.4014  0.9355
  219MOL0     H28849   1.974   8.724  -0.104 -0.3663 -2.9134  4.0115
  219MOL0     H28850   2.151   8.714  -0.131  2.8047 -0.4253  3.0329
  219MOL0     H28851   2.044   8.948  -0.143 -3.0843 -0.2166  0.7543
  219MOL0     H28852   1.990   8.922   0.026 -0.9885 -0.9151  0.3444
  219MOL0     H28853   2.213   8.934   0.106 -0.4017  1.6900  0.1451
  219MOL0     H28854   2.192   9.066   0.003 -0.5669  0.5803  1.4296
  219MOL0     H28855   2.284   8.931  -0.188  2.0895  0.0226 -1.2985
  219MOL0     H28856   2.333   8.810  -0.074  0.1067  0.2676 -0.3830
  219MOL0     H28857   2.416   9.102   0.003  0.1125  0.6594  2.6373
  219MOL0     H28858   2.455   8.963   0.070 -1.5947  1.0019  0.5465
  219MOL0     H28859   2.631   9.060  -0.095 -0.0552  0.7484 -1.2100
  219MOL0     H28860   2.517   9.029  -0.228 -0.6527 -2.9044 -0.8602
  219MOL0     H28861   2.712   8.818   0.028  3.6407 -0.5943 -1.0210
  219MOL0     H28862   2.736   8.472  -0.132  0.1812 -0.6049  1.3451
  219MOL0     H28863   2.839   8.560  -0.018 -0.6689  0.1225 -0.0761
  219MOL0     H28864   2.887   8.509  -0.311 -3.5422 -0.9579  1.4237
  219MOL0     H28865   2.989   8.461  -0.171  0.3597  1.6148  3.1452
  219MOL0     H28866   2.946   8.752  -0.247  0.3020  0.4258 -0.5572
  219MOL0     H28867   3.051   8.698  -0.127  2.3464 -0.4627 -0.5939
  219MOL0     H28868   3.175   8.729  -0.356 -0.4776  0.0532 -3.2095
  219MOL0     H28869   3.062   8.605  -0.414  1.3304 -0.5585 -1.5196
  219MOL0     H28870   3.260   8.593  -0.543 -0.1238  0.7900  1.4891
  219MOL0     H28871   3.469   8.508  -0.651  2.9741  0.5915  0.9541
  219MOL0     H28872   3.818   8.087  -0.357 -1.9020  2.4994 -0.8515
  219MOL0     H28873   4.005   7.919  -0.384  2.2628  0.5059 -0.0177
  219MOL0     H28874   4.289   7.821  -0.731 -1.8912 -3.9808 -1.2149
  219MOL0     H28875   4.174   7.914  -0.812  1.2857 -2.6156 -2.5942
  219MOL0     H28876   4.013   7.730  -0.787  0.5173  0.5769 -3.6439
  219MOL0     H28877   4.132   7.635  -0.687  0.5215 -1.6158 -1.6048
  219MOL0     H28878   4.175   7.723  -0.980  2.9046 -0.6460  0.1462
  219MOL0     H28879   4.097   7.564  -0.938  0.0889 -1.8444  1.2964
  219MOL0     H28880   4.355   7.611  -0.799 -0.6289 -0.8105  1.3283
  219MOL0     H28881   4.256   7.467  -0.839 -0.3554 -0.4675 -1.8828
  219MOL0     H28882   4.378   7.617  -1.057 -2.3743  1.5676  2.3398
  219MOL0     H28883   4.288   7.476  -1.084  0.9377 -3.3357  1.3979
  219MOL0     H28884   4.439   7.342  -0.945 -2.3307  0.4972  1.2506
  219MOL0     H28885   4.532   7.490  -0.916 -0.4410  3.4967 -1.6984
  219MOL0     H28886   4.472   7.427  -1.202  0.2396  0.2204  0.2404
  219MOL0     H28887   4.612   7.496  -1.137 -1.4643  1.2785 -0.5125
  219MOL0     H28888   4.682   7.242  -1.056  2.6069 -3.2036 -3.8797
  219MOL0     H28889   4.658   7.252  -1.225  0.6915  3.8067 -1.4173
  219MOL0     H28890   3.996   8.004  -0.808  0.4404  2.5122 -1.0662
  219MOL0     H28891   3.782   8.128  -0.770  0.2063 -2.3991 -1.0233
  219MOL0     H28892   3.556   8.254  -0.324  0.4322 -1.0617 -1.0901
  219MOL0     H28893   3.362   8.368  -0.195  0.2890  3.8456  1.7900
  219MOL0     H28894   1.734   8.582   0.322 -0.7234 -0.3766  0.9616
  219MOL0     H28895   1.484   8.583   0.312 -1.5005 -1.7824 -0.2026
  219MOL0     H28896   1.084   8.824   0.089 -0.5067  0.2698  1.6855
  219MOL0     H28897   0.861   8.802   0.068  2.2000  1.1025 -0.1412
  219MOL0     H28898   0.543   8.495  -0.034 -1.3395 -2.0598 -2.6865
  219MOL0     H28899   0.686   8.417  -0.071 -2.6589 -0.2167 -0.4285
  219MOL0     H28900   0.619   8.657  -0.231  0.3392  0.1363  1.4809
  219MOL0     H28901   0.740   8.538  -0.271  0.6998  0.4529 -0.1063
  219MOL0     H28902   0.554   8.374  -0.313 -0.5524  0.5594  1.8158
  219MOL0     H28903   0.545   8.519  -0.414  1.6224  1.1033 -0.3546
  219MOL0     H28904   0.365   8.444  -0.176  1.3755 -2.0787 -1.2239
  219MOL0     H28905   0.410   8.610  -0.179 -0.4226 -1.6451  2.3976
  219MOL0     H28906   0.147   8.549  -0.509  2.8644  0.2453 -1.4916
  219MOL0     H28907   0.891   8.382  -0.043 -1.9630  1.1854 -0.9358
  219MOL0     H28908   1.140   8.411  -0.044 -2.3715 -1.1428 -0.0075
  220MOL0     O28909   1.267  10.585   3.041 -0.3334 -0.2063 -0.4438
  220MOL0     C28910   1.211  10.608   2.940 -0.4065 -0.0099  0.2341
  220MOL0     O28911   1.271  10.647   2.817 -0.3927  0.3714 -0.1836
  220MOL0     C28912   1.402  10.656   2.779 -0.4024  0.0278 -0.5956
  220MOL0     C28913   1.435  10.734   2.664 -0.0491  0.7633 -0.2729
  220MOL0     C28914   1.565  10.735   2.620 -0.7080  0.6416  0.2035
  220MOL0     C28915   1.668  10.664   2.682 -0.0681  0.0980 -1.0917
  220MOL0     O28916   1.783  10.661   2.615 -0.3025  0.6179 -0.3666
  220MOL0     C28917   1.887  10.562   2.649  1.0273 -0.0698 -0.0819
  220MOL0     C28918   2.024  10.608   2.607 -0.3123 -0.6739  0.1509
  220MOL0     C28919   2.121  10.503   2.641 -0.3979 -0.2263 -1.0438
  220MOL0     C28920   2.266  10.549   2.655 -0.1248  1.1150 -0.3734
  220MOL0     C28921   2.372  10.452   2.713 -0.1962 -0.9173  0.9530
  220MOL0     C28922   2.524  10.472   2.691 -0.5497  0.7666 -0.6911
  220MOL0     C28923   2.557  10.539   2.564  0.2213 -0.0337  0.1802
  220MOL0     C28924   2.706  10.563   2.547  0.0919  0.3324  0.3185
  220MOL0     N28925   2.750  10.439   2.467 -0.0987 -0.4329 -0.0882
  220MOL0     C28926   2.800  10.457   2.340  1.2413  0.4286  0.5300
  220MOL0     C28927   2.795  10.337   2.280  0.1438 -0.1720 -0.5600
  220MOL0     C28928   2.826  10.305   2.135 -0.3375  0.8677  0.2639
  220MOL0     C28929   2.692  10.322   2.049 -0.2332 -0.3057 -0.4056
  220MOL0     C28930   2.695  10.444   1.951  0.8777 -0.1741  0.4711
  220MOL0     C28931   2.722  10.585   2.020 -0.4999  0.2747 -1.2734
  220MOL0     O28932   2.636  10.586   2.146 -0.3368 -0.4548  0.5488
  220MOL0     C28933   2.542  10.679   2.157  0.0401 -0.9876 -0.0866
  220MOL0     C28934   2.438  10.654   2.241  0.4111  0.2976 -0.0192
  220MOL0     C28935   2.325  10.731   2.254 -0.0637  0.4392  0.0057
  220MOL0     C28936   2.305  10.845   2.169 -1.5687  0.2578 -0.2762
  220MOL0     C28937   2.177  10.917   2.171 -1.4992 -0.6952 -0.4401
  220MOL0     O28938   2.064  10.846   2.190  0.1905  0.2922 -0.4878
  220MOL0     C28939   1.945  10.918   2.207 -0.5148  0.2882 -1.1852
  220MOL0     C28940   1.896  10.987   2.104  0.3682 -0.1223  0.0409
  220MOL0     C28941   1.768  11.046   2.117  0.8786 -0.0731 -0.4943
  220MOL0     C28942   1.688  11.019   2.236  0.3596  0.1010 -0.2686
  220MOL0     O28943   1.556  11.056   2.260  0.1443  0.1350  0.2641
  220MOL0     C28944   1.510  11.174   2.179  0.2041  0.1355  0.0897
  220MOL0     C28945   1.375  11.217   2.225 -0.4190 -0.0895 -0.0135
  220MOL0     C28946   1.330  11.329   2.130 -0.2629  0.3277 -0.0508
  220MOL0     C28947   1.182  11.350   2.116  0.9452  0.3145 -0.1000
  220MOL0     C28948   1.118  11.415   2.235 -1.0552  1.2001 -0.2479
  220MOL0     C28949   0.984  11.464   2.204 -0.4606  0.4847  0.3667
  220MOL0     C28950   0.874  11.361   2.183 -0.3386 -0.4237 -0.5866
  220MOL0     C28951   0.734  11.436   2.170 -0.0762  0.4273  0.6973
  220MOL0    Cl28952   0.620  11.307   2.105 -0.1858 -0.5763 -0.1499
  220MOL0     C28953   1.746  10.955   2.344  0.1509  0.0121  0.0486
  220MOL0     C28954   1.869  10.895   2.325  0.0813 -0.8587  0.7311
  220MOL0     O28955   2.197  11.039   2.166  0.6604  0.5460 -0.7038
  220MOL0     C28956   2.424  10.885   2.098 -0.5119  0.0134 -0.6853
  220MOL0     C28957   2.540  10.800   2.091 -0.3367 -0.7811  0.5028
  220MOL0     N28958   2.770  10.239   2.382  0.2240 -0.0899 -0.1021
  220MOL0     N28959   2.757  10.309   2.499  0.1277 -0.0278 -0.1499
  220MOL0     C28960   1.634  10.605   2.808  0.4834 -0.1642 -0.8247
  220MOL0     C28961   1.509  10.605   2.860 -0.8498  0.0922  0.3850
  220MOL0     C28962   1.068  10.614   2.940 -0.4323 -0.3660 -0.4015
  220MOL0     C28963   1.007  10.667   2.821  0.2861 -0.0839 -0.5169
  220MOL0     C28964   0.863  10.674   2.808 -0.4156 -0.0490 -0.2527
  220MOL0     C28965   0.782  10.647   2.921 -0.9699  0.3191 -0.1883
  220MOL0     O28966   0.649  10.659   2.904 -0.4697 -0.0442  0.5280
  220MOL0     C28967   0.557  10.599   3.002  0.3918 -0.3859 -0.0432
  220MOL0     C28968   0.416  10.581   2.966 -0.3217  1.0603  0.5043
  220MOL0     C28969   0.339  10.695   2.902 -0.6024 -0.2281  0.6151
  220MOL0     C28970   0.189  10.658   2.867 -0.1150 -0.7918  0.4599
  220MOL0     C28971   0.149  10.726   2.741 -0.6745  0.3571 -0.9811
  220MOL0     C28972   0.125  10.800   2.649 -0.0375  0.6347  0.1119
  220MOL0     C28973   0.846  10.608   3.041 -0.0979 -0.1548  0.0545
  220MOL0     C28974   0.985  10.591   3.055  0.1339 -0.4126  0.9596
  220MOL0     H28975   1.349  10.776   2.613 -1.0363 -1.1145 -0.2336
  220MOL0     H28976   1.581  10.778   2.521 -1.1814  0.2638 -0.0396
  220MOL0     H28977   1.864  10.473   2.590 -0.8894  1.0398 -1.1080
  220MOL0     H28978   1.872  10.544   2.756 -0.3878  4.2375  0.6411
  220MOL0     H28979   2.048  10.699   2.664  0.6768 -1.5930  1.2811
  220MOL0     H28980   2.032  10.638   2.503 -1.6778  0.1534  0.2691
  220MOL0     H28981   2.108  10.416   2.576  0.8327 -0.0860 -1.5132
  220MOL0     H28982   2.084  10.460   2.734 -0.9644 -2.9832 -2.4483
  220MOL0     H28983   2.293  10.564   2.550  0.5525 -1.3329 -0.6137
  220MOL0     H28984   2.275  10.639   2.717 -0.4988 -0.0080  1.3880
  220MOL0     H28985   2.343  10.359   2.664  0.5837  0.5060 -2.4426
  220MOL0     H28986   2.361  10.448   2.822  0.3494  2.3671  1.2188
  220MOL0     H28987   2.575  10.378   2.714 -0.9146  0.5805 -0.6266
  220MOL0     H28988   2.574  10.533   2.766 -1.3307 -1.6657  1.9922
  220MOL0     H28989   2.504  10.479   2.489 -1.0569  0.7553  0.4050
  220MOL0     H28990   2.504  10.635   2.569 -1.7792 -1.1021  0.6378
  220MOL0     H28991   2.754  10.570   2.645 -1.6615  0.8300  1.1859
  220MOL0     H28992   2.724  10.657   2.495  0.2641  0.4426  0.5770
  220MOL0     H28993   2.819  10.557   2.301 -2.0113  1.3012  0.9100
  220MOL0     H28994   2.870  10.205   2.123 -0.2754  0.9292 -0.0345
  220MOL0     H28995   2.892  10.370   2.076 -0.5651  0.4404 -0.4815
  220MOL0     H28996   2.608  10.338   2.117  0.6120  2.1819  0.1606
  220MOL0     H28997   2.670  10.233   1.989 -3.3272 -0.9225  1.4224
  220MOL0     H28998   2.780  10.425   1.885  3.5412 -1.9292  4.0698
  220MOL0     H28999   2.601  10.443   1.895  1.9377  1.3662 -1.4860
  220MOL0     H29000   2.698  10.671   1.957 -0.5917  1.1541 -0.0580
  220MOL0     H29001   2.827  10.582   2.052 -1.1664 -0.0306  1.0455
  220MOL0     H29002   2.445  10.568   2.306 -0.5857  0.4000  0.2315
  220MOL0     H29003   2.252  10.705   2.330 -0.4390  1.5845  0.0437
  220MOL0     H29004   1.951  11.000   2.011 -0.7901 -2.5106 -1.0741
  220MOL0     H29005   1.729  11.097   2.029 -0.6110 -1.4435 -0.6608
  220MOL0     H29006   1.493  11.142   2.076 -2.2781  1.5945 -0.0190
  220MOL0     H29007   1.585  11.252   2.199  1.3070 -1.1864  1.3648
  220MOL0     H29008   1.365  11.255   2.327 -0.0216 -2.2907  0.9152
  220MOL0     H29009   1.305  11.134   2.212  0.2885 -0.5436 -1.0309
  220MOL0     H29010   1.357  11.308   2.026  1.3996 -0.9054  0.5660
  220MOL0     H29011   1.372  11.421   2.172 -1.4549  0.8816 -0.0281
  220MOL0     H29012   1.148  11.400   2.025 -1.9211 -0.5438  0.3958
  220MOL0     H29013   1.134  11.252   2.115  0.6745  0.3422  2.8196
  220MOL0     H29014   1.183  11.492   2.276 -0.1756  1.0383 -1.2959
  220MOL0     H29015   1.103  11.348   2.319 -0.5798  1.4824  0.0668
  220MOL0     H29016   0.993  11.524   2.113  0.8205 -0.4790 -0.1752
  220MOL0     H29017   0.959  11.530   2.287  0.3113 -0.4099  1.3430
  220MOL0     H29018   0.880  11.304   2.090 -2.9763 -0.9526 -0.5258
  220MOL0     H29019   0.869  11.293   2.268  3.8606  0.9599  1.0338
  220MOL0     H29020   0.728  11.514   2.095  1.5838  0.9711  1.0942
  220MOL0     H29021   0.713  11.469   2.272 -1.9991  2.8070 -0.4004
  220MOL0     H29022   1.698  10.932   2.438 -1.2229  0.0767 -0.6140
  220MOL0     H29023   1.909  10.836   2.407  0.1889  0.7549  1.8882
  220MOL0     H29024   2.430  10.981   2.048 -2.0957 -0.0255 -0.9984
  220MOL0     H29025   2.619  10.844   2.032 -0.9220 -1.4670 -0.8491
  220MOL0     H29026   1.708  10.552   2.868 -1.1930 -0.4400  1.0996
  220MOL0     H29027   1.487  10.561   2.957 -2.7867  2.3521  1.0493
  220MOL0     H29028   1.073  10.693   2.739 -0.1538 -3.3653 -2.0608
  220MOL0     H29029   0.824  10.704   2.711  3.1184  4.5006 -0.6214
  220MOL0     H29030   0.567  10.660   3.093 -0.8195  1.1222 -0.8629
  220MOL0     H29031   0.591  10.496   3.012 -2.5462 -1.2992  2.0651
  220MOL0     H29032   0.415  10.498   2.895  0.2199  0.8940  0.6841
  220MOL0     H29033   0.355  10.560   3.055 -2.4393  2.6619 -0.4869
  220MOL0     H29034   0.378  10.725   2.804 -2.6242 -1.5081 -0.6582
  220MOL0     H29035   0.349  10.775   2.976  0.6351 -1.5224  1.9128
  220MOL0     H29036   0.170  10.551   2.855 -2.5879 -0.7580  2.8926
  220MOL0     H29037   0.142  10.696   2.958  2.0378 -0.1286  1.3626
  220MOL0     H29038   0.104  10.859   2.562 -2.3867  1.8904  1.4104
  220MOL0     H29039   0.787  10.579   3.127 -0.6299 -1.5102 -0.7428
  220MOL0     H29040   1.038  10.569   3.147 -1.1456  1.1260  2.1102
  221MOL0     O29041   6.755  11.215   5.559 -0.0676 -0.2214  0.4622
  221MOL0     C29042   6.723  11.263   5.666  0.0072 -1.7702 -0.5324
  221MOL0     O29043   6.598  11.246   5.731 -0.4651  0.0475 -0.5570
  221MOL0     C29044   6.483  11.202   5.658  0.0875 -0.3724 -0.7514
  221MOL0     C29045   6.372  11.173   5.737  0.0190 -1.0127 -0.0368
  221MOL0     C29046   6.253  11.145   5.676  0.3401 -0.5582  0.0680
  221MOL0     C29047   6.236  11.146   5.540  0.0523  1.0679  0.2327
  221MOL0     O29048   6.119  11.144   5.469  0.1608  1.0127  0.0556
  221MOL0     C29049   5.997  11.156   5.542 -0.7937 -0.2343  0.6601
  221MOL0     C29050   5.894  11.226   5.446  0.7012 -0.2395 -0.0440
  221MOL0     C29051   5.852  11.117   5.337  0.2575 -1.1040 -0.4014
  221MOL0     C29052   5.742  11.165   5.241  0.3339  0.4075  0.2867
  221MOL0     C29053   5.701  11.053   5.136 -0.3260 -0.1864 -0.6658
  221MOL0     C29054   5.576  11.107   5.066  0.4464 -0.2410  0.2552
  221MOL0     C29055   5.546  11.035   4.937 -0.7622 -0.2113 -0.0504
  221MOL0     C29056   5.461  11.115   4.838 -0.3328  0.1643 -0.1155
  221MOL0     N29057   5.327  11.173   4.888 -0.0091 -1.1798  0.0733
  221MOL0     C29058   5.203  11.118   4.903 -0.4658  0.1518 -0.6000
  221MOL0     C29059   5.124  11.217   4.956 -0.5499  0.0129 -0.6295
  221MOL0     C29060   4.993  11.193   5.022  0.2660 -0.2125  0.0167
  221MOL0     C29061   4.954  11.283   5.133  0.6838 -0.5528  0.1100
  221MOL0     C29062   4.805  11.322   5.165 -0.5277 -0.0515 -0.2976
  221MOL0     C29063   4.722  11.223   5.247  0.1586 -0.5641 -0.2248
  221MOL0     O29064   4.706  11.096   5.179 -0.1041 -0.2521 -0.2692
  221MOL0     C29065   4.616  11.011   5.239 -0.0645  0.8979 -0.0524
  221MOL0     C29066   4.487  11.048   5.275  0.5792 -0.0120  0.6376
  221MOL0     C29067   4.406  10.948   5.332  0.3928  0.0428 -0.0049
  221MOL0     C29068   4.452  10.812   5.353 -0.9299 -0.6584  0.8519
  221MOL0     C29069   4.371  10.711   5.420  0.2500 -0.0322  0.5587
  221MOL0     O29070   4.416  10.576   5.411 -1.1123  0.0989 -0.5331
  221MOL0     C29071   4.362  10.473   5.486  0.8869  0.3064  0.3783
  221MOL0     C29072   4.392  10.335   5.443  0.5841  0.4663  0.1335
  221MOL0     C29073   4.335  10.238   5.519  0.2031  0.2609 -0.6717
  221MOL0     C29074   4.254  10.253   5.630  0.1708  1.0063 -0.5191
  221MOL0     O29075   4.195  10.138   5.679 -0.2113  0.5986 -0.2387
  221MOL0     C29076   4.127  10.151   5.804 -0.2765  1.0198 -0.1778
  221MOL0     C29077   4.196  10.083   5.921 -0.2788  0.1187 -0.3294
  221MOL0     C29078   4.116  10.069   6.055  0.7037  0.0007  0.0928
  221MOL0     C29079   3.995   9.981   6.061  0.8647  0.8947 -0.2630
  221MOL0     C29080   3.943   9.957   6.207 -0.6655 -0.3316  0.5273
  221MOL0     C29081   3.808   9.900   6.209 -0.5461  0.6160  0.0777
  221MOL0     C29082   3.706  10.000   6.171 -0.1920  0.1684  0.1845
  221MOL0     C29083   3.558   9.958   6.195  0.7517  0.3175  0.4412
  221MOL0    Cl29084   3.448  10.082   6.174 -0.2141 -0.3993  0.0135
  221MOL0     C29085   4.227  10.389   5.664 -0.3852  0.5338 -0.6537
  221MOL0     C29086   4.286  10.492   5.602 -0.0140  0.1783  0.5122
  221MOL0     O29087   4.259  10.754   5.465  0.8578  0.8224  0.8044
  221MOL0     C29088   4.584  10.777   5.310 -0.2589 -0.5288 -0.7794
  221MOL0     C29089   4.665  10.883   5.252 -0.5735  1.0664 -0.9581
  221MOL0     N29090   5.200  11.333   4.967 -0.3456  0.0552 -0.1995
  221MOL0     N29091   5.318  11.306   4.928  0.6390  0.4117  0.3515
  221MOL0     C29092   6.349  11.166   5.464  0.4215 -0.1101 -0.2498
  221MOL0     C29093   6.475  11.197   5.516  0.1172 -0.1752 -0.4987
  221MOL0     C29094   6.831  11.336   5.746  0.7355 -1.0808 -0.3070
  221MOL0     C29095   6.952  11.361   5.682  0.4067  0.0625 -0.6228
  221MOL0     C29096   7.060  11.429   5.751 -0.6412  0.6218 -0.2026
  221MOL0     C29097   7.043  11.462   5.879 -0.1613 -0.2989 -0.4460
  221MOL0     O29098   7.148  11.541   5.930 -0.2037  0.9435 -0.0225
  221MOL0     C29099   7.107  11.675   5.978  0.8588 -0.3868  0.5549
  221MOL0     C29100   7.176  11.776   5.896 -0.7991 -0.2858  0.2847
  221MOL0     C29101   7.099  11.795   5.762 -0.4677 -0.0678 -0.1066
  221MOL0     C29102   7.173  11.883   5.657 -1.1121  1.0113  0.0936
  221MOL0     C29103   7.243  12.002   5.713  1.0106 -0.6164  0.1424
  221MOL0     C29104   7.303  12.097   5.756  0.0405  0.3276 -1.2303
  221MOL0     C29105   6.922  11.438   5.946  0.3878 -0.6675 -0.2353
  221MOL0     C29106   6.809  11.380   5.881  0.1185  0.8480 -0.0832
  221MOL0     H29107   6.367  11.188   5.844 -3.2365  1.5099 -0.3627
  221MOL0     H29108   6.168  11.131   5.742  0.9538  0.3206  1.0813
  221MOL0     H29109   6.008  11.220   5.630  1.4056 -1.4893  1.3816
  221MOL0     H29110   5.965  11.056   5.574  1.1531 -0.5540  1.8199
  221MOL0     H29111   5.930  11.321   5.406 -0.3341 -0.5012 -1.6586
  221MOL0     H29112   5.799  11.251   5.494 -1.0808 -1.6272 -2.6163
  221MOL0     H29113   5.817  11.032   5.395  1.4995  0.5455  3.0444
  221MOL0     H29114   5.939  11.084   5.278 -0.3377 -2.6808 -0.4358
  221MOL0     H29115   5.652  11.186   5.299  0.2959  0.7518  0.1014
  221MOL0     H29116   5.763  11.257   5.187  1.0508 -0.3467 -0.7487
  221MOL0     H29117   5.673  10.963   5.192  1.0481 -0.5916 -0.5937
  221MOL0     H29118   5.782  11.043   5.063  1.5765 -0.8741  1.4406
  221MOL0     H29119   5.588  11.211   5.035  0.4914 -0.1257  0.6542
  221MOL0     H29120   5.489  11.101   5.133 -0.4545  1.2640 -0.7098
  221MOL0     H29121   5.642  10.997   4.899  0.2013 -0.1225  2.1443
  221MOL0     H29122   5.492  10.941   4.949 -1.1040 -0.3701 -2.3379
  221MOL0     H29123   5.438  11.054   4.750  0.7139  0.7983 -0.8548
  221MOL0     H29124   5.529  11.196   4.807  0.7323 -1.2843 -1.7573
  221MOL0     H29125   5.177  11.014   4.917  1.7716 -0.4188 -0.3644
  221MOL0     H29126   4.989  11.090   5.059 -1.8850  0.0701  0.7383
  221MOL0     H29127   4.927  11.209   4.936  5.2170  2.1070 -3.9127
  221MOL0     H29128   5.011  11.376   5.122 -0.3516  0.0365 -0.6002
  221MOL0     H29129   4.997  11.239   5.223  0.1048  0.3519  0.8452
  221MOL0     H29130   4.803  11.415   5.223 -1.1631 -1.0195  1.2856
  221MOL0     H29131   4.760  11.330   5.066 -0.5067 -1.8794 -0.4934
  221MOL0     H29132   4.624  11.272   5.254 -0.3381 -1.4427 -0.7311
  221MOL0     H29133   4.759  11.202   5.348  3.1107  1.6071 -0.7436
  221MOL0     H29134   4.444  11.146   5.254  0.2522 -0.5681 -1.6016
  221MOL0     H29135   4.306  10.970   5.367 -0.1817 -1.4414 -0.6184
  221MOL0     H29136   4.449  10.334   5.350  0.1154  1.9275 -0.1923
  221MOL0     H29137   4.354  10.137   5.482  1.2540  0.1258  0.1946
  221MOL0     H29138   4.028  10.107   5.784  0.1021  0.9821 -2.1305
  221MOL0     H29139   4.100  10.253   5.833  2.1356  1.8982 -0.7724
  221MOL0     H29140   4.283  10.145   5.945 -0.9354  0.8900  0.1038
  221MOL0     H29141   4.242   9.986   5.899 -0.0101  0.6055 -2.0531
  221MOL0     H29142   4.080  10.170   6.074  0.8922 -0.1196  1.1742
  221MOL0     H29143   4.184  10.044   6.137 -0.3951 -1.2455  0.6688
  221MOL0     H29144   3.920  10.015   5.989  0.1731 -1.2075 -0.6069
  221MOL0     H29145   4.025   9.882   6.026 -0.0989 -0.0389  1.4187
  221MOL0     H29146   3.947  10.049   6.265 -2.6181 -0.1078  0.3975
  221MOL0     H29147   4.009   9.886   6.257  1.3082  3.0409  3.1041
  221MOL0     H29148   3.783   9.859   6.307  0.4777  2.1254  0.9980
  221MOL0     H29149   3.800   9.808   6.150 -0.1507 -1.0119  2.4411
  221MOL0     H29150   3.720  10.089   6.232 -1.3083  0.4132  0.1004
  221MOL0     H29151   3.733  10.027   6.068 -1.2174  0.3971 -0.0403
  221MOL0     H29152   3.544   9.922   6.298 -0.7045 -1.6487 -0.3988
  221MOL0     H29153   3.535   9.874   6.130  2.8658  0.2264 -0.2530
  221MOL0     H29154   4.154  10.422   5.738 -1.5723 -0.4284 -1.3552
  221MOL0     H29155   4.284  10.596   5.633  2.0060  0.8190 -1.2281
  221MOL0     H29156   4.627  10.678   5.310  3.4104  0.9111  0.4849
  221MOL0     H29157   4.769  10.871   5.223  0.3778 -1.2946  2.7882
  221MOL0     H29158   6.326  11.158   5.358 -1.5985  1.1183  0.0285
  221MOL0     H29159   6.559  11.223   5.452 -0.1216  3.3469  0.4232
  221MOL0     H29160   6.972  11.333   5.579  1.7792 -1.0048 -0.1060
  221MOL0     H29161   7.160  11.449   5.714 -0.2894  2.4041  1.5593
  221MOL0     H29162   7.150  11.696   6.077  2.7378  4.9660 -1.0642
  221MOL0     H29163   6.999  11.692   5.979  1.1663  2.0429 -0.6293
  221MOL0     H29164   7.180  11.875   5.944  3.2155 -0.4605  0.6427
  221MOL0     H29165   7.280  11.744   5.889 -1.2730 -1.5993 -1.3715
  221MOL0     H29166   7.000  11.834   5.789 -1.1231 -1.8662  0.2534
  221MOL0     H29167   7.075  11.694   5.726  0.1156 -1.1495  2.2941
  221MOL0     H29168   7.250  11.819   5.614  0.3643  1.0016  2.5833
  221MOL0     H29169   7.103  11.925   5.583 -0.5608  1.1593 -0.3528
  221MOL0     H29170   7.343  12.189   5.794 -0.8754  0.2061  0.0714
  221MOL0     H29171   6.918  11.481   6.046  3.3495  1.1536 -0.7838
  221MOL0     H29172   6.722  11.349   5.939  0.0480  0.5596 -0.3420
  222MOL0     O29173   7.867   4.774   4.651 -0.1890 -0.2238  0.4308
  222MOL0     C29174   7.901   4.761   4.769 -0.5984  0.8460  0.2264
  222MOL0     O29175   7.810   4.777   4.864 -0.2125  0.1686  0.1957
  222MOL0     C29176   7.679   4.792   4.827  0.3819  0.2560 -0.4192
  222MOL0     C29177   7.609   4.699   4.752 -0.1623  0.4863 -0.4999
  222MOL0     C29178   7.482   4.731   4.702 -0.3551  0.5660  0.3716
  222MOL0     C29179   7.415   4.848   4.743 -0.0540 -2.1543  0.7249
  222MOL0     O29180   7.295   4.891   4.688  0.2292 -0.0168 -0.1678
  222MOL0     C29181   7.210   4.784   4.649 -0.2698  0.3031  0.0722
  222MOL0     C29182   7.060   4.817   4.676  0.2395  0.2094 -0.4623
  222MOL0     C29183   7.007   4.910   4.562 -0.5710  0.4732 -0.6039
  222MOL0     C29184   6.854   4.932   4.581 -0.0879 -0.3745  0.2279
  222MOL0     C29185   6.817   5.041   4.481  1.8981  1.0296  0.5978
  222MOL0     C29186   6.665   5.041   4.455  1.0298  0.1607  0.8735
  222MOL0     C29187   6.597   5.086   4.580 -0.1539 -0.2627  1.0892
  222MOL0     C29188   6.446   5.112   4.548 -0.4152 -1.5429 -0.5522
  222MOL0     N29189   6.396   5.219   4.641  0.0322 -0.5347 -0.1284
  222MOL0     C29190   6.338   5.193   4.753  0.0576  0.0553  0.1709
  222MOL0     C29191   6.281   5.307   4.787  1.5493 -0.2051 -0.6819
  222MOL0     C29192   6.179   5.329   4.902 -1.0500  0.3126  0.2554
  222MOL0     C29193   6.042   5.348   4.848 -0.2128  0.6234  0.8262
  222MOL0     C29194   5.986   5.214   4.788  0.6552 -0.0236  0.2397
  222MOL0     C29195   5.836   5.232   4.767 -0.2465 -0.1908 -0.3388
  222MOL0     O29196   5.768   5.248   4.903 -0.2459  0.3255 -0.2329
  222MOL0     C29197   5.639   5.218   4.923 -0.2216  0.1894 -0.7942
  222MOL0     C29198   5.593   5.226   5.057  0.1270 -0.0992  0.4139
  222MOL0     C29199   5.458   5.212   5.099  0.1035 -1.2794  0.2780
  222MOL0     C29200   5.365   5.169   5.001 -0.3618 -0.2340  0.4631
  222MOL0     C29201   5.213   5.159   5.031 -1.2364 -0.4222  0.6802
  222MOL0     O29202   5.176   5.241   5.131 -0.0387 -0.0277  0.2774
  222MOL0     C29203   5.039   5.243   5.168  0.0133 -0.4835 -0.5641
  222MOL0     C29204   4.949   5.353   5.146  0.0165  0.1772 -0.8309
  222MOL0     C29205   4.828   5.355   5.218 -1.0565  0.1126  0.1055
  222MOL0     C29206   4.779   5.261   5.304  0.1570  1.0976  0.5464
  222MOL0     O29207   4.671   5.268   5.389 -0.9030 -0.0531 -0.0611
  222MOL0     C29208   4.611   5.397   5.426 -0.7270  0.0789  0.5525
  222MOL0     C29209   4.475   5.369   5.491 -0.2240  0.3520  0.0770
  222MOL0     C29210   4.378   5.292   5.404 -0.2500 -0.5513 -0.2023
  222MOL0     C29211   4.239   5.299   5.447  0.4862 -0.2364 -0.6468
  222MOL0     C29212   4.154   5.171   5.422 -0.1572 -0.0260 -0.2543
  222MOL0     C29213   4.028   5.175   5.517  0.0478 -0.1782 -0.5523
  222MOL0     C29214   3.949   5.050   5.521  0.0519  0.2870  0.2883
  222MOL0     C29215   3.891   5.003   5.382 -0.5564 -0.1441  0.4969
  222MOL0    Cl29216   3.749   5.106   5.340 -0.4621  0.7407 -0.2513
  222MOL0     C29217   4.854   5.148   5.316  0.5980 -0.3523 -0.5297
  222MOL0     C29218   4.984   5.145   5.262 -0.0415  0.7063  0.2408
  222MOL0     O29219   5.141   5.087   4.964 -0.5782  1.1624  0.1988
  222MOL0     C29220   5.412   5.159   4.866 -0.3343  0.4745  0.7039
  222MOL0     C29221   5.544   5.173   4.823  0.0383  0.1129 -0.5857
  222MOL0     N29222   6.316   5.402   4.700 -0.4119 -1.0446  0.0097
  222MOL0     N29223   6.390   5.347   4.606  0.4398 -0.2423 -0.7415
  222MOL0     C29224   7.485   4.945   4.816 -0.1827  0.5468 -0.7444
  222MOL0     C29225   7.619   4.917   4.853  0.1776  0.2861  0.8800
  222MOL0     C29226   8.046   4.736   4.800 -0.4152  0.4437  0.2516
  222MOL0     C29227   8.133   4.725   4.695  0.3225 -0.3747 -0.5196
  222MOL0     C29228   8.263   4.692   4.727 -0.3027 -1.1536 -0.1026
  222MOL0     C29229   8.307   4.665   4.850 -0.7820 -0.1347 -0.6646
  222MOL0     O29230   8.448   4.634   4.860 -0.2475 -0.4693  0.2043
  222MOL0     C29231   8.490   4.578   4.987 -1.0180 -0.3593  0.4155
  222MOL0     C29232   8.649   4.576   4.982  1.0183 -1.1691 -0.6628
  222MOL0     C29233   8.715   4.525   5.105  0.3273  0.8366  0.3399
  222MOL0     C29234   8.853   4.480   5.063 -0.2718 -0.7184  0.5861
  222MOL0     C29235   8.938   4.512   5.183  0.4177  0.2039  0.5905
  222MOL0     C29236   8.988   4.554   5.281 -0.3634 -0.8551 -0.4681
  222MOL0     C29237   8.222   4.671   4.957  0.6267 -0.5876 -0.1391
  222MOL0     C29238   8.084   4.704   4.929 -1.3299  0.0234 -0.2057
  222MOL0     H29239   7.662   4.608   4.728  1.4843  1.1718  0.4280
  222MOL0     H29240   7.431   4.664   4.632  0.3592  1.0050 -0.5942
  222MOL0     H29241   7.224   4.698   4.715 -0.5252 -0.4665 -0.8524
  222MOL0     H29242   7.230   4.753   4.546 -0.3364 -0.7789  0.3734
  222MOL0     H29243   7.059   4.877   4.767 -0.0338 -0.9052  0.2838
  222MOL0     H29244   7.005   4.723   4.673  0.5607 -0.0323  0.8851
  222MOL0     H29245   7.042   4.881   4.463  3.4261 -4.3776  1.7627
  222MOL0     H29246   7.053   5.009   4.577  1.2748 -0.6177  1.7037
  222MOL0     H29247   6.808   4.835   4.560 -1.3160  0.0767  0.7348
  222MOL0     H29248   6.838   4.961   4.685 -1.2286  0.1981 -0.0979
  222MOL0     H29249   6.863   5.035   4.382 -1.3116 -0.7382 -0.9435
  222MOL0     H29250   6.835   5.139   4.525  0.7250  1.4443  0.2121
  222MOL0     H29251   6.637   4.943   4.415  1.7808 -0.2132  1.2265
  222MOL0     H29252   6.659   5.119   4.379  2.1165 -0.9882 -0.4501
  222MOL0     H29253   6.608   5.007   4.655  0.9534 -0.4760  0.7138
  222MOL0     H29254   6.642   5.177   4.619 -0.2349 -1.7583  5.1428
  222MOL0     H29255   6.390   5.020   4.563 -3.4832  0.5799  2.1534
  222MOL0     H29256   6.438   5.154   4.447 -0.8435  0.4960  0.2656
  222MOL0     H29257   6.328   5.095   4.799  3.8086 -0.5557 -0.0639
  222MOL0     H29258   6.199   5.414   4.969 -0.0715  0.1055  0.2422
  222MOL0     H29259   6.188   5.238   4.962  0.1407 -0.6785 -1.3730
  222MOL0     H29260   6.041   5.435   4.782 -0.3860  1.3985  1.8405
  222MOL0     H29261   5.975   5.367   4.932 -0.5701 -0.7832  0.8962
  222MOL0     H29262   6.037   5.183   4.696  0.2467 -4.8952  1.3460
  222MOL0     H29263   5.993   5.121   4.846 -1.3879 -1.1989 -1.2275
  222MOL0     H29264   5.799   5.144   4.714  0.5242 -1.1897  0.7329
  222MOL0     H29265   5.811   5.325   4.713 -0.1649 -0.5084 -0.9370
  222MOL0     H29266   5.654   5.267   5.136 -2.0819  3.4376  0.4784
  222MOL0     H29267   5.427   5.246   5.198 -0.3956 -0.3392 -0.1871
  222MOL0     H29268   4.981   5.442   5.092  0.9814 -0.3542 -1.1540
  222MOL0     H29269   4.770   5.444   5.197 -0.4975  0.4936  0.1519
  222MOL0     H29270   4.595   5.459   5.337 -3.4244 -1.2900 -0.0105
  222MOL0     H29271   4.677   5.449   5.496  1.2051 -2.2572  0.5761
  222MOL0     H29272   4.438   5.470   5.507  1.0731  1.0614 -1.1769
  222MOL0     H29273   4.485   5.315   5.586 -2.0076 -2.1647 -1.0586
  222MOL0     H29274   4.415   5.189   5.402 -1.4556 -0.9898 -0.6819
  222MOL0     H29275   4.371   5.326   5.300  0.6852 -3.8065 -1.4408
  222MOL0     H29276   4.224   5.344   5.546 -0.4211  2.6006 -1.9735
  222MOL0     H29277   4.188   5.372   5.384 -0.6678 -0.0755  0.4398
  222MOL0     H29278   4.220   5.088   5.448  0.7740  0.9647  0.6169
  222MOL0     H29279   4.132   5.164   5.315 -2.4217  1.5226  0.0304
  222MOL0     H29280   3.961   5.256   5.487 -0.5044 -0.2806  0.3607
  222MOL0     H29281   4.060   5.194   5.620 -1.7478 -0.7082  0.1268
  222MOL0     H29282   4.017   4.970   5.550 -2.7896 -1.6606  2.0922
  222MOL0     H29283   3.868   5.051   5.594  0.7173  2.2687  1.0563
  222MOL0     H29284   3.856   4.900   5.392 -4.2124  0.8889 -0.4392
  222MOL0     H29285   3.974   5.013   5.311  0.3038  1.0844  1.6139
  222MOL0     H29286   4.808   5.060   5.360 -3.0423  1.3284 -0.5910
  222MOL0     H29287   5.044   5.062   5.296  1.1734  1.0334 -1.0190
  222MOL0     H29288   5.347   5.132   4.784  2.0986 -2.1064 -0.5654
  222MOL0     H29289   5.573   5.163   4.719 -0.8628  1.6301 -1.0136
  222MOL0     H29290   7.453   5.047   4.832 -1.4605  0.0910 -0.2400
  222MOL0     H29291   7.694   4.978   4.900  3.2097 -0.7925 -2.1229
  222MOL0     H29292   8.107   4.756   4.595  1.4550  1.7785 -0.2071
  222MOL0     H29293   8.331   4.685   4.643 -0.2042 -1.3873 -0.0053
  222MOL0     H29294   8.442   4.480   5.000 -1.7153 -0.1216 -0.3191
  222MOL0     H29295   8.453   4.652   5.059 -0.2889  0.8270 -0.4083
  222MOL0     H29296   8.682   4.516   4.896  1.9436 -2.2317  0.3965
  222MOL0     H29297   8.686   4.675   4.956 -2.5905  0.1842 -1.2077
  222MOL0     H29298   8.675   4.430   5.141  2.2199 -2.1197 -4.2828
  222MOL0     H29299   8.711   4.596   5.188 -1.8597  1.5327 -0.3049
  222MOL0     H29300   8.850   4.373   5.041  1.2806 -0.6863  0.1457
  222MOL0     H29301   8.893   4.534   4.976  1.6165 -0.3469  1.6347
  222MOL0     H29302   9.044   4.600   5.360  2.6749 -0.2955 -2.7960
  222MOL0     H29303   8.240   4.642   5.060  1.1135 -4.3917 -1.1381
  222MOL0     H29304   8.018   4.717   5.015 -0.3394  0.9481  0.4408
  223MOL0     O29305   6.212   6.301   5.514  0.2665  0.6615 -0.5454
  223MOL0     C29306   6.248   6.297   5.396 -0.6313 -0.0879 -1.0258
  223MOL0     O29307   6.171   6.300   5.287 -0.4910  0.1602 -0.7415
  223MOL0     C29308   6.032   6.314   5.301 -0.6910  0.5508  0.2258
  223MOL0     C29309   5.960   6.392   5.394  0.7165 -0.3566  0.0625
  223MOL0     C29310   5.812   6.360   5.404  0.9193  0.2048  0.1345
  223MOL0     C29311   5.745   6.278   5.305 -0.6482  0.1150 -0.5878
  223MOL0     O29312   5.618   6.238   5.321 -0.5024 -0.6055  0.3742
  223MOL0     C29313   5.538   6.331   5.402 -0.2577 -0.6857 -0.2656
  223MOL0     C29314   5.398   6.286   5.389 -0.8797  0.2470  0.2905
  223MOL0     C29315   5.360   6.153   5.451  0.2933  0.3271  0.4303
  223MOL0     C29316   5.239   6.159   5.536 -0.1431  0.4888  0.8328
  223MOL0     C29317   5.199   6.022   5.592 -0.2571 -0.4352 -0.6576
  223MOL0     C29318   5.062   6.000   5.649 -0.2713  0.3394 -0.0702
  223MOL0     C29319   5.009   6.093   5.766 -0.3815 -0.9357 -0.3076
  223MOL0     C29320   4.905   6.013   5.848  0.0400  0.1596 -0.9214
  223MOL0     N29321   4.754   6.029   5.841 -0.0929 -0.0511  0.5852
  223MOL0     C29322   4.661   5.962   5.924  0.0431 -0.7296 -1.1145
  223MOL0     C29323   4.538   6.008   5.887  0.2414 -0.0323 -0.3382
  223MOL0     C29324   4.408   5.967   5.954  0.9811  0.4125  0.8524
  223MOL0     C29325   4.305   6.075   5.966  0.6938  0.6291  0.0706
  223MOL0     C29326   4.185   6.021   6.037 -0.6669  0.3215 -0.0972
  223MOL0     C29327   4.062   6.115   6.015  0.9754  0.5819  0.5306
  223MOL0     O29328   3.990   6.135   6.139 -0.1403  0.7624 -0.4415
  223MOL0     C29329   3.879   6.051   6.142 -0.0746  1.0175 -0.4836
  223MOL0     C29330   3.884   5.913   6.143  0.1260  0.3445 -0.5811
  223MOL0     C29331   3.779   5.824   6.135 -0.1737  1.0111 -0.4721
  223MOL0     C29332   3.648   5.876   6.132  0.8180 -0.7581  0.3768
  223MOL0     C29333   3.538   5.783   6.123 -0.3191  0.4836  0.3287
  223MOL0     O29334   3.414   5.842   6.093 -0.6241 -0.1159 -0.2417
  223MOL0     C29335   3.311   5.758   6.094 -1.1774 -0.8116 -0.6269
  223MOL0     C29336   3.237   5.740   6.204 -0.5829  0.0384 -0.2782
  223MOL0     C29337   3.136   5.637   6.213  0.1126 -0.3109  0.2198
  223MOL0     C29338   3.125   5.541   6.109 -0.8814  0.3533  0.4108
  223MOL0     O29339   3.033   5.445   6.133 -0.4531  0.0877 -0.4769
  223MOL0     C29340   3.018   5.329   6.046  0.4638  0.3898  0.5123
  223MOL0     C29341   2.917   5.235   6.102 -0.3388 -0.1715 -0.6361
  223MOL0     C29342   2.931   5.089   6.049 -0.0315 -1.1138 -0.1867
  223MOL0     C29343   2.930   5.087   5.900 -1.3051  1.5393 -0.3231
  223MOL0     C29344   2.934   4.941   5.839  0.3680  0.1142 -0.4549
  223MOL0     C29345   2.958   4.958   5.689 -0.2460 -0.3301  0.7359
  223MOL0     C29346   2.954   4.825   5.611  0.7132 -0.3091 -0.1912
  223MOL0     C29347   2.815   4.767   5.593  0.9509  1.0255 -1.0415
  223MOL0    Cl29348   2.693   4.878   5.518 -0.1426  0.0282  0.2412
  223MOL0     C29349   3.187   5.573   5.987 -0.8658  0.3898 -0.4555
  223MOL0     C29350   3.274   5.683   5.978 -0.3858  0.4997  0.6922
  223MOL0     O29351   3.561   5.657   6.142  0.0605 -0.4290  0.6163
  223MOL0     C29352   3.639   6.015   6.137  0.2989 -0.5096  0.1624
  223MOL0     C29353   3.754   6.102   6.137  0.6687  0.2478 -0.3192
  223MOL0     N29354   4.565   6.101   5.785 -0.0440 -0.9304  0.2007
  223MOL0     N29355   4.689   6.116   5.760  0.4409  0.2322 -0.1255
  223MOL0     C29356   5.820   6.208   5.211 -0.7851  0.2477 -0.5543
  223MOL0     C29357   5.960   6.219   5.219  0.0248 -0.2930  0.0531
  223MOL0     C29358   6.391   6.296   5.361  0.4450 -0.1907 -0.8843
  223MOL0     C29359   6.439   6.350   5.241 -0.6457 -0.5759  0.0769
  223MOL0     C29360   6.566   6.328   5.197 -0.9565 -0.0865  0.0348
  223MOL0     C29361   6.648   6.242   5.271 -0.6341 -0.0898  0.3856
  223MOL0     O29362   6.765   6.186   5.227  0.2736  1.0642 -0.6056
  223MOL0     C29363   6.797   6.200   5.081  0.2879  0.5658 -0.3600
  223MOL0     C29364   6.857   6.345   5.061 -0.4408 -0.0892  0.2952
  223MOL0     C29365   7.007   6.355   5.085 -0.0818  0.2299 -0.3339
  223MOL0     C29366   7.100   6.266   4.995  0.1294 -0.4042 -0.1458
  223MOL0     C29367   7.094   6.299   4.855 -0.1301  0.6437 -0.3644
  223MOL0     C29368   7.102   6.328   4.741  0.2391  0.1929  0.2981
  223MOL0     C29369   6.607   6.195   5.397  0.3767 -0.2765  0.7841
  223MOL0     C29370   6.479   6.221   5.436  0.1485  0.8208 -0.0273
  223MOL0     H29371   6.001   6.464   5.463 -0.8439  2.8888 -2.1351
  223MOL0     H29372   5.754   6.390   5.490  0.3945 -1.2446  0.3266
  223MOL0     H29373   5.548   6.433   5.365 -0.5395 -0.4572  0.2785
  223MOL0     H29374   5.556   6.325   5.510 -2.2513 -1.5193  0.0673
  223MOL0     H29375   5.381   6.283   5.281  0.7932  2.4642 -0.1308
  223MOL0     H29376   5.322   6.361   5.414 -2.4060 -1.2893  0.3870
  223MOL0     H29377   5.444   6.127   5.515  0.6160 -2.1810 -0.9091
  223MOL0     H29378   5.357   6.088   5.364 -1.7987  1.1697 -0.1931
  223MOL0     H29379   5.250   6.228   5.620 -2.1702  1.1127  0.6343
  223MOL0     H29380   5.164   6.195   5.464  0.3935  1.1727  0.5985
  223MOL0     H29381   5.262   6.003   5.679 -1.3560  2.2196  0.8048
  223MOL0     H29382   5.216   5.943   5.518 -1.1094 -0.6516 -0.6295
  223MOL0     H29383   5.050   5.894   5.669  0.5924  0.4055  0.8736
  223MOL0     H29384   5.006   6.026   5.559  2.9560 -4.0550 -3.8034
  223MOL0     H29385   5.097   6.108   5.829  0.5233  1.8469 -2.0550
  223MOL0     H29386   4.959   6.187   5.740  2.4981  0.1739 -2.2205
  223MOL0     H29387   4.932   6.059   5.943  1.2345  0.7628 -1.5322
  223MOL0     H29388   4.928   5.906   5.851  0.2253  0.0719 -3.2820
  223MOL0     H29389   4.684   5.881   5.993  0.5253  0.0385 -0.3533
  223MOL0     H29390   4.425   5.921   6.052  0.3087 -0.2771  0.6591
  223MOL0     H29391   4.378   5.887   5.886  3.3159  3.8267 -4.9087
  223MOL0     H29392   4.272   6.107   5.867  1.7283 -0.4406 -0.6540
  223MOL0     H29393   4.342   6.161   6.023  0.0458  0.9133  0.0637
  223MOL0     H29394   4.169   5.920   5.997 -0.8901  0.8509 -1.4249
  223MOL0     H29395   4.199   6.008   6.144 -1.3194 -3.2691 -0.3228
  223MOL0     H29396   4.006   6.065   5.936  0.3985  1.0085  0.6644
  223MOL0     H29397   4.086   6.214   5.975 -1.3606  0.9258 -0.1219
  223MOL0     H29398   3.980   5.863   6.144  1.5354  2.7990 -2.8754
  223MOL0     H29399   3.804   5.718   6.142  0.4971  1.1311 -0.9711
  223MOL0     H29400   3.272   5.790   6.294 -0.9340 -0.6649  0.2654
  223MOL0     H29401   3.076   5.630   6.303 -1.3517  0.8694 -0.6163
  223MOL0     H29402   3.117   5.283   6.043  1.6177  2.6001  2.0184
  223MOL0     H29403   2.980   5.364   5.950 -1.5642 -1.2872  0.6477
  223MOL0     H29404   2.822   5.281   6.073 -0.2316 -0.5980 -1.6977
  223MOL0     H29405   2.932   5.226   6.210  0.2953 -0.1876 -0.7217
  223MOL0     H29406   2.846   5.037   6.092 -0.2311 -0.0482  0.7644
  223MOL0     H29407   3.027   5.042   6.069  1.8719  2.1544 -0.8634
  223MOL0     H29408   2.846   5.146   5.862  0.3746  3.3698 -1.3647
  223MOL0     H29409   3.019   5.133   5.857 -0.0657 -1.3307 -1.0881
  223MOL0     H29410   2.838   4.890   5.846  1.2068 -1.7084 -1.4519
  223MOL0     H29411   3.011   4.879   5.885 -1.0445 -0.0698  1.8118
  223MOL0     H29412   3.054   5.005   5.668  1.0071 -3.1052 -0.3623
  223MOL0     H29413   2.879   5.022   5.650 -3.0606 -3.6356  0.4557
  223MOL0     H29414   2.995   4.849   5.512 -1.6553 -0.3918 -1.2433
  223MOL0     H29415   3.011   4.749   5.665  0.4333  1.0455  2.1211
  223MOL0     H29416   2.762   4.743   5.686 -0.9093  2.4710 -1.6766
  223MOL0     H29417   2.815   4.679   5.528 -2.3311 -0.9965  1.3959
  223MOL0     H29418   3.193   5.498   5.908 -1.5317  1.4423 -1.5483
  223MOL0     H29419   3.333   5.696   5.888 -1.9441 -1.8830 -0.7610
  223MOL0     H29420   3.539   6.056   6.132 -0.8495 -3.0432  0.9701
  223MOL0     H29421   3.744   6.209   6.130 -0.2161  0.1798 -0.2981
  223MOL0     H29422   5.769   6.133   5.152 -0.5778 -1.0321  0.8357
  223MOL0     H29423   6.007   6.144   5.156  3.0679 -0.0966  1.8847
  223MOL0     H29424   6.383   6.426   5.186  0.7166  0.1467 -0.3424
  223MOL0     H29425   6.599   6.367   5.102  0.9638 -1.7632 -0.0504
  223MOL0     H29426   6.704   6.194   5.023  0.8944  2.0314 -1.5477
  223MOL0     H29427   6.859   6.119   5.044 -0.0405  1.6616 -3.7317
  223MOL0     H29428   6.838   6.380   4.959  1.2526  2.9671  0.8996
  223MOL0     H29429   6.795   6.415   5.117 -0.3938 -0.0332  0.2781
  223MOL0     H29430   7.023   6.325   5.189  3.2009  0.0432 -0.7853
  223MOL0     H29431   7.025   6.463   5.075 -1.7589  0.6154  0.5346
  223MOL0     H29432   7.203   6.287   5.025  1.4066  0.2609 -4.3934
  223MOL0     H29433   7.084   6.158   5.001  0.0765 -0.7099 -3.6131
  223MOL0     H29434   7.112   6.362   4.640 -1.1493  0.8103  0.3539
  223MOL0     H29435   6.673   6.135   5.459 -0.4027 -3.2465 -1.0722
  223MOL0     H29436   6.451   6.173   5.529  0.3617 -2.0564 -1.3499
  224MOL0     O29437   2.183   5.576   0.709  0.5926 -0.0699 -0.0247
  224MOL0     C29438   2.147   5.569   0.830 -0.4640  0.1821  0.2780
  224MOL0     O29439   2.222   5.502   0.930 -0.7584 -0.3162 -0.5377
  224MOL0     C29440   2.350   5.467   0.884 -0.7947  0.4607  0.1423
  224MOL0     C29441   2.386   5.346   0.815  0.3747 -0.1307 -0.4368
  224MOL0     C29442   2.510   5.333   0.759 -0.4750  0.6971 -0.0289
  224MOL0     C29443   2.610   5.433   0.778 -0.3483  0.2864 -0.2053
  224MOL0     O29444   2.737   5.399   0.732 -0.3601 -0.7039 -0.3738
  224MOL0     C29445   2.844   5.474   0.773 -1.4209  0.3013 -0.3323
  224MOL0     C29446   2.978   5.397   0.761 -0.2993  0.4236 -0.8627
  224MOL0     C29447   3.091   5.497   0.794  0.7661 -0.2718 -0.0684
  224MOL0     C29448   3.231   5.434   0.815 -0.2453  0.2572  0.6518
  224MOL0     C29449   3.242   5.335   0.934  0.1692 -0.3471  0.0553
  224MOL0     C29450   3.377   5.271   0.950  0.1695  0.0292 -0.1169
  224MOL0     C29451   3.388   5.174   1.067 -0.3320 -0.1166 -0.2882
  224MOL0     C29452   3.390   5.243   1.209  0.5116 -0.1482  0.4326
  224MOL0     N29453   3.262   5.254   1.283  1.3394 -0.1268  0.6383
  224MOL0     C29454   3.157   5.166   1.304  0.0076 -0.9078  1.2893
  224MOL0     C29455   3.051   5.249   1.355  0.4645 -0.0007 -0.4117
  224MOL0     C29456   2.917   5.207   1.395  0.0969 -0.5436  0.1625
  224MOL0     C29457   2.829   5.140   1.291  0.1808 -0.2590 -0.6395
  224MOL0     C29458   2.775   5.229   1.185 -0.1226  0.3314 -0.1477
  224MOL0     C29459   2.749   5.163   1.045 -0.3242 -0.4747  0.1088
  224MOL0     O29460   2.671   5.042   1.052  0.6374  0.2680  0.9557
  224MOL0     C29461   2.540   5.058   1.100  0.1278 -0.3190 -0.8926
  224MOL0     C29462   2.460   5.171   1.080  0.1970  0.6015 -0.7281
  224MOL0     C29463   2.324   5.179   1.114 -0.0586  0.4959  0.7747
  224MOL0     C29464   2.253   5.070   1.169 -0.6630 -1.7657  0.0864
  224MOL0     C29465   2.109   5.081   1.191  0.2100 -1.2537 -0.4736
  224MOL0     O29466   2.035   4.964   1.181 -0.2271  0.5003 -0.7015
  224MOL0     C29467   1.898   4.973   1.189 -0.1193  0.5059 -0.9376
  224MOL0     C29468   1.823   4.980   1.071 -0.1121 -0.4753 -0.9593
  224MOL0     C29469   1.677   4.975   1.070 -0.7055 -0.2002  0.9759
  224MOL0     C29470   1.615   4.977   1.192  1.1390 -1.1301  0.4365
  224MOL0     O29471   1.484   4.994   1.217  0.0767 -0.3175 -0.4698
  224MOL0     C29472   1.384   4.932   1.142  0.3557 -0.0261  1.0402
  224MOL0     C29473   1.252   4.930   1.220  0.3239 -0.6871  0.8082
  224MOL0     C29474   1.141   4.868   1.140  0.3469  0.1564 -1.0779
  224MOL0     C29475   1.009   4.865   1.224 -0.2430 -0.2827  0.1143
  224MOL0     C29476   0.912   4.756   1.165  0.2288 -0.2451  0.7409
  224MOL0     C29477   0.765   4.794   1.206 -0.8822  0.1635 -0.4713
  224MOL0     C29478   0.662   4.687   1.182  0.3788  0.8732  1.4933
  224MOL0     C29479   0.525   4.741   1.138 -0.0753  0.6598  0.1339
  224MOL0    Cl29480   0.532   4.821   0.978 -0.2977  0.7252  0.5907
  224MOL0     C29481   1.685   4.994   1.312 -0.4451 -0.2620 -0.4850
  224MOL0     C29482   1.828   4.981   1.312 -0.4561  0.1760  0.3130
  224MOL0     O29483   2.064   5.189   1.225 -0.4069  0.8600 -0.2650
  224MOL0     C29484   2.338   4.952   1.186  0.5688  0.0652  0.1848
  224MOL0     C29485   2.471   4.944   1.154 -0.7227 -0.0547  0.2709
  224MOL0     N29486   3.091   5.378   1.359 -0.8508  1.0597  0.0977
  224MOL0     N29487   3.215   5.383   1.317 -0.1742  0.4590  0.0589
  224MOL0     C29488   2.568   5.558   0.825  0.4041 -0.1332 -0.0921
  224MOL0     C29489   2.444   5.568   0.882  0.8898  0.0203  0.1735
  224MOL0     C29490   2.006   5.597   0.871 -0.7167  0.1394  0.0957
  224MOL0     C29491   1.955   5.558   0.997 -0.2453 -0.1888 -0.1554
  224MOL0     C29492   1.822   5.589   1.021 -0.1582 -0.3855  0.5277
  224MOL0     C29493   1.745   5.662   0.934  0.4968  0.3825 -0.8015
  224MOL0     O29494   1.627   5.705   0.989 -0.4068  0.2028 -0.2879
  224MOL0     C29495   1.514   5.637   0.917 -0.6141 -0.1834 -0.1493
  224MOL0     C29496   1.385   5.704   0.976 -0.1688 -0.1640  0.0611
  224MOL0     C29497   1.254   5.659   0.918 -0.1606 -0.2894  0.3897
  224MOL0     C29498   1.147   5.672   1.025 -0.0560  0.0333 -0.2766
  224MOL0     C29499   1.017   5.649   0.961 -0.1128 -0.6890 -0.0658
  224MOL0     C29500   0.910   5.631   0.913  0.9067 -0.6094 -0.2870
  224MOL0     C29501   1.790   5.692   0.807  0.0455 -0.1386 -0.0825
  224MOL0     C29502   1.924   5.664   0.778  0.3362 -0.6513  0.0394
  224MOL0     H29503   2.318   5.265   0.790 -0.5673  0.6831 -0.5967
  224MOL0     H29504   2.531   5.241   0.706 -0.9390  1.6505 -1.9561
  224MOL0     H29505   2.835   5.520   0.872 -1.1153  0.4613 -0.3755
  224MOL0     H29506   2.865   5.553   0.700  2.0318  0.4581  0.6420
  224MOL0     H29507   2.989   5.351   0.662  1.9845  1.4962 -1.1663
  224MOL0     H29508   2.981   5.313   0.831 -0.4589  0.2997 -1.0049
  224MOL0     H29509   3.064   5.549   0.887 -0.1095 -0.2206 -0.3482
  224MOL0     H29510   3.097   5.573   0.716 -0.0812 -0.0472  0.0771
  224MOL0     H29511   3.263   5.383   0.724  1.8548  1.3648  0.7199
  224MOL0     H29512   3.308   5.510   0.829 -2.0278  2.4182 -0.6460
  224MOL0     H29513   3.153   5.272   0.940 -2.4399  3.1177  0.8187
  224MOL0     H29514   3.235   5.401   1.021  1.0462  0.0685 -0.1767
  224MOL0     H29515   3.450   5.352   0.956  1.2746 -0.9562  0.1855
  224MOL0     H29516   3.365   5.207   0.862 -3.6190 -0.4021  0.5121
  224MOL0     H29517   3.307   5.102   1.061 -1.0461  0.0711  3.8740
  224MOL0     H29518   3.489   5.132   1.072 -0.4109 -0.2538  0.1798
  224MOL0     H29519   3.439   5.341   1.206 -1.2743  0.8627  1.9418
  224MOL0     H29520   3.461   5.185   1.268  2.0749  0.0143 -1.2177
  224MOL0     H29521   3.146   5.062   1.273 -0.2867  0.2309 -3.0686
  224MOL0     H29522   2.860   5.290   1.437 -0.3091 -2.2025  3.2546
  224MOL0     H29523   2.922   5.136   1.478 -3.5294 -1.4516 -0.2213
  224MOL0     H29524   2.755   5.072   1.333 -1.2735  0.7132 -1.5161
  224MOL0     H29525   2.899   5.069   1.246  0.3728 -1.3889  1.3576
  224MOL0     H29526   2.681   5.270   1.221  0.3568  3.4404 -2.0061
  224MOL0     H29527   2.846   5.308   1.159 -0.5049  1.4565  2.0373
  224MOL0     H29528   2.839   5.135   0.989 -0.7444 -0.9190 -0.3632
  224MOL0     H29529   2.699   5.237   0.981 -2.2672 -0.1000  1.9703
  224MOL0     H29530   2.499   5.261   1.033  1.7646  0.6953  0.6407
  224MOL0     H29531   2.265   5.265   1.085  1.4146  1.9197  1.7902
  224MOL0     H29532   1.875   4.975   0.976  3.5591 -1.7449  0.9307
  224MOL0     H29533   1.611   4.975   0.984 -1.1763  2.6901  1.2318
  224MOL0     H29534   1.414   4.831   1.114 -2.3833 -0.5190 -0.5376
  224MOL0     H29535   1.368   4.993   1.052  1.5826  1.4274  1.7652
  224MOL0     H29536   1.219   5.030   1.250 -1.9386 -1.2909  0.5028
  224MOL0     H29537   1.263   4.862   1.305  0.7937 -3.3145 -1.2238
  224MOL0     H29538   1.161   4.764   1.113  2.3151 -1.3746  4.7245
  224MOL0     H29539   1.121   4.936   1.057 -0.7364 -0.1003 -1.0510
  224MOL0     H29540   1.019   4.859   1.332 -1.7896  2.3877  0.5037
  224MOL0     H29541   0.972   4.967   1.213  1.2054  0.3583  0.9869
  224MOL0     H29542   0.945   4.655   1.193  0.6082  0.3788  2.6236
  224MOL0     H29543   0.915   4.775   1.057 -1.4788  2.3571  1.0672
  224MOL0     H29544   0.744   4.893   1.166 -1.8710 -0.1956 -0.8861
  224MOL0     H29545   0.776   4.805   1.314 -0.3908  0.3045 -0.5349
  224MOL0     H29546   0.693   4.612   1.107  1.1548  0.3439  2.3195
  224MOL0     H29547   0.647   4.639   1.279 -3.2750  0.9103  1.0886
  224MOL0     H29548   0.508   4.800   1.228  2.6155 -0.7381  1.6825
  224MOL0     H29549   0.442   4.670   1.148  1.2690 -0.8076  1.4688
  224MOL0     H29550   1.637   5.016   1.406 -2.1910 -1.2514 -1.1017
  224MOL0     H29551   1.883   4.994   1.405 -2.3589 -0.3927  1.5708
  224MOL0     H29552   2.292   4.868   1.237 -1.0666 -0.6292 -2.1966
  224MOL0     H29553   2.523   4.852   1.178 -1.0093 -0.1112  0.7023
  224MOL0     H29554   2.622   5.652   0.839 -0.5891  0.2268  1.5257
  224MOL0     H29555   2.407   5.663   0.919 -5.2181 -1.8780  0.0115
  224MOL0     H29556   2.023   5.507   1.064  0.0490 -0.8935 -0.9832
  224MOL0     H29557   1.775   5.540   1.106 -2.1377 -1.6646 -1.1905
  224MOL0     H29558   1.512   5.530   0.939  1.2900  0.0047  1.0992
  224MOL0     H29559   1.514   5.660   0.809 -1.9661  0.4743 -0.0437
  224MOL0     H29560   1.385   5.693   1.085  0.6328  0.5951  0.1473
  224MOL0     H29561   1.407   5.810   0.960  0.4836 -0.2889  0.1093
  224MOL0     H29562   1.282   5.557   0.888 -1.4688 -0.1426 -1.5200
  224MOL0     H29563   1.238   5.705   0.820 -1.2851  0.2428  0.8089
  224MOL0     H29564   1.161   5.608   1.113  1.3439  1.8183  0.8912
  224MOL0     H29565   1.148   5.777   1.058 -2.3482  0.2894 -0.8475
  224MOL0     H29566   0.818   5.614   0.861  1.2501  0.4805 -1.2909
  224MOL0     H29567   1.735   5.755   0.738 -0.2462  1.4404  1.5185
  224MOL0     H29568   1.958   5.689   0.678  0.7671 -2.4360 -0.2878
  225MOL0     O29569   4.263   8.418   0.194 -1.0523 -0.2252 -0.0217
  225MOL0     C29570   4.182   8.392   0.104 -0.4194  0.8438  0.1424
  225MOL0     O29571   4.051   8.406   0.109 -0.1876  0.2271 -0.5390
  225MOL0     C29572   3.998   8.484   0.212 -1.1081 -0.0580  0.3850
  225MOL0     C29573   4.052   8.607   0.252  0.9354  0.5172  0.3314
  225MOL0     C29574   4.002   8.680   0.359  0.8229  0.2185 -0.3113
  225MOL0     C29575   3.897   8.624   0.432 -0.2645  0.3148  0.4925
  225MOL0     O29576   3.830   8.683   0.530 -0.0452 -0.3557 -0.8137
  225MOL0     C29577   3.903   8.757   0.620 -0.2546 -0.0740  0.2882
  225MOL0     C29578   3.843   8.788   0.760 -0.8756 -0.4390  0.0490
  225MOL0     C29579   3.711   8.873   0.740 -0.7731 -0.1251  0.4549
  225MOL0     C29580   3.642   8.897   0.868  0.5550  0.1794 -0.4954
  225MOL0     C29581   3.566   9.031   0.854 -0.6984 -0.2288  0.6917
  225MOL0     C29582   3.475   9.073   0.979  0.0960 -0.4165  0.1862
  225MOL0     C29583   3.345   8.987   0.974  0.5154 -0.3608 -0.4307
  225MOL0     C29584   3.217   9.064   1.017 -0.9485  0.2856  0.1244
  225MOL0     N29585   3.200   9.089   1.162  0.5703  0.3823  0.3866
  225MOL0     C29586   3.139   9.010   1.247 -0.6694 -0.9363  1.0292
  225MOL0     C29587   3.126   9.089   1.357  0.3389  0.0829  0.9943
  225MOL0     C29588   3.069   9.048   1.491  0.0057 -1.0876  0.5359
  225MOL0     C29589   2.916   9.041   1.479  0.2138  0.4857 -0.2563
  225MOL0     C29590   2.856   9.183   1.462 -0.5548  0.8651  0.1932
  225MOL0     C29591   2.708   9.176   1.497  0.2490 -0.7625 -0.2870
  225MOL0     O29592   2.635   9.291   1.450  0.8197  0.5561 -0.2730
  225MOL0     C29593   2.497   9.299   1.465  0.1095 -0.1246 -0.2230
  225MOL0     C29594   2.412   9.201   1.529  0.1359  0.4493  0.7941
  225MOL0     C29595   2.279   9.219   1.536  0.2325 -0.1983  0.0043
  225MOL0     C29596   2.220   9.343   1.507 -0.6019  0.5397 -0.6528
  225MOL0     C29597   2.074   9.363   1.510 -0.4804 -0.6152  1.0137
  225MOL0     O29598   2.006   9.251   1.557  0.2309  0.1492 -0.5945
  225MOL0     C29599   1.871   9.234   1.523  0.8626 -0.7580 -0.1291
  225MOL0     C29600   1.810   9.120   1.590 -0.4688  0.3071 -0.5324
  225MOL0     C29601   1.680   9.079   1.565  0.7745  1.0547  0.5792
  225MOL0     C29602   1.609   9.145   1.459 -0.0781  0.5903 -0.1024
  225MOL0     O29603   1.489   9.093   1.427  0.7371 -0.1744  0.1663
  225MOL0     C29604   1.387   9.188   1.435 -0.8209  0.2837 -0.3307
  225MOL0     C29605   1.248   9.122   1.442  0.4783 -1.2957 -0.2624
  225MOL0     C29606   1.236   9.018   1.544  0.6167  0.0354  0.1445
  225MOL0     C29607   1.092   8.978   1.564 -0.8160 -1.1263 -0.0164
  225MOL0     C29608   1.069   8.858   1.656 -0.3988 -0.7545 -0.9414
  225MOL0     C29609   0.923   8.843   1.680  0.6924  0.3576  0.4312
  225MOL0     C29610   0.894   8.720   1.768  0.1678  0.5113  0.2564
  225MOL0     C29611   0.815   8.601   1.699 -0.5731 -0.7880  0.0925
  225MOL0    Cl29612   0.907   8.522   1.581  0.3251 -0.1529 -0.9894
  225MOL0     C29613   1.663   9.260   1.389  0.2968  1.5422 -0.7706
  225MOL0     C29614   1.789   9.308   1.427 -0.2150 -0.7239  0.8272
  225MOL0     O29615   2.022   9.463   1.465 -0.0669 -0.0394 -0.8327
  225MOL0     C29616   2.298   9.436   1.445  0.2771 -0.0416  0.3938
  225MOL0     C29617   2.432   9.419   1.424 -0.0328 -0.4572 -0.3472
  225MOL0     N29618   3.201   9.206   1.338  0.2281 -0.4387  0.3733
  225MOL0     N29619   3.240   9.208   1.217  0.5179 -0.2373 -0.1820
  225MOL0     C29620   3.835   8.509   0.383  0.5109 -0.5060  0.4320
  225MOL0     C29621   3.879   8.445   0.268 -0.2361 -0.4805 -0.6979
  225MOL0     C29622   4.244   8.321  -0.008  0.0463  0.1825  0.3369
  225MOL0     C29623   4.380   8.316  -0.027 -0.6923  0.1053 -0.4003
  225MOL0     C29624   4.435   8.265  -0.149  0.4116  0.1305  0.8838
  225MOL0     C29625   4.358   8.207  -0.254  0.4036  0.3955 -0.1459
  225MOL0     O29626   4.417   8.152  -0.361  0.2634  0.4165 -0.4528
  225MOL0     C29627   4.345   8.111  -0.480 -0.5931 -0.7507  0.8390
  225MOL0     C29628   4.451   8.080  -0.590  0.5094  0.1838  0.2206
  225MOL0     C29629   4.437   8.198  -0.692  0.5437  0.5860 -0.0855
  225MOL0     C29630   4.564   8.217  -0.782  0.6078 -0.0354 -0.5032
  225MOL0     C29631   4.567   8.340  -0.862  1.0803  0.0915 -0.7657
  225MOL0     C29632   4.566   8.445  -0.924  0.2614  0.6898  0.4473
  225MOL0     C29633   4.215   8.215  -0.229 -0.3821  0.7243 -0.3208
  225MOL0     C29634   4.168   8.260  -0.107  0.3373  0.0985 -0.2445
  225MOL0     H29635   4.138   8.653   0.203  0.9782 -2.8158 -3.2705
  225MOL0     H29636   4.049   8.774   0.387 -0.2627  0.2351  1.6310
  225MOL0     H29637   3.920   8.858   0.584 -0.4426  0.3376  1.3290
  225MOL0     H29638   3.992   8.697   0.645 -0.3951 -0.3342  0.1693
  225MOL0     H29639   3.911   8.855   0.814 -1.3600  1.6768 -1.8349
  225MOL0     H29640   3.831   8.688   0.804 -2.1414 -0.3759 -0.1185
  225MOL0     H29641   3.639   8.824   0.673  0.4995 -4.0258  1.6785
  225MOL0     H29642   3.742   8.970   0.702 -1.2586  0.3144  1.1461
  225MOL0     H29643   3.570   8.817   0.882 -2.4907  2.1091 -3.6233
  225MOL0     H29644   3.712   8.900   0.953 -0.3066  0.3735  0.2227
  225MOL0     H29645   3.497   9.026   0.770  0.4559 -1.3457 -0.2306
  225MOL0     H29646   3.627   9.118   0.830 -3.2439  0.8936 -2.4116
  225MOL0     H29647   3.436   9.175   0.971 -1.9894 -1.2305 -0.8423
  225MOL0     H29648   3.522   9.069   1.077 -0.0827 -2.0105  0.2303
  225MOL0     H29649   3.321   8.959   0.871  0.3426 -2.3453  0.1099
  225MOL0     H29650   3.359   8.895   1.030 -1.8605 -1.5298 -1.5880
  225MOL0     H29651   3.130   9.021   0.966  1.3595 -2.6515 -1.6795
  225MOL0     H29652   3.227   9.156   0.959  0.5624 -1.6953 -3.0414
  225MOL0     H29653   3.101   8.910   1.232 -1.4464 -0.7164  1.5059
  225MOL0     H29654   3.101   9.107   1.577  4.4845 -0.4445 -1.3194
  225MOL0     H29655   3.108   8.946   1.499  0.4191 -0.8435  1.8080
  225MOL0     H29656   2.867   8.987   1.561 -1.6290  0.8875 -1.0280
  225MOL0     H29657   2.890   8.980   1.392 -0.7058 -0.9179  0.9565
  225MOL0     H29658   2.902   9.249   1.536  3.2122 -1.9160  0.6274
  225MOL0     H29659   2.874   9.222   1.362 -0.1161 -1.8007 -0.8516
  225MOL0     H29660   2.698   9.171   1.606 -0.7176  1.7540 -0.1892
  225MOL0     H29661   2.658   9.090   1.453 -0.3848  0.3814 -1.9234
  225MOL0     H29662   2.442   9.104   1.568  2.9048  0.1118 -1.7823
  225MOL0     H29663   2.236   9.123   1.564  2.4393 -1.0212  0.8530
  225MOL0     H29664   1.862   9.069   1.670 -0.6632  0.5094 -0.2764
  225MOL0     H29665   1.628   9.002   1.621 -0.0668 -0.1512 -1.7578
  225MOL0     H29666   1.397   9.266   1.359  1.3628 -1.2941 -1.7751
  225MOL0     H29667   1.392   9.230   1.536  1.4934 -2.6510  0.9146
  225MOL0     H29668   1.211   9.084   1.346 -0.7843  1.2884 -0.8875
  225MOL0     H29669   1.186   9.207   1.473  3.7009  0.9484  0.5959
  225MOL0     H29670   1.272   9.055   1.640 -0.3150  2.1055 -0.2563
  225MOL0     H29671   1.299   8.933   1.515  0.4464  0.0967 -0.4024
  225MOL0     H29672   1.038   9.062   1.610 -1.1645 -2.4787  2.1798
  225MOL0     H29673   1.058   8.959   1.462  2.1260 -0.3802 -1.2346
  225MOL0     H29674   1.107   8.888   1.754 -2.0592 -1.0642 -0.1638
  225MOL0     H29675   1.121   8.771   1.617  1.3463 -0.6417  0.9812
  225MOL0     H29676   0.874   8.826   1.583  1.9779 -1.3476  0.0441
  225MOL0     H29677   0.884   8.939   1.715  0.7459  1.8737 -3.1432
  225MOL0     H29678   0.986   8.672   1.804 -0.9916 -0.9451  1.3876
  225MOL0     H29679   0.830   8.756   1.849  3.1058 -1.7418  3.9297
  225MOL0     H29680   0.736   8.647   1.640 -0.0436 -2.4147 -2.0019
  225MOL0     H29681   0.779   8.534   1.778 -1.8064 -2.0578 -1.4696
  225MOL0     H29682   1.618   9.318   1.309  1.8233  2.6856 -0.8510
  225MOL0     H29683   1.828   9.395   1.376  0.7925 -1.2672  0.6417
  225MOL0     H29684   2.256   9.521   1.392  2.9126 -0.2578 -2.3000
  225MOL0     H29685   2.501   9.483   1.369  2.4461 -3.0340 -0.4587
  225MOL0     H29686   3.750   8.479   0.445  2.3035  0.1709  3.4388
  225MOL0     H29687   3.829   8.353   0.237  1.3692 -1.0162 -1.8662
  225MOL0     H29688   4.447   8.362   0.045  0.8638 -1.1469 -0.9973
  225MOL0     H29689   4.544   8.260  -0.156  0.5503  0.3521  2.5067
  225MOL0     H29690   4.274   8.191  -0.505  1.7255  1.9099  2.1112
  225MOL0     H29691   4.297   8.016  -0.454 -2.4849 -0.7282 -2.1217
  225MOL0     H29692   4.553   8.078  -0.552  1.1095  0.0801 -1.3213
  225MOL0     H29693   4.412   7.984  -0.627 -1.2430 -0.4263  3.2690
  225MOL0     H29694   4.430   8.287  -0.627 -0.0713 -2.3078  4.2303
  225MOL0     H29695   4.342   8.204  -0.746  1.0862  3.2791 -0.9207
  225MOL0     H29696   4.660   8.203  -0.732  0.2258 -0.7906  0.0401
  225MOL0     H29697   4.568   8.142  -0.861  1.6230 -0.0599 -0.4423
  225MOL0     H29698   4.563   8.539  -0.976 -1.1355  0.1718 -0.4620
  225MOL0     H29699   4.151   8.176  -0.308  0.9100  0.6075 -1.3578
  225MOL0     H29700   4.062   8.251  -0.087  0.2686 -0.1011 -0.6858
  226MOL0     O29701   4.907   0.509   4.463  0.5078 -0.4400  0.8255
  226MOL0     C29702   4.949   0.576   4.554  0.2385 -0.2303 -0.1582
  226MOL0     O29703   4.880   0.605   4.666 -0.4616  0.9475 -0.3293
  226MOL0     C29704   4.747   0.587   4.676 -0.6767 -0.3092  0.6333
  226MOL0     C29705   4.671   0.705   4.714  1.0213  0.3068 -0.8162
  226MOL0     C29706   4.533   0.705   4.720  0.6144  0.4147 -0.1568
  226MOL0     C29707   4.473   0.580   4.701  0.8989  0.6790  0.3310
  226MOL0     O29708   4.340   0.559   4.720 -1.0545 -0.1032  0.0530
  226MOL0     C29709   4.263   0.662   4.782 -0.7619  0.4978 -0.2635
  226MOL0     C29710   4.219   0.765   4.679 -0.0540  0.3669 -0.7449
  226MOL0     C29711   4.133   0.871   4.748  0.2723  0.1185 -0.4516
  226MOL0     C29712   4.070   0.966   4.632  0.0916 -0.3800 -0.5779
  226MOL0     C29713   4.024   1.095   4.713  0.2257  0.1858  0.5197
  226MOL0     C29714   3.971   1.195   4.617  0.4635  0.0488 -0.1808
  226MOL0     C29715   3.885   1.310   4.682  0.7007  0.4698 -0.1560
  226MOL0     C29716   3.948   1.389   4.789  0.0483 -0.1525  0.5171
  226MOL0     N29717   3.875   1.509   4.828  0.6192  0.2144  0.7118
  226MOL0     C29718   3.736   1.529   4.849 -0.6865  0.3526  0.5049
  226MOL0     C29719   3.714   1.662   4.858  1.1686  0.4068 -0.4412
  226MOL0     C29720   3.577   1.728   4.875 -0.4005 -0.0622 -0.2377
  226MOL0     C29721   3.549   1.791   5.017 -0.3396  0.5770  0.0805
  226MOL0     C29722   3.405   1.852   5.003  0.3022  0.7811 -1.1122
  226MOL0     C29723   3.368   1.911   5.131  0.5688 -0.1721 -0.1987
  226MOL0     O29724   3.276   1.822   5.190  0.4862  0.3519  0.3261
  226MOL0     C29725   3.138   1.829   5.165  0.4825  0.2270 -0.0699
  226MOL0     C29726   3.051   1.748   5.226  0.0954 -0.0745 -0.1523
  226MOL0     C29727   2.913   1.749   5.191 -0.5400  0.3814 -0.1188
  226MOL0     C29728   2.867   1.832   5.082 -0.3553 -0.0562 -0.4917
  226MOL0     C29729   2.725   1.831   5.053  0.6117  0.4346 -0.4043
  226MOL0     O29730   2.661   1.730   5.104 -0.3183  0.1130  0.3012
  226MOL0     C29731   2.529   1.687   5.100  0.5957  0.3286 -0.8514
  226MOL0     C29732   2.468   1.625   5.214 -0.4035 -0.2834  0.1037
  226MOL0     C29733   2.336   1.580   5.212 -0.2546 -0.3497  1.0025
  226MOL0     C29734   2.268   1.581   5.083 -0.8203  0.1729  0.0913
  226MOL0     O29735   2.140   1.522   5.061  0.1994  0.2204 -0.5693
  226MOL0     C29736   2.069   1.558   4.947  0.7482 -1.2577  0.1316
  226MOL0     C29737   1.924   1.506   4.956 -0.9722 -0.1770 -0.2943
  226MOL0     C29738   1.839   1.581   5.061 -0.4679 -0.7093 -0.3878
  226MOL0     C29739   1.687   1.553   5.049 -0.1498  0.4143 -0.3561
  226MOL0     C29740   1.606   1.633   5.150 -0.8881 -0.2034  0.6751
  226MOL0     C29741   1.468   1.577   5.200 -0.6462  0.2692 -0.1363
  226MOL0     C29742   1.389   1.545   5.085 -0.1320 -1.0805  0.2020
  226MOL0     C29743   1.255   1.489   5.129  0.3322 -0.3132  0.0104
  226MOL0    Cl29744   1.162   1.638   5.178  0.3018 -0.2920 -0.1494
  226MOL0     C29745   2.331   1.637   4.971 -0.3425 -0.0831 -0.9059
  226MOL0     C29746   2.457   1.693   4.983 -0.4314  0.1632  0.1586
  226MOL0     O29747   2.674   1.923   5.003 -0.1978  0.7480  0.5140
  226MOL0     C29748   2.955   1.912   5.019  0.6523  0.5580 -0.6802
  226MOL0     C29749   3.094   1.912   5.061  0.2453 -1.1210  0.7720
  226MOL0     N29750   3.836   1.719   4.855 -0.3363 -0.0406  0.5279
  226MOL0     N29751   3.937   1.629   4.834 -0.5492 -0.4235  0.1988
  226MOL0     C29752   4.546   0.463   4.677 -0.1615 -0.2752 -0.5981
  226MOL0     C29753   4.688   0.464   4.666 -0.1132 -0.0175  1.1759
  226MOL0     C29754   5.086   0.610   4.537 -0.2400  0.2197  1.0921
  226MOL0     C29755   5.174   0.630   4.643 -0.2942  0.3590  0.3069
  226MOL0     C29756   5.308   0.675   4.616  0.6292 -0.4945 -0.3371
  226MOL0     C29757   5.357   0.690   4.490 -1.0528  0.3755 -0.4675
  226MOL0     O29758   5.487   0.735   4.468 -0.1211  0.3785  0.1201
  226MOL0     C29759   5.583   0.633   4.433  0.6714 -0.3683  0.0699
  226MOL0     C29760   5.640   0.676   4.304  0.3477  0.5398 -0.2051
  226MOL0     C29761   5.739   0.794   4.314  0.5267  0.2789  1.4952
  226MOL0     C29762   5.874   0.750   4.242  0.8612 -0.3687 -0.1760
  226MOL0     C29763   5.965   0.874   4.245  0.2096 -0.7585  0.3793
  226MOL0     C29764   6.041   0.965   4.255 -0.1967 -1.4567 -0.6271
  226MOL0     C29765   5.281   0.664   4.382 -0.5787  0.8632 -0.2335
  226MOL0     C29766   5.149   0.622   4.407 -0.1436  0.0089  0.0538
  226MOL0     H29767   4.725   0.796   4.738  0.5452  0.4935 -0.4461
  226MOL0     H29768   4.482   0.796   4.752  0.5497  0.3274 -0.0089
  226MOL0     H29769   4.320   0.711   4.861 -1.0183  1.0674 -0.4324
  226MOL0     H29770   4.173   0.626   4.834  0.6574 -0.0626  1.9667
  226MOL0     H29771   4.161   0.707   4.607 -0.1725 -1.2652  0.6161
  226MOL0     H29772   4.305   0.812   4.629  2.3837 -1.5354  1.3535
  226MOL0     H29773   4.191   0.934   4.815 -0.7165 -0.4400  0.9753
  226MOL0     H29774   4.060   0.832   4.819 -1.2912  4.4548  0.5987
  226MOL0     H29775   4.139   0.991   4.551  0.7170  1.1149  0.3696
  226MOL0     H29776   3.977   0.930   4.586 -0.1294 -1.2281  0.5115
  226MOL0     H29777   4.112   1.143   4.758 -0.2176  3.4542 -1.7426
  226MOL0     H29778   3.955   1.065   4.793 -0.8585  0.7547 -0.1854
  226MOL0     H29779   3.905   1.140   4.549  1.2327  2.0890 -2.7197
  226MOL0     H29780   4.043   1.252   4.558  2.1985  3.9236  4.9586
  226MOL0     H29781   3.860   1.376   4.598  2.1811  1.6485  0.2811
  226MOL0     H29782   3.800   1.258   4.728  0.2899  0.3435 -1.0447
  226MOL0     H29783   4.048   1.423   4.760  0.4137 -1.1793  0.5468
  226MOL0     H29784   3.961   1.332   4.881 -0.6850 -0.1141  0.6536
  226MOL0     H29785   3.667   1.445   4.846  0.1299 -0.3617  1.0422
  226MOL0     H29786   3.509   1.644   4.859  1.6152 -1.5969 -1.1890
  226MOL0     H29787   3.567   1.801   4.794 -0.7536  1.0301  0.7601
  226MOL0     H29788   3.620   1.874   5.030 -3.1308  3.2113 -0.3466
  226MOL0     H29789   3.586   1.733   5.102  2.3220 -1.4942 -2.2671
  226MOL0     H29790   3.414   1.916   4.915  1.2210 -1.3744 -2.6647
  226MOL0     H29791   3.331   1.774   4.983  1.8631 -0.8462 -0.7821
  226MOL0     H29792   3.329   2.012   5.115 -2.0027 -0.7477  1.7899
  226MOL0     H29793   3.454   1.930   5.197  0.6005  1.0013 -0.5558
  226MOL0     H29794   3.091   1.672   5.292  1.3976 -0.1879 -1.0275
  226MOL0     H29795   2.851   1.678   5.243 -0.9778  0.9035  0.0819
  226MOL0     H29796   2.519   1.628   5.309 -3.4399  0.4829  1.8372
  226MOL0     H29797   2.300   1.531   5.302 -2.0075 -1.1369 -0.0685
  226MOL0     H29798   2.120   1.514   4.860 -0.2709 -3.4546  0.5738
  226MOL0     H29799   2.066   1.666   4.937  1.4637 -1.2791 -0.4375
  226MOL0     H29800   1.922   1.401   4.987 -4.2997 -1.8921 -5.1730
  226MOL0     H29801   1.883   1.503   4.855  2.1551 -4.3951 -1.7104
  226MOL0     H29802   1.859   1.687   5.047  0.8066 -0.6969  1.1476
  226MOL0     H29803   1.873   1.550   5.161 -0.4076  2.2936  0.6329
  226MOL0     H29804   1.653   1.568   4.946  1.0797  2.4052 -0.5210
  226MOL0     H29805   1.668   1.447   5.068  2.6419 -0.0078  0.4904
  226MOL0     H29806   1.585   1.729   5.101  0.2887  1.5922  3.4434
  226MOL0     H29807   1.670   1.663   5.234  0.9065 -1.3553 -0.2212
  226MOL0     H29808   1.421   1.651   5.265  0.9213  2.2862 -1.1987
  226MOL0     H29809   1.493   1.488   5.259 -0.5202 -1.5067 -2.6963
  226MOL0     H29810   1.373   1.631   5.019  0.5864 -1.4854 -0.5147
  226MOL0     H29811   1.434   1.472   5.018  0.1570 -0.4633 -0.2819
  226MOL0     H29812   1.262   1.414   5.208 -1.7171  1.8074  2.3713
  226MOL0     H29813   1.203   1.441   5.045 -1.9340  2.4603 -0.3535
  226MOL0     H29814   2.276   1.655   4.879 -1.9333  0.7653  0.1509
  226MOL0     H29815   2.507   1.718   4.890  0.2210 -1.7518 -0.0592
  226MOL0     H29816   2.908   1.968   4.938 -0.0096 -0.8086 -1.2735
  226MOL0     H29817   3.164   1.964   4.997  0.5385 -0.9716  1.2108
  226MOL0     H29818   4.506   0.362   4.679 -0.7014 -0.0581  0.8414
  226MOL0     H29819   4.745   0.374   4.645  0.1165  0.2772  0.4960
  226MOL0     H29820   5.139   0.608   4.743 -2.0538  0.4626 -0.2596
  226MOL0     H29821   5.370   0.695   4.703 -2.2604 -1.7396  2.2266
  226MOL0     H29822   5.529   0.539   4.419 -1.8123  0.3469  3.4071
  226MOL0     H29823   5.656   0.631   4.515 -1.6067 -0.9950  2.2092
  226MOL0     H29824   5.681   0.582   4.266  0.3400  0.4919 -0.0957
  226MOL0     H29825   5.562   0.707   4.233 -0.7799 -0.5564  0.5054
  226MOL0     H29826   5.748   0.835   4.415  0.1058  5.5110 -0.2466
  226MOL0     H29827   5.706   0.880   4.253  0.5257  0.2087  1.3965
  226MOL0     H29828   5.917   0.667   4.299 -2.1281 -1.1821  1.0615
  226MOL0     H29829   5.857   0.713   4.141 -0.3439 -2.7338  0.8134
  226MOL0     H29830   6.110   1.047   4.247 -2.0941  0.5084  1.7368
  226MOL0     H29831   5.324   0.667   4.282  1.2832 -0.1362  0.4946
  226MOL0     H29832   5.085   0.615   4.319  0.0221  0.3261 -0.0966
  227MOL0     O29833   6.823   1.859   4.095  0.1357  0.0136 -0.3363
  227MOL0     C29834   6.885   1.953   4.045 -0.4526  0.2688 -0.6223
  227MOL0     O29835   6.849   2.086   4.066 -1.0146 -0.5638  0.0343
  227MOL0     C29836   6.740   2.117   4.144 -0.0991  0.5708  0.7330
  227MOL0     C29837   6.616   2.064   4.125 -0.1294 -0.0407 -0.6555
  227MOL0     C29838   6.512   2.093   4.219 -0.4569  0.2574 -0.4806
  227MOL0     C29839   6.538   2.168   4.335  0.1145 -0.8843  0.4791
  227MOL0     O29840   6.436   2.181   4.426  0.6876  1.0618 -0.3946
  227MOL0     C29841   6.413   2.316   4.471 -0.0312  0.0644  0.0596
  227MOL0     C29842   6.276   2.287   4.549 -0.2275 -0.0593 -0.2357
  227MOL0     C29843   6.214   2.423   4.584  0.5634 -0.5943  0.0580
  227MOL0     C29844   6.085   2.392   4.659 -0.6398  0.6765 -0.2584
  227MOL0     C29845   6.105   2.323   4.809  0.6364  0.3183  0.8772
  227MOL0     C29846   5.982   2.318   4.903  0.5168 -0.6542  0.0205
  227MOL0     C29847   5.902   2.441   4.922  0.8676  0.0712 -0.2008
  227MOL0     C29848   5.799   2.449   5.028 -0.0217 -0.4552  0.7633
  227MOL0     N29849   5.665   2.467   4.978  0.2824  0.1731 -0.1690
  227MOL0     C29850   5.575   2.543   5.058 -0.7621 -0.0647 -0.5785
  227MOL0     C29851   5.455   2.497   5.021 -0.7816  0.5278 -0.5404
  227MOL0     C29852   5.323   2.551   5.073 -0.2691  0.8046  0.2796
  227MOL0     C29853   5.323   2.569   5.219 -0.2586 -0.2730 -0.5110
  227MOL0     C29854   5.202   2.642   5.272 -0.4071  0.1610  0.2334
  227MOL0     C29855   5.213   2.642   5.430  0.5012  0.1878  0.2947
  227MOL0     O29856   5.127   2.747   5.474 -1.1905  0.4922 -0.2895
  227MOL0     C29857   4.992   2.729   5.462 -0.4606 -0.3820 -0.2290
  227MOL0     C29858   4.930   2.801   5.354  0.0726  0.6304 -0.5136
  227MOL0     C29859   4.798   2.794   5.330 -0.6614  0.3911  0.0381
  227MOL0     C29860   4.725   2.695   5.389  1.9290 -0.3080 -0.4183
  227MOL0     C29861   4.579   2.677   5.349  0.6722 -0.7036 -0.2002
  227MOL0     O29862   4.554   2.710   5.215  0.4972  0.2168 -0.3781
  227MOL0     C29863   4.472   2.630   5.138  0.0863 -0.0645  0.3190
  227MOL0     C29864   4.496   2.490   5.125 -0.8061 -0.1843  0.7527
  227MOL0     C29865   4.407   2.411   5.044 -0.5651  0.0204  0.4282
  227MOL0     C29866   4.287   2.458   4.990  0.4393  0.2433 -0.6239
  227MOL0     O29867   4.206   2.369   4.924 -0.6244 -0.0617 -0.4961
  227MOL0     C29868   4.074   2.414   4.904 -0.6426 -0.9912  0.6009
  227MOL0     C29869   3.982   2.302   4.853  0.3602  1.1351  0.4811
  227MOL0     C29870   3.925   2.202   4.955 -0.2898  0.9705 -0.2177
  227MOL0     C29871   3.807   2.246   5.039  0.7964 -0.0007  0.0318
  227MOL0     C29872   3.806   2.182   5.183  0.5813  0.3001  1.1463
  227MOL0     C29873   3.688   2.243   5.261  0.0285 -1.0566  0.4824
  227MOL0     C29874   3.550   2.191   5.233 -0.2086  1.0798 -0.5860
  227MOL0     C29875   3.441   2.258   5.318  0.5974 -0.4754 -0.5718
  227MOL0    Cl29876   3.274   2.231   5.237  0.0589  0.3255 -0.0158
  227MOL0     C29877   4.263   2.600   5.005 -0.3873  0.2097  0.7188
  227MOL0     C29878   4.357   2.682   5.067  0.4607  0.3729 -0.4587
  227MOL0     O29879   4.502   2.612   5.427 -0.3903  0.3069 -0.1692
  227MOL0     C29880   4.780   2.618   5.494  0.1524 -0.6403  0.2388
  227MOL0     C29881   4.910   2.641   5.530 -0.2535  0.6092  0.3874
  227MOL0     N29882   5.467   2.395   4.929  0.3753 -0.2856 -0.4361
  227MOL0     N29883   5.594   2.373   4.913 -0.2368 -0.3861 -0.0357
  227MOL0     C29884   6.667   2.222   4.348  0.4587  0.4265  0.5875
  227MOL0     C29885   6.766   2.189   4.266  0.1792  1.1936  1.6766
  227MOL0     C29886   7.013   1.921   3.971 -0.6448 -0.3795 -0.3186
  227MOL0     C29887   7.068   2.012   3.880  0.7110 -0.1111 -0.4910
  227MOL0     C29888   7.197   1.984   3.839  0.6133  0.2883 -0.9791
  227MOL0     C29889   7.271   1.874   3.882  0.3423 -0.6699  0.7585
  227MOL0     O29890   7.405   1.849   3.849  0.0101  0.4211  0.0812
  227MOL0     C29891   7.481   1.968   3.836 -0.0041  0.5504 -0.8575
  227MOL0     C29892   7.622   1.924   3.783  0.7492 -0.7697 -0.0196
  227MOL0     C29893   7.719   2.042   3.742  0.2582 -0.7209  0.0235
  227MOL0     C29894   7.850   1.984   3.672  0.1261 -0.7001 -0.3281
  227MOL0     C29895   7.845   1.923   3.533  0.0062 -0.1229  0.3437
  227MOL0     C29896   7.839   1.873   3.421  0.1401 -0.9108 -0.0293
  227MOL0     C29897   7.208   1.785   3.963  0.5665 -0.8985  0.8102
  227MOL0     C29898   7.082   1.806   4.007  0.1463 -0.1316 -0.1807
  227MOL0     H29899   6.587   1.990   4.051 -0.1322  2.0774 -2.9025
  227MOL0     H29900   6.417   2.055   4.184  0.4095 -1.6646 -0.8630
  227MOL0     H29901   6.408   2.381   4.383  0.1563 -0.3276 -0.2458
  227MOL0     H29902   6.484   2.350   4.546  0.6649  1.0410 -1.0118
  227MOL0     H29903   6.305   2.238   4.643 -0.7867 -1.0284 -0.5498
  227MOL0     H29904   6.215   2.218   4.489  2.1940 -3.8410  1.2454
  227MOL0     H29905   6.187   2.471   4.489 -0.8639 -0.1761  0.6410
  227MOL0     H29906   6.276   2.491   4.642 -0.9720  0.6808  0.2806
  227MOL0     H29907   6.052   2.490   4.695  1.8352  1.6411 -0.4417
  227MOL0     H29908   6.007   2.331   4.612  0.6019 -0.8310 -0.4712
  227MOL0     H29909   6.180   2.382   4.862  0.5836 -0.2569  1.6029
  227MOL0     H29910   6.134   2.218   4.800  0.0354  0.2746 -0.8820
  227MOL0     H29911   6.019   2.294   5.003 -0.3486 -3.4952 -0.2498
  227MOL0     H29912   5.914   2.245   4.858 -1.8714  0.9490  0.8773
  227MOL0     H29913   5.968   2.522   4.954 -2.0672  1.3950  3.2948
  227MOL0     H29914   5.848   2.472   4.832 -1.4793 -0.4317  0.9389
  227MOL0     H29915   5.822   2.534   5.092  2.8462  0.0910 -0.8075
  227MOL0     H29916   5.810   2.363   5.095  3.1110 -0.2567  0.6662
  227MOL0     H29917   5.603   2.622   5.127 -1.1711 -1.8280  1.7452
  227MOL0     H29918   5.253   2.472   5.045  3.2604 -1.5820 -2.9037
  227MOL0     H29919   5.312   2.643   5.015 -0.6350 -0.7022 -2.1486
  227MOL0     H29920   5.418   2.615   5.249 -1.0705  0.6790  0.6948
  227MOL0     H29921   5.310   2.467   5.257 -2.1051 -0.8436 -2.5057
  227MOL0     H29922   5.223   2.744   5.238  0.5270 -1.1764 -3.7654
  227MOL0     H29923   5.108   2.606   5.229  0.3265 -0.1791 -1.1287
  227MOL0     H29924   5.313   2.672   5.464  0.2740  2.6113 -0.9680
  227MOL0     H29925   5.183   2.544   5.467  0.4117 -0.8178 -2.2043
  227MOL0     H29926   4.989   2.870   5.294  0.5760  0.0221 -0.7338
  227MOL0     H29927   4.759   2.872   5.266  0.3110  0.4610 -0.4801
  227MOL0     H29928   4.583   2.451   5.178 -0.1815  1.4050  0.9294
  227MOL0     H29929   4.426   2.304   5.047  1.5326  0.3717  2.7485
  227MOL0     H29930   4.091   2.484   4.822  2.4394  0.8204  2.5900
  227MOL0     H29931   4.019   2.468   4.983  0.9490  4.3668 -1.4835
  227MOL0     H29932   4.018   2.238   4.772  0.7537  0.8281  0.8910
  227MOL0     H29933   3.900   2.349   4.799  1.1671  2.3818  0.3070
  227MOL0     H29934   4.010   2.196   5.024 -0.1751  2.8765 -0.1421
  227MOL0     H29935   3.910   2.107   4.903  1.8367  1.3786 -1.7391
  227MOL0     H29936   3.810   2.355   5.046  0.2620 -0.0246  0.7869
  227MOL0     H29937   3.715   2.223   4.986  0.6867 -2.6592  1.2263
  227MOL0     H29938   3.902   2.212   5.226  1.5109 -0.3428 -0.3578
  227MOL0     H29939   3.805   2.073   5.191  2.3525  0.0594 -0.7837
  227MOL0     H29940   3.683   2.352   5.250  3.9515 -0.4961  2.6107
  227MOL0     H29941   3.713   2.236   5.367 -1.2398  3.4987  1.2794
  227MOL0     H29942   3.531   2.212   5.128  4.6195 -0.3568 -2.0121
  227MOL0     H29943   3.557   2.084   5.253  4.1445  1.0710 -1.2320
  227MOL0     H29944   3.464   2.365   5.323  1.6922 -0.7583  1.2652
  227MOL0     H29945   3.436   2.207   5.414  1.5694 -2.2619 -1.4280
  227MOL0     H29946   4.167   2.636   4.969 -0.2492  1.3725  1.4868
  227MOL0     H29947   4.328   2.786   5.068  1.1333  0.5606  0.5268
  227MOL0     H29948   4.724   2.533   5.534  0.5122 -0.9506  0.0932
  227MOL0     H29949   4.946   2.590   5.619 -1.1622  0.8001  0.8740
  227MOL0     H29950   6.688   2.279   4.438  1.6815 -0.0785  0.6415
  227MOL0     H29951   6.868   2.224   4.282  0.3730  1.6597 -0.3386
  227MOL0     H29952   7.011   2.097   3.843  0.4196 -0.5874 -1.1653
  227MOL0     H29953   7.239   2.066   3.781  2.0105 -0.8980 -1.7420
  227MOL0     H29954   7.506   2.026   3.925  2.9859 -0.9201 -0.6099
  227MOL0     H29955   7.445   2.039   3.760  0.5930 -0.6767 -2.3586
  227MOL0     H29956   7.661   1.848   3.852 -3.3706 -1.6867  1.6346
  227MOL0     H29957   7.593   1.869   3.693 -0.4808 -4.3019  2.3021
  227MOL0     H29958   7.748   2.105   3.827  0.5361 -0.3507 -0.3427
  227MOL0     H29959   7.676   2.109   3.666 -0.5287  0.3656  1.3729
  227MOL0     H29960   7.914   2.072   3.674  0.9120 -1.2553  1.9296
  227MOL0     H29961   7.881   1.904   3.740  0.9260 -0.0951  0.0337
  227MOL0     H29962   7.819   1.822   3.329  4.4308 -3.9848  0.4156
  227MOL0     H29963   7.271   1.709   4.008 -1.0024 -2.5647  0.3228
  227MOL0     H29964   7.046   1.737   4.083  2.1644 -1.4355 -0.3118
  228MOL0     O29965   2.981   1.608   6.121 -0.8853 -0.3451  0.0969
  228MOL0     C29966   3.080   1.545   6.079 -0.7759  0.0473 -0.4744
  228MOL0     O29967   3.076   1.413   6.061 -0.8153  0.2271 -0.3427
  228MOL0     C29968   2.958   1.348   6.093 -0.6031  0.3447  0.4326
  228MOL0     C29969   2.924   1.329   6.229 -0.8108  0.9370 -0.1145
  228MOL0     C29970   2.796   1.274   6.259  0.8087  0.3846  0.2749
  228MOL0     C29971   2.714   1.229   6.158 -1.7307  0.3368 -0.3588
  228MOL0     O29972   2.581   1.199   6.186 -0.0798 -0.8561  0.1578
  228MOL0     C29973   2.520   1.087   6.120  0.1965  0.0342  0.7845
  228MOL0     C29974   2.430   1.032   6.225  0.2789  0.3047  0.7093
  228MOL0     C29975   2.409   0.882   6.198  0.0572 -0.1909  0.4539
  228MOL0     C29976   2.350   0.826   6.332 -0.3541 -0.8344  0.0596
  228MOL0     C29977   2.206   0.868   6.347 -0.2598  0.1517  0.3859
  228MOL0     C29978   2.114   0.779   6.252  0.0924  0.1849 -0.0494
  228MOL0     C29979   1.967   0.807   6.273  0.4092 -0.1732  0.2203
  228MOL0     C29980   1.885   0.769   6.149  0.2377  0.0440  0.5861
  228MOL0     N29981   1.744   0.790   6.185  0.1346 -0.7111 -0.1314
  228MOL0     C29982   1.640   0.715   6.128  0.2332 -0.4519  1.2615
  228MOL0     C29983   1.532   0.734   6.213 -0.3072  1.2835 -0.5030
  228MOL0     C29984   1.398   0.659   6.196 -0.7234 -0.3775 -0.6011
  228MOL0     C29985   1.281   0.742   6.245  1.0862 -1.0060 -1.1507
  228MOL0     C29986   1.139   0.690   6.221 -0.8491 -0.2417  0.0826
  228MOL0     C29987   1.053   0.751   6.320  0.2066  0.4794  0.1734
  228MOL0     O29988   0.928   0.684   6.305  0.3660 -0.3276 -0.9217
  228MOL0     C29989   0.851   0.664   6.423  0.3335  0.8234 -0.3993
  228MOL0     C29990   0.748   0.576   6.403 -0.4213  0.4662  0.3984
  228MOL0     C29991   0.664   0.523   6.503  0.2387 -0.1936  0.1713
  228MOL0     C29992   0.678   0.575   6.630  0.0366  0.1077 -0.3008
  228MOL0     C29993   0.593   0.524   6.748  0.0382 -0.3963  1.0978
  228MOL0     O29994   0.500   0.422   6.726  0.9672  0.0066 -0.1332
  228MOL0     C29995   0.414   0.387   6.829 -0.7841  0.2935  0.4431
  228MOL0     C29996   0.380   0.249   6.829 -0.1565  0.2556 -0.0394
  228MOL0     C29997   0.284   0.201   6.916  0.4825  0.6072 -0.3496
  228MOL0     C29998   0.212   0.286   7.000  0.1273 -0.0853 -0.4706
  228MOL0     O29999   0.116   0.228   7.081 -0.2873 -0.2252 -0.1953
  228MOL0     C30000  -0.014   0.295   7.087 -0.0914 -0.4760  0.2065
  228MOL0     C30001  -0.075   0.272   7.223 -0.0402 -0.3193  0.3201
  228MOL0     C30002  -0.212   0.341   7.227  0.0603 -0.1692 -0.5576
  228MOL0     C30003  -0.282   0.302   7.355  0.2733  0.6275 -0.9808
  228MOL0     C30004  -0.241   0.389   7.486 -0.0048 -0.0602  0.0091
  228MOL0     C30005  -0.220   0.534   7.455 -0.0306 -0.2119 -0.3400
  228MOL0     C30006  -0.228   0.631   7.577  0.1180  0.6321 -0.3149
  228MOL0     C30007  -0.233   0.773   7.537 -0.3221  0.0655  0.1545
  228MOL0    Cl30008  -0.088   0.823   7.451  0.3344  0.3010 -0.3907
  228MOL0     C30009   0.237   0.421   7.007  0.0515 -1.2532 -0.2052
  228MOL0     C30010   0.346   0.470   6.927 -0.1459  0.6917 -0.8240
  228MOL0     O30011   0.616   0.576   6.857 -0.1798  0.8496  0.9691
  228MOL0     C30012   0.788   0.662   6.655 -0.2954  0.2099 -0.2435
  228MOL0     C30013   0.869   0.707   6.552 -0.4427  0.7809  0.1383
  228MOL0     N30014   1.567   0.823   6.313 -0.1747 -0.1640 -0.1936
  228MOL0     N30015   1.696   0.860   6.293  0.0288  0.0637  0.3868
  228MOL0     C30016   2.753   1.233   6.028  0.6301 -0.9503  0.3814
  228MOL0     C30017   2.878   1.288   5.993  0.2162  0.8257 -0.2639
  228MOL0     C30018   3.204   1.632   6.061 -0.0724  0.9704  0.0203
  228MOL0     C30019   3.204   1.770   6.082 -0.1299 -0.6525 -0.2167
  228MOL0     C30020   3.328   1.847   6.064  0.7303 -0.5829  0.1112
  228MOL0     C30021   3.450   1.790   6.038  0.6689 -0.8408  0.1288
  228MOL0     O30022   3.561   1.863   6.014 -0.1575 -0.2257 -0.5397
  228MOL0     C30023   3.570   2.000   6.059  0.3589 -0.0169 -0.0367
  228MOL0     C30024   3.714   2.042   6.053 -0.7159  0.5743  0.8811
  228MOL0     C30025   3.770   2.009   5.909 -0.3438 -0.7285  0.1009
  228MOL0     C30026   3.806   2.138   5.824  0.3604 -0.6862 -0.2021
  228MOL0     C30027   3.681   2.194   5.760 -0.3282 -0.4123  0.0646
  228MOL0     C30028   3.593   2.231   5.687 -0.1650 -0.5032  0.3699
  228MOL0     C30029   3.450   1.653   6.014  0.5059 -1.0514  0.2261
  228MOL0     C30030   3.334   1.572   6.034  0.5976 -0.2535 -0.1883
  228MOL0     H30031   2.993   1.356   6.308 -0.6617 -2.8975  1.2647
  228MOL0     H30032   2.758   1.273   6.360  1.7222  1.5628  0.6610
  228MOL0     H30033   2.602   1.019   6.091  0.8410  0.6339  1.1706
  228MOL0     H30034   2.461   1.115   6.032  0.3125  1.4340  1.1323
  228MOL0     H30035   2.334   1.083   6.220  0.2113  0.1447  0.3253
  228MOL0     H30036   2.471   1.054   6.324  0.1852  2.6263  0.2692
  228MOL0     H30037   2.509   0.839   6.190  0.0351 -0.0116 -1.1471
  228MOL0     H30038   2.352   0.853   6.109 -1.4113 -0.1201  1.3378
  228MOL0     H30039   2.361   0.717   6.330  0.6409 -0.7574 -1.8664
  228MOL0     H30040   2.406   0.863   6.418  0.4760  0.3176 -0.9401
  228MOL0     H30041   2.182   0.973   6.330  1.0862  0.4975  0.4992
  228MOL0     H30042   2.177   0.846   6.450 -0.6778  1.1783  0.4927
  228MOL0     H30043   2.118   0.670   6.268 -0.8796  0.0940 -0.3087
  228MOL0     H30044   2.137   0.806   6.149 -0.7692 -1.6446 -0.7871
  228MOL0     H30045   1.925   0.757   6.361 -2.1341 -2.1776 -1.9421
  228MOL0     H30046   1.954   0.915   6.285  1.4980 -0.0695  0.5832
  228MOL0     H30047   1.902   0.662   6.132 -0.7287 -0.3723  2.0579
  228MOL0     H30048   1.904   0.820   6.054 -0.2742 -1.0234 -0.1028
  228MOL0     H30049   1.643   0.658   6.036 -1.4212  2.3166 -0.6726
  228MOL0     H30050   1.401   0.561   6.245 -0.9571 -0.6112 -1.0444
  228MOL0     H30051   1.398   0.639   6.088 -1.6915  0.2722 -0.7351
  228MOL0     H30052   1.279   0.844   6.206  0.0600 -0.1924  0.8804
  228MOL0     H30053   1.298   0.756   6.352 -1.3813 -0.2803 -0.7899
  228MOL0     H30054   1.122   0.716   6.116  1.2027 -0.2472 -0.2849
  228MOL0     H30055   1.141   0.581   6.228 -2.0949 -0.2734  0.2240
  228MOL0     H30056   1.036   0.854   6.287 -1.0141  0.3447  0.3228
  228MOL0     H30057   1.100   0.734   6.418  0.7132 -2.7006 -0.5118
  228MOL0     H30058   0.723   0.532   6.307 -1.2766 -0.5853  1.0749
  228MOL0     H30059   0.589   0.446   6.486  0.2922 -0.6687  1.8759
  228MOL0     H30060   0.433   0.188   6.756 -2.2650  1.4069 -2.7304
  228MOL0     H30061   0.254   0.097   6.930  3.2090 -0.1238  0.7677
  228MOL0     H30062  -0.067   0.234   7.013  1.3766 -0.8801 -0.5448
  228MOL0     H30063  -0.027   0.395   7.044 -5.4678  0.2474  2.6862
  228MOL0     H30064  -0.012   0.327   7.293 -1.8335 -1.1827  2.7652
  228MOL0     H30065  -0.071   0.164   7.244 -1.0399 -0.5913 -0.7914
  228MOL0     H30066  -0.280   0.302   7.150 -0.2235  1.2121 -1.0327
  228MOL0     H30067  -0.212   0.447   7.199 -0.9706 -0.6104 -2.4734
  228MOL0     H30068  -0.391   0.312   7.349 -0.2829 -0.6657  3.1488
  228MOL0     H30069  -0.274   0.193   7.365  1.8543  0.8214  0.2914
  228MOL0     H30070  -0.139   0.364   7.517  1.0863  3.1056 -0.7049
  228MOL0     H30071  -0.317   0.369   7.562 -0.7070 -2.2504 -1.1726
  228MOL0     H30072  -0.301   0.558   7.386  0.9625  1.3731 -0.9953
  228MOL0     H30073  -0.123   0.541   7.406 -0.4897 -0.6562 -1.3588
  228MOL0     H30074  -0.325   0.619   7.624  0.0440  0.4705 -0.5061
  228MOL0     H30075  -0.154   0.614   7.655 -0.5440 -0.0081  0.1860
  228MOL0     H30076  -0.245   0.837   7.625 -0.8022 -1.7041  1.4317
  228MOL0     H30077  -0.321   0.778   7.474  0.0491  0.2738 -0.3544
  228MOL0     H30078   0.191   0.491   7.076  1.5267  0.5183 -0.9368
  228MOL0     H30079   0.375   0.572   6.948 -1.5942  1.1209 -0.7543
  228MOL0     H30080   0.827   0.691   6.752 -4.3301  0.9292  1.3519
  228MOL0     H30081   0.954   0.772   6.573  1.1745  0.1737 -3.7558
  228MOL0     H30082   2.695   1.194   5.944 -1.2880  1.1586  0.6350
  228MOL0     H30083   2.906   1.293   5.889 -0.6584 -1.1195 -0.6380
  228MOL0     H30084   3.112   1.826   6.095  0.2370  1.0549 -3.5992
  228MOL0     H30085   3.309   1.954   6.073 -0.9236 -0.8972  0.8034
  228MOL0     H30086   3.528   2.002   6.160 -0.8580 -5.7740 -0.0430
  228MOL0     H30087   3.508   2.061   5.992 -1.1965 -3.8522 -2.4517
  228MOL0     H30088   3.730   2.148   6.071  1.0926  0.4169  0.4070
  228MOL0     H30089   3.763   1.996   6.139  2.7420  2.3787  0.0614
  228MOL0     H30090   3.695   1.949   5.857 -1.6765 -0.4906  1.6460
  228MOL0     H30091   3.868   1.962   5.924  0.6071  0.6734 -1.4044
  228MOL0     H30092   3.855   2.210   5.891 -2.0120 -0.8441  1.8454
  228MOL0     H30093   3.875   2.110   5.744  2.8447  1.0855  1.1625
  228MOL0     H30094   3.510   2.269   5.631  0.1094  0.6951  0.7310
  228MOL0     H30095   3.544   1.621   5.970  1.0959  4.1700 -3.2985
  228MOL0     H30096   3.343   1.467   6.011 -0.6617  0.0342 -2.2864
  229MOL0     O30097   1.777   6.981   4.166 -0.1895  0.0600  0.9593
  229MOL0     C30098   1.854   6.882   4.143 -0.3176 -0.0462 -0.5864
  229MOL0     O30099   1.811   6.753   4.132 -0.7514  0.1036 -0.1500
  229MOL0     C30100   1.678   6.728   4.149  0.1467 -0.0334  0.2442
  229MOL0     C30101   1.635   6.635   4.243 -1.2549 -0.6420 -0.4675
  229MOL0     C30102   1.498   6.593   4.241  0.5301 -0.8425  0.0973
  229MOL0     C30103   1.403   6.644   4.144 -0.8479  0.0512  0.4645
  229MOL0     O30104   1.272   6.609   4.125  0.1054 -0.3019 -0.9814
  229MOL0     C30105   1.210   6.495   4.185 -1.0991  0.8006  0.4934
  229MOL0     C30106   1.060   6.498   4.170  0.7174 -0.2906 -0.0293
  229MOL0     C30107   1.010   6.490   4.028  0.2528  0.7400  0.1603
  229MOL0     C30108   0.853   6.454   4.025 -0.2286 -0.1998  0.1945
  229MOL0     C30109   0.807   6.444   3.881 -0.4316  0.7868  0.5276
  229MOL0     C30110   0.825   6.579   3.804 -0.0356 -0.6065 -0.7841
  229MOL0     C30111   0.769   6.576   3.664  0.1434 -0.5920  0.2027
  229MOL0     C30112   0.612   6.584   3.662  0.0760  0.0913  0.0136
  229MOL0     N30113   0.559   6.561   3.531  0.3757 -0.1946  0.2276
  229MOL0     C30114   0.428   6.513   3.514 -0.2891 -0.6462  0.5678
  229MOL0     C30115   0.413   6.477   3.387  0.4252 -0.2507  0.0449
  229MOL0     C30116   0.300   6.403   3.326  0.4929  0.7972  0.5278
  229MOL0     C30117   0.326   6.381   3.174  0.2561 -0.2138  0.2679
  229MOL0     C30118   0.411   6.257   3.152  0.4640  0.0859 -0.7183
  229MOL0     C30119   0.408   6.194   3.007  0.2663 -0.0180  0.1786
  229MOL0     O30120   0.491   6.073   3.012  0.2816 -0.2350 -0.4633
  229MOL0     C30121   0.622   6.074   3.027  0.5242 -0.5822  0.0161
  229MOL0     C30122   0.696   6.181   2.982 -0.0665  0.8967  0.2300
  229MOL0     C30123   0.831   6.175   2.990  0.0798 -1.0118 -0.0003
  229MOL0     C30124   0.903   6.061   3.038  0.5261 -0.1248 -0.2333
  229MOL0     C30125   1.046   6.067   3.046 -0.2919  0.0246 -0.4805
  229MOL0     O30126   1.099   6.186   3.043 -0.0332  0.1465  0.0398
  229MOL0     C30127   1.237   6.205   3.028  0.1258 -0.3246 -0.3304
  229MOL0     C30128   1.303   6.188   2.908  0.1452 -0.6595 -0.2100
  229MOL0     C30129   1.438   6.201   2.900  0.8979 -0.1974  0.6266
  229MOL0     C30130   1.521   6.220   3.013 -0.0846 -0.7667 -0.6592
  229MOL0     O30131   1.656   6.203   2.999 -0.0865  0.2729 -0.0597
  229MOL0     C30132   1.739   6.244   3.112  0.3104 -0.5246  0.2287
  229MOL0     C30133   1.889   6.239   3.071  1.0170  0.5913 -0.3410
  229MOL0     C30134   1.918   6.327   2.958 -0.3819 -0.2876  0.6960
  229MOL0     C30135   2.059   6.316   2.916  0.2250 -0.5156 -0.4088
  229MOL0     C30136   2.087   6.362   2.778 -0.4187 -0.2060  0.6766
  229MOL0     C30137   2.235   6.395   2.775  0.8691  0.1521 -0.0146
  229MOL0     C30138   2.277   6.440   2.638 -0.1720 -1.0361  0.3916
  229MOL0     C30139   2.409   6.387   2.583 -0.2628 -0.1065 -0.1871
  229MOL0    Cl30140   2.389   6.209   2.555  0.5970  0.0435 -0.4880
  229MOL0     C30141   1.446   6.251   3.133 -0.4803 -0.3699  0.1286
  229MOL0     C30142   1.304   6.233   3.142 -0.5985 -1.3758  0.6511
  229MOL0     O30143   1.110   5.966   3.057 -0.0173  0.6474  0.9881
  229MOL0     C30144   0.821   5.949   3.070  0.1100  0.5198  0.3757
  229MOL0     C30145   0.685   5.961   3.067  0.9045 -0.0932  0.0806
  229MOL0     N30146   0.528   6.519   3.330 -0.5250  0.4230 -0.7218
  229MOL0     N30147   0.619   6.568   3.410  0.0753 -0.9339 -0.2632
  229MOL0     C30148   1.448   6.747   4.055  0.3773  1.5652 -0.0362
  229MOL0     C30149   1.586   6.778   4.059 -0.3684 -0.1201 -0.0088
  229MOL0     C30150   2.001   6.909   4.117 -0.3026  0.2165 -1.1951
  229MOL0     C30151   2.062   7.035   4.119  0.2213  0.5993  0.0845
  229MOL0     C30152   2.201   7.048   4.094  0.6261  0.5457  0.1111
  229MOL0     C30153   2.284   6.929   4.078  0.8568  0.7609  0.9329
  229MOL0     O30154   2.422   6.936   4.045  0.1978 -0.9962  0.2384
  229MOL0     C30155   2.507   7.037   4.106  0.4080 -0.8092  0.1008
  229MOL0     C30156   2.507   7.166   4.027 -0.1185 -0.5995  0.8828
  229MOL0     C30157   2.619   7.264   4.083 -0.6813 -0.0942  0.0728
  229MOL0     C30158   2.615   7.394   4.007 -0.4463  0.1581 -0.2977
  229MOL0     C30159   2.735   7.470   4.049 -0.3686  0.3361  0.1081
  229MOL0     C30160   2.835   7.530   4.086  0.2575  0.0329  0.6206
  229MOL0     C30161   2.226   6.808   4.085  0.0265 -0.4698 -0.5007
  229MOL0     C30162   2.086   6.793   4.112  0.1050  1.4677 -0.4927
  229MOL0     H30163   1.707   6.581   4.305 -0.9456  0.2695 -0.0101
  229MOL0     H30164   1.453   6.528   4.316  0.1492  0.7827  1.3470
  229MOL0     H30165   1.234   6.496   4.292  0.8554  1.3741  0.0804
  229MOL0     H30166   1.251   6.405   4.139  0.3846  0.9755  1.4016
  229MOL0     H30167   1.020   6.580   4.231 -1.8343 -1.9694  0.7187
  229MOL0     H30168   1.018   6.410   4.219 -1.1480 -0.6460 -2.1027
  229MOL0     H30169   1.061   6.409   3.975 -1.1106 -1.2333  1.7027
  229MOL0     H30170   1.048   6.577   3.974 -0.8946  0.9833 -0.2869
  229MOL0     H30171   0.830   6.359   4.075  1.0851 -2.0705 -2.5227
  229MOL0     H30172   0.810   6.538   4.080  1.5459 -1.4527  3.8613
  229MOL0     H30173   0.699   6.428   3.890 -0.3715  1.5380  3.7177
  229MOL0     H30174   0.855   6.362   3.826 -1.3455  2.0003 -2.2572
  229MOL0     H30175   0.929   6.602   3.779  0.6713 -1.7266  0.9416
  229MOL0     H30176   0.780   6.653   3.870  1.8411 -0.7005  0.6855
  229MOL0     H30177   0.816   6.667   3.627 -1.0959  1.8668  4.0840
  229MOL0     H30178   0.790   6.490   3.599 -0.9326 -1.0768  0.4727
  229MOL0     H30179   0.590   6.685   3.698  0.0906 -0.5090  1.8088
  229MOL0     H30180   0.561   6.503   3.715 -1.2712 -0.3067 -1.7978
  229MOL0     H30181   0.357   6.492   3.593 -1.5539  5.6294  1.6835
  229MOL0     H30182   0.214   6.471   3.322 -1.0903 -1.1269  0.1542
  229MOL0     H30183   0.262   6.321   3.388  0.2444  1.8328  1.7856
  229MOL0     H30184   0.377   6.464   3.124  1.8581  0.1396  2.3642
  229MOL0     H30185   0.231   6.370   3.122 -0.0477 -1.0507  0.9846
  229MOL0     H30186   0.517   6.267   3.179  0.2861  0.0923  0.0143
  229MOL0     H30187   0.370   6.174   3.210  2.3373 -1.2213 -1.2015
  229MOL0     H30188   0.422   6.268   2.928 -3.2739 -1.9028 -2.5765
  229MOL0     H30189   0.306   6.156   2.992 -0.1910  0.2878  2.3321
  229MOL0     H30190   0.647   6.270   2.943 -1.2229 -0.2499 -1.0022
  229MOL0     H30191   0.872   6.270   2.955 -2.0511 -1.0313 -2.9769
  229MOL0     H30192   1.243   6.174   2.818 -0.6034 -1.1327  0.3534
  229MOL0     H30193   1.486   6.172   2.807 -1.7988 -3.2582 -0.0178
  229MOL0     H30194   1.713   6.184   3.200 -1.2604  1.4971  1.2355
  229MOL0     H30195   1.715   6.348   3.137 -2.1448 -1.0970  0.5082
  229MOL0     H30196   1.911   6.133   3.059  0.7020  0.5310 -0.3923
  229MOL0     H30197   1.946   6.272   3.159 -0.4917 -2.6787  2.0883
  229MOL0     H30198   1.898   6.432   2.982  2.1912  0.0353  1.6772
  229MOL0     H30199   1.864   6.287   2.871  4.8457 -2.5106 -1.9684
  229MOL0     H30200   2.137   6.349   2.986 -0.0842  0.9884 -0.7381
  229MOL0     H30201   2.078   6.209   2.911 -1.1823 -0.7921 -0.2007
  229MOL0     H30202   2.033   6.453   2.750  0.2160  0.3002  1.0803
  229MOL0     H30203   2.053   6.287   2.706 -2.1877  0.9188  0.2900
  229MOL0     H30204   2.281   6.301   2.808 -1.1657 -1.0508 -0.3936
  229MOL0     H30205   2.245   6.476   2.848 -1.5936  0.2517  0.2907
  229MOL0     H30206   2.200   6.425   2.562 -1.5536  4.1760  0.3320
  229MOL0     H30207   2.290   6.549   2.637 -1.7249 -0.8103  1.4960
  229MOL0     H30208   2.489   6.414   2.652  1.2030 -2.4459 -0.8218
  229MOL0     H30209   2.433   6.427   2.484 -2.3721  2.0199  0.0720
  229MOL0     H30210   1.491   6.286   3.226 -1.1215  0.3273  0.1933
  229MOL0     H30211   1.241   6.252   3.228 -1.4438 -1.8103  0.1490
  229MOL0     H30212   0.860   5.857   3.111 -2.8270 -1.3028 -0.6270
  229MOL0     H30213   0.631   5.870   3.092 -0.4261  0.5153 -0.5307
  229MOL0     H30214   1.380   6.784   3.979 -1.8490  0.8118  1.4621
  229MOL0     H30215   1.620   6.847   3.983 -2.0725  1.5712  0.7062
  229MOL0     H30216   2.006   7.127   4.133 -0.6250  0.9887 -4.4477
  229MOL0     H30217   2.239   7.150   4.090  2.1640  0.1022  2.1065
  229MOL0     H30218   2.604   6.987   4.113 -0.0663 -2.0704 -1.5669
  229MOL0     H30219   2.479   7.059   4.209  1.7352  3.4318 -0.2625
  229MOL0     H30220   2.519   7.150   3.920 -0.2096 -0.7772  0.8984
  229MOL0     H30221   2.412   7.218   4.044 -0.0738  0.7645 -2.3457
  229MOL0     H30222   2.711   7.206   4.085 -2.0804 -2.4963 -1.0678
  229MOL0     H30223   2.595   7.291   4.186  1.1966  0.1544  0.4843
  229MOL0     H30224   2.620   7.384   3.898  0.4046 -0.3373 -0.2225
  229MOL0     H30225   2.525   7.454   4.023 -0.5377  1.4081 -4.3299
  229MOL0     H30226   2.922   7.584   4.119  1.1301 -0.6296 -0.5093
  229MOL0     H30227   2.297   6.727   4.077  1.2218  0.2355  2.0977
  229MOL0     H30228   2.049   6.692   4.121  2.7487  0.4658  0.0949
  230MOL0     O30229   3.075   4.741   7.483 -0.2040 -0.1391 -0.0269
  230MOL0     C30230   3.169   4.795   7.542  0.6628 -0.1455 -0.0328
  230MOL0     O30231   3.161   4.905   7.620  0.1319  0.1134 -0.6951
  230MOL0     C30232   3.036   4.950   7.648  0.3361  0.3369  0.3895
  230MOL0     C30233   3.019   5.088   7.644 -0.0099 -0.2538 -0.2731
  230MOL0     C30234   2.897   5.150   7.685 -0.9624 -0.2684  0.0992
  230MOL0     C30235   2.786   5.084   7.732  0.8910  0.0005  1.1790
  230MOL0     O30236   2.665   5.144   7.770 -0.0900 -0.1693 -0.1059
  230MOL0     C30237   2.620   5.246   7.678  0.2223  0.4928 -0.0875
  230MOL0     C30238   2.477   5.293   7.714  0.5061  0.0273 -0.7079
  230MOL0     C30239   2.391   5.192   7.796 -0.1575  0.9384  1.0357
  230MOL0     C30240   2.243   5.246   7.814 -0.3010  0.6237 -0.0990
  230MOL0     C30241   2.147   5.138   7.881  0.4295 -0.5156  0.5456
  230MOL0     C30242   2.002   5.171   7.851 -0.6306 -0.1507  0.0791
  230MOL0     C30243   1.907   5.121   7.964 -0.0701 -0.0037 -0.4811
  230MOL0     C30244   1.771   5.179   7.939  1.0331 -1.3597  0.3885
  230MOL0     N30245   1.692   5.137   7.818 -0.2113 -0.2605 -0.3049
  230MOL0     C30246   1.615   5.017   7.809 -0.2426 -0.0215 -0.4134
  230MOL0     C30247   1.577   5.014   7.681  0.7780 -0.0301 -0.0897
  230MOL0     C30248   1.467   4.926   7.619 -0.3309  0.2817 -0.3928
  230MOL0     C30249   1.523   4.823   7.532  0.1586  0.0503  0.2040
  230MOL0     C30250   1.611   4.704   7.583  0.2822 -0.2496 -1.0280
  230MOL0     C30251   1.765   4.719   7.567  0.9044 -0.1998 -1.0779
  230MOL0     O30252   1.831   4.595   7.591  0.0554 -0.3814 -0.2093
  230MOL0     C30253   1.960   4.576   7.561 -0.7623 -0.9808  0.0061
  230MOL0     C30254   2.012   4.457   7.609  0.0196 -0.5167 -1.0869
  230MOL0     C30255   2.148   4.426   7.584 -0.2222 -0.6605 -0.6523
  230MOL0     C30256   2.234   4.504   7.495  0.3049 -0.4666 -0.8506
  230MOL0     C30257   2.371   4.474   7.454 -0.2937 -0.0469 -0.0408
  230MOL0     O30258   2.430   4.551   7.358  0.7056  0.0328  0.5870
  230MOL0     C30259   2.554   4.527   7.318 -0.1383 -0.3978  0.4425
  230MOL0     C30260   2.654   4.533   7.410 -0.1263 -0.2514 -0.6350
  230MOL0     C30261   2.785   4.512   7.377 -0.5318  1.5292  0.9041
  230MOL0     C30262   2.821   4.489   7.247  0.0120 -0.0212  0.7730
  230MOL0     O30263   2.955   4.465   7.217 -0.0660 -0.0278 -0.3631
  230MOL0     C30264   2.989   4.441   7.082  0.3650 -0.3155 -0.4222
  230MOL0     C30265   3.136   4.443   7.053  0.5959 -0.7517  0.3457
  230MOL0     C30266   3.188   4.581   7.104 -0.3138 -0.1667  1.3183
  230MOL0     C30267   3.333   4.619   7.066  0.3354  0.3840 -0.0970
  230MOL0     C30268   3.365   4.756   7.104  0.2009  1.0645 -0.6619
  230MOL0     C30269   3.508   4.787   7.068 -0.5182  0.1438  0.4411
  230MOL0     C30270   3.534   4.944   7.081  0.2173  0.4095 -0.1190
  230MOL0     C30271   3.654   4.987   6.988  0.2454 -0.1536  0.1003
  230MOL0    Cl30272   3.625   4.965   6.813 -0.4221  0.1254 -0.3591
  230MOL0     C30273   2.722   4.477   7.151  0.4444  0.1393 -0.6083
  230MOL0     C30274   2.591   4.493   7.190  1.0043 -0.2291 -0.0456
  230MOL0     O30275   2.424   4.374   7.508 -0.1890  0.0806 -0.3378
  230MOL0     C30276   2.175   4.628   7.450 -0.0088 -0.0896 -0.7783
  230MOL0     C30277   2.049   4.667   7.491  0.7157  0.8974  0.2232
  230MOL0     N30278   1.642   5.116   7.618 -0.5212 -0.7428  0.7901
  230MOL0     N30279   1.707   5.195   7.693 -0.3653  0.4248 -0.4494
  230MOL0     C30280   2.805   4.944   7.736  0.5558 -0.2426 -0.3318
  230MOL0     C30281   2.928   4.883   7.699 -0.5063 -0.2444 -0.8150
  230MOL0     C30282   3.302   4.757   7.509 -0.3498  0.5590  0.0966
  230MOL0     C30283   3.405   4.854   7.515  0.3860  0.8445  0.5897
  230MOL0     C30284   3.535   4.825   7.488 -1.1038  0.5226  0.2844
  230MOL0     C30285   3.573   4.686   7.447  0.2132 -0.5474 -0.2188
  230MOL0     O30286   3.699   4.634   7.421  0.0329 -0.2633 -0.7190
  230MOL0     C30287   3.816   4.714   7.416  0.0356  0.0499  0.4333
  230MOL0     C30288   3.943   4.633   7.382  0.2046  0.1165 -0.0364
  230MOL0     C30289   3.909   4.508   7.299 -0.0123 -0.0454 -0.4373
  230MOL0     C30290   4.029   4.459   7.203 -0.6531 -0.3929  0.4195
  230MOL0     C30291   4.161   4.484   7.279  1.0839  0.9350  0.2019
  230MOL0     C30292   4.263   4.501   7.341  0.6429 -1.6945 -0.2530
  230MOL0     C30293   3.476   4.584   7.439  0.3211  0.1160 -0.7088
  230MOL0     C30294   3.340   4.616   7.475 -0.6414 -1.3642  0.1816
  230MOL0     H30295   3.108   5.146   7.620 -1.3051  1.2259 -1.7613
  230MOL0     H30296   2.898   5.258   7.696 -1.8211  0.2213 -3.4422
  230MOL0     H30297   2.605   5.209   7.577  1.6955 -2.8431  0.7906
  230MOL0     H30298   2.692   5.328   7.664  3.1929 -1.7231  1.0275
  230MOL0     H30299   2.425   5.343   7.631 -0.7665  0.8744  0.5440
  230MOL0     H30300   2.496   5.374   7.786  0.1491 -0.8636  0.4063
  230MOL0     H30301   2.448   5.168   7.887 -0.8436 -1.5055  0.9006
  230MOL0     H30302   2.373   5.098   7.742 -0.3566  0.6502  1.5881
  230MOL0     H30303   2.246   5.342   7.867  2.1241  0.5678 -0.0553
  230MOL0     H30304   2.203   5.273   7.716 -1.0249 -3.2002 -1.0206
  230MOL0     H30305   2.147   5.145   7.990  0.1880 -3.0560  0.7624
  230MOL0     H30306   2.178   5.039   7.848  2.7649  0.7839 -1.4475
  230MOL0     H30307   1.976   5.142   7.749  3.4901 -1.6218 -0.7617
  230MOL0     H30308   1.997   5.280   7.857  2.0955  0.0032  1.5871
  230MOL0     H30309   1.898   5.013   7.948  1.3406  0.1395 -2.6304
  230MOL0     H30310   1.928   5.142   8.070 -2.1193 -0.0447 -0.0242
  230MOL0     H30311   1.780   5.288   7.930  0.0626 -1.4033 -1.6470
  230MOL0     H30312   1.705   5.160   8.025  1.4650 -1.3216  0.7357
  230MOL0     H30313   1.596   4.962   7.901  3.0604  2.6630  2.1120
  230MOL0     H30314   1.409   5.000   7.564  1.0887  0.8775 -1.1426
  230MOL0     H30315   1.416   4.874   7.701  2.0196 -1.5786 -0.0090
  230MOL0     H30316   1.581   4.874   7.455 -1.3613 -0.0143 -1.0292
  230MOL0     H30317   1.445   4.777   7.471  2.2907 -1.6602 -1.4255
  230MOL0     H30318   1.583   4.665   7.681  3.7565 -0.5767 -0.0474
  230MOL0     H30319   1.579   4.623   7.517 -0.5772 -1.4613  0.7900
  230MOL0     H30320   1.784   4.795   7.643 -0.2898 -1.7938  0.8986
  230MOL0     H30321   1.792   4.755   7.467  0.8780  1.7701 -0.4132
  230MOL0     H30322   1.947   4.385   7.659  0.3087 -0.6757 -0.9384
  230MOL0     H30323   2.172   4.329   7.628 -0.5519 -0.5650 -0.2586
  230MOL0     H30324   2.632   4.584   7.504 -0.2842  3.5753 -2.5704
  230MOL0     H30325   2.874   4.523   7.438 -0.3735  1.5678  0.6655
  230MOL0     H30326   2.949   4.516   7.013  1.8700 -0.3058 -1.3281
  230MOL0     H30327   2.940   4.348   7.052 -0.3249 -0.4199  0.9464
  230MOL0     H30328   3.148   4.443   6.944  1.2364 -1.6791  0.4043
  230MOL0     H30329   3.197   4.360   7.089  1.4719 -0.4094 -0.3157
  230MOL0     H30330   3.183   4.581   7.213 -0.0364  1.4866  1.3595
  230MOL0     H30331   3.129   4.657   7.052  0.5127 -1.4646 -1.7579
  230MOL0     H30332   3.410   4.552   7.104  1.3378  1.0951 -0.8239
  230MOL0     H30333   3.345   4.622   6.957  2.5486  1.1070  0.1189
  230MOL0     H30334   3.350   4.781   7.209 -0.4424 -1.5625 -0.0685
  230MOL0     H30335   3.291   4.823   7.058  0.5055  1.8709  0.0035
  230MOL0     H30336   3.531   4.752   6.968  0.2630  0.0480  0.6459
  230MOL0     H30337   3.571   4.735   7.141 -1.6769 -1.3548  0.4080
  230MOL0     H30338   3.448   4.997   7.041  0.1764  0.8022  0.4835
  230MOL0     H30339   3.541   4.979   7.184 -2.4350  1.8861 -0.3619
  230MOL0     H30340   3.743   4.929   7.013  0.1861 -0.5087 -0.4834
  230MOL0     H30341   3.677   5.092   7.006  1.9236 -0.3394 -0.7719
  230MOL0     H30342   2.743   4.467   7.045 -3.2883  0.6285 -1.5373
  230MOL0     H30343   2.508   4.486   7.120  2.0385  2.8564 -1.8204
  230MOL0     H30344   2.244   4.693   7.397  1.7153 -0.3443  1.0020
  230MOL0     H30345   2.014   4.765   7.461  1.5570  0.9084 -0.7570
  230MOL0     H30346   2.723   4.886   7.776  2.3598 -0.8347  2.9311
  230MOL0     H30347   2.934   4.780   7.732  1.4199  0.2344  0.5950
  230MOL0     H30348   3.385   4.958   7.537  0.5255  0.9522  0.2237
  230MOL0     H30349   3.621   4.890   7.500 -0.1097 -0.0020 -2.8866
  230MOL0     H30350   3.828   4.772   7.508  1.2368 -0.5235  0.6516
  230MOL0     H30351   3.795   4.780   7.331 -0.0941 -1.2153 -0.5404
  230MOL0     H30352   4.010   4.695   7.321  2.8394 -0.0825  2.4533
  230MOL0     H30353   4.000   4.608   7.471 -2.4064 -1.4979  1.3075
  230MOL0     H30354   3.828   4.533   7.230 -1.5947 -1.3103  0.8697
  230MOL0     H30355   3.868   4.430   7.364 -2.1790 -0.1629 -1.8580
  230MOL0     H30356   4.011   4.353   7.185  2.3966 -1.5619  3.2697
  230MOL0     H30357   4.031   4.501   7.102  3.5435 -2.0077 -0.3621
  230MOL0     H30358   4.348   4.539   7.394  2.1463 -3.4437 -1.2511
  230MOL0     H30359   3.510   4.484   7.415  0.8212 -0.1398  0.9184
  230MOL0     H30360   3.262   4.542   7.486 -1.1162 -1.4433 -3.0245
  231MOL0     O30361   3.654   3.600   3.043 -0.5689 -0.1336 -0.7302
  231MOL0     C30362   3.674   3.481   3.066  0.1040 -0.0347 -0.1207
  231MOL0     O30363   3.793   3.411   3.092  0.2530  0.0411  0.0388
  231MOL0     C30364   3.905   3.471   3.081 -0.4553 -0.9586  1.3061
  231MOL0     C30365   3.935   3.564   2.978  0.0101  0.7476 -0.3957
  231MOL0     C30366   4.065   3.628   2.975  1.2256  0.9643 -0.8010
  231MOL0     C30367   4.165   3.581   3.059  0.1188  0.3414  0.4150
  231MOL0     O30368   4.290   3.653   3.049  1.3123  0.6770  0.6425
  231MOL0     C30369   4.383   3.647   3.150  0.4227 -0.5412 -0.0996
  231MOL0     C30370   4.502   3.739   3.118 -0.2536 -0.2988 -0.5300
  231MOL0     C30371   4.622   3.711   3.205  0.0876  1.2019 -0.1158
  231MOL0     C30372   4.734   3.813   3.187  0.0289  0.5921  0.3560
  231MOL0     C30373   4.810   3.840   3.316  0.1500 -0.0419 -0.0718
  231MOL0     C30374   4.912   3.950   3.278 -0.4432 -0.0516  0.2840
  231MOL0     C30375   5.015   3.977   3.393 -0.0074  0.6187  0.0840
  231MOL0     C30376   5.071   4.127   3.396  0.1214  0.6655  1.8878
  231MOL0     N30377   5.176   4.159   3.487  0.4596 -0.0777  0.9416
  231MOL0     C30378   5.296   4.097   3.497 -0.3225 -0.2597  0.2343
  231MOL0     C30379   5.362   4.159   3.593 -0.6683 -0.6987 -0.5237
  231MOL0     C30380   5.506   4.138   3.645 -0.0357  0.2907  1.3757
  231MOL0     C30381   5.603   4.241   3.595 -0.1338 -0.4486 -0.1132
  231MOL0     C30382   5.593   4.385   3.649 -0.1400 -0.3470 -0.1769
  231MOL0     C30383   5.686   4.481   3.563  0.7532  0.6218 -0.7338
  231MOL0     O30384   5.809   4.418   3.561 -0.2328 -0.2550 -0.5319
  231MOL0     C30385   5.920   4.493   3.546 -1.0421  0.0739  0.1058
  231MOL0     C30386   5.944   4.587   3.640 -1.0614 -0.8732 -0.6256
  231MOL0     C30387   6.071   4.648   3.644 -0.0196  0.0425 -0.3294
  231MOL0     C30388   6.178   4.612   3.557  0.7100 -0.3878 -0.4601
  231MOL0     C30389   6.303   4.687   3.552 -0.3733  1.2943 -0.5427
  231MOL0     O30390   6.405   4.644   3.477  0.5226  0.3298  0.3685
  231MOL0     C30391   6.532   4.687   3.470  0.4475  1.1146 -0.5156
  231MOL0     C30392   6.582   4.814   3.464 -0.5854  1.1507  0.3310
  231MOL0     C30393   6.725   4.836   3.472  0.7087  1.0417 -0.0350
  231MOL0     C30394   6.814   4.736   3.494 -0.3813 -0.6795 -0.5479
  231MOL0     O30395   6.941   4.783   3.507 -0.1868 -0.6071 -1.3122
  231MOL0     C30396   7.048   4.695   3.460  0.8945 -0.3346 -0.0031
  231MOL0     C30397   7.091   4.596   3.561  0.8430 -1.1994 -0.7982
  231MOL0     C30398   7.119   4.456   3.507  0.0879  0.6767 -0.4316
  231MOL0     C30399   7.129   4.356   3.617 -0.0169  0.2186 -1.8702
  231MOL0     C30400   7.241   4.369   3.724  0.2227 -0.3249 -1.0328
  231MOL0     C30401   7.370   4.318   3.663 -0.5442  0.6450 -0.5197
  231MOL0     C30402   7.494   4.358   3.758 -0.1653  0.2300 -0.5842
  231MOL0     C30403   7.626   4.334   3.693  0.2310  0.5689 -0.2060
  231MOL0    Cl30404   7.668   4.451   3.553 -0.3450  0.1970  0.1563
  231MOL0     C30405   6.761   4.609   3.492  1.0221 -0.0501  0.1060
  231MOL0     C30406   6.623   4.582   3.480 -0.3256 -0.2189 -1.1555
  231MOL0     O30407   6.318   4.779   3.633 -0.2513 -0.0714  0.1464
  231MOL0     C30408   6.143   4.517   3.457  0.4809 -1.3113 -0.1707
  231MOL0     C30409   6.024   4.446   3.461 -1.0375 -0.2108 -0.3609
  231MOL0     N30410   5.290   4.270   3.635 -0.2428 -0.2442 -0.7771
  231MOL0     N30411   5.179   4.260   3.570  0.0273 -1.0978 -0.3342
  231MOL0     C30412   4.136   3.484   3.153 -0.2762  0.5473  0.9875
  231MOL0     C30413   4.014   3.425   3.154 -0.7285  1.1314  0.9996
  231MOL0     C30414   3.556   3.398   3.075 -0.2687  0.4051 -0.1733
  231MOL0     C30415   3.425   3.448   3.076  0.4063  0.5839 -0.1132
  231MOL0     C30416   3.315   3.365   3.093 -0.2932  0.1922 -0.2876
  231MOL0     C30417   3.333   3.231   3.121  0.4227 -0.0722 -1.1014
  231MOL0     O30418   3.216   3.162   3.150 -0.2925 -0.0014 -0.9453
  231MOL0     C30419   3.185   3.039   3.092 -0.2008 -0.0322 -0.8446
  231MOL0     C30420   3.034   3.041   3.057 -1.0537  1.0350  0.4669
  231MOL0     C30421   2.948   2.959   3.161 -0.9574 -0.9806  0.5211
  231MOL0     C30422   2.827   2.925   3.092 -0.2632  0.0540  0.7778
  231MOL0     C30423   2.716   3.020   3.084 -0.2019 -0.3876 -0.7072
  231MOL0     C30424   2.630   3.100   3.064 -0.1355 -0.1380  0.3785
  231MOL0     C30425   3.455   3.184   3.146 -0.2642 -0.0016 -0.5949
  231MOL0     C30426   3.568   3.265   3.112 -0.0151  0.8382 -0.4987
  231MOL0     H30427   3.858   3.592   2.907 -1.0843  0.3443  0.5972
  231MOL0     H30428   4.084   3.701   2.897 -0.5967  0.5735 -1.6528
  231MOL0     H30429   4.421   3.545   3.156  1.5346 -0.2835 -1.8868
  231MOL0     H30430   4.332   3.682   3.240 -0.3054 -3.1877  0.5921
  231MOL0     H30431   4.468   3.838   3.150  0.7879 -0.1589  0.1978
  231MOL0     H30432   4.532   3.736   3.013  0.7609 -3.2745 -0.2600
  231MOL0     H30433   4.662   3.610   3.196  1.2008  1.6997 -1.0142
  231MOL0     H30434   4.573   3.729   3.301 -0.2252  0.0005 -0.0365
  231MOL0     H30435   4.796   3.783   3.102 -1.2021  1.0765 -0.7313
  231MOL0     H30436   4.689   3.911   3.167  1.3508  0.8699 -1.5775
  231MOL0     H30437   4.853   3.751   3.362  1.3512  1.4679  1.8518
  231MOL0     H30438   4.740   3.883   3.388  0.5231  1.4016 -0.5421
  231MOL0     H30439   4.867   4.048   3.257  2.2912  0.6987 -2.9790
  231MOL0     H30440   4.965   3.921   3.187  1.2757  1.5713  0.6910
  231MOL0     H30441   4.968   3.963   3.491 -0.7377  0.6260 -0.2649
  231MOL0     H30442   5.096   3.903   3.397 -1.6792 -1.5158 -2.1890
  231MOL0     H30443   4.980   4.189   3.401 -0.2567  0.9486 -3.2678
  231MOL0     H30444   5.124   4.144   3.302  0.4639 -1.3811  1.6742
  231MOL0     H30445   5.338   4.009   3.449  1.5599 -0.6717  2.4595
  231MOL0     H30446   5.540   4.039   3.612  2.6894  0.0427  4.4235
  231MOL0     H30447   5.523   4.117   3.751  2.1854 -1.1754  0.8054
  231MOL0     H30448   5.597   4.236   3.486 -2.1502 -3.4409  0.0160
  231MOL0     H30449   5.702   4.210   3.630  0.5962  0.5233 -1.2377
  231MOL0     H30450   5.491   4.423   3.661  0.7919  2.6889 -0.9263
  231MOL0     H30451   5.630   4.389   3.752 -1.9370 -0.5431  0.5169
  231MOL0     H30452   5.683   4.579   3.610 -1.2316  0.4221 -0.3507
  231MOL0     H30453   5.657   4.497   3.459 -0.0934  1.2776 -0.4011
  231MOL0     H30454   5.876   4.620   3.717  2.4678 -1.8767  3.2711
  231MOL0     H30455   6.077   4.730   3.715 -1.3629 -0.2720  0.1737
  231MOL0     H30456   6.513   4.895   3.440 -0.5125  1.4733  1.1962
  231MOL0     H30457   6.754   4.940   3.464  1.3040  0.8719 -0.1702
  231MOL0     H30458   7.129   4.749   3.411 -0.5253  0.4339 -1.5931
  231MOL0     H30459   7.007   4.646   3.372  0.6044  0.3273 -0.2468
  231MOL0     H30460   7.018   4.588   3.641  2.9272  1.7433  1.6355
  231MOL0     H30461   7.182   4.642   3.600  1.1574  0.7651 -3.5524
  231MOL0     H30462   7.213   4.449   3.452 -0.3859  0.6912 -1.2545
  231MOL0     H30463   7.037   4.424   3.442  0.0984  1.1409 -0.6774
  231MOL0     H30464   7.033   4.346   3.669  0.5764  0.3369 -0.7141
  231MOL0     H30465   7.149   4.257   3.574  4.2109 -0.3886  0.8063
  231MOL0     H30466   7.219   4.316   3.817 -2.3549  1.6733 -0.3661
  231MOL0     H30467   7.249   4.474   3.752 -1.9317 -1.1591  3.6319
  231MOL0     H30468   7.396   4.352   3.562 -0.9402  0.7135 -0.5981
  231MOL0     H30469   7.363   4.209   3.658 -1.5632  0.6386  0.7323
  231MOL0     H30470   7.484   4.463   3.788  0.5698  0.3513 -0.7373
  231MOL0     H30471   7.476   4.299   3.849 -0.5372  1.3795  0.1260
  231MOL0     H30472   7.647   4.229   3.672  0.2070 -0.1976  3.0746
  231MOL0     H30473   7.707   4.337   3.767 -1.7012 -1.1422  2.1676
  231MOL0     H30474   6.837   4.532   3.497  1.8178  0.6694 -0.4894
  231MOL0     H30475   6.603   4.476   3.481  1.4212 -0.6072  1.1386
  231MOL0     H30476   6.216   4.487   3.383 -0.5365 -2.5236 -0.7102
  231MOL0     H30477   6.006   4.352   3.410 -1.5301  0.5916 -1.6894
  231MOL0     H30478   4.212   3.459   3.227  0.6419  2.5948  0.8257
  231MOL0     H30479   3.991   3.345   3.224  0.4873 -0.5900 -0.4981
  231MOL0     H30480   3.419   3.556   3.076  0.9878  0.7014  2.7370
  231MOL0     H30481   3.215   3.408   3.091  0.5152  2.1389 -0.4309
  231MOL0     H30482   3.205   2.961   3.165 -1.9926  0.1694 -0.0926
  231MOL0     H30483   3.239   3.014   3.000 -0.8699 -0.4775 -1.1246
  231MOL0     H30484   2.995   3.139   3.031  0.1473  3.0699  5.1827
  231MOL0     H30485   3.027   2.989   2.961  0.7099  1.4523  0.0917
  231MOL0     H30486   2.932   3.014   3.255  0.3384  3.1544 -1.4570
  231MOL0     H30487   3.006   2.869   3.184  0.6669 -0.1264 -0.0674
  231MOL0     H30488   2.840   2.894   2.988 -0.6827  2.0741  0.0621
  231MOL0     H30489   2.795   2.834   3.142  1.9872 -0.8168  0.7224
  231MOL0     H30490   2.547   3.167   3.057 -3.2405 -3.3279  3.1828
  231MOL0     H30491   3.487   3.086   3.179  0.4141  0.3795 -0.0911
  231MOL0     H30492   3.661   3.212   3.129 -0.4749  0.3288  0.5336
  232MOL0     O30493   4.663   0.838   9.880 -0.1703  0.2273 -0.0440
  232MOL0     C30494   4.658   0.817   9.754 -0.0976 -0.6643  0.4864
  232MOL0     O30495   4.744   0.748   9.683  0.1006  0.7794  1.2342
  232MOL0     C30496   4.835   0.670   9.749  0.5124  0.0354  0.6188
  232MOL0     C30497   4.794   0.555   9.834 -0.0426  0.1815 -0.5435
  232MOL0     C30498   4.886   0.480   9.900 -0.1851 -0.4155  0.3713
  232MOL0     C30499   5.029   0.497   9.875  1.3681  0.3145 -0.2245
  232MOL0     O30500   5.114   0.413   9.951  0.1708  0.2242 -0.2698
  232MOL0     C30501   5.248   0.413   9.893  0.0645 -0.1000  0.2262
  232MOL0     C30502   5.324   0.310   9.973 -0.0985  0.7329  0.1584
  232MOL0     C30503   5.470   0.334   9.943  0.0522  0.1658  0.3833
  232MOL0     C30504   5.551   0.211  10.000 -0.9017 -0.1649 -0.7385
  232MOL0     C30505   5.710   0.228   9.984  0.5035 -1.0296  0.6042
  232MOL0     C30506   5.789   0.108  10.052  0.1142 -0.8941  0.9475
  232MOL0     C30507   5.937   0.126  10.044 -1.4973 -0.3058 -0.0911
  232MOL0     C30508   6.001   0.059  10.164 -0.7115 -0.2249  0.0878
  232MOL0     N30509   6.153   0.033  10.138  0.3668 -0.0666 -0.5382
  232MOL0     C30510   6.264   0.113  10.167  0.1940  0.7740  0.6595
  232MOL0     C30511   6.370   0.032  10.146 -0.1863  0.1190  0.0356
  232MOL0     C30512   6.507   0.050  10.192  0.1042  0.0257  0.8400
  232MOL0     C30513   6.596   0.131  10.089  0.6313  0.3922 -0.4028
  232MOL0     C30514   6.666   0.040   9.993 -0.5277  0.9214  0.1626
  232MOL0     C30515   6.724   0.107   9.874  0.3010  0.3123 -0.1243
  232MOL0     O30516   6.812   0.221   9.915  0.1730  0.3546  0.7197
  232MOL0     C30517   6.944   0.206   9.931  0.0455 -0.4348  0.5845
  232MOL0     C30518   6.997   0.311   9.989 -0.1326  1.1700  0.5175
  232MOL0     C30519   7.133   0.329  10.017  1.3038 -0.5322 -0.1296
  232MOL0     C30520   7.213   0.218  10.003  0.1969  0.0246 -0.6229
  232MOL0     C30521   7.357   0.223  10.021  0.9951  0.1116  0.4268
  232MOL0     O30522   7.436   0.119   9.987 -0.7073 -0.4903  0.7920
  232MOL0     C30523   7.569   0.119   9.993 -0.5839 -0.5789  1.1784
  232MOL0     C30524   7.644   0.235   9.985  0.2909 -0.9668 -0.1867
  232MOL0     C30525   7.787   0.226   9.983  0.3411 -0.7422  0.4324
  232MOL0     C30526   7.854   0.100   9.985  0.1700 -0.9964  0.2505
  232MOL0     O30527   7.991   0.080   9.974  0.6404 -0.1379 -0.3398
  232MOL0     C30528   8.080   0.175  10.037 -0.6725 -0.2972  0.2456
  232MOL0     C30529   8.203   0.092  10.069 -1.1917  0.6534  0.0665
  232MOL0     C30530   8.175  -0.009  10.177 -0.7494  0.3172  0.2884
  232MOL0     C30531   8.293  -0.101  10.218  0.1204 -0.5320  0.3814
  232MOL0     C30532   8.249  -0.213  10.293 -0.4394 -0.1550  0.7256
  232MOL0     C30533   8.359  -0.318  10.310  0.5885  0.6697  0.3029
  232MOL0     C30534   8.302  -0.445  10.382  0.0395 -0.4087 -0.4460
  232MOL0     C30535   8.398  -0.565  10.416 -0.5065 -0.6963 -0.0911
  232MOL0    Cl30536   8.492  -0.597  10.265  0.2176 -0.0233 -0.1926
  232MOL0     C30537   7.768  -0.007  10.000 -0.1173  0.3413  1.2263
  232MOL0     C30538   7.631  -0.007   9.994 -0.2200 -0.8546  0.3987
  232MOL0     O30539   7.387   0.317  10.088 -0.3163 -0.8675 -0.6262
  232MOL0     C30540   7.157   0.098   9.957  0.0934  1.0208 -0.4083
  232MOL0     C30541   7.022   0.091   9.919 -0.3223  0.9097 -0.2234
  232MOL0     N30542   6.320  -0.094  10.110  0.2641  0.3512  0.3321
  232MOL0     N30543   6.188  -0.094  10.088 -0.3392 -0.5582 -0.3020
  232MOL0     C30544   5.071   0.594   9.780 -0.4210 -0.2837 -0.2182
  232MOL0     C30545   4.969   0.682   9.719  0.0173 -0.0637 -0.5595
  232MOL0     C30546   4.549   0.898   9.675  0.0878  0.3866  0.1803
  232MOL0     C30547   4.477   0.995   9.751 -0.0416  0.7078 -0.2205
  232MOL0     C30548   4.374   1.064   9.690 -0.7480  0.3755 -0.7114
  232MOL0     C30549   4.350   1.047   9.553 -1.1818  0.5838 -0.4078
  232MOL0     O30550   4.245   1.099   9.488 -0.4890  0.0200 -0.2712
  232MOL0     C30551   4.219   1.238   9.500  0.7255 -0.0707  0.1405
  232MOL0     C30552   4.325   1.321   9.435 -0.1920  0.4406 -0.2286
  232MOL0     C30553   4.370   1.278   9.295 -0.4165  0.4701 -0.0538
  232MOL0     C30554   4.478   1.369   9.243  0.2485 -0.2965 -0.0861
  232MOL0     C30555   4.442   1.508   9.244 -0.3582  0.0667  0.4257
  232MOL0     C30556   4.431   1.631   9.256 -0.1181  0.3306 -0.5637
  232MOL0     C30557   4.428   0.961   9.474 -0.1247 -0.1287 -0.0132
  232MOL0     C30558   4.527   0.886   9.534  0.5212 -0.9075  0.0031
  232MOL0     H30559   4.691   0.550   9.868  0.6351  1.4932  1.9249
  232MOL0     H30560   4.857   0.422   9.987  0.8044 -1.5313 -0.0102
  232MOL0     H30561   5.293   0.512   9.906 -3.1150  1.3051  1.6234
  232MOL0     H30562   5.244   0.388   9.787 -1.8407 -3.5373  0.9684
  232MOL0     H30563   5.286   0.215   9.934 -1.6877  2.4557 -2.8691
  232MOL0     H30564   5.306   0.309  10.081 -2.3782  4.6014 -0.0064
  232MOL0     H30565   5.504   0.430   9.983  0.6847  0.0667  0.0901
  232MOL0     H30566   5.481   0.337   9.834  3.3827 -4.9739  0.2686
  232MOL0     H30567   5.534   0.199  10.107 -0.5897  1.2196 -0.5085
  232MOL0     H30568   5.519   0.121   9.947  1.0307 -0.9898 -0.5738
  232MOL0     H30569   5.731   0.328  10.022 -3.0038  0.1273 -0.1817
  232MOL0     H30570   5.733   0.222   9.877 -0.1467 -1.7041  0.4934
  232MOL0     H30571   5.754   0.012  10.013 -1.7207 -0.0433  0.3876
  232MOL0     H30572   5.755   0.108  10.156 -3.6366  0.2394 -0.1328
  232MOL0     H30573   5.979   0.089   9.950 -0.5257  3.2814 -1.2114
  232MOL0     H30574   5.969   0.230  10.058 -0.9582 -0.4937  0.0829
  232MOL0     H30575   5.954  -0.037  10.190 -0.9703  0.3545  1.8351
  232MOL0     H30576   5.988   0.114  10.257  1.5807  1.5972 -0.5724
  232MOL0     H30577   6.269   0.210  10.216  0.7004  2.3584 -2.2948
  232MOL0     H30578   6.560  -0.045  10.205 -0.5031 -0.9356 -2.6750
  232MOL0     H30579   6.490   0.107  10.284 -0.1247  0.7142  0.3711
  232MOL0     H30580   6.667   0.188  10.151 -0.0823  3.7134 -2.3612
  232MOL0     H30581   6.554   0.215  10.034  1.4421 -0.2943 -2.1263
  232MOL0     H30582   6.741  -0.027  10.037 -0.7592 -0.0707 -0.8935
  232MOL0     H30583   6.594  -0.034   9.956 -1.6318  1.8434  0.4059
  232MOL0     H30584   6.638   0.149   9.820 -1.3572  0.9770  2.7998
  232MOL0     H30585   6.773   0.029   9.815  2.5362  0.1137  1.8911
  232MOL0     H30586   6.931   0.395  10.009  0.7002  2.3873 -1.5553
  232MOL0     H30587   7.154   0.421  10.072 -1.3489 -0.4699  0.8979
  232MOL0     H30588   7.606   0.337   9.980  0.8961 -0.6483  1.0801
  232MOL0     H30589   7.850   0.314   9.978  0.8785 -1.1486 -0.0893
  232MOL0     H30590   8.026   0.217  10.122 -2.5503 -1.5808 -0.2418
  232MOL0     H30591   8.101   0.258   9.969 -2.0923  2.1005  2.5308
  232MOL0     H30592   8.283   0.158  10.104 -1.2455  1.1389 -0.7154
  232MOL0     H30593   8.236   0.028   9.986  0.9793  0.4253  1.0423
  232MOL0     H30594   8.086  -0.068  10.152  0.0313 -0.8976  0.2981
  232MOL0     H30595   8.155   0.045  10.270  0.4261 -0.0057  0.7515
  232MOL0     H30596   8.344  -0.141  10.130  0.7744 -1.4453  1.1631
  232MOL0     H30597   8.356  -0.032  10.275  1.1852 -1.3509  0.2303
  232MOL0     H30598   8.177  -0.272  10.236 -0.1557 -0.1948  0.4060
  232MOL0     H30599   8.197  -0.178  10.383 -0.2515 -0.8859  1.1313
  232MOL0     H30600   8.438  -0.270  10.369  1.2704  2.4777 -1.9519
  232MOL0     H30601   8.402  -0.331  10.211 -0.2293  1.2037 -0.1274
  232MOL0     H30602   8.256  -0.413  10.476 -1.7092 -4.5410  0.3277
  232MOL0     H30603   8.222  -0.492  10.324  1.3520 -2.0010 -1.0391
  232MOL0     H30604   8.351  -0.646  10.473 -1.4050  1.7074  2.8956
  232MOL0     H30605   8.469  -0.528  10.490 -0.0457  1.8219 -1.6832
  232MOL0     H30606   7.805  -0.109  10.006 -2.0060 -0.4538  0.3969
  232MOL0     H30607   7.573  -0.099   9.992 -2.2264  0.3201 -2.3763
  232MOL0     H30608   7.215   0.010   9.933  0.0338  0.2608  1.9598
  232MOL0     H30609   6.991  -0.004   9.876 -0.3271  1.1552 -0.7780
  232MOL0     H30610   5.174   0.618   9.757 -0.4416  1.7462  1.5464
  232MOL0     H30611   5.005   0.762   9.655 -1.9405 -0.6560 -2.5240
  232MOL0     H30612   4.502   1.014   9.855 -1.2650  3.7474 -0.3864
  232MOL0     H30613   4.303   1.121   9.748  2.4190  1.5884  2.2979
  232MOL0     H30614   4.212   1.259   9.607  2.4868  1.2933  0.0373
  232MOL0     H30615   4.126   1.246   9.443 -0.2463  1.6314  1.8103
  232MOL0     H30616   4.289   1.424   9.429 -2.2342 -0.0781  1.8455
  232MOL0     H30617   4.415   1.322   9.497  1.3882 -0.8693 -2.3478
  232MOL0     H30618   4.287   1.265   9.225  2.5401  0.0015 -3.7823
  232MOL0     H30619   4.415   1.178   9.296  1.5919  1.3018  2.1988
  232MOL0     H30620   4.572   1.346   9.295 -1.0094 -3.0133  1.2297
  232MOL0     H30621   4.490   1.343   9.137 -1.1658 -2.0235  0.1299
  232MOL0     H30622   4.431   1.737   9.240 -0.3492  0.1208 -2.0783
  232MOL0     H30623   4.403   0.952   9.369 -1.3875  1.1678  0.1430
  232MOL0     H30624   4.592   0.816   9.481 -0.0948 -0.3426 -1.5733
  233MOL0     O30625   0.908   0.645   2.486 -0.3111 -0.3288 -0.6353
  233MOL0     C30626   0.965   0.660   2.594 -0.5277 -0.3886 -0.0632
  233MOL0     O30627   0.909   0.674   2.717 -0.2387 -0.0604  0.3200
  233MOL0     C30628   0.773   0.683   2.733  0.4040  0.1597  0.7548
  233MOL0     C30629   0.680   0.584   2.693 -0.5178 -0.0433 -0.3028
  233MOL0     C30630   0.550   0.600   2.717 -0.2593 -0.2099  1.3896
  233MOL0     C30631   0.502   0.719   2.775  0.0953  0.4435  1.2732
  233MOL0     O30632   0.368   0.752   2.782 -0.1943 -0.1635  0.2948
  233MOL0     C30633   0.283   0.666   2.856 -0.2658 -0.3701  0.0951
  233MOL0     C30634   0.232   0.764   2.969  0.2628  0.2170 -0.0265
  233MOL0     C30635   0.135   0.858   2.904  0.3767 -0.8564  1.0277
  233MOL0     C30636   0.115   0.978   2.998 -0.5434 -0.5427  0.7783
  233MOL0     C30637   0.043   0.958   3.132 -0.6522  0.6184  0.9428
  233MOL0     C30638  -0.110   0.959   3.108  0.0050 -0.4426 -0.5655
  233MOL0     C30639  -0.199   0.953   3.237 -0.0123  0.5023  0.5690
  233MOL0     C30640  -0.345   0.980   3.191 -1.1412 -0.0636 -0.3660
  233MOL0     N30641  -0.451   0.916   3.271 -0.7514  0.2458 -0.2895
  233MOL0     C30642  -0.487   0.785   3.254  0.1231  1.1956  0.1583
  233MOL0     C30643  -0.579   0.765   3.349  0.3149 -0.2736  0.4686
  233MOL0     C30644  -0.647   0.627   3.345  0.1922 -0.9731 -0.3098
  233MOL0     C30645  -0.799   0.652   3.353  0.6013  0.1194 -0.2764
  233MOL0     C30646  -0.888   0.583   3.250 -0.9825  0.2170  0.0563
  233MOL0     C30647  -0.838   0.601   3.105 -0.2698  0.3631  0.4645
  233MOL0     O30648  -0.942   0.629   3.011 -0.5432  0.5248  0.0619
  233MOL0     C30649  -0.911   0.626   2.878 -0.1171  0.4071 -0.5455
  233MOL0     C30650  -1.027   0.611   2.807  0.6788 -0.0036  0.4228
  233MOL0     C30651  -1.015   0.593   2.668 -0.0620 -0.7605 -0.6292
  233MOL0     C30652  -0.891   0.606   2.596 -0.6104  1.0620 -0.1509
  233MOL0     C30653  -0.881   0.595   2.445  0.2447  0.1275 -0.4081
  233MOL0     O30654  -0.764   0.579   2.392 -0.5337 -0.2743  0.4975
  233MOL0     C30655  -0.728   0.620   2.265 -0.1096  0.3439 -0.0199
  233MOL0     C30656  -0.769   0.558   2.148  0.7829  0.6402  1.6545
  233MOL0     C30657  -0.746   0.625   2.023  0.3202 -0.2337  0.8427
  233MOL0     C30658  -0.681   0.752   2.018 -0.0710  0.4403  0.1594
  233MOL0     O30659  -0.666   0.817   1.899 -0.0601 -0.1610 -0.0823
  233MOL0     C30660  -0.690   0.957   1.904  0.6340 -0.1486  0.7145
  233MOL0     C30661  -0.714   1.010   1.765 -0.5037  0.4745 -0.4169
  233MOL0     C30662  -0.856   1.005   1.713  1.1126 -0.5356  0.2840
  233MOL0     C30663  -0.966   1.081   1.787  0.1011 -0.0314  0.1431
  233MOL0     C30664  -1.084   1.087   1.685  1.2090 -0.8617  0.1774
  233MOL0     C30665  -1.204   1.161   1.743  1.0350 -1.1332  0.1387
  233MOL0     C30666  -1.309   1.200   1.638  0.0136 -0.8259 -0.1467
  233MOL0     C30667  -1.415   1.292   1.694  0.4037 -0.0029  0.0698
  233MOL0    Cl30668  -1.566   1.306   1.587 -0.2951 -0.0777  0.1792
  233MOL0     C30669  -0.632   0.808   2.138 -0.3875  0.1349  0.4125
  233MOL0     C30670  -0.660   0.744   2.260  0.5375 -1.0902  0.1191
  233MOL0     O30671  -0.983   0.623   2.391  0.3619 -0.6353 -0.0055
  233MOL0     C30672  -0.774   0.637   2.682  0.4851  0.3793  0.2499
  233MOL0     C30673  -0.788   0.633   2.819 -0.5634 -0.5587 -0.8405
  233MOL0     N30674  -0.598   0.880   3.419 -0.1892 -0.1860 -0.6902
  233MOL0     N30675  -0.518   0.971   3.376  0.3740 -0.2670  0.1778
  233MOL0     C30676   0.587   0.816   2.822 -0.0613 -0.3737  0.0528
  233MOL0     C30677   0.722   0.799   2.796 -0.1396  0.5969 -0.2488
  233MOL0     C30678   1.112   0.671   2.597 -0.5222 -0.2504 -0.1402
  233MOL0     C30679   1.190   0.642   2.717  0.3394  0.0954  0.7457
  233MOL0     C30680   1.328   0.664   2.718 -0.2399  0.5711 -0.6107
  233MOL0     C30681   1.399   0.696   2.604 -0.5718 -0.4077  1.0500
  233MOL0     O30682   1.537   0.691   2.605 -0.2114  0.3610 -0.2185
  233MOL0     C30683   1.602   0.708   2.475  0.0978  0.1740 -0.3058
  233MOL0     C30684   1.749   0.741   2.514 -0.3817  0.0993  0.7137
  233MOL0     C30685   1.835   0.621   2.541  0.2944 -0.1833 -0.0696
  233MOL0     C30686   1.971   0.652   2.604 -0.9885 -0.2408  0.3175
  233MOL0     C30687   2.045   0.523   2.627  0.3083  0.3131  0.0161
  233MOL0     C30688   2.097   0.412   2.626 -0.1640  0.8039 -0.2077
  233MOL0     C30689   1.325   0.703   2.481 -0.0409 -0.0947 -0.7104
  233MOL0     C30690   1.183   0.698   2.479 -0.5711 -0.8068  0.8107
  233MOL0     H30691   0.722   0.487   2.666 -0.6539 -0.5109  1.0610
  233MOL0     H30692   0.471   0.533   2.685 -1.2446  1.9960 -1.1842
  233MOL0     H30693   0.332   0.581   2.905  0.9381 -0.0680 -0.5372
  233MOL0     H30694   0.205   0.614   2.800 -0.6515 -1.3954  1.5354
  233MOL0     H30695   0.314   0.808   3.027 -0.3467 -0.2799  1.2466
  233MOL0     H30696   0.179   0.704   3.043  0.1447  2.2151  1.5854
  233MOL0     H30697   0.046   0.802   2.872  0.7192 -0.3752 -0.8895
  233MOL0     H30698   0.175   0.897   2.810 -2.3595 -2.5009 -0.9756
  233MOL0     H30699   0.214   1.021   3.015  0.3009 -3.0602  2.8313
  233MOL0     H30700   0.063   1.048   2.932 -0.8712 -1.6726 -0.1938
  233MOL0     H30701   0.083   1.029   3.204  2.7460 -1.1678  1.0071
  233MOL0     H30702   0.062   0.854   3.162 -1.9102 -1.3620 -4.0987
  233MOL0     H30703  -0.141   0.875   3.044  0.4200 -1.4715  0.5507
  233MOL0     H30704  -0.142   1.054   3.063 -4.0266 -1.0019  0.7334
  233MOL0     H30705  -0.192   0.855   3.286  0.0711 -0.9212 -2.0849
  233MOL0     H30706  -0.182   1.039   3.302 -1.9336 -0.9702  3.2484
  233MOL0     H30707  -0.352   0.940   3.090 -1.0034  0.7748 -0.7131
  233MOL0     H30708  -0.362   1.088   3.194 -1.8081 -0.1801  0.2666
  233MOL0     H30709  -0.456   0.713   3.179 -1.1970  1.0662 -0.2860
  233MOL0     H30710  -0.600   0.562   3.420  1.1829  0.3740  0.2647
  233MOL0     H30711  -0.625   0.580   3.248 -0.2661 -1.7848 -0.0356
  233MOL0     H30712  -0.821   0.756   3.331 -1.4343 -0.3035 -0.4915
  233MOL0     H30713  -0.839   0.628   3.452 -1.9441 -2.2494 -1.7158
  233MOL0     H30714  -0.894   0.476   3.275  1.1568  0.5529  2.2895
  233MOL0     H30715  -0.984   0.635   3.251  0.2010  2.5693 -0.8033
  233MOL0     H30716  -0.801   0.501   3.081  0.1485  0.4398  0.7832
  233MOL0     H30717  -0.755   0.672   3.099  1.7759 -1.5459  3.2649
  233MOL0     H30718  -1.117   0.612   2.867  2.4890 -1.6740  3.4131
  233MOL0     H30719  -1.109   0.591   2.613 -1.9468  1.6435  2.1649
  233MOL0     H30720  -0.828   0.467   2.145 -0.8607  1.6866 -0.6760
  233MOL0     H30721  -0.779   0.589   1.926  3.0576 -0.2209 -0.1926
  233MOL0     H30722  -0.604   1.010   1.947  0.8529  0.8493 -0.8689
  233MOL0     H30723  -0.773   0.974   1.974 -1.1265 -2.4459 -0.6895
  233MOL0     H30724  -0.640   0.963   1.700  2.2821  3.5307  0.3165
  233MOL0     H30725  -0.690   1.117   1.768 -2.9864  1.1287 -1.3343
  233MOL0     H30726  -0.884   0.900   1.708  2.7559 -1.0017  0.3566
  233MOL0     H30727  -0.848   1.045   1.612 -0.0645 -0.5041  0.1877
  233MOL0     H30728  -1.004   1.024   1.872  1.7496  0.0105  0.9337
  233MOL0     H30729  -0.931   1.181   1.812  2.1212 -0.1292 -1.9320
  233MOL0     H30730  -1.116   0.989   1.646  2.6546 -1.4575  0.4344
  233MOL0     H30731  -1.045   1.146   1.602  2.9598 -0.6669  1.1064
  233MOL0     H30732  -1.171   1.252   1.794  0.6385 -1.9648  1.9647
  233MOL0     H30733  -1.250   1.096   1.818  2.1057 -2.4658 -0.3116
  233MOL0     H30734  -1.261   1.239   1.548 -1.0227  0.7194 -0.0691
  233MOL0     H30735  -1.341   1.099   1.611  4.5951 -3.2266  2.1868
  233MOL0     H30736  -1.384   1.397   1.692  3.5556 -0.8216 -1.6778
  233MOL0     H30737  -1.441   1.261   1.795  2.5736 -0.9875  0.3738
  233MOL0     H30738  -0.579   0.903   2.139 -1.3938  0.7133  0.1880
  233MOL0     H30739  -0.634   0.780   2.358  1.0957 -0.7085 -0.1635
  233MOL0     H30740  -0.679   0.646   2.630 -1.0425 -0.1347 -2.8431
  233MOL0     H30741  -0.703   0.646   2.885 -0.1105  2.1503 -1.8370
  233MOL0     H30742   0.543   0.904   2.867 -1.1547  2.1776 -5.2737
  233MOL0     H30743   0.796   0.872   2.830  1.2069  0.7043 -3.1205
  233MOL0     H30744   1.146   0.606   2.810 -1.6674  3.9598  1.5169
  233MOL0     H30745   1.377   0.641   2.812  1.0699 -0.9620 -1.6203
  233MOL0     H30746   1.566   0.799   2.428  0.1750  0.3694  0.0107
  233MOL0     H30747   1.592   0.624   2.406 -0.6996 -0.8761  1.0461
  233MOL0     H30748   1.795   0.805   2.439 -2.2271 -0.3448 -0.8639
  233MOL0     H30749   1.749   0.798   2.607  1.2718 -0.5186  1.1301
  233MOL0     H30750   1.856   0.560   2.453 -1.4924 -0.9519  0.0040
  233MOL0     H30751   1.782   0.556   2.612 -2.0358 -0.3920 -1.8925
  233MOL0     H30752   2.033   0.709   2.533 -0.0267 -1.3140  0.2824
  233MOL0     H30753   1.970   0.704   2.700 -0.4102  1.6359 -0.6255
  233MOL0     H30754   2.133   0.311   2.624  1.7493  1.4058  1.1001
  233MOL0     H30755   1.370   0.721   2.384 -2.2117 -0.0056 -1.7585
  233MOL0     H30756   1.138   0.732   2.386  3.1942  2.8504  0.0132
  234MOL0     O30757   3.523   8.449   1.062  0.1944 -0.1683  0.9533
  234MOL0     C30758   3.555   8.329   1.058 -1.0941 -0.0904  1.0117
  234MOL0     O30759   3.511   8.227   1.138  0.2878 -0.1265  0.0609
  234MOL0     C30760   3.382   8.230   1.193 -0.4520 -1.3086  0.9979
  234MOL0     C30761   3.266   8.282   1.135 -0.3515 -0.3436 -0.7057
  234MOL0     C30762   3.151   8.283   1.206  0.3455  0.5739 -0.4868
  234MOL0     C30763   3.137   8.207   1.329  0.7327 -0.3410 -0.0417
  234MOL0     O30764   3.021   8.209   1.404 -0.4765  0.2172 -0.6037
  234MOL0     C30765   2.986   8.334   1.451 -0.4274  0.2091  0.1269
  234MOL0     C30766   2.840   8.321   1.484 -1.1910  0.4799 -0.1858
  234MOL0     C30767   2.802   8.190   1.554  0.2758  0.2281 -0.8556
  234MOL0     C30768   2.655   8.195   1.599  0.3304  0.1996  0.1300
  234MOL0     C30769   2.610   8.088   1.696  0.0969 -0.8494 -0.5691
  234MOL0     C30770   2.511   8.146   1.797  0.4223  0.7231  0.4081
  234MOL0     C30771   2.492   8.046   1.915 -0.2154 -1.2269  0.4341
  234MOL0     C30772   2.402   8.100   2.023 -0.3898 -0.6123  0.1692
  234MOL0     N30773   2.420   8.237   2.080 -0.1942 -1.1824  0.6279
  234MOL0     C30774   2.496   8.270   2.186 -0.0899 -1.0836  0.5325
  234MOL0     C30775   2.500   8.405   2.181  0.0785  0.4118 -0.4795
  234MOL0     C30776   2.587   8.482   2.271  0.7799 -0.8782  0.3022
  234MOL0     C30777   2.661   8.598   2.204 -1.4816 -0.9678  0.6730
  234MOL0     C30778   2.816   8.584   2.171 -0.3050 -0.2199 -0.8472
  234MOL0     C30779   2.836   8.459   2.089 -0.0779 -0.0749 -0.3597
  234MOL0     O30780   2.971   8.443   2.046 -0.0455  0.0843  0.3732
  234MOL0     C30781   2.995   8.336   1.964 -0.8201  1.0789  0.6292
  234MOL0     C30782   3.113   8.342   1.892 -0.3871 -0.0378  0.5582
  234MOL0     C30783   3.164   8.236   1.817 -0.1925 -0.2241 -0.2113
  234MOL0     C30784   3.096   8.114   1.809  1.0760  1.1219  0.2287
  234MOL0     C30785   3.148   7.993   1.732 -0.2891 -0.1218 -0.9368
  234MOL0     O30786   3.278   7.998   1.697  0.4689  0.8261 -0.1152
  234MOL0     C30787   3.358   7.896   1.648  0.3419 -0.1319 -1.0041
  234MOL0     C30788   3.489   7.937   1.610 -0.3781  0.0502  0.1835
  234MOL0     C30789   3.582   7.847   1.547  0.5269 -0.4358  0.2722
  234MOL0     C30790   3.550   7.714   1.515  0.0263  0.0973  0.5367
  234MOL0     O30791   3.632   7.624   1.455 -0.4620 -0.4779 -0.0183
  234MOL0     C30792   3.758   7.661   1.396 -1.0993 -0.4776 -0.4612
  234MOL0     C30793   3.833   7.538   1.338  0.0727  0.1125 -0.0058
  234MOL0     C30794   3.933   7.596   1.230  0.2573 -0.1858 -0.1832
  234MOL0     C30795   4.046   7.507   1.186  0.3798 -0.2846 -0.6159
  234MOL0     C30796   4.069   7.506   1.037  0.3178 -0.2399 -0.4479
  234MOL0     C30797   4.182   7.419   1.001 -0.4094  0.2077  0.5588
  234MOL0     C30798   4.209   7.440   0.851 -0.7666  0.1555 -0.4425
  234MOL0     C30799   4.306   7.339   0.791  0.1434  0.0170  0.3098
  234MOL0    Cl30800   4.227   7.184   0.759 -0.6486  0.5601  0.4272
  234MOL0     C30801   3.419   7.675   1.558 -0.0785  0.0345  0.3594
  234MOL0     C30802   3.330   7.758   1.626 -0.0657 -0.6523  1.6935
  234MOL0     O30803   3.081   7.891   1.720 -0.8184 -0.3812  0.1551
  234MOL0     C30804   2.966   8.103   1.865  0.7311 -0.2903 -0.0442
  234MOL0     C30805   2.921   8.220   1.938  0.8632  0.4205  0.7691
  234MOL0     N30806   2.406   8.454   2.094  0.3389 -0.0518  0.0604
  234MOL0     N30807   2.356   8.350   2.042 -0.4535  1.0351  0.1004
  234MOL0     C30808   3.249   8.152   1.378 -0.5571 -0.4524 -0.5940
  234MOL0     C30809   3.372   8.167   1.315 -0.2637  0.1187  0.5268
  234MOL0     C30810   3.672   8.295   0.971  0.9776 -0.3114  0.1606
  234MOL0     C30811   3.727   8.387   0.878  0.0498 -0.1559 -0.2552
  234MOL0     C30812   3.832   8.354   0.797 -0.0835  0.5358 -0.4474
  234MOL0     C30813   3.876   8.222   0.781  0.5111 -0.2189 -0.1839
  234MOL0     O30814   3.983   8.192   0.697 -0.9361  0.2890 -0.4026
  234MOL0     C30815   4.003   8.061   0.645 -0.1582 -0.1095  0.3757
  234MOL0     C30816   4.138   8.038   0.580 -0.2860  0.4857  0.4055
  234MOL0     C30817   4.171   8.152   0.472 -0.2236 -0.0178  0.3609
  234MOL0     C30818   4.277   8.104   0.373 -0.0790  0.6793 -0.5892
  234MOL0     C30819   4.209   8.010   0.281 -0.3702  0.4136  0.4392
  234MOL0     C30820   4.152   7.943   0.199  0.2985  0.3533 -0.2510
  234MOL0     C30821   3.823   8.131   0.880 -0.2194  0.3855 -0.7898
  234MOL0     C30822   3.719   8.163   0.971  0.2064  0.3130  0.2626
  234MOL0     H30823   3.280   8.323   1.035 -1.2081  2.1303  0.1138
  234MOL0     H30824   3.062   8.323   1.159  2.0313  0.2849 -4.2913
  234MOL0     H30825   2.986   8.417   1.379 -1.5579 -0.7414 -1.0103
  234MOL0     H30826   3.036   8.356   1.545 -0.6298  1.2187  0.0107
  234MOL0     H30827   2.782   8.345   1.395 -1.1630  1.2873 -0.0044
  234MOL0     H30828   2.821   8.400   1.558  3.8290  3.5810 -1.7652
  234MOL0     H30829   2.865   8.184   1.643  0.9854  1.4183 -1.2476
  234MOL0     H30830   2.810   8.108   1.482 -0.8772  1.8985 -2.9979
  234MOL0     H30831   2.636   8.289   1.651 -3.5702  0.3378 -1.2411
  234MOL0     H30832   2.587   8.202   1.514  0.5927  0.8697 -0.0242
  234MOL0     H30833   2.699   8.051   1.748 -0.1250  2.9876  3.0602
  234MOL0     H30834   2.565   8.012   1.631 -1.4909 -1.8501  1.5941
  234MOL0     H30835   2.411   8.157   1.755 -0.5987 -3.2558  1.4566
  234MOL0     H30836   2.538   8.245   1.836  0.9418 -0.3779  3.0882
  234MOL0     H30837   2.439   7.957   1.879  0.5584 -0.7701 -2.0367
  234MOL0     H30838   2.588   8.020   1.961  1.0721 -1.8647 -2.3774
  234MOL0     H30839   2.408   8.021   2.098 -3.6336 -1.8835 -0.7164
  234MOL0     H30840   2.296   8.101   1.993 -1.2017  0.5415  2.8059
  234MOL0     H30841   2.557   8.210   2.253  0.4908  0.2984  1.2928
  234MOL0     H30842   2.667   8.420   2.312  2.1068  1.5721  1.6957
  234MOL0     H30843   2.522   8.525   2.348  1.1790 -1.9071  1.2369
  234MOL0     H30844   2.649   8.687   2.267 -0.6896 -2.6325  3.3273
  234MOL0     H30845   2.622   8.617   2.103  2.2852  6.1691 -0.1451
  234MOL0     H30846   2.852   8.666   2.109 -0.7649  0.1714 -0.5994
  234MOL0     H30847   2.869   8.594   2.266 -1.4821  0.4864 -0.2459
  234MOL0     H30848   2.762   8.455   2.009 -3.2477 -0.9484  2.3846
  234MOL0     H30849   2.826   8.371   2.153  1.2372 -0.4551 -0.6359
  234MOL0     H30850   3.178   8.429   1.893  0.7945 -0.8636 -0.6894
  234MOL0     H30851   3.256   8.253   1.762  0.4570 -1.7915  0.3236
  234MOL0     H30852   3.513   8.043   1.613 -1.7368  0.4985 -2.2866
  234MOL0     H30853   3.677   7.892   1.519 -0.0415 -0.3939 -1.8315
  234MOL0     H30854   3.825   7.720   1.460 -3.5162  2.5984 -0.5292
  234MOL0     H30855   3.729   7.720   1.309  0.8645 -1.5080 -1.8873
  234MOL0     H30856   3.761   7.464   1.301 -1.6046  2.0752 -0.8974
  234MOL0     H30857   3.902   7.492   1.409  2.0924 -2.2590 -3.1973
  234MOL0     H30858   3.981   7.691   1.259  3.2092 -1.0206 -1.8836
  234MOL0     H30859   3.881   7.622   1.138  0.7599  0.5252 -0.2768
  234MOL0     H30860   4.134   7.540   1.242  0.2398  0.3996 -0.7900
  234MOL0     H30861   4.011   7.411   1.226  0.3973  0.5975  1.6955
  234MOL0     H30862   4.081   7.612   1.010  0.3709  0.7444  3.0021
  234MOL0     H30863   3.981   7.457   0.996 -0.7526  0.4962  0.8788
  234MOL0     H30864   4.162   7.314   1.023  2.1430 -0.4206  0.1601
  234MOL0     H30865   4.269   7.439   1.063  1.8906 -4.5192 -0.6665
  234MOL0     H30866   4.112   7.427   0.802 -2.5882 -2.1701  3.2980
  234MOL0     H30867   4.253   7.540   0.853  2.0756 -1.0068  2.0040
  234MOL0     H30868   4.396   7.322   0.851  0.8178 -0.6449 -0.8668
  234MOL0     H30869   4.323   7.381   0.692 -3.1546 -1.3191 -0.9531
  234MOL0     H30870   3.391   7.571   1.546 -2.3110  0.6364 -0.0128
  234MOL0     H30871   3.230   7.723   1.649 -1.2112 -0.4069 -2.1687
  234MOL0     H30872   2.904   8.014   1.862  0.3075  0.0315 -1.1332
  234MOL0     H30873   2.820   8.205   1.976  1.2383  0.7180  1.9167
  234MOL0     H30874   3.253   8.099   1.473  1.0359 -1.6415 -1.2763
  234MOL0     H30875   3.450   8.102   1.356  1.2203  1.3690 -0.2398
  234MOL0     H30876   3.685   8.487   0.884 -3.0172 -1.1924 -2.1299
  234MOL0     H30877   3.879   8.436   0.743 -2.0289  2.3679  0.4818
  234MOL0     H30878   3.932   8.043   0.564 -0.2892  1.2141  0.1645
  234MOL0     H30879   3.988   7.982   0.719  0.1216 -2.5498 -2.0112
  234MOL0     H30880   4.213   8.051   0.659 -0.4876  1.2336  0.4875
  234MOL0     H30881   4.147   7.934   0.548 -1.5387  0.9337 -1.5800
  234MOL0     H30882   4.208   8.234   0.535 -0.4192 -0.4066  1.0005
  234MOL0     H30883   4.073   8.177   0.430  0.2454 -1.0021 -1.4208
  234MOL0     H30884   4.320   8.181   0.309  2.0363 -0.0368 -0.1238
  234MOL0     H30885   4.363   8.050   0.414  1.2724  1.4501 -2.2821
  234MOL0     H30886   4.101   7.887   0.123  3.6172  0.6976 -2.9406
  234MOL0     H30887   3.879   8.039   0.889  0.5652  1.0280  1.7464
  234MOL0     H30888   3.696   8.089   1.047 -0.6863  0.6558  0.3410
  235MOL0     O30889   9.145   0.314   7.751 -0.0772 -0.0491 -0.3239
  235MOL0     C30890   9.212   0.411   7.734 -0.0154 -1.1818  0.7640
  235MOL0     O30891   9.164   0.536   7.692  1.0900 -0.3164  0.4513
  235MOL0     C30892   9.033   0.567   7.713  0.4827  0.1788 -0.0650
  235MOL0     C30893   8.919   0.501   7.679  0.1993  0.2573  1.1059
  235MOL0     C30894   8.790   0.543   7.708  0.9279 -0.5463  0.1724
  235MOL0     C30895   8.771   0.667   7.779  0.3193  1.1031 -0.4861
  235MOL0     O30896   8.644   0.713   7.814  0.0568  0.5480  0.0651
  235MOL0     C30897   8.536   0.623   7.804  0.7288 -0.0738  0.9296
  235MOL0     C30898   8.421   0.682   7.888  0.4996 -0.0146  0.4490
  235MOL0     C30899   8.325   0.767   7.799  0.1708  0.8174  0.2502
  235MOL0     C30900   8.225   0.855   7.885  0.6613 -0.3254  0.0444
  235MOL0     C30901   8.119   0.921   7.801  0.9657 -0.1976  0.4548
  235MOL0     C30902   8.200   0.996   7.696  0.5397 -0.3046 -0.1702
  235MOL0     C30903   8.098   1.093   7.632  0.1546 -0.5421  0.0657
  235MOL0     C30904   8.109   1.229   7.704  0.1716  0.5299  0.9857
  235MOL0     N30905   8.006   1.334   7.670  0.0124  0.2390 -0.1239
  235MOL0     C30906   7.875   1.334   7.717  1.0934 -0.6819  0.2947
  235MOL0     C30907   7.834   1.451   7.661  1.3963 -0.3966 -0.0646
  235MOL0     C30908   7.697   1.522   7.675  0.3183 -0.4319 -0.4999
  235MOL0     C30909   7.620   1.526   7.540  0.9449 -0.5956  0.6489
  235MOL0     C30910   7.598   1.394   7.468 -0.7071  0.5039 -0.3739
  235MOL0     C30911   7.463   1.338   7.489  0.4487  0.2007 -0.8849
  235MOL0     O30912   7.448   1.319   7.638 -0.2740 -0.6980  0.3719
  235MOL0     C30913   7.317   1.330   7.684 -0.1852 -0.3305 -0.0308
  235MOL0     C30914   7.226   1.242   7.624  0.8138  0.1900  0.8046
  235MOL0     C30915   7.097   1.237   7.674  0.2637 -0.4839  0.4902
  235MOL0     C30916   7.055   1.309   7.789  0.2400 -0.8817 -0.4303
  235MOL0     C30917   6.914   1.312   7.829 -0.2146 -0.0430 -0.1618
  235MOL0     O30918   6.839   1.208   7.777 -0.5283 -0.0495 -0.6959
  235MOL0     C30919   6.703   1.230   7.767  0.2368  0.6768  0.2422
  235MOL0     C30920   6.643   1.347   7.730 -0.4578 -0.7435  0.4794
  235MOL0     C30921   6.500   1.358   7.703 -0.6838 -0.0257  1.1236
  235MOL0     C30922   6.416   1.250   7.739 -0.6349  0.3497  0.5934
  235MOL0     O30923   6.276   1.254   7.729 -0.3978 -1.4134  0.1104
  235MOL0     C30924   6.220   1.395   7.724 -0.2500 -0.3800 -0.4036
  235MOL0     C30925   6.071   1.379   7.728 -0.0911  0.0391 -0.7112
  235MOL0     C30926   5.985   1.503   7.688 -0.4892 -0.6208  0.0897
  235MOL0     C30927   5.836   1.473   7.721 -0.2185  0.3817 -0.3762
  235MOL0     C30928   5.743   1.596   7.674 -0.1184 -0.1208  0.6507
  235MOL0     C30929   5.597   1.580   7.722 -0.6356 -0.6111 -0.8405
  235MOL0     C30930   5.527   1.463   7.656 -0.2663  0.4244 -0.0499
  235MOL0     C30931   5.385   1.468   7.706  0.8899  0.6493  0.8444
  235MOL0    Cl30932   5.311   1.321   7.625  0.6699  0.4551  0.1293
  235MOL0     C30933   6.481   1.139   7.797 -0.6239 -0.3611  0.7535
  235MOL0     C30934   6.617   1.122   7.818  0.1639 -0.8712  0.2307
  235MOL0     O30935   6.874   1.398   7.902 -0.3106  0.5445 -0.2931
  235MOL0     C30936   7.154   1.398   7.843  0.0034  0.2676 -0.8078
  235MOL0     C30937   7.287   1.409   7.797  0.7450  0.3570 -0.1293
  235MOL0     N30938   7.934   1.512   7.587 -0.3220 -0.1080 -0.2284
  235MOL0     N30939   8.030   1.431   7.581  0.6257  0.0995  0.3858
  235MOL0     C30940   8.881   0.744   7.796  0.1417  0.2073 -0.5236
  235MOL0     C30941   9.006   0.699   7.765  0.6366  0.9902  0.1012
  235MOL0     C30942   9.362   0.403   7.747 -0.4950 -0.2758 -0.2688
  235MOL0     C30943   9.421   0.278   7.789 -0.7373 -0.2884  0.8629
  235MOL0     C30944   9.559   0.274   7.816  0.5525  0.1948  0.5017
  235MOL0     C30945   9.636   0.384   7.811  0.7195 -0.5062 -0.5759
  235MOL0     O30946   9.767   0.377   7.837  0.0009  0.1390  0.5647
  235MOL0     C30947   9.845   0.491   7.818 -0.5671  1.2531  0.0921
  235MOL0     C30948   9.838   0.572   7.937  0.1571 -0.4747 -0.9761
  235MOL0     C30949   9.978   0.590   7.999  0.0029 -0.1028 -0.7421
  235MOL0     C30950  10.057   0.709   7.945 -0.5314  0.3480  0.1621
  235MOL0     C30951  10.186   0.717   8.019 -0.3494  0.8248  0.2373
  235MOL0     C30952  10.290   0.707   8.067 -0.8794  0.1344 -0.0716
  235MOL0     C30953   9.579   0.504   7.766  0.0356  0.2201  0.2209
  235MOL0     C30954   9.447   0.513   7.734 -0.1435  0.3128  0.1802
  235MOL0     H30955   8.922   0.405   7.627 -1.5005 -0.3686  2.0489
  235MOL0     H30956   8.702   0.485   7.682 -1.5143  2.2011  1.6565
  235MOL0     H30957   8.549   0.522   7.843  0.2259 -0.8422 -0.8314
  235MOL0     H30958   8.508   0.601   7.701 -1.3981 -3.3674  2.0529
  235MOL0     H30959   8.479   0.747   7.955 -1.6091  1.6745  0.7534
  235MOL0     H30960   8.362   0.615   7.951 -0.5799 -0.0743 -0.6035
  235MOL0     H30961   8.271   0.697   7.734  0.3227  1.6907 -0.8316
  235MOL0     H30962   8.385   0.832   7.735  0.5697 -0.6592 -0.9418
  235MOL0     H30963   8.189   0.792   7.967  1.5452  1.1626  1.6312
  235MOL0     H30964   8.290   0.928   7.934  2.1721 -1.3770 -0.2771
  235MOL0     H30965   8.054   0.986   7.861 -0.2730 -2.5217  1.8146
  235MOL0     H30966   8.055   0.851   7.747  0.2374  2.3748 -2.2748
  235MOL0     H30967   8.225   0.925   7.617  0.8825 -0.0478 -0.2896
  235MOL0     H30968   8.290   1.038   7.740  0.8160 -2.6300  1.6806
  235MOL0     H30969   8.110   1.102   7.523  3.7532 -0.1387  0.3640
  235MOL0     H30970   7.997   1.058   7.651  0.2169  0.0067  1.5696
  235MOL0     H30971   8.210   1.266   7.684  1.5280 -3.5092 -0.8682
  235MOL0     H30972   8.096   1.222   7.812  0.4120 -1.1606  0.9387
  235MOL0     H30973   7.830   1.261   7.784 -1.1308  0.7124  0.3900
  235MOL0     H30974   7.699   1.625   7.712 -4.2699 -0.3661  0.1706
  235MOL0     H30975   7.627   1.474   7.744 -3.0496  1.5985 -2.2316
  235MOL0     H30976   7.697   1.574   7.478  1.2851 -0.7024  0.9884
  235MOL0     H30977   7.523   1.578   7.534  0.7123 -0.9447  1.3198
  235MOL0     H30978   7.622   1.399   7.362 -1.3243  0.1646 -0.5329
  235MOL0     H30979   7.661   1.318   7.514 -1.5287 -0.1930 -0.3667
  235MOL0     H30980   7.454   1.240   7.442 -0.1446 -0.4915  0.6018
  235MOL0     H30981   7.377   1.391   7.446 -0.6009 -1.4216 -0.8632
  235MOL0     H30982   7.251   1.176   7.542  1.9630 -1.7933  2.6219
  235MOL0     H30983   7.014   1.188   7.624 -3.3004  4.7403  0.3877
  235MOL0     H30984   6.714   1.420   7.691 -0.1679 -0.1996  1.9769
  235MOL0     H30985   6.452   1.448   7.666 -0.3224  0.1861  1.1687
  235MOL0     H30986   6.248   1.436   7.627  1.4681  0.4603  0.4171
  235MOL0     H30987   6.260   1.459   7.802  2.9810 -3.3922  0.6758
  235MOL0     H30988   6.052   1.340   7.828  0.9335  0.6226 -0.2713
  235MOL0     H30989   6.041   1.290   7.672 -0.3854 -0.5421  0.3517
  235MOL0     H30990   5.993   1.518   7.580  1.8790  0.7243  0.3812
  235MOL0     H30991   6.025   1.578   7.757  0.0479 -3.0730  2.6420
  235MOL0     H30992   5.797   1.386   7.668 -0.2949  1.3467 -1.9864
  235MOL0     H30993   5.836   1.472   7.830  1.6532  2.4220 -0.2903
  235MOL0     H30994   5.760   1.619   7.568  0.6854 -1.5323  0.4546
  235MOL0     H30995   5.785   1.686   7.721  2.5759 -0.9282 -0.0218
  235MOL0     H30996   5.534   1.667   7.701 -2.2709 -2.4374 -4.2136
  235MOL0     H30997   5.613   1.553   7.827  0.1332 -0.5915 -0.9495
  235MOL0     H30998   5.538   1.472   7.548  1.0620  2.1712  0.1991
  235MOL0     H30999   5.575   1.367   7.678  1.3808  0.8167 -1.7356
  235MOL0     H31000   5.333   1.563   7.686  0.2669  0.4665  1.5472
  235MOL0     H31001   5.384   1.450   7.813 -0.2288  2.9427  1.2876
  235MOL0     H31002   6.414   1.055   7.814  0.4492 -2.4925 -4.0448
  235MOL0     H31003   6.650   1.035   7.873  1.6942  0.3438  1.3208
  235MOL0     H31004   7.124   1.452   7.932  3.5809  0.9089  0.1905
  235MOL0     H31005   7.364   1.470   7.843 -0.4323  1.5525  0.3235
  235MOL0     H31006   8.869   0.849   7.823 -1.0323  0.3842 -1.6234
  235MOL0     H31007   9.090   0.762   7.793  3.0197 -1.2843 -1.4660
  235MOL0     H31008   9.362   0.187   7.787 -1.3904  0.0426  2.9993
  235MOL0     H31009   9.610   0.185   7.851 -0.1375 -1.9412 -3.4189
  235MOL0     H31010   9.815   0.536   7.722 -2.8969 -0.6392 -0.1659
  235MOL0     H31011   9.949   0.458   7.812  0.0002  2.6215  1.8082
  235MOL0     H31012   9.786   0.667   7.919 -1.5228 -0.1969  4.0131
  235MOL0     H31013   9.772   0.525   8.010 -0.3258  1.7641  0.1119
  235MOL0     H31014  10.040   0.502   7.980  2.7894  1.5861 -0.0686
  235MOL0     H31015   9.968   0.595   8.108  2.9381 -1.2926 -0.3344
  235MOL0     H31016  10.067   0.701   7.836 -1.5565  0.2920  0.0694
  235MOL0     H31017  10.001   0.802   7.963  0.9388  1.1332  0.9133
  235MOL0     H31018  10.387   0.700   8.113 -0.8673  2.6324  0.4001
  235MOL0     H31019   9.628   0.601   7.759  2.1260 -0.9052 -2.0268
  235MOL0     H31020   9.409   0.608   7.697  2.4978  2.4497  2.4405
  236MOL0     O31021   1.451   5.832   0.070 -0.1858 -0.7315 -0.3570
  236MOL0     C31022   1.474   5.928  -0.009 -0.6982 -0.1954 -0.1502
  236MOL0     O31023   1.381   6.003  -0.076 -0.3429  0.3105  0.9167
  236MOL0     C31024   1.248   6.000  -0.041  0.1815  0.1867  0.1686
  236MOL0     C31025   1.201   5.968   0.094 -0.1616  0.6780  0.1449
  236MOL0     C31026   1.069   5.992   0.131  0.9647 -0.6943 -0.0555
  236MOL0     C31027   0.977   6.030   0.033  0.2449  0.4578  0.4600
  236MOL0     O31028   0.860   6.094   0.052  0.2197 -0.3988 -0.0888
  236MOL0     C31029   0.767   6.021   0.137  0.0289 -0.7121 -0.1393
  236MOL0     C31030   0.636   6.057   0.081  0.2690  0.0281 -0.0570
  236MOL0     C31031   0.623   6.029  -0.069 -0.0056 -0.0765  1.0195
  236MOL0     C31032   0.499   6.088  -0.125 -0.0478 -0.4168  0.2050
  236MOL0     C31033   0.494   6.079  -0.282 -0.6832 -1.1535 -0.3420
  236MOL0     C31034   0.357   6.126  -0.331 -0.3755  0.1722 -0.4047
  236MOL0     C31035   0.333   6.096  -0.484  0.1697  0.2052 -0.8393
  236MOL0     C31036   0.190   6.146  -0.516 -0.0878  0.0827  0.0637
  236MOL0     N31037   0.161   6.185  -0.655 -0.0660  0.3910  0.1824
  236MOL0     C31038   0.136   6.306  -0.702  0.2870  0.1097  0.4736
  236MOL0     C31039   0.114   6.280  -0.837 -0.0496  0.0988 -1.2424
  236MOL0     C31040   0.112   6.387  -0.941  0.9691 -0.5738 -0.6993
  236MOL0     C31041  -0.026   6.456  -0.944 -0.3101  0.9226 -0.9964
  236MOL0     C31042  -0.121   6.366  -1.010  0.1504 -0.0802  0.1901
  236MOL0     C31043  -0.273   6.415  -0.985 -0.0425  0.7912 -0.2581
  236MOL0     O31044  -0.348   6.320  -1.049 -0.1894 -0.3437  0.5175
  236MOL0     C31045  -0.479   6.327  -1.044  0.5200  0.3159  0.2339
  236MOL0     C31046  -0.551   6.247  -1.134 -0.3645  0.4347  0.1717
  236MOL0     C31047  -0.691   6.233  -1.125  0.1000 -0.9102 -0.3563
  236MOL0     C31048  -0.767   6.308  -1.025 -0.0084 -0.6460  0.4247
  236MOL0     C31049  -0.917   6.285  -1.012 -0.5294  0.1974 -0.0084
  236MOL0     O31050  -0.982   6.373  -0.926  0.4157 -0.1516  0.2746
  236MOL0     C31051  -1.114   6.358  -0.894  0.0797  0.5548 -0.0061
  236MOL0     C31052  -1.141   6.316  -0.765 -0.0241  0.6401  1.2755
  236MOL0     C31053  -1.274   6.280  -0.732 -0.8308  0.2955 -0.0196
  236MOL0     C31054  -1.378   6.290  -0.825 -0.0076  0.7653  0.1273
  236MOL0     O31055  -1.505   6.250  -0.793  0.5513 -0.7470  0.7077
  236MOL0     C31056  -1.524   6.114  -0.788  0.6580  0.1570 -0.1916
  236MOL0     C31057  -1.613   6.078  -0.671 -0.5382 -0.2364  0.0062
  236MOL0     C31058  -1.752   6.129  -0.695  0.7425  0.4103  0.8428
  236MOL0     C31059  -1.848   6.082  -0.582  0.3718 -0.0402  0.4294
  236MOL0     C31060  -1.993   6.094  -0.621  0.2072  0.3401  0.3197
  236MOL0     C31061  -2.042   6.229  -0.651  0.9871 -0.1907  0.2743
  236MOL0     C31062  -2.187   6.225  -0.706  0.9055  0.4203 -0.6364
  236MOL0     C31063  -2.259   6.363  -0.697 -0.4903  0.1763 -0.3704
  236MOL0    Cl31064  -2.441   6.350  -0.719 -0.1597 -0.3329 -0.1854
  236MOL0     C31065  -1.352   6.336  -0.955 -0.6344 -0.5674  0.3725
  236MOL0     C31066  -1.216   6.361  -0.989  0.4879  0.2618  0.1166
  236MOL0     O31067  -0.961   6.185  -1.059  0.4584  0.3176 -0.3227
  236MOL0     C31068  -0.694   6.403  -0.945 -0.3739 -0.4051  0.3654
  236MOL0     C31069  -0.555   6.415  -0.964  0.9295  0.3373  0.2969
  236MOL0     N31070   0.125   6.145  -0.863  0.5915  0.0263  1.1134
  236MOL0     N31071   0.160   6.089  -0.758  0.6058  0.1230 -0.5659
  236MOL0     C31072   1.021   6.037  -0.103  1.3571  0.1552 -0.9430
  236MOL0     C31073   1.153   6.020  -0.143  0.1974 -0.1677  0.5294
  236MOL0     C31074   1.619   5.947  -0.054 -0.9068 -0.0542  0.5624
  236MOL0     C31075   1.652   6.035  -0.152  0.5166 -0.7590  0.1071
  236MOL0     C31076   1.785   6.039  -0.199 -0.0308 -1.0285  0.4562
  236MOL0     C31077   1.886   5.969  -0.144  0.3922 -0.0322 -0.5922
  236MOL0     O31078   2.010   5.995  -0.193  0.2941 -0.1292 -0.0609
  236MOL0     C31079   2.119   5.903  -0.166 -0.3287 -0.0234 -0.3699
  236MOL0     C31080   2.183   5.866  -0.297 -0.6536  0.2612  0.1005
  236MOL0     C31081   2.316   5.789  -0.275  0.1893  0.1718  0.5410
  236MOL0     C31082   2.374   5.745  -0.414 -0.2796  0.3492 -0.4908
  236MOL0     C31083   2.408   5.853  -0.501 -0.2587  0.0619 -0.0649
  236MOL0     C31084   2.432   5.949  -0.572  0.8368 -0.4760 -0.3138
  236MOL0     C31085   1.862   5.889  -0.038 -0.5261 -0.6215  0.3740
  236MOL0     C31086   1.726   5.878   0.007  1.0784 -0.2089  0.4213
  236MOL0     H31087   1.264   5.935   0.176 -2.0436  0.2562  1.5018
  236MOL0     H31088   1.040   5.991   0.235 -0.8790  0.6937 -0.5067
  236MOL0     H31089   0.775   6.050   0.242 -0.9397  1.3125 -0.5746
  236MOL0     H31090   0.776   5.912   0.126 -0.9055 -0.9126  0.8672
  236MOL0     H31091   0.614   6.161   0.107  1.7296  0.5624 -0.8592
  236MOL0     H31092   0.555   5.998   0.124 -0.7517 -0.9767 -3.0450
  236MOL0     H31093   0.638   5.923  -0.092  3.0569 -0.0401  2.4245
  236MOL0     H31094   0.710   6.077  -0.115  1.7280 -1.6733  2.4668
  236MOL0     H31095   0.413   6.030  -0.090 -0.6477  2.1182  3.3880
  236MOL0     H31096   0.489   6.195  -0.103 -2.7685  0.3720 -3.9033
  236MOL0     H31097   0.500   5.971  -0.295  0.9475 -0.8418 -2.8038
  236MOL0     H31098   0.576   6.122  -0.340 -0.1729 -2.5730 -0.7128
  236MOL0     H31099   0.339   6.231  -0.305  1.5030  0.1660  1.1253
  236MOL0     H31100   0.283   6.068  -0.275  0.0093  0.3169  0.2625
  236MOL0     H31101   0.384   6.164  -0.553  1.7443 -2.2998 -2.3152
  236MOL0     H31102   0.347   5.991  -0.511  0.9063  0.3811 -1.1886
  236MOL0     H31103   0.187   6.241  -0.461  1.2067  0.6247 -0.7398
  236MOL0     H31104   0.130   6.074  -0.461  1.1293  0.8427  2.5300
  236MOL0     H31105   0.143   6.400  -0.647 -0.7727  0.7607 -0.4652
  236MOL0     H31106   0.134   6.359  -1.044  1.4022 -2.5872 -0.0944
  236MOL0     H31107   0.189   6.458  -0.907  0.9395 -0.3445 -1.1110
  236MOL0     H31108  -0.012   6.551  -0.997  0.0899  1.4543  0.0383
  236MOL0     H31109  -0.047   6.485  -0.840 -0.1782  0.9079 -0.9657
  236MOL0     H31110  -0.095   6.356  -1.116  1.3847  1.7344  0.2708
  236MOL0     H31111  -0.132   6.265  -0.970  0.5367  0.4445  1.6940
  236MOL0     H31112  -0.302   6.513  -1.026 -0.8495  0.8642  0.4589
  236MOL0     H31113  -0.297   6.424  -0.878 -2.6609 -0.1272 -0.7192
  236MOL0     H31114  -0.491   6.195  -1.209 -0.2676  0.9186 -0.0922
  236MOL0     H31115  -0.747   6.166  -1.189  3.0517 -4.5017  0.4301
  236MOL0     H31116  -1.070   6.289  -0.687  1.6393 -2.6478 -1.1357
  236MOL0     H31117  -1.304   6.228  -0.642  0.4035 -1.2398 -0.4446
  236MOL0     H31118  -1.436   6.050  -0.774 -2.1310 -3.8645  0.6289
  236MOL0     H31119  -1.576   6.083  -0.879 -0.9575  0.9173  0.4346
  236MOL0     H31120  -1.565   6.120  -0.582  1.9826 -1.7526 -0.5327
  236MOL0     H31121  -1.608   5.972  -0.643  0.2845  0.5190  3.1343
  236MOL0     H31122  -1.795   6.081  -0.783  3.0966  0.5531 -0.4729
  236MOL0     H31123  -1.758   6.238  -0.704  0.0277  0.7018  3.7842
  236MOL0     H31124  -1.812   5.981  -0.562 -1.5333 -1.1612 -1.4164
  236MOL0     H31125  -1.843   6.140  -0.489 -2.6899 -2.8044  2.5461
  236MOL0     H31126  -2.045   6.042  -0.541  2.2646 -0.6022  1.1321
  236MOL0     H31127  -1.994   6.037  -0.715  3.7340 -2.1916  1.5720
  236MOL0     H31128  -1.983   6.277  -0.729  0.2238 -2.6380 -1.9424
  236MOL0     H31129  -2.038   6.300  -0.567 -2.2072 -0.2993  0.6460
  236MOL0     H31130  -2.185   6.184  -0.807  2.3129  1.1973 -0.9503
  236MOL0     H31131  -2.250   6.160  -0.644  1.8568 -0.8990 -1.0113
  236MOL0     H31132  -2.215   6.444  -0.756 -3.1435  0.1809 -2.5372
  236MOL0     H31133  -2.246   6.399  -0.594  0.8303  0.1268 -0.5056
  236MOL0     H31134  -1.425   6.346  -1.034 -0.5725 -1.2763  0.2223
  236MOL0     H31135  -1.191   6.385  -1.092 -0.4110  0.6255 -0.0280
  236MOL0     H31136  -0.740   6.472  -0.875  2.1763  2.2292 -0.3426
  236MOL0     H31137  -0.506   6.488  -0.900  2.1251 -0.7697  0.6857
  236MOL0     H31138   0.948   6.046  -0.183 -1.7017  0.6569  1.6642
  236MOL0     H31139   1.179   6.022  -0.249 -2.6022  0.1897 -0.2313
  236MOL0     H31140   1.571   6.089  -0.201  1.0129 -1.4651 -1.5819
  236MOL0     H31141   1.806   6.106  -0.282 -3.0688  0.5920  0.8412
  236MOL0     H31142   2.104   5.807  -0.114  1.2057  0.7780  1.6807
  236MOL0     H31143   2.186   5.960  -0.100  2.2872 -0.6732 -2.3113
  236MOL0     H31144   2.126   5.812  -0.373  1.4538  1.0927 -2.2059
  236MOL0     H31145   2.210   5.964  -0.338 -3.5802  0.3809 -1.8472
  236MOL0     H31146   2.314   5.701  -0.211  0.3583 -1.7942 -1.9770
  236MOL0     H31147   2.391   5.853  -0.229  1.3636 -1.2372  0.6437
  236MOL0     H31148   2.462   5.684  -0.392 -0.3477  0.9166  1.5506
  236MOL0     H31149   2.306   5.675  -0.463  3.5509 -2.5256 -2.2790
  236MOL0     H31150   2.444   6.043  -0.622 -1.4612  0.4656  0.7676
  236MOL0     H31151   1.941   5.833   0.012 -0.5881 -1.1015 -0.0621
  236MOL0     H31152   1.700   5.822   0.096 -0.0196 -1.1045 -0.4110
  237MOL0     O31153  10.634   7.766   3.677  0.9066 -0.0182 -0.3200
  237MOL0     C31154  10.734   7.841   3.648  0.0644 -0.4284 -0.2410
  237MOL0     O31155  10.736   7.923   3.544  0.3408 -0.1279 -0.1327
  237MOL0     C31156  10.625   7.973   3.481 -0.1625 -0.3912  0.0159
  237MOL0     C31157  10.492   7.979   3.523 -0.2418  0.7051  0.4457
  237MOL0     C31158  10.395   8.037   3.448 -0.6042 -0.3600  0.5118
  237MOL0     C31159  10.432   8.099   3.324 -0.1745 -0.1096  0.9403
  237MOL0     O31160  10.333   8.146   3.245  0.8497 -0.0057 -0.1780
  237MOL0     C31161  10.311   8.292   3.242  0.2917 -0.5465 -0.6104
  237MOL0     C31162  10.191   8.333   3.327 -1.1554 -0.1457  0.4583
  237MOL0     C31163  10.056   8.262   3.295 -0.3551  0.2983  0.0342
  237MOL0     C31164   9.948   8.338   3.361  0.9894  0.6288 -0.5682
  237MOL0     C31165   9.820   8.254   3.374 -0.5855 -0.3168 -0.0962
  237MOL0     C31166   9.718   8.333   3.460 -0.4133  0.2350 -0.0582
  237MOL0     C31167   9.585   8.253   3.468 -0.1866  0.0483  0.0315
  237MOL0     C31168   9.498   8.270   3.352  0.5867  0.1422  0.0490
  237MOL0     N31169   9.492   8.136   3.276 -0.1055  0.4146 -0.8629
  237MOL0     C31170   9.541   8.125   3.144  0.5275  0.6406 -0.3985
  237MOL0     C31171   9.520   7.996   3.113  0.2760 -0.5962  0.6296
  237MOL0     C31172   9.538   7.922   2.986  0.6181  0.8490  0.6438
  237MOL0     C31173   9.418   7.922   2.890  0.5851 -0.4020  0.4335
  237MOL0     C31174   9.359   8.064   2.863 -0.7070 -0.1747 -0.2632
  237MOL0     C31175   9.282   8.077   2.738  0.1157 -0.9200 -0.6270
  237MOL0     O31176   9.140   8.065   2.758 -0.3366  0.4333 -0.5682
  237MOL0     C31177   9.044   8.112   2.667  0.2341 -0.0158 -0.6535
  237MOL0     C31178   8.917   8.047   2.653  0.5613  0.4381  0.6059
  237MOL0     C31179   8.819   8.082   2.564  0.5167 -0.5376 -0.2624
  237MOL0     C31180   8.830   8.200   2.493  1.4244  0.6207  0.5628
  237MOL0     C31181   8.717   8.239   2.404 -1.4597 -0.1743  1.5893
  237MOL0     O31182   8.632   8.134   2.350  0.1807 -0.3086 -0.3138
  237MOL0     C31183   8.561   8.155   2.233  0.1461  0.3317 -1.0871
  237MOL0     C31184   8.622   8.213   2.126 -0.1493 -0.3487 -0.7334
  237MOL0     C31185   8.546   8.224   2.007  0.0169 -0.2781 -0.0260
  237MOL0     C31186   8.406   8.187   1.994 -0.1662 -0.4115 -0.0854
  237MOL0     O31187   8.332   8.222   1.883 -0.0700  0.1711 -0.3256
  237MOL0     C31188   8.388   8.319   1.794 -0.7337  0.2381 -0.9023
  237MOL0     C31189   8.291   8.364   1.684 -0.3131 -0.1710  0.5571
  237MOL0     C31190   8.171   8.444   1.745  0.6739 -0.3123 -0.1927
  237MOL0     C31191   8.206   8.591   1.767  0.5494 -0.9601  0.3467
  237MOL0     C31192   8.097   8.657   1.848  0.0962 -0.5012  0.4913
  237MOL0     C31193   7.968   8.663   1.770 -0.0906 -0.1399  0.4127
  237MOL0     C31194   7.880   8.777   1.826 -0.6414  1.2350 -1.5534
  237MOL0     C31195   7.740   8.757   1.803 -0.2532 -0.2060 -0.4287
  237MOL0    Cl31196   7.709   8.761   1.617 -0.7627  0.5370 -0.3986
  237MOL0     C31197   8.358   8.127   2.106 -0.4293  0.7757 -0.2467
  237MOL0     C31198   8.428   8.114   2.228  0.1308  0.4938  0.7572
  237MOL0     O31199   8.709   8.362   2.366 -0.2694  0.2988  0.1688
  237MOL0     C31200   8.940   8.280   2.521  0.1400  0.0409  0.1548
  237MOL0     C31201   9.057   8.228   2.588 -0.8161 -0.4645  0.5723
  237MOL0     N31202   9.497   7.933   3.228  0.9495 -0.0355  0.8793
  237MOL0     N31203   9.459   8.009   3.320 -0.4144  1.1082  0.7028
  237MOL0     C31204  10.572   8.098   3.288 -0.0170  0.3119  0.3446
  237MOL0     C31205  10.670   8.033   3.367  0.6251  0.4454  0.4629
  237MOL0     C31206  10.855   7.832   3.739 -0.7370 -0.0908  0.1387
  237MOL0     C31207  10.885   7.716   3.806 -0.0777  0.5557 -1.0099
  237MOL0     C31208  11.018   7.702   3.852  0.4498 -0.9126  0.0568
  237MOL0     C31209  11.109   7.805   3.847 -0.4951  0.3319 -0.4196
  237MOL0     O31210  11.226   7.806   3.915 -0.9158 -0.1114  0.0454
  237MOL0     C31211  11.266   7.681   3.979 -0.0901 -0.8201  0.5753
  237MOL0     C31212  11.394   7.716   4.044 -1.2321 -0.2054 -0.7688
  237MOL0     C31213  11.398   7.790   4.179 -0.4405 -0.9320  0.1390
  237MOL0     C31214  11.529   7.862   4.195  0.8284 -0.0527 -0.3216
  237MOL0     C31215  11.647   7.773   4.196  0.3884  0.3878 -0.8174
  237MOL0     C31216  11.753   7.715   4.180  0.4413  0.4533 -0.5367
  237MOL0     C31217  11.075   7.920   3.786 -0.7731  0.2366  0.6840
  237MOL0     C31218  10.950   7.933   3.728  0.4070 -0.7345 -0.4105
  237MOL0     H31219  10.465   7.955   3.625  1.0924  1.6126  1.0238
  237MOL0     H31220  10.292   8.038   3.482 -0.4092  2.6857  1.3732
  237MOL0     H31221  10.281   8.322   3.141  0.2920  0.9620 -0.1855
  237MOL0     H31222  10.407   8.337   3.267  0.0547 -0.2845 -0.1560
  237MOL0     H31223  10.173   8.437   3.297 -1.1169 -0.2386  0.1083
  237MOL0     H31224  10.218   8.328   3.433  0.4784  1.1625  0.1525
  237MOL0     H31225  10.056   8.159   3.332 -1.9917 -0.5981 -2.2417
  237MOL0     H31226  10.042   8.273   3.187  0.7447  0.7009 -0.0830
  237MOL0     H31227   9.977   8.357   3.464  4.4933 -3.0335 -0.6427
  237MOL0     H31228   9.927   8.428   3.301  1.6781  0.5951 -0.8759
  237MOL0     H31229   9.835   8.160   3.427 -1.7844 -0.7727 -0.5256
  237MOL0     H31230   9.784   8.242   3.272 -1.2461  2.9788 -0.3750
  237MOL0     H31231   9.704   8.431   3.414 -0.2052 -0.4516 -1.6633
  237MOL0     H31232   9.760   8.349   3.560 -0.4275  3.9705 -0.5262
  237MOL0     H31233   9.597   8.145   3.486  0.9664  0.1065 -0.2935
  237MOL0     H31234   9.533   8.292   3.555  0.4163 -1.7927  1.2859
  237MOL0     H31235   9.518   8.352   3.283 -2.1892 -0.3272 -1.4770
  237MOL0     H31236   9.399   8.297   3.389 -0.4499 -2.5341 -0.4903
  237MOL0     H31237   9.546   8.209   3.074 -0.2982 -0.8786 -2.3913
  237MOL0     H31238   9.547   7.816   3.014  0.7866  0.6447 -0.1610
  237MOL0     H31239   9.632   7.946   2.935  0.3511  0.2709 -0.1460
  237MOL0     H31240   9.336   7.861   2.930  0.3244 -0.3044  0.0541
  237MOL0     H31241   9.446   7.883   2.791  0.0556  1.5849 -0.5516
  237MOL0     H31242   9.299   8.092   2.950 -0.5152 -2.3842  0.6381
  237MOL0     H31243   9.439   8.138   2.852 -0.3527 -0.6830 -1.1578
  237MOL0     H31244   9.317   7.995   2.673 -0.5507 -2.1778  0.5445
  237MOL0     H31245   9.306   8.176   2.700  0.1880  0.0005  1.6933
  237MOL0     H31246   8.913   7.959   2.717 -0.3610  0.4872  0.6251
  237MOL0     H31247   8.722   8.032   2.564 -0.8644  1.9081 -1.9307
  237MOL0     H31248   8.724   8.250   2.126 -0.5917  1.0344  1.2621
  237MOL0     H31249   8.610   8.273   1.934  0.1514  0.0740  0.3223
  237MOL0     H31250   8.477   8.267   1.757 -1.4458 -0.5684 -1.5225
  237MOL0     H31251   8.428   8.402   1.853  1.5647 -3.1672  2.9010
  237MOL0     H31252   8.254   8.272   1.637 -3.9012 -0.1065  2.8764
  237MOL0     H31253   8.329   8.427   1.603 -1.6347  1.3909  1.0926
  237MOL0     H31254   8.136   8.393   1.836 -2.0240 -3.5737 -2.7941
  237MOL0     H31255   8.096   8.435   1.666  1.0756 -0.4322 -0.5645
  237MOL0     H31256   8.302   8.598   1.819  1.8810  1.1584 -2.1147
  237MOL0     H31257   8.215   8.630   1.665 -1.4947 -2.2408 -0.3939
  237MOL0     H31258   8.131   8.760   1.864  0.5164 -0.3267 -1.2697
  237MOL0     H31259   8.086   8.603   1.942  1.2730  0.3423  1.1327
  237MOL0     H31260   7.919   8.566   1.782 -0.0479 -0.2280 -0.1047
  237MOL0     H31261   7.979   8.686   1.664 -1.3235 -1.7910 -0.1150
  237MOL0     H31262   7.887   8.766   1.935 -2.2923 -1.6815 -1.6273
  237MOL0     H31263   7.911   8.875   1.788 -0.3324  1.7847  0.0366
  237MOL0     H31264   7.680   8.836   1.849 -1.5688 -0.4462 -1.6802
  237MOL0     H31265   7.703   8.669   1.857  0.9165 -0.8652 -0.6678
  237MOL0     H31266   8.258   8.084   2.106 -0.6837  0.9038  4.4206
  237MOL0     H31267   8.385   8.062   2.313 -2.0059 -2.8161 -2.0756
  237MOL0     H31268   8.944   8.367   2.456 -0.2167 -0.0942 -0.0537
  237MOL0     H31269   9.146   8.291   2.590 -1.6184  0.7898 -1.0726
  237MOL0     H31270  10.605   8.134   3.191  1.3969  0.0650  0.7168
  237MOL0     H31271  10.768   8.037   3.322  0.7432  1.4510  0.7993
  237MOL0     H31272  10.811   7.637   3.815  1.3379 -0.5886  2.4703
  237MOL0     H31273  11.037   7.607   3.900 -0.1959 -1.7737 -1.3473
  237MOL0     H31274  11.290   7.600   3.910  4.0147 -0.8800  1.8382
  237MOL0     H31275  11.195   7.651   4.056 -1.0681  0.5149  0.2361
  237MOL0     H31276  11.453   7.626   4.062  2.6804  2.5635  1.8511
  237MOL0     H31277  11.458   7.773   3.975  1.7385 -0.7066  1.3829
  237MOL0     H31278  11.383   7.712   4.255  2.0629 -4.1932 -2.3834
  237MOL0     H31279  11.315   7.861   4.177 -1.6895 -2.2968 -2.7498
  237MOL0     H31280  11.538   7.944   4.122 -2.7292  1.6061  0.8872
  237MOL0     H31281  11.543   7.917   4.288  1.3086  0.7665 -0.8586
  237MOL0     H31282  11.841   7.654   4.174 -0.6087 -1.4143  1.5211
  237MOL0     H31283  11.132   8.012   3.784 -0.4426  0.0645 -1.8297
  237MOL0     H31284  10.934   8.025   3.672  1.1354 -0.6372 -0.4739
  238MOL0     O31285   9.555   0.374   9.469  0.3390  0.4093 -0.1283
  238MOL0     C31286   9.551   0.258   9.433  0.4033  0.5928  1.1642
  238MOL0     O31287   9.436   0.183   9.433 -0.6412  0.2022  0.0797
  238MOL0     C31288   9.322   0.247   9.473  0.4260  0.0465 -0.0721
  238MOL0     C31289   9.284   0.379   9.430 -0.1163  0.9752 -0.0832
  238MOL0     C31290   9.153   0.427   9.466 -0.9221 -1.4841  0.1050
  238MOL0     C31291   9.069   0.355   9.541 -0.4295 -0.7238 -1.1191
  238MOL0     O31292   8.948   0.405   9.579 -0.2127  0.4661  0.1228
  238MOL0     C31293   8.966   0.503   9.682  0.3010 -0.8412 -0.4728
  238MOL0     C31294   8.825   0.514   9.746 -0.0459 -0.2474 -0.0797
  238MOL0     C31295   8.821   0.603   9.870 -0.4961  0.0286  0.1894
  238MOL0     C31296   8.923   0.567   9.989  0.1468  0.5935 -0.0054
  238MOL0     C31297   8.894   0.660  10.107 -0.1490  0.7961  0.6675
  238MOL0     C31298   9.009   0.679  10.201 -0.6992 -0.0664  0.4389
  238MOL0     C31299   8.999   0.785  10.304  0.3168  0.1769  0.3245
  238MOL0     C31300   9.062   0.746  10.444  0.5365 -0.5601 -0.6299
  238MOL0     N31301   9.043   0.857  10.545  0.8225  0.1103 -0.2596
  238MOL0     C31302   9.013   0.989  10.515 -0.2251 -0.9521 -0.5350
  238MOL0     C31303   9.007   1.048  10.638 -0.4583 -0.1987  1.1187
  238MOL0     C31304   9.012   1.195  10.660  0.6772  0.9465  0.0477
  238MOL0     C31305   8.882   1.252  10.694  0.1802  0.0746  0.1867
  238MOL0     C31306   8.847   1.216  10.849  0.5392 -0.2601  0.3411
  238MOL0     C31307   8.725   1.298  10.891  0.4035 -0.7980  0.0343
  238MOL0     O31308   8.615   1.275  10.794  0.1515  0.4320 -0.0350
  238MOL0     C31309   8.486   1.289  10.836  0.3680 -0.3882 -0.2609
  238MOL0     C31310   8.444   1.193  10.936 -0.3723  0.5785 -0.1058
  238MOL0     C31311   8.312   1.203  10.989 -0.7475  0.8388  0.3444
  238MOL0     C31312   8.228   1.305  10.946  0.0580 -0.3085  0.7071
  238MOL0     C31313   8.101   1.321  11.020  0.0816  0.0219  0.0310
  238MOL0     O31314   8.079   1.249  11.137  0.1856 -0.2430  0.5964
  238MOL0     C31315   7.954   1.244  11.202  0.3128 -0.2300  1.3855
  238MOL0     C31316   7.947   1.272  11.335 -0.3279 -0.2456 -0.0257
  238MOL0     C31317   7.828   1.259  11.405  0.8604 -0.6976 -0.1129
  238MOL0     C31318   7.714   1.200  11.349  0.0848 -0.1226  0.2608
  238MOL0     O31319   7.605   1.173  11.424  0.4132  0.4371 -0.0647
  238MOL0     C31320   7.550   1.299  11.467 -1.0891 -0.7654 -0.3564
  238MOL0     C31321   7.404   1.260  11.533 -0.1306  0.2749 -0.5375
  238MOL0     C31322   7.319   1.391  11.560  1.1885 -0.0953  0.4284
  238MOL0     C31323   7.267   1.479  11.448  0.0149  0.2901 -0.0485
  238MOL0     C31324   7.158   1.571  11.515 -0.1327 -0.0976 -0.1804
  238MOL0     C31325   7.120   1.668  11.405  0.0068  0.2600 -0.1495
  238MOL0     C31326   7.007   1.765  11.452  0.9708 -0.9055  0.6124
  238MOL0     C31327   7.006   1.895  11.371  0.9802 -0.0546 -0.0832
  238MOL0    Cl31328   7.017   1.848  11.197  0.6989  0.0750 -0.5430
  238MOL0     C31329   7.717   1.174  11.213 -0.2550  0.4086 -0.1344
  238MOL0     C31330   7.838   1.195  11.141  0.1364 -0.7147 -0.1344
  238MOL0     O31331   8.013   1.375  10.962 -0.3788 -0.1825 -0.0156
  238MOL0     C31332   8.276   1.399  10.859 -0.2456  0.0545  0.6069
  238MOL0     C31333   8.404   1.387  10.798  0.0696 -0.0885 -0.4008
  238MOL0     N31334   9.027   0.960  10.736  0.0273 -0.7237 -0.8572
  238MOL0     N31335   9.041   0.848  10.675  0.3277  0.5368  0.1373
  238MOL0     C31336   9.112   0.235   9.591 -0.1927  0.8565 -0.3840
  238MOL0     C31337   9.231   0.177   9.554  0.1122  0.3202 -1.1755
  238MOL0     C31338   9.679   0.193   9.383  0.7913  0.1925  0.3606
  238MOL0     C31339   9.680   0.061   9.318  0.1405  0.4639 -0.3903
  238MOL0     C31340   9.805   0.025   9.272 -0.7826  1.1982 -1.5245
  238MOL0     C31341   9.928   0.088   9.300 -0.4334  0.5630 -0.6322
  238MOL0     O31342  10.034   0.036   9.226 -0.0534 -0.3100 -0.1676
  238MOL0     C31343  10.171   0.088   9.247  1.0430  0.8190  0.0921
  238MOL0     C31344  10.278  -0.007   9.181 -1.3120  0.0672  0.1411
  238MOL0     C31345  10.413   0.069   9.205  0.5236  0.7336  0.5459
  238MOL0     C31346  10.443   0.088   9.351  0.1492  0.2947 -0.2482
  238MOL0     C31347  10.440  -0.046   9.419  0.4119 -1.0520 -1.1732
  238MOL0     C31348  10.444  -0.154   9.484 -0.5087  0.2726  1.1665
  238MOL0     C31349   9.927   0.203   9.382 -0.8666  0.1505 -0.0904
  238MOL0     C31350   9.801   0.248   9.417  1.0454 -0.4777  0.3439
  238MOL0     H31351   9.348   0.424   9.355  4.8353 -3.9835  0.4905
  238MOL0     H31352   9.116   0.522   9.427  2.3048 -0.8319 -1.7543
  238MOL0     H31353   8.997   0.596   9.635 -2.2987  0.9386  1.0725
  238MOL0     H31354   9.026   0.467   9.767 -0.1462 -0.6428 -0.0675
  238MOL0     H31355   8.794   0.410   9.758 -1.8844  0.0237 -1.9467
  238MOL0     H31356   8.762   0.567   9.674  1.7919  2.3763  0.0867
  238MOL0     H31357   8.724   0.593   9.920  1.4717  0.4647  4.5870
  238MOL0     H31358   8.838   0.708   9.846  2.3236 -0.3141  0.3926
  238MOL0     H31359   8.923   0.464  10.026 -2.3321  0.3889 -0.4328
  238MOL0     H31360   9.027   0.575   9.954 -0.0058  1.1644 -0.3483
  238MOL0     H31361   8.806   0.629  10.165 -3.1013  2.8226 -2.3081
  238MOL0     H31362   8.867   0.757  10.063  4.0883  0.9468 -2.1307
  238MOL0     H31363   9.092   0.709  10.136 -1.7713 -0.9595 -1.4318
  238MOL0     H31364   9.036   0.579  10.236 -1.6566 -0.9961 -1.3362
  238MOL0     H31365   9.056   0.872  10.270 -0.8456 -0.2608 -3.1949
  238MOL0     H31366   8.895   0.820  10.308 -0.2940 -1.6212  2.0921
  238MOL0     H31367   9.171   0.730  10.440  0.3832 -1.4337 -3.2185
  238MOL0     H31368   9.014   0.655  10.481  1.9264 -0.5484  1.3607
  238MOL0     H31369   9.011   1.042  10.420 -2.2346  0.7089  0.3468
  238MOL0     H31370   9.056   1.231  10.566  0.3528  0.5379 -0.2620
  238MOL0     H31371   9.087   1.222  10.735 -2.8394  3.7111  2.8989
  238MOL0     H31372   8.805   1.206  10.632  3.9041 -2.5097 -3.0072
  238MOL0     H31373   8.887   1.357  10.664 -0.7339  0.0612 -0.0456
  238MOL0     H31374   8.833   1.109  10.865 -1.0989  0.1119  1.6843
  238MOL0     H31375   8.920   1.246  10.925 -1.7649  1.8979  1.8880
  238MOL0     H31376   8.736   1.407  10.902  2.4472 -1.1170  1.6236
  238MOL0     H31377   8.701   1.268  10.993  0.5969 -0.7588  0.0905
  238MOL0     H31378   8.503   1.110  10.972  1.2340  0.7382 -2.1778
  238MOL0     H31379   8.282   1.137  11.070  1.7827 -2.3703 -1.0602
  238MOL0     H31380   8.041   1.301  11.381 -0.1017  4.3520 -2.7674
  238MOL0     H31381   7.840   1.273  11.512  2.6913  1.4178 -0.5261
  238MOL0     H31382   7.534   1.362  11.379 -1.7772  1.6044  1.3564
  238MOL0     H31383   7.618   1.355  11.533 -1.4437 -0.3656 -0.3256
  238MOL0     H31384   7.434   1.220  11.630  0.4225 -0.9852 -1.2167
  238MOL0     H31385   7.349   1.190  11.470 -0.6904 -1.2695  1.5731
  238MOL0     H31386   7.391   1.449  11.619  1.0477  0.0941  0.4141
  238MOL0     H31387   7.237   1.362  11.626  0.8377 -3.3585 -1.2581
  238MOL0     H31388   7.348   1.537  11.404  2.1265 -1.9916  0.5635
  238MOL0     H31389   7.234   1.418  11.363  1.7121 -0.5852 -0.1293
  238MOL0     H31390   7.185   1.625  11.606 -2.7089  2.0139 -0.5495
  238MOL0     H31391   7.071   1.511  11.545 -2.7569  2.6711 -1.7488
  238MOL0     H31392   7.083   1.611  11.319  0.6076  0.9961 -0.9098
  238MOL0     H31393   7.214   1.706  11.365  1.2507 -1.7762  0.6798
  238MOL0     H31394   6.911   1.714  11.464 -0.4587  0.9667 -1.9464
  238MOL0     H31395   7.025   1.805  11.553 -0.3628  5.0326 -1.0971
  238MOL0     H31396   7.080   1.963  11.414  2.0426  0.3679 -2.4009
  238MOL0     H31397   6.909   1.945  11.382  1.9346  2.4970 -2.3141
  238MOL0     H31398   7.622   1.142  11.173  0.2087  0.2696 -1.1491
  238MOL0     H31399   7.848   1.177  11.035 -0.2608 -1.3399 -0.0730
  238MOL0     H31400   8.212   1.482  10.830  2.2008  0.9096 -3.0805
  238MOL0     H31401   8.438   1.474  10.744 -0.2172  0.0067 -0.4277
  238MOL0     H31402   9.047   0.172   9.652 -0.0594  0.9928 -0.1020
  238MOL0     H31403   9.253   0.085   9.607 -0.0441  0.6229 -0.5822
  238MOL0     H31404   9.589   0.008   9.291  0.7742  0.0946 -1.8754
  238MOL0     H31405   9.819  -0.064   9.211  0.2859  2.2748 -2.9291
  238MOL0     H31406  10.195   0.095   9.353 -0.4825  1.9579  0.4011
  238MOL0     H31407  10.178   0.191   9.210 -0.8254  0.9148 -0.1139
  238MOL0     H31408  10.268  -0.104   9.230 -0.0529  0.6666  1.6574
  238MOL0     H31409  10.257  -0.038   9.078 -1.2802 -0.7362  0.3703
  238MOL0     H31410  10.408   0.163   9.150  3.6153 -0.1485 -1.4491
  238MOL0     H31411  10.488   0.009   9.154 -0.5526 -3.0798  3.0019
  238MOL0     H31412  10.539   0.136   9.370 -0.1363  0.8768 -0.2194
  238MOL0     H31413  10.374   0.149   9.410  0.0741  0.1875 -0.2238
  238MOL0     H31414  10.414  -0.248   9.527  1.4000  0.1029  2.2416
  238MOL0     H31415  10.017   0.259   9.400  1.0342 -2.6296 -0.2889
  238MOL0     H31416   9.798   0.344   9.467  0.4051 -1.1467  1.6724
  239MOL0     O31417   6.878   5.469   5.857  0.0625 -0.0137 -0.4541
  239MOL0     C31418   6.797   5.478   5.761 -0.7841 -0.7913 -0.3367
  239MOL0     O31419   6.669   5.434   5.754  0.5323 -0.0611  0.4235
  239MOL0     C31420   6.591   5.418   5.867 -0.0426  0.8734 -0.4928
  239MOL0     C31421   6.485   5.333   5.864  0.6016  0.1598 -0.5003
  239MOL0     C31422   6.402   5.298   5.969 -0.5904  0.4171 -0.2759
  239MOL0     C31423   6.421   5.366   6.091  0.1294  0.1367 -0.9038
  239MOL0     O31424   6.343   5.365   6.202 -0.4297  0.2624 -0.1291
  239MOL0     C31425   6.240   5.268   6.203  0.4372  0.0185  0.9178
  239MOL0     C31426   6.150   5.276   6.313  0.3852  0.3921  0.2095
  239MOL0     C31427   6.045   5.390   6.275 -0.5042  0.3773  0.0021
  239MOL0     C31428   5.953   5.434   6.390 -0.3313  0.1275  0.3893
  239MOL0     C31429   6.019   5.539   6.479 -0.3851 -0.3811 -0.3827
  239MOL0     C31430   5.930   5.618   6.571 -0.5583  0.0514 -0.2885
  239MOL0     C31431   5.860   5.524   6.663  0.2910 -0.7979 -0.1031
  239MOL0     C31432   5.787   5.617   6.760  0.3410  0.1719 -0.4924
  239MOL0     N31433   5.732   5.539   6.876 -1.0486 -0.3917  0.8032
  239MOL0     C31434   5.671   5.412   6.873 -0.1171 -0.4636  0.0792
  239MOL0     C31435   5.639   5.386   6.999  0.5748  0.4110  0.3646
  239MOL0     C31436   5.554   5.269   7.029 -0.3112  0.3031  0.5496
  239MOL0     C31437   5.403   5.293   7.000 -0.4006 -0.0609 -0.1686
  239MOL0     C31438   5.333   5.414   7.059  0.2558 -0.1685  0.6117
  239MOL0     C31439   5.278   5.395   7.202 -0.9968  0.0894 -0.1406
  239MOL0     O31440   5.136   5.372   7.206  0.8655 -0.0953  0.0777
  239MOL0     C31441   5.074   5.346   7.325 -0.3827 -0.4393 -0.2300
  239MOL0     C31442   4.934   5.326   7.309 -0.5345 -1.0722  0.2301
  239MOL0     C31443   4.852   5.304   7.418 -0.3508 -0.2803  0.4501
  239MOL0     C31444   4.898   5.304   7.544 -0.3573 -0.6713 -1.2310
  239MOL0     C31445   4.806   5.296   7.658  0.4783 -0.1555 -0.0404
  239MOL0     O31446   4.681   5.251   7.617 -0.0771 -0.9992 -0.1024
  239MOL0     C31447   4.588   5.226   7.714  0.1608  0.1089 -0.1501
  239MOL0     C31448   4.598   5.105   7.792 -0.1630 -0.2491  0.1958
  239MOL0     C31449   4.500   5.065   7.886 -0.3424 -0.4236 -0.5071
  239MOL0     C31450   4.389   5.146   7.897  0.0335 -0.3751  0.0138
  239MOL0     O31451   4.280   5.098   7.971 -0.6123 -0.1696 -0.1478
  239MOL0     C31452   4.152   5.149   7.963  0.2402 -0.4451  0.3194
  239MOL0     C31453   4.066   5.112   8.086  0.3524  0.5136 -0.3450
  239MOL0     C31454   3.929   5.181   8.063 -0.0047 -0.3244 -0.7329
  239MOL0     C31455   3.830   5.128   8.174 -0.1483 -1.1748  0.5077
  239MOL0     C31456   3.868   5.178   8.314 -0.6491  0.1355 -0.8269
  239MOL0     C31457   3.752   5.151   8.410 -1.1574 -0.4187 -0.9323
  239MOL0     C31458   3.749   4.996   8.438  0.4558  0.1460  0.5649
  239MOL0     C31459   3.688   4.960   8.574  0.4233 -0.6733 -0.1034
  239MOL0    Cl31460   3.510   4.946   8.575 -0.0220 -0.1007  0.4782
  239MOL0     C31461   4.380   5.279   7.831  0.6756  0.8732 -0.6311
  239MOL0     C31462   4.483   5.311   7.745  0.1639 -0.7975  0.5273
  239MOL0     O31463   4.835   5.321   7.778 -0.0206 -0.3095 -0.2098
  239MOL0     C31464   5.035   5.319   7.567 -0.1430 -0.0493 -0.8485
  239MOL0     C31465   5.121   5.342   7.459 -0.7078  0.2467 -0.5374
  239MOL0     N31466   5.659   5.496   7.079  0.0979 -0.3310  0.1585
  239MOL0     N31467   5.721   5.584   7.005  0.5489 -0.3159 -0.6495
  239MOL0     C31468   6.526   5.454   6.104  0.3342 -0.6533 -0.4719
  239MOL0     C31469   6.613   5.477   5.994 -0.2226 -0.5032 -0.3037
  239MOL0     C31470   6.857   5.531   5.635 -0.6431  0.1940 -0.5573
  239MOL0     C31471   6.789   5.536   5.512  0.0254 -0.0990 -0.4321
  239MOL0     C31472   6.861   5.580   5.397  0.2559  1.0670  0.0338
  239MOL0     C31473   6.998   5.610   5.401 -0.2953  0.8596 -0.6612
  239MOL0     O31474   7.074   5.628   5.289 -0.2730  0.1636  0.1484
  239MOL0     C31475   7.016   5.705   5.176 -0.2344  0.1793  0.2276
  239MOL0     C31476   7.132   5.758   5.086  1.0752 -0.9679  0.3015
  239MOL0     C31477   7.233   5.660   5.031  0.7570  0.0143 -0.6304
  239MOL0     C31478   7.163   5.544   4.960 -0.7397 -0.4811 -0.4321
  239MOL0     C31479   7.268   5.439   4.924  0.6505 -0.9710 -1.1958
  239MOL0     C31480   7.352   5.359   4.902  0.7245  0.5838  0.5591
  239MOL0     C31481   7.060   5.606   5.524 -0.3506  0.3824 -0.2367
  239MOL0     C31482   6.997   5.569   5.642 -0.6619 -0.6928 -0.6513
  239MOL0     H31483   6.456   5.291   5.769 -0.3501  0.2273 -0.2459
  239MOL0     H31484   6.320   5.237   5.932 -0.7955  2.1687 -3.0382
  239MOL0     H31485   6.292   5.172   6.215 -1.3579 -1.1671 -0.2148
  239MOL0     H31486   6.184   5.261   6.109 -1.0078 -0.2258  1.7679
  239MOL0     H31487   6.205   5.297   6.405  0.8106 -0.4269  0.1455
  239MOL0     H31488   6.095   5.182   6.322  2.9130 -1.2386 -0.3354
  239MOL0     H31489   5.993   5.347   6.189  2.2263 -1.4668 -0.8322
  239MOL0     H31490   6.101   5.476   6.238 -2.8227  2.3079  0.6748
  239MOL0     H31491   5.870   5.485   6.340  0.2429  3.7995  2.7641
  239MOL0     H31492   5.918   5.347   6.445  0.4220 -0.9702 -0.7998
  239MOL0     H31493   6.054   5.616   6.410  0.6570 -0.9448 -0.5034
  239MOL0     H31494   6.100   5.493   6.537 -2.8018 -2.2335  1.7902
  239MOL0     H31495   5.854   5.668   6.510 -1.0410 -1.5995 -1.0888
  239MOL0     H31496   5.986   5.689   6.632  1.0612 -2.1677  0.9389
  239MOL0     H31497   5.788   5.458   6.612 -1.6959  0.5736  0.7764
  239MOL0     H31498   5.928   5.456   6.715 -2.9395 -3.5969  0.8950
  239MOL0     H31499   5.710   5.679   6.713 -1.1967  0.6290  2.3437
  239MOL0     H31500   5.851   5.694   6.804 -3.1159  2.3418  1.2293
  239MOL0     H31501   5.648   5.365   6.777 -0.1662  5.2498 -3.1475
  239MOL0     H31502   5.562   5.232   7.132 -1.5396  1.0981  0.9621
  239MOL0     H31503   5.581   5.191   6.958  0.1201  1.5524 -0.7243
  239MOL0     H31504   5.343   5.204   7.017 -0.2090  0.3086  2.8534
  239MOL0     H31505   5.390   5.310   6.892 -3.3094 -2.4051 -0.3022
  239MOL0     H31506   5.388   5.508   7.050 -1.6465  0.8446 -1.1654
  239MOL0     H31507   5.246   5.418   6.993  2.4035 -1.0030 -2.5095
  239MOL0     H31508   5.291   5.481   7.267  0.2740 -1.6583  2.0389
  239MOL0     H31509   5.330   5.304   7.234 -0.0268 -0.7152 -3.5458
  239MOL0     H31510   4.897   5.323   7.207 -1.3975  2.5762  0.2817
  239MOL0     H31511   4.748   5.279   7.396 -0.0225 -0.3880 -1.0997
  239MOL0     H31512   4.692   5.051   7.789  1.2056  1.8879  1.6662
  239MOL0     H31513   4.504   4.968   7.935  1.7084  1.9333  4.7235
  239MOL0     H31514   4.105   5.123   7.868 -0.7268  2.1966 -0.0217
  239MOL0     H31515   4.149   5.258   7.958 -5.6343 -0.3255 -1.4115
  239MOL0     H31516   4.124   5.153   8.169 -1.0944  2.4557 -0.2099
  239MOL0     H31517   4.057   5.004   8.103  1.5825 -0.2991 -3.9014
  239MOL0     H31518   3.885   5.144   7.970 -1.9795 -1.8952  0.7443
  239MOL0     H31519   3.930   5.290   8.054  0.2271 -0.4615 -3.2375
  239MOL0     H31520   3.729   5.160   8.150 -1.0489 -4.2559 -0.2735
  239MOL0     H31521   3.825   5.019   8.168  3.2523 -1.5764  2.1373
  239MOL0     H31522   3.896   5.283   8.303 -2.1957  0.5508 -1.0375
  239MOL0     H31523   3.957   5.124   8.346 -0.1670  1.6293  0.4780
  239MOL0     H31524   3.657   5.184   8.367 -0.3782  3.1956 -0.1714
  239MOL0     H31525   3.754   5.207   8.503 -0.6499 -0.8506 -0.6763
  239MOL0     H31526   3.688   4.951   8.360  1.5041  0.8041 -0.6663
  239MOL0     H31527   3.852   4.958   8.442  1.1671  1.9944  3.2527
  239MOL0     H31528   3.722   5.037   8.644 -3.6118 -0.8622  2.3755
  239MOL0     H31529   3.736   4.863   8.593  1.0472 -0.3615 -0.0746
  239MOL0     H31530   4.302   5.354   7.839  1.0901  1.2071  0.4467
  239MOL0     H31531   4.487   5.403   7.687  1.7064 -0.7235  0.7076
  239MOL0     H31532   5.073   5.308   7.668 -0.4029 -3.0405 -0.9781
  239MOL0     H31533   5.224   5.359   7.491 -1.1948 -0.1143  1.3320
  239MOL0     H31534   6.544   5.507   6.196  0.9931 -1.1210 -0.3168
  239MOL0     H31535   6.701   5.538   6.012 -1.0367  0.5922  0.0969
  239MOL0     H31536   6.683   5.511   5.505  0.1282 -2.2993  3.1277
  239MOL0     H31537   6.803   5.585   5.305  2.7687 -0.4441 -1.7551
  239MOL0     H31538   6.957   5.783   5.225 -0.6178 -1.1959  2.0346
  239MOL0     H31539   6.952   5.640   5.116 -0.4092 -1.4908  2.1191
  239MOL0     H31540   7.084   5.814   5.004  0.3976 -0.5239  0.9829
  239MOL0     H31541   7.191   5.824   5.150  1.6471  0.0292 -1.1906
  239MOL0     H31542   7.300   5.624   5.109 -0.1209  0.2145  0.2542
  239MOL0     H31543   7.295   5.714   4.959  0.4311 -1.2158 -1.8638
  239MOL0     H31544   7.089   5.493   5.022 -1.8334 -0.7720 -1.9246
  239MOL0     H31545   7.124   5.584   4.865  1.3468 -2.1903 -2.1166
  239MOL0     H31546   7.422   5.286   4.864  0.2789 -2.0431  4.2806
  239MOL0     H31547   7.168   5.621   5.525 -0.1869 -0.0203 -3.2599
  239MOL0     H31548   7.059   5.561   5.731  2.0024 -1.0321 -2.4232
  240MOL0     O31549   6.456   5.467   1.683  0.1785  0.2449  0.2794
  240MOL0     C31550   6.485   5.355   1.723 -0.1151  0.3287  0.0096
  240MOL0     O31551   6.452   5.291   1.843 -0.3772 -0.1567  0.0640
  240MOL0     C31552   6.357   5.344   1.926 -0.0923  0.0734 -0.6933
  240MOL0     C31553   6.397   5.454   2.002  0.0765 -0.1570 -0.8470
  240MOL0     C31554   6.301   5.507   2.096  0.8483  0.0337  0.2328
  240MOL0     C31555   6.175   5.436   2.126 -0.4148 -0.5445  0.1783
  240MOL0     O31556   6.088   5.479   2.220  0.0877  0.1360 -0.4921
  240MOL0     C31557   6.155   5.466   2.353 -0.6135 -0.6327 -0.8278
  240MOL0     C31558   6.118   5.346   2.423  0.3946 -0.3387  0.8620
  240MOL0     C31559   5.991   5.366   2.497  0.1351  0.3080  0.1426
  240MOL0     C31560   5.955   5.233   2.575  0.1928 -0.1270 -0.6944
  240MOL0     C31561   5.819   5.265   2.655  0.9206 -0.0175  0.4681
  240MOL0     C31562   5.798   5.151   2.758 -0.8601 -0.0542 -0.5031
  240MOL0     C31563   5.660   5.153   2.830 -0.8495 -0.1296  0.6651
  240MOL0     C31564   5.650   5.028   2.916  0.4089 -1.6438  0.2202
  240MOL0     N31565   5.518   4.999   2.967 -0.3723  0.8173 -0.3680
  240MOL0     C31566   5.432   4.913   2.906 -0.0744 -0.2338 -0.5187
  240MOL0     C31567   5.337   4.890   3.002  0.8375 -0.3486  0.2816
  240MOL0     C31568   5.227   4.793   2.975  0.1635 -0.3579 -0.5377
  240MOL0     C31569   5.104   4.807   3.069 -0.6722  0.1878  0.1004
  240MOL0     C31570   5.034   4.939   3.048  0.7634 -0.8680 -1.3716
  240MOL0     C31571   4.890   4.946   3.099 -0.1164  0.1630  0.1834
  240MOL0     O31572   4.796   4.865   3.020 -0.0564 -0.2443 -0.4401
  240MOL0     C31573   4.667   4.856   3.057 -0.4129  0.0215 -0.3152
  240MOL0     C31574   4.608   4.954   3.138  0.4295 -0.6431  0.3610
  240MOL0     C31575   4.479   4.945   3.178 -0.4297 -0.2488 -0.2876
  240MOL0     C31576   4.394   4.847   3.122 -0.0322 -0.3320 -0.9648
  240MOL0     C31577   4.256   4.827   3.180 -0.6553  0.0463  0.2865
  240MOL0     O31578   4.202   4.712   3.133  0.5217 -0.3290  0.7438
  240MOL0     C31579   4.072   4.669   3.161  0.3031  0.8494 -0.2932
  240MOL0     C31580   4.057   4.537   3.219 -0.2052 -0.2067  0.7665
  240MOL0     C31581   3.931   4.487   3.244 -0.1797  0.4246  0.9615
  240MOL0     C31582   3.821   4.551   3.191  0.6372  0.5792  0.3918
  240MOL0     O31583   3.706   4.483   3.211  1.1844  0.0910  1.3501
  240MOL0     C31584   3.579   4.553   3.181 -0.1728  0.9021  0.5728
  240MOL0     C31585   3.474   4.451   3.172 -0.4143 -0.3796  0.2394
  240MOL0     C31586   3.450   4.350   3.289 -0.0652 -0.9851 -0.2275
  240MOL0     C31587   3.382   4.420   3.404 -0.7695  0.2407  0.8626
  240MOL0     C31588   3.382   4.326   3.526 -0.2777  1.0107 -0.5244
  240MOL0     C31589   3.284   4.214   3.515 -0.2444  0.4666 -0.4385
  240MOL0     C31590   3.139   4.259   3.507  0.5657 -0.5176  0.7681
  240MOL0     C31591   3.055   4.142   3.452 -0.5447  0.3551 -0.6758
  240MOL0    Cl31592   3.077   4.107   3.287 -0.0516 -0.0546 -0.3074
  240MOL0     C31593   3.840   4.683   3.144 -0.5495  0.9215  0.0077
  240MOL0     C31594   3.960   4.746   3.130 -0.5081 -0.1429 -0.0404
  240MOL0     O31595   4.201   4.915   3.245  0.1129 -0.1967 -0.2544
  240MOL0     C31596   4.452   4.750   3.032 -0.2155  0.2777 -0.6437
  240MOL0     C31597   4.588   4.762   2.999  0.2873  0.0574  0.5310
  240MOL0     N31598   5.364   4.976   3.109  0.0178  0.1267  0.4988
  240MOL0     N31599   5.487   5.023   3.091  0.6566 -0.5888 -0.4136
  240MOL0     C31600   6.159   5.304   2.075 -1.1960  0.3039  0.1883
  240MOL0     C31601   6.247   5.268   1.970  0.0918 -0.4133  0.2922
  240MOL0     C31602   6.583   5.274   1.642 -0.3001 -0.9879  0.3282
  240MOL0     C31603   6.651   5.344   1.540 -0.6396 -0.1672  0.4003
  240MOL0     C31604   6.739   5.271   1.453  0.0774 -1.0001  0.4866
  240MOL0     C31605   6.746   5.134   1.469 -0.2934  0.0347  0.0015
  240MOL0     O31606   6.830   5.054   1.390 -0.0659  0.0050  0.0285
  240MOL0     C31607   6.939   5.107   1.319 -0.1562 -0.2391 -1.0042
  240MOL0     C31608   7.007   4.998   1.237  0.9468  0.5289  0.4336
  240MOL0     C31609   7.118   5.053   1.138  0.3729 -0.2449  1.1643
  240MOL0     C31610   7.066   5.064   0.990 -0.2737 -1.2833  0.2645
  240MOL0     C31611   7.166   5.119   0.897  0.7286  0.0107  1.0962
  240MOL0     C31612   7.247   5.175   0.827  0.6227 -0.3987 -0.1065
  240MOL0     C31613   6.665   5.063   1.557 -0.1637 -0.2580  0.0121
  240MOL0     C31614   6.579   5.137   1.644 -1.1198 -0.5623 -0.1084
  240MOL0     H31615   6.494   5.500   1.985 -0.5910  2.4648  1.6596
  240MOL0     H31616   6.334   5.594   2.152  3.9486 -1.5458  1.0580
  240MOL0     H31617   6.132   5.547   2.423 -2.1066 -0.4165 -1.5315
  240MOL0     H31618   6.263   5.472   2.340 -0.6670  0.6177 -0.7719
  240MOL0     H31619   6.198   5.332   2.496  3.4436  1.4369 -1.8334
  240MOL0     H31620   6.109   5.265   2.350 -0.2990  0.8999 -0.4769
  240MOL0     H31621   5.920   5.397   2.420  1.3732 -1.0438 -1.6195
  240MOL0     H31622   6.001   5.445   2.571  0.2344  1.2215 -0.8210
  240MOL0     H31623   5.938   5.152   2.503  0.7007 -0.4524 -0.4531
  240MOL0     H31624   6.032   5.201   2.646 -1.3275 -2.8862 -0.1558
  240MOL0     H31625   5.734   5.278   2.588  0.2016  3.0337  1.7915
  240MOL0     H31626   5.833   5.360   2.708  0.6855  1.0374 -1.2584
  240MOL0     H31627   5.882   5.145   2.827  0.4310  1.3402 -1.8634
  240MOL0     H31628   5.796   5.053   2.709  2.8539 -0.8637  0.6764
  240MOL0     H31629   5.644   5.242   2.891 -0.2656  1.5915 -1.5685
  240MOL0     H31630   5.595   5.157   2.742 -0.7895  0.2012  0.6362
  240MOL0     H31631   5.725   5.036   2.995  1.7933 -2.8501 -0.9125
  240MOL0     H31632   5.690   4.934   2.876  0.7523 -2.1649  1.7430
  240MOL0     H31633   5.436   4.878   2.804  0.0254  0.7817 -0.8794
  240MOL0     H31634   5.274   4.694   2.973  1.0876  0.0227 -3.8682
  240MOL0     H31635   5.183   4.810   2.876 -1.6564  0.2789  0.3353
  240MOL0     H31636   5.135   4.789   3.172 -1.2829 -4.0359 -0.3087
  240MOL0     H31637   5.050   4.717   3.039  0.6816  0.1834 -2.6914
  240MOL0     H31638   5.090   5.019   3.097 -1.7234  1.0712 -1.5044
  240MOL0     H31639   5.028   4.970   2.943 -0.7985 -0.8295 -1.2965
  240MOL0     H31640   4.861   5.051   3.091  1.4842  0.6714  0.6624
  240MOL0     H31641   4.883   4.912   3.203 -2.3691  0.7759  0.2840
  240MOL0     H31642   4.667   5.024   3.196  2.1961 -1.3723 -0.4706
  240MOL0     H31643   4.440   5.013   3.252  3.4499  1.9232  0.0430
  240MOL0     H31644   4.147   4.501   3.266 -1.3824 -0.1558  3.1859
  240MOL0     H31645   3.906   4.394   3.293 -1.0258 -0.2776 -0.7021
  240MOL0     H31646   3.586   4.602   3.084  0.0948 -0.1886  0.0185
  240MOL0     H31647   3.550   4.617   3.264 -0.3138 -0.6101  1.7323
  240MOL0     H31648   3.504   4.388   3.087 -0.0964  1.2783 -0.9185
  240MOL0     H31649   3.379   4.499   3.145  0.8939  2.5857  0.5208
  240MOL0     H31650   3.539   4.291   3.312  1.5015  0.0219 -3.1851
  240MOL0     H31651   3.377   4.278   3.251 -3.2452  1.2746  1.2390
  240MOL0     H31652   3.448   4.499   3.441  0.7574 -0.7042  0.2910
  240MOL0     H31653   3.286   4.455   3.367 -0.2675 -0.7702 -1.6380
  240MOL0     H31654   3.353   4.383   3.615 -2.6236  0.9423 -1.1735
  240MOL0     H31655   3.475   4.274   3.550 -0.4608  1.3971  1.1678
  240MOL0     H31656   3.289   4.145   3.599  3.6071 -1.5930 -2.0615
  240MOL0     H31657   3.309   4.150   3.430 -1.5279 -1.3257  0.4663
  240MOL0     H31658   3.093   4.284   3.603  2.1702  0.3005  1.3581
  240MOL0     H31659   3.127   4.346   3.442  0.7968 -1.4656 -0.5966
  240MOL0     H31660   2.948   4.158   3.471 -0.2957  0.6180  0.5601
  240MOL0     H31661   3.088   4.051   3.503 -0.5491  0.1408 -1.0474
  240MOL0     H31662   3.752   4.742   3.119  1.3999  3.8976 -0.4818
  240MOL0     H31663   3.987   4.844   3.094  4.8394 -0.7493  1.5044
  240MOL0     H31664   4.401   4.666   2.987  1.0610 -1.6417  1.2479
  240MOL0     H31665   4.642   4.699   2.930 -2.0573 -2.9274  1.2202
  240MOL0     H31666   6.067   5.248   2.088 -2.8707  3.2670  2.2970
  240MOL0     H31667   6.224   5.168   1.935 -0.2554 -0.2168 -0.0456
  240MOL0     H31668   6.636   5.451   1.528 -1.6133 -0.1472  1.5704
  240MOL0     H31669   6.788   5.321   1.370 -0.6210 -1.0567  0.0378
  240MOL0     H31670   7.013   5.148   1.388  1.2072  1.6263 -3.3828
  240MOL0     H31671   6.907   5.188   1.253 -1.6455 -1.7538 -2.2114
  240MOL0     H31672   7.067   4.934   1.302 -4.5535 -3.0991  2.6664
  240MOL0     H31673   6.931   4.939   1.185  0.6710  2.0191 -0.9309
  240MOL0     H31674   7.190   4.971   1.134 -2.5657 -2.9818 -1.2965
  240MOL0     H31675   7.168   5.144   1.174 -0.9842  1.1791 -0.3585
  240MOL0     H31676   7.020   4.968   0.965  2.5117 -3.2223  1.9648
  240MOL0     H31677   6.993   5.146   0.987  0.8299 -0.2323  1.0585
  240MOL0     H31678   7.319   5.215   0.757  0.4878 -0.4978 -0.3023
  240MOL0     H31679   6.667   4.954   1.561 -4.2122 -0.4442  1.4233
  240MOL0     H31680   6.518   5.086   1.717  0.0343 -1.3336  0.3474
  241MOL0     O31681   4.348   9.495   1.775 -0.0586  0.3820 -0.1024
  241MOL0     C31682   4.437   9.554   1.841  0.3599 -1.0730 -0.9245
  241MOL0     O31683   4.412   9.637   1.950  0.0657 -0.2593 -0.2806
  241MOL0     C31684   4.300   9.601   2.013  0.3783  0.2501  0.1984
  241MOL0     C31685   4.295   9.522   2.124  0.6679  1.1798  0.3613
  241MOL0     C31686   4.172   9.495   2.190  1.0589 -0.3986  0.4441
  241MOL0     C31687   4.052   9.573   2.163  0.7277  0.4672 -0.6935
  241MOL0     O31688   3.932   9.558   2.212  0.2237 -0.1307  0.4058
  241MOL0     C31689   3.928   9.572   2.357  0.3508  0.8007  0.4371
  241MOL0     C31690   3.785   9.603   2.407 -0.8655  0.5340 -0.2124
  241MOL0     C31691   3.773   9.559   2.553  0.0185  0.2896 -0.9139
  241MOL0     C31692   3.649   9.621   2.618 -0.2011 -0.0157 -0.8906
  241MOL0     C31693   3.514   9.569   2.558 -0.0127 -0.6621 -0.0478
  241MOL0     C31694   3.401   9.668   2.589 -0.9516  0.8096 -0.2051
  241MOL0     C31695   3.292   9.684   2.477  0.3344  0.1779  0.3660
  241MOL0     C31696   3.334   9.756   2.349  0.0418  0.5181 -0.7490
  241MOL0     N31697   3.225   9.796   2.267 -0.1287 -0.0881 -0.2949
  241MOL0     C31698   3.089   9.756   2.263 -0.5320 -1.1562  0.0575
  241MOL0     C31699   3.045   9.818   2.148  0.1447 -0.2344  0.1685
  241MOL0     C31700   2.901   9.810   2.100  1.0872  0.4534  0.2836
  241MOL0     C31701   2.794   9.816   2.210  0.1005 -0.0567  0.6125
  241MOL0     C31702   2.651   9.801   2.157 -0.2501 -0.2202 -0.1319
  241MOL0     C31703   2.555   9.735   2.254  0.1967 -0.1384 -0.4676
  241MOL0     O31704   2.535   9.821   2.366 -0.0520 -0.2409  0.4168
  241MOL0     C31705   2.448   9.922   2.352 -0.2493  0.4593  1.0238
  241MOL0     C31706   2.310   9.907   2.364 -0.5312  0.6576 -0.3232
  241MOL0     C31707   2.217  10.009   2.345  0.2151 -0.1816 -0.6801
  241MOL0     C31708   2.261  10.141   2.286  0.7857  0.2528  0.3280
  241MOL0     C31709   2.162  10.254   2.266  0.1243 -0.3154 -0.2309
  241MOL0     O31710   2.028  10.225   2.292 -0.2364  0.1412  0.2669
  241MOL0     C31711   1.926  10.316   2.273  0.4432 -0.5839 -0.9867
  241MOL0     C31712   1.800  10.259   2.257  0.0928  0.8678  0.0942
  241MOL0     C31713   1.685  10.337   2.216  0.2179 -0.0329  0.2322
  241MOL0     C31714   1.686  10.479   2.231  0.8798  0.2834  0.3433
  241MOL0     O31715   1.584  10.564   2.193 -0.0219 -0.7742 -0.1373
  241MOL0     C31716   1.450  10.518   2.215 -0.7351 -0.1472  0.3694
  241MOL0     C31717   1.343  10.586   2.128 -1.0678  0.6546  0.3938
  241MOL0     C31718   1.312  10.729   2.152 -0.2265  0.9300 -0.7701
  241MOL0     C31719   1.232  10.744   2.276  1.7976  0.3557  0.2545
  241MOL0     C31720   1.225  10.884   2.320 -0.0222  0.3187 -0.2339
  241MOL0     C31721   1.101  10.912   2.405 -0.6609 -0.2980 -0.4510
  241MOL0     C31722   1.081  11.058   2.428 -0.8212 -0.7912 -0.3692
  241MOL0     C31723   0.980  11.087   2.537 -0.1456 -0.7292  0.1237
  241MOL0    Cl31724   0.839  10.987   2.484 -0.0894  0.1375  0.1723
  241MOL0     C31725   1.804  10.536   2.263 -0.7479  0.3779 -0.5046
  241MOL0     C31726   1.927  10.456   2.285 -0.3842 -0.1906  0.2728
  241MOL0     O31727   2.204  10.355   2.217 -0.0575  0.3435 -0.3756
  241MOL0     C31728   2.397  10.148   2.264 -0.3425 -0.5226 -0.0039
  241MOL0     C31729   2.486  10.040   2.288  0.0290  1.0534 -0.4965
  241MOL0     N31730   3.152   9.884   2.090 -0.4883  0.2754  1.0006
  241MOL0     N31731   3.255   9.867   2.156 -0.6843 -0.4115 -0.5305
  241MOL0     C31732   4.054   9.649   2.051 -0.3220  0.1152 -0.0804
  241MOL0     C31733   4.180   9.670   1.977 -0.2758 -0.6531  0.5289
  241MOL0     C31734   4.569   9.549   1.783 -0.2996 -0.5863  1.0197
  241MOL0     C31735   4.683   9.573   1.859 -0.6271 -0.3413 -0.0598
  241MOL0     C31736   4.816   9.563   1.813 -0.0690 -0.2870 -0.1506
  241MOL0     C31737   4.832   9.531   1.677 -0.9725 -0.1875 -0.5956
  241MOL0     O31738   4.958   9.509   1.614  0.2559 -0.1596  0.2622
  241MOL0     C31739   5.063   9.593   1.664  0.6824  0.7431  0.8357
  241MOL0     C31740   5.197   9.575   1.595  0.7592 -0.5998 -0.1528
  241MOL0     C31741   5.226   9.429   1.556 -0.8468 -0.7690 -0.2080
  241MOL0     C31742   5.246   9.346   1.682  0.5623 -0.0472 -0.6077
  241MOL0     C31743   5.320   9.231   1.633  0.2461  0.3218 -0.0593
  241MOL0     C31744   5.375   9.127   1.595  0.3935  0.5919  0.2767
  241MOL0     C31745   4.721   9.517   1.599  0.7962 -0.3516  1.0239
  241MOL0     C31746   4.592   9.527   1.652 -1.0212 -1.2599 -0.3115
  241MOL0     H31747   4.382   9.467   2.159 -1.9975 -3.6905  0.1826
  241MOL0     H31748   4.173   9.418   2.266 -2.0300 -2.1690 -1.1050
  241MOL0     H31749   4.006   9.639   2.395  0.2855  1.7717 -1.0590
  241MOL0     H31750   3.958   9.473   2.392  1.1099  1.4239  1.6121
  241MOL0     H31751   3.713   9.542   2.352  1.7450 -1.3859 -1.7230
  241MOL0     H31752   3.774   9.711   2.394  0.5494  0.7244  0.0442
  241MOL0     H31753   3.855   9.603   2.611 -0.0425 -0.9993  0.2078
  241MOL0     H31754   3.768   9.451   2.566 -0.4519  0.0532 -2.7919
  241MOL0     H31755   3.651   9.595   2.724 -0.8570 -0.8579 -1.0686
  241MOL0     H31756   3.652   9.730   2.619  2.8031 -0.0269  0.3155
  241MOL0     H31757   3.496   9.472   2.605  1.9172  0.0882  2.5415
  241MOL0     H31758   3.517   9.548   2.451 -0.5759 -2.3423  0.2401
  241MOL0     H31759   3.452   9.765   2.596  2.5740 -0.9879  1.5305
  241MOL0     H31760   3.367   9.645   2.691  0.8112 -2.3810 -0.2116
  241MOL0     H31761   3.240   9.589   2.458  0.9852 -0.3759  1.2646
  241MOL0     H31762   3.211   9.736   2.528 -0.9129  0.2604 -1.5871
  241MOL0     H31763   3.396   9.679   2.302  1.2492 -0.0766  1.6769
  241MOL0     H31764   3.399   9.843   2.365  0.8322 -0.1471 -0.2495
  241MOL0     H31765   3.036   9.702   2.340 -2.9602  1.1691  0.1892
  241MOL0     H31766   2.886   9.716   2.046  2.9083 -0.4860  1.3199
  241MOL0     H31767   2.879   9.889   2.027  0.8145 -1.1972 -1.5100
  241MOL0     H31768   2.797   9.909   2.267 -0.6131  0.8418 -0.7881
  241MOL0     H31769   2.804   9.732   2.280  1.3605  0.2173  0.7998
  241MOL0     H31770   2.613   9.898   2.123 -0.5238  0.4267  1.9015
  241MOL0     H31771   2.651   9.742   2.065  3.8961  0.2836 -0.6730
  241MOL0     H31772   2.611   9.654   2.301 -1.0543 -0.6455  0.2001
  241MOL0     H31773   2.459   9.698   2.216 -0.0536  1.3518 -1.3862
  241MOL0     H31774   2.277   9.808   2.393 -0.0515 -0.4460 -3.1735
  241MOL0     H31775   2.110  10.009   2.363 -0.0791  0.0319 -2.3341
  241MOL0     H31776   1.800  10.153   2.236 -3.3608  1.0453 -1.3870
  241MOL0     H31777   1.608  10.271   2.177  0.2127  0.1647 -0.1022
  241MOL0     H31778   1.449  10.532   2.324  3.7513 -1.1006  0.7267
  241MOL0     H31779   1.440  10.411   2.194  0.0700  0.3254 -3.0403
  241MOL0     H31780   1.248  10.533   2.135 -0.3319 -0.7264  0.2158
  241MOL0     H31781   1.368  10.567   2.023 -0.8739  0.1714  0.5256
  241MOL0     H31782   1.248  10.746   2.065 -0.9980 -3.0245 -1.1642
  241MOL0     H31783   1.395  10.801   2.154 -0.7216  1.5852  2.5665
  241MOL0     H31784   1.131  10.715   2.243  2.3361 -0.5741 -0.6323
  241MOL0     H31785   1.262  10.674   2.354 -2.3409 -2.4876 -0.3470
  241MOL0     H31786   1.226  10.953   2.235 -2.3580  0.4838 -0.1922
  241MOL0     H31787   1.313  10.902   2.382  0.3773  1.2733 -1.0584
  241MOL0     H31788   1.124  10.858   2.498 -0.6469 -1.2621 -1.0006
  241MOL0     H31789   1.012  10.869   2.358 -0.7762 -0.8875  0.2808
  241MOL0     H31790   1.178  11.095   2.463 -0.9059 -1.7497  0.9886
  241MOL0     H31791   1.065  11.117   2.337  0.7497  0.4715  0.1149
  241MOL0     H31792   0.936  11.186   2.546 -0.1080 -0.9107  3.9845
  241MOL0     H31793   1.016  11.054   2.635 -1.7646 -3.1840 -0.0077
  241MOL0     H31794   1.796  10.643   2.278 -1.5639  0.5327 -1.9046
  241MOL0     H31795   2.018  10.507   2.317 -0.4914 -1.1161  2.1830
  241MOL0     H31796   2.439  10.235   2.215 -0.0636  0.3330  1.6547
  241MOL0     H31797   2.593  10.051   2.275  0.1153  4.0364  1.7301
  241MOL0     H31798   3.957   9.691   2.027 -0.2353  0.0401 -0.5738
  241MOL0     H31799   4.179   9.742   1.896  0.5432  1.4738  2.3252
  241MOL0     H31800   4.673   9.583   1.967  2.3015 -2.2566  0.5025
  241MOL0     H31801   4.888   9.555   1.893  0.5183  0.1700 -0.6256
  241MOL0     H31802   5.081   9.562   1.767  1.1064 -0.8781  0.2965
  241MOL0     H31803   5.037   9.699   1.672 -3.1082 -0.0983  1.3353
  241MOL0     H31804   5.196   9.626   1.499  0.7086 -1.9331 -0.8841
  241MOL0     H31805   5.275   9.631   1.647  2.0381 -1.0150 -1.5543
  241MOL0     H31806   5.318   9.433   1.497  1.6141 -3.3500  3.0157
  241MOL0     H31807   5.145   9.378   1.503 -3.2784  2.7900 -0.2230
  241MOL0     H31808   5.299   9.399   1.762 -0.5788 -2.1976  1.7347
  241MOL0     H31809   5.145   9.326   1.720  0.8363 -1.5922 -0.6437
  241MOL0     H31810   5.421   9.039   1.556  1.6093  0.9902  0.7880
  241MOL0     H31811   4.721   9.489   1.494 -0.8945  3.2296 -0.0944
  241MOL0     H31812   4.498   9.506   1.602 -2.4054 -0.4398  1.7980
  242MOL0     O31813   5.556   2.320  10.141 -0.3440  0.2385  0.4254
  242MOL0     C31814   5.537   2.204  10.172  0.3753  0.4436 -0.1358
  242MOL0     O31815   5.641   2.117  10.209  0.9022  0.7666 -0.2199
  242MOL0     C31816   5.768   2.123  10.155  0.2296  0.4571  1.0148
  242MOL0     C31817   5.877   2.073  10.220  0.3828  0.2381  0.4508
  242MOL0     C31818   6.009   2.077  10.173 -0.3967  0.7837 -0.1579
  242MOL0     C31819   6.032   2.123  10.041  0.5260 -0.0732 -0.1237
  242MOL0     O31820   6.156   2.130   9.985  0.3211 -0.2066  0.3172
  242MOL0     C31821   6.270   2.105  10.058  0.8449  0.3302 -0.9204
  242MOL0     C31822   6.393   2.149   9.978  0.2470 -0.0724  0.6180
  242MOL0     C31823   6.519   2.146  10.064  0.1890 -0.0594  0.2835
  242MOL0     C31824   6.651   2.183   9.989 -0.0613  0.6251 -0.0666
  242MOL0     C31825   6.782   2.185  10.071  0.4460  0.1735 -0.5961
  242MOL0     C31826   6.793   2.315  10.156 -0.1857 -0.1465  0.1269
  242MOL0     C31827   6.900   2.313  10.262  0.5895  0.3200  0.4115
  242MOL0     C31828   6.885   2.196  10.357 -0.3434 -0.1374  0.5311
  242MOL0     N31829   6.749   2.160  10.403 -0.3452 -0.0119 -0.3027
  242MOL0     C31830   6.654   2.238  10.478 -1.0325 -0.3530 -0.0211
  242MOL0     C31831   6.544   2.162  10.493  0.2767  0.5988  0.0340
  242MOL0     C31832   6.415   2.183  10.568  0.5939 -0.7264  0.8186
  242MOL0     C31833   6.290   2.212  10.481  0.6307  0.8503 -0.1868
  242MOL0     C31834   6.318   2.313  10.379  0.2875  0.0774 -0.1221
  242MOL0     C31835   6.192   2.361  10.326  0.1221  0.2052 -0.4651
  242MOL0     O31836   6.125   2.453  10.410 -0.5199 -0.0604  0.4061
  242MOL0     C31837   6.013   2.523  10.363  0.2788  0.1006  0.4287
  242MOL0     C31838   5.949   2.606  10.450  0.5896  0.6929 -0.6140
  242MOL0     C31839   5.829   2.668  10.421  0.2150 -0.4688 -0.3565
  242MOL0     C31840   5.767   2.656  10.295 -0.1425  0.4873 -0.3854
  242MOL0     C31841   5.638   2.713  10.259  0.6589 -0.2401  0.2406
  242MOL0     O31842   5.582   2.800  10.347  0.5137  1.2034  0.1719
  242MOL0     C31843   5.482   2.884  10.313 -0.6637  0.1123  0.0708
  242MOL0     C31844   5.383   2.852  10.219  1.0012 -0.6080 -0.1506
  242MOL0     C31845   5.288   2.949  10.176 -0.5151 -0.2017 -0.4142
  242MOL0     C31846   5.281   3.080  10.233  0.8020  0.3246 -0.4142
  242MOL0     O31847   5.174   3.165  10.213 -0.7074  0.2284 -1.2000
  242MOL0     C31848   5.058   3.105  10.163  0.0560  0.5172 -0.1108
  242MOL0     C31849   4.960   3.221  10.115 -0.6900  0.3424 -1.1230
  242MOL0     C31850   4.842   3.151  10.049  0.3581 -0.8163  0.6562
  242MOL0     C31851   4.717   3.248  10.057 -0.3753  0.3525  0.0283
  242MOL0     C31852   4.581   3.188  10.019 -1.8258 -0.2288 -0.3244
  242MOL0     C31853   4.460   3.282  10.027  0.0898 -1.3380  0.4360
  242MOL0     C31854   4.335   3.199  10.001  0.0047 -0.2200  0.1217
  242MOL0     C31855   4.213   3.266   9.949 -0.3476  0.0943 -0.0516
  242MOL0    Cl31856   4.241   3.332   9.786  0.3216 -0.3913  0.2968
  242MOL0     C31857   5.384   3.117  10.327  0.5982  0.7597 -0.1765
  242MOL0     C31858   5.480   3.020  10.358 -0.9162 -0.1373 -1.1784
  242MOL0     O31859   5.610   2.712  10.137 -0.2172  0.5839  0.6235
  242MOL0     C31860   5.835   2.568  10.203  0.7826 -0.6461 -0.2911
  242MOL0     C31861   5.948   2.496  10.238  0.0482  0.9937  0.0703
  242MOL0     N31862   6.574   2.034  10.434 -0.5345  0.4571  0.3823
  242MOL0     N31863   6.697   2.027  10.394  0.0358  0.1866 -0.2216
  242MOL0     C31864   5.924   2.175   9.972  0.4200 -0.1378 -0.0418
  242MOL0     C31865   5.800   2.188  10.033  0.6168 -0.8977 -0.0191
  242MOL0     C31866   5.396   2.153  10.185 -0.4998  0.0717  0.1805
  242MOL0     C31867   5.365   2.020  10.227  0.4670  1.1257  0.4883
  242MOL0     C31868   5.237   1.968  10.252 -0.0574 -0.5920 -0.1653
  242MOL0     C31869   5.126   2.048  10.222 -0.5672 -0.0191 -0.4795
  242MOL0     O31870   5.006   1.985  10.236 -0.9241 -0.1581 -0.0620
  242MOL0     C31871   4.887   2.038  10.178 -0.1723 -0.2591 -1.4259
  242MOL0     C31872   4.783   1.925  10.169 -0.7994  0.9413 -0.7166
  242MOL0     C31873   4.655   1.984  10.119 -1.0220  0.6080  0.2030
  242MOL0     C31874   4.678   2.048   9.978  0.9751 -0.1892 -0.4045
  242MOL0     C31875   4.553   2.065   9.907  0.2658 -0.1002 -0.3113
  242MOL0     C31876   4.439   2.075   9.862 -0.7633  0.3246  0.2858
  242MOL0     C31877   5.149   2.183  10.190  0.5479 -0.2312  0.3768
  242MOL0     C31878   5.280   2.234  10.166 -0.3469  0.1439 -0.0777
  242MOL0     H31879   5.846   2.032  10.315 -2.5315  0.1421 -0.4404
  242MOL0     H31880   6.096   2.036  10.223  0.2581  0.9440 -1.1365
  242MOL0     H31881   6.278   2.001  10.090  0.2548  0.5456 -0.0392
  242MOL0     H31882   6.256   2.164  10.149 -1.3136 -0.9466 -0.3468
  242MOL0     H31883   6.382   2.253   9.944  1.0507 -0.1949 -0.0388
  242MOL0     H31884   6.402   2.076   9.897 -0.1334  0.1892  0.3387
  242MOL0     H31885   6.536   2.047  10.108 -0.8352  1.1251  3.7297
  242MOL0     H31886   6.514   2.207  10.155 -0.8277 -0.8289  0.7747
  242MOL0     H31887   6.677   2.114   9.908  2.6758 -1.2503  2.1905
  242MOL0     H31888   6.644   2.275   9.931  3.2375  3.3840  3.4020
  242MOL0     H31889   6.864   2.192   9.999 -1.4977 -1.8088 -3.2133
  242MOL0     H31890   6.793   2.089  10.122  1.5451  0.3186 -0.5407
  242MOL0     H31891   6.698   2.340  10.204 -1.3372  0.3345 -2.2054
  242MOL0     H31892   6.804   2.405  10.094 -3.5900  0.4018  0.1593
  242MOL0     H31893   6.999   2.299  10.218  0.5345  1.9119 -0.2895
  242MOL0     H31894   6.884   2.405  10.319  1.3880 -0.9800  2.8489
  242MOL0     H31895   6.933   2.216  10.453 -0.1134 -3.7265  1.2888
  242MOL0     H31896   6.927   2.103  10.318  0.1764 -0.9861  2.9304
  242MOL0     H31897   6.658   2.339  10.517  0.3506 -1.3768  2.7817
  242MOL0     H31898   6.429   2.269  10.634  4.1585 -1.1999  0.8429
  242MOL0     H31899   6.387   2.098  10.630  0.3825 -2.4244 -1.4729
  242MOL0     H31900   6.201   2.242  10.538 -1.0243 -0.9953 -1.6640
  242MOL0     H31901   6.247   2.118  10.445 -2.5494  2.0570  0.1033
  242MOL0     H31902   6.365   2.405  10.416 -0.4484  0.2505  0.4247
  242MOL0     H31903   6.380   2.263  10.304  3.0944  2.3599  0.4951
  242MOL0     H31904   6.120   2.280  10.311 -1.2056  1.4972 -1.2874
  242MOL0     H31905   6.217   2.414  10.234  4.1639  3.6821  2.1890
  242MOL0     H31906   5.996   2.626  10.546  0.2268 -2.6973  0.4092
  242MOL0     H31907   5.796   2.743  10.492  2.0941 -0.4750  0.5799
  242MOL0     H31908   5.375   2.752  10.177  0.4573 -0.2322 -0.9653
  242MOL0     H31909   5.224   2.924  10.092 -0.2672 -2.0863 -0.0995
  242MOL0     H31910   5.011   3.051  10.245 -0.5161  1.1750  0.0088
  242MOL0     H31911   5.075   3.036  10.080 -2.7332 -1.7428  1.0753
  242MOL0     H31912   5.025   3.287  10.055  2.7182  0.1601  2.0233
  242MOL0     H31913   4.923   3.274  10.202 -2.6901 -1.8367 -0.5488
  242MOL0     H31914   4.817   3.053  10.091 -1.2995 -0.9583 -0.5338
  242MOL0     H31915   4.864   3.136   9.943 -0.9990  2.0670 -0.1370
  242MOL0     H31916   4.695   3.290  10.156  0.0700 -0.2186  0.3841
  242MOL0     H31917   4.748   3.329   9.991  0.9058 -0.9560 -1.0555
  242MOL0     H31918   4.554   3.101  10.079 -0.8225  0.8622  1.8010
  242MOL0     H31919   4.597   3.149   9.918  3.1652 -1.5226  0.6842
  242MOL0     H31920   4.468   3.361   9.953 -0.8847 -1.0420  0.6312
  242MOL0     H31921   4.450   3.330  10.125 -1.4379 -0.5206 -0.1067
  242MOL0     H31922   4.350   3.129   9.918 -2.1092 -2.4741  1.5008
  242MOL0     H31923   4.311   3.139  10.089 -3.2646 -0.0996 -0.5672
  242MOL0     H31924   4.181   3.343  10.021 -1.3633  0.7410 -1.1689
  242MOL0     H31925   4.137   3.189   9.934  1.0893 -0.9269 -2.7454
  242MOL0     H31926   5.377   3.212  10.380 -1.4760  0.7903 -0.4135
  242MOL0     H31927   5.556   3.050  10.430 -0.6567 -0.3171 -1.3740
  242MOL0     H31928   5.794   2.575  10.103  1.0928  1.5049 -0.3301
  242MOL0     H31929   5.992   2.434  10.160  0.1504  0.0824  0.8310
  242MOL0     H31930   5.936   2.220   9.874 -0.3558 -0.2951 -0.2162
  242MOL0     H31931   5.722   2.238   9.977 -0.9705 -0.7115  2.2019
  242MOL0     H31932   5.453   1.968  10.263  2.1693  3.3618 -0.2132
  242MOL0     H31933   5.231   1.873  10.305  0.7672  0.3153  1.6443
  242MOL0     H31934   4.914   2.061  10.074  1.5183 -0.3742 -1.0393
  242MOL0     H31935   4.843   2.118  10.239 -0.3155 -0.3108 -1.4608
  242MOL0     H31936   4.829   1.848  10.107  0.9808  0.8978  0.5762
  242MOL0     H31937   4.769   1.885  10.270  1.3045 -1.4243 -1.2836
  242MOL0     H31938   4.615   2.062  10.185  0.5413  0.1175  1.7976
  242MOL0     H31939   4.586   1.899  10.121  3.8794 -3.9368 -1.7846
  242MOL0     H31940   4.715   2.149   9.998 -0.9942  0.9187 -1.8987
  242MOL0     H31941   4.742   1.991   9.910  1.9682 -0.6520  0.8892
  242MOL0     H31942   4.341   2.092   9.822  0.3138 -1.0388 -3.3110
  242MOL0     H31943   5.066   2.244  10.154  0.8076 -0.9839 -1.6384
  242MOL0     H31944   5.309   2.335  10.141 -1.5523  0.5148 -0.0278
  243MOL0     O31945   7.523   3.298   1.911 -0.0513 -0.2847 -0.3750
  243MOL0     C31946   7.590   3.378   1.851 -1.2200  0.5643  0.7607
  243MOL0     O31947   7.725   3.376   1.843 -0.6554 -0.1446 -0.6938
  243MOL0     C31948   7.784   3.272   1.907  0.1982 -0.4497  0.0556
  243MOL0     C31949   7.765   3.229   2.046  1.1153  0.2708  0.4183
  243MOL0     C31950   7.844   3.132   2.104 -0.6559  0.0487  1.1058
  243MOL0     C31951   7.925   3.053   2.022 -0.5728 -0.0868  0.9404
  243MOL0     O31952   7.976   2.933   2.054 -0.8048 -0.0304  0.6464
  243MOL0     C31953   8.047   2.927   2.182  0.6745  0.6855 -0.0004
  243MOL0     C31954   8.149   2.816   2.174 -0.1995 -0.9330 -0.2964
  243MOL0     C31955   8.102   2.679   2.128  0.0531 -0.4322 -0.2365
  243MOL0     C31956   8.009   2.604   2.227 -1.1830  0.1147  0.4604
  243MOL0     C31957   7.992   2.452   2.197  0.5399  0.8051  0.6968
  243MOL0     C31958   7.853   2.407   2.254 -1.1108 -0.3349  0.7138
  243MOL0     C31959   7.813   2.264   2.212 -0.3436 -0.1106 -0.1325
  243MOL0     C31960   7.683   2.210   2.287 -0.5999 -1.1432  0.0194
  243MOL0     N31961   7.564   2.275   2.242  0.1756 -0.0097  0.3671
  243MOL0     C31962   7.524   2.400   2.270  0.2262  0.1676  0.6550
  243MOL0     C31963   7.409   2.432   2.206  0.3168 -0.0116 -0.1400
  243MOL0     C31964   7.332   2.560   2.225  0.0136  0.2627 -0.2048
  243MOL0     C31965   7.177   2.536   2.237 -0.0896  1.1536 -0.8785
  243MOL0     C31966   7.091   2.549   2.103 -0.0375  0.1833 -0.0695
  243MOL0     C31967   7.069   2.698   2.072 -0.0122 -0.0727 -0.4643
  243MOL0     O31968   6.950   2.756   2.133 -0.4736 -0.3018 -0.4708
  243MOL0     C31969   6.823   2.709   2.115  0.0857 -0.1660  0.3457
  243MOL0     C31970   6.750   2.702   2.003  0.5013  0.4919 -0.2335
  243MOL0     C31971   6.621   2.657   2.004 -0.0173  0.2869  1.1890
  243MOL0     C31972   6.553   2.622   2.126 -1.1383 -0.2361 -0.5136
  243MOL0     C31973   6.424   2.551   2.121  1.2714 -0.3774 -0.0517
  243MOL0     O31974   6.368   2.486   2.235  0.2247 -0.6311 -0.0989
  243MOL0     C31975   6.237   2.435   2.220  0.5355  0.3235  0.8848
  243MOL0     C31976   6.218   2.309   2.174  0.0950 -0.3837 -0.0045
  243MOL0     C31977   6.092   2.257   2.161  0.1243  0.5275 -1.1911
  243MOL0     C31978   5.976   2.329   2.183  0.9670  0.0222 -0.3173
  243MOL0     O31979   5.841   2.293   2.167  0.4218  0.1099  0.5874
  243MOL0     C31980   5.836   2.197   2.065 -0.4436 -0.1759  0.4467
  243MOL0     C31981   5.694   2.147   2.062 -0.5842  0.8369 -0.0366
  243MOL0     C31982   5.590   2.251   2.031  0.4476 -0.0528 -0.1860
  243MOL0     C31983   5.445   2.195   2.029  0.7441  0.4343  0.1925
  243MOL0     C31984   5.416   2.144   1.887 -0.5077  0.3642 -0.1702
  243MOL0     C31985   5.275   2.102   1.875 -0.7331  0.1152 -0.4451
  243MOL0     C31986   5.247   2.021   1.747 -0.0735 -0.1264  1.0673
  243MOL0     C31987   5.099   1.992   1.709 -0.7137 -0.4446 -0.1578
  243MOL0    Cl31988   5.029   1.875   1.819 -0.1522 -0.4107  0.3320
  243MOL0     C31989   5.994   2.458   2.240  0.1571  0.2476 -0.6321
  243MOL0     C31990   6.125   2.510   2.257 -0.8673  0.5924 -0.9900
  243MOL0     O31991   6.355   2.568   2.019 -0.5757  0.2121  0.0788
  243MOL0     C31992   6.627   2.639   2.245 -0.2239  1.1282 -0.1778
  243MOL0     C31993   6.759   2.681   2.238  0.2025 -0.4753 -0.1140
  243MOL0     N31994   7.385   2.322   2.128  1.1102  0.2538 -0.3734
  243MOL0     N31995   7.471   2.230   2.150  0.1485  0.0188 -0.3122
  243MOL0     C31996   7.937   3.095   1.890 -0.6734 -0.0961 -0.2639
  243MOL0     C31997   7.878   3.208   1.827 -0.0196 -0.5553 -1.0988
  243MOL0     C31998   7.525   3.494   1.776 -0.8647  0.6621  0.1973
  243MOL0     C31999   7.604   3.564   1.684 -0.2735  0.2703  0.3575
  243MOL0     C32000   7.562   3.664   1.603  0.7565  0.6508  0.2778
  243MOL0     C32001   7.421   3.703   1.625 -0.3334  1.0146 -0.3431
  243MOL0     O32002   7.357   3.803   1.557  0.9634  0.7553  0.1234
  243MOL0     C32003   7.409   3.859   1.438  0.2403 -0.2124  0.1186
  243MOL0     C32004   7.397   3.777   1.307  0.1256 -0.1003  0.5675
  243MOL0     C32005   7.391   3.874   1.181  0.4489  0.5667  1.2285
  243MOL0     C32006   7.409   3.797   1.044  0.0736 -0.0861 -1.3152
  243MOL0     C32007   7.348   3.873   0.941 -0.0468 -0.5354  0.4046
  243MOL0     C32008   7.292   3.948   0.854  0.0533  0.2024 -0.9907
  243MOL0     C32009   7.344   3.640   1.735 -0.5478 -0.9930  1.0388
  243MOL0     C32010   7.393   3.526   1.796 -1.1345 -0.6299  0.3689
  243MOL0     H32011   7.693   3.264   2.119 -1.0406  0.7775 -1.8421
  243MOL0     H32012   7.816   3.103   2.204 -0.2458 -2.2180  0.5994
  243MOL0     H32013   7.982   2.908   2.268  0.7269  0.0638 -0.0975
  243MOL0     H32014   8.090   3.027   2.194 -0.5165  1.3831 -1.1657
  243MOL0     H32015   8.194   2.800   2.273 -3.1201  2.0593  1.7463
  243MOL0     H32016   8.224   2.862   2.109 -0.1674  1.2433  1.1767
  243MOL0     H32017   8.196   2.623   2.122  0.3450  0.1815 -2.4159
  243MOL0     H32018   8.057   2.692   2.029 -1.8145  1.4478  0.7778
  243MOL0     H32019   8.043   2.603   2.331  0.1819 -0.5345  0.0223
  243MOL0     H32020   7.920   2.668   2.226 -0.5677  1.0072 -1.2788
  243MOL0     H32021   8.072   2.396   2.246 -0.2276 -1.7531 -0.7777
  243MOL0     H32022   7.993   2.432   2.089  0.6396 -0.9115  0.9806
  243MOL0     H32023   7.791   2.490   2.219  3.1416  2.9073  0.0065
  243MOL0     H32024   7.870   2.408   2.362 -1.9744 -0.8911  0.8649
  243MOL0     H32025   7.782   2.265   2.107 -1.2628 -3.4011 -0.0035
  243MOL0     H32026   7.903   2.206   2.235  0.1558  1.6087  2.7068
  243MOL0     H32027   7.708   2.224   2.393  0.4437 -0.3846 -0.3022
  243MOL0     H32028   7.666   2.103   2.271  0.6155 -2.3356  4.8130
  243MOL0     H32029   7.572   2.468   2.340  0.9540  1.6960 -1.2338
  243MOL0     H32030   7.362   2.617   2.137  3.5331  0.8900  1.2486
  243MOL0     H32031   7.362   2.608   2.319 -0.9232 -0.9718  0.7767
  243MOL0     H32032   7.128   2.592   2.316 -1.3044 -0.1868 -0.6471
  243MOL0     H32033   7.165   2.432   2.269 -0.1197  0.4113 -3.1233
  243MOL0     H32034   7.139   2.498   2.019 -3.0982  0.7351 -2.3229
  243MOL0     H32035   6.989   2.511   2.103  0.0661 -0.1029 -0.2222
  243MOL0     H32036   7.063   2.706   1.963  1.8130  1.2344 -0.5133
  243MOL0     H32037   7.150   2.768   2.093  0.5215 -0.3142 -1.6377
  243MOL0     H32038   6.792   2.713   1.904  2.0621 -2.0047  0.0557
  243MOL0     H32039   6.564   2.638   1.914 -1.9963 -1.3597  2.6751
  243MOL0     H32040   6.306   2.250   2.148  1.2600  1.5772 -0.7754
  243MOL0     H32041   6.087   2.151   2.135  0.8780 -0.3147  1.6919
  243MOL0     H32042   5.885   2.102   2.089 -1.0294  0.0373  2.7124
  243MOL0     H32043   5.865   2.240   1.969 -0.1123 -0.7292  0.2893
  243MOL0     H32044   5.664   2.090   2.150 -0.6190  1.1397  0.1477
  243MOL0     H32045   5.695   2.067   1.986 -2.2334 -0.0171  0.8032
  243MOL0     H32046   5.617   2.295   1.934  0.3934 -2.4965 -1.3761
  243MOL0     H32047   5.595   2.322   2.113 -1.3234 -1.7748  1.5074
  243MOL0     H32048   5.432   2.116   2.103  1.4649  0.6057  0.5115
  243MOL0     H32049   5.380   2.282   2.041  0.6434  0.8092 -2.4140
  243MOL0     H32050   5.475   2.059   1.852 -0.1337 -0.3864  2.1194
  243MOL0     H32051   5.445   2.226   1.820 -1.3642  0.3212 -0.6054
  243MOL0     H32052   5.210   2.190   1.879 -0.2860  0.4172  0.4934
  243MOL0     H32053   5.253   2.043   1.964 -0.0052 -1.4331 -1.2412
  243MOL0     H32054   5.289   2.080   1.666 -1.6622 -0.4751 -0.0745
  243MOL0     H32055   5.291   1.921   1.754  2.0431  0.4175 -2.4273
  243MOL0     H32056   5.086   1.969   1.603 -1.7076 -0.7606  0.0179
  243MOL0     H32057   5.042   2.084   1.724  1.4184  1.0594 -0.7894
  243MOL0     H32058   5.909   2.514   2.279  2.1447  1.4999  2.2807
  243MOL0     H32059   6.147   2.601   2.312  2.5336  0.3535 -1.7361
  243MOL0     H32060   6.582   2.631   2.344 -0.0018  2.5776  0.0635
  243MOL0     H32061   6.802   2.722   2.329 -0.9692  1.3458 -0.3385
  243MOL0     H32062   7.987   3.024   1.825 -1.6810 -1.0507 -0.0108
  243MOL0     H32063   7.882   3.230   1.721 -1.0586  1.2082 -0.8257
  243MOL0     H32064   7.711   3.558   1.673 -0.2676  1.0667 -0.1563
  243MOL0     H32065   7.630   3.709   1.531  0.3450 -2.8991 -2.6324
  243MOL0     H32066   7.509   3.898   1.456 -0.5377  1.5745  0.8092
  243MOL0     H32067   7.355   3.953   1.422  1.8667  0.9258  1.1086
  243MOL0     H32068   7.479   3.706   1.292 -0.4642 -0.9529  1.2881
  243MOL0     H32069   7.310   3.712   1.315  0.1433 -0.6558 -2.5679
  243MOL0     H32070   7.477   3.941   1.193  0.4068  1.0198 -0.6404
  243MOL0     H32071   7.307   3.944   1.179 -1.4156 -1.5775 -0.6261
  243MOL0     H32072   7.517   3.789   1.030  0.6316  2.1627  0.9881
  243MOL0     H32073   7.364   3.698   1.053 -0.9835  0.4860 -0.0151
  243MOL0     H32074   7.242   4.017   0.790 -2.5781 -0.0147  0.6512
  243MOL0     H32075   7.241   3.674   1.735 -0.3156  0.0683 -2.0909
  243MOL0     H32076   7.339   3.469   1.870  0.0965 -0.8921  1.0849
  244MOL0     O32077   6.511   1.306   1.231 -0.4802 -0.5517 -0.0660
  244MOL0     C32078   6.466   1.196   1.263 -0.8664 -1.0835 -0.1463
  244MOL0     O32079   6.348   1.145   1.224  0.2795 -0.6680  0.5743
  244MOL0     C32080   6.260   1.212   1.149 -0.4408 -0.7199  0.9692
  244MOL0     C32081   6.235   1.347   1.180 -0.4532  0.4296  0.5287
  244MOL0     C32082   6.129   1.424   1.124 -0.2586  0.4587 -0.1214
  244MOL0     C32083   6.071   1.375   1.006 -0.3504 -0.5593  0.2745
  244MOL0     O32084   5.981   1.438   0.922 -0.6489  0.2435 -0.0993
  244MOL0     C32085   5.911   1.559   0.968  0.5291  0.5471 -0.2871
  244MOL0     C32086   5.784   1.581   0.891  0.5237 -0.5038 -0.2697
  244MOL0     C32087   5.703   1.687   0.962  0.0312 -0.3499  0.0095
  244MOL0     C32088   5.588   1.750   0.881 -0.1339  0.8287  0.2516
  244MOL0     C32089   5.519   1.854   0.956 -0.2881 -0.4466  0.3778
  244MOL0     C32090   5.405   1.903   0.877 -0.1030 -0.2129  0.6620
  244MOL0     C32091   5.319   2.010   0.942  0.0785  0.3972 -0.4817
  244MOL0     C32092   5.174   1.988   0.911 -0.0275 -0.1816  0.3196
  244MOL0     N32093   5.065   2.073   0.962 -0.2619 -0.4213  0.3138
  244MOL0     C32094   4.940   2.105   0.896  0.2706 -0.1312 -0.2620
  244MOL0     C32095   4.879   2.198   0.983 -0.5192 -0.0352  0.4208
  244MOL0     C32096   4.755   2.270   0.955 -0.6626 -0.2254 -0.4687
  244MOL0     C32097   4.648   2.166   0.914  0.2859  0.3273 -0.2137
  244MOL0     C32098   4.505   2.217   0.906 -0.7008 -0.9652 -0.2864
  244MOL0     C32099   4.395   2.123   0.866  1.4240  0.0886 -1.0425
  244MOL0     O32100   4.325   2.084   0.982  0.3799 -0.5565  0.5430
  244MOL0     C32101   4.196   2.043   0.956 -0.0162  0.3356  0.0900
  244MOL0     C32102   4.152   2.006   0.824 -0.8201 -0.6157  0.3981
  244MOL0     C32103   4.021   1.979   0.797  0.4292  0.0301 -0.2445
  244MOL0     C32104   3.921   1.975   0.897  0.2775  0.5617  0.5917
  244MOL0     C32105   3.781   1.936   0.869 -0.1764 -0.2643 -0.7897
  244MOL0     O32106   3.691   1.939   0.973 -0.8786 -1.0075 -0.2786
  244MOL0     C32107   3.560   1.937   0.946 -0.2179  0.4138  1.7139
  244MOL0     C32108   3.501   1.989   0.826  0.3066 -0.3133  0.1452
  244MOL0     C32109   3.364   1.979   0.808 -0.8554 -0.6704  0.8382
  244MOL0     C32110   3.275   1.920   0.901  0.0380  0.3311  0.0688
  244MOL0     O32111   3.138   1.929   0.875  0.0742  0.3756 -0.5982
  244MOL0     C32112   3.068   1.813   0.903 -0.3187 -0.4527 -0.3125
  244MOL0     C32113   2.925   1.835   0.862  0.6944 -0.2443  0.2480
  244MOL0     C32114   2.899   1.881   0.714  1.0037 -0.2358 -0.2931
  244MOL0     C32115   2.743   1.869   0.697  0.1264 -0.5685 -0.0116
  244MOL0     C32116   2.694   1.926   0.565 -1.2195 -0.0128 -0.6853
  244MOL0     C32117   2.552   1.875   0.532 -0.4121 -0.5955 -0.6841
  244MOL0     C32118   2.498   1.943   0.409 -1.0548 -0.2232  0.4961
  244MOL0     C32119   2.350   1.907   0.397  0.0561 -1.9774 -0.6526
  244MOL0    Cl32120   2.341   1.728   0.360  0.3138 -0.0391 -0.5334
  244MOL0     C32121   3.338   1.881   1.025  0.0687  1.0530  0.7013
  244MOL0     C32122   3.473   1.882   1.040 -0.6694  0.3948  0.2456
  244MOL0     O32123   3.759   1.898   0.752  0.5995 -0.3080  0.4022
  244MOL0     C32124   3.965   2.012   1.026  0.1425 -0.9784 -0.2104
  244MOL0     C32125   4.096   2.053   1.051 -0.0509 -1.3930 -0.2734
  244MOL0     N32126   4.966   2.227   1.086  0.5463 -0.7619  1.2033
  244MOL0     N32127   5.067   2.148   1.080  0.1818  0.1314  0.1012
  244MOL0     C32128   6.102   1.241   0.967  0.3473 -0.7145 -0.5777
  244MOL0     C32129   6.189   1.156   1.038 -0.4592 -0.3441 -0.1004
  244MOL0     C32130   6.552   1.118   1.364  0.0743  0.6622  0.5606
  244MOL0     C32131   6.501   0.998   1.417  0.1153 -0.3433  1.0559
  244MOL0     C32132   6.570   0.909   1.491  0.1335  0.1025  0.8469
  244MOL0     C32133   6.702   0.947   1.524 -0.7103  0.6982 -0.4032
  244MOL0     O32134   6.789   0.875   1.596 -0.3753  0.1890 -0.3403
  244MOL0     C32135   6.781   0.736   1.586  0.2989  0.4461 -0.2390
  244MOL0     C32136   6.871   0.693   1.697  0.4560 -0.4762 -0.1863
  244MOL0     C32137   6.866   0.551   1.735 -0.0311  0.4324 -0.0751
  244MOL0     C32138   6.973   0.508   1.839 -0.5578  0.3281 -0.9695
  244MOL0     C32139   7.102   0.494   1.772  0.3615  0.0773 -0.5821
  244MOL0     C32140   7.194   0.482   1.698  0.3739 -0.5542  0.0031
  244MOL0     C32141   6.751   1.067   1.489  0.8675  0.3012 -0.3103
  244MOL0     C32142   6.685   1.152   1.405  0.2195 -0.9587 -0.2602
  244MOL0     H32143   6.283   1.400   1.262  0.2773 -1.4859  1.4025
  244MOL0     H32144   6.090   1.522   1.148 -4.4307 -0.6436 -1.5237
  244MOL0     H32145   5.975   1.647   0.960  0.3676  0.8673  1.5571
  244MOL0     H32146   5.877   1.546   1.071 -0.4200  1.7965 -0.4082
  244MOL0     H32147   5.730   1.486   0.892  0.0815 -0.2704 -0.9092
  244MOL0     H32148   5.799   1.609   0.786 -1.4245 -0.3810 -0.5507
  244MOL0     H32149   5.763   1.776   0.984  0.3013 -0.4689 -0.2527
  244MOL0     H32150   5.674   1.652   1.062 -2.8741  3.5677  0.8051
  244MOL0     H32151   5.619   1.784   0.782 -0.5715 -1.3655 -0.6941
  244MOL0     H32152   5.512   1.672   0.867  1.8142 -0.9238 -1.2671
  244MOL0     H32153   5.596   1.927   0.981  0.8869 -1.4793 -0.0874
  244MOL0     H32154   5.477   1.807   1.046 -1.9827 -0.1243 -0.2024
  244MOL0     H32155   5.346   1.819   0.838  1.4955 -0.5843 -1.0902
  244MOL0     H32156   5.445   1.947   0.785  2.8554  0.3932  2.1182
  244MOL0     H32157   5.321   2.015   1.052 -5.3457  0.8160 -0.1206
  244MOL0     H32158   5.354   2.102   0.894 -1.0068  0.4768 -1.1509
  244MOL0     H32159   5.150   1.883   0.930  0.4305 -0.7309 -1.9091
  244MOL0     H32160   5.171   1.998   0.802 -0.0338  1.1315  0.4222
  244MOL0     H32161   4.899   2.078   0.800 -2.6040  1.1863  0.4846
  244MOL0     H32162   4.761   2.339   0.870 -0.8873 -0.4848 -0.6939
  244MOL0     H32163   4.721   2.329   1.041 -0.7120  2.9687 -2.4903
  244MOL0     H32164   4.646   2.074   0.974 -0.4175  1.2881  1.3012
  244MOL0     H32165   4.676   2.137   0.812  0.3984  0.0982 -0.1177
  244MOL0     H32166   4.486   2.255   1.007 -0.3573  1.7896 -1.1672
  244MOL0     H32167   4.506   2.303   0.839  3.5502  2.3434  3.3572
  244MOL0     H32168   4.434   2.038   0.810  1.4568 -0.2138 -0.5700
  244MOL0     H32169   4.333   2.185   0.801  1.1642 -0.9245 -1.7781
  244MOL0     H32170   4.218   1.999   0.739 -0.9899  1.8176 -0.0005
  244MOL0     H32171   3.992   1.951   0.696 -0.2075 -2.8838  0.6600
  244MOL0     H32172   3.563   2.035   0.749  1.2835 -1.4038  0.2540
  244MOL0     H32173   3.316   2.037   0.731  1.2559  0.1522  0.0613
  244MOL0     H32174   3.069   1.801   1.012 -1.3710 -0.7993 -0.3349
  244MOL0     H32175   3.115   1.723   0.862  2.0291  1.2255 -1.5442
  244MOL0     H32176   2.878   1.915   0.921  0.2311  0.5424 -1.1280
  244MOL0     H32177   2.869   1.742   0.876 -1.3906  0.8362 -0.3075
  244MOL0     H32178   2.945   1.815   0.641  1.4594 -1.2008  0.8277
  244MOL0     H32179   2.929   1.986   0.705 -3.4559  1.1770 -1.0455
  244MOL0     H32180   2.732   1.761   0.682 -0.9740 -1.0753  3.5269
  244MOL0     H32181   2.696   1.910   0.787  3.1540 -0.0573  1.4513
  244MOL0     H32182   2.772   1.902   0.492  0.4935 -2.1359  1.6036
  244MOL0     H32183   2.705   2.034   0.577  1.0958 -0.2726  0.3280
  244MOL0     H32184   2.492   1.905   0.618 -1.1681  1.4843 -1.8503
  244MOL0     H32185   2.537   1.769   0.512  5.3847 -2.3309  1.9937
  244MOL0     H32186   2.507   2.052   0.414  2.6344 -0.3400 -0.6409
  244MOL0     H32187   2.559   1.928   0.320 -0.7551 -0.5380  0.7530
  244MOL0     H32188   2.302   1.958   0.313 -3.4905  1.9567  3.2343
  244MOL0     H32189   2.293   1.937   0.485  1.8053  0.5033 -0.2819
  244MOL0     H32190   3.278   1.848   1.110 -0.2212 -1.4548 -0.3936
  244MOL0     H32191   3.516   1.849   1.134  0.8809 -4.1327 -1.7926
  244MOL0     H32192   3.898   2.017   1.111 -0.4911  1.8654 -0.7750
  244MOL0     H32193   4.114   2.090   1.151 -3.6861 -1.6882  0.6019
  244MOL0     H32194   6.052   1.193   0.884 -0.3338  0.2179 -0.7262
  244MOL0     H32195   6.180   1.051   1.012 -0.1747 -0.1259 -1.1106
  244MOL0     H32196   6.399   0.978   1.388  0.2757  3.4358 -3.0710
  244MOL0     H32197   6.522   0.812   1.508 -1.5717  0.4071 -1.6126
  244MOL0     H32198   6.821   0.707   1.488  0.9697  0.1708  0.1078
  244MOL0     H32199   6.680   0.696   1.596 -0.5728  1.1325 -4.4145
  244MOL0     H32200   6.975   0.720   1.675  0.3972  0.1510  0.2899
  244MOL0     H32201   6.852   0.757   1.783  0.6150  2.7728 -2.3572
  244MOL0     H32202   6.876   0.480   1.652  5.9234 -0.2346  0.7699
  244MOL0     H32203   6.768   0.534   1.780 -0.0118 -0.4020 -0.3182
  244MOL0     H32204   6.968   0.580   1.921  0.3747 -1.7662  1.0428
  244MOL0     H32205   6.953   0.416   1.895 -3.2573  0.3153 -1.8380
  244MOL0     H32206   7.276   0.478   1.629 -0.4088  1.8617 -1.1814
  244MOL0     H32207   6.843   1.095   1.539 -0.8580  2.9248  1.6792
  244MOL0     H32208   6.728   1.247   1.374 -0.6880 -0.5765 -0.3739
  245MOL0     O32209   6.251   1.139   4.515 -0.0892  0.0284 -0.5054
  245MOL0     C32210   6.188   1.231   4.574  0.0551 -0.5247  0.5752
  245MOL0     O32211   6.093   1.219   4.682 -0.9563 -0.2892 -0.0398
  245MOL0     C32212   6.084   1.087   4.727 -0.4011  0.2497  0.0247
  245MOL0     C32213   6.104   1.062   4.863 -0.1794 -0.3291 -0.3590
  245MOL0     C32214   6.085   0.933   4.913 -0.2419 -0.4025  0.9812
  245MOL0     C32215   6.052   0.830   4.822 -0.2237  0.2846  0.4612
  245MOL0     O32216   6.022   0.710   4.882  0.9982 -0.3639  0.2918
  245MOL0     C32217   5.988   0.598   4.798 -0.0000 -0.6888  0.0560
  245MOL0     C32218   5.968   0.483   4.886  0.5392  0.1287 -0.2552
  245MOL0     C32219   5.824   0.479   4.934  0.7831 -0.2996  0.2223
  245MOL0     C32220   5.790   0.352   5.014  0.1552 -0.0480 -0.4864
  245MOL0     C32221   5.649   0.352   5.081  0.8755  0.2717 -0.3505
  245MOL0     C32222   5.600   0.216   5.140  0.0160  0.4582  0.2872
  245MOL0     C32223   5.477   0.249   5.220 -0.1303  0.6912 -0.4238
  245MOL0     C32224   5.426   0.117   5.285 -0.5324 -0.0965  0.2774
  245MOL0     N32225   5.320   0.140   5.384  0.0290 -0.3418 -0.6908
  245MOL0     C32226   5.196   0.186   5.347 -0.5571  0.3875  0.1713
  245MOL0     C32227   5.119   0.181   5.458 -0.3894 -0.1490  0.0430
  245MOL0     C32228   4.979   0.223   5.476  0.6545 -0.1139 -0.1984
  245MOL0     C32229   4.879   0.112   5.495 -0.1085 -0.3634  0.1784
  245MOL0     C32230   4.900   0.057   5.642  0.9824  0.1839  0.0669
  245MOL0     C32231   4.967  -0.076   5.638 -0.0023  0.7944  0.7346
  245MOL0     O32232   4.874  -0.167   5.584  0.4738  0.2516 -0.8371
  245MOL0     C32233   4.805  -0.254   5.670  1.2747 -0.2158  0.8511
  245MOL0     C32234   4.697  -0.318   5.605 -0.8805  0.0596  0.7042
  245MOL0     C32235   4.608  -0.398   5.677  0.2964  0.0968 -0.5616
  245MOL0     C32236   4.630  -0.411   5.811  0.5612 -0.1957 -0.6631
  245MOL0     C32237   4.528  -0.479   5.898  0.7688  0.7111 -0.0875
  245MOL0     O32238   4.430  -0.563   5.841 -1.4044 -0.2409 -0.6697
  245MOL0     C32239   4.349  -0.640   5.928  1.1375  0.3311 -0.7570
  245MOL0     C32240   4.207  -0.653   5.878 -0.1290  0.2225 -0.9253
  245MOL0     C32241   4.116  -0.723   5.937  0.0084  0.6419 -0.3114
  245MOL0     C32242   4.151  -0.782   6.064  0.6976  0.5067 -0.4395
  245MOL0     O32243   4.061  -0.869   6.131 -0.0956  0.6419 -0.3874
  245MOL0     C32244   3.928  -0.816   6.155  0.7980 -0.2943  0.7773
  245MOL0     C32245   3.868  -0.892   6.281  0.6065  0.1318  0.5629
  245MOL0     C32246   3.726  -0.854   6.321 -0.7668 -0.2740 -0.7785
  245MOL0     C32247   3.687  -0.914   6.452  0.7306  0.0358 -0.0803
  245MOL0     C32248   3.544  -0.876   6.499 -0.1696 -0.4738 -0.3732
  245MOL0     C32249   3.447  -0.955   6.408  0.9620  0.2036 -0.0783
  245MOL0     C32250   3.310  -0.958   6.464 -0.6044  0.5670 -0.4691
  245MOL0     C32251   3.241  -0.828   6.464  0.0174 -0.5517  0.8182
  245MOL0    Cl32252   3.070  -0.835   6.501  1.1469 -0.2823 -0.1111
  245MOL0     C32253   4.273  -0.773   6.123  0.8317 -0.5628 -0.0558
  245MOL0     C32254   4.383  -0.702   6.057 -0.2237 -0.8027  0.0849
  245MOL0     O32255   4.535  -0.445   6.017  1.0634  0.4666  0.3123
  245MOL0     C32256   4.741  -0.353   5.875  0.1502 -0.9119 -0.9364
  245MOL0     C32257   4.832  -0.279   5.801  0.9033 -0.2227 -1.4714
  245MOL0     N32258   5.202   0.129   5.557 -0.3396 -0.8032  0.1353
  245MOL0     N32259   5.319   0.106   5.520  0.5168 -0.3746  0.9664
  245MOL0     C32260   6.045   0.849   4.684 -0.1000 -1.0264  0.3945
  245MOL0     C32261   6.048   0.981   4.642  0.9326  0.4320  0.2479
  245MOL0     C32262   6.238   1.372   4.541  0.5638  0.4810 -0.2352
  245MOL0     C32263   6.172   1.483   4.591  0.6397  0.4662 -0.6995
  245MOL0     C32264   6.221   1.607   4.575  0.7093  0.4293 -0.2426
  245MOL0     C32265   6.328   1.630   4.496 -0.0940  0.2708  0.1085
  245MOL0     O32266   6.366   1.754   4.464 -0.2827 -0.3985  0.3661
  245MOL0     C32267   6.489   1.798   4.527 -1.1479 -0.5433 -0.1948
  245MOL0     C32268   6.599   1.804   4.426  0.8311 -0.7833  0.1919
  245MOL0     C32269   6.718   1.709   4.452 -0.0502  0.1336 -0.3327
  245MOL0     C32270   6.851   1.782   4.453  0.2787 -0.8623 -0.1856
  245MOL0     C32271   6.957   1.689   4.422  0.7890  0.4449 -0.3265
  245MOL0     C32272   7.055   1.623   4.396  0.4742  0.0378 -0.8988
  245MOL0     C32273   6.402   1.521   4.437 -0.2673  0.0626  0.3991
  245MOL0     C32274   6.353   1.391   4.461  0.7787 -0.0585  0.3996
  245MOL0     H32275   6.135   1.140   4.932  3.6754 -1.1219 -0.9702
  245MOL0     H32276   6.102   0.928   5.020  0.1663  2.4233  1.1291
  245MOL0     H32277   6.068   0.576   4.727  0.0169  2.0972 -0.8989
  245MOL0     H32278   5.892   0.622   4.751 -0.7003  0.4594  1.9577
  245MOL0     H32279   6.041   0.483   4.967  0.6794 -0.4898 -0.3703
  245MOL0     H32280   5.984   0.392   4.826 -2.4501  0.1814 -1.2876
  245MOL0     H32281   5.759   0.489   4.847  0.9717 -2.2666 -0.1844
  245MOL0     H32282   5.795   0.553   5.010 -1.6295 -0.4648 -0.4547
  245MOL0     H32283   5.814   0.259   4.962 -1.9978 -0.9517  0.0185
  245MOL0     H32284   5.864   0.349   5.094  1.2447 -1.2016 -1.4914
  245MOL0     H32285   5.586   0.398   5.005  0.4904 -2.1453 -1.5941
  245MOL0     H32286   5.645   0.432   5.155  0.4406  0.0112 -0.0860
  245MOL0     H32287   5.669   0.158   5.203  0.4177 -0.9383 -1.3471
  245MOL0     H32288   5.573   0.149   5.058  0.1440 -0.3015  0.8526
  245MOL0     H32289   5.486   0.322   5.301  1.7310 -0.5745  0.5892
  245MOL0     H32290   5.404   0.278   5.144 -1.6737 -2.6007 -0.3966
  245MOL0     H32291   5.502   0.058   5.337  0.1579  1.4007  0.9943
  245MOL0     H32292   5.397   0.041   5.211 -2.1072 -2.1506  2.8296
  245MOL0     H32293   5.164   0.220   5.249 -3.3283 -4.8453 -1.0850
  245MOL0     H32294   4.956   0.286   5.389  2.3034  0.6778 -0.0897
  245MOL0     H32295   4.986   0.296   5.557 -0.3788 -2.1317  1.8035
  245MOL0     H32296   4.890   0.039   5.414 -2.4764  0.0236 -0.5661
  245MOL0     H32297   4.778   0.153   5.487  1.8561  4.8352 -2.9318
  245MOL0     H32298   4.974   0.116   5.697  2.6140 -1.0517 -0.7269
  245MOL0     H32299   4.807   0.065   5.699 -0.7028  1.1065 -2.6149
  245MOL0     H32300   4.999  -0.095   5.741  1.9120 -0.6524 -0.0618
  245MOL0     H32301   5.056  -0.070   5.575  0.4771 -2.2086  1.0004
  245MOL0     H32302   4.678  -0.314   5.499 -0.7774 -1.3386  0.6089
  245MOL0     H32303   4.518  -0.435   5.629  0.6920 -1.5802 -0.0859
  245MOL0     H32304   4.187  -0.616   5.778  0.0271  0.9450 -0.6964
  245MOL0     H32305   4.017  -0.725   5.893 -0.3855  0.4516  0.5474
  245MOL0     H32306   3.856  -0.817   6.073 -1.5963 -1.2112  2.7440
  245MOL0     H32307   3.932  -0.711   6.186 -1.6951  1.1271 -2.9843
  245MOL0     H32308   3.944  -0.879   6.358  1.5297 -2.7618  0.2786
  245MOL0     H32309   3.887  -0.999   6.263 -1.7763 -0.0454 -1.3929
  245MOL0     H32310   3.670  -0.888   6.234  1.0304 -0.0575 -2.0809
  245MOL0     H32311   3.710  -0.747   6.338 -0.2273 -0.1719 -0.8974
  245MOL0     H32312   3.701  -1.022   6.446  0.1899 -0.0462  0.0180
  245MOL0     H32313   3.743  -0.885   6.541 -0.5116 -2.2033  1.5435
  245MOL0     H32314   3.528  -0.768   6.491 -1.6968 -0.5915  0.7511
  245MOL0     H32315   3.531  -0.895   6.606  0.4181  2.6088  0.3324
  245MOL0     H32316   3.489  -1.055   6.397  0.0848 -0.4262  1.7960
  245MOL0     H32317   3.462  -0.917   6.307  1.2842  3.1023  0.9706
  245MOL0     H32318   3.251  -1.032   6.410  0.5140  0.1155 -1.0958
  245MOL0     H32319   3.309  -1.007   6.562 -2.4405 -3.7619 -2.4040
  245MOL0     H32320   3.247  -0.780   6.366 -1.6904  0.6125  1.2567
  245MOL0     H32321   3.287  -0.763   6.539 -1.7691 -0.5157  1.9367
  245MOL0     H32322   4.290  -0.829   6.214 -2.7735 -1.6645  0.0827
  245MOL0     H32323   4.485  -0.704   6.095  0.6711 -1.2983 -2.1578
  245MOL0     H32324   4.758  -0.364   5.981  0.6683 -0.5972 -0.9861
  245MOL0     H32325   4.900  -0.218   5.861 -1.7682 -1.7063  3.7399
  245MOL0     H32326   6.014   0.778   4.608  0.4638 -1.1820  0.3029
  245MOL0     H32327   6.027   1.005   4.538  0.8354 -1.5526 -0.2345
  245MOL0     H32328   6.079   1.478   4.647  1.4897  3.3207  1.2169
  245MOL0     H32329   6.177   1.696   4.619  0.9385 -0.7123  2.4605
  245MOL0     H32330   6.506   1.735   4.615  0.3954 -3.7103 -2.5524
  245MOL0     H32331   6.469   1.900   4.561  0.8493  0.6540 -2.2948
  245MOL0     H32332   6.560   1.794   4.324  1.1608 -0.3273  0.0170
  245MOL0     H32333   6.639   1.906   4.424  3.4292 -1.7464 -0.1827
  245MOL0     H32334   6.719   1.636   4.371 -0.3935 -2.3630  1.7623
  245MOL0     H32335   6.708   1.660   4.550 -0.2897  0.7197 -0.0629
  245MOL0     H32336   6.861   1.865   4.382  0.0745 -0.3006  0.4319
  245MOL0     H32337   6.871   1.816   4.555 -1.9437 -2.4178  0.8622
  245MOL0     H32338   7.138   1.566   4.361  0.9272  0.7738 -1.0538
  245MOL0     H32339   6.481   1.544   4.366 -1.3633  4.6185  0.3004
  245MOL0     H32340   6.405   1.305   4.419 -2.3590 -0.6285 -2.6971
  246MOL0     O32341   1.620   7.137   1.349 -0.0743 -0.7984  0.2368
  246MOL0     C32342   1.647   7.060   1.437 -0.1556  0.9430 -0.9668
  246MOL0     O32343   1.556   6.973   1.495 -0.2999  0.0380 -0.6937
  246MOL0     C32344   1.426   6.981   1.462 -0.2585 -0.5139  0.3151
  246MOL0     C32345   1.334   7.015   1.550 -0.1430  0.3759  0.0175
  246MOL0     C32346   1.191   7.048   1.515 -0.0324 -0.2732  0.6013
  246MOL0     C32347   1.152   7.029   1.382 -0.8052 -0.7326  0.0317
  246MOL0     O32348   1.017   7.059   1.348 -0.3005  0.3013 -0.0404
  246MOL0     C32349   0.979   7.073   1.211  0.0716 -0.3088  0.1760
  246MOL0     C32350   0.844   7.139   1.221 -0.0082  0.0373 -0.2386
  246MOL0     C32351   0.785   7.154   1.086 -1.0526  0.7276  0.1057
  246MOL0     C32352   0.631   7.177   1.086 -0.5329  0.6754 -0.9136
  246MOL0     C32353   0.564   7.200   0.939 -0.5566  0.2122  0.0222
  246MOL0     C32354   0.586   7.078   0.842  0.4109 -0.7621  0.5079
  246MOL0     C32355   0.485   7.088   0.730  0.4968  0.3168  0.1036
  246MOL0     C32356   0.506   7.213   0.631  1.1100 -0.1806  0.9288
  246MOL0     N32357   0.648   7.251   0.593  0.2102 -0.0590 -0.6621
  246MOL0     C32358   0.749   7.170   0.561  0.4064  0.2450  0.0714
  246MOL0     C32359   0.848   7.255   0.525 -0.1090  0.9035  0.0541
  246MOL0     C32360   0.982   7.196   0.489 -0.3979 -0.4074 -0.8868
  246MOL0     C32361   1.104   7.222   0.591 -0.0635 -0.9736  0.6663
  246MOL0     C32362   1.074   7.192   0.737  0.9362 -1.1690 -0.1457
  246MOL0     C32363   1.217   7.173   0.812  0.4575  0.4774  0.2304
  246MOL0     O32364   1.287   7.066   0.748 -0.2486 -0.3722 -0.9055
  246MOL0     C32365   1.419   7.061   0.771  0.2716  0.2519  0.2527
  246MOL0     C32366   1.494   6.969   0.697  1.0494  0.8047  0.3241
  246MOL0     C32367   1.628   6.961   0.709 -0.2166 -0.0741 -0.4603
  246MOL0     C32368   1.704   7.042   0.796 -0.4123 -0.6385 -1.1708
  246MOL0     C32369   1.841   7.003   0.827  0.4590  0.7102  0.2005
  246MOL0     O32370   1.880   7.019   0.958 -0.9036 -0.5164 -0.0426
  246MOL0     C32371   2.014   7.003   0.997  0.4316  0.0211  0.2806
  246MOL0     C32372   2.124   7.052   0.922  0.3769  0.2067  0.8102
  246MOL0     C32373   2.255   7.046   0.978  1.0534 -0.2189 -0.3838
  246MOL0     C32374   2.263   6.988   1.111 -0.3888 -0.6148 -0.0347
  246MOL0     O32375   2.380   6.980   1.186  0.6613 -0.2256  0.2931
  246MOL0     C32376   2.513   6.977   1.128  0.3932  0.1397  0.6472
  246MOL0     C32377   2.630   6.989   1.235  0.1185  0.4198  0.2120
  246MOL0     C32378   2.644   6.856   1.314 -0.3898 -1.0064 -0.0545
  246MOL0     C32379   2.694   6.742   1.233 -0.6934  0.8082  0.4365
  246MOL0     C32380   2.702   6.608   1.317  0.0699 -0.2038  0.3430
  246MOL0     C32381   2.821   6.599   1.407 -1.2477  0.1120  1.0659
  246MOL0     C32382   2.802   6.455   1.485 -0.2662 -0.1863 -0.5698
  246MOL0     C32383   2.888   6.445   1.604  0.4816 -0.1036 -0.0629
  246MOL0    Cl32384   3.065   6.484   1.577 -0.1181  0.0179  0.1722
  246MOL0     C32385   2.153   6.935   1.181 -0.4246 -0.1147 -0.0701
  246MOL0     C32386   2.024   6.945   1.120  0.2216 -0.1619 -1.7983
  246MOL0     O32387   1.911   6.959   0.735 -0.3940  0.2455  0.6171
  246MOL0     C32388   1.627   7.132   0.884  0.0986  0.3974 -0.1227
  246MOL0     C32389   1.490   7.133   0.878  0.0105  0.4339  0.3624
  246MOL0     N32390   0.804   7.379   0.526 -0.8441 -0.9523  0.2667
  246MOL0     N32391   0.680   7.377   0.567 -0.1941 -0.2223 -0.1083
  246MOL0     C32392   1.253   6.986   1.291  0.6443 -0.4617  0.7227
  246MOL0     C32393   1.393   6.963   1.325 -0.1088  0.5801 -0.6501
  246MOL0     C32394   1.795   7.054   1.481  1.4568  0.2738  0.3435
  246MOL0     C32395   1.888   7.117   1.403 -1.0120 -0.4341 -0.8417
  246MOL0     C32396   2.028   7.104   1.437  0.0154  0.1830  0.5090
  246MOL0     C32397   2.078   7.042   1.550  0.2856 -0.0033 -0.5731
  246MOL0     O32398   2.219   7.037   1.570  0.4066 -0.1983  0.7966
  246MOL0     C32399   2.288   6.933   1.641 -0.0435  0.3281 -0.4278
  246MOL0     C32400   2.311   6.816   1.542 -0.9151 -0.9089 -0.2546
  246MOL0     C32401   2.213   6.707   1.560 -0.0814  0.7620  0.3454
  246MOL0     C32402   2.226   6.581   1.472  0.5149  0.5792 -0.2567
  246MOL0     C32403   2.341   6.485   1.495 -0.9211 -0.1673 -0.1036
  246MOL0     C32404   2.428   6.403   1.505  0.0895 -0.2136  0.4591
  246MOL0     C32405   1.976   6.970   1.626 -0.5117 -0.3327 -0.3762
  246MOL0     C32406   1.839   6.976   1.592 -0.2291 -0.0018 -0.0805
  246MOL0     H32407   1.370   7.028   1.652  2.0584  1.2803 -0.8232
  246MOL0     H32408   1.120   7.085   1.589  0.2636  2.3983 -0.3443
  246MOL0     H32409   0.973   6.973   1.165 -0.6041 -0.3276  0.2889
  246MOL0     H32410   1.052   7.134   1.157  1.8381 -2.6735 -0.3039
  246MOL0     H32411   0.848   7.238   1.270  1.2735  1.0446 -2.2601
  246MOL0     H32412   0.775   7.073   1.275  1.9173 -1.1252  0.9040
  246MOL0     H32413   0.810   7.074   1.015 -0.2629  1.3744 -0.3726
  246MOL0     H32414   0.833   7.242   1.044 -2.5754  0.9776 -1.1985
  246MOL0     H32415   0.587   7.084   1.124 -1.9340  1.4599 -0.5487
  246MOL0     H32416   0.603   7.253   1.159 -0.7899  0.7681 -1.1090
  246MOL0     H32417   0.611   7.288   0.894 -0.2122 -1.4727 -3.1181
  246MOL0     H32418   0.458   7.226   0.947 -0.3483  1.2689 -0.3879
  246MOL0     H32419   0.574   6.989   0.906  0.5303 -1.1520 -0.0103
  246MOL0     H32420   0.689   7.081   0.807 -0.1351  2.5618 -1.0940
  246MOL0     H32421   0.483   6.993   0.675  1.5847 -1.0283  2.2741
  246MOL0     H32422   0.383   7.091   0.768 -0.3041  0.2209 -1.9152
  246MOL0     H32423   0.444   7.292   0.675 -0.9669 -0.1485 -1.7696
  246MOL0     H32424   0.455   7.201   0.535  0.3055 -0.0632  1.3290
  246MOL0     H32425   0.756   7.063   0.576 -1.5618 -0.1443 -1.2773
  246MOL0     H32426   1.009   7.240   0.392  0.0466  1.2677 -0.0568
  246MOL0     H32427   0.979   7.087   0.484  1.7479 -0.5885  0.2308
  246MOL0     H32428   1.134   7.326   0.578  0.8807 -1.3057  0.0670
  246MOL0     H32429   1.183   7.162   0.546 -0.0447  0.9923 -2.1419
  246MOL0     H32430   1.021   7.285   0.760  1.7221 -1.0848  1.5053
  246MOL0     H32431   1.004   7.109   0.750 -0.6365  0.1290 -0.0684
  246MOL0     H32432   1.203   7.158   0.919 -3.3234  1.1227 -0.0478
  246MOL0     H32433   1.273   7.267   0.799 -1.1895  1.4026 -0.6176
  246MOL0     H32434   1.443   6.903   0.628  3.8569 -2.1602  0.8377
  246MOL0     H32435   1.683   6.882   0.659  1.0288 -0.0610  0.8233
  246MOL0     H32436   2.106   7.097   0.825 -2.2995 -2.2499  0.0124
  246MOL0     H32437   2.349   7.088   0.942  0.9242 -1.8370 -2.8806
  246MOL0     H32438   2.537   7.061   1.062 -0.7752 -0.7201 -0.9363
  246MOL0     H32439   2.522   6.885   1.069 -0.4051  0.4470  0.0269
  246MOL0     H32440   2.603   7.069   1.305 -1.3288 -0.5282  0.7927
  246MOL0     H32441   2.725   7.019   1.190  2.1408  1.0206  4.3933
  246MOL0     H32442   2.547   6.837   1.361 -1.5887 -0.0783 -2.0020
  246MOL0     H32443   2.720   6.888   1.386 -0.0546  1.6010 -1.4398
  246MOL0     H32444   2.633   6.725   1.143  0.3092  0.1790 -0.1438
  246MOL0     H32445   2.794   6.771   1.198 -0.5905 -1.6643 -1.6263
  246MOL0     H32446   2.701   6.523   1.247  0.2699  0.3455 -0.3435
  246MOL0     H32447   2.610   6.603   1.376 -0.8465  2.5617 -0.6807
  246MOL0     H32448   2.827   6.682   1.478 -3.2173  1.9272 -0.7507
  246MOL0     H32449   2.910   6.601   1.342 -2.6438 -1.3230 -1.0362
  246MOL0     H32450   2.697   6.444   1.513 -0.3487  1.4219 -0.1735
  246MOL0     H32451   2.822   6.374   1.413 -1.8280  0.5766 -1.9280
  246MOL0     H32452   2.880   6.348   1.653  3.0511  0.6141  2.0577
  246MOL0     H32453   2.848   6.517   1.676 -0.3214  1.6443 -2.1358
  246MOL0     H32454   2.163   6.901   1.284  3.0989  3.5213  1.0549
  246MOL0     H32455   1.939   6.898   1.170  0.6036  0.5050 -0.4757
  246MOL0     H32456   1.684   7.194   0.952 -1.8783  1.4354  0.6250
  246MOL0     H32457   1.454   7.200   0.955  0.8542  4.3967 -2.4056
  246MOL0     H32458   1.224   6.974   1.187 -0.3392 -1.9559  1.1349
  246MOL0     H32459   1.460   6.931   1.246 -0.8722  0.1918 -1.1438
  246MOL0     H32460   1.860   7.190   1.327 -0.9155 -3.5026 -4.0698
  246MOL0     H32461   2.099   7.156   1.374 -0.4406  0.1669 -0.0240
  246MOL0     H32462   2.237   6.901   1.732  1.4683  1.7122  0.9881
  246MOL0     H32463   2.381   6.968   1.687 -0.7242  0.5358  0.8430
  246MOL0     H32464   2.304   6.864   1.444 -0.7191  0.4780  0.3836
  246MOL0     H32465   2.408   6.772   1.569 -0.8238  0.9127  2.8823
  246MOL0     H32466   2.113   6.744   1.535 -1.3766 -2.4765  0.2776
  246MOL0     H32467   2.209   6.670   1.663 -2.4906 -0.1433 -0.0140
  246MOL0     H32468   2.138   6.520   1.495  0.6364  1.0779  1.7541
  246MOL0     H32469   2.206   6.609   1.368 -2.8388 -0.6318 -0.0618
  246MOL0     H32470   2.492   6.323   1.535  2.2157 -0.1078 -3.1915
  246MOL0     H32471   2.011   6.921   1.717  1.1628  1.1578 -0.1652
  246MOL0     H32472   1.757   6.928   1.645 -0.6704  0.3287 -0.4492
  247MOL0     O32473   3.053   2.903   2.703 -0.0284  0.3846  0.2632
  247MOL0     C32474   3.066   2.846   2.597  0.4847  0.6253  0.0671
  247MOL0     O32475   2.968   2.787   2.531  0.8158 -0.1284 -0.5538
  247MOL0     C32476   2.844   2.770   2.592 -0.5686 -0.3635 -0.0064
  247MOL0     C32477   2.776   2.886   2.626  0.5753  0.6872 -1.2971
  247MOL0     C32478   2.654   2.874   2.699  1.1059 -0.5206 -1.0849
  247MOL0     C32479   2.590   2.748   2.721 -0.3561 -0.4895 -0.7589
  247MOL0     O32480   2.466   2.726   2.778 -0.3301  0.3283  0.3107
  247MOL0     C32481   2.451   2.758   2.913 -0.0831  0.1141 -0.4359
  247MOL0     C32482   2.311   2.704   2.967 -0.4587 -0.8323  0.6873
  247MOL0     C32483   2.271   2.754   3.108 -1.2387  0.5275  0.2724
  247MOL0     C32484   2.146   2.690   3.167 -0.2343 -0.1172  0.2530
  247MOL0     C32485   2.082   2.731   3.299 -0.4329  0.2139  0.1775
  247MOL0     C32486   1.948   2.663   3.320  1.0756  1.0812  0.3118
  247MOL0     C32487   1.909   2.655   3.465  0.4851 -0.2088  0.3475
  247MOL0     C32488   1.766   2.615   3.472 -0.6857 -0.4330 -0.4421
  247MOL0     N32489   1.747   2.578   3.604  0.2585 -0.0859 -0.1383
  247MOL0     C32490   1.729   2.656   3.714  0.0111 -1.2111 -0.3587
  247MOL0     C32491   1.690   2.581   3.815  0.7364  0.0446  0.0604
  247MOL0     C32492   1.659   2.617   3.960 -0.2156  0.1781  0.1420
  247MOL0     C32493   1.516   2.598   3.993 -0.1998 -0.9567 -0.4576
  247MOL0     C32494   1.502   2.638   4.135  0.0731 -0.3100 -0.3562
  247MOL0     C32495   1.477   2.520   4.226  0.2668 -0.7349  0.3651
  247MOL0     O32496   1.424   2.567   4.349  0.4483  0.2319 -0.5991
  247MOL0     C32497   1.294   2.603   4.371  0.5005  0.2824  1.0150
  247MOL0     C32498   1.268   2.662   4.494  0.3567 -1.7659  0.0512
  247MOL0     C32499   1.139   2.708   4.523  0.2023 -0.0856 -0.1412
  247MOL0     C32500   1.033   2.673   4.440 -0.5961  0.7943  0.6114
  247MOL0     C32501   0.895   2.695   4.480  0.0140 -0.3228 -0.4347
  247MOL0     O32502   0.867   2.716   4.611 -0.2887  0.0052 -0.0694
  247MOL0     C32503   0.734   2.707   4.651  0.8817 -0.5315  0.5723
  247MOL0     C32504   0.652   2.590   4.683 -0.0582 -0.8236 -0.9182
  247MOL0     C32505   0.509   2.597   4.700 -0.5785 -0.0922 -0.5300
  247MOL0     C32506   0.438   2.713   4.679 -0.4648  0.4530 -0.4635
  247MOL0     O32507   0.303   2.722   4.677 -0.1395  0.5790  0.5310
  247MOL0     C32508   0.224   2.650   4.776 -0.1893  0.2480 -0.0395
  247MOL0     C32509   0.079   2.699   4.790 -0.2399 -0.3977  0.3878
  247MOL0     C32510  -0.019   2.612   4.859  0.1094  0.4024 -0.0103
  247MOL0     C32511  -0.139   2.699   4.894 -0.3080 -0.5237 -0.0852
  247MOL0     C32512  -0.260   2.629   4.965 -0.2677 -0.3880 -0.2376
  247MOL0     C32513  -0.379   2.721   4.937  0.3189 -0.4154 -0.2379
  247MOL0     C32514  -0.513   2.667   4.990 -0.5639 -0.3339  0.3085
  247MOL0     C32515  -0.624   2.773   4.982  0.1802 -0.8583 -0.2048
  247MOL0    Cl32516  -0.768   2.694   5.045  0.4931 -0.1466  0.4673
  247MOL0     C32517   0.515   2.826   4.644  0.4654  0.1502  0.2228
  247MOL0     C32518   0.661   2.821   4.632  1.2353 -0.4510 -0.3290
  247MOL0     O32519   0.810   2.688   4.392 -0.1637  0.2205  0.7937
  247MOL0     C32520   1.062   2.610   4.320 -0.1230  0.7707  0.5799
  247MOL0     C32521   1.188   2.574   4.291 -0.0326 -0.8960  0.3036
  247MOL0     N32522   1.694   2.447   3.774  0.0302 -0.2458 -0.6126
  247MOL0     N32523   1.724   2.453   3.646  0.6137 -0.2644 -0.1866
  247MOL0     C32524   2.650   2.632   2.673 -0.0689  0.4838  0.2892
  247MOL0     C32525   2.781   2.642   2.618  1.1313  0.3656 -0.1674
  247MOL0     C32526   3.201   2.846   2.534 -0.2555 -0.0777 -0.0192
  247MOL0     C32527   3.302   2.917   2.598 -0.1462 -0.3176  0.1478
  247MOL0     C32528   3.436   2.902   2.562 -0.1048  0.0461 -0.0973
  247MOL0     C32529   3.473   2.796   2.477  1.1750  0.2144  0.4504
  247MOL0     O32530   3.603   2.768   2.468  0.6590 -0.1844  0.1437
  247MOL0     C32531   3.658   2.671   2.382  1.0287 -0.0308  0.8958
  247MOL0     C32532   3.802   2.668   2.416 -0.1091 -0.3195 -0.3061
  247MOL0     C32533   3.835   2.627   2.565 -0.3582  0.6457  0.3686
  247MOL0     C32534   3.921   2.735   2.627  0.7645  0.1050 -0.5535
  247MOL0     C32535   3.967   2.695   2.759  0.1009  0.2566 -1.5935
  247MOL0     C32536   4.009   2.674   2.878 -0.7133 -0.2200  0.5415
  247MOL0     C32537   3.373   2.715   2.420 -0.1431  0.2174  0.0353
  247MOL0     C32538   3.238   2.745   2.444 -0.5825  0.2479  0.2483
  247MOL0     H32539   2.802   2.988   2.600 -0.2380  1.3156  0.1770
  247MOL0     H32540   2.617   2.974   2.715  0.1787 -1.3735  3.2093
  247MOL0     H32541   2.448   2.867   2.917 -2.2796  0.1292 -1.3725
  247MOL0     H32542   2.532   2.737   2.984 -1.5046 -0.4307  1.1056
  247MOL0     H32543   2.311   2.594   2.967  0.3583 -0.8992  3.1558
  247MOL0     H32544   2.232   2.735   2.899  1.1972  1.0125 -0.5134
  247MOL0     H32545   2.271   2.863   3.097 -0.7880  0.7018  1.7779
  247MOL0     H32546   2.352   2.730   3.177  0.1498 -0.4824 -1.6207
  247MOL0     H32547   2.066   2.684   3.093 -0.2727 -1.2987  0.3778
  247MOL0     H32548   2.171   2.586   3.191 -1.1411 -0.4220 -0.1026
  247MOL0     H32549   2.060   2.838   3.303 -0.9257  0.1730 -0.9690
  247MOL0     H32550   2.145   2.701   3.383  0.8152  3.8529  0.7327
  247MOL0     H32551   1.960   2.560   3.285  2.1029  2.6316 -4.7729
  247MOL0     H32552   1.861   2.694   3.261 -1.2846 -2.4204  1.6439
  247MOL0     H32553   1.980   2.579   3.500  1.1977 -0.0606 -0.7365
  247MOL0     H32554   1.916   2.750   3.518  2.0978 -0.8905  1.4371
  247MOL0     H32555   1.762   2.532   3.402  1.3016 -0.7584 -0.2223
  247MOL0     H32556   1.699   2.700   3.455  0.4351  0.3239 -1.2188
  247MOL0     H32557   1.730   2.764   3.698  1.2935 -1.2917 -0.9998
  247MOL0     H32558   1.687   2.722   3.973  0.6379  0.5505 -3.5223
  247MOL0     H32559   1.722   2.555   4.024 -0.0404 -0.8829 -1.0075
  247MOL0     H32560   1.476   2.497   3.980 -3.1929  0.2386 -1.2319
  247MOL0     H32561   1.452   2.664   3.933  0.1205  0.5398  0.7999
  247MOL0     H32562   1.589   2.691   4.175  0.7502  1.5203 -3.8495
  247MOL0     H32563   1.425   2.715   4.137 -0.5421 -0.8325 -2.0391
  247MOL0     H32564   1.565   2.458   4.249  1.6002 -0.0247 -2.3956
  247MOL0     H32565   1.405   2.447   4.188 -0.3997 -0.5662  1.2897
  247MOL0     H32566   1.352   2.674   4.561  0.4513 -3.0705  0.2011
  247MOL0     H32567   1.115   2.764   4.613 -0.4621  0.3057 -0.5507
  247MOL0     H32568   0.695   2.490   4.683  2.7228  0.2663 -0.2741
  247MOL0     H32569   0.453   2.504   4.711 -0.6157  0.0260  0.3939
  247MOL0     H32570   0.278   2.649   4.871 -0.9343 -0.3057  0.3944
  247MOL0     H32571   0.225   2.547   4.737  1.9069  0.3152 -0.2792
  247MOL0     H32572   0.033   2.717   4.692  0.9412 -0.1912 -0.1401
  247MOL0     H32573   0.090   2.797   4.836  1.8165  0.4560 -1.7220
  247MOL0     H32574   0.019   2.582   4.958 -0.0558  2.1221  0.6268
  247MOL0     H32575  -0.039   2.526   4.795  0.5093 -0.7053  1.3052
  247MOL0     H32576  -0.122   2.776   4.970 -5.9880  0.4596  0.6003
  247MOL0     H32577  -0.171   2.746   4.801 -1.7195 -4.0186 -1.5196
  247MOL0     H32578  -0.238   2.624   5.072  0.2861 -0.4701 -0.3512
  247MOL0     H32579  -0.286   2.540   4.908 -1.4905  1.6172 -3.0846
  247MOL0     H32580  -0.386   2.744   4.831  0.6885  0.7095 -0.0323
  247MOL0     H32581  -0.358   2.823   4.970 -0.0822 -0.3096 -0.3028
  247MOL0     H32582  -0.538   2.586   4.921  1.0862 -1.0864  0.5497
  247MOL0     H32583  -0.508   2.640   5.096 -3.3440  1.0417  0.8831
  247MOL0     H32584  -0.652   2.801   4.881 -1.2206 -1.4730 -0.0041
  247MOL0     H32585  -0.597   2.864   5.036 -2.1717 -2.0164  3.2201
  247MOL0     H32586   0.470   2.922   4.625 -0.8139 -0.7552 -1.6502
  247MOL0     H32587   0.709   2.911   4.596  1.2566 -0.4414 -0.2763
  247MOL0     H32588   0.989   2.560   4.257 -0.3994 -0.2523  1.6724
  247MOL0     H32589   1.198   2.535   4.190 -1.7575 -1.6762  0.3949
  247MOL0     H32590   2.614   2.531   2.684 -1.6946  1.1583  1.6682
  247MOL0     H32591   2.822   2.545   2.590  0.5071  0.3978 -1.2335
  247MOL0     H32592   3.274   2.992   2.671 -2.4605 -0.1218 -0.8555
  247MOL0     H32593   3.507   2.974   2.601 -0.8815 -0.7859  3.1790
  247MOL0     H32594   3.646   2.698   2.277 -1.5568  0.2454  1.2007
  247MOL0     H32595   3.609   2.574   2.398 -1.1755  1.2193  2.3131
  247MOL0     H32596   3.842   2.596   2.344 -0.7672  0.3467 -1.3595
  247MOL0     H32597   3.856   2.751   2.369 -1.7379  1.4821  0.8633
  247MOL0     H32598   3.895   2.536   2.563  1.0520  1.5146  1.7349
  247MOL0     H32599   3.740   2.614   2.619 -0.0888 -0.2891  0.6292
  247MOL0     H32600   4.017   2.737   2.575  1.8242  3.4863  1.2230
  247MOL0     H32601   3.869   2.830   2.612  1.4876  0.7560  0.8187
  247MOL0     H32602   4.010   2.658   2.984  0.2034 -0.8568  0.4474
  247MOL0     H32603   3.398   2.633   2.353 -0.7991  1.2652 -1.5585
  247MOL0     H32604   3.166   2.682   2.392 -0.4084  1.5226 -1.6147
  248MOL0     O32605   7.081   8.326   6.332 -0.1242  0.0147 -0.3607
  248MOL0     C32606   7.149   8.265   6.255 -0.2558  1.0698 -0.7378
  248MOL0     O32607   7.128   8.238   6.120 -0.5258  0.2540  0.3007
  248MOL0     C32608   7.000   8.236   6.079 -0.2129 -0.0750 -0.1535
  248MOL0     C32609   6.924   8.121   6.098  0.0257 -0.4471 -0.5073
  248MOL0     C32610   6.792   8.127   6.075  0.6063  0.3488 -0.5755
  248MOL0     C32611   6.729   8.246   6.030  0.5968 -0.0893 -0.0292
  248MOL0     O32612   6.590   8.238   6.009  0.1030 -0.5107  0.3151
  248MOL0     C32613   6.507   8.363   6.001 -0.4125  0.3740 -0.6247
  248MOL0     C32614   6.357   8.339   6.040 -0.1969 -0.2132 -0.1048
  248MOL0     C32615   6.352   8.305   6.201  0.4739  0.7704  0.3118
  248MOL0     C32616   6.209   8.321   6.249  0.4004 -0.3230  0.3717
  248MOL0     C32617   6.110   8.234   6.183  0.2243  0.7201  0.6690
  248MOL0     C32618   6.054   8.302   6.051  0.4362  0.0679 -0.5065
  248MOL0     C32619   5.919   8.239   6.011 -0.5169  0.9309 -0.0265
  248MOL0     C32620   5.841   8.306   5.903 -0.3576  0.3519  0.8443
  248MOL0     N32621   5.713   8.236   5.866 -0.7751 -1.2298  0.0682
  248MOL0     C32622   5.702   8.142   5.765 -0.0930  0.1185 -0.5069
  248MOL0     C32623   5.568   8.133   5.748  0.3231 -0.1972  0.5799
  248MOL0     C32624   5.507   8.047   5.644  0.5087  0.3302  0.4587
  248MOL0     C32625   5.380   7.986   5.704  0.4076  0.3960 -0.6994
  248MOL0     C32626   5.261   8.089   5.714 -1.0559  0.3159  0.0521
  248MOL0     C32627   5.127   8.018   5.738 -1.2072  0.2003 -0.9538
  248MOL0     O32628   5.028   8.110   5.681 -0.2794  1.0380  0.1083
  248MOL0     C32629   4.939   8.072   5.589 -0.2765 -0.9293 -1.4315
  248MOL0     C32630   4.915   7.940   5.542 -0.6000 -0.0476 -0.4996
  248MOL0     C32631   4.822   7.921   5.443  0.8985 -0.0371  0.1043
  248MOL0     C32632   4.729   8.019   5.402 -0.0145  0.3521  0.3103
  248MOL0     C32633   4.636   7.988   5.288  0.1990  0.2060 -0.2141
  248MOL0     O32634   4.612   7.855   5.254 -0.3519  0.1533  0.1298
  248MOL0     C32635   4.499   7.809   5.188 -0.0195  0.0081  0.1345
  248MOL0     C32636   4.372   7.881   5.184 -0.0185  0.5883  0.0435
  248MOL0     C32637   4.262   7.821   5.109 -0.5735  0.4143 -0.9245
  248MOL0     C32638   4.279   7.699   5.041 -0.5460  0.3423 -0.0101
  248MOL0     O32639   4.166   7.661   4.961  0.5131  0.0762 -0.7893
  248MOL0     C32640   4.171   7.530   4.898 -0.2369  0.9152  0.3620
  248MOL0     C32641   4.220   7.548   4.756 -0.6722 -0.1012 -0.4769
  248MOL0     C32642   4.147   7.453   4.658 -0.1065 -0.0508  0.0197
  248MOL0     C32643   4.231   7.327   4.639  0.3688  0.5108  0.1531
  248MOL0     C32644   4.192   7.244   4.518 -1.2199  0.4877  0.1798
  248MOL0     C32645   4.057   7.190   4.511  0.7360  0.3014 -1.0849
  248MOL0     C32646   4.022   7.077   4.414  0.9840 -0.1495 -0.7498
  248MOL0     C32647   4.085   6.943   4.450 -0.6692  0.3615 -0.7073
  248MOL0    Cl32648   4.039   6.887   4.624 -0.2181 -0.0055 -0.2316
  248MOL0     C32649   4.398   7.631   5.058 -0.1478 -0.8132  0.1257
  248MOL0     C32650   4.504   7.688   5.117 -0.0825 -0.0577 -0.6517
  248MOL0     O32651   4.577   8.088   5.243 -0.5347 -0.0822 -0.4257
  248MOL0     C32652   4.754   8.152   5.443 -0.4505  0.0075  0.2648
  248MOL0     C32653   4.850   8.170   5.544  0.1462 -0.9508  0.4703
  248MOL0     N32654   5.515   8.218   5.838  0.0112 -0.1901  0.1813
  248MOL0     N32655   5.595   8.289   5.910 -0.3700  0.5824 -0.0638
  248MOL0     C32656   6.804   8.353   6.002 -0.8349 -0.5797 -0.1828
  248MOL0     C32657   6.937   8.354   6.041 -0.0250 -0.2187 -0.7197
  248MOL0     C32658   7.280   8.228   6.285 -0.7340 -0.4432  0.3953
  248MOL0     C32659   7.308   8.187   6.413 -0.1622 -1.6801  0.3971
  248MOL0     C32660   7.421   8.116   6.448  0.8467 -0.8805 -0.3717
  248MOL0     C32661   7.532   8.109   6.356 -0.5530  0.0457 -0.1755
  248MOL0     O32662   7.655   8.044   6.379 -0.0870  0.5124  0.0493
  248MOL0     C32663   7.674   7.997   6.512  0.2768 -0.3269  0.3870
  248MOL0     C32664   7.775   7.884   6.510 -0.2438  0.3129  0.2430
  248MOL0     C32665   7.907   7.931   6.463 -0.5031 -0.2345  0.8512
  248MOL0     C32666   8.025   7.850   6.522  0.3011 -0.3818 -0.3297
  248MOL0     C32667   8.048   7.722   6.456  0.5267  0.0013 -0.9558
  248MOL0     C32668   8.076   7.619   6.401 -0.3568  0.5702 -0.3191
  248MOL0     C32669   7.508   8.158   6.227 -1.3340  0.4859 -0.3314
  248MOL0     C32670   7.384   8.213   6.187 -0.0374  0.2430  0.4147
  248MOL0     H32671   6.977   8.031   6.129 -0.2935 -1.1138 -1.8224
  248MOL0     H32672   6.729   8.044   6.104  2.3521  0.4534  4.3424
  248MOL0     H32673   6.528   8.412   5.905  1.5699  1.8044  0.4500
  248MOL0     H32674   6.538   8.440   6.073  1.1781 -0.4883 -0.3423
  248MOL0     H32675   6.320   8.257   5.979  0.2291 -1.1696  0.8954
  248MOL0     H32676   6.304   8.433   6.022 -1.3920 -0.6866  0.8134
  248MOL0     H32677   6.402   8.382   6.260 -0.7815  0.9640  1.1733
  248MOL0     H32678   6.405   8.210   6.210  2.0167  1.2784 -2.3767
  248MOL0     H32679   6.210   8.288   6.354 -0.4229 -0.7486  0.2560
  248MOL0     H32680   6.188   8.427   6.231  4.4623  0.1622 -3.0513
  248MOL0     H32681   6.020   8.233   6.245 -0.7895 -1.0967 -0.7321
  248MOL0     H32682   6.145   8.131   6.176 -1.7601  0.1481 -2.4057
  248MOL0     H32683   6.107   8.295   5.956  0.5876  3.7330 -0.8451
  248MOL0     H32684   6.050   8.411   6.060 -0.5393 -0.0259  0.4683
  248MOL0     H32685   5.937   8.137   5.976  1.9617  1.8743 -1.8079
  248MOL0     H32686   5.860   8.229   6.102  0.1670 -0.5864  0.2734
  248MOL0     H32687   5.909   8.316   5.818 -0.5222  0.0629  0.6765
  248MOL0     H32688   5.819   8.408   5.937  0.5677  1.0751 -0.6205
  248MOL0     H32689   5.774   8.085   5.707  0.3163  0.6926 -0.5742
  248MOL0     H32690   5.574   7.967   5.613 -1.4605 -0.1947 -2.9719
  248MOL0     H32691   5.477   8.102   5.554 -1.1926 -1.1542  0.0589
  248MOL0     H32692   5.399   7.955   5.807 -1.5047 -0.9201 -0.6769
  248MOL0     H32693   5.344   7.897   5.651 -2.3421 -0.5090  2.2963
  248MOL0     H32694   5.280   8.161   5.794 -1.3656  1.5442 -0.9360
  248MOL0     H32695   5.249   8.147   5.622  1.2448 -0.6633 -0.9419
  248MOL0     H32696   5.107   8.000   5.844  1.2396  2.8901  0.1017
  248MOL0     H32697   5.124   7.922   5.686 -1.6138  0.5090 -1.5143
  248MOL0     H32698   4.960   7.849   5.580 -1.1406 -0.0743  0.1017
  248MOL0     H32699   4.825   7.816   5.416  1.0066 -0.3236  1.1826
  248MOL0     H32700   4.359   7.986   5.210 -3.3521  0.1723  0.5278
  248MOL0     H32701   4.176   7.885   5.095 -0.6222  0.4703 -0.4016
  248MOL0     H32702   4.072   7.484   4.904 -0.0453  0.5896  1.2945
  248MOL0     H32703   4.242   7.468   4.955  0.1788 -0.7683 -1.8629
  248MOL0     H32704   4.329   7.550   4.753 -0.6709  1.2074 -0.2276
  248MOL0     H32705   4.196   7.650   4.726 -1.4745  0.7427  2.6564
  248MOL0     H32706   4.139   7.510   4.566  1.6490 -0.7141 -0.5934
  248MOL0     H32707   4.049   7.434   4.701 -0.8112  0.4715 -1.3026
  248MOL0     H32708   4.333   7.361   4.617  0.5441 -0.7101 -1.0944
  248MOL0     H32709   4.238   7.272   4.734  2.9131  1.3866  0.5627
  248MOL0     H32710   4.261   7.160   4.530 -0.3137  1.4058  1.9199
  248MOL0     H32711   4.219   7.299   4.428  2.2532  0.6579  1.1685
  248MOL0     H32712   3.981   7.268   4.506 -0.8908 -1.2976 -2.4698
  248MOL0     H32713   4.047   7.143   4.609  1.8352 -1.5105 -1.7927
  248MOL0     H32714   3.913   7.072   4.411  0.8952 -0.3808  1.2040
  248MOL0     H32715   4.048   7.102   4.311  0.5924  2.2548 -0.3287
  248MOL0     H32716   4.194   6.949   4.446 -0.6007 -1.1502 -1.7397
  248MOL0     H32717   4.069   6.859   4.382  2.7554 -0.0180 -1.2141
  248MOL0     H32718   4.423   7.533   5.019  1.2344 -2.2182  4.1058
  248MOL0     H32719   4.601   7.639   5.126 -0.2845 -0.0603  3.4003
  248MOL0     H32720   4.697   8.238   5.412  2.0977  1.6720 -0.1531
  248MOL0     H32721   4.856   8.270   5.585  2.5830 -1.2364  0.9426
  248MOL0     H32722   6.761   8.436   5.947  1.1441 -2.0496 -4.3067
  248MOL0     H32723   6.992   8.446   6.023 -0.7270  0.2849 -0.2936
  248MOL0     H32724   7.236   8.216   6.489  0.8920  3.9375 -0.3400
  248MOL0     H32725   7.417   8.079   6.550 -0.3609  1.3734  0.4765
  248MOL0     H32726   7.586   7.959   6.565 -0.2867 -1.5375 -1.3527
  248MOL0     H32727   7.721   8.078   6.570 -1.5461 -0.8363  2.7533
  248MOL0     H32728   7.781   7.829   6.604  0.3580 -2.3795 -1.2695
  248MOL0     H32729   7.742   7.804   6.443 -1.4625 -0.6550  1.9150
  248MOL0     H32730   7.929   8.033   6.495 -0.6175 -0.1103  0.5317
  248MOL0     H32731   7.913   7.932   6.354  1.8978  0.7891  0.9215
  248MOL0     H32732   8.114   7.907   6.497  3.1511 -4.2553  0.0571
  248MOL0     H32733   8.027   7.851   6.632 -1.5432  1.9962 -0.2324
  248MOL0     H32734   8.097   7.530   6.345  0.5570  0.4874  0.1241
  248MOL0     H32735   7.586   8.145   6.152  0.8852  0.0268  1.9178
  248MOL0     H32736   7.368   8.257   6.089  0.6632  0.1956  0.2751
  249MOL0     O32737   3.200  10.554  10.916 -0.0868 -0.3558  0.5685
  249MOL0     C32738   3.139  10.661  10.918  0.4532 -0.2008 -0.3993
  249MOL0     O32739   3.185  10.785  10.922 -0.2617 -0.0883 -1.2423
  249MOL0     C32740   3.320  10.811  10.915  0.8476  0.3172 -0.7101
  249MOL0     C32741   3.428  10.725  10.878  0.6245  0.2789 -1.3137
  249MOL0     C32742   3.565  10.760  10.893  0.1828  1.0763  0.2672
  249MOL0     C32743   3.597  10.887  10.934 -0.2428 -0.6814  0.1102
  249MOL0     O32744   3.731  10.926  10.953  0.2651 -0.3698  0.1331
  249MOL0     C32745   3.837  10.890  10.863 -0.3153  0.4671 -0.6475
  249MOL0     C32746   3.959  10.820  10.945  0.3367  0.3983  0.8528
  249MOL0     C32747   4.067  10.797  10.850 -0.3095  0.9144  0.8072
  249MOL0     C32748   4.181  10.725  10.920 -0.8708 -0.1981  0.1475
  249MOL0     C32749   4.288  10.673  10.820 -0.7341  0.1168 -0.0325
  249MOL0     C32750   4.374  10.790  10.760  0.0496 -0.4730  0.1150
  249MOL0     C32751   4.465  10.742  10.645  0.4883 -0.0836 -0.0585
  249MOL0     C32752   4.590  10.677  10.697 -0.5564  0.1511 -0.8623
  249MOL0     N32753   4.692  10.668  10.599  0.5317  0.9783  0.7462
  249MOL0     C32754   4.684  10.580  10.496 -0.9603  0.0985 -0.2771
  249MOL0     C32755   4.812  10.569  10.446 -1.0229  0.1532 -0.8445
  249MOL0     C32756   4.884  10.481  10.344 -0.0861  0.0759  0.0056
  249MOL0     C32757   4.902  10.327  10.396 -0.0012 -0.4684  0.5408
  249MOL0     C32758   5.010  10.274  10.298  0.4081 -0.0022 -0.4351
  249MOL0     C32759   5.037  10.128  10.328 -0.0016 -0.7072 -0.1240
  249MOL0     O32760   5.127  10.084  10.227  0.5572  0.3832 -0.7047
  249MOL0     C32761   5.267  10.077  10.237  0.3627  0.3883  0.9170
  249MOL0     C32762   5.341  10.171  10.310 -0.5648  0.6338  0.2099
  249MOL0     C32763   5.473  10.170  10.319  0.3807  0.5035 -0.3114
  249MOL0     C32764   5.544  10.086  10.239 -0.2929  0.5083  0.5509
  249MOL0     C32765   5.685  10.112  10.206  0.1619 -1.0038  0.2271
  249MOL0     O32766   5.748  10.000  10.157  0.3320  0.1178  0.0988
  249MOL0     C32767   5.867  10.014  10.091 -0.1991  0.1073 -0.9758
  249MOL0     C32768   5.990  10.015  10.157  0.2669  0.2687 -0.1157
  249MOL0     C32769   6.103  10.034  10.078 -0.4403 -0.5300  0.3091
  249MOL0     C32770   6.101  10.038   9.941  0.6402  0.7517 -0.1987
  249MOL0     O32771   6.220  10.069   9.883  0.2058 -0.7575  0.2896
  249MOL0     C32772   6.242  10.012   9.758  0.9898  0.4007  0.3198
  249MOL0     C32773   6.371  10.065   9.695 -0.9157 -0.3922  0.0711
  249MOL0     C32774   6.456   9.966   9.615 -0.2402  0.5556  0.1546
  249MOL0     C32775   6.592  10.014   9.557  0.0590 -0.1883  0.7749
  249MOL0     C32776   6.652   9.924   9.458 -0.4916 -0.1045 -0.1175
  249MOL0     C32777   6.773   9.991   9.381 -0.2254 -0.8710  0.0169
  249MOL0     C32778   6.915   9.994   9.445  0.1841 -0.4280 -0.0265
  249MOL0     C32779   6.983   9.865   9.494 -0.4371 -0.1508  0.2232
  249MOL0    Cl32780   6.977   9.742   9.359 -0.0781  0.2273 -0.2039
  249MOL0     C32781   5.975  10.017   9.878 -0.5807 -0.5632 -0.5243
  249MOL0     C32782   5.863  10.008   9.960  0.2136  0.0810  0.7108
  249MOL0     O32783   5.731  10.223  10.224  0.3738 -0.4837 -0.1315
  249MOL0     C32784   5.473   9.985  10.168 -0.8763 -0.1752 -0.1009
  249MOL0     C32785   5.335   9.975  10.169  0.2790 -0.6497 -0.2340
  249MOL0     N32786   4.895  10.663  10.523  0.1966 -0.0986 -0.0227
  249MOL0     N32787   4.814  10.727  10.600 -1.2314  0.0668  0.1367
  249MOL0     C32788   3.503  10.972  10.986 -0.8061 -0.1728 -0.5413
  249MOL0     C32789   3.366  10.933  10.969 -0.3211  0.3771 -0.0771
  249MOL0     C32790   2.988  10.647  10.906  1.1911 -0.1326 -0.6677
  249MOL0     C32791   2.924  10.555  10.833  0.6786  0.1033 -1.2874
  249MOL0     C32792   2.784  10.530  10.845  0.0351 -0.9746 -0.5557
  249MOL0     C32793   2.708  10.609  10.930  0.3735  0.5374 -0.5228
  249MOL0     O32794   2.574  10.613  10.910 -0.2670 -0.2277  0.0240
  249MOL0     C32795   2.481  10.660  11.009 -0.1108  1.0311  0.4858
  249MOL0     C32796   2.498  10.566  11.134  0.5802  0.4073  0.8846
  249MOL0     C32797   2.432  10.648  11.248 -0.2791  0.7849  0.6530
  249MOL0     C32798   2.391  10.564  11.367  0.0470  0.6663 -0.8383
  249MOL0     C32799   2.503  10.547  11.453 -0.4662  1.0205  0.1708
  249MOL0     C32800   2.604  10.514  11.508  0.3772  0.6615 -0.0055
  249MOL0     C32801   2.770  10.702  11.023 -0.4468 -0.0526 -0.2696
  249MOL0     C32802   2.906  10.713  11.003 -0.5185  0.1633  0.2427
  249MOL0     H32803   3.417  10.627  10.832 -0.7005  0.7658 -2.0827
  249MOL0     H32804   3.637  10.682  10.870 -2.0003 -0.6448 -1.0384
  249MOL0     H32805   3.877  10.987  10.832  4.0620 -1.4685 -1.8624
  249MOL0     H32806   3.814  10.826  10.777  1.6629 -1.2074  0.0014
  249MOL0     H32807   3.924  10.722  10.979  1.2524  0.1467  1.0942
  249MOL0     H32808   3.992  10.877  11.032 -0.5348 -0.6212  1.8840
  249MOL0     H32809   4.114  10.889  10.815  0.2232  0.3435  0.0086
  249MOL0     H32810   4.029  10.731  10.772 -1.0314 -1.2274  2.8280
  249MOL0     H32811   4.225  10.781  11.002 -0.9221 -2.6298  1.9689
  249MOL0     H32812   4.137  10.642  10.976 -0.1914  0.4273  1.6584
  249MOL0     H32813   4.228  10.630  10.739  2.6579 -3.5496 -0.9241
  249MOL0     H32814   4.355  10.594  10.856  2.2997  1.1617 -2.8329
  249MOL0     H32815   4.436  10.847  10.830  3.0536 -2.2646 -0.8708
  249MOL0     H32816   4.312  10.865  10.711 -2.1544 -3.9172 -2.8490
  249MOL0     H32817   4.399  10.684  10.580  1.2787  0.0067 -0.9791
  249MOL0     H32818   4.493  10.828  10.583 -0.2208 -0.7652 -1.3546
  249MOL0     H32819   4.566  10.578  10.738 -2.6417  1.0556  0.2538
  249MOL0     H32820   4.638  10.725  10.782  0.8494 -0.0784 -1.4881
  249MOL0     H32821   4.599  10.525  10.458 -0.7109  0.6795 -1.7546
  249MOL0     H32822   4.987  10.518  10.330  0.1883 -0.9263 -0.6537
  249MOL0     H32823   4.836  10.489  10.247  1.1165 -1.2907 -0.7443
  249MOL0     H32824   4.809  10.275  10.372 -1.8089  1.7820  2.1342
  249MOL0     H32825   4.936  10.319  10.500  3.1401  2.4761 -0.0883
  249MOL0     H32826   4.983  10.287  10.193  0.3334  0.8050 -0.3219
  249MOL0     H32827   5.102  10.330  10.317 -0.0625  0.2527  1.2927
  249MOL0     H32828   4.946  10.068  10.320  0.7067 -1.8395 -0.0034
  249MOL0     H32829   5.087  10.127  10.426 -2.2760  0.5057  1.1349
  249MOL0     H32830   5.304  10.251  10.372  2.8536  2.2899  0.3353
  249MOL0     H32831   5.522  10.251  10.372  0.4348 -0.0240  0.4613
  249MOL0     H32832   6.003   9.988  10.261  1.0342 -2.0255 -0.7476
  249MOL0     H32833   6.198  10.043  10.131 -0.7247 -0.7952  0.8727
  249MOL0     H32834   6.160  10.030   9.688  0.7287  0.5152  0.6502
  249MOL0     H32835   6.248   9.903   9.763  1.4953  0.4031 -0.1500
  249MOL0     H32836   6.440  10.072   9.780 -1.5062 -3.6762  0.9804
  249MOL0     H32837   6.353  10.161   9.646 -2.5540 -0.2333  0.8940
  249MOL0     H32838   6.393   9.927   9.534  1.7522 -1.2504 -0.6033
  249MOL0     H32839   6.478   9.879   9.677  1.6207  0.0618 -1.1117
  249MOL0     H32840   6.589  10.118   9.522  1.6016  0.3164  2.0054
  249MOL0     H32841   6.655  10.003   9.645  1.2898 -4.0421 -0.3735
  249MOL0     H32842   6.575   9.893   9.387 -1.9146  0.7094  1.0281
  249MOL0     H32843   6.692   9.831   9.500  0.5170 -1.1435 -3.1092
  249MOL0     H32844   6.735  10.085   9.341 -1.3355 -0.9856  0.7690
  249MOL0     H32845   6.791   9.927   9.294  2.9591 -0.2821  0.1099
  249MOL0     H32846   6.979  10.042   9.371  1.3116 -3.2930 -1.0799
  249MOL0     H32847   6.909  10.062   9.530 -0.1118  0.6489 -0.8889
  249MOL0     H32848   6.935   9.825   9.583  0.2941  0.7058  1.0228
  249MOL0     H32849   7.090   9.865   9.520 -0.1279 -4.1145 -0.4826
  249MOL0     H32850   5.961  10.017   9.770  1.8345  1.8017 -0.9591
  249MOL0     H32851   5.764  10.003   9.915 -0.6486 -0.5356  2.5592
  249MOL0     H32852   5.524   9.906  10.113  1.0637  1.3600 -0.5898
  249MOL0     H32853   5.277   9.898  10.118  1.1038 -0.8817 -0.8395
  249MOL0     H32854   3.532  11.072  11.013  1.7184 -0.4269 -1.9683
  249MOL0     H32855   3.285  10.995  11.005 -0.1346  1.0719 -0.8259
  249MOL0     H32856   2.981  10.496  10.761 -0.0242 -0.8280 -1.0979
  249MOL0     H32857   2.740  10.461  10.774 -2.9981 -2.0177  2.0952
  249MOL0     H32858   2.379  10.665  10.969 -1.3711  1.9246  3.5237
  249MOL0     H32859   2.494  10.765  11.040 -1.3434  0.9010  1.5403
  249MOL0     H32860   2.443  10.472  11.119  2.4178 -0.4476 -0.9468
  249MOL0     H32861   2.604  10.543  11.147  0.9268  1.7016  0.4252
  249MOL0     H32862   2.338  10.694  11.216  0.0208  2.6612  2.2643
  249MOL0     H32863   2.496  10.731  11.279 -0.2980  0.5673  1.2962
  249MOL0     H32864   2.314  10.615  11.425  0.3147 -2.2776  2.3806
  249MOL0     H32865   2.358  10.465  11.334  2.8700 -0.0417 -1.8456
  249MOL0     H32866   2.700  10.506  11.556  0.5823  0.3087 -0.4603
  249MOL0     H32867   2.706  10.754  11.092  0.8637  0.6851  0.4351
  249MOL0     H32868   2.968  10.774  11.067  0.1874  0.6965 -0.9257
  250MOL0     O32869   6.379   9.203  10.579  0.4247  0.1848 -0.2646
  250MOL0     C32870   6.420   9.305  10.644 -0.4494 -0.1499  0.8270
  250MOL0     O32871   6.551   9.332  10.662  0.2817 -0.3791  0.4727
  250MOL0     C32872   6.652   9.264  10.599  0.2664  0.5571  0.3573
  250MOL0     C32873   6.754   9.221  10.675 -0.0984  0.1395  0.6132
  250MOL0     C32874   6.858   9.155  10.612 -0.4985 -1.2058 -0.4994
  250MOL0     C32875   6.870   9.135  10.474  0.0983 -0.2674 -0.6566
  250MOL0     O32876   6.985   9.086  10.414  0.7169 -0.2407 -0.3188
  250MOL0     C32877   6.982   8.940  10.413  0.3154 -0.9725 -0.0910
  250MOL0     C32878   7.098   8.884  10.342 -0.1170  0.7517  0.0324
  250MOL0     C32879   7.227   8.875  10.422  0.7095 -0.5245 -0.3370
  250MOL0     C32880   7.360   8.836  10.349  0.6128 -0.3691 -0.1164
  250MOL0     C32881   7.482   8.811  10.436 -0.1111  1.0518  0.5098
  250MOL0     C32882   7.465   8.700  10.532  0.1114  0.6751 -0.8959
  250MOL0     C32883   7.596   8.653  10.581  1.3428  0.4091 -0.4189
  250MOL0     C32884   7.570   8.577  10.716 -0.0903  0.1288 -0.2802
  250MOL0     N32885   7.685   8.502  10.769 -0.6901  0.1843 -0.6589
  250MOL0     C32886   7.745   8.403  10.697 -1.4999 -0.0511 -0.4673
  250MOL0     C32887   7.836   8.358  10.792  0.9117 -0.6457 -0.4216
  250MOL0     C32888   7.916   8.234  10.777  0.2396  0.3514  0.1614
  250MOL0     C32889   7.877   8.114  10.867 -0.2052  0.6895 -0.1964
  250MOL0     C32890   7.755   8.037  10.820  0.2499  0.2567 -1.1476
  250MOL0     C32891   7.688   7.949  10.929 -0.7094 -1.2386  0.6486
  250MOL0     O32892   7.623   8.024  11.027 -0.1958  0.2673 -0.5623
  250MOL0     C32893   7.493   8.066  10.990 -0.6057 -0.2016 -1.0938
  250MOL0     C32894   7.468   8.205  10.977  0.1742  0.8409 -0.0537
  250MOL0     C32895   7.336   8.251  10.982  0.3517  0.2196  0.5080
  250MOL0     C32896   7.225   8.156  10.961 -0.8167 -0.4006  0.1349
  250MOL0     C32897   7.082   8.199  10.966 -0.0251 -0.6190  0.2334
  250MOL0     O32898   7.051   8.334  10.957 -0.1690  1.0827 -0.2366
  250MOL0     C32899   6.926   8.389  10.960  0.8810 -0.4181  0.3399
  250MOL0     C32900   6.898   8.515  11.011  0.5336  0.5255 -0.5015
  250MOL0     C32901   6.776   8.582  11.005  0.2471 -0.2574 -0.1730
  250MOL0     C32902   6.666   8.512  10.959 -0.4170  0.1029 -0.7351
  250MOL0     O32903   6.540   8.560  10.947  0.0729  0.2214 -0.4798
  250MOL0     C32904   6.505   8.694  10.999  0.1664  0.3390  0.3049
  250MOL0     C32905   6.358   8.687  11.059 -0.2375  0.1979 -0.0578
  250MOL0     C32906   6.371   8.599  11.189  0.8122  0.2677  0.0496
  250MOL0     C32907   6.254   8.641  11.292 -1.3819 -0.2050 -0.1274
  250MOL0     C32908   6.256   8.544  11.411 -0.2008 -0.6843 -0.3721
  250MOL0     C32909   6.132   8.569  11.497  0.4568 -0.4544 -0.3126
  250MOL0     C32910   6.123   8.718  11.566  0.7511  0.7559  0.1057
  250MOL0     C32911   6.012   8.720  11.669  0.2099  0.1619 -0.5986
  250MOL0    Cl32912   6.005   8.877  11.756  0.2258  0.6677  0.0599
  250MOL0     C32913   6.690   8.388  10.914 -0.2703  0.5522 -0.2976
  250MOL0     C32914   6.816   8.328  10.904  0.2391  0.0788  0.1619
  250MOL0     O32915   7.004   8.113  11.000 -0.2575  0.7423  0.1926
  250MOL0     C32916   7.264   8.019  10.958  1.4316 -0.1954  0.2009
  250MOL0     C32917   7.389   7.979  10.983 -0.1612  0.2397  0.4850
  250MOL0     N32918   7.819   8.426  10.919  0.1328  0.5208 -0.0714
  250MOL0     N32919   7.724   8.508  10.899 -0.3064 -0.1268 -0.2666
  250MOL0     C32920   6.762   9.180  10.393  1.0406 -0.0691  0.9787
  250MOL0     C32921   6.654   9.238  10.455 -0.6457 -1.2713 -0.3046
  250MOL0     C32922   6.325   9.414  10.687 -0.3950  0.1052 -0.8662
  250MOL0     C32923   6.361   9.505  10.784 -0.3800  0.7942  0.5530
  250MOL0     C32924   6.280   9.597  10.837 -0.0904  0.5404 -0.5266
  250MOL0     C32925   6.150   9.608  10.788  1.1716  0.3160  0.9017
  250MOL0     O32926   6.059   9.708  10.827 -0.4289  0.0229  0.3227
  250MOL0     C32927   6.075   9.843  10.782 -0.1190 -0.5524 -0.1192
  250MOL0     C32928   6.176   9.908  10.880  0.1277 -0.1666 -0.8429
  250MOL0     C32929   6.175  10.062  10.870  0.5870 -0.3750  0.3738
  250MOL0     C32930   6.209  10.122  11.010  0.3356  0.2525  0.8647
  250MOL0     C32931   6.353  10.095  11.030 -0.2603 -0.5043  0.4930
  250MOL0     C32932   6.472  10.083  11.045  0.0908 -1.5919 -0.3948
  250MOL0     C32933   6.107   9.514  10.693 -1.5497  0.1778  0.0699
  250MOL0     C32934   6.193   9.413  10.648  1.1315 -0.0129  0.8195
  250MOL0     H32935   6.742   9.245  10.780  0.5326 -0.6072  0.8718
  250MOL0     H32936   6.940   9.128  10.678 -1.8698  1.3731  2.5572
  250MOL0     H32937   6.890   8.917  10.357 -1.3088 -0.9222  2.4170
  250MOL0     H32938   6.969   8.900  10.514 -0.5810  0.6176  0.4623
  250MOL0     H32939   7.123   8.938  10.250 -1.0876  3.7781  1.4153
  250MOL0     H32940   7.082   8.782  10.307 -2.9505  1.4123 -0.8916
  250MOL0     H32941   7.209   8.810  10.508  1.9928  1.6550  1.7085
  250MOL0     H32942   7.252   8.972  10.467 -2.1441 -0.1043  0.5185
  250MOL0     H32943   7.337   8.745  10.292  3.0176 -1.4835  0.5653
  250MOL0     H32944   7.381   8.908  10.269  0.3593 -2.2222 -1.9644
  250MOL0     H32945   7.500   8.910  10.477 -1.5575  1.3292  0.5349
  250MOL0     H32946   7.558   8.782  10.362  2.2500  0.7270  2.9336
  250MOL0     H32947   7.406   8.611  10.509 -0.5319  0.2691  1.9821
  250MOL0     H32948   7.414   8.751  10.614 -0.3099  0.8358 -1.2586
  250MOL0     H32949   7.636   8.582  10.508  1.1400  1.7352 -1.8787
  250MOL0     H32950   7.672   8.732  10.584  2.2390 -0.3896 -1.1459
  250MOL0     H32951   7.486   8.508  10.704  0.6391 -1.4381  2.6729
  250MOL0     H32952   7.538   8.653  10.788 -2.8166 -0.7038 -0.4938
  250MOL0     H32953   7.732   8.369  10.595  0.5212 -1.1549 -0.4114
  250MOL0     H32954   8.021   8.252  10.803  0.8209 -0.7196 -1.3191
  250MOL0     H32955   7.911   8.214  10.670 -2.2693 -0.4939  0.3722
  250MOL0     H32956   7.857   8.157  10.966 -0.2358  0.6067 -0.1668
  250MOL0     H32957   7.957   8.040  10.875 -0.7557 -0.0070 -0.9691
  250MOL0     H32958   7.674   8.104  10.788 -1.9556 -0.7418  1.9277
  250MOL0     H32959   7.781   7.981  10.730  0.0825  0.1577 -1.1348
  250MOL0     H32960   7.780   7.901  10.966 -0.0097  0.6890  1.5428
  250MOL0     H32961   7.619   7.878  10.883 -0.0990 -1.4363  0.0121
  250MOL0     H32962   7.546   8.280  10.984  0.0101  0.9429  0.7896
  250MOL0     H32963   7.328   8.359  10.990 -1.7990  0.0718  0.9857
  250MOL0     H32964   6.987   8.556  11.058  1.2510 -1.7295  0.2691
  250MOL0     H32965   6.766   8.680  11.050 -0.8400 -1.1370  1.6305
  250MOL0     H32966   6.501   8.770  10.921  1.7081  1.0978  0.9213
  250MOL0     H32967   6.564   8.721  11.087 -2.1980 -1.0653  2.4705
  250MOL0     H32968   6.288   8.650  10.984 -1.8461 -1.2930  2.0596
  250MOL0     H32969   6.329   8.789  11.086  0.3436  0.3114  0.1589
  250MOL0     H32970   6.468   8.599  11.238  2.5751 -2.9210 -3.0490
  250MOL0     H32971   6.360   8.495  11.158 -0.1518  0.2381  0.4464
  250MOL0     H32972   6.266   8.741  11.336 -4.2329  0.5923 -0.9381
  250MOL0     H32973   6.161   8.646  11.235 -0.1606  3.8680 -2.1482
  250MOL0     H32974   6.345   8.544  11.475 -0.2295  0.9677 -0.3018
  250MOL0     H32975   6.244   8.441  11.376 -2.4954 -1.6881  2.8232
  250MOL0     H32976   6.135   8.498  11.580 -1.6524  0.3084  0.4992
  250MOL0     H32977   6.040   8.545  11.442  1.0117 -1.9616 -0.6313
  250MOL0     H32978   6.214   8.742  11.621  1.0986  0.3097 -0.2710
  250MOL0     H32979   6.111   8.796  11.490  1.0428  0.0977 -0.6335
  250MOL0     H32980   6.026   8.646  11.748 -2.4963 -1.2501 -1.3270
  250MOL0     H32981   5.918   8.698  11.617  0.0383 -3.1255  0.8810
  250MOL0     H32982   6.621   8.309  10.885  2.7215 -2.6630  0.5322
  250MOL0     H32983   6.814   8.230  10.859  1.8068  0.3809 -0.6461
  250MOL0     H32984   7.185   7.944  10.949  2.0484 -0.9220  0.6874
  250MOL0     H32985   7.394   7.875  11.011  0.2334  0.4701  1.2984
  250MOL0     H32986   6.771   9.160  10.287  3.0648  2.4650  0.5674
  250MOL0     H32987   6.573   9.290  10.404  1.9241  2.7936 -0.6933
  250MOL0     H32988   6.465   9.515  10.816 -0.0446  2.0804 -0.8113
  250MOL0     H32989   6.329   9.660  10.911 -0.9010  1.5785 -0.8463
  250MOL0     H32990   5.975   9.885  10.785 -0.6398 -1.7849  1.9335
  250MOL0     H32991   6.108   9.830  10.678 -1.5259 -1.1889 -0.5120
  250MOL0     H32992   6.146   9.874  10.980 -0.8009 -0.3862 -1.1814
  250MOL0     H32993   6.279   9.874  10.869  0.1936  0.1715 -1.3056
  250MOL0     H32994   6.077  10.106  10.847  0.0163 -2.3845 -1.3509
  250MOL0     H32995   6.246  10.083  10.789 -1.5162 -2.9938 -2.3525
  250MOL0     H32996   6.195  10.230  11.016 -4.2659 -0.1213  0.4797
  250MOL0     H32997   6.139  10.081  11.084  1.6121  1.2202  2.6719
  250MOL0     H32998   6.578  10.068  11.055  0.3736 -0.1420 -1.0531
  250MOL0     H32999   6.007   9.520  10.652 -1.2325  0.0986 -0.7353
  250MOL0     H33000   6.157   9.341  10.576 -3.1873  3.0806 -0.5442
  251MOL0     O33001   5.082   1.905   5.742  0.1858 -0.0635  0.2130
  251MOL0     C33002   5.190   1.921   5.687  0.0093 -0.5504 -0.3443
  251MOL0     O33003   5.274   2.032   5.722  1.0421  0.0797 -0.5634
  251MOL0     C33004   5.224   2.134   5.801  0.0246  0.6347 -0.2102
  251MOL0     C33005   5.173   2.111   5.929  0.0031  0.5858  0.0458
  251MOL0     C33006   5.142   2.213   6.020  0.7638 -0.6044  0.4711
  251MOL0     C33007   5.146   2.351   5.980 -0.8071  0.5872  0.0823
  251MOL0     O33008   5.122   2.453   6.058 -0.5735  0.3599  0.1665
  251MOL0     C33009   5.028   2.431   6.168  0.1673 -0.3078 -0.2128
  251MOL0     C33010   4.975   2.571   6.209 -0.2884 -0.2106  0.2342
  251MOL0     C33011   4.885   2.570   6.329  0.2299  0.2842 -0.3940
  251MOL0     C33012   4.743   2.537   6.287 -0.2541 -0.0992  0.6537
  251MOL0     C33013   4.645   2.541   6.404 -0.5250  0.5239  0.4753
  251MOL0     C33014   4.511   2.478   6.369  0.6952 -1.1017  0.1590
  251MOL0     C33015   4.414   2.501   6.485 -0.0048  0.2915  0.0849
  251MOL0     C33016   4.285   2.420   6.485  0.0969  0.9297 -0.5440
  251MOL0     N33017   4.211   2.457   6.609 -0.1871 -0.5500  0.2978
  251MOL0     C33018   4.153   2.581   6.633  0.7330  0.2193  0.0473
  251MOL0     C33019   4.123   2.573   6.763 -0.2006 -0.8848  0.2696
  251MOL0     C33020   4.055   2.683   6.837 -0.3387 -0.3394 -0.6070
  251MOL0     C33021   3.899   2.674   6.837  0.1313  0.2018 -0.1697
  251MOL0     C33022   3.852   2.530   6.880 -0.7481 -0.0063  0.4745
  251MOL0     C33023   3.712   2.532   6.925  0.1445 -0.9230  0.0912
  251MOL0     O33024   3.623   2.608   6.844 -0.0525 -0.7811  0.3351
  251MOL0     C33025   3.492   2.641   6.886 -0.3841  0.0010  0.7227
  251MOL0     C33026   3.405   2.690   6.781 -0.7619 -0.3127  0.3166
  251MOL0     C33027   3.266   2.702   6.803 -0.3468 -1.0999 -1.1017
  251MOL0     C33028   3.215   2.677   6.928  0.1106 -0.0947  0.3042
  251MOL0     C33029   3.077   2.680   6.953 -0.3863 -0.2170  0.1949
  251MOL0     O33030   3.029   2.716   7.079 -0.1479 -0.2540 -0.0963
  251MOL0     C33031   2.896   2.698   7.108 -0.5957 -0.8288  0.2489
  251MOL0     C33032   2.798   2.763   7.036  0.1597 -0.7030 -0.2123
  251MOL0     C33033   2.664   2.745   7.057  0.6431 -0.0236  0.7810
  251MOL0     C33034   2.618   2.665   7.167  0.5346  0.0130 -1.1843
  251MOL0     O33035   2.485   2.643   7.191 -0.3764  0.1963 -0.3761
  251MOL0     C33036   2.426   2.648   7.323  0.5732 -0.1371  0.3496
  251MOL0     C33037   2.421   2.785   7.385  0.6730 -0.2482 -1.5238
  251MOL0     C33038   2.543   2.814   7.475 -0.5566  0.3211 -0.5759
  251MOL0     C33039   2.548   2.970   7.494  0.7000  0.4178 -0.6286
  251MOL0     C33040   2.433   3.028   7.585  1.0106 -0.3338 -0.2571
  251MOL0     C33041   2.474   3.157   7.653 -0.0534 -0.4953  0.7382
  251MOL0     C33042   2.572   3.138   7.768  0.0123 -0.2728  0.6387
  251MOL0     C33043   2.513   3.056   7.879  0.6580 -0.4067 -0.6421
  251MOL0    Cl33044   2.627   3.040   8.009  0.2468 -0.2383 -0.1193
  251MOL0     C33045   2.720   2.613   7.245  0.2334 -0.2630 -0.8683
  251MOL0     C33046   2.860   2.626   7.217  0.8977 -0.6643 -0.1535
  251MOL0     O33047   3.012   2.629   6.865  0.2638 -0.5872  0.0093
  251MOL0     C33048   3.300   2.641   7.032  0.5776  0.5050 -0.4272
  251MOL0     C33049   3.438   2.623   7.008  0.9781  0.8760 -0.5368
  251MOL0     N33050   4.166   2.454   6.820  0.1218  1.1347  0.1510
  251MOL0     N33051   4.214   2.386   6.726  0.3692 -0.3585  0.8533
  251MOL0     C33052   5.197   2.367   5.853 -0.3098 -0.3908  0.7127
  251MOL0     C33053   5.236   2.268   5.764  0.4286  1.5184 -0.1723
  251MOL0     C33054   5.244   1.832   5.583  0.5520  0.4702 -0.6800
  251MOL0     C33055   5.159   1.746   5.501  0.4142  0.9488  0.1850
  251MOL0     C33056   5.224   1.644   5.429  0.7325 -0.0617 -0.4455
  251MOL0     C33057   5.357   1.634   5.421  0.6184 -0.5676  0.4813
  251MOL0     O33058   5.422   1.539   5.351 -0.2557  0.3730 -0.5525
  251MOL0     C33059   5.363   1.462   5.250 -0.0154  0.1517 -0.5788
  251MOL0     C33060   5.473   1.384   5.192 -0.2572 -0.7513 -0.1306
  251MOL0     C33061   5.560   1.303   5.286 -0.3396  0.3403 -0.3866
  251MOL0     C33062   5.678   1.217   5.218 -0.7689  0.0414  0.5030
  251MOL0     C33063   5.765   1.307   5.141 -1.0095 -0.3731  0.1752
  251MOL0     C33064   5.835   1.380   5.065  0.2264 -0.0063 -0.0787
  251MOL0     C33065   5.438   1.729   5.482  0.4485 -0.4026 -0.5974
  251MOL0     C33066   5.384   1.833   5.559 -0.3124 -0.4367  0.6752
  251MOL0     H33067   5.171   2.004   5.948  0.7251  0.5747  0.0704
  251MOL0     H33068   5.120   2.170   6.117 -2.4755 -1.3530 -0.4497
  251MOL0     H33069   5.063   2.374   6.254  0.1955  0.0064 -0.0151
  251MOL0     H33070   4.952   2.367   6.123 -2.1448  2.4748 -0.5738
  251MOL0     H33071   4.916   2.606   6.123 -2.3474 -1.8924  0.8657
  251MOL0     H33072   5.064   2.630   6.231  0.7852 -1.0447 -1.5916
  251MOL0     H33073   4.884   2.672   6.370 -3.3262 -0.4834  1.8478
  251MOL0     H33074   4.941   2.508   6.401  1.1850  2.8167  1.1976
  251MOL0     H33075   4.717   2.621   6.222 -1.9662  0.4641  1.9972
  251MOL0     H33076   4.730   2.448   6.225 -1.6928  0.8776 -0.5304
  251MOL0     H33077   4.628   2.644   6.438  2.8399  0.9433  1.2811
  251MOL0     H33078   4.689   2.488   6.489  0.6795 -0.4346 -0.6985
  251MOL0     H33079   4.519   2.376   6.330  0.9059 -1.4167  1.0113
  251MOL0     H33080   4.468   2.540   6.290 -0.0096  0.1107  1.4622
  251MOL0     H33081   4.468   2.482   6.578 -0.9343  1.5924  0.9183
  251MOL0     H33082   4.383   2.606   6.490 -0.0842  0.2268  1.2721
  251MOL0     H33083   4.308   2.314   6.500  1.5663  1.2107 -0.6907
  251MOL0     H33084   4.222   2.425   6.396 -1.4261  1.6250  0.5111
  251MOL0     H33085   4.159   2.661   6.559  2.8059 -1.7269 -2.0859
  251MOL0     H33086   4.083   2.786   6.812 -1.4047  0.4570  1.2604
  251MOL0     H33087   4.100   2.673   6.936  1.1256  1.5033 -1.0253
  251MOL0     H33088   3.871   2.702   6.736  2.4053  2.6268 -0.2254
  251MOL0     H33089   3.860   2.740   6.915 -0.1314 -1.6346  1.3347
  251MOL0     H33090   3.867   2.474   6.787 -0.1915  1.6350 -0.4673
  251MOL0     H33091   3.912   2.488   6.961 -1.0016 -1.9762 -0.3035
  251MOL0     H33092   3.696   2.550   7.031  1.6616 -2.3888  0.6107
  251MOL0     H33093   3.682   2.427   6.929 -0.3784 -1.0946 -3.8705
  251MOL0     H33094   3.450   2.688   6.683 -0.5432 -1.5685  0.4189
  251MOL0     H33095   3.202   2.733   6.721 -1.0467 -0.1111 -0.2137
  251MOL0     H33096   2.828   2.827   6.954 -0.0198 -1.9222 -1.2573
  251MOL0     H33097   2.591   2.781   6.986 -0.4481  0.0092  1.8834
  251MOL0     H33098   2.457   2.572   7.396 -0.0361 -0.9844 -0.2572
  251MOL0     H33099   2.323   2.614   7.314  0.1703  1.0740  0.2276
  251MOL0     H33100   2.333   2.797   7.448  1.7448 -3.0459  0.7260
  251MOL0     H33101   2.425   2.844   7.293  2.4619  0.0960 -1.2714
  251MOL0     H33102   2.637   2.785   7.428 -0.0244 -1.1788  1.2992
  251MOL0     H33103   2.526   2.765   7.571 -2.4081 -0.1848 -1.1085
  251MOL0     H33104   2.647   3.000   7.530  0.3857  0.7996 -0.0782
  251MOL0     H33105   2.545   3.026   7.400 -3.2908 -1.1317 -1.6267
  251MOL0     H33106   2.388   2.956   7.655  1.1419 -2.2428 -2.0275
  251MOL0     H33107   2.349   3.044   7.517  0.4605 -0.6672  0.3279
  251MOL0     H33108   2.397   3.224   7.693  0.0404  0.0354  0.0404
  251MOL0     H33109   2.529   3.207   7.573 -0.0981 -0.4797  0.7172
  251MOL0     H33110   2.656   3.077   7.733  0.7581 -0.7913  3.1423
  251MOL0     H33111   2.610   3.236   7.797 -0.2672  0.1327 -0.3361
  251MOL0     H33112   2.480   2.958   7.842 -1.0285  0.9058 -2.8491
  251MOL0     H33113   2.433   3.105   7.936  2.8461  2.0314  0.5184
  251MOL0     H33114   2.700   2.548   7.329 -0.4121 -0.7006 -1.3563
  251MOL0     H33115   2.932   2.568   7.274  1.2671 -0.4325 -0.3760
  251MOL0     H33116   3.271   2.623   7.135 -0.4079  2.2161 -0.3724
  251MOL0     H33117   3.494   2.589   7.095  0.3407  2.7235  0.6638
  251MOL0     H33118   5.219   2.469   5.823  0.4991  0.5046  3.8890
  251MOL0     H33119   5.291   2.289   5.673  1.8481 -0.9935  0.0075
  251MOL0     H33120   5.051   1.741   5.493  0.5492  1.3649 -2.7437
  251MOL0     H33121   5.160   1.579   5.370  2.0658 -1.1441 -0.7350
  251MOL0     H33122   5.314   1.534   5.184  0.0136  0.8534  0.1602
  251MOL0     H33123   5.281   1.404   5.294 -0.3261  0.3367 -0.9107
  251MOL0     H33124   5.421   1.322   5.118  0.5287 -1.1245 -0.3781
  251MOL0     H33125   5.525   1.465   5.139 -3.4331  1.4185 -0.2500
  251MOL0     H33126   5.488   1.233   5.330 -0.3936 -0.1408 -1.2193
  251MOL0     H33127   5.609   1.373   5.354 -0.9550  0.2297  0.1806
  251MOL0     H33128   5.732   1.169   5.301 -0.3894  1.6753  1.2293
  251MOL0     H33129   5.646   1.141   5.146 -0.5090  0.3710  0.0411
  251MOL0     H33130   5.899   1.445   5.009  0.1659  1.9924  2.0198
  251MOL0     H33131   5.545   1.718   5.468  0.8583  2.8555 -0.6272
  251MOL0     H33132   5.445   1.907   5.609 -1.3261  1.2607 -0.4917
  252MOL0     O33133   5.921   5.943   0.196 -0.1849 -0.1237  0.4492
  252MOL0     C33134   6.001   6.033   0.198 -0.5999  0.1419 -0.1373
  252MOL0     O33135   5.972   6.160   0.239 -0.5668  0.4686  0.4706
  252MOL0     C33136   5.841   6.190   0.261 -0.1985  0.0723  0.4493
  252MOL0     C33137   5.790   6.205   0.388  0.2299  0.9311  1.0142
  252MOL0     C33138   5.656   6.238   0.408  0.5665 -0.2665  0.1840
  252MOL0     C33139   5.570   6.248   0.296 -0.7591 -0.7191  0.4684
  252MOL0     O33140   5.440   6.282   0.319  0.3041  0.0679 -0.4177
  252MOL0     C33141   5.413   6.411   0.279  0.2671 -0.0557  0.9306
  252MOL0     C33142   5.288   6.407   0.185 -0.2097  0.5378  0.1708
  252MOL0     C33143   5.167   6.402   0.268  0.8555  0.7411  0.5560
  252MOL0     C33144   5.044   6.459   0.203  0.1753 -0.0003  0.2645
  252MOL0     C33145   4.928   6.443   0.303  0.6417  0.1895 -0.0366
  252MOL0     C33146   4.802   6.503   0.230  0.1993 -0.1412 -0.3463
  252MOL0     C33147   4.664   6.468   0.304  0.1980  0.0732 -0.7313
  252MOL0     C33148   4.546   6.524   0.230 -0.2262  0.3196 -0.3876
  252MOL0     N33149   4.415   6.516   0.280  0.2228 -0.5124  0.4399
  252MOL0     C33150   4.304   6.581   0.223  0.3915  0.1446 -0.7447
  252MOL0     C33151   4.194   6.530   0.288 -0.5488 -0.5466 -0.1281
  252MOL0     C33152   4.044   6.550   0.286 -0.1396 -0.3559  0.6178
  252MOL0     C33153   3.985   6.519   0.154  1.4267 -0.0363 -0.3018
  252MOL0     C33154   3.824   6.543   0.149  0.3335 -1.0753  1.0044
  252MOL0     C33155   3.789   6.690   0.162  0.4476  0.2759 -0.4606
  252MOL0     O33156   3.652   6.717   0.158 -0.4018 -0.4617 -0.2039
  252MOL0     C33157   3.562   6.667   0.249 -0.1737 -0.4573 -0.4686
  252MOL0     C33158   3.425   6.669   0.221 -0.4315 -0.5751 -1.1225
  252MOL0     C33159   3.334   6.618   0.314 -0.9998 -0.1209 -0.2598
  252MOL0     C33160   3.373   6.548   0.425 -0.4960  0.0173 -0.0410
  252MOL0     C33161   3.275   6.478   0.516  0.2401  0.0836  0.6969
  252MOL0     O33162   3.149   6.506   0.487 -0.0741 -0.1133 -0.4983
  252MOL0     C33163   3.035   6.451   0.534  0.2019  0.5029  0.0380
  252MOL0     C33164   3.022   6.340   0.615 -0.2973  0.3272 -0.2011
  252MOL0     C33165   2.902   6.315   0.678 -0.1192  0.0101 -0.2050
  252MOL0     C33166   2.788   6.387   0.655  0.9299  0.5197 -0.1469
  252MOL0     O33167   2.672   6.342   0.719 -0.1619  0.5627 -0.6747
  252MOL0     C33168   2.548   6.410   0.701 -0.4715 -0.8549 -0.1500
  252MOL0     C33169   2.530   6.545   0.772 -0.2876  0.3100  0.8591
  252MOL0     C33170   2.381   6.582   0.753 -0.1990 -0.4472  0.0099
  252MOL0     C33171   2.322   6.658   0.882  0.4284  0.6233  0.5209
  252MOL0     C33172   2.184   6.598   0.914 -0.5979  0.1427  0.6548
  252MOL0     C33173   2.079   6.658   0.820 -0.6534  1.2160  0.0168
  252MOL0     C33174   1.941   6.628   0.876 -0.1297 -0.0786 -0.3107
  252MOL0     C33175   1.905   6.485   0.829  0.0812  0.0329  0.3516
  252MOL0    Cl33176   1.730   6.455   0.824  0.0683  0.1991 -0.4194
  252MOL0     C33177   2.796   6.489   0.564  0.8863 -0.8987 -1.1036
  252MOL0     C33178   2.914   6.531   0.507  0.0512  0.3422  0.1686
  252MOL0     O33179   3.318   6.402   0.604  0.3313  1.0457 -0.2727
  252MOL0     C33180   3.509   6.537   0.449  0.1218 -0.0841 -0.1199
  252MOL0     C33181   3.596   6.609   0.371 -0.5899  0.6859  0.6963
  252MOL0     N33182   4.238   6.428   0.370 -0.1737  0.1234  0.2129
  252MOL0     N33183   4.373   6.430   0.372 -0.4219  0.3247 -0.3514
  252MOL0     C33184   5.622   6.229   0.170  0.0460 -0.2597  1.0294
  252MOL0     C33185   5.757   6.197   0.149  0.1335 -0.4429 -0.5240
  252MOL0     C33186   6.149   6.010   0.162 -0.1717  0.5635  0.7876
  252MOL0     C33187   6.191   5.876   0.133  0.4032  0.0670  0.5781
  252MOL0     C33188   6.318   5.860   0.076  0.4575  0.4962 -0.2643
  252MOL0     C33189   6.389   5.969   0.030 -0.5186  0.1733 -0.5828
  252MOL0     O33190   6.509   5.947  -0.042  0.0427  0.0802 -0.6691
  252MOL0     C33191   6.499   6.011  -0.175  0.5700  0.5974 -0.0908
  252MOL0     C33192   6.583   5.939  -0.275  0.0668 -0.2170  0.5736
  252MOL0     C33193   6.544   5.971  -0.415  0.2701 -0.6405 -0.7496
  252MOL0     C33194   6.575   6.117  -0.442  1.2008  0.5763 -0.1786
  252MOL0     C33195   6.485   6.139  -0.558 -0.6300 -0.1936  0.1814
  252MOL0     C33196   6.433   6.134  -0.669 -0.1239  0.8091  0.5947
  252MOL0     C33197   6.353   6.099   0.059  0.8259 -0.4140  0.2262
  252MOL0     C33198   6.231   6.118   0.129  0.2416 -0.1224 -0.6835
  252MOL0     H33199   5.849   6.166   0.470  1.8710  2.3990  0.6053
  252MOL0     H33200   5.611   6.255   0.505  0.5910 -0.9611  0.3250
  252MOL0     H33201   5.491   6.453   0.215 -1.0958 -1.4284 -1.8112
  252MOL0     H33202   5.405   6.469   0.371  0.9793 -0.2801  1.1410
  252MOL0     H33203   5.304   6.325   0.115  2.1780  2.6944 -2.0054
  252MOL0     H33204   5.278   6.491   0.115 -2.5568 -2.9581 -4.2114
  252MOL0     H33205   5.177   6.455   0.363  1.0303  0.0653  0.9208
  252MOL0     H33206   5.149   6.297   0.292 -1.4768  1.4683  2.3622
  252MOL0     H33207   5.056   6.567   0.189  2.8874 -0.3112 -0.4451
  252MOL0     H33208   5.034   6.415   0.103  2.2379  0.0557 -0.0212
  252MOL0     H33209   4.948   6.492   0.399 -1.2474  0.1149  0.4433
  252MOL0     H33210   4.912   6.337   0.322 -0.4635  0.3621  0.0555
  252MOL0     H33211   4.796   6.464   0.128 -1.0974 -0.1474 -0.2881
  252MOL0     H33212   4.823   6.610   0.231 -1.6630  0.2808 -1.1321
  252MOL0     H33213   4.667   6.359   0.311  2.7256  0.1740  1.7719
  252MOL0     H33214   4.656   6.518   0.401 -1.1325 -3.0526  0.9048
  252MOL0     H33215   4.544   6.490   0.126  2.6818  1.1207 -0.7960
  252MOL0     H33216   4.568   6.630   0.218  1.9712  0.0502  0.8014
  252MOL0     H33217   4.316   6.675   0.170 -1.9727  0.7427 -0.3041
  252MOL0     H33218   4.028   6.654   0.315  1.6841  0.0309  0.3891
  252MOL0     H33219   4.005   6.490   0.368  1.2091  0.0537  1.5960
  252MOL0     H33220   3.995   6.411   0.149  2.0050  0.0072 -0.1641
  252MOL0     H33221   4.029   6.572   0.068 -0.2026 -1.1754 -1.9042
  252MOL0     H33222   3.789   6.519   0.048 -0.4909  0.4292  0.9054
  252MOL0     H33223   3.767   6.472   0.210  0.5658 -4.4184 -2.3620
  252MOL0     H33224   3.841   6.741   0.080  1.0759 -1.9222 -1.5027
  252MOL0     H33225   3.820   6.736   0.256 -3.0129  1.7730  0.0897
  252MOL0     H33226   3.375   6.700   0.130  0.2091  0.1435 -1.2407
  252MOL0     H33227   3.228   6.629   0.294 -1.6107 -2.4243  1.3658
  252MOL0     H33228   3.106   6.276   0.642 -2.2897 -1.2049  3.0692
  252MOL0     H33229   2.901   6.228   0.742 -0.1751  0.1092 -0.0709
  252MOL0     H33230   2.466   6.350   0.742 -3.6578  3.6619  0.8727
  252MOL0     H33231   2.526   6.430   0.595  3.2244 -0.1775 -0.9221
  252MOL0     H33232   2.581   6.626   0.720  1.7896  0.0591  2.3598
  252MOL0     H33233   2.566   6.535   0.875  1.1027 -0.4893  0.3300
  252MOL0     H33234   2.312   6.499   0.737 -1.6644  0.5144  1.0271
  252MOL0     H33235   2.364   6.656   0.674 -0.2864  0.9039  1.2513
  252MOL0     H33236   2.390   6.631   0.964  0.2537 -1.9842 -0.0873
  252MOL0     H33237   2.321   6.766   0.865  1.0806  0.1677 -3.1591
  252MOL0     H33238   2.157   6.612   1.019  0.8484  1.1565  0.9195
  252MOL0     H33239   2.186   6.488   0.910  0.1899  0.1155  1.4250
  252MOL0     H33240   2.084   6.620   0.718 -3.8849  0.9755 -0.1395
  252MOL0     H33241   2.093   6.766   0.812 -0.2984  1.0464 -1.9496
  252MOL0     H33242   1.930   6.641   0.984 -0.6225  1.1479 -0.4945
  252MOL0     H33243   1.873   6.697   0.825 -0.1139  0.4712  0.3963
  252MOL0     H33244   1.962   6.411   0.886 -0.1266  1.2399  2.2459
  252MOL0     H33245   1.932   6.464   0.725  0.6954 -1.0263  0.7070
  252MOL0     H33246   2.708   6.552   0.553  1.8645  1.9025  3.9654
  252MOL0     H33247   2.927   6.626   0.458 -1.0042 -0.2876 -1.4200
  252MOL0     H33248   3.551   6.486   0.536  0.2133  1.7071  0.9416
  252MOL0     H33249   3.697   6.604   0.409 -0.5972 -1.8858  0.5620
  252MOL0     H33250   5.557   6.231   0.082  2.4171  0.0805 -0.8282
  252MOL0     H33251   5.786   6.174   0.047  2.7644 -0.6082  0.2046
  252MOL0     H33252   6.119   5.797   0.151 -1.6141  1.0414 -2.3048
  252MOL0     H33253   6.356   5.761   0.053  4.4169  1.7464  0.0828
  252MOL0     H33254   6.544   6.110  -0.169  0.4565  0.5906  0.8928
  252MOL0     H33255   6.397   6.031  -0.209 -0.2963 -3.8288 -0.7614
  252MOL0     H33256   6.687   5.971  -0.265  0.0211  0.4967 -1.0696
  252MOL0     H33257   6.576   5.830  -0.260 -0.2722 -0.3118 -0.2316
  252MOL0     H33258   6.438   5.946  -0.420 -0.1002 -0.1939  2.4097
  252MOL0     H33259   6.601   5.908  -0.483  0.1760 -3.3449  1.5046
  252MOL0     H33260   6.543   6.183  -0.361 -2.3752  1.1470 -1.8732
  252MOL0     H33261   6.682   6.124  -0.465  1.5102 -0.9995  0.6498
  252MOL0     H33262   6.392   6.132  -0.768  0.6084 -1.6642  0.2529
  252MOL0     H33263   6.419   6.183   0.040 -2.1748  2.2547  0.6511
  252MOL0     H33264   6.217   6.216   0.173 -3.5747 -1.4931  1.7028
  253MOL0     O33265   4.157   8.936   7.557 -0.5562 -0.9514 -0.4652
  253MOL0     C33266   4.244   8.932   7.645  0.7349  0.1511 -0.4745
  253MOL0     O33267   4.222   8.952   7.779 -0.6890  0.2226  0.6450
  253MOL0     C33268   4.101   8.976   7.829  0.5546  0.0961  0.2797
  253MOL0     C33269   4.089   9.069   7.932  0.4344 -0.4163  1.1035
  253MOL0     C33270   3.965   9.076   8.001 -0.0972 -0.1557 -0.1798
  253MOL0     C33271   3.853   8.992   7.966  0.8441  0.2152  0.3348
  253MOL0     O33272   3.731   9.007   8.026 -0.5095 -0.3443  0.4567
  253MOL0     C33273   3.620   8.925   7.975  0.1107  0.3303 -0.7061
  253MOL0     C33274   3.495   8.968   8.041 -0.4222  0.0717 -0.0377
  253MOL0     C33275   3.407   8.842   8.038 -0.0142 -0.6851 -0.3078
  253MOL0     C33276   3.278   8.874   8.112  0.5915 -0.0409 -0.3358
  253MOL0     C33277   3.207   8.739   8.146 -0.2780 -0.5972 -0.6653
  253MOL0     C33278   3.071   8.736   8.202  0.5984  0.2024 -0.2091
  253MOL0     C33279   3.035   8.597   8.256  0.8040  0.6843 -0.5427
  253MOL0     C33280   2.895   8.609   8.306  0.0998 -0.6184  0.2493
  253MOL0     N33281   2.841   8.476   8.315 -0.3389  0.3387 -0.0569
  253MOL0     C33282   2.861   8.387   8.410  0.3836 -0.2442 -0.7880
  253MOL0     C33283   2.800   8.274   8.364  1.5010 -0.2460  0.0332
  253MOL0     C33284   2.803   8.139   8.428  0.5468  0.9232  0.1830
  253MOL0     C33285   2.678   8.116   8.503 -0.3045  0.5949  0.3825
  253MOL0     C33286   2.678   7.979   8.570 -0.4224 -0.2413  0.1475
  253MOL0     C33287   2.602   7.873   8.494 -0.0036  0.3398  0.8132
  253MOL0     O33288   2.470   7.915   8.458 -0.4360  0.1953 -0.0402
  253MOL0     C33289   2.378   7.879   8.553 -0.5062  0.1966  0.0469
  253MOL0     C33290   2.345   7.967   8.656 -0.5755 -0.1740  1.0411
  253MOL0     C33291   2.257   7.935   8.766 -0.2819 -0.5203 -0.2118
  253MOL0     C33292   2.214   7.797   8.775  1.1593 -0.1890 -0.8598
  253MOL0     C33293   2.135   7.738   8.884 -0.9867 -0.9883 -0.9879
  253MOL0     O33294   2.128   7.599   8.877 -0.3280 -0.2808  0.7014
  253MOL0     C33295   2.066   7.535   8.982  0.0655  0.4823 -0.7803
  253MOL0     C33296   1.935   7.557   9.015 -0.2791  0.1730 -0.0853
  253MOL0     C33297   1.865   7.477   9.106  0.1084 -0.4307  0.0456
  253MOL0     C33298   1.928   7.380   9.187  0.1684 -0.2734 -0.2745
  253MOL0     O33299   1.876   7.320   9.296 -0.7131  0.0512 -0.0603
  253MOL0     C33300   1.878   7.393   9.416  0.5037  0.2678  0.5482
  253MOL0     C33301   1.814   7.303   9.524  0.0332 -0.0623 -0.2095
  253MOL0     C33302   1.907   7.179   9.552  0.3427 -0.0225  0.1909
  253MOL0     C33303   2.057   7.206   9.549  0.3337  0.3592 -0.5612
  253MOL0     C33304   2.128   7.085   9.606 -1.0023 -0.6527 -0.7921
  253MOL0     C33305   2.263   7.117   9.662 -0.1322  0.2721  0.2074
  253MOL0     C33306   2.333   6.978   9.688 -0.0410 -0.3985 -0.5035
  253MOL0     C33307   2.476   7.002   9.747 -0.6697  0.0509 -0.1623
  253MOL0    Cl33308   2.469   7.114   9.885 -0.1135 -0.0706  0.1738
  253MOL0     C33309   2.066   7.372   9.161  0.3974 -0.0477 -0.2693
  253MOL0     C33310   2.132   7.441   9.055 -0.4752  0.1467 -0.5740
  253MOL0     O33311   2.073   7.815   8.958  0.9683  0.0485  0.4942
  253MOL0     C33312   2.250   7.717   8.668 -0.4306  1.0677 -0.3370
  253MOL0     C33313   2.340   7.747   8.562  0.2690 -0.1257 -1.0899
  253MOL0     N33314   2.746   8.292   8.239  0.4765 -0.7724 -1.0459
  253MOL0     N33315   2.771   8.419   8.207 -0.1553 -1.4083 -0.6102
  253MOL0     C33316   3.878   8.902   7.860 -0.2168  0.8617  0.1042
  253MOL0     C33317   3.995   8.895   7.799  0.3166 -0.1316 -0.3362
  253MOL0     C33318   4.384   8.893   7.600  0.7488 -0.5149 -0.9162
  253MOL0     C33319   4.410   8.870   7.469  0.0995  0.5818 -0.2345
  253MOL0     C33320   4.537   8.842   7.423 -0.3354 -1.0618 -0.8757
  253MOL0     C33321   4.640   8.840   7.507  0.4097  0.1442  0.1218
  253MOL0     O33322   4.767   8.796   7.463 -0.1040  0.4181  0.0125
  253MOL0     C33323   4.880   8.775   7.551  0.3648  0.7609 -0.0896
  253MOL0     C33324   5.002   8.718   7.486  0.0054 -0.4424  0.2908
  253MOL0     C33325   5.044   8.832   7.390  0.6626 -0.2479  0.3836
  253MOL0     C33326   5.196   8.815   7.366 -0.5692  0.1013  0.0270
  253MOL0     C33327   5.284   8.891   7.467  0.9007 -0.1979  0.1171
  253MOL0     C33328   5.354   8.953   7.543  0.5758 -0.2558 -0.4042
  253MOL0     C33329   4.618   8.870   7.642  0.0603 -0.4910 -0.1672
  253MOL0     C33330   4.490   8.895   7.684  0.6522 -0.7770 -0.0245
  253MOL0     H33331   4.173   9.136   7.945 -2.0393  3.1128  0.4367
  253MOL0     H33332   3.957   9.156   8.074  0.7565  1.3416 -1.6749
  253MOL0     H33333   3.644   8.822   8.003 -1.3721  0.1865  0.1017
  253MOL0     H33334   3.595   8.927   7.868  0.1272  1.4910 -0.7033
  253MOL0     H33335   3.453   9.055   7.989  0.0115  0.9656  1.0671
  253MOL0     H33336   3.520   8.998   8.143 -0.5314 -0.3412  0.1121
  253MOL0     H33337   3.460   8.758   8.085  2.5444 -0.7916 -3.0726
  253MOL0     H33338   3.364   8.805   7.945 -2.8358  3.0249 -0.6765
  253MOL0     H33339   3.303   8.930   8.203  2.2656 -0.0595 -0.7399
  253MOL0     H33340   3.213   8.936   8.050 -1.5136 -0.0136  1.7529
  253MOL0     H33341   3.272   8.677   8.209 -1.4722 -1.7981 -0.5663
  253MOL0     H33342   3.195   8.683   8.053 -0.7879 -0.3097 -0.7769
  253MOL0     H33343   2.989   8.772   8.138 -1.0047 -0.9228  1.1141
  253MOL0     H33344   3.067   8.811   8.282 -2.4493 -0.0997  0.0597
  253MOL0     H33345   3.028   8.521   8.177 -0.7800  1.6204 -1.3610
  253MOL0     H33346   3.099   8.569   8.339  1.4235  1.7060 -0.6648
  253MOL0     H33347   2.836   8.673   8.240  1.1170 -0.6396 -0.7095
  253MOL0     H33348   2.900   8.647   8.408  3.7731 -0.1865  0.0163
  253MOL0     H33349   2.911   8.382   8.506 -3.1185  0.8411  1.2700
  253MOL0     H33350   2.895   8.138   8.488  0.3426 -0.2384  0.4993
  253MOL0     H33351   2.808   8.060   8.353  0.8391  3.4402 -2.6047
  253MOL0     H33352   2.597   8.133   8.432  0.4440 -4.3478 -2.1577
  253MOL0     H33353   2.681   8.185   8.588  3.1171 -0.9843  1.7618
  253MOL0     H33354   2.779   7.950   8.598 -0.0419  2.2007  1.6224
  253MOL0     H33355   2.626   8.007   8.663  1.2255  1.3980  0.6336
  253MOL0     H33356   2.612   7.781   8.553  0.1763  2.1366  3.7530
  253MOL0     H33357   2.649   7.863   8.395 -0.8818 -0.1700  0.4359
  253MOL0     H33358   2.369   8.070   8.636  0.5248 -0.9891 -2.4202
  253MOL0     H33359   2.224   8.003   8.844  1.4822  3.1089 -2.3625
  253MOL0     H33360   1.873   7.630   8.964  2.3126  1.0922 -2.1561
  253MOL0     H33361   1.760   7.502   9.117 -0.0675 -1.9653  2.6818
  253MOL0     H33362   1.813   7.479   9.392  0.4897  0.0503 -0.2056
  253MOL0     H33363   1.970   7.440   9.451 -1.2942  2.8939  2.1484
  253MOL0     H33364   1.713   7.277   9.491 -0.5063  2.0284 -0.3878
  253MOL0     H33365   1.796   7.361   9.615 -0.7338  1.7138 -1.4364
  253MOL0     H33366   1.895   7.104   9.473  0.5733 -0.4046  0.5145
  253MOL0     H33367   1.872   7.139   9.649  0.1993  0.7209  0.4496
  253MOL0     H33368   2.089   7.220   9.445 -2.5018  2.7563 -1.2605
  253MOL0     H33369   2.075   7.300   9.601  1.3712  0.2974 -0.7922
  253MOL0     H33370   2.137   7.013   9.524 -1.7383 -0.6545 -0.8723
  253MOL0     H33371   2.059   7.040   9.678  0.2160 -0.3732  0.5995
  253MOL0     H33372   2.237   7.168   9.755  1.0402  0.7452  0.2892
  253MOL0     H33373   2.315   7.179   9.589 -2.2189 -1.7317 -3.2764
  253MOL0     H33374   2.284   6.919   9.766  0.0560  1.0866  0.7361
  253MOL0     H33375   2.343   6.929   9.591  1.4008  1.6426 -1.4647
  253MOL0     H33376   2.534   7.060   9.676  1.6218  0.2936  1.7878
  253MOL0     H33377   2.529   6.911   9.777 -0.1017  0.6804  0.8007
  253MOL0     H33378   2.128   7.302   9.216  1.4481  0.2076 -1.0900
  253MOL0     H33379   2.236   7.417   9.037 -0.1108  1.7461 -0.6962
  253MOL0     H33380   2.224   7.612   8.663 -0.8179  1.0624  1.2430
  253MOL0     H33381   2.368   7.674   8.487  0.0405 -0.0626 -1.2379
  253MOL0     H33382   3.809   8.828   7.822  0.5599 -1.9453  3.6762
  253MOL0     H33383   4.009   8.822   7.719  0.0569 -0.7898  0.2038
  253MOL0     H33384   4.335   8.866   7.390  3.1859  0.5210 -3.4121
  253MOL0     H33385   4.552   8.812   7.319  0.5299  0.1474 -1.1200
  253MOL0     H33386   4.860   8.704   7.631  1.0866  3.9303  3.1668
  253MOL0     H33387   4.913   8.866   7.601  1.5693  0.9921 -1.2346
  253MOL0     H33388   5.084   8.688   7.551 -2.8402 -3.1728  2.9845
  253MOL0     H33389   4.979   8.634   7.420 -0.2083  0.5686 -0.9657
  253MOL0     H33390   5.012   8.928   7.432 -1.1101 -0.5288 -0.2317
  253MOL0     H33391   4.995   8.814   7.294 -0.6857  3.5565  0.2100
  253MOL0     H33392   5.233   8.712   7.367  0.3163  0.4168  0.4693
  253MOL0     H33393   5.216   8.859   7.268 -1.0665  1.6161  0.5768
  253MOL0     H33394   5.410   9.012   7.613 -1.9847  0.2204  1.3926
  253MOL0     H33395   4.700   8.863   7.713 -0.6985  1.3677  0.9602
  253MOL0     H33396   4.475   8.885   7.791 -0.1608 -3.4561 -0.3201
  254MOL0     O33397   2.578   5.573   3.882 -0.2876 -0.0200 -0.4943
  254MOL0     C33398   2.490   5.582   3.796  0.1171  0.5059 -0.8205
  254MOL0     O33399   2.377   5.494   3.776  0.7690 -0.2291 -0.6894
  254MOL0     C33400   2.376   5.386   3.853  0.1543  0.7266 -0.9493
  254MOL0     C33401   2.395   5.253   3.808 -0.7899  0.4458 -0.6294
  254MOL0     C33402   2.380   5.137   3.886  0.0414 -0.3620  0.2761
  254MOL0     C33403   2.342   5.151   4.024  0.1882 -0.6943  0.2444
  254MOL0     O33404   2.315   5.030   4.091  1.0299  0.2945  0.7724
  254MOL0     C33405   2.345   5.033   4.237 -0.2636  0.2175  0.6854
  254MOL0     C33406   2.266   4.929   4.305 -0.1259  0.4702  0.4665
  254MOL0     C33407   2.109   4.932   4.269  0.5185 -0.1786 -0.5886
  254MOL0     C33408   2.039   4.809   4.336 -0.7783  0.0547  0.2044
  254MOL0     C33409   1.887   4.817   4.357  0.9362 -0.0414 -0.2339
  254MOL0     C33410   1.826   4.825   4.213  0.2437 -0.4089  0.4097
  254MOL0     C33411   1.780   4.964   4.158  0.0589  0.3120  0.0786
  254MOL0     C33412   1.724   5.043   4.277  0.3903 -0.2101 -0.1179
  254MOL0     N33413   1.613   5.129   4.236  0.2058  0.1340 -0.2606
  254MOL0     C33414   1.488   5.092   4.186 -0.5485  0.8529  0.4726
  254MOL0     C33415   1.424   5.204   4.157  0.4075  0.7539 -0.3468
  254MOL0     C33416   1.290   5.205   4.087 -0.7337 -0.3703 -0.1974
  254MOL0     C33417   1.188   5.112   4.147  0.8631  0.6091 -0.0335
  254MOL0     C33418   1.055   5.128   4.079  0.2766 -1.0877 -0.5395
  254MOL0     C33419   0.949   5.032   4.132  0.6973 -0.4750 -0.5249
  254MOL0     O33420   0.835   5.042   4.040 -0.7887  0.5043  0.6713
  254MOL0     C33421   0.709   5.015   4.089  0.0021 -0.1369  0.2840
  254MOL0     C33422   0.665   4.974   4.214 -0.2371 -0.5430 -0.5561
  254MOL0     C33423   0.532   4.948   4.243  0.3297  0.5315  0.0139
  254MOL0     C33424   0.437   4.971   4.142  0.3242  0.1300  0.5084
  254MOL0     C33425   0.290   4.945   4.160 -0.3211  0.6194  0.5056
  254MOL0     O33426   0.205   4.955   4.051 -0.3224  0.1004  0.8447
  254MOL0     C33427   0.067   4.954   4.048  0.4351 -0.1826  0.1031
  254MOL0     C33428  -0.011   4.907   3.943  0.2510 -0.6914  0.0487
  254MOL0     C33429  -0.144   4.939   3.939 -0.2533  0.2943  1.3814
  254MOL0     C33430  -0.207   5.002   4.043  0.6226  0.1561 -0.5094
  254MOL0     O33431  -0.341   5.031   4.052 -0.4294 -0.1432  0.8043
  254MOL0     C33432  -0.439   4.931   4.012 -0.3622  0.5266 -0.2725
  254MOL0     C33433  -0.558   4.956   4.107 -0.4657  0.3402 -0.1125
  254MOL0     C33434  -0.679   4.875   4.059 -0.5304  0.8709  0.4158
  254MOL0     C33435  -0.807   4.949   4.089  0.3371  1.2808 -0.1872
  254MOL0     C33436  -0.940   4.904   4.022  0.1764  0.0699 -0.0103
  254MOL0     C33437  -0.921   4.840   3.883  0.2835 -0.2673  1.2028
  254MOL0     C33438  -0.862   4.937   3.783 -0.8119 -0.1113  0.5370
  254MOL0     C33439  -0.810   4.882   3.649 -0.0743  0.7293 -0.7137
  254MOL0    Cl33440  -0.652   4.805   3.683 -0.3364  0.5328 -0.1221
  254MOL0     C33441  -0.128   5.045   4.147 -0.4227 -0.5313  0.1312
  254MOL0     C33442   0.007   5.019   4.150  0.4093 -0.6197 -0.1384
  254MOL0     O33443   0.257   4.903   4.269 -0.6668 -0.9824 -0.1554
  254MOL0     C33444   0.483   5.014   4.014 -0.0822 -0.4922  0.5279
  254MOL0     C33445   0.618   5.021   3.983  0.6859 -0.1612  1.0440
  254MOL0     N33446   1.516   5.309   4.179  0.5078 -0.1353  0.1742
  254MOL0     N33447   1.625   5.265   4.232  0.0387 -0.3506 -0.3507
  254MOL0     C33448   2.313   5.284   4.072 -0.0066 -0.0799  0.7497
  254MOL0     C33449   2.328   5.403   3.984  0.2971  0.2538  0.6389
  254MOL0     C33450   2.504   5.695   3.694  0.4605 -0.5202  0.6186
  254MOL0     C33451   2.574   5.808   3.722 -0.0525 -0.2508 -0.0264
  254MOL0     C33452   2.595   5.914   3.636 -0.8859  0.2103 -0.0136
  254MOL0     C33453   2.539   5.905   3.505 -0.3252  0.7345 -0.2907
  254MOL0     O33454   2.543   6.009   3.415  0.3271 -0.1488  0.1658
  254MOL0     C33455   2.664   6.079   3.405 -0.2223 -0.8694 -1.6475
  254MOL0     C33456   2.792   6.002   3.371 -0.1598  0.3945  0.0781
  254MOL0     C33457   2.832   6.013   3.222  0.4064 -0.7878  0.4131
  254MOL0     C33458   2.964   5.938   3.195  0.3045  0.3248  0.3491
  254MOL0     C33459   3.081   5.987   3.269  0.2389 -0.2415  1.3557
  254MOL0     C33460   3.175   6.028   3.330  0.1087  0.9775  0.3298
  254MOL0     C33461   2.456   5.802   3.480  0.1285  0.7796 -1.3667
  254MOL0     C33462   2.445   5.691   3.564  0.3391  0.3263 -0.5035
  254MOL0     H33463   2.416   5.232   3.703 -1.5942  0.9642 -0.9048
  254MOL0     H33464   2.399   5.041   3.839 -0.2466 -0.0358 -0.5360
  254MOL0     H33465   2.327   5.132   4.279 -1.8861  1.1744 -1.9886
  254MOL0     H33466   2.448   4.996   4.249 -0.8042 -1.7971 -0.3130
  254MOL0     H33467   2.273   4.924   4.414 -2.4411 -5.6732  0.7905
  254MOL0     H33468   2.299   4.833   4.263 -2.2553  0.3310 -1.0107
  254MOL0     H33469   2.104   4.910   4.162  0.0270 -0.2621 -0.5499
  254MOL0     H33470   2.059   5.027   4.291 -0.8242 -0.7538 -1.0703
  254MOL0     H33471   2.062   4.718   4.281  1.2155 -1.5068  3.3240
  254MOL0     H33472   2.089   4.793   4.432  2.5025  2.2660 -1.0046
  254MOL0     H33473   1.845   4.897   4.419 -2.0127 -1.5071 -0.1717
  254MOL0     H33474   1.851   4.720   4.392  0.3165 -0.4486 -1.9187
  254MOL0     H33475   1.731   4.774   4.200 -0.3047  1.0250 -1.7169
  254MOL0     H33476   1.890   4.780   4.136 -0.7214  2.9083 -2.6600
  254MOL0     H33477   1.868   5.022   4.128 -0.4005  1.2221  0.4342
  254MOL0     H33478   1.708   4.960   4.075  1.5001  5.4261 -1.8339
  254MOL0     H33479   1.797   5.104   4.331 -1.9230 -0.3111  3.4334
  254MOL0     H33480   1.667   4.970   4.335 -0.7861 -1.1527 -2.3038
  254MOL0     H33481   1.463   4.988   4.167  2.9696  0.2461 -1.8312
  254MOL0     H33482   1.299   5.173   3.983  2.4003 -0.5007  0.0158
  254MOL0     H33483   1.250   5.307   4.080 -2.4749 -0.9833  0.5372
  254MOL0     H33484   1.178   5.121   4.256  2.2192  1.4888  0.0435
  254MOL0     H33485   1.219   5.009   4.127  0.0011  0.3892 -0.2952
  254MOL0     H33486   1.030   5.234   4.085 -0.9798 -1.3868 -0.1403
  254MOL0     H33487   1.075   5.110   3.973 -1.9251  2.9551 -1.8619
  254MOL0     H33488   0.924   5.070   4.232  0.6218 -0.9988 -0.3378
  254MOL0     H33489   0.985   4.930   4.146 -1.4659 -0.9996  2.3159
  254MOL0     H33490   0.732   4.963   4.298 -2.4009 -0.3320  1.2786
  254MOL0     H33491   0.505   4.919   4.344  0.2635  1.2735  0.2140
  254MOL0     H33492   0.043   4.867   3.857 -2.4791 -1.7409 -1.3004
  254MOL0     H33493  -0.204   4.897   3.858 -1.4696  1.2512  1.7537
  254MOL0     H33494  -0.393   4.835   4.040 -0.6349 -0.0276 -1.6698
  254MOL0     H33495  -0.468   4.933   3.907 -1.3339  2.5920 -0.0125
  254MOL0     H33496  -0.584   5.062   4.117  1.9002  0.7623  2.8537
  254MOL0     H33497  -0.529   4.925   4.207  0.1148 -1.2254 -0.7266
  254MOL0     H33498  -0.675   4.779   4.111  0.1025  0.8111  0.2725
  254MOL0     H33499  -0.669   4.853   3.952  0.3603  0.8794  0.4875
  254MOL0     H33500  -0.813   4.951   4.198  3.2461 -2.4274  0.2581
  254MOL0     H33501  -0.788   5.051   4.055  3.0909  0.9634  0.1501
  254MOL0     H33502  -1.011   4.988   4.017  0.9898  0.8488  1.0673
  254MOL0     H33503  -0.989   4.834   4.090 -0.8529  0.8004  0.0395
  254MOL0     H33504  -1.012   4.798   3.839  0.2329 -0.5969  1.6163
  254MOL0     H33505  -0.854   4.754   3.886 -2.1717 -2.3223  1.6925
  254MOL0     H33506  -0.933   5.019   3.769 -0.5292  0.3997  1.8922
  254MOL0     H33507  -0.777   4.990   3.827 -0.0830 -1.8153  1.2688
  254MOL0     H33508  -0.786   4.962   3.577  0.5033 -0.3225 -1.7219
  254MOL0     H33509  -0.877   4.809   3.604 -1.3726  1.9173 -0.7748
  254MOL0     H33510  -0.179   5.093   4.230 -1.9757 -0.8704 -0.5860
  254MOL0     H33511   0.069   5.066   4.226 -2.6306 -0.1101  2.2371
  254MOL0     H33512   0.412   5.039   3.936  0.3139  2.9349  1.1073
  254MOL0     H33513   0.651   5.029   3.880  0.8333 -0.8982  1.0297
  254MOL0     H33514   2.283   5.300   4.175 -2.0665 -2.6563  0.6548
  254MOL0     H33515   2.315   5.505   4.020  0.0355  1.7177 -3.1396
  254MOL0     H33516   2.632   5.802   3.814  0.6164  2.6384 -0.1598
  254MOL0     H33517   2.672   5.985   3.663 -1.1267 -0.6265  3.2423
  254MOL0     H33518   2.675   6.114   3.507  1.7583 -1.5820 -1.5596
  254MOL0     H33519   2.652   6.170   3.346 -0.6720  0.4230  0.3644
  254MOL0     H33520   2.877   6.046   3.424 -1.2041  0.0978  2.0929
  254MOL0     H33521   2.793   5.901   3.414  2.3578 -0.3393 -1.4995
  254MOL0     H33522   2.849   6.116   3.187 -2.6117 -0.3644 -0.0983
  254MOL0     H33523   2.750   5.974   3.162  0.8684  1.0894 -1.5370
  254MOL0     H33524   2.944   5.831   3.210  0.5829 -0.5396 -4.0175
  254MOL0     H33525   2.988   5.947   3.088 -1.7046 -0.0171 -0.1655
  254MOL0     H33526   3.261   6.053   3.389  1.6843 -1.2677 -0.8487
  254MOL0     H33527   2.396   5.814   3.390 -5.0519  2.2198  1.8325
  254MOL0     H33528   2.376   5.608   3.550 -1.2541  1.4475  0.3616
  255MOL0     O33529   5.811   2.988   8.667 -0.1081  0.3786  0.0861
  255MOL0     C33530   5.780   3.096   8.712 -0.3951  0.9379 -0.0167
  255MOL0     O33531   5.852   3.215   8.688 -0.3892  0.0505 -0.0908
  255MOL0     C33532   5.967   3.204   8.610  0.1402 -0.5383  0.2075
  255MOL0     C33533   5.965   3.180   8.471 -0.4077 -0.0474 -0.5172
  255MOL0     C33534   6.083   3.135   8.407  0.3733  0.0195 -1.2580
  255MOL0     C33535   6.197   3.122   8.480  0.6533 -0.8870 -0.4580
  255MOL0     O33536   6.299   3.054   8.409  0.8093  0.5849  0.4898
  255MOL0     C33537   6.420   3.007   8.479 -0.9861 -0.2309 -0.5968
  255MOL0     C33538   6.528   2.976   8.381 -0.0101  0.7105  0.5952
  255MOL0     C33539   6.647   2.888   8.439 -0.5512 -0.3022 -0.1354
  255MOL0     C33540   6.744   2.856   8.326 -0.2804 -0.5921 -0.0807
  255MOL0     C33541   6.837   2.741   8.367 -0.1021  0.5294  0.3412
  255MOL0     C33542   6.917   2.690   8.247  0.0552 -0.7638  0.2664
  255MOL0     C33543   6.986   2.568   8.287 -1.1771 -0.3091  0.0443
  255MOL0     C33544   7.125   2.598   8.346 -0.0646  0.6194  0.0842
  255MOL0     N33545   7.170   2.483   8.424 -0.2847  0.0295  0.4004
  255MOL0     C33546   7.104   2.442   8.536 -0.1119  0.7227 -0.4734
  255MOL0     C33547   7.191   2.339   8.582  0.6118 -0.2189 -0.4991
  255MOL0     C33548   7.168   2.238   8.703  0.6929 -0.6480  0.0726
  255MOL0     C33549   7.294   2.154   8.729  0.0746  0.6113  0.6636
  255MOL0     C33550   7.395   2.240   8.801  0.1235  0.5756 -0.1516
  255MOL0     C33551   7.533   2.173   8.773  0.6462  0.1031  0.2486
  255MOL0     O33552   7.623   2.206   8.883  0.5894  0.1301  0.3870
  255MOL0     C33553   7.754   2.175   8.867 -0.0181 -0.6190 -0.1068
  255MOL0     C33554   7.814   2.115   8.758  0.0335  0.4537 -0.3944
  255MOL0     C33555   7.953   2.098   8.766  0.1089 -0.1052  0.5826
  255MOL0     C33556   8.034   2.129   8.875  0.2084  0.3208  0.1816
  255MOL0     C33557   8.189   2.117   8.875 -0.9313  0.7077 -1.5225
  255MOL0     O33558   8.247   2.093   8.753  0.4265  0.5275  0.1510
  255MOL0     C33559   8.386   2.112   8.727 -0.0792 -0.0658 -0.2025
  255MOL0     C33560   8.474   2.187   8.808  0.0177 -1.0441  0.0447
  255MOL0     C33561   8.612   2.197   8.778  0.1145  0.7667 -0.5256
  255MOL0     C33562   8.660   2.137   8.660  0.0368 -0.4275  0.6715
  255MOL0     O33563   8.798   2.133   8.633  0.0188  0.5116  0.2212
  255MOL0     C33564   8.892   2.151   8.739 -0.2971 -0.4287 -0.6287
  255MOL0     C33565   9.027   2.088   8.696  0.3467  0.1259 -0.3005
  255MOL0     C33566   9.071   2.174   8.579  0.3593 -1.1331  0.8487
  255MOL0     C33567   9.181   2.108   8.482  0.0252  0.1102  0.9424
  255MOL0     C33568   9.283   2.040   8.573 -0.0160 -0.3420 -0.3299
  255MOL0     C33569   9.406   1.989   8.502 -0.8438 -0.1800  0.0997
  255MOL0     C33570   9.490   2.102   8.439  1.5809  0.8412 -0.8499
  255MOL0     C33571   9.552   2.176   8.557 -0.2989 -0.7124 -0.7851
  255MOL0    Cl33572   9.669   2.272   8.474 -0.1566  0.1072  0.2658
  255MOL0     C33573   8.576   2.092   8.561 -0.3904 -0.3240 -1.0046
  255MOL0     C33574   8.440   2.077   8.592 -0.3276 -1.0493 -0.4944
  255MOL0     O33575   8.254   2.137   8.978 -0.3836  0.0039 -0.3117
  255MOL0     C33576   7.973   2.202   8.970  0.6412 -0.0859  0.1527
  255MOL0     C33577   7.828   2.217   8.971 -1.0413 -0.2574 -0.1960
  255MOL0     N33578   7.290   2.324   8.489 -0.2737  0.0967 -0.4591
  255MOL0     N33579   7.286   2.421   8.402 -0.0972 -0.0949 -0.0263
  255MOL0     C33580   6.204   3.154   8.614  0.1092  0.0589 -0.1596
  255MOL0     C33581   6.083   3.196   8.679  0.0077 -0.1237 -0.0444
  255MOL0     C33582   5.655   3.124   8.791 -0.0914  0.2996 -1.2363
  255MOL0     C33583   5.646   3.231   8.880 -0.1828 -0.2685 -0.0761
  255MOL0     C33584   5.535   3.245   8.959 -0.2909 -0.0353  0.1863
  255MOL0     C33585   5.442   3.147   8.967 -0.1585 -0.1529  0.1759
  255MOL0     O33586   5.326   3.155   9.044 -0.2540  0.6400  0.2198
  255MOL0     C33587   5.271   3.287   9.031 -0.2299  0.0546 -1.1035
  255MOL0     C33588   5.135   3.279   9.110  0.1311 -0.3547 -0.6783
  255MOL0     C33589   5.158   3.245   9.263 -0.6009  0.7523 -0.6345
  255MOL0     C33590   5.040   3.278   9.365 -0.1461 -0.0199 -0.3056
  255MOL0     C33591   4.915   3.231   9.310  0.1391  0.1156  0.4276
  255MOL0     C33592   4.820   3.173   9.262 -1.1269  0.1243  0.2187
  255MOL0     C33593   5.458   3.028   8.890  0.1168  0.1027 -0.4324
  255MOL0     C33594   5.569   3.021   8.808  0.0620  0.2683  0.7448
  255MOL0     H33595   5.867   3.174   8.425 -0.7866 -1.4735  0.4056
  255MOL0     H33596   6.083   3.101   8.304  0.6889  0.2663 -1.3414
  255MOL0     H33597   6.396   2.915   8.532 -4.6744  0.5917 -0.6172
  255MOL0     H33598   6.455   3.076   8.556 -2.8572 -0.7949  0.8256
  255MOL0     H33599   6.567   3.068   8.336  1.5776 -1.3441 -2.6838
  255MOL0     H33600   6.480   2.912   8.306  2.4215 -3.5899  2.3140
  255MOL0     H33601   6.613   2.791   8.476  0.2583 -2.3174 -4.1027
  255MOL0     H33602   6.704   2.937   8.518  0.2185 -2.2671  0.6089
  255MOL0     H33603   6.689   2.836   8.233  4.0233  1.5896 -3.4622
  255MOL0     H33604   6.796   2.949   8.301  0.1086 -0.4998  1.0266
  255MOL0     H33605   6.777   2.666   8.420  3.1359 -2.0055  0.8041
  255MOL0     H33606   6.899   2.790   8.443 -0.7614  0.1297  1.1560
  255MOL0     H33607   6.985   2.768   8.210  0.5229 -0.0696  2.4668
  255MOL0     H33608   6.840   2.668   8.172  0.3591  1.9523 -0.9500
  255MOL0     H33609   6.917   2.515   8.353 -1.5089 -0.1851 -0.1999
  255MOL0     H33610   6.992   2.509   8.195  0.9628  0.5411 -0.4379
  255MOL0     H33611   7.123   2.674   8.425  1.7476 -0.6467  1.4430
  255MOL0     H33612   7.200   2.634   8.274  3.0070  0.9056  3.1987
  255MOL0     H33613   7.014   2.478   8.585 -0.1682 -0.4102  0.2886
  255MOL0     H33614   7.092   2.165   8.674  0.4326 -0.8149  1.1460
  255MOL0     H33615   7.125   2.290   8.789 -1.6807  0.4044 -1.6229
  255MOL0     H33616   7.327   2.109   8.635  0.1671 -1.4672  1.6282
  255MOL0     H33617   7.270   2.072   8.797  0.2276 -0.7494 -0.8485
  255MOL0     H33618   7.411   2.338   8.756  0.8268  1.2550  1.4835
  255MOL0     H33619   7.367   2.246   8.907 -0.1955 -0.2402 -0.1812
  255MOL0     H33620   7.567   2.204   8.674 -0.6429  0.8197  0.0024
  255MOL0     H33621   7.520   2.064   8.773  2.1260 -0.1761 -3.0190
  255MOL0     H33622   7.757   2.088   8.669  0.3279 -0.6859 -0.2530
  255MOL0     H33623   7.990   2.047   8.677 -2.1515 -1.5056  0.3756
  255MOL0     H33624   8.445   2.236   8.900 -2.0011 -1.8138 -0.1399
  255MOL0     H33625   8.679   2.258   8.838 -1.5892  2.7122 -0.4744
  255MOL0     H33626   8.862   2.092   8.826 -0.5858 -0.4913 -0.7675
  255MOL0     H33627   8.902   2.255   8.770 -1.9378 -0.9189  1.8796
  255MOL0     H33628   9.010   1.983   8.669  0.6505 -0.4620  1.6092
  255MOL0     H33629   9.101   2.074   8.775 -0.2283 -0.8555  0.0912
  255MOL0     H33630   9.116   2.267   8.615  1.0011 -0.9551 -0.3793
  255MOL0     H33631   8.983   2.207   8.524 -0.5395 -1.0668  2.2828
  255MOL0     H33632   9.122   2.025   8.441  1.7678  0.0772 -1.6756
  255MOL0     H33633   9.211   2.188   8.414  0.1210 -1.3091 -0.7413
  255MOL0     H33634   9.244   1.953   8.628 -0.2889 -0.2925 -0.4444
  255MOL0     H33635   9.304   2.111   8.653 -1.8594 -3.4099  3.1984
  255MOL0     H33636   9.382   1.918   8.422  1.2386 -3.4476  2.1321
  255MOL0     H33637   9.469   1.932   8.571  0.1019 -1.3458 -1.6498
  255MOL0     H33638   9.566   2.057   8.375  1.7544 -1.2359  0.7052
  255MOL0     H33639   9.428   2.155   8.366  0.7232 -1.3092 -1.7613
  255MOL0     H33640   9.615   2.120   8.627  1.1106  2.9023  1.0582
  255MOL0     H33641   9.491   2.248   8.612  1.9918  1.6098 -1.0985
  255MOL0     H33642   8.628   2.064   8.469  0.3757  0.3152 -0.7800
  255MOL0     H33643   8.378   2.040   8.511  1.3164 -2.0755 -1.3491
  255MOL0     H33644   8.031   2.239   9.054 -0.3040 -1.2931  1.3944
  255MOL0     H33645   7.777   2.264   9.054  0.2540  0.5566  0.1766
  255MOL0     H33646   6.289   3.124   8.674  0.6142 -0.3559 -1.0721
  255MOL0     H33647   6.076   3.207   8.787 -0.9202 -0.6431 -0.0396
  255MOL0     H33648   5.717   3.312   8.897  0.4178 -1.0180  1.0725
  255MOL0     H33649   5.543   3.340   9.012  1.7440  0.6508 -1.2228
  255MOL0     H33650   5.262   3.305   8.923 -1.3517 -2.3230 -1.4749
  255MOL0     H33651   5.342   3.357   9.076 -0.8863  0.6500 -0.9688
  255MOL0     H33652   5.102   3.383   9.120  3.4804  0.6615  1.5935
  255MOL0     H33653   5.059   3.219   9.059  1.5892 -1.4814 -1.5761
  255MOL0     H33654   5.255   3.283   9.297  0.1888  0.4516 -2.4596
  255MOL0     H33655   5.176   3.137   9.260 -1.1684  0.4477  2.7167
  255MOL0     H33656   5.064   3.241   9.465  2.5773  1.7586 -0.1918
  255MOL0     H33657   5.040   3.387   9.358  0.7972 -0.0668 -1.2597
  255MOL0     H33658   4.731   3.118   9.237 -1.8129  0.1979  2.3081
  255MOL0     H33659   5.383   2.950   8.895 -0.7693  1.0206  1.9448
  255MOL0     H33660   5.573   2.929   8.749  2.8145  2.1887 -2.4556
  256MOL0     O33661  11.163   4.092   4.513 -0.0291  0.4670 -0.0533
  256MOL0     C33662  11.184   4.070   4.630 -0.2264  0.3502  0.2386
  256MOL0     O33663  11.095   4.091   4.725  0.4431  0.1777  0.3656
  256MOL0     C33664  10.967   4.146   4.704 -0.0598  0.0804 -0.1831
  256MOL0     C33665  10.855   4.082   4.754 -0.3550 -0.4019  0.3168
  256MOL0     C33666  10.729   4.124   4.723  0.3909  0.5545 -0.1731
  256MOL0     C33667  10.710   4.241   4.644  0.8262  0.5246 -0.2126
  256MOL0     O33668  10.580   4.278   4.605 -0.2024 -0.1740  0.3252
  256MOL0     C33669  10.498   4.190   4.532 -0.4181  0.4608  0.2249
  256MOL0     C33670  10.407   4.121   4.631 -0.8234  0.4450 -0.2284
  256MOL0     C33671  10.260   4.115   4.580  0.3100 -0.2041 -0.4641
  256MOL0     C33672  10.162   4.099   4.693  0.6819  0.6788 -0.6095
  256MOL0     C33673  10.022   4.110   4.638  0.4747  0.5885  0.4507
  256MOL0     C33674   9.916   4.046   4.733  1.1164 -0.0356 -0.5107
  256MOL0     C33675   9.785   4.013   4.650 -0.0971 -0.2095 -0.0130
  256MOL0     C33676   9.695   3.951   4.753 -0.2056 -0.0882  0.5368
  256MOL0     N33677   9.557   3.958   4.729 -0.2433  0.5312 -0.3428
  256MOL0     C33678   9.465   3.888   4.645  0.2250 -0.5380  0.0703
  256MOL0     C33679   9.350   3.958   4.647 -0.2823  0.3744  0.5989
  256MOL0     C33680   9.224   3.951   4.564  0.4271  1.1961 -0.8895
  256MOL0     C33681   9.208   3.812   4.487  0.0472 -0.1479 -0.0950
  256MOL0     C33682   9.105   3.818   4.372 -0.7488  0.4255  0.4336
  256MOL0     C33683   8.969   3.836   4.426 -0.0909 -1.7447  0.1587
  256MOL0     O33684   8.881   3.845   4.319  0.5222 -0.4478 -0.3870
  256MOL0     C33685   8.751   3.880   4.353 -0.3023 -0.0253  0.7513
  256MOL0     C33686   8.670   3.926   4.246 -0.5746  0.4369  0.1982
  256MOL0     C33687   8.535   3.953   4.270  0.1524 -1.0231  0.3387
  256MOL0     C33688   8.480   3.948   4.401 -0.6355  0.0527  0.7405
  256MOL0     C33689   8.337   3.975   4.411 -0.3080 -0.3983  1.0029
  256MOL0     O33690   8.272   4.038   4.304 -0.6448 -0.7574  0.8651
  256MOL0     C33691   8.140   4.064   4.291  0.1755 -0.7181 -0.3208
  256MOL0     C33692   8.039   3.999   4.359 -0.4378 -0.2636  0.8458
  256MOL0     C33693   7.911   4.037   4.331  0.6405 -0.0220 -0.3035
  256MOL0     C33694   7.877   4.130   4.236 -0.1309  0.4364 -0.3121
  256MOL0     O33695   7.744   4.148   4.233 -0.1753  0.5156  0.4440
  256MOL0     C33696   7.683   4.261   4.177 -0.0296 -0.7318 -0.3298
  256MOL0     C33697   7.538   4.256   4.195 -0.6318 -0.4031  1.1755
  256MOL0     C33698   7.474   4.382   4.131  0.1184 -0.4638  0.3275
  256MOL0     C33699   7.316   4.380   4.129 -0.1218  0.0543  0.4640
  256MOL0     C33700   7.254   4.520   4.094 -0.2497  0.1797  0.9876
  256MOL0     C33701   7.100   4.530   4.113  1.2380  0.0442  0.4217
  256MOL0     C33702   7.034   4.427   4.022 -0.4222  0.1300 -0.6839
  256MOL0     C33703   6.883   4.427   4.030 -0.8392 -0.0769  0.3596
  256MOL0    Cl33704   6.822   4.543   3.910  0.2506 -0.5979  0.4060
  256MOL0     C33705   7.978   4.189   4.159 -0.4733  0.0730 -0.0482
  256MOL0     C33706   8.110   4.154   4.189  0.9524  0.2666 -0.4127
  256MOL0     O33707   8.281   3.936   4.513  0.3592  0.8718 -0.2980
  256MOL0     C33708   8.559   3.905   4.509  0.0548 -0.4739 -0.3349
  256MOL0     C33709   8.689   3.872   4.483  0.0454  0.3344  0.5129
  256MOL0     N33710   9.373   4.069   4.725 -0.7703 -0.1985  0.1156
  256MOL0     N33711   9.490   4.065   4.780 -0.1553  0.5655  0.0067
  256MOL0     C33712  10.820   4.298   4.582  0.1003 -1.2950 -1.1553
  256MOL0     C33713  10.943   4.262   4.622 -0.7885  0.9705 -0.4447
  256MOL0     C33714  11.327   4.040   4.654  0.8854  0.5566 -0.0732
  256MOL0     C33715  11.368   4.019   4.781  0.1591  0.3399 -0.3670
  256MOL0     C33716  11.498   3.973   4.804 -0.4377 -0.3091  0.0192
  256MOL0     C33717  11.582   3.939   4.704 -0.0104 -0.0046 -0.0130
  256MOL0     O33718  11.707   3.882   4.725 -0.4079 -0.0972 -0.5071
  256MOL0     C33719  11.796   3.968   4.795  0.0053 -0.0519 -0.8117
  256MOL0     C33720  11.933   3.911   4.773 -0.0894 -0.5129 -0.5553
  256MOL0     C33721  12.053   3.992   4.838 -1.2417 -0.0692  0.1442
  256MOL0     C33722  12.068   4.119   4.760 -0.7213  0.1274 -0.8221
  256MOL0     C33723  12.116   4.114   4.620 -0.2371 -0.0634  0.3062
  256MOL0     C33724  12.141   4.129   4.508  0.1055  0.4405  0.6885
  256MOL0     C33725  11.537   3.960   4.575 -0.4208 -0.2240 -0.4443
  256MOL0     C33726  11.415   4.027   4.547 -0.0773  1.0796 -0.1333
  256MOL0     H33727  10.868   4.002   4.827  2.8321 -0.2243  0.1113
  256MOL0     H33728  10.641   4.065   4.749 -0.1007  1.1235 -0.5027
  256MOL0     H33729  10.554   4.115   4.475 -1.7903 -2.4006  2.4115
  256MOL0     H33730  10.438   4.253   4.466  0.5498  2.3334  1.0538
  256MOL0     H33731  10.412   4.186   4.719  2.2396  0.6533 -0.4523
  256MOL0     H33732  10.437   4.018   4.653 -0.3794  0.1929 -1.8844
  256MOL0     H33733  10.254   4.038   4.503  5.6000 -1.5526  0.0836
  256MOL0     H33734  10.228   4.210   4.537 -0.9155 -0.2161  0.3771
  256MOL0     H33735  10.179   4.001   4.737 -0.6891  0.1249 -1.2541
  256MOL0     H33736  10.178   4.170   4.775  1.0074 -0.5923  0.4591
  256MOL0     H33737  10.005   4.062   4.541 -0.6505 -1.3606  1.5435
  256MOL0     H33738  10.004   4.215   4.616 -1.8365 -0.1115 -1.3292
  256MOL0     H33739   9.889   4.112   4.816 -0.7199  0.1349 -1.2107
  256MOL0     H33740   9.961   3.951   4.762 -1.1788 -1.2844 -0.7920
  256MOL0     H33741   9.727   4.104   4.629  0.0223  0.2337  1.4986
  256MOL0     H33742   9.798   3.951   4.561 -3.2931 -0.6230 -0.3437
  256MOL0     H33743   9.722   3.989   4.852 -0.5525  0.8013  0.3027
  256MOL0     H33744   9.718   3.846   4.767  1.8170  0.3636  0.9119
  256MOL0     H33745   9.475   3.792   4.595 -0.9211 -0.1335 -0.9889
  256MOL0     H33746   9.225   4.030   4.489  2.1016  0.6642 -1.4796
  256MOL0     H33747   9.141   3.969   4.632  0.3566 -2.9697  0.3947
  256MOL0     H33748   9.178   3.739   4.562  1.9960 -0.3013  0.5970
  256MOL0     H33749   9.308   3.795   4.446  0.3250 -1.7537  1.1678
  256MOL0     H33750   9.129   3.902   4.307 -0.6656 -0.3745 -0.6078
  256MOL0     H33751   9.117   3.723   4.319  0.5921  1.3421 -0.9820
  256MOL0     H33752   8.961   3.933   4.476  0.2506 -0.3558 -2.2708
  256MOL0     H33753   8.939   3.745   4.479 -2.8286 -0.9442  0.1495
  256MOL0     H33754   8.710   3.934   4.145 -0.0969  0.9309  0.4248
  256MOL0     H33755   8.470   3.981   4.188  0.0470 -2.4258 -0.0845
  256MOL0     H33756   8.060   3.926   4.436  2.6295 -0.8796 -0.4259
  256MOL0     H33757   7.826   3.988   4.376 -0.1072 -1.4885 -3.0736
  256MOL0     H33758   7.714   4.271   4.073  2.5612  2.8711  0.5726
  256MOL0     H33759   7.727   4.339   4.240 -1.4437 -0.8358  0.8301
  256MOL0     H33760   7.523   4.239   4.302 -1.4706 -4.6057  0.5854
  256MOL0     H33761   7.502   4.170   4.138  0.6055  0.6067 -1.2373
  256MOL0     H33762   7.505   4.389   4.026 -2.3077 -0.5307 -0.4495
  256MOL0     H33763   7.509   4.468   4.188 -0.0954 -0.0394 -0.1763
  256MOL0     H33764   7.294   4.312   4.046 -1.3828  1.5058 -0.4552
  256MOL0     H33765   7.285   4.324   4.217  2.5437 -1.1888  0.7130
  256MOL0     H33766   7.269   4.542   3.988  2.1260 -1.8759  0.7848
  256MOL0     H33767   7.290   4.602   4.157 -0.9630 -0.4010  2.2006
  256MOL0     H33768   7.060   4.624   4.073 -0.5712 -1.8723 -2.6909
  256MOL0     H33769   7.072   4.526   4.219 -0.3854  3.8318  0.2826
  256MOL0     H33770   7.059   4.441   3.917  0.4285  1.0883 -0.3728
  256MOL0     H33771   7.061   4.329   4.062  1.0641  1.1007  0.8956
  256MOL0     H33772   6.848   4.464   4.127 -0.1656  1.9592 -0.1310
  256MOL0     H33773   6.834   4.332   4.004 -0.4344 -0.3503  0.5693
  256MOL0     H33774   7.948   4.254   4.078 -0.2573  1.6550  1.0884
  256MOL0     H33775   8.183   4.190   4.117  0.1394  1.5527 -0.6343
  256MOL0     H33776   8.505   3.902   4.603 -2.3549  4.8566 -1.2254
  256MOL0     H33777   8.746   3.830   4.565  1.8987  1.0594 -0.3522
  256MOL0     H33778  10.824   4.381   4.512  3.7705  0.4902  0.8937
  256MOL0     H33779  11.021   4.317   4.570 -1.0332 -1.9776 -4.3996
  256MOL0     H33780  11.309   4.028   4.871 -0.6480  1.0016 -0.9404
  256MOL0     H33781  11.528   3.962   4.908 -2.1352  0.2328  0.5982
  256MOL0     H33782  11.765   3.960   4.900 -1.4914 -2.6579 -1.3461
  256MOL0     H33783  11.787   4.074   4.769  1.4492  0.4644  0.6308
  256MOL0     H33784  11.951   3.814   4.819  0.2325  0.4293  1.4312
  256MOL0     H33785  11.946   3.900   4.665 -0.1296  0.4818 -0.6703
  256MOL0     H33786  12.144   3.931   4.838 -0.9117  0.4067  1.2398
  256MOL0     H33787  12.033   4.008   4.944 -0.4353  4.0820 -0.1872
  256MOL0     H33788  11.981   4.185   4.765 -0.0372  0.9436  1.4551
  256MOL0     H33789  12.130   4.171   4.833 -1.3260  0.1222 -0.2989
  256MOL0     H33790  12.154   4.153   4.404 -0.7997 -3.5640 -0.4854
  256MOL0     H33791  11.598   3.925   4.492 -2.0236 -1.5318 -1.1127
  256MOL0     H33792  11.393   4.046   4.442 -1.1755 -0.5052 -0.2364
  257MOL0     O33793  10.839   1.150   6.489 -0.2421  0.2870  0.4898
  257MOL0     C33794  10.836   1.269   6.511  0.3773 -0.2118 -0.2010
  257MOL0     O33795  10.946   1.355   6.523  0.3823 -0.2772  0.1554
  257MOL0     C33796  11.068   1.299   6.551  1.1530  0.1276  0.5692
  257MOL0     C33797  11.183   1.371   6.506 -0.5203  0.1691 -0.1201
  257MOL0     C33798  11.313   1.328   6.534 -0.3226 -0.3854 -0.8603
  257MOL0     C33799  11.338   1.220   6.622  0.6371 -0.3301 -0.3806
  257MOL0     O33800  11.466   1.188   6.654  0.0135  0.5333  0.5643
  257MOL0     C33801  11.525   1.305   6.708 -0.4520 -0.5537 -0.2392
  257MOL0     C33802  11.669   1.316   6.663 -0.1760 -0.1113 -0.8410
  257MOL0     C33803  11.741   1.199   6.710 -0.1415  0.0132 -0.3084
  257MOL0     C33804  11.883   1.218   6.666  0.7811 -0.0213 -0.6217
  257MOL0     C33805  11.956   1.084   6.700 -0.2385  1.0849 -1.1875
  257MOL0     C33806  12.090   1.122   6.771 -0.3891  0.4689 -0.0829
  257MOL0     C33807  12.175   1.001   6.800  0.4057 -0.3712  0.2972
  257MOL0     C33808  12.318   1.045   6.849 -0.6346  0.6162 -0.7750
  257MOL0     N33809  12.404   0.934   6.895 -0.1124 -0.4440  0.4726
  257MOL0     C33810  12.495   0.942   6.997  0.7017 -1.0278  0.1655
  257MOL0     C33811  12.537   0.819   7.007  0.0101 -0.1217  0.2478
  257MOL0     C33812  12.623   0.764   7.115  0.6193  0.0942  0.1477
  257MOL0     C33813  12.762   0.825   7.101  0.6097 -0.3332  0.6256
  257MOL0     C33814  12.861   0.753   7.190  0.3839  0.2379 -0.0873
  257MOL0     C33815  12.853   0.783   7.342 -0.7847 -0.9788 -0.1354
  257MOL0     O33816  12.883   0.922   7.366  0.5565 -0.0679 -0.8197
  257MOL0     C33817  12.783   1.018   7.416 -1.1693 -0.3193  0.7588
  257MOL0     C33818  12.833   1.143   7.456  0.4387 -1.0720  0.2759
  257MOL0     C33819  12.745   1.245   7.514 -0.3106  0.3276  0.5925
  257MOL0     C33820  12.609   1.223   7.540 -0.5171 -0.4591 -0.4016
  257MOL0     C33821  12.524   1.318   7.625 -0.0780  0.1596  0.0972
  257MOL0     O33822  12.566   1.451   7.616  0.3147 -0.4513  0.1558
  257MOL0     C33823  12.499   1.552   7.679 -0.0828 -0.2545  0.6212
  257MOL0     C33824  12.411   1.547   7.783  0.8438  0.3154 -0.8213
  257MOL0     C33825  12.352   1.665   7.844 -0.9341  0.4891 -0.1792
  257MOL0     C33826  12.386   1.797   7.797 -0.3639 -0.0437 -0.3079
  257MOL0     O33827  12.308   1.899   7.844  0.1953  0.2815 -0.0613
  257MOL0     C33828  12.304   2.031   7.782 -0.7758  0.9182 -0.8973
  257MOL0     C33829  12.177   2.027   7.698  0.0966 -1.4742 -0.2791
  257MOL0     C33830  12.043   2.046   7.779 -0.1628 -0.1293  1.1140
  257MOL0     C33831  11.918   2.041   7.696 -0.5977 -0.1345  0.6893
  257MOL0     C33832  11.795   2.089   7.777 -0.7041  0.0178 -0.0434
  257MOL0     C33833  11.674   2.014   7.728  0.5547  0.1044  0.9215
  257MOL0     C33834  11.607   2.087   7.614 -0.2179 -0.1334  0.6317
  257MOL0     C33835  11.482   2.027   7.564  0.4057 -0.3764  0.0212
  257MOL0    Cl33836  11.370   1.998   7.694  0.0628  0.0407  0.3787
  257MOL0     C33837  12.491   1.798   7.701 -0.1802 -0.6634 -0.0605
  257MOL0     C33838  12.543   1.677   7.638  0.3394 -0.1096  0.7733
  257MOL0     O33839  12.426   1.272   7.685 -0.4085 -0.0550 -0.5635
  257MOL0     C33840  12.561   1.101   7.493  0.1343 -0.5145 -0.5517
  257MOL0     C33841  12.648   0.996   7.437  0.5784  0.1058 -1.0798
  257MOL0     N33842  12.480   0.733   6.912  0.3630  0.2465 -0.8471
  257MOL0     N33843  12.400   0.810   6.840  1.1015  1.2508 -0.0567
  257MOL0     C33844  11.223   1.143   6.665  0.8689  0.8124 -0.5544
  257MOL0     C33845  11.087   1.182   6.632 -0.2824 -1.1733 -0.8948
  257MOL0     C33846  10.704   1.336   6.522  0.4194  0.7640  0.3811
  257MOL0     C33847  10.581   1.272   6.477 -0.9667  0.6628 -0.4677
  257MOL0     C33848  10.454   1.329   6.480  1.0266 -0.3786  0.5830
  257MOL0     C33849  10.450   1.461   6.536  0.2063 -0.0228  0.7924
  257MOL0     O33850  10.323   1.526   6.520  0.4195  0.3054  0.2543
  257MOL0     C33851  10.299   1.640   6.598 -0.9063  0.3487 -0.6806
  257MOL0     C33852  10.158   1.644   6.663  0.4692 -0.3108  1.0987
  257MOL0     C33853  10.050   1.710   6.582  0.2042 -0.2878  0.5726
  257MOL0     C33854   9.934   1.617   6.532 -0.5850 -0.0283  0.9976
  257MOL0     C33855   9.996   1.548   6.416 -0.0938  0.5530  0.1863
  257MOL0     C33856  10.046   1.496   6.319  0.9167  0.3521  0.0995
  257MOL0     C33857  10.570   1.531   6.574  0.6091  0.2384  0.6587
  257MOL0     C33858  10.694   1.465   6.562  0.0765  0.8601 -1.1288
  257MOL0     H33859  11.180   1.459   6.443  0.5673 -0.5519 -1.2446
  257MOL0     H33860  11.390   1.383   6.479  0.1112 -0.2910 -0.1747
  257MOL0     H33861  11.509   1.291   6.816  0.6478  0.7626  0.1170
  257MOL0     H33862  11.471   1.397   6.687 -2.1245 -1.3265  0.4599
  257MOL0     H33863  11.711   1.408   6.705 -0.3728 -0.1397 -0.5772
  257MOL0     H33864  11.678   1.330   6.555  1.1846  1.9738 -0.5017
  257MOL0     H33865  11.707   1.106   6.664  0.4595 -0.4723  0.2066
  257MOL0     H33866  11.739   1.198   6.820 -0.1059 -1.7841 -0.3055
  257MOL0     H33867  11.898   1.241   6.560  2.8509 -2.3520 -0.9490
  257MOL0     H33868  11.934   1.297   6.721  0.2270  0.7270 -1.1777
  257MOL0     H33869  11.978   1.032   6.606 -0.8221 -1.5925  0.0658
  257MOL0     H33870  11.890   1.020   6.758 -1.7024  2.1306 -1.6311
  257MOL0     H33871  12.062   1.170   6.866 -2.7888  1.3442 -1.1334
  257MOL0     H33872  12.140   1.190   6.702 -1.7270  2.1086  0.4851
  257MOL0     H33873  12.122   0.941   6.874  0.4440 -0.4020  0.2998
  257MOL0     H33874  12.177   0.946   6.705 -1.7509  0.0408 -0.0272
  257MOL0     H33875  12.311   1.108   6.938  3.9695  3.3269 -2.0478
  257MOL0     H33876  12.373   1.092   6.767  1.2494  0.6570  0.4658
  257MOL0     H33877  12.509   1.019   7.071 -1.0358  1.2069 -1.6837
  257MOL0     H33878  12.619   0.655   7.108  0.6833  0.1422 -0.6632
  257MOL0     H33879  12.580   0.798   7.210 -0.4201  2.6944 -1.1468
  257MOL0     H33880  12.757   0.931   7.128  0.2417 -0.0706 -0.4346
  257MOL0     H33881  12.797   0.809   6.999  0.5903  1.7165  0.2738
  257MOL0     H33882  12.843   0.647   7.175 -0.8961  0.5120 -0.6453
  257MOL0     H33883  12.967   0.771   7.167  1.0516  1.4242  3.3195
  257MOL0     H33884  12.930   0.719   7.388 -0.8760 -2.6742 -2.1601
  257MOL0     H33885  12.750   0.765   7.374 -1.3053  2.1197  0.2363
  257MOL0     H33886  12.935   1.176   7.436  0.0980 -1.4352 -2.4042
  257MOL0     H33887  12.777   1.344   7.543  0.7016 -0.3506  1.8644
  257MOL0     H33888  12.384   1.453   7.831  1.0263  0.5153 -0.3217
  257MOL0     H33889  12.273   1.646   7.917 -0.9707 -3.0632 -0.9348
  257MOL0     H33890  12.385   2.043   7.709 -0.2246  1.5298 -0.1986
  257MOL0     H33891  12.299   2.113   7.854 -1.8322  0.5178 -0.5048
  257MOL0     H33892  12.158   1.947   7.626 -0.3373 -1.1727 -0.5021
  257MOL0     H33893  12.179   2.120   7.640 -1.0282  0.4266  2.5193
  257MOL0     H33894  12.032   2.146   7.823 -0.0224 -0.7455  2.6121
  257MOL0     H33895  12.033   1.976   7.862  4.9208 -0.7276  1.4972
  257MOL0     H33896  11.939   2.100   7.607  0.0407 -0.4124  0.6457
  257MOL0     H33897  11.903   1.945   7.646 -2.2018  1.0130 -1.1583
  257MOL0     H33898  11.807   2.195   7.797  1.5530 -0.7652  3.6158
  257MOL0     H33899  11.815   2.050   7.877  1.3095 -1.9153 -1.0939
  257MOL0     H33900  11.604   2.025   7.812 -0.9084  0.5828 -0.3283
  257MOL0     H33901  11.705   1.915   7.694 -2.7582 -0.4374 -0.9673
  257MOL0     H33902  11.578   2.183   7.658 -1.1960  0.4418 -1.2153
  257MOL0     H33903  11.686   2.106   7.541  0.0536  2.6770  1.5314
  257MOL0     H33904  11.516   1.941   7.506  1.2129  2.5968 -4.3651
  257MOL0     H33905  11.427   2.097   7.501 -0.2739  2.7176  3.6607
  257MOL0     H33906  12.558   1.882   7.692  4.1819 -3.6549  1.0651
  257MOL0     H33907  12.609   1.685   7.553  1.2791 -2.2961  1.2202
  257MOL0     H33908  12.456   1.082   7.511  0.4372  0.1103  2.4905
  257MOL0     H33909  12.603   0.900   7.415  1.9022 -1.2813  1.6923
  257MOL0     H33910  11.243   1.059   6.730  1.7250 -0.2830 -2.1478
  257MOL0     H33911  11.006   1.126   6.676 -1.3977  0.4293 -0.8198
  257MOL0     H33912  10.589   1.168   6.448  4.6349  0.5579  0.3279
  257MOL0     H33913  10.371   1.269   6.445  0.0275  1.1533  0.2048
  257MOL0     H33914  10.326   1.736   6.553  1.9699 -1.7715 -3.9546
  257MOL0     H33915  10.370   1.637   6.681  1.6717 -1.6703 -2.7784
  257MOL0     H33916  10.117   1.553   6.708  0.5428  0.2018  2.2436
  257MOL0     H33917  10.179   1.712   6.746  1.6011  1.6593 -0.7012
  257MOL0     H33918  10.093   1.771   6.502 -0.5445 -1.9272 -1.1780
  257MOL0     H33919  10.003   1.785   6.646  1.5902  0.1852  1.0567
  257MOL0     H33920   9.916   1.538   6.605  1.9796 -2.6621 -0.9879
  257MOL0     H33921   9.847   1.674   6.498 -0.4652 -1.0976 -1.2215
  257MOL0     H33922  10.067   1.430   6.237  2.5497  0.2075  0.5950
  257MOL0     H33923  10.567   1.630   6.618 -1.2284 -0.1327  1.4820
  257MOL0     H33924  10.776   1.524   6.601  0.4088 -1.0708  1.2952
  258MOL0     O33925  11.227   2.071  10.265  0.2480 -0.5657 -0.2733
  258MOL0     C33926  11.219   1.978  10.186 -0.8892 -0.2053  0.0773
  258MOL0     O33927  11.102   1.919  10.138  0.2835 -0.4311  0.2492
  258MOL0     C33928  10.981   1.978  10.166 -0.1888  0.4295  0.3955
  258MOL0     C33929  10.904   1.921  10.268 -0.6613 -0.3450  1.1720
  258MOL0     C33930  10.786   1.971  10.318  0.2892 -0.1328  0.0544
  258MOL0     C33931  10.730   2.085  10.249  0.1386  0.1622  0.1180
  258MOL0     O33932  10.615   2.130  10.295 -0.6517  0.6733 -0.7321
  258MOL0     C33933  10.545   2.225  10.228  0.4070  0.3157  0.3218
  258MOL0     C33934  10.439   2.287  10.318 -0.2928  0.8338  0.0981
  258MOL0     C33935  10.518   2.357  10.429  0.8039 -0.2160 -0.7285
  258MOL0     C33936  10.427   2.412  10.533  0.2085 -0.1332  0.4760
  258MOL0     C33937  10.511   2.507  10.626 -0.0525  0.1439 -0.5220
  258MOL0     C33938  10.412   2.605  10.695  0.0595 -0.4607  0.8596
  258MOL0     C33939  10.320   2.686  10.593 -0.5053 -0.1136 -0.1795
  258MOL0     C33940  10.406   2.762  10.490 -0.5598 -0.1883 -0.4216
  258MOL0     N33941  10.314   2.821  10.390 -0.2040  0.6371 -0.0486
  258MOL0     C33942  10.199   2.895  10.409 -0.0390  0.5385 -0.4049
  258MOL0     C33943  10.146   2.911  10.285 -0.2378 -0.3847  0.6850
  258MOL0     C33944  10.035   2.999  10.243 -1.2272 -0.2795 -0.0644
  258MOL0     C33945  10.082   3.153  10.238 -0.3677 -0.1846  0.1271
  258MOL0     C33946  10.224   3.167  10.188  0.5261  0.7124  0.0688
  258MOL0     C33947  10.261   3.306  10.136 -0.3614  0.6056 -0.4414
  258MOL0     O33948  10.177   3.324  10.022 -0.0895  0.3231  0.8340
  258MOL0     C33949  10.241   3.360   9.909  0.6274 -0.9570  1.2164
  258MOL0     C33950  10.357   3.293   9.866 -0.4498 -0.5141  0.2447
  258MOL0     C33951  10.425   3.328   9.748 -0.2331  0.0213  0.6181
  258MOL0     C33952  10.379   3.432   9.662  0.4896 -0.2005  0.4071
  258MOL0     C33953  10.452   3.487   9.550 -0.3143  0.5434  0.3261
  258MOL0     O33954  10.557   3.414   9.504  0.2445 -0.4216  0.0120
  258MOL0     C33955  10.607   3.437   9.377 -0.0378  0.5520 -1.1034
  258MOL0     C33956  10.684   3.550   9.350  0.4819  0.4842  0.2524
  258MOL0     C33957  10.726   3.572   9.225  0.0445  0.1357  0.8296
  258MOL0     C33958  10.703   3.485   9.116 -0.2108  0.6448  0.3095
  258MOL0     O33959  10.750   3.494   8.987  0.2986  0.2307  0.3317
  258MOL0     C33960  10.872   3.416   8.952  0.1414 -0.6233 -0.3294
  258MOL0     C33961  10.892   3.419   8.798  0.0311 -0.0145  0.4315
  258MOL0     C33962  10.772   3.393   8.707 -0.2289  0.3839  0.5990
  258MOL0     C33963  10.829   3.441   8.568 -0.3555  0.6119  0.3076
  258MOL0     C33964  10.758   3.398   8.448  0.9695 -0.1968 -0.9049
  258MOL0     C33965  10.773   3.257   8.405 -0.5441  0.0050  0.1414
  258MOL0     C33966  10.910   3.228   8.345 -0.5629 -0.0812  0.5511
  258MOL0     C33967  10.906   3.181   8.205 -0.2189  0.3726 -0.0126
  258MOL0    Cl33968  10.837   3.313   8.102  0.5499  0.5605 -0.4097
  258MOL0     C33969  10.631   3.365   9.142  0.1386 -1.4101  0.0156
  258MOL0     C33970  10.579   3.346   9.271  0.0080  0.4817  0.1240
  258MOL0     O33971  10.410   3.592   9.499 -0.4603 -0.8406 -0.2899
  258MOL0     C33972  10.250   3.488   9.701  0.9206  0.1584  0.5244
  258MOL0     C33973  10.176   3.441   9.815  0.6891 -0.0751  0.3341
  258MOL0     N33974  10.226   2.836  10.200  0.9390  0.6416  0.7422
  258MOL0     N33975  10.324   2.780  10.259 -0.7705  0.8179 -0.4865
  258MOL0     C33976  10.815   2.150  10.155  0.2790  0.7040  0.0324
  258MOL0     C33977  10.934   2.098  10.104 -0.3222  0.4438  0.4493
  258MOL0     C33978  11.348   1.920  10.150 -0.9646  0.1684  0.4874
  258MOL0     C33979  11.342   1.801  10.071  0.1811 -0.1568  1.0426
  258MOL0     C33980  11.467   1.740  10.031  0.7062 -0.5819  0.4873
  258MOL0     C33981  11.593   1.790  10.070 -0.1574  0.2829  0.4816
  258MOL0     O33982  11.695   1.705  10.049  0.2978 -0.0455  0.3535
  258MOL0     C33983  11.837   1.746  10.054 -0.2518 -0.0986 -0.6180
  258MOL0     C33984  11.920   1.613  10.060  0.4777  0.0380  0.4305
  258MOL0     C33985  12.070   1.646  10.076  0.4411 -0.4546  0.0109
  258MOL0     C33986  12.095   1.664  10.215 -1.1743 -0.0629 -0.4111
  258MOL0     C33987  12.236   1.622  10.254 -0.0407  0.0334 -0.0456
  258MOL0     C33988  12.346   1.572  10.286 -0.2029  0.4240 -0.2888
  258MOL0     C33989  11.597   1.910  10.136 -0.0269 -0.5346  0.5246
  258MOL0     C33990  11.476   1.976  10.182 -0.0672 -0.3318  0.7459
  258MOL0     H33991  10.937   1.828  10.315 -2.0642 -1.7167 -0.4119
  258MOL0     H33992  10.739   1.921  10.402 -1.6171 -0.1713 -0.9902
  258MOL0     H33993  10.505   2.185  10.135  0.7270 -0.9639  0.7156
  258MOL0     H33994  10.599   2.316  10.200 -1.9106  1.9929  1.0257
  258MOL0     H33995  10.359   2.220  10.349 -0.0467  0.6761  0.3971
  258MOL0     H33996  10.392   2.358  10.249 -3.9645  1.4967  2.9818
  258MOL0     H33997  10.583   2.437  10.393  1.5403 -0.3126  0.3339
  258MOL0     H33998  10.576   2.289  10.493  1.9148  1.5210  0.1995
  258MOL0     H33999  10.344   2.463  10.483  0.2864  0.9946  1.4536
  258MOL0     H34000  10.389   2.332  10.596 -1.3948  0.1890 -0.0478
  258MOL0     H34001  10.595   2.564  10.584  0.1880  1.5189  1.6813
  258MOL0     H34002  10.559   2.443  10.700  2.0862  0.3659 -1.6532
  258MOL0     H34003  10.476   2.668  10.757  1.8449 -3.0736  1.8444
  258MOL0     H34004  10.343   2.547  10.757  0.5349 -0.9767  0.9113
  258MOL0     H34005  10.251   2.621  10.540 -1.1083  0.8443 -0.6107
  258MOL0     H34006  10.263   2.758  10.653 -0.3483 -1.2960  1.4490
  258MOL0     H34007  10.472   2.693  10.435 -1.0926 -0.2913 -0.9424
  258MOL0     H34008  10.465   2.842  10.535 -2.3223 -1.1256  4.1017
  258MOL0     H34009  10.173   2.952  10.498 -3.1154  1.1331 -1.5536
  258MOL0     H34010   9.963   3.003  10.325  1.0110  3.0105  2.0146
  258MOL0     H34011   9.974   2.958  10.162 -3.0657 -1.1267  1.6714
  258MOL0     H34012  10.067   3.190  10.340 -0.4703  0.6905 -0.1976
  258MOL0     H34013  10.004   3.207  10.182  1.8921  2.3403 -0.8463
  258MOL0     H34014  10.291   3.137  10.269 -1.2425 -1.4011  0.8548
  258MOL0     H34015  10.242   3.102  10.102  0.0269  0.5549  0.0781
  258MOL0     H34016  10.366   3.323  10.113  0.5860 -1.5657  1.8567
  258MOL0     H34017  10.252   3.376  10.219  2.1535  1.2783 -0.6555
  258MOL0     H34018  10.413   3.233   9.937  0.4467 -0.1264 -0.1100
  258MOL0     H34019  10.513   3.268   9.727 -0.2141 -0.5270  2.2013
  258MOL0     H34020  10.695   3.629   9.424 -0.5878  0.5151  0.3952
  258MOL0     H34021  10.796   3.654   9.209 -1.7172  1.7774  1.1986
  258MOL0     H34022  10.862   3.312   8.983 -0.1348 -0.5753 -0.2474
  258MOL0     H34023  10.957   3.470   8.995 -0.5622  0.0682  0.2412
  258MOL0     H34024  10.965   3.340   8.777 -2.0742 -2.5741  1.9483
  258MOL0     H34025  10.935   3.518   8.780 -0.2202  0.1836  0.8973
  258MOL0     H34026  10.687   3.456   8.737  0.8444  0.4142  3.9395
  258MOL0     H34027  10.763   3.284   8.706  0.6708  0.2442 -2.2770
  258MOL0     H34028  10.822   3.550   8.575 -4.6166  0.4074  1.7932
  258MOL0     H34029  10.934   3.410   8.561 -0.5797  0.0906 -0.9549
  258MOL0     H34030  10.793   3.468   8.371 -0.4017  1.6149  0.0323
  258MOL0     H34031  10.651   3.412   8.466  0.7575 -0.0004 -2.2088
  258MOL0     H34032  10.696   3.239   8.329 -1.2835  2.7877  0.1205
  258MOL0     H34033  10.746   3.196   8.491 -2.4097  2.3854  1.3442
  258MOL0     H34034  10.969   3.320   8.335 -1.3458  0.3232 -0.5272
  258MOL0     H34035  10.975   3.163   8.405  2.6101  1.6431 -0.7655
  258MOL0     H34036  10.845   3.090   8.201  1.0986 -0.6432  1.7273
  258MOL0     H34037  11.007   3.170   8.165 -0.1077 -2.4140  0.8243
  258MOL0     H34038  10.593   3.307   9.059  2.0201 -1.0420 -1.1627
  258MOL0     H34039  10.530   3.252   9.294  1.1143 -0.4496 -1.1798
  258MOL0     H34040  10.207   3.568   9.642  1.1004 -0.0243  0.1460
  258MOL0     H34041  10.084   3.491   9.844 -1.0295 -2.0272 -1.3744
  258MOL0     H34042  10.796   2.249  10.115  0.7165  1.8446  2.4497
  258MOL0     H34043  11.000   2.153  10.038 -0.7415 -0.1453 -0.4842
  258MOL0     H34044  11.246   1.761  10.041  0.7426 -0.0164 -1.0509
  258MOL0     H34045  11.464   1.660   9.958 -0.5625 -1.5410  1.5367
  258MOL0     H34046  11.845   1.812  10.140 -3.7888 -3.1630  2.4601
  258MOL0     H34047  11.872   1.783   9.957  1.2234 -0.1854 -0.1279
  258MOL0     H34048  11.871   1.554  10.138 -1.0720 -5.7149 -4.1916
  258MOL0     H34049  11.910   1.555   9.968 -3.3615  1.8613 -0.5163
  258MOL0     H34050  12.107   1.722  10.007  0.6428 -0.1454  0.4583
  258MOL0     H34051  12.122   1.553  10.051 -0.7308 -0.3976 -3.0247
  258MOL0     H34052  12.068   1.763  10.254  1.9782  0.4363  0.8442
  258MOL0     H34053  12.028   1.600  10.273 -2.8456  1.8426 -0.1403
  258MOL0     H34054  12.444   1.537  10.312 -1.4295 -0.5595  3.5998
  258MOL0     H34055  11.694   1.957  10.150  0.3961 -1.7222  1.8102
  258MOL0     H34056  11.484   2.061  10.248  0.3704  0.9520 -0.8895
  259MOL0     O34057   6.769   3.282   0.144  0.0604 -0.0184 -0.8158
  259MOL0     C34058   6.745   3.208   0.050  0.6052  0.1383  0.4530
  259MOL0     O34059   6.627   3.202  -0.006  0.6800  0.7910  0.5182
  259MOL0     C34060   6.535   3.305  -0.018  0.5974 -0.8791  0.4293
  259MOL0     C34061   6.573   3.444  -0.010 -0.0608  0.3820  0.3796
  259MOL0     C34062   6.474   3.546  -0.052 -0.0667  1.1205  0.1333
  259MOL0     C34063   6.341   3.509  -0.085 -0.2436 -0.3428 -0.0754
  259MOL0     O34064   6.252   3.606  -0.127  0.2497  1.2805 -0.1676
  259MOL0     C34065   6.293   3.704  -0.222  0.1504  0.0186 -1.0084
  259MOL0     C34066   6.158   3.779  -0.245  0.9909  0.1696  0.1902
  259MOL0     C34067   6.132   3.892  -0.139  0.2488  0.2546  0.0538
  259MOL0     C34068   6.035   3.985  -0.200  0.0094  0.7312  0.9784
  259MOL0     C34069   6.021   4.108  -0.122  0.3534 -0.1376  0.3508
  259MOL0     C34070   5.903   4.200  -0.168  0.1683 -0.5612  0.0817
  259MOL0     C34071   5.902   4.328  -0.088 -0.7246  0.5982  0.7429
  259MOL0     C34072   5.787   4.420  -0.101  0.7967  0.3476 -0.1081
  259MOL0     N34073   5.758   4.508  -0.215 -0.5157  0.1222  0.5991
  259MOL0     C34074   5.711   4.479  -0.336  0.5735 -0.9292  1.2951
  259MOL0     C34075   5.686   4.600  -0.402  0.1325 -0.3327 -0.0529
  259MOL0     C34076   5.617   4.614  -0.531  0.1191  0.0071  0.5423
  259MOL0     C34077   5.467   4.636  -0.519  1.1312  0.3039 -0.9152
  259MOL0     C34078   5.439   4.781  -0.473 -0.9382 -0.0611 -0.5608
  259MOL0     C34079   5.298   4.818  -0.455  0.6494  0.7057  1.0770
  259MOL0     O34080   5.211   4.729  -0.380  0.5344 -0.4949  0.3788
  259MOL0     C34081   5.083   4.758  -0.356 -0.7251 -0.6889 -0.7315
  259MOL0     C34082   5.010   4.672  -0.279 -0.7074  0.5982 -1.1568
  259MOL0     C34083   4.877   4.699  -0.240  0.3098  0.0612  0.9163
  259MOL0     C34084   4.816   4.820  -0.287 -1.7387  0.1668 -0.0619
  259MOL0     C34085   4.673   4.837  -0.251  0.4512 -0.5285  0.2673
  259MOL0     O34086   4.616   4.944  -0.308  1.0108  0.9283 -0.8765
  259MOL0     C34087   4.482   4.965  -0.270  0.2234 -0.7019  0.3744
  259MOL0     C34088   4.389   4.882  -0.327  0.3637 -0.2167  0.0147
  259MOL0     C34089   4.246   4.883  -0.299  0.2789  0.3366  0.5266
  259MOL0     C34090   4.204   4.977  -0.206  0.1697  0.2959 -0.0823
  259MOL0     O34091   4.075   4.988  -0.153  0.3167 -0.1471 -0.8886
  259MOL0     C34092   3.961   4.927  -0.220  0.2101  0.7170 -0.2834
  259MOL0     C34093   3.909   5.005  -0.345  0.6147 -0.2340  0.3003
  259MOL0     C34094   3.835   4.916  -0.439 -0.5655  0.8354  0.5456
  259MOL0     C34095   3.772   5.002  -0.548  0.3918 -0.9384  0.3677
  259MOL0     C34096   3.672   4.913  -0.629 -0.2560  0.0192  0.7875
  259MOL0     C34097   3.645   4.964  -0.781 -0.0027  0.7716 -0.3074
  259MOL0     C34098   3.785   4.957  -0.862  0.3450  0.0770 -0.4678
  259MOL0     C34099   3.851   5.093  -0.883 -0.7676 -0.8312 -0.4507
  259MOL0    Cl34100   4.026   5.097  -0.923  0.3548  0.1902 -0.3073
  259MOL0     C34101   4.300   5.065  -0.147  0.3463  0.8145 -0.8580
  259MOL0     C34102   4.435   5.061  -0.186  0.1310 -1.4775 -0.2792
  259MOL0     O34103   4.615   4.753  -0.180  0.1877 -0.7619 -0.0813
  259MOL0     C34104   4.895   4.919  -0.347 -1.1457 -0.0777 -0.0985
  259MOL0     C34105   5.033   4.884  -0.381  0.6640 -0.2567 -0.5412
  259MOL0     N34106   5.720   4.699  -0.321  0.1607 -0.6807  0.0403
  259MOL0     N34107   5.757   4.647  -0.209  0.6069  0.5312  0.0619
  259MOL0     C34108   6.307   3.378  -0.094  0.5655  0.0267 -1.0818
  259MOL0     C34109   6.406   3.277  -0.071 -0.2931 -0.7678 -0.3646
  259MOL0     C34110   6.846   3.106   0.000 -0.2761 -0.2105 -0.2084
  259MOL0     C34111   6.954   3.069   0.078 -0.0800  0.0024  0.1852
  259MOL0     C34112   7.038   2.954   0.043 -0.2848 -0.5752 -0.0446
  259MOL0     C34113   7.017   2.884  -0.072 -1.0817 -0.3081 -0.6289
  259MOL0     O34114   7.083   2.771  -0.105 -0.0977 -0.0585 -0.2875
  259MOL0     C34115   7.183   2.711  -0.015  0.4907 -0.2583 -0.6028
  259MOL0     C34116   7.238   2.595  -0.079  0.5343  0.2042  0.6638
  259MOL0     C34117   7.361   2.539  -0.009  0.1212 -0.7116  0.5757
  259MOL0     C34118   7.430   2.427  -0.088 -0.3808  0.3853  0.4815
  259MOL0     C34119   7.493   2.324   0.001  0.6053 -1.0064  0.6873
  259MOL0     C34120   7.564   2.241   0.050  0.2603 -0.0088 -1.0930
  259MOL0     C34121   6.924   2.934  -0.162  0.7715 -0.2492  1.2521
  259MOL0     C34122   6.829   3.034  -0.125  0.1008 -0.6322 -0.2341
  259MOL0     H34123   6.667   3.492   0.014  0.9386 -0.9513 -0.7231
  259MOL0     H34124   6.495   3.652  -0.053  0.5935  0.9947 -0.0979
  259MOL0     H34125   6.335   3.665  -0.315  1.3416  3.7067 -2.2267
  259MOL0     H34126   6.364   3.777  -0.183  0.0493 -1.9751  3.3801
  259MOL0     H34127   6.075   3.709  -0.234  0.0306  0.7808 -2.4595
  259MOL0     H34128   6.169   3.818  -0.347 -0.5296 -1.2283 -0.5521
  259MOL0     H34129   6.226   3.941  -0.111  0.4486 -0.7359  1.2293
  259MOL0     H34130   6.097   3.842  -0.048  0.1425 -1.3929 -0.8640
  259MOL0     H34131   6.050   4.004  -0.307 -0.7704 -0.5286  0.6188
  259MOL0     H34132   5.934   3.942  -0.203 -0.0148  0.6620 -3.3628
  259MOL0     H34133   6.105   4.178  -0.125 -1.2635  1.9433  1.1878
  259MOL0     H34134   6.014   4.088  -0.015  2.1875  0.5120  0.6265
  259MOL0     H34135   5.814   4.145  -0.135 -0.8560  0.8511 -0.1692
  259MOL0     H34136   5.901   4.217  -0.276  0.0584  1.2719  0.3279
  259MOL0     H34137   5.918   4.288   0.013  1.8967 -1.1681 -0.2476
  259MOL0     H34138   5.983   4.400  -0.107 -0.9901  0.1851 -2.4740
  259MOL0     H34139   5.780   4.492  -0.019 -0.5021 -1.2821  1.2710
  259MOL0     H34140   5.698   4.357  -0.093  0.5563 -0.1445 -4.4058
  259MOL0     H34141   5.691   4.377  -0.366 -0.8930 -0.4744  0.6367
  259MOL0     H34142   5.628   4.524  -0.592  2.0448  1.0242 -0.7092
  259MOL0     H34143   5.662   4.698  -0.585 -2.2941 -1.0517 -3.5111
  259MOL0     H34144   5.423   4.567  -0.446  1.1032  0.6174 -0.6369
  259MOL0     H34145   5.408   4.606  -0.606  3.7795  0.0529 -2.7580
  259MOL0     H34146   5.499   4.807  -0.385 -0.4467  0.3356 -1.0089
  259MOL0     H34147   5.477   4.852  -0.547 -2.8795  2.7201  0.9629
  259MOL0     H34148   5.251   4.822  -0.554 -1.4197 -0.2025  1.9684
  259MOL0     H34149   5.291   4.916  -0.408 -0.9931  2.4962 -2.4847
  259MOL0     H34150   5.057   4.585  -0.233  0.1320  2.4763  1.7997
  259MOL0     H34151   4.823   4.618  -0.192 -1.7033  1.5623  1.3163
  259MOL0     H34152   4.408   4.811  -0.407 -0.3902 -0.5843  0.1532
  259MOL0     H34153   4.177   4.814  -0.346 -1.7698  1.1454  2.1869
  259MOL0     H34154   3.882   4.930  -0.144 -2.2308  1.6573 -2.6956
  259MOL0     H34155   3.989   4.822  -0.237  2.0647  0.4182  3.5750
  259MOL0     H34156   3.993   5.061  -0.387  0.1698 -0.5711 -1.1110
  259MOL0     H34157   3.843   5.088  -0.320  1.2204  0.5034 -0.4780
  259MOL0     H34158   3.754   4.864  -0.387 -0.2169 -0.1149  0.1594
  259MOL0     H34159   3.910   4.851  -0.487  0.5257  1.8977  0.7620
  259MOL0     H34160   3.712   5.079  -0.498  2.6843  2.1718 -1.3664
  259MOL0     H34161   3.845   5.059  -0.606 -0.7688  0.0626 -0.1454
  259MOL0     H34162   3.581   4.890  -0.573  0.8897 -4.2744  1.2004
  259MOL0     H34163   3.720   4.815  -0.638  0.1107  0.2966 -0.3602
  259MOL0     H34164   3.585   5.055  -0.790 -0.1096  0.9731  1.8515
  259MOL0     H34165   3.576   4.893  -0.828  0.6523  0.2344 -0.4738
  259MOL0     H34166   3.853   4.895  -0.805  1.7829  2.0275  0.0323
  259MOL0     H34167   3.766   4.903  -0.956 -0.0676  0.2104 -0.4640
  259MOL0     H34168   3.840   5.150  -0.791 -1.4778 -1.5449 -0.0818
  259MOL0     H34169   3.801   5.146  -0.965 -0.0657  0.0702 -0.3040
  259MOL0     H34170   4.267   5.122  -0.060  0.5109 -1.6431  0.9241
  259MOL0     H34171   4.511   5.124  -0.142  1.7075 -2.2122 -1.8426
  259MOL0     H34172   4.852   5.015  -0.370  0.0521 -0.1871 -3.2430
  259MOL0     H34173   5.085   4.955  -0.446 -1.2397  0.8953 -0.8866
  259MOL0     H34174   6.212   3.344  -0.134  1.0085 -0.9520 -1.3377
  259MOL0     H34175   6.392   3.170  -0.077  3.3349 -1.4106  0.3563
  259MOL0     H34176   6.948   3.129   0.168 -1.2370  0.3588 -0.1170
  259MOL0     H34177   7.109   2.927   0.121 -2.8283 -0.3189  2.5423
  259MOL0     H34178   7.132   2.684   0.077 -0.7764 -1.1260 -1.5364
  259MOL0     H34179   7.260   2.785   0.011  0.5468 -0.1108 -1.1738
  259MOL0     H34180   7.157   2.521  -0.085 -0.3487  1.2430 -1.0515
  259MOL0     H34181   7.269   2.620  -0.181  0.1160  1.0941  0.7520
  259MOL0     H34182   7.335   2.521   0.095 -0.7839  5.0531  1.7026
  259MOL0     H34183   7.421   2.625   0.021 -2.2403  1.9389 -1.7023
  259MOL0     H34184   7.362   2.365  -0.148  1.6059 -2.7261  1.1945
  259MOL0     H34185   7.495   2.468  -0.165 -0.6505  0.4391  0.2831
  259MOL0     H34186   7.617   2.160   0.096 -0.4274  0.0980 -0.0758
  259MOL0     H34187   6.917   2.890  -0.261 -1.2808  1.2620  0.6732
  259MOL0     H34188   6.747   3.072  -0.185  1.2662  0.7179 -1.0444
  260MOL0     O34189  11.243   3.528  10.565 -0.3681 -0.3294 -0.0414
  260MOL0     C34190  11.240   3.428  10.639  0.2401 -0.0992  1.1525
  260MOL0     O34191  11.186   3.424  10.757 -0.0454 -0.4429 -0.0890
  260MOL0     C34192  11.147   3.541  10.814  0.5591 -0.4430 -1.1992
  260MOL0     C34193  11.211   3.665  10.816  0.0257  0.8519  0.5111
  260MOL0     C34194  11.157   3.770  10.887  0.6554  0.0158 -0.3536
  260MOL0     C34195  11.051   3.764  10.978 -0.6380  1.1507  1.1970
  260MOL0     O34196  11.036   3.862  11.069 -0.2751 -0.6042  0.5887
  260MOL0     C34197  10.932   3.856  11.168 -0.3634 -0.8579  0.2879
  260MOL0     C34198  10.950   3.974  11.275  0.0869  0.0923 -0.3113
  260MOL0     C34199  10.834   3.981  11.381 -0.3867 -0.1206  0.0902
  260MOL0     C34200  10.830   4.123  11.453  0.4301  0.5706 -0.4629
  260MOL0     C34201  10.760   4.106  11.594 -1.0748 -0.5785 -0.1387
  260MOL0     C34202  10.727   4.232  11.664  0.7726  0.0586  1.1641
  260MOL0     C34203  10.676   4.213  11.812  0.0296 -0.6018 -0.3716
  260MOL0     C34204  10.790   4.199  11.907 -0.5000 -0.6065 -0.0654
  260MOL0     N34205  10.816   4.328  11.971  0.0640  0.1650 -0.1278
  260MOL0     C34206  10.905   4.427  11.930  0.3686  0.1551  0.0108
  260MOL0     C34207  10.882   4.520  12.026  1.1210  0.1660 -0.6539
  260MOL0     C34208  10.945   4.656  12.055 -0.1319  0.1791  0.2486
  260MOL0     C34209  11.090   4.632  12.127  0.0891  0.5100  1.1183
  260MOL0     C34210  11.168   4.761  12.110 -0.0336 -0.5110  0.4091
  260MOL0     C34211  11.298   4.760  12.184 -0.0321  0.1162  0.8337
  260MOL0     O34212  11.403   4.722  12.089 -0.4170 -0.3856  0.5258
  260MOL0     C34213  11.506   4.648  12.140  0.8294  0.2543  0.0928
  260MOL0     C34214  11.598   4.620  12.041 -0.1905 -0.3666  0.1550
  260MOL0     C34215  11.715   4.558  12.071 -0.1758  0.0087 -0.2303
  260MOL0     C34216  11.740   4.489  12.197  0.4114 -0.7201  0.1591
  260MOL0     C34217  11.873   4.430  12.231  0.0691  0.2424 -0.1192
  260MOL0     O34218  11.982   4.469  12.165 -0.3545 -0.5192 -1.0846
  260MOL0     C34219  12.111   4.461  12.200 -0.0934  0.0707  0.5671
  260MOL0     C34220  12.165   4.353  12.261 -0.1727  0.2943 -0.0860
  260MOL0     C34221  12.301   4.344  12.291 -0.3997  0.5887  0.2501
  260MOL0     C34222  12.383   4.453  12.262 -0.6090 -0.0316 -0.6575
  260MOL0     O34223  12.512   4.455  12.299  0.2876  0.4248  0.2326
  260MOL0     C34224  12.584   4.329  12.299 -0.9473 -1.1412  0.0933
  260MOL0     C34225  12.724   4.360  12.248 -0.4055 -0.0853  0.0396
  260MOL0     C34226  12.802   4.230  12.231  1.2525 -0.1397  0.6730
  260MOL0     C34227  12.913   4.253  12.125  0.2748 -0.6484  0.3344
  260MOL0     C34228  13.017   4.348  12.184 -0.4186  0.0841  1.0756
  260MOL0     C34229  13.150   4.326  12.107 -0.4812 -0.7470 -0.0377
  260MOL0     C34230  13.256   4.417  12.177  0.5089 -0.1046  1.2651
  260MOL0     C34231  13.390   4.411  12.103 -0.1869  0.5263 -0.2461
  260MOL0    Cl34232  13.524   4.422  12.234  0.0613  0.0583 -0.4578
  260MOL0     C34233  12.324   4.560  12.199 -0.9565  0.2202  0.2410
  260MOL0     C34234  12.191   4.567  12.168  0.3444 -0.9020 -0.3347
  260MOL0     O34235  11.865   4.367  12.332 -0.6864 -0.4218 -0.5449
  260MOL0     C34236  11.633   4.506  12.291 -0.5573 -0.3733  0.0572
  260MOL0     C34237  11.525   4.589  12.264  0.0600  0.2407  1.3571
  260MOL0     N34238  10.784   4.481  12.109 -0.5233  0.2631  0.2502
  260MOL0     N34239  10.740   4.366  12.075  0.6617  0.0579 -0.1468
  260MOL0     C34240  10.984   3.637  10.980 -0.7208  0.1956  0.0697
  260MOL0     C34241  11.030   3.523  10.902 -0.3766  0.2850  0.0405
  260MOL0     C34242  11.302   3.302  10.589  0.0636  0.7886  0.6313
  260MOL0     C34243  11.282   3.178  10.656  0.4214  0.2960  0.3502
  260MOL0     C34244  11.332   3.055  10.615 -0.3736 -0.6949  0.4112
  260MOL0     C34245  11.427   3.054  10.520 -0.1044  0.8892  0.4913
  260MOL0     O34246  11.496   2.941  10.490 -0.2534  0.2952 -0.1771
  260MOL0     C34247  11.447   2.805  10.498  0.1824  0.4265 -0.8236
  260MOL0     C34248  11.369   2.772  10.372 -0.4187 -0.8285  0.7098
  260MOL0     C34249  11.332   2.626  10.357 -0.1455 -0.1529 -0.2569
  260MOL0     C34250  11.417   2.564  10.241 -0.2151 -0.4630 -0.2226
  260MOL0     C34251  11.353   2.444  10.180  0.4326  0.2003  0.7793
  260MOL0     C34252  11.307   2.344  10.133 -1.0244 -0.1136 -0.1603
  260MOL0     C34253  11.443   3.167  10.435 -0.6463 -0.8675 -0.2155
  260MOL0     C34254  11.371   3.289  10.467 -0.0114 -0.1679 -0.2044
  260MOL0     H34255  11.311   3.675  10.776  1.0460 -1.0330  2.3431
  260MOL0     H34256  11.206   3.867  10.891 -0.6412  0.9971 -4.1344
  260MOL0     H34257  10.933   3.760  11.220  2.9002 -1.1237 -0.0530
  260MOL0     H34258  10.839   3.879  11.115  1.6208  2.0012 -2.3151
  260MOL0     H34259  10.936   4.067  11.221 -1.8589 -0.5382 -0.9866
  260MOL0     H34260  11.049   3.959  11.321  0.7901 -1.5007 -2.1762
  260MOL0     H34261  10.828   3.896  11.449  1.6974 -1.5761 -1.3891
  260MOL0     H34262  10.743   3.967  11.322 -1.3340 -0.3854  1.5640
  260MOL0     H34263  10.932   4.157  11.477 -0.3689  1.5101  1.9198
  260MOL0     H34264  10.775   4.193  11.390 -0.7189  0.0379 -0.0863
  260MOL0     H34265  10.829   4.051  11.660 -0.2877 -1.1472 -1.3968
  260MOL0     H34266  10.671   4.045  11.582  1.0990 -3.7415 -1.5925
  260MOL0     H34267  10.661   4.284  11.595  1.7200 -0.2712 -0.0261
  260MOL0     H34268  10.817   4.293  11.666  0.7755  0.0670  0.8339
  260MOL0     H34269  10.620   4.305  11.832 -1.5431 -1.7791  0.8730
  260MOL0     H34270  10.597   4.138  11.820 -2.3528  1.8804  1.1998
  260MOL0     H34271  10.878   4.157  11.856 -2.9231 -3.7202 -2.0531
  260MOL0     H34272  10.751   4.117  11.968  1.9192 -0.5670  1.7113
  260MOL0     H34273  10.981   4.419  11.853 -0.9688 -1.6878 -1.1894
  260MOL0     H34274  10.882   4.707  12.128  3.7431  0.6226  3.6536
  260MOL0     H34275  10.954   4.712  11.962 -1.9829  1.8257  1.0061
  260MOL0     H34276  11.150   4.556  12.076 -3.4455 -1.9555  0.1844
  260MOL0     H34277  11.078   4.595  12.230 -1.1058 -1.0578  0.4519
  260MOL0     H34278  11.199   4.773  12.006  3.2588  1.0336  1.4187
  260MOL0     H34279  11.112   4.853  12.129  3.5910  2.0717 -0.3578
  260MOL0     H34280  11.289   4.694  12.271 -1.2725 -0.7094  0.1207
  260MOL0     H34281  11.319   4.855  12.233 -1.9144 -0.5748  3.1403
  260MOL0     H34282  11.570   4.663  11.946 -2.5287  1.6335  1.6161
  260MOL0     H34283  11.788   4.546  11.992 -2.9208 -1.3118 -2.7568
  260MOL0     H34284  12.111   4.270  12.307 -0.9076 -0.5286 -2.3116
  260MOL0     H34285  12.352   4.255  12.327 -0.2019  0.7028  0.2565
  260MOL0     H34286  12.536   4.240  12.257 -2.1538 -1.1016  1.3163
  260MOL0     H34287  12.584   4.308  12.406 -1.9477 -0.7658  0.1768
  260MOL0     H34288  12.766   4.426  12.325 -0.9950  2.6263 -1.7924
  260MOL0     H34289  12.702   4.407  12.151 -3.5329  1.5837  1.4267
  260MOL0     H34290  12.730   4.158  12.194 -0.0228  2.1349 -1.6229
  260MOL0     H34291  12.850   4.206  12.326 -1.9185  2.2702  3.0831
  260MOL0     H34292  12.963   4.158  12.107  0.6790 -0.2373 -0.7899
  260MOL0     H34293  12.868   4.289  12.032 -0.0503  1.4246  1.2344
  260MOL0     H34294  13.027   4.327  12.290 -0.0062  0.5622  1.1345
  260MOL0     H34295  12.974   4.449  12.174 -1.7736 -0.4912  0.8065
  260MOL0     H34296  13.140   4.349  12.000 -1.0603 -1.4140 -0.1343
  260MOL0     H34297  13.184   4.223  12.119  0.4870 -0.5406 -0.8337
  260MOL0     H34298  13.220   4.519  12.194  1.5474  0.1897  1.7444
  260MOL0     H34299  13.273   4.373  12.276 -1.8602 -0.9087  1.3778
  260MOL0     H34300  13.400   4.498  12.036  0.9835  0.2974 -0.3873
  260MOL0     H34301  13.408   4.324  12.040  0.4562  1.7583 -1.8299
  260MOL0     H34302  12.391   4.639  12.166 -1.5543  1.2503  1.3691
  260MOL0     H34303  12.161   4.660  12.122  2.0309 -0.1126  0.0834
  260MOL0     H34304  11.639   4.464  12.390 -2.1227 -0.3093  0.1960
  260MOL0     H34305  11.457   4.605  12.347 -0.2657 -5.0309  2.4153
  260MOL0     H34306  10.896   3.633  11.044 -1.2847 -0.7293 -0.7288
  260MOL0     H34307  10.984   3.427  10.919  1.7724 -1.1917 -1.8854
  260MOL0     H34308  11.222   3.181  10.746  0.5875 -4.2579  0.8608
  260MOL0     H34309  11.319   2.962  10.671  1.5868 -3.7695 -3.7225
  260MOL0     H34310  11.387   2.805  10.590 -2.6207  1.9890 -2.5152
  260MOL0     H34311  11.530   2.734  10.505 -0.1589 -0.1201 -2.0009
  260MOL0     H34312  11.275   2.828  10.372  0.6447  1.1186  2.3070
  260MOL0     H34313  11.421   2.803  10.280 -3.6818  1.6801 -0.4774
  260MOL0     H34314  11.224   2.625  10.340 -0.5014 -2.4170  1.6795
  260MOL0     H34315  11.350   2.566  10.446  1.5668  1.6266  0.6807
  260MOL0     H34316  11.436   2.635  10.160  2.2416  1.7945  2.0961
  260MOL0     H34317  11.517   2.531  10.268  0.4036  0.6070 -1.1387
  260MOL0     H34318  11.292   2.248  10.087  2.3836 -0.0384 -1.7532
  260MOL0     H34319  11.506   3.149  10.348 -1.6822  3.3389 -2.0905
  260MOL0     H34320  11.370   3.379  10.407 -2.1676  0.5339  0.7765
  261MOL0     O34321   5.736   6.741   0.239 -0.5811  0.2515 -0.3584
  261MOL0     C34322   5.825   6.815   0.188  0.1372 -0.2683  0.1380
  261MOL0     O34323   5.807   6.943   0.139  0.3529 -0.3525 -0.6280
  261MOL0     C34324   5.686   7.002   0.168 -0.1078  0.3371 -0.6098
  261MOL0     C34325   5.603   7.036   0.064  0.5041  0.6379 -0.0253
  261MOL0     C34326   5.467   7.071   0.093  0.7946  0.6540 -0.3218
  261MOL0     C34327   5.412   7.080   0.222  0.6376 -0.2195 -0.2597
  261MOL0     O34328   5.280   7.115   0.239  1.0782 -0.8448  0.5880
  261MOL0     C34329   5.214   7.107   0.364  0.4155 -0.4908  0.2927
  261MOL0     C34330   5.068   7.134   0.369 -0.2528 -0.4106  0.3731
  261MOL0     C34331   5.030   7.264   0.449  1.1792  0.1194 -0.1294
  261MOL0     C34332   4.873   7.269   0.481  0.7325 -0.1406  0.0227
  261MOL0     C34333   4.797   7.248   0.346 -0.0722  0.4212  0.9091
  261MOL0     C34334   4.662   7.321   0.338  0.4151  0.0875  0.2761
  261MOL0     C34335   4.585   7.324   0.207  0.6558 -0.1226 -0.8715
  261MOL0     C34336   4.640   7.429   0.117 -0.6494 -0.6207  0.7973
  261MOL0     N34337   4.537   7.500   0.038 -0.0621  0.3246 -0.1087
  261MOL0     C34338   4.547   7.600  -0.054 -0.6887  0.8066 -0.1363
  261MOL0     C34339   4.429   7.639  -0.090 -0.0249  0.6415  0.3988
  261MOL0     C34340   4.395   7.743  -0.187 -0.6643 -0.0538 -0.1808
  261MOL0     C34341   4.387   7.876  -0.111 -0.5792 -0.3584  0.6548
  261MOL0     C34342   4.521   7.939  -0.071 -0.5385 -0.2355  0.2627
  261MOL0     C34343   4.633   7.967  -0.173  0.3169  0.5679 -0.1592
  261MOL0     O34344   4.738   8.056  -0.130  0.3882 -0.1603 -0.4385
  261MOL0     C34345   4.842   8.091  -0.211 -0.9182  0.5529  0.4413
  261MOL0     C34346   4.961   8.154  -0.163  0.6549 -0.7934  0.2160
  261MOL0     C34347   5.075   8.177  -0.249  0.8769 -0.1687  0.1035
  261MOL0     C34348   5.069   8.133  -0.380 -0.4593 -0.0081  0.0887
  261MOL0     C34349   5.192   8.145  -0.468 -0.1658 -0.1512  0.9082
  261MOL0     O34350   5.304   8.207  -0.413  0.5518 -0.5816 -0.5916
  261MOL0     C34351   5.403   8.252  -0.491 -0.0651  0.5845 -0.9269
  261MOL0     C34352   5.517   8.184  -0.519 -0.5096  0.0320 -0.3808
  261MOL0     C34353   5.615   8.236  -0.609  0.3881 -0.1468 -0.2376
  261MOL0     C34354   5.613   8.367  -0.653  0.2610 -0.9230 -0.2794
  261MOL0     O34355   5.723   8.410  -0.723 -0.6636  0.3038 -0.5362
  261MOL0     C34356   5.704   8.515  -0.817  0.0936 -0.7183  0.6728
  261MOL0     C34357   5.830   8.524  -0.908 -0.1950 -0.3833  1.1456
  261MOL0     C34358   5.838   8.631  -1.018 -0.6709  0.2945 -0.3571
  261MOL0     C34359   5.967   8.640  -1.104 -0.7044  0.5002  0.3403
  261MOL0     C34360   5.952   8.571  -1.242 -0.9017  0.3962  0.5064
  261MOL0     C34361   6.092   8.589  -1.322 -0.3292  0.5661  0.4543
  261MOL0     C34362   6.085   8.535  -1.462 -0.1379  0.5304 -0.7552
  261MOL0     C34363   6.223   8.502  -1.512 -0.3678  0.2755  0.4235
  261MOL0    Cl34364   6.203   8.423  -1.683 -0.1567 -0.3066 -0.4548
  261MOL0     C34365   5.515   8.452  -0.602  0.6366  0.9331 -0.5160
  261MOL0     C34366   5.405   8.394  -0.521  0.1287 -0.5003 -0.0782
  261MOL0     O34367   5.195   8.089  -0.580 -0.1740  0.0355  0.0089
  261MOL0     C34368   4.954   8.059  -0.428  0.4243 -0.7792  0.1903
  261MOL0     C34369   4.840   8.044  -0.345  0.3786  0.3962  0.1509
  261MOL0     N34370   4.339   7.554  -0.031 -0.1814  0.3747 -0.1169
  261MOL0     N34371   4.405   7.475   0.044  0.0971 -0.3152 -0.1731
  261MOL0     C34372   5.501   7.052   0.329  0.3976  0.6928  0.5884
  261MOL0     C34373   5.633   7.006   0.299 -0.3875 -0.4822 -0.2358
  261MOL0     C34374   5.971   6.772   0.182  0.4443  0.5550 -0.5358
  261MOL0     C34375   6.066   6.863   0.139 -0.6284  0.4450 -0.7011
  261MOL0     C34376   6.195   6.813   0.123  1.0792  0.2363 -0.2048
  261MOL0     C34377   6.230   6.678   0.144  0.4835 -2.2284 -0.5780
  261MOL0     O34378   6.357   6.623   0.107 -0.3179  0.0656 -0.1167
  261MOL0     C34379   6.438   6.689   0.014  0.7057 -0.5285 -0.6430
  261MOL0     C34380   6.535   6.589  -0.043  0.2346  0.1003 -0.9445
  261MOL0     C34381   6.629   6.659  -0.148 -0.8930 -0.0357 -0.2658
  261MOL0     C34382   6.748   6.572  -0.186 -0.0241  0.8313  0.3214
  261MOL0     C34383   6.794   6.600  -0.324 -0.0602  0.8075  1.1765
  261MOL0     C34384   6.826   6.620  -0.444 -0.4680 -0.4233 -1.0137
  261MOL0     C34385   6.143   6.599   0.205 -0.4809  1.0841  0.1652
  261MOL0     C34386   6.010   6.639   0.216  0.7962 -0.3997  0.3470
  261MOL0     H34387   5.638   7.040  -0.039  0.4482  1.3112 -0.0274
  261MOL0     H34388   5.401   7.081   0.007  0.8187 -1.8716 -0.6949
  261MOL0     H34389   5.255   7.176   0.438  0.5072 -2.2189  1.9398
  261MOL0     H34390   5.230   7.005   0.401 -0.1976  0.2691  2.9030
  261MOL0     H34391   5.030   7.044   0.419  2.4687 -1.0497  1.4671
  261MOL0     H34392   5.030   7.132   0.266  2.2317 -1.0417 -0.6132
  261MOL0     H34393   5.066   7.353   0.398 -0.6481  2.0175  1.7027
  261MOL0     H34394   5.083   7.258   0.545  1.5507 -1.2840 -0.3957
  261MOL0     H34395   4.843   7.195   0.556  1.6722 -2.1585 -1.5317
  261MOL0     H34396   4.841   7.364   0.527 -0.7660 -1.3264  1.5870
  261MOL0     H34397   4.807   7.140   0.328  2.8940  0.7444 -0.0385
  261MOL0     H34398   4.854   7.290   0.263  0.9242  0.1933  1.4621
  261MOL0     H34399   4.675   7.421   0.382  2.1025 -0.3325  0.8186
  261MOL0     H34400   4.596   7.276   0.412 -0.3407  0.9667  0.1543
  261MOL0     H34401   4.596   7.231   0.150  2.9736  0.3818 -1.3657
  261MOL0     H34402   4.481   7.351   0.224  1.0364  0.4082  0.7611
  261MOL0     H34403   4.711   7.382   0.048  3.6000  2.9691  2.2781
  261MOL0     H34404   4.705   7.497   0.173 -0.5437 -0.8791  0.9854
  261MOL0     H34405   4.642   7.650  -0.070  0.8807 -2.1357 -0.6764
  261MOL0     H34406   4.305   7.710  -0.240 -1.1604  0.0533  0.5736
  261MOL0     H34407   4.468   7.753  -0.268 -1.3843 -1.0200 -0.9761
  261MOL0     H34408   4.317   7.868  -0.027 -1.3959 -3.5617 -0.2091
  261MOL0     H34409   4.354   7.945  -0.189  0.1659 -3.0693 -2.2795
  261MOL0     H34410   4.502   8.030  -0.013  0.0409 -1.0202  1.7242
  261MOL0     H34411   4.577   7.885   0.006  1.9541  0.8112 -0.7120
  261MOL0     H34412   4.587   8.004  -0.265 -1.0711  0.2713  0.3875
  261MOL0     H34413   4.676   7.869  -0.198 -0.1417  0.3861 -0.2593
  261MOL0     H34414   4.973   8.188  -0.061  1.4705  0.4892 -0.2779
  261MOL0     H34415   5.159   8.222  -0.198  2.7238  1.5749 -4.0192
  261MOL0     H34416   5.517   8.087  -0.472 -0.8367 -0.7868 -1.9852
  261MOL0     H34417   5.708   8.183  -0.627  1.2169  0.8086  1.0000
  261MOL0     H34418   5.678   8.615  -0.781  1.2496 -0.2269  0.1718
  261MOL0     H34419   5.616   8.481  -0.874  0.1655  0.4668 -0.1780
  261MOL0     H34420   5.844   8.432  -0.965  0.9571  0.0532  0.6704
  261MOL0     H34421   5.913   8.531  -0.837  0.6741 -0.6643  0.1851
  261MOL0     H34422   5.820   8.718  -0.955  0.8045 -1.0034  1.9958
  261MOL0     H34423   5.747   8.619  -1.078 -1.2662  0.5591  0.4721
  261MOL0     H34424   5.992   8.744  -1.127 -0.1607  0.4451  0.6586
  261MOL0     H34425   6.059   8.614  -1.050  1.2035  1.2440 -2.3594
  261MOL0     H34426   5.877   8.613  -1.310 -2.3312  0.4284  2.0280
  261MOL0     H34427   5.930   8.465  -1.228 -1.1773  0.5844  1.5563
  261MOL0     H34428   6.175   8.556  -1.260  2.0126  1.5340 -1.9461
  261MOL0     H34429   6.104   8.697  -1.337  0.6175  0.4755  0.4888
  261MOL0     H34430   6.025   8.444  -1.470  1.2501 -0.3107 -2.1871
  261MOL0     H34431   6.049   8.616  -1.527  1.7794  2.8546  0.8581
  261MOL0     H34432   6.284   8.442  -1.444  0.1558  1.3761  0.9609
  261MOL0     H34433   6.282   8.592  -1.531  0.0901 -0.4247 -1.8411
  261MOL0     H34434   5.522   8.559  -0.616 -0.8194  1.0364 -0.5683
  261MOL0     H34435   5.324   8.464  -0.498  0.0388 -0.9229  0.9604
  261MOL0     H34436   4.958   8.026  -0.532 -0.6362 -3.1038  0.8422
  261MOL0     H34437   4.754   8.005  -0.397  2.4058 -1.5607 -1.9983
  261MOL0     H34438   5.467   7.053   0.432 -0.2905  1.8322  0.3706
  261MOL0     H34439   5.694   6.990   0.387  1.4645 -0.6829 -1.4902
  261MOL0     H34440   6.044   6.969   0.130  1.6492  0.9377 -1.0493
  261MOL0     H34441   6.268   6.878   0.076  1.9972 -0.1742  0.6032
  261MOL0     H34442   6.486   6.763   0.079 -1.0479 -1.1284  1.4651
  261MOL0     H34443   6.387   6.735  -0.072 -2.3382 -0.4747  1.0558
  261MOL0     H34444   6.590   6.551   0.043  0.8393 -3.3470 -2.6462
  261MOL0     H34445   6.475   6.507  -0.084 -2.3714  1.9452 -1.1045
  261MOL0     H34446   6.674   6.751  -0.109 -2.0324  1.7877 -2.9764
  261MOL0     H34447   6.567   6.682  -0.235 -3.7756 -0.9125  1.4370
  261MOL0     H34448   6.831   6.582  -0.116  0.5613 -1.1249 -0.0309
  261MOL0     H34449   6.731   6.464  -0.183  2.4469  0.3577 -0.3971
  261MOL0     H34450   6.854   6.643  -0.544 -2.5060 -2.1532 -2.0672
  261MOL0     H34451   6.179   6.497   0.204  1.1617  1.6228  0.4497
  261MOL0     H34452   5.949   6.561   0.260  1.3210  0.5698  2.9546
  262MOL0     O34453   7.611   1.231   6.843 -0.4393 -0.0606  0.8362
  262MOL0     C34454   7.608   1.332   6.903 -0.2585  0.6471 -0.1271
  262MOL0     O34455   7.496   1.396   6.945 -0.2875 -0.1908  0.3349
  262MOL0     C34456   7.375   1.382   6.881 -1.8050 -0.1518  0.4224
  262MOL0     C34457   7.259   1.373   6.963 -0.0828 -0.8310  0.6073
  262MOL0     C34458   7.133   1.349   6.905  0.1147  0.4830  0.6512
  262MOL0     C34459   7.120   1.320   6.770 -0.5749  0.2697  1.0003
  262MOL0     O34460   7.006   1.286   6.704  0.3162  0.1259 -0.2109
  262MOL0     C34461   6.889   1.312   6.780 -0.6384 -0.3820  0.1591
  262MOL0     C34462   6.763   1.262   6.705 -0.2929 -0.9191 -0.3692
  262MOL0     C34463   6.637   1.249   6.800 -0.6275 -0.8743 -0.3615
  262MOL0     C34464   6.511   1.207   6.721 -0.2775 -0.0187  0.4949
  262MOL0     C34465   6.405   1.184   6.825  0.9832 -0.3366  0.3931
  262MOL0     C34466   6.269   1.118   6.774  0.1724 -0.2510  0.4900
  262MOL0     C34467   6.183   1.091   6.886  0.5037 -0.2015  0.3750
  262MOL0     C34468   6.045   1.048   6.841 -0.9725  0.0440 -0.2268
  262MOL0     N34469   5.962   0.987   6.943  0.0549  0.0770 -1.2534
  262MOL0     C34470   5.844   1.030   6.986  0.5357 -0.1763 -0.3556
  262MOL0     C34471   5.819   0.961   7.101  0.5006  0.1817  0.9019
  262MOL0     C34472   5.712   0.981   7.210  0.0688  0.1992  0.1357
  262MOL0     C34473   5.583   0.934   7.158  0.2746 -0.1872  0.2984
  262MOL0     C34474   5.476   0.932   7.265 -1.0853 -0.0576  0.1814
  262MOL0     C34475   5.466   1.048   7.358  0.6763 -0.3689 -0.0414
  262MOL0     O34476   5.437   1.163   7.278  0.6876 -1.0338  0.2245
  262MOL0     C34477   5.311   1.173   7.221  0.5591  0.0030  0.1231
  262MOL0     C34478   5.301   1.282   7.134  0.4353 -0.1596 -0.4925
  262MOL0     C34479   5.183   1.297   7.059 -0.2573 -0.7954  0.0876
  262MOL0     C34480   5.072   1.210   7.073  0.7004 -0.8298  0.6358
  262MOL0     C34481   4.973   1.203   6.964  0.2853  0.8470 -0.1446
  262MOL0     O34482   4.959   1.313   6.879  1.0982  0.4195 -0.8082
  262MOL0     C34483   4.873   1.302   6.776  1.4354  0.7912 -0.0970
  262MOL0     C34484   4.913   1.284   6.646 -0.3993  0.8164 -0.4376
  262MOL0     C34485   4.819   1.264   6.544 -1.2623  1.1132  0.4924
  262MOL0     C34486   4.679   1.274   6.572  0.0488  0.5151  0.5043
  262MOL0     O34487   4.579   1.278   6.480  0.1052 -0.5437 -0.4905
  262MOL0     C34488   4.602   1.228   6.350  0.2138 -0.0825 -1.1849
  262MOL0     C34489   4.485   1.241   6.262  0.2170 -0.3225  0.6696
  262MOL0     C34490   4.434   1.392   6.246  0.5414 -0.2199  0.1035
  262MOL0     C34491   4.296   1.399   6.178  0.4094  1.1887 -0.1980
  262MOL0     C34492   4.250   1.547   6.151 -0.7023 -0.2531  0.0408
  262MOL0     C34493   4.163   1.603   6.259 -0.0146  0.0675  0.1126
  262MOL0     C34494   4.037   1.519   6.296 -0.6574 -0.3404 -0.0046
  262MOL0     C34495   3.931   1.596   6.382  0.3882  0.5299 -0.2838
  262MOL0    Cl34496   3.877   1.732   6.286 -0.2739 -0.3571  0.1182
  262MOL0     C34497   4.643   1.293   6.708  1.0806  0.1289 -0.1688
  262MOL0     C34498   4.733   1.297   6.812 -0.1861 -0.1877  0.3549
  262MOL0     O34499   4.909   1.098   6.960  0.0838  0.8492 -0.2961
  262MOL0     C34500   5.073   1.116   7.178  0.3632  0.3144 -0.7144
  262MOL0     C34501   5.197   1.099   7.250  0.4611 -0.6123 -0.2190
  262MOL0     N34502   5.920   0.865   7.108 -0.0594 -0.6928  0.0443
  262MOL0     N34503   6.005   0.883   7.020  0.4021  0.2986  0.1566
  262MOL0     C34504   7.234   1.323   6.687  0.4163  0.3111  0.0808
  262MOL0     C34505   7.358   1.360   6.742 -0.3698  0.2603 -0.0647
  262MOL0     C34506   7.738   1.386   6.950  0.0722  0.0431 -0.8165
  262MOL0     C34507   7.862   1.318   6.934 -0.5244 -0.4878  0.1803
  262MOL0     C34508   7.980   1.364   6.996 -0.0857 -0.6342  0.4118
  262MOL0     C34509   7.978   1.475   7.086 -0.0484  0.3432  0.8138
  262MOL0     O34510   8.086   1.530   7.152 -0.0203 -0.1952 -0.2161
  262MOL0     C34511   8.224   1.523   7.104 -0.1691 -0.2907 -0.3488
  262MOL0     C34512   8.311   1.567   7.217 -0.8631  0.2296  0.5797
  262MOL0     C34513   8.311   1.462   7.331  0.3980  0.6180 -0.8577
  262MOL0     C34514   8.395   1.503   7.453  0.4675 -0.7801 -0.4599
  262MOL0     C34515   8.532   1.520   7.409  0.0311  0.1027 -0.7045
  262MOL0     C34516   8.646   1.544   7.376  0.1626 -0.7918 -0.0069
  262MOL0     C34517   7.856   1.532   7.102 -0.0339 -0.1082  0.6752
  262MOL0     C34518   7.739   1.499   7.035  0.3994 -0.2745  0.1087
  262MOL0     H34519   7.275   1.410   7.064  1.1557 -1.3331  0.6188
  262MOL0     H34520   7.046   1.366   6.968  0.5513 -2.0670  2.0944
  262MOL0     H34521   6.885   1.417   6.813 -0.1780 -0.3066 -0.0217
  262MOL0     H34522   6.893   1.264   6.878 -2.5852  0.4896  0.7175
  262MOL0     H34523   6.772   1.165   6.655  2.2714  0.7080 -3.4428
  262MOL0     H34524   6.739   1.335   6.627 -0.6475  1.0570  1.5145
  262MOL0     H34525   6.611   1.341   6.853  1.1049 -0.5114 -0.0649
  262MOL0     H34526   6.658   1.166   6.867 -1.3278 -0.3298  0.5501
  262MOL0     H34527   6.484   1.291   6.656  1.4934  1.8273  2.0208
  262MOL0     H34528   6.535   1.125   6.652  0.5828  2.6732 -2.6916
  262MOL0     H34529   6.382   1.279   6.874 -0.6507 -1.7285  2.5137
  262MOL0     H34530   6.448   1.110   6.893 -3.1847 -3.3856  0.1362
  262MOL0     H34531   6.298   1.027   6.721  0.7023  0.1613  0.0616
  262MOL0     H34532   6.219   1.180   6.699 -2.2682 -4.1744 -1.4696
  262MOL0     H34533   6.223   1.005   6.941 -1.6284 -0.3894  1.7415
  262MOL0     H34534   6.176   1.174   6.957 -1.3429  4.1197 -4.2537
  262MOL0     H34535   6.058   0.974   6.761  0.8939  0.7007 -0.5766
  262MOL0     H34536   5.992   1.132   6.795 -1.2803  0.4055  0.7571
  262MOL0     H34537   5.785   1.111   6.943 -0.0701 -0.3460  0.1422
  262MOL0     H34538   5.700   1.084   7.244 -3.6114 -0.4193  1.1446
  262MOL0     H34539   5.742   0.921   7.296 -0.3551  2.1583  1.7338
  262MOL0     H34540   5.600   0.836   7.113 -0.4765 -1.5515  2.7980
  262MOL0     H34541   5.551   1.004   7.080  3.1285 -0.5270 -1.3336
  262MOL0     H34542   5.379   0.915   7.217 -0.5668 -1.6216 -0.3467
  262MOL0     H34543   5.501   0.842   7.322  0.8121  0.4428  0.2093
  262MOL0     H34544   5.564   1.063   7.404  1.2242  0.3171 -1.3811
  262MOL0     H34545   5.389   1.028   7.433  1.8534 -3.4438  0.4845
  262MOL0     H34546   5.384   1.350   7.121  0.6143 -0.2200  0.2676
  262MOL0     H34547   5.198   1.376   6.986  3.1913 -1.9015 -0.6083
  262MOL0     H34548   5.018   1.282   6.617  0.4132  0.3553  2.3003
  262MOL0     H34549   4.852   1.235   6.445 -1.2153  0.2641  0.7477
  262MOL0     H34550   4.612   1.119   6.358 -0.5343 -0.1252 -0.8078
  262MOL0     H34551   4.684   1.282   6.301  0.9445 -0.1102 -0.0321
  262MOL0     H34552   4.403   1.178   6.298 -0.3113  0.4817  0.9013
  262MOL0     H34553   4.523   1.217   6.162 -2.1301  0.7995 -0.5581
  262MOL0     H34554   4.509   1.460   6.206 -2.0586  2.2017 -0.9966
  262MOL0     H34555   4.413   1.433   6.345  1.2168 -0.5514  0.3864
  262MOL0     H34556   4.302   1.345   6.083 -1.6579  0.6859 -0.0810
  262MOL0     H34557   4.225   1.339   6.236  0.1081  0.7967 -0.9669
  262MOL0     H34558   4.187   1.545   6.062  0.7389 -2.3396 -1.0366
  262MOL0     H34559   4.338   1.610   6.134  0.1510 -1.1430  0.9865
  262MOL0     H34560   4.142   1.705   6.226  2.7327  0.7619  0.2472
  262MOL0     H34561   4.219   1.612   6.353 -0.2338  0.6040  0.1957
  262MOL0     H34562   3.980   1.480   6.211  0.4512  0.0392 -0.9530
  262MOL0     H34563   4.060   1.435   6.362 -0.5207  0.5452  1.1068
  262MOL0     H34564   3.976   1.619   6.479 -0.9481  1.4095  0.1655
  262MOL0     H34565   3.846   1.527   6.382 -0.8224  1.9225  1.5967
  262MOL0     H34566   4.538   1.297   6.733  0.6868  1.2951 -1.8273
  262MOL0     H34567   4.711   1.314   6.917  1.5903  2.4752  0.3975
  262MOL0     H34568   4.989   1.050   7.194 -0.4279  1.4705  0.0980
  262MOL0     H34569   5.197   1.033   7.336  0.8337 -0.7632 -0.3323
  262MOL0     H34570   7.233   1.304   6.580 -0.0345 -0.6007  0.2380
  262MOL0     H34571   7.442   1.374   6.675  0.6536 -2.0100  0.6502
  262MOL0     H34572   7.877   1.238   6.862  0.4739 -0.3475  0.2164
  262MOL0     H34573   8.063   1.296   6.983 -0.1994 -0.7428  0.2574
  262MOL0     H34574   8.231   1.580   7.012  0.6273 -1.3720 -0.9842
  262MOL0     H34575   8.252   1.419   7.085  1.7385  0.2028 -0.4576
  262MOL0     H34576   8.413   1.581   7.181 -2.6580  3.2312 -4.2596
  262MOL0     H34577   8.269   1.660   7.256 -3.0303  0.6222 -2.4002
  262MOL0     H34578   8.335   1.361   7.297 -0.0329 -0.2624  1.3128
  262MOL0     H34579   8.208   1.451   7.366  0.7997 -0.4622  0.0184
  262MOL0     H34580   8.355   1.582   7.516 -1.8959 -2.4586  0.3052
  262MOL0     H34581   8.392   1.415   7.518  0.6922 -0.6613 -0.2904
  262MOL0     H34582   8.744   1.569   7.340  1.6778 -2.8814  2.3080
  262MOL0     H34583   7.858   1.606   7.182 -0.2136  1.7729 -0.9625
  262MOL0     H34584   7.648   1.558   7.042  0.4961 -0.3403  2.7623
  263MOL0     O34585   9.202   5.607   2.050 -0.4497  0.2618  1.0254
  263MOL0     C34586   9.271   5.608   2.153  0.5587  0.2294  0.2727
  263MOL0     O34587   9.294   5.726   2.223  0.2117 -0.5792  0.6900
  263MOL0     C34588   9.223   5.834   2.196 -1.0196  0.6211 -0.3773
  263MOL0     C34589   9.093   5.852   2.246 -0.3219  0.3444  0.8078
  263MOL0     C34590   9.020   5.969   2.218  0.0350  0.0802 -0.2199
  263MOL0     C34591   9.076   6.079   2.151 -0.2553  0.6956  0.3120
  263MOL0     O34592   9.022   6.206   2.124  0.0125  0.7704 -0.8589
  263MOL0     C34593   8.885   6.221   2.147  1.2943 -0.0917 -1.3844
  263MOL0     C34594   8.839   6.360   2.103  1.2170 -0.1870 -0.0283
  263MOL0     C34595   8.699   6.401   2.152  0.3724 -0.7558 -0.8238
  263MOL0     C34596   8.584   6.295   2.144  0.0485 -0.1736 -0.0804
  263MOL0     C34597   8.449   6.359   2.176 -1.2005  1.0129 -0.1057
  263MOL0     C34598   8.386   6.406   2.052  0.4939 -0.3273  0.4004
  263MOL0     C34599   8.274   6.501   2.096  0.2600 -0.0309 -0.0806
  263MOL0     C34600   8.168   6.426   2.178  0.1238  0.2403 -0.3871
  263MOL0     N34601   8.033   6.487   2.175  0.4453  0.3119  0.8003
  263MOL0     C34602   7.994   6.623   2.195 -0.4735  0.1483 -0.0349
  263MOL0     C34603   7.856   6.631   2.190  0.4962 -0.5691 -0.0217
  263MOL0     C34604   7.772   6.762   2.208 -0.2333  0.9965 -0.0758
  263MOL0     C34605   7.760   6.840   2.079  0.2774 -0.1439  0.1073
  263MOL0     C34606   7.649   6.946   2.078  0.0166  0.4472  0.6755
  263MOL0     C34607   7.684   7.087   2.139  0.1438  0.8781  0.1546
  263MOL0     O34608   7.610   7.189   2.071  0.5809 -0.5113  0.0466
  263MOL0     C34609   7.475   7.199   2.085 -0.1855  0.3539  0.4676
  263MOL0     C34610   7.396   7.122   2.178 -0.1283 -0.1765 -0.4488
  263MOL0     C34611   7.252   7.142   2.178 -0.3916 -0.0750  0.2451
  263MOL0     C34612   7.192   7.232   2.089  0.1921  0.3944 -0.1500
  263MOL0     C34613   7.053   7.256   2.101  0.9112  0.5309 -0.9827
  263MOL0     O34614   7.008   7.342   1.996 -0.1099  0.5986 -0.2872
  263MOL0     C34615   6.874   7.379   1.982  0.8523 -0.2153 -0.0167
  263MOL0     C34616   6.772   7.363   2.081 -0.3760 -0.2191 -0.1434
  263MOL0     C34617   6.649   7.413   2.058  0.2658 -0.0794  0.5329
  263MOL0     C34618   6.617   7.491   1.946 -0.2940 -0.1588 -0.0640
  263MOL0     O34619   6.506   7.563   1.951 -1.2664 -0.1601  0.2289
  263MOL0     C34620   6.395   7.497   1.902  0.3165  1.3748  0.0920
  263MOL0     C34621   6.286   7.452   2.009 -0.5037  0.6854  0.5246
  263MOL0     C34622   6.259   7.559   2.113 -0.5308 -0.1064  1.1709
  263MOL0     C34623   6.137   7.501   2.184  0.7290  0.5571  0.1504
  263MOL0     C34624   6.112   7.568   2.318 -0.1563  0.0928  0.2099
  263MOL0     C34625   6.006   7.486   2.395  0.6127 -0.4033  0.3044
  263MOL0     C34626   5.976   7.538   2.527  0.0323 -0.1388 -0.1724
  263MOL0     C34627   5.854   7.455   2.583  0.2567 -0.6280  0.1141
  263MOL0    Cl34628   5.785   7.530   2.728  0.0859  0.2711 -0.4163
  263MOL0     C34629   6.711   7.502   1.846  0.0276 -0.7538 -0.6423
  263MOL0     C34630   6.833   7.439   1.860  0.4561 -0.1469 -0.1347
  263MOL0     O34631   6.980   7.182   2.172 -0.3757 -0.4111  0.6228
  263MOL0     C34632   7.273   7.317   2.007 -0.7148  0.1799 -0.9599
  263MOL0     C34633   7.411   7.295   1.994 -0.7123  0.8826 -0.6108
  263MOL0     N34634   7.814   6.502   2.185 -0.1514  0.3164  0.7130
  263MOL0     N34635   7.915   6.419   2.189  0.2976  0.3250  0.2186
  263MOL0     C34636   9.200   6.057   2.098 -0.3054  0.6056 -0.5600
  263MOL0     C34637   9.274   5.939   2.118 -0.6090  0.4609  0.2282
  263MOL0     C34638   9.311   5.477   2.204  0.9458 -0.0230 -0.3712
  263MOL0     C34639   9.417   5.458   2.291  0.3855 -0.3807 -0.4325
  263MOL0     C34640   9.445   5.329   2.345  0.0187 -0.3573  0.8444
  263MOL0     C34641   9.367   5.221   2.313 -0.3630 -0.4400  0.2621
  263MOL0     O34642   9.387   5.090   2.363 -0.3442 -0.1677 -0.0813
  263MOL0     C34643   9.520   5.066   2.428  0.6413 -0.5763 -0.4867
  263MOL0     C34644   9.536   4.926   2.469  0.6126  0.1099  0.3665
  263MOL0     C34645   9.533   4.830   2.342  0.3801  0.4643 -0.6663
  263MOL0     C34646   9.525   4.683   2.387 -0.4155  0.1854  1.0627
  263MOL0     C34647   9.652   4.625   2.446  0.0451 -0.3857  0.7377
  263MOL0     C34648   9.763   4.587   2.478 -0.0654 -0.0730  0.1654
  263MOL0     C34649   9.268   5.235   2.225  1.3728 -0.7314 -0.2082
  263MOL0     C34650   9.234   5.362   2.166 -0.2407 -0.4286  0.9881
  263MOL0     H34651   9.050   5.768   2.300  1.8384 -1.2254  0.2449
  263MOL0     H34652   8.916   5.979   2.250  0.7810  2.0973  1.8986
  263MOL0     H34653   8.865   6.200   2.252 -0.9432  1.4921 -1.4282
  263MOL0     H34654   8.839   6.158   2.071 -1.9881  0.5459 -0.1042
  263MOL0     H34655   8.850   6.365   1.994  1.9436 -0.7835  0.0090
  263MOL0     H34656   8.915   6.434   2.128 -0.4972  1.5269  0.3466
  263MOL0     H34657   8.673   6.479   2.079  2.0361  0.4443 -0.1844
  263MOL0     H34658   8.699   6.450   2.250 -3.9320 -0.4033 -0.7972
  263MOL0     H34659   8.587   6.267   2.038 -4.2077 -0.2439 -0.3564
  263MOL0     H34660   8.602   6.213   2.214 -2.8020 -1.3924 -0.6100
  263MOL0     H34661   8.466   6.424   2.263 -0.5877 -0.6838  1.1023
  263MOL0     H34662   8.395   6.276   2.224  0.5997  0.1342  0.5198
  263MOL0     H34663   8.340   6.333   1.986  2.6851 -1.7091  0.3183
  263MOL0     H34664   8.461   6.467   2.001 -0.8044  1.0439  0.0607
  263MOL0     H34665   8.329   6.576   2.154 -0.4346 -0.2332  0.8767
  263MOL0     H34666   8.227   6.558   2.016 -1.4461 -0.0609  0.8541
  263MOL0     H34667   8.196   6.410   2.283 -1.8235 -4.2563 -0.3028
  263MOL0     H34668   8.155   6.328   2.131  1.7926  0.9230 -2.4391
  263MOL0     H34669   8.060   6.708   2.207 -2.5340  2.0815 -1.6050
  263MOL0     H34670   7.799   6.832   2.287 -3.5038  2.2983  0.0602
  263MOL0     H34671   7.672   6.731   2.241  0.3973 -1.6208 -0.4067
  263MOL0     H34672   7.730   6.766   2.004  2.3904 -1.8373  0.8220
  263MOL0     H34673   7.857   6.879   2.047 -0.0169  1.8101  1.4143
  263MOL0     H34674   7.626   6.969   1.973 -0.6730  1.0190  0.9394
  263MOL0     H34675   7.554   6.920   2.126  0.0250  0.8820  0.9357
  263MOL0     H34676   7.789   7.100   2.114  0.0587  1.6595  0.1948
  263MOL0     H34677   7.665   7.090   2.247 -1.6966  2.2718 -0.1551
  263MOL0     H34678   7.430   7.048   2.250 -0.7173 -2.0077 -1.9621
  263MOL0     H34679   7.186   7.082   2.239 -2.9938  2.9915  0.7244
  263MOL0     H34680   6.795   7.316   2.176  1.9839  0.9141 -0.0855
  263MOL0     H34681   6.569   7.402   2.130 -1.3841  3.2144 -0.5492
  263MOL0     H34682   6.418   7.412   1.836  2.1030  1.3941  0.6363
  263MOL0     H34683   6.348   7.567   1.832 -1.9601  1.4191  1.5482
  263MOL0     H34684   6.326   7.366   2.062 -1.9236  0.5688  1.4702
  263MOL0     H34685   6.190   7.423   1.964 -0.4590 -2.4021  2.1259
  263MOL0     H34686   6.236   7.655   2.065  1.4406 -0.8332 -1.5196
  263MOL0     H34687   6.353   7.578   2.167  1.4046 -2.2277 -1.1825
  263MOL0     H34688   6.051   7.537   2.127 -1.3687 -2.4575  1.1423
  263MOL0     H34689   6.139   7.392   2.195  0.7796  0.3114 -1.9454
  263MOL0     H34690   6.085   7.672   2.298 -1.7058 -0.4108 -0.4703
  263MOL0     H34691   6.205   7.568   2.375  0.9890 -0.8168 -1.5745
  263MOL0     H34692   6.042   7.382   2.401  2.0149 -0.1380 -2.1522
  263MOL0     H34693   5.921   7.495   2.327  1.8615 -0.9395 -1.3891
  263MOL0     H34694   6.060   7.523   2.596  0.8221  0.6073 -0.9405
  263MOL0     H34695   5.952   7.645   2.519 -0.5514 -0.3188 -0.9983
  263MOL0     H34696   5.892   7.356   2.608 -2.8048 -1.2167  3.0940
  263MOL0     H34697   5.778   7.429   2.508 -1.2386 -0.4397  1.5218
  263MOL0     H34698   6.700   7.555   1.752  0.0153  1.4575  0.5410
  263MOL0     H34699   6.916   7.440   1.791  0.1531  0.0523 -0.4992
  263MOL0     H34700   7.225   7.394   1.947 -0.2543  1.6377  0.4791
  263MOL0     H34701   7.471   7.360   1.931  1.6972  0.2092  0.8459
  263MOL0     H34702   9.257   6.137   2.051  1.0636 -0.3836 -0.6477
  263MOL0     H34703   9.373   5.925   2.075 -1.4938 -1.8119 -1.2410
  263MOL0     H34704   9.483   5.540   2.317  1.3017 -1.0279 -0.6610
  263MOL0     H34705   9.533   5.310   2.406 -0.2591 -2.3825  0.7005
  263MOL0     H34706   9.522   5.134   2.513 -1.3135 -0.0061 -0.8680
  263MOL0     H34707   9.601   5.078   2.355  0.6608  0.8831 -0.2550
  263MOL0     H34708   9.634   4.917   2.516  3.6682  1.0270 -5.0147
  263MOL0     H34709   9.459   4.895   2.540  0.4738 -0.9531 -0.2324
  263MOL0     H34710   9.610   4.854   2.268  1.9142 -0.0287  0.7180
  263MOL0     H34711   9.438   4.849   2.291  0.9080 -2.0571 -2.8148
  263MOL0     H34712   9.436   4.676   2.451  0.8157 -2.2741  2.6709
  263MOL0     H34713   9.509   4.617   2.302  0.7387 -0.5187  1.3764
  263MOL0     H34714   9.859   4.552   2.508  0.4988 -0.0944 -1.5455
  263MOL0     H34715   9.209   5.147   2.201  3.4316 -2.4622  0.6996
  263MOL0     H34716   9.147   5.365   2.100  0.6889  3.9659 -0.3533
  264MOL0     O34717   9.187  10.489   5.138 -0.0150 -0.6379 -0.1002
  264MOL0     C34718   9.181  10.483   5.259  0.2479  0.6352  0.1248
  264MOL0     O34719   9.284  10.434   5.345  0.4767 -0.1129 -1.0837
  264MOL0     C34720   9.392  10.370   5.290  0.0959  0.5569 -0.3133
  264MOL0     C34721   9.467  10.430   5.183 -0.2094  0.8479  0.6881
  264MOL0     C34722   9.590  10.372   5.145  0.4085 -0.9298  0.0376
  264MOL0     C34723   9.645  10.263   5.209  1.0752  0.6744  0.4112
  264MOL0     O34724   9.775  10.215   5.178  0.0725 -1.4851 -0.0570
  264MOL0     C34725   9.801  10.176   5.040 -1.2355  0.6700  0.1918
  264MOL0     C34726   9.915  10.068   5.029 -0.6251  0.5251 -0.3250
  264MOL0     C34727  10.062  10.125   5.039  0.8627  1.1405 -0.0686
  264MOL0     C34728  10.166  10.007   5.027  0.2864 -0.4156 -0.1527
  264MOL0     C34729  10.312  10.044   5.060  0.2174  0.7598 -0.4541
  264MOL0     C34730  10.417   9.940   5.033  0.2683 -0.3549  0.0965
  264MOL0     C34731  10.555   9.980   5.085  0.0082 -0.5147  0.1305
  264MOL0     C34732  10.668   9.903   5.009 -0.5806 -0.0800  0.4742
  264MOL0     N34733  10.646   9.759   5.013 -0.0542  0.8271  0.3358
  264MOL0     C34734  10.625   9.669   5.117  0.3258 -0.5034  0.4348
  264MOL0     C34735  10.601   9.553   5.044 -0.3653  0.1782  0.2742
  264MOL0     C34736  10.579   9.414   5.096  0.5545  0.9437  0.0980
  264MOL0     C34737  10.454   9.400   5.185  0.8436  0.7668 -0.5418
  264MOL0     C34738  10.448   9.451   5.322 -0.8677 -0.0872 -0.3974
  264MOL0     C34739  10.552   9.370   5.402 -0.4879 -0.1263  0.3112
  264MOL0     O34740  10.660   9.458   5.421 -0.4167 -0.1324  0.5322
  264MOL0     C34741  10.770   9.430   5.492  0.2115  0.1761 -0.0939
  264MOL0     C34742  10.844   9.538   5.510 -0.9934 -0.3675 -0.7232
  264MOL0     C34743  10.960   9.525   5.588  0.2441  0.6243 -0.7339
  264MOL0     C34744  10.990   9.397   5.649 -0.1997  0.2292 -0.2426
  264MOL0     C34745  11.091   9.377   5.745 -1.1012 -0.0797  0.3179
  264MOL0     O34746  11.130   9.249   5.758 -0.0114 -0.3258  0.2149
  264MOL0     C34747  11.240   9.228   5.827 -0.6780 -0.0157 -1.1853
  264MOL0     C34748  11.364   9.241   5.771 -0.0587 -0.7903  0.4884
  264MOL0     C34749  11.485   9.201   5.833  0.0308 -0.7115 -0.4025
  264MOL0     C34750  11.479   9.156   5.968 -0.6629  0.8225  0.0484
  264MOL0     O34751  11.583   9.108   6.043  0.2588  0.1437 -0.0713
  264MOL0     C34752  11.701   9.062   5.980 -0.2025  0.3574  0.0158
  264MOL0     C34753  11.747   8.954   6.078  1.3811 -0.4130  0.8690
  264MOL0     C34754  11.890   8.915   6.059 -0.1695  0.0476 -0.3220
  264MOL0     C34755  11.908   8.783   6.138  0.3884  0.9793 -0.1742
  264MOL0     C34756  12.055   8.743   6.128  0.9285  0.6758  0.4809
  264MOL0     C34757  12.148   8.812   6.227  0.7814 -0.1973 -0.1573
  264MOL0     C34758  12.290   8.813   6.183  0.2189 -0.4080  0.1895
  264MOL0     C34759  12.390   8.860   6.291  0.2514  0.7117  0.5476
  264MOL0    Cl34760  12.384   8.734   6.424 -0.1690  0.0459 -0.0788
  264MOL0     C34761  11.351   9.145   6.023 -0.0705  0.1982 -0.6861
  264MOL0     C34762  11.228   9.176   5.959 -0.0828  0.5856  0.3647
  264MOL0     O34763  11.154   9.475   5.792  0.2858  0.5597  0.5158
  264MOL0     C34764  10.916   9.284   5.614  0.4730 -1.1548 -0.3100
  264MOL0     C34765  10.801   9.304   5.543 -0.0284 -0.1996  0.3339
  264MOL0     N34766  10.604   9.576   4.907  0.0061 -0.7213  0.2865
  264MOL0     N34767  10.629   9.696   4.893 -0.6693 -0.4411 -0.4264
  264MOL0     C34768   9.572  10.199   5.320  0.1269 -0.3571 -0.2320
  264MOL0     C34769   9.446  10.252   5.359  1.0298 -0.5693  0.9208
  264MOL0     C34770   9.055  10.531   5.314 -0.5052  0.0712  0.0423
  264MOL0     C34771   9.050  10.572   5.451  0.5592  0.6653  0.8832
  264MOL0     C34772   8.928  10.589   5.511 -0.3378 -0.0720  0.4916
  264MOL0     C34773   8.808  10.596   5.434 -0.7854  0.8680 -0.4849
  264MOL0     O34774   8.687  10.620   5.510 -0.4348 -0.2819  0.6059
  264MOL0     C34775   8.575  10.553   5.454 -0.0426 -0.0134  1.1032
  264MOL0     C34776   8.470  10.550   5.564 -0.3924  0.6526 -0.2840
  264MOL0     C34777   8.433  10.691   5.621  1.4775 -0.1284  0.4865
  264MOL0     C34778   8.357  10.785   5.527  0.2272  0.2037  0.9049
  264MOL0     C34779   8.211  10.764   5.503 -0.0112 -1.3286 -0.2392
  264MOL0     C34780   8.096  10.734   5.488  0.4969 -0.8558  0.4397
  264MOL0     C34781   8.819  10.592   5.295 -0.2530  0.0569  0.2224
  264MOL0     C34782   8.933  10.541   5.235  0.0364  0.4589 -0.6376
  264MOL0     H34783   9.416  10.514   5.136 -0.6160 -1.8692 -4.3810
  264MOL0     H34784   9.636  10.417   5.058 -1.6922  0.1204 -0.5664
  264MOL0     H34785   9.830  10.260   4.977 -2.9695  0.4550 -0.9937
  264MOL0     H34786   9.712  10.136   4.990 -0.3264  0.7385 -1.5601
  264MOL0     H34787   9.918  10.017   4.932  2.3544  0.8743 -0.5087
  264MOL0     H34788   9.910   9.981   5.095  2.6769 -1.2366 -2.1183
  264MOL0     H34789  10.069  10.166   5.140 -1.0123 -0.1366  0.6207
  264MOL0     H34790  10.081  10.197   4.958 -1.3094  2.2627  0.3340
  264MOL0     H34791  10.145   9.926   5.097 -2.1427  0.9002  0.7546
  264MOL0     H34792  10.169   9.971   4.924 -1.0241 -1.9342  0.3117
  264MOL0     H34793  10.316  10.073   5.166 -1.2422  0.8484 -0.4057
  264MOL0     H34794  10.329  10.133   4.999 -0.5150  0.6888 -0.7714
  264MOL0     H34795  10.415   9.912   4.927  1.2256  1.6894 -0.5167
  264MOL0     H34796  10.391   9.849   5.088 -2.7034  1.9370  2.9446
  264MOL0     H34797  10.564  10.082   5.046  3.8922 -0.8758 -0.3163
  264MOL0     H34798  10.567   9.995   5.192 -3.5837  0.4908  0.5103
  264MOL0     H34799  10.760   9.936   5.057 -0.7748  1.1427  0.0437
  264MOL0     H34800  10.672   9.931   4.903  0.8586 -1.7436  0.0391
  264MOL0     H34801  10.625   9.696   5.222  0.9610  1.6427 -0.0675
  264MOL0     H34802  10.670   9.406   5.155  2.3063  5.6502 -1.4723
  264MOL0     H34803  10.575   9.339   5.016 -1.1572  2.6228 -1.4965
  264MOL0     H34804  10.419   9.297   5.197 -3.7303  2.2675  1.1853
  264MOL0     H34805  10.370   9.453   5.139  0.6977 -0.0967 -1.3031
  264MOL0     H34806  10.474   9.557   5.321  2.7891 -0.8393  0.1954
  264MOL0     H34807  10.347   9.433   5.359 -1.4980 -1.1430 -2.4669
  264MOL0     H34808  10.579   9.275   5.356  1.7609  1.1324 -1.2129
  264MOL0     H34809  10.509   9.352   5.500 -0.1620  0.8061  0.6419
  264MOL0     H34810  10.828   9.629   5.453  2.2623 -0.5681 -2.1872
  264MOL0     H34811  11.016   9.615   5.613  0.3203 -0.0695  1.8620
  264MOL0     H34812  11.366   9.296   5.677 -1.4478 -0.6065  0.5477
  264MOL0     H34813  11.579   9.196   5.779  0.5155  2.1305  0.0334
  264MOL0     H34814  11.777   9.141   5.977  4.7720 -3.7783  2.2283
  264MOL0     H34815  11.695   9.022   5.879  1.4441  1.0532 -0.3766
  264MOL0     H34816  11.684   8.864   6.071  2.7553 -1.3031 -0.7334
  264MOL0     H34817  11.744   8.985   6.183 -0.9660 -0.5092  0.8949
  264MOL0     H34818  11.935   9.003   6.105 -1.0453 -1.4350  3.7862
  264MOL0     H34819  11.922   8.915   5.955  1.3319  0.2541  0.1181
  264MOL0     H34820  11.868   8.798   6.239 -2.4014 -1.0293 -0.8511
  264MOL0     H34821  11.843   8.712   6.085  0.6187 -1.7079  2.8228
  264MOL0     H34822  12.084   8.768   6.026  0.1602  1.9979  0.5539
  264MOL0     H34823  12.064   8.637   6.150  1.6324  0.0521 -2.3802
  264MOL0     H34824  12.128   8.768   6.325 -0.1557 -2.5140 -1.3035
  264MOL0     H34825  12.109   8.913   6.236  0.3546 -0.4813  1.4198
  264MOL0     H34826  12.322   8.719   6.138 -1.3423  0.4041 -2.9971
  264MOL0     H34827  12.295   8.888   6.102 -0.8050 -0.8325 -0.2865
  264MOL0     H34828  12.363   8.955   6.338  0.7453  1.1744 -0.1029
  264MOL0     H34829  12.489   8.867   6.246 -0.9296  2.3599 -2.0087
  264MOL0     H34830  11.343   9.109   6.125 -0.5895  1.8200 -0.1103
  264MOL0     H34831  11.135   9.161   6.012 -0.9529  1.1361 -0.9752
  264MOL0     H34832  10.930   9.178   5.636 -0.2783 -1.1875  0.0344
  264MOL0     H34833  10.731   9.223   5.525 -1.2470  0.7650  0.5868
  264MOL0     H34834   9.613  10.108   5.364  0.6137 -0.0774 -0.0995
  264MOL0     H34835   9.392  10.225   5.449 -0.2376 -0.4756  0.2115
  264MOL0     H34836   9.140  10.575   5.512  1.0479 -0.9236  0.2904
  264MOL0     H34837   8.903  10.583   5.617  0.8942 -0.8623  0.7605
  264MOL0     H34838   8.603  10.450   5.433  0.8483 -0.2765  3.2920
  264MOL0     H34839   8.535  10.592   5.360  0.2651 -1.0444  0.5379
  264MOL0     H34840   8.387  10.491   5.526  0.8650 -1.7553  0.4722
  264MOL0     H34841   8.512  10.489   5.644 -1.7487  2.8865  2.3047
  264MOL0     H34842   8.524  10.737   5.660  1.5943 -1.0394  1.3492
  264MOL0     H34843   8.366  10.670   5.706  1.8759  1.5615  1.2622
  264MOL0     H34844   8.374  10.885   5.569  5.3502 -0.7458  1.7279
  264MOL0     H34845   8.404  10.786   5.428 -0.8701  0.7638  0.3576
  264MOL0     H34846   7.990  10.725   5.473  0.0789  2.5283  0.5001
  264MOL0     H34847   8.738  10.606   5.225  0.2559 -3.3738 -1.2449
  264MOL0     H34848   8.934  10.531   5.127  0.8141 -2.8082 -0.4354
  265MOL0     O34849   2.432   6.728   1.851 -0.3856  0.4367 -0.2793
  265MOL0     C34850   2.471   6.762   1.965 -0.5755  0.1925  0.6531
  265MOL0     O34851   2.416   6.852   2.051 -0.3151 -0.1091 -0.2860
  265MOL0     C34852   2.290   6.879   2.016 -0.4764  0.2193 -0.3325
  265MOL0     C34853   2.185   6.779   2.010  0.6072  0.8030 -0.1581
  265MOL0     C34854   2.058   6.823   1.998  0.0809  0.2402 -0.1984
  265MOL0     C34855   2.016   6.953   1.980  0.3152 -0.7939 -0.3199
  265MOL0     O34856   1.880   6.989   1.963 -0.2632 -0.3077  0.0675
  265MOL0     C34857   1.765   6.893   1.976 -0.2875  0.0146 -0.9121
  265MOL0     C34858   1.639   6.975   1.941  0.9087 -0.0052 -0.2640
  265MOL0     C34859   1.529   6.886   1.881  0.2359 -0.4113 -0.4176
  265MOL0     C34860   1.460   6.805   1.990 -0.1940 -0.7109  0.2282
  265MOL0     C34861   1.329   6.735   1.942 -0.7473 -0.5758 -0.0365
  265MOL0     C34862   1.276   6.669   2.061  0.9718 -0.4249 -0.6386
  265MOL0     C34863   1.133   6.615   2.038  1.2391  0.3281 -0.1747
  265MOL0     C34864   1.085   6.546   2.165 -1.1568 -0.1563 -0.2393
  265MOL0     N34865   0.955   6.479   2.155 -0.6341 -0.1813  1.1710
  265MOL0     C34866   0.918   6.379   2.065 -0.8948 -0.7444 -1.0447
  265MOL0     C34867   0.814   6.323   2.125 -0.1280  1.1317  1.2547
  265MOL0     C34868   0.737   6.201   2.091 -0.0791 -0.7021  0.1795
  265MOL0     C34869   0.763   6.151   1.946  1.0680 -1.1849  0.4431
  265MOL0     C34870   0.856   6.031   1.938 -0.3540 -0.3106 -0.2178
  265MOL0     C34871   0.928   6.021   1.797 -0.0902 -0.1190 -0.8655
  265MOL0     O34872   1.010   6.142   1.795  0.3537  1.1345  0.6411
  265MOL0     C34873   1.140   6.122   1.768 -0.0469 -0.9260  0.6879
  265MOL0     C34874   1.201   6.180   1.656  0.2979 -0.8111  0.1464
  265MOL0     C34875   1.335   6.149   1.636  0.2560  0.3070 -0.3321
  265MOL0     C34876   1.418   6.074   1.724  0.2413 -0.8505  0.4360
  265MOL0     C34877   1.550   6.041   1.689 -1.3236  0.8403  0.2753
  265MOL0     O34878   1.567   6.000   1.560  0.4260  0.5955  0.0023
  265MOL0     C34879   1.688   5.999   1.492  0.5516 -0.7271  0.9031
  265MOL0     C34880   1.686   5.919   1.379 -0.1988  0.3853 -0.2116
  265MOL0     C34881   1.796   5.901   1.296 -0.2736 -0.0206 -0.0690
  265MOL0     C34882   1.922   5.937   1.346 -1.2179 -0.6374  0.5432
  265MOL0     O34883   2.043   5.911   1.277  0.6334  0.4444  0.6303
  265MOL0     C34884   2.055   5.795   1.192 -0.2578 -0.3791  0.2731
  265MOL0     C34885   2.194   5.731   1.213  0.2666  0.4914  0.0322
  265MOL0     C34886   2.310   5.820   1.156  0.1476  0.9811 -0.6318
  265MOL0     C34887   2.442   5.755   1.213  0.6100 -0.5479  0.2695
  265MOL0     C34888   2.555   5.858   1.173 -0.6301  0.1111  0.2584
  265MOL0     C34889   2.691   5.805   1.233 -0.7757  1.3677  0.5615
  265MOL0     C34890   2.742   5.667   1.176 -0.0621 -0.6433  0.4739
  265MOL0     C34891   2.879   5.637   1.206 -0.7893  0.2954 -0.0887
  265MOL0    Cl34892   2.898   5.616   1.386  0.1918  0.1564  0.4329
  265MOL0     C34893   1.926   6.018   1.464 -0.9342  0.1651 -0.2427
  265MOL0     C34894   1.811   6.061   1.532  0.2666  0.2382 -0.1696
  265MOL0     O34895   1.634   6.038   1.781 -0.0037  0.6207 -0.3448
  265MOL0     C34896   1.355   6.022   1.839  0.0034  0.0585 -0.0902
  265MOL0     C34897   1.216   6.047   1.852 -0.5625 -0.3454 -0.0304
  265MOL0     N34898   0.785   6.399   2.235  0.7300  0.7589  0.4589
  265MOL0     N34899   0.859   6.500   2.245 -0.8973  0.0985  0.1658
  265MOL0     C34900   2.119   7.049   1.971  0.5807 -0.2424 -0.5044
  265MOL0     C34901   2.252   7.018   2.001 -0.9035  0.1745  0.3498
  265MOL0     C34902   2.601   6.697   2.011 -0.8526  0.0095 -0.2334
  265MOL0     C34903   2.642   6.575   1.950  0.2996 -0.6470  0.1345
  265MOL0     C34904   2.758   6.513   1.982  0.3203  0.3249 -0.1252
  265MOL0     C34905   2.843   6.557   2.083  0.1188  0.3251  0.5938
  265MOL0     O34906   2.948   6.493   2.132 -0.2110  0.8135  0.4178
  265MOL0     C34907   3.021   6.393   2.057 -0.2841  0.4769  0.8869
  265MOL0     C34908   3.082   6.447   1.919 -0.0890 -1.0046  0.4782
  265MOL0     C34909   3.216   6.526   1.922  0.5371 -0.2612  0.6551
  265MOL0     C34910   3.310   6.477   2.029 -0.2495  0.9165 -0.6916
  265MOL0     C34911   3.357   6.335   2.009 -0.1051  1.0305  0.3194
  265MOL0     C34912   3.389   6.221   1.994 -0.1985 -0.3522 -0.4425
  265MOL0     C34913   2.808   6.679   2.142  0.7520  0.6700 -0.1699
  265MOL0     C34914   2.683   6.749   2.108  0.4420 -0.1062 -0.0882
  265MOL0     H34915   2.211   6.674   2.028  1.0169  1.1733  1.6484
  265MOL0     H34916   1.985   6.745   2.014  2.7519 -1.8079  3.1396
  265MOL0     H34917   1.762   6.851   2.077  0.2255 -0.2112 -0.9891
  265MOL0     H34918   1.779   6.813   1.902 -0.6171  0.1515 -1.1294
  265MOL0     H34919   1.676   7.044   1.865 -0.0316  0.7923 -0.0174
  265MOL0     H34920   1.613   7.028   2.033  1.6318  1.8914 -1.0978
  265MOL0     H34921   1.570   6.819   1.805  0.9242  0.2019 -0.5986
  265MOL0     H34922   1.457   6.954   1.836 -0.4743 -0.3686  0.7385
  265MOL0     H34923   1.524   6.736   2.045 -0.5370 -2.4911 -1.4781
  265MOL0     H34924   1.429   6.887   2.055 -0.8921  1.6991 -2.9112
  265MOL0     H34925   1.360   6.669   1.862  3.5132 -0.0440  0.9640
  265MOL0     H34926   1.258   6.809   1.903  2.3780  2.0610 -1.0892
  265MOL0     H34927   1.271   6.751   2.133 -0.9238 -0.2268 -0.9398
  265MOL0     H34928   1.341   6.587   2.093 -2.9965 -3.9535 -0.6841
  265MOL0     H34929   1.058   6.689   2.009 -0.1806 -1.2853 -0.7918
  265MOL0     H34930   1.123   6.542   1.957  0.7680 -1.5968  1.5437
  265MOL0     H34931   1.068   6.618   2.246  0.3059 -0.8513  0.7168
  265MOL0     H34932   1.170   6.480   2.184  0.0383  1.1617 -0.8403
  265MOL0     H34933   0.971   6.347   1.976 -1.0485  0.1247 -1.4668
  265MOL0     H34934   0.629   6.209   2.103 -0.4683 -2.4992 -1.5541
  265MOL0     H34935   0.780   6.128   2.159  0.1314  1.5549  2.6120
  265MOL0     H34936   0.809   6.239   1.900 -0.3014  2.2487  4.9364
  265MOL0     H34937   0.669   6.128   1.895  0.7426  2.2910 -0.7958
  265MOL0     H34938   0.933   6.033   2.017 -0.6928  1.2099  0.1154
  265MOL0     H34939   0.803   5.936   1.940 -1.0562  0.0862  1.1465
  265MOL0     H34940   0.863   6.019   1.709  0.5255 -2.0077 -1.3261
  265MOL0     H34941   0.988   5.930   1.791  1.6294  0.7484  1.6983
  265MOL0     H34942   1.152   6.241   1.581  2.3422  0.0878 -0.5326
  265MOL0     H34943   1.381   6.203   1.554  1.6368  0.0153  0.2122
  265MOL0     H34944   1.591   5.875   1.353 -1.3014  0.9858  2.4494
  265MOL0     H34945   1.790   5.852   1.199  3.0527  1.1859 -1.0338
  265MOL0     H34946   2.036   5.825   1.088  0.0678 -0.7879  0.0963
  265MOL0     H34947   1.990   5.714   1.227 -0.8171 -1.4169 -2.8435
  265MOL0     H34948   2.193   5.638   1.155  1.1654 -0.5719  1.6232
  265MOL0     H34949   2.212   5.696   1.315  3.1375  0.1772 -0.5001
  265MOL0     H34950   2.296   5.911   1.215 -1.6251  0.4731 -0.2172
  265MOL0     H34951   2.313   5.834   1.048  0.2925  3.9983 -0.2991
  265MOL0     H34952   2.437   5.734   1.320  0.4063 -0.7136  0.2298
  265MOL0     H34953   2.457   5.659   1.163 -2.5927 -0.6175 -0.8158
  265MOL0     H34954   2.534   5.955   1.218 -0.0055 -0.0950  1.0097
  265MOL0     H34955   2.562   5.862   1.063 -1.0849 -1.0276  0.1786
  265MOL0     H34956   2.673   5.796   1.340 -1.5525 -1.5623  0.2600
  265MOL0     H34957   2.769   5.880   1.215  0.5408 -0.5812 -2.8442
  265MOL0     H34958   2.681   5.588   1.223 -0.8494 -0.1960  0.2251
  265MOL0     H34959   2.726   5.658   1.068 -1.7182 -1.2949  0.7377
  265MOL0     H34960   2.952   5.710   1.168  0.7841 -0.3693  1.5191
  265MOL0     H34961   2.918   5.549   1.153 -1.0812  1.3510 -2.1627
  265MOL0     H34962   2.027   6.035   1.500 -0.2610 -1.3848 -1.2918
  265MOL0     H34963   1.816   6.119   1.624 -1.4217 -1.2270  0.9124
  265MOL0     H34964   1.412   5.974   1.919  2.4137  3.2645  0.2882
  265MOL0     H34965   1.166   5.999   1.935 -2.1542  4.3664  2.1272
  265MOL0     H34966   2.102   7.154   1.949  0.5885 -0.7632 -3.2571
  265MOL0     H34967   2.331   7.093   1.999  1.3912 -2.0781 -2.7916
  265MOL0     H34968   2.584   6.527   1.872 -0.0878  2.5287 -1.7332
  265MOL0     H34969   2.792   6.413   1.956  1.5511 -0.1583  2.8699
  265MOL0     H34970   2.947   6.316   2.036 -1.0891  0.8187  2.3079
  265MOL0     H34971   3.092   6.344   2.126 -0.6174  1.3692  1.8983
  265MOL0     H34972   3.099   6.362   1.853  2.4424  0.0645 -0.3529
  265MOL0     H34973   3.013   6.510   1.862  1.8700  1.6285  0.8077
  265MOL0     H34974   3.212   6.635   1.938  1.1189  0.5139 -3.4832
  265MOL0     H34975   3.253   6.511   1.820 -3.5824 -1.1852 -0.8851
  265MOL0     H34976   3.386   6.556   2.023 -0.8496  1.3841 -2.9628
  265MOL0     H34977   3.261   6.485   2.127  2.9559  0.5474  1.0842
  265MOL0     H34978   3.387   6.114   1.990 -2.1857 -0.3938  0.2515
  265MOL0     H34979   2.870   6.724   2.219  0.3357 -0.5628  0.9371
  265MOL0     H34980   2.666   6.851   2.140 -0.4018  0.2432 -1.5679
  266MOL0     O34981   9.557   9.017   6.806  0.5388 -0.2931  0.2685
  266MOL0     C34982   9.573   9.011   6.928 -0.3499  0.4839 -0.5020
  266MOL0     O34983   9.572   9.109   7.015  0.1094  0.3180 -0.4197
  266MOL0     C34984   9.559   9.240   6.959 -0.7916 -0.2969  0.1128
  266MOL0     C34985   9.438   9.301   6.930 -0.7553 -0.6487 -0.5939
  266MOL0     C34986   9.432   9.424   6.867 -0.2372 -0.8989 -0.3891
  266MOL0     C34987   9.549   9.494   6.836 -0.1063 -0.2294  0.3760
  266MOL0     O34988   9.537   9.621   6.777 -1.2742  0.5999 -0.4736
  266MOL0     C34989   9.656   9.693   6.740  0.6563  0.7954  0.0469
  266MOL0     C34990   9.610   9.804   6.646  0.6346  0.9918  0.3948
  266MOL0     C34991   9.719   9.828   6.544 -0.4820  0.1280  0.3117
  266MOL0     C34992   9.847   9.888   6.594 -0.9115 -0.4285 -0.1756
  266MOL0     C34993   9.947   9.884   6.483  0.6633 -0.2252  0.1077
  266MOL0     C34994  10.083   9.933   6.531 -0.6630  0.0841 -0.4303
  266MOL0     C34995  10.205   9.949   6.424  0.1225  0.3744  0.1326
  266MOL0     C34996  10.341   9.980   6.492  0.3202  0.8783  0.6056
  266MOL0     N34997  10.383   9.865   6.574  0.0983  1.1692 -0.9384
  266MOL0     C34998  10.419   9.740   6.519 -0.1040  0.3070  0.2172
  266MOL0     C34999  10.450   9.661   6.624  0.7996  1.0089  0.0355
  266MOL0     C35000  10.466   9.518   6.598  0.0122 -0.2857 -0.5968
  266MOL0     C35001  10.454   9.435   6.730  0.7135 -0.7545 -1.0170
  266MOL0     C35002  10.581   9.420   6.829  0.7039  0.0377 -0.1386
  266MOL0     C35003  10.626   9.275   6.846  0.0161 -0.0629 -0.4510
  266MOL0     O35004  10.754   9.263   6.906  0.2203 -0.1187 -0.1660
  266MOL0     C35005  10.826   9.141   6.902 -0.8833  0.9863  0.1395
  266MOL0     C35006  10.945   9.133   6.976  0.0953 -0.5747 -0.5846
  266MOL0     C35007  11.019   9.009   6.993  0.7293 -0.5241 -0.3935
  266MOL0     C35008  10.972   8.889   6.933 -0.5700 -0.3526  0.4204
  266MOL0     C35009  11.038   8.762   6.953 -1.6990 -0.0324 -0.6634
  266MOL0     O35010  11.000   8.658   6.876  0.0130  0.0672  0.2910
  266MOL0     C35011  11.059   8.535   6.858 -1.1339 -0.2109 -0.0626
  266MOL0     C35012  11.183   8.496   6.900  0.2115  0.0050 -0.4321
  266MOL0     C35013  11.225   8.372   6.868 -0.9171 -0.9853  0.1097
  266MOL0     C35014  11.135   8.282   6.809 -0.1114  0.9643 -0.3048
  266MOL0     O35015  11.176   8.155   6.770 -0.6124  0.0524 -0.6166
  266MOL0     C35016  11.256   8.081   6.858  0.1342 -0.0138  1.0832
  266MOL0     C35017  11.254   7.929   6.836 -0.6625  0.2885  0.2658
  266MOL0     C35018  11.309   7.905   6.698  0.0421 -0.1121  0.7407
  266MOL0     C35019  11.340   7.756   6.681  0.0099 -0.3235  0.9558
  266MOL0     C35020  11.400   7.703   6.553 -0.1444  0.0749 -0.2289
  266MOL0     C35021  11.523   7.773   6.502  0.9528  0.0932 -1.1450
  266MOL0     C35022  11.645   7.760   6.591 -0.0923 -0.3386  0.2867
  266MOL0     C35023  11.777   7.765   6.521 -0.0510 -0.3450 -0.7672
  266MOL0    Cl35024  11.830   7.931   6.500  0.7093 -0.2691  0.0050
  266MOL0     C35025  11.007   8.313   6.786  0.6108 -0.3582 -0.0740
  266MOL0     C35026  10.966   8.443   6.810  0.4759 -0.5675  1.0706
  266MOL0     O35027  11.117   8.757   7.051 -0.1644 -0.1929  0.0188
  266MOL0     C35028  10.856   8.902   6.854  0.9165 -0.0114 -0.4911
  266MOL0     C35029  10.785   9.019   6.850  0.1239 -1.1101 -0.6915
  266MOL0     N35030  10.440   9.742   6.744 -0.1284  1.0989  0.4049
  266MOL0     N35031  10.410   9.859   6.709 -0.3872 -0.6795  0.9535
  266MOL0     C35032   9.669   9.436   6.875 -0.1354  0.1859  0.8236
  266MOL0     C35033   9.677   9.314   6.940 -0.5863 -0.1148 -0.1427
  266MOL0     C35034   9.608   8.880   6.989 -0.4245 -0.0049 -0.2983
  266MOL0     C35035   9.576   8.765   6.921 -0.3617 -0.3626  0.2068
  266MOL0     C35036   9.608   8.639   6.979 -0.9455 -0.4432 -0.3646
  266MOL0     C35037   9.679   8.628   7.099  1.2050  0.4700  0.2152
  266MOL0     O35038   9.714   8.501   7.126  1.1660 -0.1719 -0.1619
  266MOL0     C35039   9.787   8.481   7.251 -0.0797 -0.3797 -0.4085
  266MOL0     C35040   9.829   8.332   7.258 -0.8917 -0.1620  0.1807
  266MOL0     C35041   9.923   8.290   7.146  0.7678 -0.0059 -0.0307
  266MOL0     C35042  10.050   8.373   7.143 -0.3604  0.4387 -0.8095
  266MOL0     C35043  10.140   8.322   7.036  1.1776 -0.2186 -0.2313
  266MOL0     C35044  10.218   8.273   6.956  0.2940 -0.6575  0.5920
  266MOL0     C35045   9.694   8.748   7.178 -0.3829  0.3261  0.1192
  266MOL0     C35046   9.659   8.867   7.124 -0.3777 -0.1804  0.2792
  266MOL0     H35047   9.351   9.244   6.963 -1.3187  0.7285  0.3569
  266MOL0     H35048   9.339   9.476   6.843  0.1707  0.4631  0.8588
  266MOL0     H35049   9.709   9.614   6.686 -0.5236 -2.1979  2.9187
  266MOL0     H35050   9.715   9.718   6.828  0.1017  1.4726  0.2366
  266MOL0     H35051   9.581   9.894   6.701  1.5316  3.0115 -2.2355
  266MOL0     H35052   9.522   9.773   6.590  0.7826  1.2393  0.0245
  266MOL0     H35053   9.676   9.900   6.474 -1.1653  1.3339  1.8979
  266MOL0     H35054   9.742   9.733   6.496  0.2688  0.3600  0.2027
  266MOL0     H35055   9.826   9.992   6.619 -2.1367 -0.9629  1.1692
  266MOL0     H35056   9.884   9.835   6.682 -1.6468  0.7629  0.8838
  266MOL0     H35057   9.915   9.958   6.408  2.3032  2.6822  2.0500
  266MOL0     H35058   9.955   9.782   6.447  0.7201 -1.1294  2.5099
  266MOL0     H35059  10.124   9.855   6.597 -0.8817  1.3361  1.2433
  266MOL0     H35060  10.063  10.024   6.588 -1.3396  0.7145 -1.6399
  266MOL0     H35061  10.208   9.854   6.369  0.8522  0.0468  0.7237
  266MOL0     H35062  10.181  10.030   6.354 -0.6868  0.5549  0.6028
  266MOL0     H35063  10.334  10.068   6.556  0.7225 -0.2750  2.3238
  266MOL0     H35064  10.424   9.997   6.423 -1.1840  0.9354 -1.2771
  266MOL0     H35065  10.401   9.698   6.421  0.2689 -2.0882  1.0945
  266MOL0     H35066  10.560   9.495   6.547  1.4728 -2.0304  2.6119
  266MOL0     H35067  10.388   9.473   6.536 -1.1751 -0.9835  1.3084
  266MOL0     H35068  10.427   9.332   6.708 -2.7195 -0.4166  0.9103
  266MOL0     H35069  10.364   9.466   6.784  0.8005  2.5984 -2.4873
  266MOL0     H35070  10.674   9.468   6.797  1.6793 -3.6056 -3.5345
  266MOL0     H35071  10.553   9.457   6.928 -0.7723 -2.2511  0.3788
  266MOL0     H35072  10.628   9.228   6.747 -0.4165  2.9880 -2.0493
  266MOL0     H35073  10.555   9.226   6.913  0.9036  0.0501  0.6043
  266MOL0     H35074  10.975   9.233   7.007 -1.7981  0.5926 -2.3050
  266MOL0     H35075  11.096   9.024   7.068  2.0523  0.2974 -1.8484
  266MOL0     H35076  11.247   8.572   6.943  1.1158 -1.2578  0.5205
  266MOL0     H35077  11.326   8.345   6.897 -0.3529  2.3227  1.7239
  266MOL0     H35078  11.216   8.096   6.958  1.0412  2.3407  1.1486
  266MOL0     H35079  11.360   8.111   6.842 -0.1415  0.1812 -0.5190
  266MOL0     H35080  11.150   7.902   6.857 -0.5160 -0.0472  0.5599
  266MOL0     H35081  11.335   7.896   6.902 -0.2520  3.9640  1.8876
  266MOL0     H35082  11.402   7.959   6.676  0.8580 -1.1103  1.6361
  266MOL0     H35083  11.235   7.935   6.624 -0.2411  1.6634  1.6710
  266MOL0     H35084  11.400   7.725   6.767 -0.4827 -1.9822  0.7391
  266MOL0     H35085  11.241   7.709   6.678  0.4417 -1.3387  1.7612
  266MOL0     H35086  11.330   7.719   6.470 -1.0903 -3.4280 -0.2576
  266MOL0     H35087  11.425   7.597   6.549 -2.9420 -0.6366 -2.3164
  266MOL0     H35088  11.495   7.877   6.479 -1.1724 -0.7842 -2.9993
  266MOL0     H35089  11.538   7.724   6.405  1.2131 -0.5381 -0.7849
  266MOL0     H35090  11.643   7.835   6.671  2.3969  0.7982 -0.6005
  266MOL0     H35091  11.635   7.668   6.649 -1.7399  1.7383  3.6232
  266MOL0     H35092  11.788   7.713   6.426  2.4945  1.0672 -1.3501
  266MOL0     H35093  11.859   7.726   6.582 -0.6799 -0.4775  0.0128
  266MOL0     H35094  10.936   8.241   6.746 -3.5106  2.1940  1.9854
  266MOL0     H35095  10.865   8.474   6.786  1.3975  1.4198 -0.6039
  266MOL0     H35096  10.815   8.810   6.814 -3.2076  1.3679  0.1529
  266MOL0     H35097  10.689   9.019   6.799 -0.4689 -3.3314  0.3408
  266MOL0     H35098   9.764   9.489   6.873  2.0045 -3.3017  1.7287
  266MOL0     H35099   9.772   9.281   6.982  0.3186  0.3017 -1.7884
  266MOL0     H35100   9.517   8.770   6.830  1.8301  0.1001 -1.2520
  266MOL0     H35101   9.574   8.551   6.924 -0.4571 -0.4349 -0.6862
  266MOL0     H35102   9.702   8.486   7.320 -0.7517 -0.9255 -1.1720
  266MOL0     H35103   9.866   8.556   7.253  0.8139 -1.2419 -1.5950
  266MOL0     H35104   9.869   8.327   7.359 -0.8966 -0.6286  0.1609
  266MOL0     H35105   9.742   8.266   7.260 -1.8752  1.1175  0.3285
  266MOL0     H35106   9.883   8.303   7.045  1.9635  1.2135 -0.3736
  266MOL0     H35107   9.953   8.187   7.168 -2.7133 -0.8057  1.6939
  266MOL0     H35108  10.026   8.480   7.133 -2.6724  0.8168  5.0854
  266MOL0     H35109  10.096   8.362   7.242  1.8499  2.1088 -1.5629
  266MOL0     H35110  10.291   8.239   6.885 -1.3138 -2.2702 -0.3592
  266MOL0     H35111   9.740   8.747   7.277  1.1089 -4.0585 -0.4194
  266MOL0     H35112   9.681   8.960   7.175 -1.1094 -0.1083  0.4709
  267MOL0     O35113  10.756   3.885   0.901 -0.3773 -0.3818  0.2873
  267MOL0     C35114  10.767   4.006   0.909 -0.1256  0.3518  0.2774
  267MOL0     O35115  10.664   4.099   0.938  0.1178 -0.2456 -0.3342
  267MOL0     C35116  10.529   4.078   0.903 -0.3086 -0.3414  0.7083
  267MOL0     C35117  10.462   4.169   0.819 -0.3117 -0.6364  0.2778
  267MOL0     C35118  10.339   4.139   0.777  0.4659 -0.0840 -0.2420
  267MOL0     C35119  10.263   4.031   0.814  0.5240 -0.6112 -0.0822
  267MOL0     O35120  10.125   4.030   0.772 -0.0786 -0.4825  0.7795
  267MOL0     C35121  10.040   3.917   0.802 -0.3994 -0.6111  0.5302
  267MOL0     C35122  10.052   3.815   0.691  0.3755 -0.0737  0.0828
  267MOL0     C35123   9.950   3.695   0.713 -0.7938 -0.4066 -0.3237
  267MOL0     C35124   9.943   3.603   0.584 -0.3009  0.3317 -0.1969
  267MOL0     C35125   9.835   3.494   0.585  0.2207  0.6886  0.0996
  267MOL0     C35126   9.836   3.414   0.450 -0.8692  0.5202  0.5446
  267MOL0     C35127   9.810   3.512   0.326  0.3376 -0.2712 -0.3843
  267MOL0     C35128   9.776   3.425   0.208 -0.0512  0.2215  0.2111
  267MOL0     N35129   9.855   3.298   0.191 -0.2417 -0.1926  0.2847
  267MOL0     C35130   9.980   3.287   0.144  0.1219  0.0899 -0.0009
  267MOL0     C35131   9.999   3.154   0.126 -0.6896  0.3293 -0.0242
  267MOL0     C35132  10.128   3.088   0.079 -0.0815  0.0557 -0.7868
  267MOL0     C35133  10.106   2.940   0.061  0.2944  0.7506  1.0406
  267MOL0     C35134  10.234   2.867   0.007  0.3633 -0.3732 -0.6265
  267MOL0     C35135  10.368   2.900   0.083  0.7162  0.3814  0.3737
  267MOL0     O35136  10.473   2.836   0.018 -0.1716  0.0512  0.0580
  267MOL0     C35137  10.601   2.838   0.055  0.6702 -0.0124  0.6346
  267MOL0     C35138  10.700   2.871  -0.038 -0.4544  0.7213 -0.2444
  267MOL0     C35139  10.826   2.875   0.001  0.6965  0.5254 -0.2172
  267MOL0     C35140  10.870   2.836   0.130 -0.4388 -0.5027  0.9219
  267MOL0     C35141  11.017   2.824   0.146 -0.3611  0.4277 -0.1415
  267MOL0     O35142  11.099   2.875   0.052  0.1861  0.7244 -0.0816
  267MOL0     C35143  11.232   2.836   0.070 -0.4511 -0.6266 -0.0041
  267MOL0     C35144  11.335   2.912   0.130  0.9768  0.1923  0.0486
  267MOL0     C35145  11.467   2.880   0.129 -0.2291 -0.6076 -0.2516
  267MOL0     C35146  11.508   2.757   0.076  0.0795 -0.3110  0.2031
  267MOL0     O35147  11.639   2.719   0.089  0.2366  0.3864  1.5135
  267MOL0     C35148  11.675   2.592   0.037  1.0092  0.6363  0.0390
  267MOL0     C35149  11.813   2.574   0.078  0.5023  0.3314 -0.7797
  267MOL0     C35150  11.903   2.679   0.012  0.0432  0.1863  0.4129
  267MOL0     C35151  11.952   2.782   0.114  1.1243  0.1501 -0.1846
  267MOL0     C35152  12.061   2.863   0.046  0.5788 -0.4563 -0.2110
  267MOL0     C35153  12.013   2.945  -0.070 -0.0529 -0.3778 -0.2011
  267MOL0     C35154  11.899   3.034  -0.036 -0.2480  0.3371 -0.6801
  267MOL0     C35155  11.854   3.140  -0.144  1.4196  1.1293 -0.4731
  267MOL0    Cl35156  11.972   3.267  -0.162 -0.5681  0.3655  0.0054
  267MOL0     C35157  11.411   2.688  -0.004 -0.0581  0.9391  0.5926
  267MOL0     C35158  11.277   2.726  -0.002  0.1208  0.3512  0.3883
  267MOL0     O35159  11.056   2.786   0.255 -0.0821  0.5319  0.2250
  267MOL0     C35160  10.780   2.802   0.221  0.7913 -0.0907 -0.3053
  267MOL0     C35161  10.643   2.804   0.187  0.2755 -0.7068 -0.0088
  267MOL0     N35162   9.884   3.088   0.166 -0.9051  0.2316 -0.8515
  267MOL0     N35163   9.807   3.173   0.210 -0.2956  0.6251 -0.0555
  267MOL0     C35164  10.330   3.930   0.893  0.5495 -0.1988 -0.1059
  267MOL0     C35165  10.461   3.958   0.940  0.1808 -0.5915  1.3056
  267MOL0     C35166  10.901   4.056   0.890 -0.4152  0.6451 -0.7984
  267MOL0     C35167  11.006   3.988   0.827  0.2377 -0.0511 -0.1311
  267MOL0     C35168  11.112   4.051   0.792 -1.0385  0.1932  0.5971
  267MOL0     C35169  11.144   4.185   0.832 -0.0364  0.2056 -0.1743
  267MOL0     O35170  11.261   4.256   0.798 -0.0794 -0.0769 -0.0725
  267MOL0     C35171  11.387   4.190   0.765  0.5341 -0.1352  0.6791
  267MOL0     C35172  11.408   4.193   0.617 -0.2508 -0.3331 -0.2867
  267MOL0     C35173  11.554   4.143   0.588 -0.2507 -0.4513 -0.2472
  267MOL0     C35174  11.590   4.166   0.445  0.2367  0.1516 -0.1839
  267MOL0     C35175  11.738   4.148   0.421 -0.8993 -0.1979  0.7762
  267MOL0     C35176  11.861   4.146   0.419 -0.0053  0.6699 -0.4741
  267MOL0     C35177  11.052   4.248   0.909  0.3572  0.3957  0.5941
  267MOL0     C35178  10.924   4.190   0.925  0.1719 -0.1704  0.2904
  267MOL0     H35179  10.502   4.264   0.786 -0.8496  0.0486  1.5529
  267MOL0     H35180  10.301   4.212   0.706  3.3659  2.0724  0.1986
  267MOL0     H35181   9.941   3.962   0.815  0.1052  0.4919  0.7117
  267MOL0     H35182  10.065   3.860   0.892  0.4943 -1.5763 -0.3030
  267MOL0     H35183  10.155   3.778   0.690  0.8845  1.2989 -0.5309
  267MOL0     H35184  10.026   3.870   0.600 -2.2150  1.8909  1.8679
  267MOL0     H35185   9.853   3.736   0.743 -0.3225  1.1027 -0.7879
  267MOL0     H35186   9.992   3.644   0.800 -0.4742 -0.6011 -0.5884
  267MOL0     H35187   9.930   3.673   0.501  1.1263  0.2524 -0.4980
  267MOL0     H35188  10.039   3.552   0.576  0.4604  1.3551  1.7222
  267MOL0     H35189   9.741   3.551   0.581  2.1238  4.1353  0.3604
  267MOL0     H35190   9.843   3.430   0.673 -1.3751 -0.3338 -0.4463
  267MOL0     H35191   9.767   3.330   0.459  2.9270 -2.8513  1.1900
  267MOL0     H35192   9.935   3.370   0.433 -0.8823 -0.3010  2.3877
  267MOL0     H35193   9.732   3.584   0.349 -0.8015 -1.1876 -1.2555
  267MOL0     H35194   9.901   3.567   0.303  1.4345 -1.4761  0.8555
  267MOL0     H35195   9.771   3.480   0.113 -0.8902  1.4308  0.9310
  267MOL0     H35196   9.676   3.391   0.235  0.4331  0.3814  2.3710
  267MOL0     H35197  10.055   3.364   0.126 -0.4868  0.6233 -0.2776
  267MOL0     H35198  10.207   3.102   0.153 -0.1121 -0.1536 -0.7158
  267MOL0     H35199  10.167   3.130  -0.015 -0.2513  1.5230 -0.2382
  267MOL0     H35200  10.018   2.914   0.002  0.0634 -1.2513  2.1715
  267MOL0     H35201  10.084   2.899   0.160  1.8047  0.5066  1.3106
  267MOL0     H35202  10.212   2.761   0.019 -1.4225 -0.2799 -2.4089
  267MOL0     H35203  10.263   2.888  -0.096  1.3014  1.5636 -0.0064
  267MOL0     H35204  10.363   2.867   0.187 -0.7072  2.7563  1.1527
  267MOL0     H35205  10.390   3.008   0.077  0.3911  0.4143 -0.2955
  267MOL0     H35206  10.672   2.897  -0.140  0.7178 -1.9050 -1.3320
  267MOL0     H35207  10.909   2.884  -0.069  2.1079 -0.7213  1.2071
  267MOL0     H35208  11.312   3.008   0.174 -1.0375 -0.6128  0.8952
  267MOL0     H35209  11.520   2.957   0.184 -1.8852 -0.2733  0.9536
  267MOL0     H35210  11.648   2.591  -0.069  0.2513  1.6642  0.2090
  267MOL0     H35211  11.627   2.509   0.089  1.9024  1.1808  1.8509
  267MOL0     H35212  11.853   2.479   0.043 -1.6088  0.4911 -3.9639
  267MOL0     H35213  11.820   2.572   0.188 -1.7059 -2.7770 -0.5681
  267MOL0     H35214  11.851   2.734  -0.067 -1.5063  0.8804  1.8274
  267MOL0     H35215  11.988   2.627  -0.032  0.0423 -0.6101  1.3173
  267MOL0     H35216  11.879   2.851   0.155 -0.2821 -1.0868 -0.5132
  267MOL0     H35217  11.994   2.710   0.185 -3.3641 -3.1494 -0.4746
  267MOL0     H35218  12.143   2.795   0.021  1.2526 -0.0827  0.9065
  267MOL0     H35219  12.112   2.928   0.118  1.5238 -1.7453  0.3405
  267MOL0     H35220  11.974   2.875  -0.145  0.8204  1.5332 -2.5563
  267MOL0     H35221  12.100   3.001  -0.105  1.0656 -0.2377  2.5026
  267MOL0     H35222  11.812   2.970  -0.021 -1.5366  1.5403 -2.5578
  267MOL0     H35223  11.930   3.091   0.052 -0.1914 -0.8000  0.0453
  267MOL0     H35224  11.757   3.183  -0.119  0.3371 -1.2735 -0.2991
  267MOL0     H35225  11.842   3.077  -0.233 -1.6046 -0.3768  0.8679
  267MOL0     H35226  11.442   2.593  -0.047 -2.4582 -0.6551  2.1603
  267MOL0     H35227  11.211   2.666  -0.064 -2.4329  2.4908  0.8712
  267MOL0     H35228  10.811   2.767   0.319  1.7225  2.7015  0.5134
  267MOL0     H35229  10.579   2.751   0.256 -1.2374 -2.5034 -2.5974
  267MOL0     H35230  10.289   3.839   0.935  0.9714 -0.3763 -0.0675
  267MOL0     H35231  10.513   3.878   0.991  0.9484 -0.1415  1.2392
  267MOL0     H35232  10.997   3.882   0.810  1.3367 -0.3949  1.2529
  267MOL0     H35233  11.182   3.995   0.730 -2.1549  0.5316 -1.0410
  267MOL0     H35234  11.391   4.087   0.801  2.0869  0.2090  1.5789
  267MOL0     H35235  11.469   4.245   0.813  1.9659 -1.9327  0.4184
  267MOL0     H35236  11.347   4.127   0.555  1.6682 -2.3039 -0.2371
  267MOL0     H35237  11.394   4.296   0.585  0.7242  0.0540  0.4647
  267MOL0     H35238  11.570   4.037   0.607  2.6552 -0.0299  0.1645
  267MOL0     H35239  11.626   4.194   0.653 -1.9140  2.1164 -0.2660
  267MOL0     H35240  11.527   4.103   0.384 -0.2408  0.1869  0.2639
  267MOL0     H35241  11.568   4.270   0.418  2.1111  0.9262  1.0250
  267MOL0     H35242  11.967   4.147   0.410  0.1076  1.7816  0.7625
  267MOL0     H35243  11.068   4.352   0.935  3.0751 -0.0565  1.0768
  267MOL0     H35244  10.848   4.238   0.986  1.2954 -0.2839  1.8335
  268MOL0     O35245   8.110   9.107   1.412  0.2804 -0.0472 -0.1349
  268MOL0     C35246   8.054   8.998   1.425  0.0759  0.3445 -0.4106
  268MOL0     O35247   7.924   8.983   1.456  0.0729  0.2088  0.0991
  268MOL0     C35248   7.842   9.086   1.496  1.3141  0.5932  0.0867
  268MOL0     C35249   7.702   9.070   1.471  0.9187 -1.5595 -0.7103
  268MOL0     C35250   7.619   9.180   1.499  0.6043  0.1042 -0.7391
  268MOL0     C35251   7.668   9.292   1.565  0.2441 -0.1320  0.1723
  268MOL0     O35252   7.580   9.386   1.591  0.2044  0.4251 -0.1633
  268MOL0     C35253   7.567   9.422   1.731  0.5194  0.2169  0.2579
  268MOL0     C35254   7.419   9.446   1.753 -1.0821  0.4716 -0.5110
  268MOL0     C35255   7.366   9.567   1.678  0.4136  0.0495 -0.1664
  268MOL0     C35256   7.222   9.588   1.696  0.3533  0.1110  0.1190
  268MOL0     C35257   7.165   9.717   1.641  0.4570  0.3414 -0.1104
  268MOL0     C35258   7.008   9.704   1.643 -1.1365  0.1026  0.7220
  268MOL0     C35259   6.943   9.841   1.617 -0.0604 -0.1588  0.5708
  268MOL0     C35260   6.793   9.826   1.596  0.6931  0.3312 -0.2102
  268MOL0     N35261   6.752   9.823   1.457 -0.3909 -0.5780 -0.2620
  268MOL0     C35262   6.786   9.920   1.366 -0.5032 -0.2323  0.1890
  268MOL0     C35263   6.740   9.865   1.245  0.2060  0.3483 -0.7037
  268MOL0     C35264   6.767   9.924   1.108  0.3376  0.1341  0.3557
  268MOL0     C35265   6.646   9.900   1.010 -0.5690  0.2661  0.5519
  268MOL0     C35266   6.672   9.946   0.873 -1.4434  0.6030  0.9995
  268MOL0     C35267   6.559   9.941   0.780 -0.5706 -0.2625 -0.2981
  268MOL0     O35268   6.457  10.022   0.836  0.4123  0.2026  0.2032
  268MOL0     C35269   6.347  10.046   0.757  0.3130 -0.2330  0.8077
  268MOL0     C35270   6.327  10.013   0.620  0.0549  0.4302 -0.5266
  268MOL0     C35271   6.200  10.026   0.561  0.1512 -0.1606  0.1945
  268MOL0     C35272   6.094  10.094   0.616  0.5424 -0.2862 -0.4991
  268MOL0     C35273   5.964  10.119   0.537 -0.2210 -0.8631 -0.2649
  268MOL0     O35274   5.982  10.070   0.410 -0.1463  0.2112  0.2552
  268MOL0     C35275   5.869  10.069   0.331 -0.1237 -0.7608  0.1415
  268MOL0     C35276   5.792   9.953   0.313 -0.4079 -0.7309 -0.4533
  268MOL0     C35277   5.682   9.953   0.243  0.8615 -0.6455  0.4933
  268MOL0     C35278   5.633  10.061   0.168 -0.9876  0.3650  0.4978
  268MOL0     O35279   5.511  10.055   0.118 -0.0417  0.1736  0.0578
  268MOL0     C35280   5.450  10.183   0.086  0.2286 -0.6254  0.5968
  268MOL0     C35281   5.308  10.167   0.033  0.1874 -0.4790  0.4715
  268MOL0     C35282   5.318  10.168  -0.119 -0.7629 -0.0383 -0.1820
  268MOL0     C35283   5.188  10.184  -0.191 -0.0915  0.1799 -0.4948
  268MOL0     C35284   5.091  10.060  -0.204  0.3918  0.3946  0.8241
  268MOL0     C35285   5.072   9.975  -0.086  0.1933 -0.1417  0.3745
  268MOL0     C35286   4.962   9.875  -0.104 -0.2999 -0.4852  0.5839
  268MOL0     C35287   4.822   9.934  -0.104 -0.1116  0.2873  0.5399
  268MOL0    Cl35288   4.744   9.909   0.057  0.0386  0.1423  0.6043
  268MOL0     C35289   5.715  10.178   0.176  0.6321  0.0403  0.6967
  268MOL0     C35290   5.834  10.177   0.249 -0.7905 -0.0890 -0.0341
  268MOL0     O35291   5.863  10.178   0.586 -0.8747 -0.1269  0.1409
  268MOL0     C35292   6.118  10.149   0.747 -0.4139  0.5361 -1.0229
  268MOL0     C35293   6.245  10.127   0.819  0.4265 -0.3618  0.5392
  268MOL0     N35294   6.666   9.754   1.280 -1.0812 -0.2276 -0.6959
  268MOL0     N35295   6.674   9.729   1.403  0.2809  0.5317 -0.0757
  268MOL0     C35296   7.797   9.300   1.610 -0.1963 -0.6530  0.2583
  268MOL0     C35297   7.891   9.203   1.566  0.5339 -1.2111 -0.4049
  268MOL0     C35298   8.129   8.869   1.408 -0.2105 -0.5048 -0.1508
  268MOL0     C35299   8.269   8.867   1.396  0.6249  0.3598 -0.1974
  268MOL0     C35300   8.336   8.747   1.372  0.1613  0.0761  0.3048
  268MOL0     C35301   8.264   8.628   1.348 -0.3951  0.5660  0.3952
  268MOL0     O35302   8.320   8.499   1.325  0.0881 -0.4024 -0.8475
  268MOL0     C35303   8.458   8.475   1.346 -1.8217 -0.0751 -0.7080
  268MOL0     C35304   8.472   8.328   1.362  0.5777  0.2299 -0.0031
  268MOL0     C35305   8.614   8.285   1.381 -0.1108  0.0984 -0.2147
  268MOL0     C35306   8.685   8.355   1.499  0.3169 -0.3475 -0.1060
  268MOL0     C35307   8.822   8.304   1.521  0.1322 -0.5900  0.1155
  268MOL0     C35308   8.935   8.270   1.535 -0.1761  0.0453 -1.6333
  268MOL0     C35309   8.130   8.637   1.352 -1.1490 -0.2447 -0.4408
  268MOL0     C35310   8.061   8.751   1.382 -0.7193 -0.6194 -0.3399
  268MOL0     H35311   7.663   8.980   1.426  0.4437 -1.6224 -0.1887
  268MOL0     H35312   7.519   9.173   1.456  1.2961  0.5892 -2.5174
  268MOL0     H35313   7.631   9.508   1.755  2.2516 -1.2677  1.2068
  268MOL0     H35314   7.604   9.349   1.804 -1.4043  0.1305  1.2212
  268MOL0     H35315   7.399   9.459   1.860 -3.8675 -2.4621 -0.5274
  268MOL0     H35316   7.374   9.348   1.733  0.9434 -0.6392  0.0540
  268MOL0     H35317   7.385   9.570   1.570  3.6080  0.6646  0.3009
  268MOL0     H35318   7.415   9.653   1.726 -1.9741  0.2290  2.1796
  268MOL0     H35319   7.160   9.507   1.657 -1.9780  2.4840 -1.4360
  268MOL0     H35320   7.191   9.588   1.801 -3.1224  1.8915 -0.7623
  268MOL0     H35321   7.189   9.729   1.535 -2.7569 -1.3200 -1.1756
  268MOL0     H35322   7.206   9.805   1.692 -2.4276  0.2076  2.7370
  268MOL0     H35323   6.976   9.655   1.735  1.1932  1.6921  2.4632
  268MOL0     H35324   6.994   9.644   1.553  1.3638  0.7899 -0.2056
  268MOL0     H35325   6.966   9.903   1.704 -1.3305  2.5654 -0.9361
  268MOL0     H35326   6.987   9.902   1.538  2.3840  0.5279  2.3290
  268MOL0     H35327   6.754   9.918   1.642  0.3375  0.2311 -0.3079
  268MOL0     H35328   6.749   9.739   1.645  2.5129 -2.6301 -3.4392
  268MOL0     H35329   6.830  10.018   1.382 -2.1650  0.4386  0.8042
  268MOL0     H35330   6.863   9.893   1.066  0.4633  0.0230  0.7258
  268MOL0     H35331   6.776  10.033   1.107  0.4424  0.1810  2.7781
  268MOL0     H35332   6.556   9.953   1.041 -1.6935 -0.1776 -1.7601
  268MOL0     H35333   6.623   9.794   0.997 -1.1955  0.4927 -0.3303
  268MOL0     H35334   6.704  10.050   0.887 -6.9791  2.5167  1.9943
  268MOL0     H35335   6.758   9.888   0.838 -1.1648 -1.4353  4.6396
  268MOL0     H35336   6.523   9.839   0.764 -2.5108 -0.2193  2.9202
  268MOL0     H35337   6.601   9.978   0.686  2.2189 -0.4951  0.7582
  268MOL0     H35338   6.407   9.968   0.563 -0.7411 -1.6883 -0.0793
  268MOL0     H35339   6.197   9.982   0.462 -0.0679  1.3995 -0.5233
  268MOL0     H35340   5.822   9.858   0.355 -1.2709 -0.5777  0.5507
  268MOL0     H35341   5.617   9.866   0.236  1.7149 -1.1910 -1.8568
  268MOL0     H35342   5.501  10.234   0.005 -0.4517 -1.7285 -0.5627
  268MOL0     H35343   5.441  10.252   0.171 -0.5422  0.0601 -0.0289
  268MOL0     H35344   5.246  10.253   0.061  0.4907  0.5096 -1.7443
  268MOL0     H35345   5.265  10.078   0.081 -0.3087  0.2355  1.3880
  268MOL0     H35346   5.370  10.078  -0.151 -1.1566 -1.4084  2.6869
  268MOL0     H35347   5.374  10.260  -0.142 -0.2641 -0.3559 -0.2504
  268MOL0     H35348   5.122  10.251  -0.135 -2.5690 -1.7413 -0.9322
  268MOL0     H35349   5.204  10.226  -0.291  0.0735  0.5902 -0.2991
  268MOL0     H35350   5.137   9.995  -0.279 -2.4530  0.0976 -0.8072
  268MOL0     H35351   4.995  10.101  -0.236  1.3346  2.9599  1.1025
  268MOL0     H35352   5.053  10.019   0.013  1.8638 -0.9668  1.1158
  268MOL0     H35353   5.166   9.919  -0.074  0.7551  0.0694 -2.4273
  268MOL0     H35354   4.982   9.818  -0.195 -1.2835  0.0756 -0.0050
  268MOL0     H35355   4.964   9.806  -0.019 -1.1086 -0.2160  0.8307
  268MOL0     H35356   4.755   9.877  -0.169  1.5845 -2.4043  0.9840
  268MOL0     H35357   4.814  10.041  -0.123  3.1344  0.9113  1.9678
  268MOL0     H35358   5.680  10.270   0.130 -2.3834  0.6838  3.8612
  268MOL0     H35359   5.893  10.267   0.263 -0.5959 -0.5946  2.9471
  268MOL0     H35360   6.033  10.193   0.798  2.5760  1.4573  3.8784
  268MOL0     H35361   6.260  10.159   0.922 -1.5563 -0.0492  0.7678
  268MOL0     H35362   7.837   9.382   1.670  2.0903 -1.1528 -0.4939
  268MOL0     H35363   7.996   9.211   1.592  0.6483 -0.6899 -0.9933
  268MOL0     H35364   8.331   8.956   1.406 -0.3788  1.1333 -0.5783
  268MOL0     H35365   8.443   8.764   1.364 -0.0066  0.7333 -0.8640
  268MOL0     H35366   8.500   8.528   1.432  1.6982 -1.9293 -1.1285
  268MOL0     H35367   8.525   8.508   1.266  0.5627 -3.2816 -0.2419
  268MOL0     H35368   8.416   8.312   1.455 -0.5142  1.3022 -0.4545
  268MOL0     H35369   8.427   8.284   1.273 -2.3683  1.4725  0.7485
  268MOL0     H35370   8.661   8.322   1.289 -0.5839  2.7599  0.5377
  268MOL0     H35371   8.618   8.176   1.390 -0.2283  0.1639  0.6696
  268MOL0     H35372   8.689   8.462   1.481 -2.6529  0.1710  1.6313
  268MOL0     H35373   8.636   8.324   1.592  2.6683 -0.0121  1.3464
  268MOL0     H35374   9.030   8.236   1.570 -0.0126  0.8840 -1.2282
  268MOL0     H35375   8.076   8.544   1.338  1.5174 -1.8684 -0.6325
  268MOL0     H35376   7.952   8.751   1.383 -0.7612 -0.6451 -2.1422
  269MOL0     O35377   4.963   5.190  11.274  0.0802 -0.0539 -0.3124
  269MOL0     C35378   4.987   5.261  11.178 -1.2308  0.2839 -0.3047
  269MOL0     O35379   4.890   5.339  11.114 -1.2547 -0.0796  0.0727
  269MOL0     C35380   4.766   5.358  11.168 -0.2461  0.0676  0.2400
  269MOL0     C35381   4.746   5.364  11.312 -0.1304  0.1569  1.0192
  269MOL0     C35382   4.623   5.406  11.368  0.6232  0.8090  0.3118
  269MOL0     C35383   4.512   5.417  11.290  1.0829 -0.5972  1.1504
  269MOL0     O35384   4.411   5.470  11.353 -0.3231 -0.0851 -0.7950
  269MOL0     C35385   4.284   5.435  11.301 -0.0911 -0.2324  0.5192
  269MOL0     C35386   4.176   5.461  11.398 -1.2962  0.5879  0.4223
  269MOL0     C35387   4.046   5.396  11.347  0.7704 -0.2657 -0.4348
  269MOL0     C35388   3.977   5.476  11.238  0.7210 -0.5212  0.1157
  269MOL0     C35389   3.837   5.416  11.225  0.4198 -0.3173 -0.1323
  269MOL0     C35390   3.771   5.481  11.101 -0.5311 -0.9013 -0.4703
  269MOL0     C35391   3.640   5.408  11.046 -0.5693  0.5863 -0.8930
  269MOL0     C35392   3.524   5.441  11.150  0.1051  0.6512  0.0374
  269MOL0     N35393   3.433   5.551  11.113 -0.8008 -1.4466  0.7937
  269MOL0     C35394   3.346   5.533  11.006  0.1716  0.1157 -0.2826
  269MOL0     C35395   3.300   5.659  10.981  0.0156  0.2962  0.4795
  269MOL0     C35396   3.218   5.703  10.863 -0.5565  0.5814  0.0258
  269MOL0     C35397   3.299   5.747  10.737 -0.1844  0.2613 -0.2397
  269MOL0     C35398   3.397   5.645  10.669  0.6557 -0.0855 -0.2345
  269MOL0     C35399   3.444   5.714  10.537 -0.2853 -0.6843 -0.2315
  269MOL0     O35400   3.533   5.822  10.566  0.0413 -0.1021  0.3607
  269MOL0     C35401   3.603   5.872  10.459 -0.6333  0.3661 -0.3658
  269MOL0     C35402   3.582   6.003  10.419  1.2062 -0.5858  0.3197
  269MOL0     C35403   3.634   6.047  10.300 -0.7175 -0.4946  0.3157
  269MOL0     C35404   3.740   5.978  10.234  0.7261  0.8550 -0.1144
  269MOL0     C35405   3.808   6.018  10.113  0.1715 -0.1049  0.3471
  269MOL0     O35406   3.762   6.121  10.041 -0.7738 -0.7059 -0.4566
  269MOL0     C35407   3.813   6.173   9.924 -0.8082 -0.3253 -1.2061
  269MOL0     C35408   3.936   6.140   9.868 -0.2702 -0.2271  0.1924
  269MOL0     C35409   3.977   6.197   9.752 -0.0625  0.4029  0.5429
  269MOL0     C35410   3.900   6.286   9.683  0.4600 -0.2029  0.2784
  269MOL0     O35411   3.926   6.339   9.559  0.5703  0.1258 -0.5966
  269MOL0     C35412   4.064   6.326   9.516  0.6401  0.5105 -0.2969
  269MOL0     C35413   4.075   6.439   9.410 -0.6970 -0.1194  0.2574
  269MOL0     C35414   4.017   6.403   9.270 -0.2326 -0.8146  0.2179
  269MOL0     C35415   4.059   6.517   9.177  0.2999  0.7541 -0.3820
  269MOL0     C35416   3.978   6.511   9.047  0.4602  0.3190 -0.2997
  269MOL0     C35417   4.037   6.597   8.932 -0.1814  0.1876 -0.7481
  269MOL0     C35418   3.932   6.609   8.822  0.1929 -0.4530 -1.2374
  269MOL0     C35419   3.952   6.732   8.746 -0.2314  0.6425 -0.3008
  269MOL0    Cl35420   4.116   6.765   8.685  0.0831 -0.0873 -0.0324
  269MOL0     C35421   3.772   6.312   9.734  0.2065  0.7877 -0.3186
  269MOL0     C35422   3.726   6.256   9.857  0.5456 -0.6619  0.7046
  269MOL0     O35423   3.892   5.949  10.072 -0.6376  0.4957 -0.3319
  269MOL0     C35424   3.765   5.858  10.291 -1.1012  0.7396 -0.5384
  269MOL0     C35425   3.706   5.796  10.406 -0.2648 -0.0074  0.3250
  269MOL0     N35426   3.355   5.743  11.076  0.9399 -0.0894  0.3681
  269MOL0     N35427   3.434   5.677  11.152 -0.1919 -0.7803 -0.5422
  269MOL0     C35428   4.524   5.405  11.149  0.0069  0.0189  0.0909
  269MOL0     C35429   4.654   5.385  11.088  0.0821  0.4963 -0.3575
  269MOL0     C35430   5.113   5.257  11.108 -0.1112  0.3096  0.0890
  269MOL0     C35431   5.190   5.144  11.125 -0.6512  0.4666  0.4719
  269MOL0     C35432   5.313   5.135  11.055 -0.4662  1.0017 -0.1686
  269MOL0     C35433   5.357   5.221  10.967  0.8345 -0.3923 -0.0669
  269MOL0     O35434   5.480   5.207  10.912  0.5481 -0.2412 -0.7009
  269MOL0     C35435   5.534   5.305  10.821  0.2728 -0.1572  0.0458
  269MOL0     C35436   5.670   5.266  10.782  0.6067  0.4487  0.4946
  269MOL0     C35437   5.685   5.119  10.735  0.1564 -0.1354  0.0580
  269MOL0     C35438   5.602   5.085  10.617  0.0529  0.1230  0.2592
  269MOL0     C35439   5.619   5.174  10.503  0.4125 -0.1054  0.7304
  269MOL0     C35440   5.613   5.246  10.406 -0.7781 -0.2852 -0.0014
  269MOL0     C35441   5.269   5.322  10.932  0.1559  0.1394 -0.1161
  269MOL0     C35442   5.156   5.349  11.009  0.3191 -0.3403  0.4911
  269MOL0     H35443   4.830   5.345  11.378  2.2379 -0.7260 -2.0489
  269MOL0     H35444   4.610   5.420  11.475 -2.6935  1.1083 -0.0158
  269MOL0     H35445   4.286   5.334  11.260  1.3057 -0.6835  1.5993
  269MOL0     H35446   4.263   5.500  11.216  2.0312  0.1508  0.2188
  269MOL0     H35447   4.183   5.570  11.413 -3.0761  0.4659  2.6220
  269MOL0     H35448   4.213   5.410  11.487 -1.5667 -0.4471 -0.0451
  269MOL0     H35449   3.978   5.386  11.432  1.1686  2.6032  0.3202
  269MOL0     H35450   4.065   5.298  11.302  0.8814  0.0221 -1.0245
  269MOL0     H35451   3.972   5.583  11.263  1.7824 -0.9420  2.3649
  269MOL0     H35452   4.030   5.456  11.144  2.4291 -0.3826  1.0207
  269MOL0     H35453   3.778   5.453  11.309 -2.0870 -0.7643 -1.5941
  269MOL0     H35454   3.840   5.307  11.227  0.2262 -0.3545 -1.1551
  269MOL0     H35455   3.840   5.462  11.018 -2.2265  0.2310 -2.2219
  269MOL0     H35456   3.758   5.589  11.108 -0.7837 -0.9682  0.1475
  269MOL0     H35457   3.603   5.441  10.948 -0.8733  4.4589  0.3602
  269MOL0     H35458   3.654   5.299  11.053 -2.2271  0.3966 -0.2230
  269MOL0     H35459   3.574   5.462  11.244 -1.1492  2.5741  0.3479
  269MOL0     H35460   3.470   5.346  11.154  0.5140  0.4742  2.1833
  269MOL0     H35461   3.332   5.440  10.952  2.2612 -0.3042 -0.1787
  269MOL0     H35462   3.170   5.787  10.913 -4.4278 -2.0856  1.3084
  269MOL0     H35463   3.138   5.632  10.840  1.9500 -1.5587 -2.8436
  269MOL0     H35464   3.354   5.841  10.753  0.7259  0.3693 -3.3230
  269MOL0     H35465   3.224   5.794  10.672  2.7970  4.8842 -0.8314
  269MOL0     H35466   3.476   5.616  10.739  0.0105 -3.8497 -0.8456
  269MOL0     H35467   3.351   5.551  10.636  1.6733  0.6687 -4.4100
  269MOL0     H35468   3.360   5.751  10.478  0.8097  3.8318  0.6338
  269MOL0     H35469   3.497   5.638  10.479  3.2720  0.2241  1.5564
  269MOL0     H35470   3.496   6.060  10.454  1.3181  0.2293 -0.6765
  269MOL0     H35471   3.591   6.138  10.257 -2.7657 -2.1471 -1.3595
  269MOL0     H35472   4.001   6.074   9.924  0.2457  1.0314  1.1136
  269MOL0     H35473   4.072   6.172   9.707  0.3052  0.8611  1.0431
  269MOL0     H35474   4.084   6.226   9.476 -0.9235 -0.2549  0.7451
  269MOL0     H35475   4.137   6.342   9.596  2.5088 -2.9400 -1.0958
  269MOL0     H35476   4.180   6.464   9.391 -0.3577 -2.2085 -0.9696
  269MOL0     H35477   4.027   6.532   9.441 -2.0839 -0.4329 -0.8680
  269MOL0     H35478   3.908   6.408   9.279 -0.2249  1.6241 -0.3352
  269MOL0     H35479   4.053   6.306   9.233  0.9246  1.0674 -4.1614
  269MOL0     H35480   4.044   6.615   9.224  2.2835  0.7615  0.3510
  269MOL0     H35481   4.167   6.509   9.161  0.4613  0.4500  0.7889
  269MOL0     H35482   3.877   6.540   9.077  0.1396 -2.6469  1.9446
  269MOL0     H35483   3.971   6.409   9.008  0.0242  0.3292 -0.2497
  269MOL0     H35484   4.127   6.547   8.896 -1.4843 -2.3376 -0.7076
  269MOL0     H35485   4.062   6.696   8.971  0.4786 -0.8083  1.5413
  269MOL0     H35486   3.931   6.517   8.762  3.2219 -0.9356 -0.7085
  269MOL0     H35487   3.837   6.628   8.872  0.5481  1.5415 -1.2378
  269MOL0     H35488   3.909   6.815   8.802 -0.8083  1.8164 -2.3958
  269MOL0     H35489   3.893   6.724   8.655 -3.2062  3.5855  1.1931
  269MOL0     H35490   3.702   6.367   9.671  0.2267 -1.1822 -2.1693
  269MOL0     H35491   3.631   6.283   9.903  0.4458  1.3835 -0.5331
  269MOL0     H35492   3.841   5.806  10.233 -1.2927  0.6326 -0.6965
  269MOL0     H35493   3.741   5.705  10.453 -0.6171 -0.6382 -0.6116
  269MOL0     H35494   4.445   5.432  11.079  0.1640  0.1972 -0.0227
  269MOL0     H35495   4.672   5.392  10.981 -0.7027 -0.1417 -0.5377
  269MOL0     H35496   5.159   5.069  11.197  1.1809 -2.0479 -1.1955
  269MOL0     H35497   5.380   5.053  11.077 -0.2042  0.5025 -2.4903
  269MOL0     H35498   5.534   5.404  10.869  1.4486 -0.8601  1.5921
  269MOL0     H35499   5.471   5.313  10.732 -0.7312  1.2835  0.8298
  269MOL0     H35500   5.710   5.336  10.708  0.2319  0.9772  0.7796
  269MOL0     H35501   5.723   5.271  10.878 -0.0005  0.4630  0.8345
  269MOL0     H35502   5.661   5.049  10.815 -0.4468 -0.4566 -0.3921
  269MOL0     H35503   5.790   5.091  10.721 -0.4098 -3.9961  2.1030
  269MOL0     H35504   5.619   4.979  10.592  3.1830  0.5344  0.1934
  269MOL0     H35505   5.495   5.093  10.639 -0.7934 -1.6036 -2.6902
  269MOL0     H35506   5.623   5.308  10.320 -3.3598  0.5250  0.1869
  269MOL0     H35507   5.290   5.389  10.849  0.4741  1.5981  1.0955
  269MOL0     H35508   5.098   5.436  10.981 -1.1163 -1.2294  0.5420
  270MOL0     O35509   1.787   0.515   1.428 -0.4395  0.1291  1.5377
  270MOL0     C35510   1.810   0.403   1.475 -0.4719 -0.7717 -0.5119
  270MOL0     O35511   1.732   0.291   1.472  0.3652 -0.0228 -0.5632
  270MOL0     C35512   1.600   0.293   1.427  0.4344  0.1436  0.3898
  270MOL0     C35513   1.555   0.189   1.346  0.7757 -0.2233  0.6888
  270MOL0     C35514   1.431   0.203   1.273  0.1043  0.9886 -0.1206
  270MOL0     C35515   1.341   0.314   1.302 -0.0183 -0.3728 -0.0813
  270MOL0     O35516   1.215   0.309   1.248  0.4417 -0.2845  0.7668
  270MOL0     C35517   1.108   0.368   1.322 -0.3413  0.4845  0.6778
  270MOL0     C35518   0.968   0.345   1.258 -0.3629  0.4965 -0.6362
  270MOL0     C35519   0.853   0.423   1.334 -0.5137  0.4621 -0.0836
  270MOL0     C35520   0.717   0.396   1.281  0.5396 -0.2670  0.3262
  270MOL0     C35521   0.647   0.266   1.313  0.0748 -0.8443  1.0813
  270MOL0     C35522   0.511   0.259   1.247  0.5734 -0.2831 -0.3036
  270MOL0     C35523   0.401   0.356   1.302  0.5853 -0.6841 -0.1918
  270MOL0     C35524   0.260   0.318   1.248  0.3238  0.2771 -0.0058
  270MOL0     N35525   0.256   0.309   1.102  0.5942  0.4704  0.3142
  270MOL0     C35526   0.178   0.227   1.028  0.0108  0.1821 -0.5257
  270MOL0     C35527   0.160   0.284   0.906 -0.5416 -0.4530 -0.4308
  270MOL0     C35528   0.084   0.217   0.794  0.3138 -0.1525 -0.6539
  270MOL0     C35529   0.023   0.334   0.718 -0.2202  1.4027 -0.2024
  270MOL0     C35530  -0.064   0.273   0.603 -1.0560 -0.0561 -0.4807
  270MOL0     C35531  -0.178   0.371   0.578  0.4514 -1.2126  0.2544
  270MOL0     O35532  -0.241   0.307   0.458  0.7430  0.7741 -0.7799
  270MOL0     C35533  -0.334   0.385   0.391 -0.3323 -0.1938 -0.3678
  270MOL0     C35534  -0.345   0.363   0.256 -0.4520 -0.3349  0.1365
  270MOL0     C35535  -0.435   0.447   0.187  0.9361 -0.0732 -0.1942
  270MOL0     C35536  -0.530   0.530   0.243 -0.2375 -0.3466 -1.3647
  270MOL0     C35537  -0.636   0.608   0.172  0.0836  1.4065 -0.5180
  270MOL0     O35538  -0.668   0.558   0.045 -0.5111 -0.8625 -0.4129
  270MOL0     C35539  -0.770   0.623  -0.016  0.3533  0.2074 -0.8329
  270MOL0     C35540  -0.747   0.750  -0.063 -0.0054  0.0645  0.4463
  270MOL0     C35541  -0.857   0.825  -0.108  0.8487  0.5564 -0.0960
  270MOL0     C35542  -0.986   0.783  -0.087  0.2969  0.8439 -0.2769
  270MOL0     O35543  -1.095   0.849  -0.136 -0.3323 -0.0787  0.1779
  270MOL0     C35544  -1.151   0.789  -0.255 -0.1667 -0.9128 -0.0825
  270MOL0     C35545  -1.262   0.879  -0.299 -0.1573  0.1522 -0.2463
  270MOL0     C35546  -1.214   1.018  -0.352 -0.1203 -0.0962 -0.2432
  270MOL0     C35547  -1.327   1.081  -0.432 -0.6886 -0.1774 -0.3299
  270MOL0     C35548  -1.288   1.229  -0.485  0.3780  0.1798 -0.7695
  270MOL0     C35549  -1.142   1.255  -0.551  0.7268  0.6480 -0.0963
  270MOL0     C35550  -1.144   1.404  -0.577  0.4286 -0.0984  0.5999
  270MOL0     C35551  -0.997   1.450  -0.577  0.6693 -0.5132  0.2362
  270MOL0    Cl35552  -0.900   1.348  -0.684  0.2239 -0.1531  0.2937
  270MOL0     C35553  -1.005   0.658  -0.031 -0.0844  0.0745  0.1975
  270MOL0     C35554  -0.901   0.576   0.001 -1.1723  0.0946  0.1885
  270MOL0     O35555  -0.698   0.690   0.234  0.0198  0.3408 -0.2048
  270MOL0     C35556  -0.519   0.540   0.383  0.1244  0.5675 -0.3924
  270MOL0     C35557  -0.420   0.480   0.452 -0.1880 -0.4998 -1.0263
  270MOL0     N35558   0.229   0.399   0.907 -0.3540  0.4225  0.1757
  270MOL0     N35559   0.285   0.418   1.024  0.0768  0.0983 -0.0797
  270MOL0     C35560   1.388   0.414   1.381  0.1808  0.0333 -1.2933
  270MOL0     C35561   1.514   0.404   1.440 -0.0408 -0.0032  0.5411
  270MOL0     C35562   1.951   0.386   1.519  0.1271  0.1244  1.0795
  270MOL0     C35563   1.979   0.286   1.612 -0.4257 -0.8801  0.2138
  270MOL0     C35564   2.114   0.261   1.646  0.1598 -0.0635 -0.5029
  270MOL0     C35565   2.216   0.342   1.593 -0.0565  0.2326 -0.0444
  270MOL0     O35566   2.346   0.325   1.628 -0.1408  0.0675 -0.3801
  270MOL0     C35567   2.394   0.205   1.691 -0.1173  0.4708 -0.2559
  270MOL0     C35568   2.540   0.181   1.691  0.4424  0.1618  0.2306
  270MOL0     C35569   2.612   0.276   1.790  0.5365  0.6125  0.1643
  270MOL0     C35570   2.764   0.271   1.785  0.0637  0.0142 -0.0671
  270MOL0     C35571   2.831   0.340   1.898 -0.5687 -0.4009  0.7947
  270MOL0     C35572   2.902   0.359   1.986 -0.0518  0.0779 -0.3860
  270MOL0     C35573   2.183   0.444   1.506  0.0339  0.3952 -0.0145
  270MOL0     C35574   2.051   0.459   1.468  0.0339 -0.6629  0.4699
  270MOL0     H35575   1.619   0.104   1.324  1.1264 -0.0703  1.0929
  270MOL0     H35576   1.404   0.130   1.198 -0.5334  0.1324  0.9058
  270MOL0     H35577   1.126   0.475   1.335 -0.4730  0.3000  2.7180
  270MOL0     H35578   1.110   0.337   1.427 -0.7310  0.6023  0.7206
  270MOL0     H35579   0.961   0.237   1.274  2.4569  0.3868  0.4569
  270MOL0     H35580   0.975   0.375   1.153 -3.1691  0.9377 -0.7769
  270MOL0     H35581   0.868   0.531   1.326 -2.9553  0.9532  1.0797
  270MOL0     H35582   0.863   0.405   1.442  0.7080  1.6443  0.0262
  270MOL0     H35583   0.646   0.474   1.311 -0.3991 -1.1146  0.3435
  270MOL0     H35584   0.717   0.387   1.172 -5.5405  0.0690 -0.0309
  270MOL0     H35585   0.639   0.254   1.421  2.5489 -1.8958  1.2037
  270MOL0     H35586   0.703   0.177   1.282 -1.8497 -1.1931 -1.7740
  270MOL0     H35587   0.481   0.154   1.237  1.4435 -0.4524 -1.4022
  270MOL0     H35588   0.527   0.303   1.148 -0.6719 -0.8377 -0.7743
  270MOL0     H35589   0.404   0.352   1.412 -1.5497 -1.7594 -0.1157
  270MOL0     H35590   0.414   0.460   1.274 -0.7874 -0.4256  0.0352
  270MOL0     H35591   0.184   0.381   1.295  1.0620  1.1856  0.0024
  270MOL0     H35592   0.243   0.216   1.284 -2.5102  0.5409 -0.4305
  270MOL0     H35593   0.158   0.127   1.064 -2.7746  0.4371 -1.1333
  270MOL0     H35594   0.013   0.147   0.837  0.2087 -0.7022 -1.7024
  270MOL0     H35595   0.155   0.160   0.733  1.2654 -1.1025  1.2722
  270MOL0     H35596   0.104   0.388   0.667  0.7103 -0.5696 -0.9342
  270MOL0     H35597  -0.049   0.392   0.776  0.9678  0.9633  1.8381
  270MOL0     H35598  -0.011   0.250   0.510  0.8800 -1.1730  0.8115
  270MOL0     H35599  -0.114   0.185   0.645 -2.0840 -0.2020 -1.9340
  270MOL0     H35600  -0.133   0.469   0.559 -2.6797 -0.1656 -3.0554
  270MOL0     H35601  -0.240   0.375   0.668  0.7094 -1.0347  0.4260
  270MOL0     H35602  -0.293   0.282   0.204 -1.7301 -0.2564 -1.3270
  270MOL0     H35603  -0.439   0.426   0.081 -1.6094 -1.5385  0.1189
  270MOL0     H35604  -0.643   0.780  -0.075  0.0311  0.5829  1.8892
  270MOL0     H35605  -0.849   0.915  -0.168  0.3235  1.3539  0.9896
  270MOL0     H35606  -1.185   0.687  -0.233 -0.9075 -0.2590  2.0997
  270MOL0     H35607  -1.069   0.775  -0.326 -1.0174 -0.5919 -1.1374
  270MOL0     H35608  -1.339   0.888  -0.221 -1.6461  2.1182 -1.8240
  270MOL0     H35609  -1.307   0.831  -0.386 -0.1473  0.7729 -0.5947
  270MOL0     H35610  -1.143   1.011  -0.434  0.0359  1.9089 -0.3444
  270MOL0     H35611  -1.185   1.087  -0.271 -1.9158  2.9157 -1.9763
  270MOL0     H35612  -1.357   1.023  -0.520  2.7419 -2.1989 -0.3581
  270MOL0     H35613  -1.405   1.093  -0.357  0.3292 -1.2297  0.9624
  270MOL0     H35614  -1.286   1.297  -0.399  2.9470  0.6943 -1.1430
  270MOL0     H35615  -1.372   1.258  -0.548  0.0068 -0.9124 -0.8036
  270MOL0     H35616  -1.145   1.207  -0.649  3.7351  0.2390 -0.0609
  270MOL0     H35617  -1.049   1.231  -0.499  0.7432  1.8181  0.4563
  270MOL0     H35618  -1.191   1.433  -0.671 -1.3619  0.4484  1.6193
  270MOL0     H35619  -1.194   1.458  -0.496  0.6858  1.1153 -0.0346
  270MOL0     H35620  -0.951   1.468  -0.479  1.2650 -1.5410  0.1683
  270MOL0     H35621  -1.010   1.544  -0.631 -1.5620 -1.3755 -0.8674
  270MOL0     H35622  -1.104   0.615  -0.018  0.3947 -0.2617  3.9437
  270MOL0     H35623  -0.919   0.473   0.033 -2.2377  0.2212  0.0321
  270MOL0     H35624  -0.586   0.603   0.440  0.3973 -0.1683  0.7673
  270MOL0     H35625  -0.406   0.490   0.559 -1.9923  0.2665 -0.8418
  270MOL0     H35626   1.325   0.501   1.396 -1.7205 -1.3968 -0.5337
  270MOL0     H35627   1.547   0.485   1.504  1.6469 -1.6223  1.8181
  270MOL0     H35628   1.898   0.233   1.661 -1.1127  0.1318  0.2051
  270MOL0     H35629   2.127   0.191   1.729  2.3576  1.3856  0.4828
  270MOL0     H35630   2.340   0.116   1.659  0.5145  0.2290 -0.6688
  270MOL0     H35631   2.363   0.215   1.796  1.0503 -2.8151  0.5162
  270MOL0     H35632   2.564   0.077   1.717  0.9205  0.2938  0.3292
  270MOL0     H35633   2.580   0.192   1.590 -0.4656  1.9233  0.0190
  270MOL0     H35634   2.574   0.225   1.879  0.1983 -3.5408 -2.0811
  270MOL0     H35635   2.565   0.372   1.767  1.4042  0.7219 -1.3447
  270MOL0     H35636   2.793   0.166   1.777  0.3465  0.1368 -0.8261
  270MOL0     H35637   2.794   0.308   1.686 -2.7770 -0.7304 -1.2947
  270MOL0     H35638   2.946   0.372   2.083  1.1461  0.0634 -0.9150
  270MOL0     H35639   2.253   0.500   1.445 -1.6897 -1.3557 -3.9453
  270MOL0     H35640   2.032   0.530   1.388  6.0579 -0.3248 -1.1228
  271MOL0     O35641   4.227  10.646   1.031  0.7200  0.7189  0.5666
  271MOL0     C35642   4.252  10.524   1.052 -0.1411  0.1450  0.3281
  271MOL0     O35643   4.157  10.423   1.048  0.6873 -0.2857 -0.6522
  271MOL0     C35644   4.018  10.455   1.057  0.1393  0.4193 -0.7563
  271MOL0     C35645   3.968  10.548   1.154  0.2931  0.3400  0.2468
  271MOL0     C35646   3.838  10.581   1.149 -1.1147  0.0087 -0.3514
  271MOL0     C35647   3.760  10.542   1.039  0.1949  0.7010  0.1536
  271MOL0     O35648   3.634  10.572   1.024  0.1958  0.1723  0.1099
  271MOL0     C35649   3.575  10.690   1.091 -1.2253  0.5577 -0.0475
  271MOL0     C35650   3.426  10.684   1.069  0.7428  1.2956  0.2906
  271MOL0     C35651   3.387  10.705   0.917  0.0389  0.3364  0.6130
  271MOL0     C35652   3.261  10.612   0.885 -1.0388 -0.3035 -0.0292
  271MOL0     C35653   3.138  10.654   0.974 -0.3984 -1.1727  0.6139
  271MOL0     C35654   3.016  10.594   0.898 -0.1482  0.2978  0.4811
  271MOL0     C35655   2.964  10.675   0.780  0.6705 -0.2690  0.2597
  271MOL0     C35656   2.829  10.615   0.723  0.0118 -1.3021  0.3965
  271MOL0     N35657   2.766  10.689   0.607 -0.3888  0.2738  0.3060
  271MOL0     C35658   2.644  10.750   0.623 -0.0040  0.0979 -0.1727
  271MOL0     C35659   2.606  10.798   0.499  0.0969 -0.2456  0.1540
  271MOL0     C35660   2.474  10.861   0.470  0.5217 -0.2465  0.0050
  271MOL0     C35661   2.363  10.764   0.419 -0.6623  0.2923 -0.0493
  271MOL0     C35662   2.242  10.864   0.394  0.1836  0.1038  0.2802
  271MOL0     C35663   2.114  10.788   0.368 -0.1957 -0.1681 -0.9474
  271MOL0     O35664   2.139  10.723   0.235  0.0357  0.3733  0.2435
  271MOL0     C35665   2.029  10.729   0.159 -1.0284  0.4018  0.0849
  271MOL0     C35666   1.921  10.649   0.198 -0.5427  0.2758  0.0656
  271MOL0     C35667   1.801  10.655   0.131 -0.9690  0.0976  0.6213
  271MOL0     C35668   1.787  10.745   0.015 -0.4244  1.0653  0.2756
  271MOL0     C35669   1.667  10.748  -0.071  0.4189 -0.5653 -0.0520
  271MOL0     O35670   1.673  10.815  -0.191  0.0171 -0.3216  0.4937
  271MOL0     C35671   1.561  10.788  -0.264 -0.5504 -0.5702  0.8363
  271MOL0     C35672   1.540  10.681  -0.359 -0.4444  0.6719 -0.3903
  271MOL0     C35673   1.418  10.657  -0.403  0.4674 -0.0335 -0.0042
  271MOL0     C35674   1.315  10.747  -0.375 -0.3665  0.6839  0.3887
  271MOL0     O35675   1.182  10.718  -0.417  0.5602  0.3003  0.5622
  271MOL0     C35676   1.139  10.589  -0.469  0.3852  0.2489  0.7659
  271MOL0     C35677   0.997  10.576  -0.501  0.3240  0.2680  0.7454
  271MOL0     C35678   0.960  10.439  -0.558  0.9367  0.0978 -0.5102
  271MOL0     C35679   0.828  10.438  -0.630 -0.2474  0.1094 -0.8914
  271MOL0     C35680   0.697  10.468  -0.544 -1.6883 -0.5969  1.0070
  271MOL0     C35681   0.656  10.341  -0.477 -0.6164  0.1027 -0.5517
  271MOL0     C35682   0.561  10.355  -0.354  0.8492 -0.2008 -0.7167
  271MOL0     C35683   0.424  10.419  -0.389  0.1456 -0.3091  0.4496
  271MOL0    Cl35684   0.332  10.275  -0.468 -0.1216  0.0421  0.0109
  271MOL0     C35685   1.339  10.858  -0.296  0.2116  0.2161  0.3367
  271MOL0     C35686   1.465  10.877  -0.240  0.3240 -0.2828 -0.6022
  271MOL0     O35687   1.563  10.704  -0.019  1.2511  1.0234  0.5096
  271MOL0     C35688   1.901  10.828  -0.018  0.6336 -0.3745  0.2875
  271MOL0     C35689   2.023  10.826   0.053 -0.2911  0.7465  0.2813
  271MOL0     N35690   2.717  10.791   0.417 -0.0057 -0.3756  0.3207
  271MOL0     N35691   2.813  10.719   0.479 -0.3894  0.1751 -0.6077
  271MOL0     C35692   3.815  10.451   0.952  0.1645 -0.6292 -0.6039
  271MOL0     C35693   3.941  10.402   0.960  1.3791  0.5807  0.7060
  271MOL0     C35694   4.392  10.503   1.074  0.0371  0.6609 -0.1554
  271MOL0     C35695   4.434  10.367   1.057  0.4673  0.1585 -0.2309
  271MOL0     C35696   4.556  10.326   1.089 -0.5332 -0.5124  0.6459
  271MOL0     C35697   4.653  10.424   1.125  0.4356 -0.2106 -0.0848
  271MOL0     O35698   4.787  10.391   1.133  0.3400 -0.5208  0.5899
  271MOL0     C35699   4.834  10.334   1.013 -0.4552 -0.0482 -0.6545
  271MOL0     C35700   4.985  10.375   1.005  0.2294  0.1472 -0.4985
  271MOL0     C35701   5.059  10.331   1.134 -0.7021 -0.1195 -0.3123
  271MOL0     C35702   5.214  10.330   1.111  0.2380 -0.0261  0.6996
  271MOL0     C35703   5.274  10.458   1.145  0.3823 -0.7788  1.0983
  271MOL0     C35704   5.336  10.564   1.153 -0.5064  0.5492  0.1399
  271MOL0     C35705   4.609  10.557   1.153  0.1652 -0.0679  0.0198
  271MOL0     C35706   4.484  10.596   1.117  0.2650  0.9223 -0.1271
  271MOL0     H35707   4.030  10.580   1.238 -2.2145  2.9100  1.2862
  271MOL0     H35708   3.819  10.653   1.228 -1.6845 -0.4081 -0.1026
  271MOL0     H35709   3.627  10.779   1.052  2.3635 -1.4750 -0.3321
  271MOL0     H35710   3.590  10.686   1.199 -1.7989 -0.8554 -0.0044
  271MOL0     H35711   3.387  10.760   1.138 -0.7712  2.6317 -1.9110
  271MOL0     H35712   3.397  10.584   1.101  2.3992  0.1860 -1.4735
  271MOL0     H35713   3.476  10.682   0.858  1.9179  0.4542  3.2225
  271MOL0     H35714   3.360  10.809   0.901 -2.0195  0.4122  3.7325
  271MOL0     H35715   3.234  10.619   0.779 -1.9713 -1.8069  0.0893
  271MOL0     H35716   3.279  10.506   0.906 -3.8446 -0.7819  0.2839
  271MOL0     H35717   3.121  10.761   0.987 -0.7482 -1.5479  4.1344
  271MOL0     H35718   3.141  10.615   1.076 -1.4484  0.2276  1.2224
  271MOL0     H35719   2.926  10.591   0.961 -1.8550  2.0278 -1.6979
  271MOL0     H35720   3.045  10.495   0.861  3.2343  2.4210 -3.3574
  271MOL0     H35721   2.949  10.778   0.815 -1.3524 -1.0284  1.8191
  271MOL0     H35722   3.033  10.676   0.695 -0.1035 -0.5629 -0.3884
  271MOL0     H35723   2.751  10.600   0.798  0.6158 -1.8614  0.9343
  271MOL0     H35724   2.854  10.516   0.686  3.1654 -0.1031 -1.0544
  271MOL0     H35725   2.588  10.748   0.716 -0.5075 -1.3744 -0.4814
  271MOL0     H35726   2.487  10.945   0.401 -0.2213  0.0620  0.2350
  271MOL0     H35727   2.441  10.908   0.563 -0.9557 -1.5968  0.2014
  271MOL0     H35728   2.339  10.697   0.502 -1.9744 -1.7063 -1.9214
  271MOL0     H35729   2.394  10.706   0.331 -1.1751  0.8093 -0.5753
  271MOL0     H35730   2.235  10.933   0.478 -0.0554 -1.6582  1.7751
  271MOL0     H35731   2.270  10.926   0.308  4.4482  0.7594  1.9216
  271MOL0     H35732   2.030  10.858   0.377  0.5038  0.3633  3.2945
  271MOL0     H35733   2.096  10.703   0.435  0.1401 -0.2087 -0.9074
  271MOL0     H35734   1.919  10.586   0.287  2.7015  0.8652  0.6804
  271MOL0     H35735   1.717  10.596   0.168 -0.2805 -0.3200  1.5489
  271MOL0     H35736   1.610  10.600  -0.376 -1.0142 -0.4229  2.0036
  271MOL0     H35737   1.400  10.568  -0.463 -0.6606 -0.7513  1.3255
  271MOL0     H35738   1.165  10.512  -0.395  1.8765  0.6203  0.6445
  271MOL0     H35739   1.196  10.572  -0.560  0.5693  4.8543 -0.2088
  271MOL0     H35740   0.981  10.652  -0.578 -3.5971  0.6730  1.7770
  271MOL0     H35741   0.933  10.602  -0.417 -1.1540 -1.5130  0.2226
  271MOL0     H35742   0.951  10.362  -0.480  0.0675  0.6504 -0.0435
  271MOL0     H35743   1.041  10.409  -0.625  2.2524  1.0749  0.5791
  271MOL0     H35744   0.834  10.514  -0.707  1.7204  0.6244 -0.2825
  271MOL0     H35745   0.817  10.343  -0.683 -1.2507 -0.6467  0.5984
  271MOL0     H35746   0.621  10.504  -0.613  0.1696  2.2342  0.3123
  271MOL0     H35747   0.721  10.545  -0.470 -0.6450 -2.0836  2.3025
  271MOL0     H35748   0.753  10.312  -0.436 -1.1882  2.0476  2.4935
  271MOL0     H35749   0.624  10.271  -0.555 -1.2558 -1.6040  1.1298
  271MOL0     H35750   0.553  10.261  -0.298 -0.6728  0.7068  0.6808
  271MOL0     H35751   0.610  10.420  -0.281 -2.1165  0.9319  0.4474
  271MOL0     H35752   0.426  10.513  -0.444  1.6500  0.5162  1.8286
  271MOL0     H35753   0.376  10.434  -0.293 -1.9651  1.6559 -0.8290
  271MOL0     H35754   1.259  10.927  -0.273 -0.4009  0.8663 -3.1665
  271MOL0     H35755   1.490  10.971  -0.192 -0.9591 -1.0302  1.6567
  271MOL0     H35756   1.880  10.895  -0.101  0.5372 -0.6846  0.0601
  271MOL0     H35757   2.100  10.900   0.034  1.0457 -0.5380  0.5169
  271MOL0     H35758   3.762  10.409   0.867 -0.0769 -0.3637 -0.5861
  271MOL0     H35759   3.974  10.343   0.874 -2.2229 -0.7898  0.1132
  271MOL0     H35760   4.362  10.296   1.017 -1.4462  0.6978  2.0049
  271MOL0     H35761   4.582  10.221   1.081  0.3410 -0.2041 -1.0106
  271MOL0     H35762   4.779  10.361   0.922 -0.4670  0.1516 -0.5867
  271MOL0     H35763   4.830  10.225   1.026  0.8842 -0.0583 -0.2202
  271MOL0     H35764   5.024  10.321   0.918  1.0902  0.7760 -0.5156
  271MOL0     H35765   4.994  10.482   0.983  2.3309  0.3575  1.0202
  271MOL0     H35766   5.018  10.234   1.162 -0.0175 -0.9465 -1.9844
  271MOL0     H35767   5.032  10.412   1.201  0.2153  1.5284 -1.8467
  271MOL0     H35768   5.255  10.266   1.190  1.5222  1.4910  1.3193
  271MOL0     H35769   5.233  10.286   1.013 -0.1727  1.6659 -0.1661
  271MOL0     H35770   5.405  10.644   1.172 -3.7404  3.0378  2.7727
  271MOL0     H35771   4.696  10.615   1.182  0.3514 -0.0495 -0.5590
  271MOL0     H35772   4.450  10.699   1.125  2.4698  1.5808  1.6259
  272MOL0     O35773  10.341  10.663  10.210 -1.1236  0.7701 -0.3573
  272MOL0     C35774  10.285  10.769  10.251 -0.2538  0.7597 -0.4193
  272MOL0     O35775  10.155  10.797  10.215 -0.3866 -0.3249  0.4014
  272MOL0     C35776  10.104  10.719  10.115 -0.8742 -0.4129  0.3861
  272MOL0     C35777  10.175  10.724   9.991 -0.4652 -0.7721 -0.1446
  272MOL0     C35778  10.122  10.644   9.887  0.8221 -1.1038  0.2646
  272MOL0     C35779  10.015  10.553   9.899 -0.2380  0.4204  0.6931
  272MOL0     O35780   9.977  10.495   9.780 -0.2890  0.3619 -0.0008
  272MOL0     C35781   9.953  10.353   9.802 -0.6713 -0.7327 -0.6425
  272MOL0     C35782   9.826  10.320   9.732 -0.3501  0.4084 -0.5498
  272MOL0     C35783   9.702  10.360   9.821  0.0557  0.3139  0.0290
  272MOL0     C35784   9.580  10.340   9.728  0.1363  0.2956 -0.6606
  272MOL0     C35785   9.455  10.358   9.811  0.0243  0.0760 -0.4562
  272MOL0     C35786   9.431  10.236   9.911 -0.1469  0.2413  0.0875
  272MOL0     C35787   9.286  10.234   9.952  0.2403 -0.0684 -0.6434
  272MOL0     C35788   9.284  10.152  10.076  0.0349 -0.0409  0.7685
  272MOL0     N35789   9.143  10.119  10.106 -0.3840  0.9348  0.2430
  272MOL0     C35790   9.080  10.009  10.053  0.8034  0.5659  0.4311
  272MOL0     C35791   8.946  10.040  10.049 -0.6194  0.2650  0.0600
  272MOL0     C35792   8.831   9.958  10.009 -0.1399  0.0086  1.1144
  272MOL0     C35793   8.771  10.018   9.875  0.2815 -0.5216 -0.0001
  272MOL0     C35794   8.650   9.939   9.838  0.3527 -0.8100  0.6957
  272MOL0     C35795   8.567  10.017   9.729 -0.1530  0.0561 -0.6521
  272MOL0     O35796   8.450   9.937   9.699  0.0628 -0.1239 -0.2700
  272MOL0     C35797   8.325   9.984   9.745  0.2534  1.1144 -0.5902
  272MOL0     C35798   8.289  10.096   9.830 -0.3480 -0.2215  0.1746
  272MOL0     C35799   8.161  10.120   9.877 -0.5396  1.0640  0.5002
  272MOL0     C35800   8.059  10.044   9.825 -0.0553 -0.5325 -0.6106
  272MOL0     C35801   7.914  10.071   9.849  0.4425 -0.3169  1.0577
  272MOL0     O35802   7.886  10.162   9.949  0.3188 -0.1401  0.0234
  272MOL0     C35803   7.757  10.179   9.999  0.1702  0.2270  1.0534
  272MOL0     C35804   7.634  10.132   9.946  0.6690 -0.4496 -0.4412
  272MOL0     C35805   7.513  10.159  10.005  0.6025  0.6720 -0.0988
  272MOL0     C35806   7.508  10.220  10.125  0.5387  0.4347 -0.9982
  272MOL0     O35807   7.384  10.266  10.177  0.0190  0.5642 -0.8656
  272MOL0     C35808   7.294  10.332  10.095 -0.5994  0.5276  0.3559
  272MOL0     C35809   7.239  10.442  10.172  1.4116 -0.0052 -0.7693
  272MOL0     C35810   7.318  10.568  10.170  0.0143 -0.8728  0.6828
  272MOL0     C35811   7.237  10.692  10.215 -0.0975  0.0699 -0.0266
  272MOL0     C35812   7.184  10.689  10.361  0.9156  0.0831 -0.7732
  272MOL0     C35813   7.122  10.825  10.396  0.7307 -0.1950  1.0147
  272MOL0     C35814   7.066  10.827  10.539  0.1777  0.1710  0.7803
  272MOL0     C35815   7.096  10.967  10.601  1.4224  0.0045  0.5207
  272MOL0    Cl35816   7.268  10.972  10.632  0.3008 -0.3476  0.0945
  272MOL0     C35817   7.632  10.269  10.180  0.8866 -0.0212 -0.3110
  272MOL0     C35818   7.753  10.242  10.116 -0.1934 -0.3717 -0.5384
  272MOL0     O35819   7.830  10.022   9.771  0.2378 -1.4373 -0.6750
  272MOL0     C35820   8.091   9.929   9.745 -0.3194  0.6062  0.7176
  272MOL0     C35821   8.224   9.899   9.708 -0.4396  0.1052  0.2109
  272MOL0     N35822   8.938  10.173  10.098 -0.3858  0.7825  0.0173
  272MOL0     N35823   9.053  10.220  10.142  0.6957 -0.2003  0.8134
  272MOL0     C35824   9.954  10.546  10.021 -0.8889 -0.7171  0.0757
  272MOL0     C35825   9.999  10.636  10.124  0.4433  0.4860  0.4173
  272MOL0     C35826  10.361  10.863  10.336  0.0792  0.5402  0.1275
  272MOL0     C35827  10.466  10.818  10.425 -0.0492  1.2008 -0.2774
  272MOL0     C35828  10.532  10.909  10.506  0.6030  0.9007  0.7243
  272MOL0     C35829  10.529  11.047  10.486  0.2370  0.2730 -0.4803
  272MOL0     O35830  10.602  11.139  10.557 -0.2217  0.8031 -0.0140
  272MOL0     C35831  10.637  11.263  10.493  0.2818 -1.0811 -0.0382
  272MOL0     C35832  10.773  11.311  10.552 -0.6514  0.2042 -0.6536
  272MOL0     C35833  10.837  11.415  10.456  0.3936  0.4138  0.2812
  272MOL0     C35834  10.951  11.487  10.521 -0.2100  0.5838 -0.0428
  272MOL0     C35835  10.976  11.621  10.460  0.4565  1.4767 -0.4214
  272MOL0     C35836  10.988  11.729  10.419 -0.4767 -0.5402  0.3392
  272MOL0     C35837  10.434  11.088  10.392 -0.0547 -0.0291  0.1510
  272MOL0     C35838  10.358  11.006  10.317  0.5111  0.9556  0.5911
  272MOL0     H35839  10.262  10.790   9.991 -1.0220 -0.0270  0.4972
  272MOL0     H35840  10.172  10.639   9.791  0.8434  1.7600  0.0575
  272MOL0     H35841   9.939  10.311   9.902 -2.5223 -1.6528 -1.2296
  272MOL0     H35842  10.040  10.301   9.761 -0.3458  0.1424 -1.0753
  272MOL0     H35843   9.834  10.211   9.730 -1.2925  0.3175 -2.8993
  272MOL0     H35844   9.830  10.355   9.628  1.2631 -0.0597 -0.6759
  272MOL0     H35845   9.716  10.465   9.849  1.4687  0.7046 -1.8849
  272MOL0     H35846   9.710  10.287   9.902 -0.7974  1.3863  1.1044
  272MOL0     H35847   9.577  10.408   9.642 -0.7999  0.6233 -0.3855
  272MOL0     H35848   9.590  10.238   9.692 -0.0305 -0.2502  0.7554
  272MOL0     H35849   9.379  10.353   9.733  0.2812  1.2745 -0.8007
  272MOL0     H35850   9.436  10.446   9.873 -2.1783 -1.3161  0.9950
  272MOL0     H35851   9.502  10.267   9.988  1.1557  2.1335 -1.7608
  272MOL0     H35852   9.449  10.136   9.871 -3.1092 -1.6079  2.8706
  272MOL0     H35853   9.251  10.337   9.963 -1.3454 -0.4243 -1.9931
  272MOL0     H35854   9.234  10.190   9.866 -1.6117 -2.5696  1.6019
  272MOL0     H35855   9.322  10.211  10.160  2.2263  0.6998 -0.6319
  272MOL0     H35856   9.354  10.068  10.072 -2.6000 -2.3637  0.7200
  272MOL0     H35857   9.117   9.914  10.017  0.3360  0.4949  0.1290
  272MOL0     H35858   8.749   9.969  10.081 -1.1076 -3.5669  0.7353
  272MOL0     H35859   8.857   9.852  10.012 -1.9530 -0.4490  1.9572
  272MOL0     H35860   8.847  10.016   9.797  0.4431 -0.4734  0.1547
  272MOL0     H35861   8.752  10.125   9.889 -0.0277 -0.2842 -1.9773
  272MOL0     H35862   8.677   9.841   9.798 -2.3437 -1.6310  0.7116
  272MOL0     H35863   8.593   9.927   9.931  0.7265  1.2966  1.2568
  272MOL0     H35864   8.627  10.015   9.638 -1.5948 -0.6305 -1.6350
  272MOL0     H35865   8.548  10.120   9.759  0.1974 -0.0703  0.0196
  272MOL0     H35866   8.357  10.176   9.858  2.6398 -2.0975 -1.2241
  272MOL0     H35867   8.134  10.210   9.931 -2.7076  1.3410 -0.9432
  272MOL0     H35868   7.625  10.076   9.853 -1.5977  1.0425 -1.1881
  272MOL0     H35869   7.419  10.141   9.955 -0.3918  2.0884  1.1893
  272MOL0     H35870   7.224  10.259  10.053  0.8068 -1.0672  0.6431
  272MOL0     H35871   7.353  10.370  10.010  1.4232  0.1153  1.4997
  272MOL0     H35872   7.216  10.415  10.275  0.1153  0.5594 -0.8908
  272MOL0     H35873   7.142  10.454  10.123  1.6852  0.2330 -1.2633
  272MOL0     H35874   7.326  10.591  10.063 -2.0777 -0.0053  0.6695
  272MOL0     H35875   7.412  10.556  10.225  2.1530 -0.0105 -2.5035
  272MOL0     H35876   7.306  10.777  10.208 -0.7594  0.4884 -2.9908
  272MOL0     H35877   7.158  10.701  10.139  0.7799 -0.8422 -1.0825
  272MOL0     H35878   7.266  10.659  10.426  0.5647 -0.8398 -0.7378
  272MOL0     H35879   7.116  10.604  10.376  2.3456 -1.1621 -1.0150
  272MOL0     H35880   7.040  10.841  10.326 -1.4630 -1.8475  3.0545
  272MOL0     H35881   7.198  10.902  10.382  1.4597 -1.3898 -2.5857
  272MOL0     H35882   6.962  10.797  10.522  0.9122 -1.8586 -0.5491
  272MOL0     H35883   7.107  10.748  10.601  0.5022 -1.0680 -0.9335
  272MOL0     H35884   7.036  10.976  10.692 -0.1809 -2.3074 -0.2123
  272MOL0     H35885   7.066  11.046  10.531  0.8620 -0.6087  0.0562
  272MOL0     H35886   7.633  10.332  10.269  2.0492  1.1832 -1.1436
  272MOL0     H35887   7.840  10.292  10.159  1.2950  0.9833 -4.7088
  272MOL0     H35888   8.004   9.873   9.713 -0.9519  1.7352  0.4141
  272MOL0     H35889   8.247   9.813   9.645  1.6941  0.5382  0.3150
  272MOL0     H35890   9.874  10.477  10.044 -0.2950 -1.4036  0.1283
  272MOL0     H35891   9.950  10.632  10.221  1.7621 -1.2801  1.0682
  272MOL0     H35892  10.504  10.717  10.414  0.2995  1.3222 -0.1878
  272MOL0     H35893  10.608  10.869  10.573 -0.7039 -2.8963  0.1848
  272MOL0     H35894  10.563  11.341  10.511  0.4642 -0.6165 -1.1883
  272MOL0     H35895  10.663  11.242  10.389 -1.6517 -3.6938 -0.1020
  272MOL0     H35896  10.769  11.353  10.653  0.7431  0.0050 -0.5017
  272MOL0     H35897  10.834  11.220  10.560 -3.9356 -2.0312  1.3612
  272MOL0     H35898  10.761  11.490  10.432 -0.4562 -0.1271  1.1973
  272MOL0     H35899  10.859  11.365  10.361 -1.9486 -0.8043  0.2885
  272MOL0     H35900  10.940  11.497  10.630  0.0785  1.3580 -0.0728
  272MOL0     H35901  11.034  11.416  10.511 -2.8112 -2.4767 -1.5179
  272MOL0     H35902  11.006  11.828  10.382  2.2310 -0.6820  1.1003
  272MOL0     H35903  10.424  11.195  10.378 -2.3772  0.3224  3.2328
  272MOL0     H35904  10.291  11.056  10.249  1.6143  1.8213  0.1047
  273MOL0     O35905   4.944   5.418   8.962 -0.2392  0.1341  0.3902
  273MOL0     C35906   4.926   5.423   8.841  1.2977 -0.4255 -0.0369
  273MOL0     O35907   4.809   5.425   8.773  0.4094  0.6876 -0.1438
  273MOL0     C35908   4.680   5.414   8.837 -0.3576  0.3507 -0.6812
  273MOL0     C35909   4.655   5.350   8.964  0.1987  0.1252  0.3745
  273MOL0     C35910   4.525   5.339   9.020 -0.4067 -0.1494  0.1044
  273MOL0     C35911   4.417   5.374   8.945  0.2129  0.3896 -0.9826
  273MOL0     O35912   4.291   5.343   8.991 -0.0310  0.2524  0.1986
  273MOL0     C35913   4.183   5.316   8.901  0.1410  0.3015 -0.2117
  273MOL0     C35914   4.064   5.278   8.994 -0.4052 -0.0784  0.6608
  273MOL0     C35915   3.930   5.266   8.932  0.1207  0.2858 -0.0747
  273MOL0     C35916   3.832   5.192   9.025 -0.5446  0.4568 -1.0506
  273MOL0     C35917   3.688   5.205   8.980 -0.3913 -0.0542 -1.1929
  273MOL0     C35918   3.584   5.145   9.079 -0.3734  0.6745  0.4086
  273MOL0     C35919   3.526   5.249   9.179  0.3544 -0.3631  1.0101
  273MOL0     C35920   3.464   5.183   9.297  0.3302  0.8522 -0.4123
  273MOL0     N35921   3.412   5.280   9.397 -0.0993  0.0864  0.3147
  273MOL0     C35922   3.319   5.379   9.373 -0.0223  0.0217 -0.3324
  273MOL0     C35923   3.301   5.432   9.495  1.3235 -0.6210  0.0951
  273MOL0     C35924   3.215   5.559   9.518  0.5089 -0.0926  0.6224
  273MOL0     C35925   3.094   5.555   9.615 -0.0708  0.3097  0.3714
  273MOL0     C35926   3.111   5.543   9.756  0.1988 -0.2625 -0.2630
  273MOL0     C35927   2.984   5.570   9.831 -0.1430 -0.9202 -0.4174
  273MOL0     O35928   2.914   5.691   9.789 -0.0005 -0.0593  0.9351
  273MOL0     C35929   2.814   5.753   9.859 -0.8101  0.5920 -0.0495
  273MOL0     C35930   2.751   5.858   9.804 -0.4493 -0.4093 -0.0770
  273MOL0     C35931   2.650   5.932   9.873  0.1603  0.2416 -0.2128
  273MOL0     C35932   2.606   5.882  10.002 -1.2100 -0.4891 -0.0784
  273MOL0     C35933   2.480   5.927  10.065  0.5965  0.6041 -0.2401
  273MOL0     O35934   2.376   5.963   9.981  0.8526 -0.2666 -0.2945
  273MOL0     C35935   2.250   5.980  10.018  0.5841  0.3258 -0.8479
  273MOL0     C35936   2.180   5.876  10.083 -0.7096 -0.2046 -0.8893
  273MOL0     C35937   2.048   5.899  10.118 -0.2301  0.5538  0.7635
  273MOL0     C35938   1.979   6.015  10.084  1.2969  0.8746 -0.7360
  273MOL0     O35939   1.843   6.031  10.100 -0.0032  1.0236 -1.0564
  273MOL0     C35940   1.755   5.916  10.142 -0.7763 -0.1591  0.5205
  273MOL0     C35941   1.616   5.971  10.113  0.5420 -0.1494  0.0997
  273MOL0     C35942   1.520   5.871  10.181 -0.3742 -0.1516  0.1888
  273MOL0     C35943   1.380   5.896  10.134  0.5496 -0.1659  0.0493
  273MOL0     C35944   1.285   5.793  10.188  0.1500 -0.6830 -0.3710
  273MOL0     C35945   1.135   5.836  10.180  1.2367  0.3539 -0.4523
  273MOL0     C35946   1.052   5.718  10.220  0.7261  0.6868 -0.3495
  273MOL0     C35947   0.908   5.746  10.269 -0.1588  0.4167 -0.9809
  273MOL0    Cl35948   0.817   5.597  10.275  0.2173 -0.0940 -0.2615
  273MOL0     C35949   2.050   6.111  10.009 -0.1547  0.3647  0.4354
  273MOL0     C35950   2.188   6.094   9.981  0.8084  0.2085  0.2817
  273MOL0     O35951   2.468   5.915  10.189 -0.6503  0.7090  0.4902
  273MOL0     C35952   2.682   5.776  10.059 -0.5645 -0.2550  1.2849
  273MOL0     C35953   2.784   5.708   9.984  0.6173  0.1316 -0.5825
  273MOL0     N35954   3.375   5.362   9.587  0.0761  0.1889  0.3364
  273MOL0     N35955   3.445   5.273   9.524  0.1091  0.1577 -0.9699
  273MOL0     C35956   4.440   5.441   8.827  0.0321 -0.4574  0.4662
  273MOL0     C35957   4.569   5.467   8.777 -0.2427  0.4071 -0.4751
  273MOL0     C35958   5.048   5.412   8.761  0.6286 -0.0264 -0.1951
  273MOL0     C35959   5.172   5.457   8.802 -0.0323 -0.0450 -0.4651
  273MOL0     C35960   5.289   5.450   8.728  0.5627 -0.7814  0.2725
  273MOL0     C35961   5.285   5.409   8.600  0.5349 -0.4958 -0.6101
  273MOL0     O35962   5.396   5.406   8.521 -0.0584 -0.8281  0.1584
  273MOL0     C35963   5.387   5.421   8.384  0.2989  0.3208  0.5905
  273MOL0     C35964   5.516   5.436   8.298 -0.5256  0.8645 -0.1203
  273MOL0     C35965   5.567   5.574   8.337  0.7702  0.3395  0.2937
  273MOL0     C35966   5.684   5.630   8.260 -0.5421  0.5143  0.0006
  273MOL0     C35967   5.654   5.653   8.122 -0.7793  0.3731 -0.4974
  273MOL0     C35968   5.647   5.676   8.004  0.1713 -0.4363 -0.8654
  273MOL0     C35969   5.160   5.363   8.555  0.0204  0.2207  0.4893
  273MOL0     C35970   5.043   5.363   8.629 -0.4457  0.5048 -0.0017
  273MOL0     H35971   4.740   5.313   9.020 -1.0999 -0.1716  2.2639
  273MOL0     H35972   4.506   5.287   9.114 -0.9366 -2.4139 -1.1986
  273MOL0     H35973   4.198   5.238   8.826  0.7625  0.0309  0.1818
  273MOL0     H35974   4.160   5.399   8.834  0.5239 -0.5015 -1.3658
  273MOL0     H35975   4.060   5.360   9.066 -0.0807  1.2142 -0.7541
  273MOL0     H35976   4.080   5.182   9.045 -0.1631  0.4549  1.6058
  273MOL0     H35977   3.948   5.201   8.847  3.8849  2.0384 -0.8175
  273MOL0     H35978   3.889   5.363   8.902  0.2662  1.0148  1.9399
  273MOL0     H35979   3.863   5.088   9.038 -1.9034 -0.6382 -5.2068
  273MOL0     H35980   3.835   5.241   9.123 -3.1796 -1.4568  0.1238
  273MOL0     H35981   3.676   5.139   8.894 -0.4332 -0.5033 -0.8442
  273MOL0     H35982   3.663   5.309   8.955  0.4847  0.0636 -1.6448
  273MOL0     H35983   3.638   5.073   9.142 -0.9669  1.7746  2.2447
  273MOL0     H35984   3.504   5.101   9.019  0.9090  0.5258 -1.2906
  273MOL0     H35985   3.602   5.322   9.208 -0.7439  0.7896  1.0765
  273MOL0     H35986   3.458   5.309   9.119 -1.1748 -1.9186  1.0937
  273MOL0     H35987   3.536   5.124   9.354  0.3421 -0.0659 -1.3378
  273MOL0     H35988   3.381   5.121   9.262  0.8339  0.4931 -0.9970
  273MOL0     H35989   3.274   5.416   9.281 -1.4767 -2.1879 -0.5783
  273MOL0     H35990   3.174   5.594   9.423  3.5665  1.6538 -0.1714
  273MOL0     H35991   3.285   5.638   9.547  1.5278 -0.3578 -0.9576
  273MOL0     H35992   3.019   5.491   9.566 -2.0754  2.0950  0.9553
  273MOL0     H35993   3.067   5.660   9.600  2.6688  0.7859 -1.9382
  273MOL0     H35994   3.148   5.447   9.792 -1.4114  0.0763  2.6128
  273MOL0     H35995   3.195   5.612   9.770 -0.6666  1.3083 -2.3646
  273MOL0     H35996   2.993   5.572   9.940 -0.3998 -0.8135 -0.3977
  273MOL0     H35997   2.911   5.490   9.813 -0.9146 -0.5429  0.8385
  273MOL0     H35998   2.783   5.894   9.707 -0.7115 -0.4596 -0.1853
  273MOL0     H35999   2.600   6.020   9.834  0.7893  0.7820  0.1849
  273MOL0     H36000   2.239   5.788  10.108 -1.1132 -0.1579  0.3015
  273MOL0     H36001   1.995   5.819  10.169 -0.2806 -2.4451 -3.5074
  273MOL0     H36002   1.774   5.901  10.249  2.0804 -1.1813 -0.0390
  273MOL0     H36003   1.783   5.822  10.094 -1.8432 -0.1693 -0.1022
  273MOL0     H36004   1.593   5.974  10.006 -0.5669  1.5124  0.3500
  273MOL0     H36005   1.607   6.071  10.156 -3.4496  0.4302 -1.6120
  273MOL0     H36006   1.536   5.884  10.289  0.6643  0.2813 -0.0080
  273MOL0     H36007   1.536   5.766  10.157  1.9083  0.3337 -0.6193
  273MOL0     H36008   1.348   5.996  10.165  1.4296  0.2926 -0.4857
  273MOL0     H36009   1.368   5.894  10.026 -5.1915  0.3740  0.3377
  273MOL0     H36010   1.318   5.762  10.287 -0.9538 -1.7521 -0.3188
  273MOL0     H36011   1.303   5.704  10.127 -0.6592 -1.5202  0.5894
  273MOL0     H36012   1.105   5.851  10.076  1.7458 -1.2508 -0.8558
  273MOL0     H36013   1.116   5.930  10.233  0.3504  0.3479 -0.7403
  273MOL0     H36014   1.040   5.645  10.139 -1.3840 -2.0817  2.2327
  273MOL0     H36015   1.101   5.659  10.298 -2.0864 -0.0544  0.9785
  273MOL0     H36016   0.855   5.811  10.200 -2.3743  0.5576  0.7456
  273MOL0     H36017   0.904   5.797  10.366  0.7614  0.6975 -1.0761
  273MOL0     H36018   1.997   6.198   9.971  1.4369  0.4280 -1.8978
  273MOL0     H36019   2.240   6.175   9.929 -2.3069  1.6919 -0.7859
  273MOL0     H36020   2.668   5.731  10.156  0.7629 -2.5846  0.4625
  273MOL0     H36021   2.823   5.623  10.039 -2.2914 -1.8609 -1.3152
  273MOL0     H36022   4.355   5.469   8.766 -1.3057 -0.5188  2.2261
  273MOL0     H36023   4.586   5.510   8.678 -2.1573  1.9222 -0.2036
  273MOL0     H36024   5.180   5.490   8.905 -0.0836 -2.5223  0.3919
  273MOL0     H36025   5.388   5.470   8.768  1.9138  1.6190 -3.7712
  273MOL0     H36026   5.312   5.499   8.369 -2.3226 -1.2626  4.0182
  273MOL0     H36027   5.334   5.337   8.339  0.4772 -0.2907  1.4956
  273MOL0     H36028   5.586   5.356   8.322 -0.9649 -0.6829 -3.4719
  273MOL0     H36029   5.503   5.433   8.189  2.2952 -0.4192 -0.5090
  273MOL0     H36030   5.598   5.563   8.441  2.0865 -1.8023 -0.2681
  273MOL0     H36031   5.490   5.651   8.323  0.2784 -0.6744 -4.0088
  273MOL0     H36032   5.710   5.715   8.322 -2.9564  0.7285  0.8473
  273MOL0     H36033   5.772   5.565   8.266 -0.2387  0.9220 -0.0155
  273MOL0     H36034   5.664   5.682   7.898  0.4132  1.2561 -0.7610
  273MOL0     H36035   5.154   5.334   8.450  0.6764  0.2602  0.4315
  273MOL0     H36036   4.954   5.326   8.579  0.6598 -0.4875 -1.3081
  274MOL0     O36037   4.356   1.538   2.223 -0.9172  0.1980 -0.0312
  274MOL0     C36038   4.420   1.622   2.282  0.3343 -0.4613 -0.1865
  274MOL0     O36039   4.356   1.702   2.373  0.3277  0.8118  0.0326
  274MOL0     C36040   4.225   1.696   2.390  1.0845 -0.0734  0.1789
  274MOL0     C36041   4.164   1.594   2.466 -0.0627  0.4493 -0.2254
  274MOL0     C36042   4.023   1.604   2.493 -0.0300 -0.6534  0.0487
  274MOL0     C36043   3.952   1.714   2.447 -0.1561  0.1761 -0.5867
  274MOL0     O36044   3.817   1.710   2.476 -0.6912  0.1227 -0.5730
  274MOL0     C36045   3.724   1.816   2.427 -0.3902  1.2572  0.2123
  274MOL0     C36046   3.586   1.771   2.479 -1.1487  0.0779  0.2947
  274MOL0     C36047   3.475   1.870   2.441 -1.0790 -0.1949  1.0398
  274MOL0     C36048   3.347   1.834   2.504  0.2894  0.5529 -0.7040
  274MOL0     C36049   3.234   1.907   2.440 -0.1008  0.8601  0.4205
  274MOL0     C36050   3.100   1.862   2.500 -0.1994  0.1827 -0.0655
  274MOL0     C36051   2.960   1.889   2.437 -0.8014 -0.2450  0.1986
  274MOL0     C36052   2.941   2.036   2.378  0.3232  0.4052 -0.7240
  274MOL0     N36053   2.810   2.045   2.315  0.7306  0.1153 -0.3685
  274MOL0     C36054   2.705   2.120   2.366 -0.0508 -0.3400 -0.8380
  274MOL0     C36055   2.595   2.099   2.283 -0.3601 -0.2753 -1.1413
  274MOL0     C36056   2.467   2.164   2.299 -0.0812  0.1881 -0.2386
  274MOL0     C36057   2.456   2.315   2.261 -0.2790  0.0423 -0.1882
  274MOL0     C36058   2.311   2.375   2.265  0.5260  0.1383  0.4614
  274MOL0     C36059   2.230   2.311   2.152  0.3324 -0.3084 -0.4523
  274MOL0     O36060   2.102   2.381   2.127 -0.9216  0.6887  0.1849
  274MOL0     C36061   2.002   2.381   2.218  0.9886 -0.2517 -1.2092
  274MOL0     C36062   1.907   2.478   2.215 -0.5313 -0.0401  0.1582
  274MOL0     C36063   1.810   2.495   2.315  1.2571 -0.7888  0.3771
  274MOL0     C36064   1.806   2.405   2.421  0.1228  0.1015  0.2729
  274MOL0     C36065   1.699   2.404   2.512  1.1220 -0.2059 -0.0111
  274MOL0     O36066   1.617   2.515   2.518 -0.1806 -0.0910 -0.1221
  274MOL0     C36067   1.496   2.520   2.587 -0.3322  0.3246  0.5431
  274MOL0     C36068   1.453   2.441   2.698  0.1880  0.0713  0.2242
  274MOL0     C36069   1.329   2.469   2.767 -0.7308 -0.5065  0.5792
  274MOL0     C36070   1.250   2.574   2.713 -0.7737  0.1224 -0.3247
  274MOL0     O36071   1.137   2.605   2.773  0.7204 -0.0822  0.1736
  274MOL0     C36072   1.051   2.504   2.834 -0.8581  0.2706  0.8004
  274MOL0     C36073   1.036   2.529   2.986 -0.1958  0.5674  0.1910
  274MOL0     C36074   0.943   2.432   3.059 -0.5013 -0.2588  0.6334
  274MOL0     C36075   0.961   2.422   3.210 -0.2137 -0.1726  0.4424
  274MOL0     C36076   0.833   2.351   3.272  0.3519 -0.2266  0.3394
  274MOL0     C36077   0.847   2.328   3.426  0.3407 -0.1882  0.0808
  274MOL0     C36078   0.715   2.278   3.495  0.5329 -0.4010  0.3782
  274MOL0     C36079   0.735   2.243   3.646 -0.2690  0.2612  0.7882
  274MOL0    Cl36080   0.634   2.117   3.699 -0.0766 -0.2297 -0.0103
  274MOL0     C36081   1.298   2.649   2.603  0.5812  0.0449 -0.4353
  274MOL0     C36082   1.412   2.619   2.543 -0.2294  0.2514  0.3108
  274MOL0     O36083   1.673   2.298   2.564  0.0029 -0.2820  0.2644
  274MOL0     C36084   1.907   2.303   2.424  0.7342 -0.8292 -0.7829
  274MOL0     C36085   1.997   2.283   2.318  0.8907 -0.3272  0.1043
  274MOL0     N36086   2.634   2.004   2.189 -0.1180 -0.5745  1.0428
  274MOL0     N36087   2.764   1.976   2.205 -0.0327  0.6271 -0.6857
  274MOL0     C36088   4.019   1.817   2.375  1.8009 -0.2991  0.3932
  274MOL0     C36089   4.148   1.806   2.347  0.8636 -0.6639  0.2599
  274MOL0     C36090   4.560   1.642   2.243  0.6178  0.6907 -0.3593
  274MOL0     C36091   4.634   1.725   2.318  0.2652  0.6257  0.6089
  274MOL0     C36092   4.770   1.754   2.296 -0.8717 -0.4020 -0.1631
  274MOL0     C36093   4.841   1.683   2.196 -0.2409 -0.3542  0.1445
  274MOL0     O36094   4.973   1.724   2.180  0.6112 -0.1678 -0.4802
  274MOL0     C36095   5.058   1.629   2.110  0.0028 -0.2512  0.3466
  274MOL0     C36096   5.190   1.647   2.165  0.3868  0.4831 -0.5533
  274MOL0     C36097   5.247   1.788   2.151 -0.3862  0.1224  0.0058
  274MOL0     C36098   5.383   1.792   2.095 -0.1497  1.0447 -0.2512
  274MOL0     C36099   5.478   1.710   2.173  0.5843  0.6817  0.4432
  274MOL0     C36100   5.553   1.635   2.232  0.1738 -0.4765 -0.1488
  274MOL0     C36101   4.766   1.602   2.108  0.3134 -1.2422 -0.2323
  274MOL0     C36102   4.627   1.580   2.130  0.4901 -0.1718 -0.6598
  274MOL0     H36103   4.227   1.514   2.504 -0.2906  0.7917  0.8835
  274MOL0     H36104   3.977   1.526   2.554  1.4922 -0.4684  1.5044
  274MOL0     H36105   3.728   1.821   2.318 -1.7653 -1.0492 -0.0078
  274MOL0     H36106   3.750   1.913   2.471  1.9705  1.0902 -0.6423
  274MOL0     H36107   3.580   1.758   2.587  2.0505 -1.0302  0.4447
  274MOL0     H36108   3.562   1.670   2.443  0.7414 -0.9463  1.7700
  274MOL0     H36109   3.458   1.863   2.333  4.0790  1.3417 -0.1904
  274MOL0     H36110   3.495   1.973   2.471  2.8361 -0.8281  1.2245
  274MOL0     H36111   3.334   1.726   2.496 -3.8659  0.8222  0.5798
  274MOL0     H36112   3.353   1.857   2.610 -3.3769 -2.0277  0.2317
  274MOL0     H36113   3.237   1.884   2.333 -0.7428 -0.7380  0.7159
  274MOL0     H36114   3.244   2.016   2.442 -2.5065  1.1478 -0.6032
  274MOL0     H36115   3.097   1.898   2.603 -0.8312 -2.6661  0.9892
  274MOL0     H36116   3.106   1.753   2.512  0.1406  0.3485  1.4262
  274MOL0     H36117   2.931   1.827   2.351 -2.2973  1.6452 -0.7434
  274MOL0     H36118   2.889   1.861   2.516 -0.1408  0.2261  0.9740
  274MOL0     H36119   3.014   2.056   2.300  0.0163  0.3586 -1.0270
  274MOL0     H36120   2.952   2.112   2.456 -1.0430 -0.3558  0.2670
  274MOL0     H36121   2.713   2.191   2.447 -1.0648 -0.6031 -0.4927
  274MOL0     H36122   2.444   2.161   2.406  0.4902 -0.2530 -0.1217
  274MOL0     H36123   2.401   2.112   2.228  3.4696 -1.8826 -2.3606
  274MOL0     H36124   2.490   2.325   2.157 -0.7232  1.6366 -0.1961
  274MOL0     H36125   2.522   2.373   2.326 -0.7765  0.7639 -0.3167
  274MOL0     H36126   2.277   2.361   2.367  1.7635 -0.7763  0.7663
  274MOL0     H36127   2.314   2.477   2.225 -0.7339 -0.6628 -1.9141
  274MOL0     H36128   2.217   2.208   2.187  2.6663 -0.0253  1.5530
  274MOL0     H36129   2.278   2.329   2.056  1.7001 -0.6698  0.1435
  274MOL0     H36130   1.910   2.545   2.130 -0.0202  0.3292  0.4666
  274MOL0     H36131   1.739   2.575   2.298  1.2681 -0.5942  1.2039
  274MOL0     H36132   1.510   2.353   2.727 -1.0088 -1.2331 -1.2190
  274MOL0     H36133   1.290   2.411   2.850 -3.2095  1.7864  1.1444
  274MOL0     H36134   1.097   2.406   2.821 -0.0848  0.5454  1.4260
  274MOL0     H36135   0.955   2.490   2.783 -1.8527  1.7179  2.1806
  274MOL0     H36136   0.992   2.628   3.003 -0.7318  0.9906 -2.9808
  274MOL0     H36137   1.135   2.523   3.032 -0.1232  0.3889  0.0139
  274MOL0     H36138   0.954   2.332   3.016  1.1598  1.0306 -2.2525
  274MOL0     H36139   0.840   2.466   3.045 -0.9524 -2.2803 -1.6192
  274MOL0     H36140   1.057   2.381   3.244 -0.4226 -0.5656  0.5600
  274MOL0     H36141   0.955   2.524   3.248 -1.8477  0.9882 -2.5553
  274MOL0     H36142   0.806   2.253   3.233  1.3335 -0.6242  0.6298
  274MOL0     H36143   0.740   2.409   3.263 -0.4219 -0.9128  2.8180
  274MOL0     H36144   0.882   2.417   3.478 -3.2550  1.1327  0.5124
  274MOL0     H36145   0.926   2.255   3.447  0.1520  0.1390  2.2090
  274MOL0     H36146   0.637   2.354   3.499 -0.0627 -0.9731  5.0662
  274MOL0     H36147   0.681   2.193   3.435  0.2832 -0.5692  0.7521
  274MOL0     H36148   0.712   2.331   3.707 -0.9509  1.8608 -1.6290
  274MOL0     H36149   0.837   2.203   3.656  0.6535  1.6707 -1.8682
  274MOL0     H36150   1.234   2.727   2.564  3.0743  1.6553 -1.6337
  274MOL0     H36151   1.441   2.681   2.458  2.4307  1.3148  1.8682
  274MOL0     H36152   1.912   2.225   2.499  1.7185  0.3461  0.4312
  274MOL0     H36153   2.057   2.192   2.312  0.7460 -0.3150 -3.0661
  274MOL0     H36154   3.963   1.900   2.333  0.6638 -1.2390 -0.0210
  274MOL0     H36155   4.198   1.879   2.285  1.7016 -1.3351  0.1283
  274MOL0     H36156   4.599   1.782   2.404 -2.3173  2.4501 -1.4646
  274MOL0     H36157   4.820   1.822   2.365  0.2966 -1.8060  0.4362
  274MOL0     H36158   5.053   1.645   2.002  0.8657 -0.1695  0.3140
  274MOL0     H36159   5.034   1.525   2.132  2.6902 -0.8559  0.8362
  274MOL0     H36160   5.163   1.627   2.269  0.6773 -2.4543 -0.9603
  274MOL0     H36161   5.257   1.565   2.137 -0.1098 -0.1491  0.0811
  274MOL0     H36162   5.243   1.845   2.244 -4.7732  2.5374 -1.3821
  274MOL0     H36163   5.189   1.848   2.080  2.5565  0.4967 -2.2980
  274MOL0     H36164   5.402   1.746   1.998  1.4987 -1.5247  1.1679
  274MOL0     H36165   5.419   1.895   2.094 -1.1268  1.4733 -4.0450
  274MOL0     H36166   5.626   1.568   2.273  2.0893  2.3609  1.4353
  274MOL0     H36167   4.822   1.561   2.025 -0.6366  2.6782 -3.1322
  274MOL0     H36168   4.572   1.506   2.074 -0.9364 -0.4947  1.0770
  275MOL0     O36169   1.245   4.880   6.209 -0.3197 -0.1735 -0.5331
  275MOL0     C36170   1.269   4.758   6.230  0.3720  0.1584 -1.5128
  275MOL0     O36171   1.181   4.660   6.214  0.5347  0.4289  0.2105
  275MOL0     C36172   1.044   4.688   6.207 -0.7791  0.3510  0.0633
  275MOL0     C36173   0.985   4.711   6.086 -0.5312 -0.0998  0.5940
  275MOL0     C36174   0.850   4.733   6.080 -0.6268  0.8985  0.7400
  275MOL0     C36175   0.778   4.744   6.200  0.0702 -0.2021 -0.8792
  275MOL0     O36176   0.642   4.768   6.206  0.1933  0.2431  0.4900
  275MOL0     C36177   0.572   4.816   6.089 -0.5633  0.3538 -0.2350
  275MOL0     C36178   0.443   4.880   6.149 -0.3410 -0.0074 -0.3932
  275MOL0     C36179   0.469   5.019   6.198 -1.0263 -0.1602 -0.1464
  275MOL0     C36180   0.341   5.096   6.227  0.2299 -0.5349 -0.3268
  275MOL0     C36181   0.369   5.232   6.287  0.5931  0.5751  0.1331
  275MOL0     C36182   0.241   5.313   6.286 -0.6030 -0.4086  0.0803
  275MOL0     C36183   0.135   5.284   6.393 -0.0253  0.5225 -0.2118
  275MOL0     C36184   0.024   5.395   6.382  0.0626  0.0775  0.3626
  275MOL0     N36185  -0.043   5.422   6.251 -0.3695  0.1546  0.0341
  275MOL0     C36186  -0.124   5.327   6.197  0.1920  0.3240 -0.0823
  275MOL0     C36187  -0.171   5.395   6.086 -0.0932  0.3545 -0.1249
  275MOL0     C36188  -0.261   5.335   5.978  0.4995  0.7918  0.3956
  275MOL0     C36189  -0.398   5.334   6.046 -0.8281 -0.5442  0.8294
  275MOL0     C36190  -0.468   5.472   6.085  0.6196  0.7875 -0.2522
  275MOL0     C36191  -0.511   5.548   5.959  0.6687 -0.9414 -0.0333
  275MOL0     O36192  -0.599   5.472   5.872  0.2902 -0.1530  0.0772
  275MOL0     C36193  -0.732   5.470   5.908  1.2157  0.5426 -0.0445
  275MOL0     C36194  -0.797   5.352   5.867  0.3409  0.1367  0.2088
  275MOL0     C36195  -0.938   5.339   5.878 -0.1732  0.4963  0.3623
  275MOL0     C36196  -1.017   5.451   5.915  0.3527  0.1521  0.6474
  275MOL0     C36197  -1.159   5.456   5.901  0.3118 -0.5319  0.7401
  275MOL0     O36198  -1.216   5.338   5.925 -0.0448  0.8638 -0.9391
  275MOL0     C36199  -1.345   5.337   5.964  0.1084 -0.1038  1.4824
  275MOL0     C36200  -1.401   5.402   6.070  0.1623 -0.1822 -0.9150
  275MOL0     C36201  -1.540   5.395   6.100  0.1681  0.3426  0.3723
  275MOL0     C36202  -1.618   5.306   6.024  0.7168  1.1607 -0.6441
  275MOL0     O36203  -1.754   5.284   6.042  0.0669 -0.3050  0.8819
  275MOL0     C36204  -1.782   5.234   6.178  0.7163 -0.2845 -0.0197
  275MOL0     C36205  -1.925   5.171   6.169  0.0897  0.5095  0.5506
  275MOL0     C36206  -1.956   5.104   6.300  1.0718  0.5502 -0.5452
  275MOL0     C36207  -2.095   5.043   6.272  0.0743 -0.2025  0.5549
  275MOL0     C36208  -2.132   4.968   6.404  0.6703  0.6735 -0.1514
  275MOL0     C36209  -2.231   4.861   6.398 -0.1740  0.5528  1.0002
  275MOL0     C36210  -2.373   4.922   6.398 -1.0366 -0.9482  0.0332
  275MOL0     C36211  -2.412   5.017   6.288 -0.1958  0.3229 -0.5194
  275MOL0    Cl36212  -2.586   5.048   6.312  0.0259  0.4132 -0.1761
  275MOL0     C36213  -1.556   5.237   5.918  0.5453 -0.1171  0.1079
  275MOL0     C36214  -1.422   5.250   5.885 -0.0362  0.4019 -0.0972
  275MOL0     O36215  -1.226   5.560   5.870 -0.5578  0.0290  0.0602
  275MOL0     C36216  -0.945   5.567   5.950  0.3149 -0.3985 -0.2777
  275MOL0     C36217  -0.804   5.570   5.947  0.5219 -1.0072 -0.2470
  275MOL0     N36218  -0.119   5.523   6.085  0.2419 -0.2544 -0.0703
  275MOL0     N36219  -0.042   5.541   6.182 -0.2181  0.6155 -0.2148
  275MOL0     C36220   0.839   4.728   6.319 -0.1539 -0.4637  0.1995
  275MOL0     C36221   0.974   4.691   6.327 -0.5504  1.1324  0.2265
  275MOL0     C36222   1.412   4.734   6.253  0.5620  0.2834  0.1756
  275MOL0     C36223   1.465   4.607   6.268 -0.3618  0.2236  0.1639
  275MOL0     C36224   1.605   4.584   6.289 -0.1701 -0.5134 -0.7093
  275MOL0     C36225   1.697   4.689   6.306 -0.0548  0.8760  0.7123
  275MOL0     O36226   1.832   4.688   6.334  0.5511  0.2184 -0.7670
  275MOL0     C36227   1.904   4.565   6.343  0.0648  0.2413 -1.0398
  275MOL0     C36228   2.037   4.568   6.412 -0.4458 -1.2900  0.0566
  275MOL0     C36229   2.124   4.680   6.349  0.7098  0.2376 -0.2210
  275MOL0     C36230   2.266   4.666   6.396  0.7043  0.6355 -0.3470
  275MOL0     C36231   2.342   4.791   6.355 -0.8706 -0.3408 -0.4066
  275MOL0     C36232   2.414   4.885   6.342  0.1660 -0.0393  0.6329
  275MOL0     C36233   1.645   4.821   6.300  0.1409  0.2389  0.2738
  275MOL0     C36234   1.509   4.835   6.266 -0.3096 -0.2424  0.0552
  275MOL0     H36235   1.042   4.713   5.994  0.7497  2.3945  1.3248
  275MOL0     H36236   0.800   4.740   5.984  1.8040 -0.7251 -0.7497
  275MOL0     H36237   0.538   4.734   6.025 -3.8064  0.4245  1.2123
  275MOL0     H36238   0.629   4.893   6.035 -2.6690  1.2083 -1.3329
  275MOL0     H36239   0.410   4.816   6.232  1.0186  0.0359  0.1911
  275MOL0     H36240   0.367   4.878   6.069  0.4472 -0.2595 -1.1539
  275MOL0     H36241   0.524   5.079   6.125 -1.5843 -1.4708 -1.7000
  275MOL0     H36242   0.528   4.995   6.287  1.1201  1.6248 -1.0054
  275MOL0     H36243   0.278   5.094   6.137  0.4139  0.2426 -0.4775
  275MOL0     H36244   0.292   5.036   6.304 -0.0217  1.8689  1.4906
  275MOL0     H36245   0.425   5.285   6.210 -0.6688 -0.6650 -1.7268
  275MOL0     H36246   0.421   5.229   6.384 -0.3018  1.9809  0.6723
  275MOL0     H36247   0.193   5.320   6.188 -1.1503  1.3108  0.4423
  275MOL0     H36248   0.268   5.419   6.290 -0.5740 -0.0129 -4.6861
  275MOL0     H36249   0.083   5.190   6.369  0.5914  0.6516 -2.2395
  275MOL0     H36250   0.184   5.285   6.491 -0.8258  2.2341  0.2148
  275MOL0     H36251   0.070   5.493   6.402 -0.6924  0.9534 -1.9146
  275MOL0     H36252  -0.047   5.396   6.465 -2.6039  0.4233 -1.8186
  275MOL0     H36253  -0.154   5.233   6.241 -0.4248  0.6405  0.2017
  275MOL0     H36254  -0.227   5.236   5.946  0.8228  1.2808 -0.8428
  275MOL0     H36255  -0.266   5.390   5.883  0.4873  2.6188  1.4192
  275MOL0     H36256  -0.394   5.279   6.141  3.5630 -0.8649  0.6739
  275MOL0     H36257  -0.465   5.269   5.989 -0.6271 -0.4704  0.5093
  275MOL0     H36258  -0.557   5.440   6.140  1.2364 -1.0637 -0.2392
  275MOL0     H36259  -0.398   5.542   6.131  0.5191 -0.0510  1.2723
  275MOL0     H36260  -0.419   5.578   5.909 -0.5692  0.0897 -1.8228
  275MOL0     H36261  -0.558   5.645   5.981  0.4916 -0.9163 -0.5154
  275MOL0     H36262  -0.749   5.264   5.826 -0.7133 -1.7408  2.7352
  275MOL0     H36263  -0.983   5.250   5.834 -0.7309  1.5310 -1.2515
  275MOL0     H36264  -1.341   5.472   6.127  0.1569 -0.2664 -0.8053
  275MOL0     H36265  -1.582   5.440   6.190  0.2226  0.9157  0.1120
  275MOL0     H36266  -1.783   5.311   6.255  0.4314 -0.4576  0.1501
  275MOL0     H36267  -1.711   5.157   6.210  1.6993  0.5343 -0.1607
  275MOL0     H36268  -1.927   5.099   6.088  1.5135  1.1189 -0.0628
  275MOL0     H36269  -2.004   5.243   6.147 -0.2120 -0.4518 -1.6543
  275MOL0     H36270  -1.971   5.182   6.374 -1.1373  0.4332 -0.8074
  275MOL0     H36271  -1.885   5.025   6.329  1.3364  0.0708 -2.3790
  275MOL0     H36272  -2.153   5.135   6.260  1.4194  0.3964 -2.2303
  275MOL0     H36273  -2.093   4.991   6.176 -0.7706  3.0992 -1.4165
  275MOL0     H36274  -2.158   5.040   6.482 -0.2998 -1.1784  1.3293
  275MOL0     H36275  -2.039   4.918   6.432  1.7715  2.7722  0.1015
  275MOL0     H36276  -2.225   4.793   6.484 -4.0538 -1.9696 -0.4066
  275MOL0     H36277  -2.214   4.790   6.317 -0.5013 -0.2118  1.5757
  275MOL0     H36278  -2.444   4.840   6.389 -2.2664  0.1818 -1.1451
  275MOL0     H36279  -2.391   4.972   6.494 -2.0185 -3.0443  0.9995
  275MOL0     H36280  -2.390   4.952   6.202  0.1147 -1.9494  1.1901
  275MOL0     H36281  -2.362   5.113   6.280  1.9472 -0.8270 -1.9626
  275MOL0     H36282  -1.621   5.180   5.852 -2.2284  1.3666  1.3646
  275MOL0     H36283  -1.381   5.208   5.794 -0.6639  2.8280 -1.5905
  275MOL0     H36284  -0.988   5.664   5.973  0.1397 -0.4258 -0.4857
  275MOL0     H36285  -0.758   5.667   5.966 -1.7594  0.5952 -2.2169
  275MOL0     H36286   0.778   4.726   6.409  1.0945  0.7281  1.1141
  275MOL0     H36287   1.032   4.661   6.414 -0.2741  1.5258  0.1809
  275MOL0     H36288   1.403   4.520   6.250  1.5426 -0.8432 -1.7054
  275MOL0     H36289   1.646   4.488   6.318  0.4338  0.1884  0.9099
  275MOL0     H36290   1.916   4.519   6.245  0.1208 -2.8986  0.3155
  275MOL0     H36291   1.841   4.496   6.401 -3.0927  2.3134 -1.7846
  275MOL0     H36292   2.017   4.600   6.515  3.3951 -1.3798  0.9585
  275MOL0     H36293   2.090   4.473   6.416 -3.3170 -3.0258  0.0807
  275MOL0     H36294   2.090   4.779   6.382 -0.9324 -0.6088  0.7750
  275MOL0     H36295   2.123   4.665   6.240  0.6793  1.6952 -0.4393
  275MOL0     H36296   2.276   4.634   6.500  1.4091 -4.4121 -1.7139
  275MOL0     H36297   2.311   4.578   6.349  0.6173 -1.0428  2.4357
  275MOL0     H36298   2.476   4.973   6.336  0.7453 -0.2468  2.8491
  275MOL0     H36299   1.705   4.906   6.332 -2.9476  3.6120 -1.9945
  275MOL0     H36300   1.485   4.938   6.242 -1.3748  0.0799  2.2385
  276MOL0     O36301   3.745   4.076   5.285  0.2526 -0.5245  0.8083
  276MOL0     C36302   3.747   4.055   5.162  0.5908 -1.1479 -0.1927
  276MOL0     O36303   3.636   4.040   5.085  0.2395 -0.8763  0.0201
  276MOL0     C36304   3.511   4.073   5.136 -0.3246  0.7099  0.3482
  276MOL0     C36305   3.416   3.972   5.152 -0.5849  0.6121 -0.2230
  276MOL0     C36306   3.283   4.009   5.199  0.4871  0.1280 -0.0154
  276MOL0     C36307   3.248   4.129   5.247  0.0093 -0.1175  1.0500
  276MOL0     O36308   3.120   4.156   5.294  0.5353 -0.2737  0.1204
  276MOL0     C36309   3.003   4.075   5.255 -0.4978 -0.4962  0.1435
  276MOL0     C36310   2.988   3.951   5.340 -0.1973 -0.2442 -0.8371
  276MOL0     C36311   2.915   3.985   5.474  0.3242 -0.5951 -0.3466
  276MOL0     C36312   2.763   3.976   5.453  0.7885 -0.4129 -0.8437
  276MOL0     C36313   2.673   4.003   5.570 -0.1208  0.7119 -0.4268
  276MOL0     C36314   2.718   3.921   5.696 -0.0515  0.1892  0.4541
  276MOL0     C36315   2.627   3.936   5.822  0.6596  0.1111 -0.3144
  276MOL0     C36316   2.691   3.925   5.955  0.1599 -0.4602 -0.5835
  276MOL0     N36317   2.763   4.049   5.984  0.0478 -0.7695  0.0322
  276MOL0     C36318   2.698   4.170   6.017 -0.4684  0.4409  0.3707
  276MOL0     C36319   2.797   4.256   5.994  0.1754 -0.2179  0.1491
  276MOL0     C36320   2.765   4.403   5.984  0.2027 -0.2572 -0.1284
  276MOL0     C36321   2.808   4.458   5.852 -0.0297 -0.5046  0.3719
  276MOL0     C36322   2.732   4.392   5.726  0.0268  0.3685 -0.6473
  276MOL0     C36323   2.577   4.401   5.740  0.1961 -0.4481 -0.7469
  276MOL0     O36324   2.526   4.356   5.611  0.7848 -0.0710 -0.2035
  276MOL0     C36325   2.403   4.299   5.594  0.7767 -0.1487  0.3614
  276MOL0     C36326   2.362   4.270   5.462 -0.3565  0.2059 -0.1049
  276MOL0     C36327   2.229   4.227   5.439  0.4970  0.4160 -0.2927
  276MOL0     C36328   2.138   4.216   5.543 -0.1903 -0.1411 -0.5729
  276MOL0     C36329   1.994   4.168   5.518  0.2492  0.1074  0.2269
  276MOL0     O36330   1.926   4.138   5.627  0.4835 -0.1656  0.2378
  276MOL0     C36331   1.789   4.137   5.618  0.0848  0.0644  0.0812
  276MOL0     C36332   1.712   4.236   5.666  0.3040 -0.1615 -0.6490
  276MOL0     C36333   1.573   4.228   5.654 -0.4001 -0.1928  0.1215
  276MOL0     C36334   1.512   4.115   5.593  0.9908 -0.1617 -0.2068
  276MOL0     O36335   1.370   4.116   5.594 -0.0876 -0.1460  0.4471
  276MOL0     C36336   1.307   3.989   5.571  0.6815  0.2618 -0.4125
  276MOL0     C36337   1.175   3.991   5.653 -0.7812  0.0355 -0.0161
  276MOL0     C36338   1.059   4.054   5.578 -0.0798  0.6001 -0.1316
  276MOL0     C36339   0.930   4.046   5.655  0.4309  0.0362 -0.4330
  276MOL0     C36340   0.819   4.124   5.568 -0.9311 -0.4095  0.7528
  276MOL0     C36341   0.695   4.173   5.651  0.7556 -0.4696 -0.4495
  276MOL0     C36342   0.594   4.225   5.538  0.3656  0.1617  0.1371
  276MOL0     C36343   0.489   4.332   5.575  0.9709  0.2785 -0.2566
  276MOL0    Cl36344   0.365   4.252   5.680 -0.1465 -0.1896 -0.1583
  276MOL0     C36345   1.589   4.018   5.533  0.8870 -0.4804 -0.1826
  276MOL0     C36346   1.733   4.028   5.551  0.8137  0.0314 -0.2363
  276MOL0     O36347   1.958   4.165   5.402 -0.4057 -0.2311  0.2030
  276MOL0     C36348   2.177   4.254   5.675  1.2808 -1.3170  0.4077
  276MOL0     C36349   2.306   4.297   5.701 -0.2437  0.2894  0.0723
  276MOL0     N36350   2.915   4.194   5.980 -0.5197  0.1085 -0.0571
  276MOL0     N36351   2.897   4.071   5.954 -0.0552 -0.3107 -0.0779
  276MOL0     C36352   3.355   4.229   5.243  0.7781  0.3900 -0.2075
  276MOL0     C36353   3.482   4.203   5.178 -0.0456 -0.1228 -0.0376
  276MOL0     C36354   3.876   4.066   5.094  0.4188 -0.3276 -0.1464
  276MOL0     C36355   3.994   4.074   5.169  0.0881 -0.3476 -0.6774
  276MOL0     C36356   4.115   4.091   5.106  0.3056 -0.3802  1.2933
  276MOL0     C36357   4.125   4.106   4.961 -0.1054  0.0329 -0.8336
  276MOL0     O36358   4.241   4.125   4.910  0.5271  0.0796 -0.7739
  276MOL0     C36359   4.306   4.020   4.832  0.0282 -0.0872 -0.3978
  276MOL0     C36360   4.410   3.948   4.907  0.3550  0.8131  0.4633
  276MOL0     C36361   4.469   3.836   4.803 -0.3945 -0.3365 -0.6092
  276MOL0     C36362   4.586   3.897   4.723 -0.0203  0.0083  0.6841
  276MOL0     C36363   4.674   3.795   4.663 -0.3901  0.4921  0.4364
  276MOL0     C36364   4.754   3.721   4.613  0.0989  0.1727  0.5987
  276MOL0     C36365   4.008   4.102   4.883 -0.3378  0.4689  0.0649
  276MOL0     C36366   3.880   4.084   4.954  0.1650  0.2763  0.0749
  276MOL0     H36367   3.436   3.868   5.128 -0.7490  1.0446 -2.4200
  276MOL0     H36368   3.217   3.923   5.207  2.3485 -1.4047 -0.4142
  276MOL0     H36369   3.020   4.040   5.153  1.9314  0.3514  0.1791
  276MOL0     H36370   2.910   4.132   5.256 -1.2457 -1.6882  0.5864
  276MOL0     H36371   3.081   3.903   5.369 -1.3125 -0.6716  2.3217
  276MOL0     H36372   2.941   3.876   5.276 -0.3167  0.9929 -2.2812
  276MOL0     H36373   2.954   4.080   5.511  0.4341 -0.8695  0.2486
  276MOL0     H36374   2.937   3.918   5.558 -1.0802  0.2234  0.6988
  276MOL0     H36375   2.739   4.045   5.373  2.0963 -0.1580 -1.0383
  276MOL0     H36376   2.736   3.873   5.427  1.6346 -0.5588 -1.1656
  276MOL0     H36377   2.575   3.966   5.539 -0.1844  0.4380  0.0979
  276MOL0     H36378   2.675   4.111   5.589 -2.6231  0.6544  0.4957
  276MOL0     H36379   2.819   3.956   5.719  0.3973 -1.7256  1.5380
  276MOL0     H36380   2.720   3.814   5.673 -1.3295  0.7308 -2.6570
  276MOL0     H36381   2.572   4.030   5.816 -0.5009 -0.5225  0.1883
  276MOL0     H36382   2.557   3.853   5.808  0.1947  0.8234 -2.6526
  276MOL0     H36383   2.749   3.832   5.965 -0.3643 -0.8284 -0.9171
  276MOL0     H36384   2.611   3.919   6.029  0.5759 -0.5966 -0.1329
  276MOL0     H36385   2.591   4.189   6.021 -0.8084 -1.1977 -0.2816
  276MOL0     H36386   2.825   4.450   6.062  0.4643 -2.1740  0.8784
  276MOL0     H36387   2.658   4.420   5.997  0.7194  1.7648  2.1032
  276MOL0     H36388   2.914   4.457   5.827 -1.1029 -0.5049 -5.6905
  276MOL0     H36389   2.775   4.562   5.856 -0.8900 -0.7181 -0.5925
  276MOL0     H36390   2.743   4.443   5.630 -2.7476 -0.6148 -1.5691
  276MOL0     H36391   2.758   4.287   5.714 -0.5300  0.2079 -0.4721
  276MOL0     H36392   2.539   4.504   5.746 -2.1777 -1.2138 -1.2763
  276MOL0     H36393   2.544   4.341   5.825  0.4791 -0.2851 -0.5208
  276MOL0     H36394   2.438   4.259   5.385  2.0616  0.3238  2.1448
  276MOL0     H36395   2.204   4.198   5.338  0.5378  0.2222 -0.2481
  276MOL0     H36396   1.747   4.322   5.722  0.6099 -1.2150  0.8253
  276MOL0     H36397   1.518   4.306   5.706  1.1572 -0.9651  3.1788
  276MOL0     H36398   1.370   3.902   5.595 -0.6579 -0.7454 -0.4522
  276MOL0     H36399   1.272   3.969   5.469 -0.7753 -0.0721  0.1375
  276MOL0     H36400   1.204   4.040   5.746  2.7745  0.0602 -0.9662
  276MOL0     H36401   1.130   3.893   5.673 -0.9734  0.0401 -0.4213
  276MOL0     H36402   1.062   3.991   5.488  4.0825 -1.3597  1.1334
  276MOL0     H36403   1.087   4.154   5.545 -1.9792  0.2846 -3.0375
  276MOL0     H36404   0.907   3.944   5.689  1.4768  0.0984  0.5438
  276MOL0     H36405   0.958   4.118   5.733 -2.6513  0.8618  0.0533
  276MOL0     H36406   0.780   4.062   5.487 -0.4811  1.2870 -0.8253
  276MOL0     H36407   0.862   4.208   5.513 -0.7009 -1.3395 -0.5358
  276MOL0     H36408   0.731   4.252   5.717  1.3375 -3.1352  2.6879
  276MOL0     H36409   0.644   4.096   5.709 -1.6556  2.5544  1.7924
  276MOL0     H36410   0.653   4.274   5.460  1.2872  0.8339  1.2246
  276MOL0     H36411   0.538   4.143   5.492  1.7329  0.0960 -1.5168
  276MOL0     H36412   0.443   4.378   5.487  0.6918  0.0862 -0.2148
  276MOL0     H36413   0.546   4.412   5.622  3.1775 -0.0306 -2.2567
  276MOL0     H36414   1.541   3.940   5.475 -0.5177 -0.1239  0.4579
  276MOL0     H36415   1.797   3.949   5.513  0.5417 -1.9670  3.0407
  276MOL0     H36416   2.100   4.257   5.751  0.1683 -0.5740 -0.7034
  276MOL0     H36417   2.332   4.319   5.804 -1.5564 -0.4181  0.5825
  276MOL0     H36418   3.328   4.327   5.282 -3.0233 -1.6279  2.9463
  276MOL0     H36419   3.544   4.292   5.173 -0.0120  0.0686  2.5650
  276MOL0     H36420   3.985   4.062   5.277  1.1984  0.4341 -0.4817
  276MOL0     H36421   4.205   4.094   5.167  0.9708 -0.8261  0.3413
  276MOL0     H36422   4.354   4.079   4.754 -1.6042  1.6658 -0.1623
  276MOL0     H36423   4.237   3.945   4.792 -1.3859  1.0380 -0.1983
  276MOL0     H36424   4.488   4.007   4.957  2.2119 -0.2537 -1.0401
  276MOL0     H36425   4.351   3.889   4.977  0.0650  1.1326  0.4892
  276MOL0     H36426   4.383   3.814   4.738 -0.7728  0.3809 -0.3552
  276MOL0     H36427   4.494   3.741   4.851 -1.5994 -0.0270  0.6730
  276MOL0     H36428   4.547   3.954   4.638 -3.4327 -1.0366  1.4292
  276MOL0     H36429   4.643   3.970   4.781 -0.3122  0.3943  0.4864
  276MOL0     H36430   4.835   3.664   4.573  3.4857  4.4962  0.5116
  276MOL0     H36431   4.019   4.093   4.775 -1.1008 -0.2393  0.0363
  276MOL0     H36432   3.788   4.097   4.897  1.8090 -0.9737 -3.1495
  277MOL0     O36433   9.584   8.213   5.595 -0.4596  0.1834 -0.1964
  277MOL0     C36434   9.675   8.234   5.509 -0.1940  0.6643 -0.8318
  277MOL0     O36435   9.665   8.201   5.385  0.1196 -0.8491 -0.3728
  277MOL0     C36436   9.547   8.159   5.343 -0.7711 -0.2804 -0.3376
  277MOL0     C36437   9.506   8.031   5.378  0.0081 -0.0600 -0.5009
  277MOL0     C36438   9.397   7.970   5.310 -0.2553  0.3158  1.0661
  277MOL0     C36439   9.340   8.034   5.199 -0.5236 -0.0860 -0.1454
  277MOL0     O36440   9.234   7.991   5.118  0.2520  0.3417  0.4246
  277MOL0     C36441   9.194   7.850   5.130 -0.2952  0.0802  0.1606
  277MOL0     C36442   9.060   7.816   5.067  0.1533  0.5017 -0.0569
  277MOL0     C36443   8.954   7.871   5.162  0.1519 -0.8410  0.8151
  277MOL0     C36444   8.819   7.846   5.108  0.0455  0.4685  0.2383
  277MOL0     C36445   8.711   7.903   5.206 -0.0963  1.0258  0.3787
  277MOL0     C36446   8.573   7.847   5.191 -0.0719  0.2250  0.7859
  277MOL0     C36447   8.494   7.897   5.307 -0.0256  0.3837  0.3765
  277MOL0     C36448   8.348   7.819   5.321  0.0875 -0.1363 -0.3062
  277MOL0     N36449   8.297   7.869   5.451 -0.7357  0.0319  0.3511
  277MOL0     C36450   8.246   7.994   5.472  0.3079  0.9323 -0.1928
  277MOL0     C36451   8.243   8.002   5.607 -0.9403  0.6873  0.5976
  277MOL0     C36452   8.204   8.125   5.681  0.4319 -0.5014  0.0164
  277MOL0     C36453   8.265   8.140   5.812 -0.1069 -0.7388 -0.8563
  277MOL0     C36454   8.243   8.287   5.870  0.0028 -0.2656 -1.3356
  277MOL0     C36455   8.114   8.296   5.962  0.1193  0.0481 -1.3362
  277MOL0     O36456   8.029   8.413   5.953  1.0017 -0.2325  0.2283
  277MOL0     C36457   8.049   8.527   6.026  1.0975 -0.2524  0.1417
  277MOL0     C36458   7.952   8.618   6.035 -0.7364 -0.7331 -0.1644
  277MOL0     C36459   7.967   8.731   6.123 -0.0603 -0.4719  0.2976
  277MOL0     C36460   8.092   8.754   6.185 -0.3237 -0.3409  0.5883
  277MOL0     C36461   8.112   8.881   6.248 -0.4350 -0.3511  0.3969
  277MOL0     O36462   8.244   8.922   6.274  0.9316  0.1992  0.9717
  277MOL0     C36463   8.267   9.036   6.333  0.0073 -0.0650 -0.6230
  277MOL0     C36464   8.232   9.064   6.468 -0.8178 -0.4545  0.5347
  277MOL0     C36465   8.264   9.189   6.523 -0.2903 -0.2297  0.7044
  277MOL0     C36466   8.324   9.286   6.449 -0.3091 -0.0701 -0.0245
  277MOL0     O36467   8.371   9.407   6.499 -0.4257  0.4796  0.2892
  277MOL0     C36468   8.438   9.402   6.628  0.6236 -0.2646  0.6353
  277MOL0     C36469   8.574   9.476   6.615 -0.2422  0.2971 -0.5922
  277MOL0     C36470   8.566   9.623   6.576  0.7635 -0.5932 -0.9065
  277MOL0     C36471   8.703   9.682   6.587 -0.4915  0.4409 -1.3148
  277MOL0     C36472   8.711   9.836   6.582 -0.4199 -0.1386 -1.0394
  277MOL0     C36473   8.713   9.898   6.447  0.4768 -0.0425 -0.8872
  277MOL0     C36474   8.847   9.889   6.376  0.6417 -0.2591  0.7915
  277MOL0     C36475   8.828   9.923   6.225  0.1179 -0.2004  0.5489
  277MOL0    Cl36476   8.976   9.919   6.117 -0.1377  0.0260 -0.0904
  277MOL0     C36477   8.344   9.261   6.313 -0.0180 -0.1566  0.3637
  277MOL0     C36478   8.325   9.135   6.251 -0.7449  0.2101  0.6563
  277MOL0     O36479   8.009   8.948   6.275  0.2733 -0.0084 -0.1725
  277MOL0     C36480   8.189   8.664   6.166 -0.7912 -0.1964  0.1088
  277MOL0     C36481   8.172   8.548   6.093 -0.4457  0.4044  0.3746
  277MOL0     N36482   8.295   7.890   5.659 -0.0478  0.1393 -0.0057
  277MOL0     N36483   8.329   7.811   5.570  0.5315  0.0420  0.7525
  277MOL0     C36484   9.383   8.157   5.167  0.4256 -0.8215 -0.4364
  277MOL0     C36485   9.486   8.221   5.238  0.7325  0.2933  0.0347
  277MOL0     C36486   9.816   8.268   5.561 -0.1439 -1.1665  0.6569
  277MOL0     C36487   9.850   8.266   5.695 -0.3035 -0.5719  0.1294
  277MOL0     C36488   9.986   8.283   5.734 -0.2008 -0.4599 -0.7461
  277MOL0     C36489  10.085   8.312   5.643 -0.1163 -0.5575 -0.1217
  277MOL0     O36490  10.212   8.338   5.679 -0.0649  0.0549 -0.5863
  277MOL0     C36491  10.284   8.242   5.765  0.6124 -0.5647 -0.3874
  277MOL0     C36492  10.387   8.169   5.684  0.7825  0.1928  0.4101
  277MOL0     C36493  10.431   8.057   5.773  0.6370  0.8625  0.0596
  277MOL0     C36494  10.536   8.084   5.880  0.4291 -0.5414 -0.1233
  277MOL0     C36495  10.659   8.079   5.804 -0.0207 -0.3799 -0.1388
  277MOL0     C36496  10.769   8.069   5.760  0.6328  0.2617 -0.0841
  277MOL0     C36497  10.054   8.295   5.507 -0.2457 -0.5222 -0.4585
  277MOL0     C36498   9.922   8.281   5.469 -0.7344 -0.3221  1.1470
  277MOL0     H36499   9.557   7.995   5.467 -0.5183  0.6698  0.1086
  277MOL0     H36500   9.355   7.875   5.339  1.5023 -1.7673 -2.5810
  277MOL0     H36501   9.197   7.804   5.229 -2.1726 -0.3460  0.0711
  277MOL0     H36502   9.275   7.796   5.082 -1.2540 -0.6850 -0.6477
  277MOL0     H36503   9.042   7.709   5.056 -0.6831  0.6328 -0.0688
  277MOL0     H36504   9.043   7.856   4.967  1.1867 -0.6425 -0.7135
  277MOL0     H36505   8.956   7.978   5.185 -0.8380 -0.3037 -1.3957
  277MOL0     H36506   8.957   7.820   5.259  1.0656  0.6488  1.6146
  277MOL0     H36507   8.810   7.898   5.012  0.9055 -0.8833 -0.6209
  277MOL0     H36508   8.800   7.740   5.088 -0.1463  0.9414 -2.5767
  277MOL0     H36509   8.714   8.012   5.208  1.5082  1.0017  1.2472
  277MOL0     H36510   8.744   7.871   5.305  2.1567  3.0766  0.3842
  277MOL0     H36511   8.589   7.739   5.194 -0.7953  0.1354  1.8507
  277MOL0     H36512   8.516   7.880   5.103 -1.4274  3.8023  2.7918
  277MOL0     H36513   8.556   7.881   5.395  2.1753 -1.6155 -1.4105
  277MOL0     H36514   8.466   8.002   5.296 -0.8430 -0.0294 -2.3690
  277MOL0     H36515   8.363   7.711   5.333  1.6050 -0.0064 -0.7010
  277MOL0     H36516   8.281   7.831   5.235 -2.3679 -2.9190  1.0524
  277MOL0     H36517   8.220   8.070   5.399 -2.5484  0.4913  0.2354
  277MOL0     H36518   8.096   8.133   5.697  0.2830 -3.3075  1.0382
  277MOL0     H36519   8.238   8.209   5.620  0.2429  0.9584  1.8572
  277MOL0     H36520   8.369   8.119   5.786  1.7600  3.1741  2.3327
  277MOL0     H36521   8.219   8.067   5.879  0.1102  0.4839  0.6757
  277MOL0     H36522   8.330   8.305   5.934  0.5438 -0.0426 -2.1192
  277MOL0     H36523   8.224   8.366   5.797  0.1771  1.1363  0.0861
  277MOL0     H36524   8.144   8.293   6.067 -0.5128  0.5273 -1.1394
  277MOL0     H36525   8.050   8.208   5.952 -5.4917  3.1230  2.3711
  277MOL0     H36526   7.858   8.595   5.985 -1.6209  3.0162 -0.5122
  277MOL0     H36527   7.879   8.791   6.141 -0.4173 -1.1307  0.8284
  277MOL0     H36528   8.196   8.987   6.536  1.8623 -1.6397  0.7264
  277MOL0     H36529   8.224   9.221   6.618 -0.3543  2.0122 -0.0300
  277MOL0     H36530   8.455   9.297   6.655 -1.2974 -0.4504  1.2945
  277MOL0     H36531   8.368   9.434   6.705 -3.2577 -0.4546 -2.4703
  277MOL0     H36532   8.628   9.429   6.532 -0.3420  1.4513 -1.3244
  277MOL0     H36533   8.629   9.442   6.704 -1.5238 -0.2884 -0.0032
  277MOL0     H36534   8.496   9.657   6.652  1.5425 -1.8199  0.4014
  277MOL0     H36535   8.522   9.648   6.479 -1.6400  1.6269  0.6279
  277MOL0     H36536   8.739   9.654   6.687  2.0747  0.6766 -2.0952
  277MOL0     H36537   8.771   9.620   6.528  0.9523 -1.6925  2.2623
  277MOL0     H36538   8.807   9.854   6.632 -0.9922  1.2691 -0.3963
  277MOL0     H36539   8.635   9.869   6.653  0.2916 -2.9899  1.2040
  277MOL0     H36540   8.686  10.004   6.461  1.5544  0.1803 -0.4518
  277MOL0     H36541   8.631   9.861   6.384 -0.5360  3.0262 -1.6005
  277MOL0     H36542   8.915   9.969   6.408 -2.6966  3.9112 -1.4368
  277MOL0     H36543   8.898   9.792   6.377 -2.0867 -1.9659 -2.6009
  277MOL0     H36544   8.784  10.023   6.218  2.4042  0.7751 -1.8648
  277MOL0     H36545   8.749   9.863   6.179 -0.8988  1.9521 -0.6414
  277MOL0     H36546   8.391   9.340   6.255 -1.2507  0.8650  0.7191
  277MOL0     H36547   8.354   9.105   6.151  2.4786  1.1322  1.1993
  277MOL0     H36548   8.284   8.682   6.216 -0.0941  1.4541 -1.6978
  277MOL0     H36549   8.258   8.482   6.085 -1.3152 -0.6362 -0.8922
  277MOL0     H36550   9.334   8.204   5.082 -0.1536  0.5236  0.6145
  277MOL0     H36551   9.518   8.315   5.195 -3.9399  1.4635 -1.5618
  277MOL0     H36552   9.779   8.225   5.767 -2.6070 -0.1292 -1.7623
  277MOL0     H36553   9.992   8.292   5.842 -0.7791 -2.0298 -0.5645
  277MOL0     H36554  10.209   8.176   5.809  0.9457 -1.6145 -1.3495
  277MOL0     H36555  10.330   8.302   5.844 -2.2557 -0.4832  1.3407
  277MOL0     H36556  10.349   8.112   5.598 -0.4761  0.6765  0.6237
  277MOL0     H36557  10.461   8.245   5.655  0.0406 -0.0249 -2.3625
  277MOL0     H36558  10.453   7.973   5.707  1.2826  1.6110 -0.6981
  277MOL0     H36559  10.335   8.029   5.817  0.7181  1.5717  0.7079
  277MOL0     H36560  10.522   8.179   5.932 -4.4564 -2.3324  2.6156
  277MOL0     H36561  10.536   8.013   5.963 -2.6199  2.7308  3.0379
  277MOL0     H36562  10.871   8.077   5.729  1.3624 -2.7970  1.1605
  277MOL0     H36563  10.134   8.298   5.434 -0.5404 -1.9180 -0.8762
  277MOL0     H36564   9.905   8.258   5.364  0.6169 -1.5408  1.1595
  278MOL0     O36565   6.223   1.382   0.296 -0.5123  0.2890  0.1408
  278MOL0     C36566   6.204   1.365   0.419 -0.2345  0.2843  0.5015
  278MOL0     O36567   6.084   1.321   0.475  0.2707 -0.0624  0.1747
  278MOL0     C36568   5.981   1.382   0.408 -0.6458 -0.8686 -0.4244
  278MOL0     C36569   5.971   1.517   0.426  0.3470 -0.3209  0.4659
  278MOL0     C36570   5.877   1.601   0.352  0.2722  0.3312 -0.0292
  278MOL0     C36571   5.781   1.537   0.265 -0.9508  0.0277 -0.9326
  278MOL0     O36572   5.690   1.611   0.194 -0.0133 -0.1068  0.2091
  278MOL0     C36573   5.614   1.545   0.093 -0.8334  0.6518  0.4445
  278MOL0     C36574   5.512   1.641   0.033  0.5863  0.1226  0.3412
  278MOL0     C36575   5.422   1.718   0.122  0.9675  1.0283 -0.6395
  278MOL0     C36576   5.313   1.792   0.043  0.3105  0.8070 -0.4661
  278MOL0     C36577   5.217   1.858   0.144 -0.5702  0.2412  0.3130
  278MOL0     C36578   5.094   1.923   0.080 -0.3110  0.2027  0.6907
  278MOL0     C36579   5.019   2.015   0.180  0.2678 -0.7657 -0.4541
  278MOL0     C36580   4.930   1.927   0.272  0.3079 -0.7608  0.4393
  278MOL0     N36581   4.865   2.011   0.377  0.2686  0.8925  0.2405
  278MOL0     C36582   4.783   2.120   0.359 -0.9172 -0.2973  1.4910
  278MOL0     C36583   4.743   2.153   0.480  0.4078  0.2855  0.6192
  278MOL0     C36584   4.659   2.270   0.516  0.9268 -0.3340  0.0539
  278MOL0     C36585   4.519   2.208   0.562  0.4131  0.0423 -0.5950
  278MOL0     C36586   4.432   2.177   0.446  0.9520  0.1054 -0.2458
  278MOL0     C36587   4.294   2.144   0.490  0.7897  0.2550 -0.0186
  278MOL0     O36588   4.224   2.254   0.543  0.5161 -0.0094 -0.1914
  278MOL0     C36589   4.090   2.245   0.512 -0.4834  0.6223 -0.4437
  278MOL0     C36590   4.004   2.256   0.609  0.8154 -0.6973 -0.6784
  278MOL0     C36591   3.862   2.239   0.590 -0.5096 -0.1011  0.6974
  278MOL0     C36592   3.811   2.226   0.457  0.8241 -0.0467  0.3871
  278MOL0     C36593   3.671   2.214   0.426  0.4456  0.1086  0.0491
  278MOL0     O36594   3.600   2.191   0.535 -0.2306  0.0007 -1.1243
  278MOL0     C36595   3.467   2.216   0.542  0.0476  0.7961 -0.5981
  278MOL0     C36596   3.374   2.165   0.454  0.3455  0.5195  0.7639
  278MOL0     C36597   3.232   2.170   0.483 -0.5939 -0.1791 -0.4035
  278MOL0     C36598   3.193   2.249   0.588 -0.1547  0.2728 -0.6393
  278MOL0     O36599   3.055   2.270   0.593 -0.1080 -0.0029 -0.0582
  278MOL0     C36600   2.995   2.260   0.727 -0.3129 -0.2355  0.0998
  278MOL0     C36601   2.842   2.281   0.719  0.6649 -0.1888 -0.7554
  278MOL0     C36602   2.770   2.248   0.851  0.3896  0.0490  0.1664
  278MOL0     C36603   2.619   2.249   0.838 -0.4646  0.3251  0.6028
  278MOL0     C36604   2.553   2.391   0.834 -0.7758 -0.1827  0.9822
  278MOL0     C36605   2.401   2.408   0.868 -0.2932  0.4000  0.0137
  278MOL0     C36606   2.306   2.334   0.757 -1.5872 -0.4926 -0.0511
  278MOL0     C36607   2.187   2.262   0.822  0.4790 -0.7890 -0.0429
  278MOL0    Cl36608   2.104   2.382   0.924 -0.4213  0.0133 -0.2634
  278MOL0     C36609   3.284   2.322   0.668 -0.0439 -0.0733 -0.0377
  278MOL0     C36610   3.418   2.306   0.634  0.6055  0.0429  1.0752
  278MOL0     O36611   3.627   2.221   0.314 -0.1045 -0.0204  0.1833
  278MOL0     C36612   3.907   2.218   0.350  0.2600 -0.1494 -1.4063
  278MOL0     C36613   4.043   2.230   0.381 -0.3620  0.0783 -0.0316
  278MOL0     N36614   4.793   2.059   0.575  0.4377 -0.1856  0.6330
  278MOL0     N36615   4.867   1.975   0.507  0.0543 -0.5316  0.4843
  278MOL0     C36616   5.793   1.402   0.253 -0.7633 -0.3886 -0.2268
  278MOL0     C36617   5.890   1.326   0.317 -0.6825 -0.3169  0.0068
  278MOL0     C36618   6.318   1.366   0.512 -0.0181  0.2100  0.2347
  278MOL0     C36619   6.296   1.347   0.648  0.0707 -0.3505 -0.1306
  278MOL0     C36620   6.395   1.347   0.747  0.0971 -1.0066 -0.5959
  278MOL0     C36621   6.529   1.357   0.710  0.1937  0.3086  0.0906
  278MOL0     O36622   6.639   1.351   0.801 -0.0711 -0.5472 -0.0901
  278MOL0     C36623   6.626   1.324   0.936 -0.3852  0.2488 -0.0390
  278MOL0     C36624   6.768   1.336   0.997 -0.2955 -0.2188  0.0821
  278MOL0     C36625   6.796   1.493   1.003 -0.0752 -0.9540  0.1484
  278MOL0     C36626   6.728   1.561   1.115 -0.3307 -0.3120 -0.0597
  278MOL0     C36627   6.819   1.654   1.186  1.5424  0.4022 -0.2341
  278MOL0     C36628   6.901   1.707   1.263  1.0390 -0.0531 -0.2148
  278MOL0     C36629   6.553   1.379   0.569 -0.7134 -0.0765  0.5144
  278MOL0     C36630   6.452   1.385   0.479  0.5203 -0.2326  0.6415
  278MOL0     H36631   6.045   1.557   0.494  0.7102 -0.9942  0.4708
  278MOL0     H36632   5.870   1.709   0.356 -1.5137  0.2099  1.0297
  278MOL0     H36633   5.556   1.464   0.137 -0.7749  1.8256  2.8630
  278MOL0     H36634   5.680   1.513   0.012 -0.8685  0.9864  0.2800
  278MOL0     H36635   5.460   1.590  -0.048  0.5909  0.2915  0.2320
  278MOL0     H36636   5.574   1.710  -0.025  0.7820 -1.5263 -1.5082
  278MOL0     H36637   5.477   1.786   0.187  0.0098  1.1433  0.0767
  278MOL0     H36638   5.380   1.639   0.186 -0.4735  2.3882  0.1649
  278MOL0     H36639   5.354   1.870  -0.022  0.0754  0.4813 -1.0114
  278MOL0     H36640   5.253   1.730  -0.023 -0.5853  1.8507 -0.6540
  278MOL0     H36641   5.280   1.925   0.202  1.1142  0.3379 -1.5288
  278MOL0     H36642   5.186   1.785   0.220 -0.7542  0.4538  0.4441
  278MOL0     H36643   5.032   1.838   0.048  2.1301 -0.4711 -2.8073
  278MOL0     H36644   5.127   1.978  -0.009  0.1219 -0.3117  0.5247
  278MOL0     H36645   5.090   2.074   0.240  1.0119  0.1990 -2.1955
  278MOL0     H36646   4.957   2.090   0.131  1.7325  0.3298 -0.7154
  278MOL0     H36647   4.997   1.853   0.317  1.9398 -0.5948 -1.5292
  278MOL0     H36648   4.864   1.870   0.206 -1.5137  0.2690  1.2995
  278MOL0     H36649   4.740   2.164   0.270 -0.5004 -1.2703  0.7861
  278MOL0     H36650   4.655   2.342   0.434  2.2794  1.2640  1.3358
  278MOL0     H36651   4.691   2.314   0.610  0.5861 -1.9382  0.9612
  278MOL0     H36652   4.461   2.275   0.626 -0.0163 -0.6458 -0.2570
  278MOL0     H36653   4.528   2.114   0.617 -1.8926 -1.2756 -2.3247
  278MOL0     H36654   4.434   2.263   0.378  0.2486  1.4842  1.3988
  278MOL0     H36655   4.476   2.095   0.389 -1.3432 -0.7968 -0.8668
  278MOL0     H36656   4.292   2.058   0.557 -0.5761 -1.9047 -2.6059
  278MOL0     H36657   4.237   2.102   0.406  0.5583 -0.1028  0.3109
  278MOL0     H36658   4.041   2.272   0.710  1.4785 -2.5991 -0.5815
  278MOL0     H36659   3.792   2.226   0.672 -1.6726 -1.6130 -0.4622
  278MOL0     H36660   3.409   2.106   0.370 -1.3157  0.3576  0.1356
  278MOL0     H36661   3.153   2.124   0.424 -1.7202 -1.9104  2.2573
  278MOL0     H36662   3.041   2.330   0.798 -1.2835 -2.0372  2.6357
  278MOL0     H36663   3.024   2.160   0.757  3.3165 -0.2220 -2.6997
  278MOL0     H36664   2.815   2.207   0.642  2.6646  0.9041 -2.6287
  278MOL0     H36665   2.825   2.388   0.705 -1.6964  0.1315  3.0827
  278MOL0     H36666   2.791   2.313   0.936 -3.7823  2.2173 -0.1961
  278MOL0     H36667   2.806   2.149   0.881 -1.1539  0.1023  2.4271
  278MOL0     H36668   2.586   2.189   0.752 -0.3882  3.6833 -1.9943
  278MOL0     H36669   2.581   2.196   0.926  0.2838  2.1982  2.0988
  278MOL0     H36670   2.575   2.431   0.735  0.3633 -1.5330  0.6575
  278MOL0     H36671   2.602   2.457   0.906 -0.1046 -0.8504  1.1589
  278MOL0     H36672   2.384   2.516   0.878  1.1506  0.4349  3.0777
  278MOL0     H36673   2.387   2.373   0.970  0.4207 -0.7457 -0.2624
  278MOL0     H36674   2.268   2.403   0.682  2.0703  0.3125 -1.3692
  278MOL0     H36675   2.374   2.269   0.701  0.8347  0.1537  1.9307
  278MOL0     H36676   2.210   2.169   0.875 -1.0700 -3.5042 -3.7495
  278MOL0     H36677   2.116   2.229   0.746  1.8155 -0.1959 -1.5909
  278MOL0     H36678   3.250   2.400   0.736 -1.3314  0.4178 -1.2244
  278MOL0     H36679   3.479   2.378   0.687  0.7770  0.5426  0.2254
  278MOL0     H36680   3.866   2.209   0.250 -2.3167  0.9358 -0.5407
  278MOL0     H36681   4.109   2.219   0.296 -0.2159 -2.7289  0.3628
  278MOL0     H36682   5.737   1.352   0.175  0.6117  1.0919 -2.2909
  278MOL0     H36683   5.907   1.222   0.293  3.0001  0.3474 -0.8091
  278MOL0     H36684   6.193   1.330   0.677  1.1621 -3.2713  2.6639
  278MOL0     H36685   6.369   1.319   0.848  1.5293  2.7241  0.9842
  278MOL0     H36686   6.596   1.219   0.948  2.3547 -0.9610 -2.6926
  278MOL0     H36687   6.543   1.381   0.978 -2.9257 -3.2130  0.1177
  278MOL0     H36688   6.780   1.278   1.088  4.0746 -0.9331 -0.7047
  278MOL0     H36689   6.840   1.291   0.927 -0.3463 -0.1464 -0.0173
  278MOL0     H36690   6.771   1.553   0.914  1.8055 -0.1281  0.1268
  278MOL0     H36691   6.905   1.499   1.008 -0.0941 -1.0617  0.6474
  278MOL0     H36692   6.630   1.604   1.092 -0.8163  0.1672  2.5738
  278MOL0     H36693   6.703   1.484   1.188  1.2645 -1.8447 -1.0494
  278MOL0     H36694   6.957   1.748   1.344  0.8152  4.1895 -1.9498
  278MOL0     H36695   6.654   1.383   0.529 -1.3599  2.3918 -1.0644
  278MOL0     H36696   6.468   1.405   0.373  2.2788 -0.0995  0.9116
  279MOL0     O36697   1.575   4.733   1.899 -0.8131  0.4226 -0.2213
  279MOL0     C36698   1.612   4.753   1.786 -0.9355  0.0603 -0.0890
  279MOL0     O36699   1.529   4.769   1.679 -0.8570 -0.1979 -0.2306
  279MOL0     C36700   1.395   4.743   1.709  0.6676 -1.1296 -0.5016
  279MOL0     C36701   1.332   4.631   1.662 -0.2712  0.5662 -1.1224
  279MOL0     C36702   1.191   4.613   1.679 -0.1033  0.0121 -0.9165
  279MOL0     C36703   1.113   4.711   1.747 -0.5793 -0.3567 -0.1553
  279MOL0     O36704   0.976   4.704   1.746  0.3957  0.1646  0.5340
  279MOL0     C36705   0.923   4.714   1.614 -0.4450  0.0963  0.0952
  279MOL0     C36706   0.774   4.723   1.623 -0.3598  0.4257  1.4738
  279MOL0     C36707   0.709   4.860   1.636 -0.3071 -0.3909 -0.6456
  279MOL0     C36708   0.732   4.913   1.786 -0.1928  0.7550  0.2448
  279MOL0     C36709   0.662   5.045   1.807  0.9308  0.6207  0.0818
  279MOL0     C36710   0.506   5.024   1.816 -0.1975  1.1726 -0.1153
  279MOL0     C36711   0.457   4.955   1.942 -0.1360 -0.4117  0.0764
  279MOL0     C36712   0.312   4.975   1.974 -0.0209 -1.0313 -0.2679
  279MOL0     N36713   0.226   4.936   1.861 -0.1136  0.3274  0.3810
  279MOL0     C36714   0.225   4.813   1.798  0.2773  1.4967  0.1447
  279MOL0     C36715   0.160   4.830   1.683 -0.8643 -1.2080 -0.3309
  279MOL0     C36716   0.123   4.721   1.583 -0.1378 -0.5969  1.0411
  279MOL0     C36717   0.250   4.652   1.522  1.1251  0.5867  0.2565
  279MOL0     C36718   0.227   4.537   1.425 -0.3570  0.0299  0.4354
  279MOL0     C36719   0.349   4.470   1.366 -0.2238 -0.0045 -0.7368
  279MOL0     O36720   0.424   4.406   1.472  0.1998  0.1264 -0.7789
  279MOL0     C36721   0.556   4.388   1.439  0.3244  0.3700 -0.3569
  279MOL0     C36722   0.605   4.353   1.308 -0.3706  0.4043  0.0306
  279MOL0     C36723   0.747   4.337   1.290  0.1185  0.6950 -0.8576
  279MOL0     C36724   0.837   4.349   1.398  0.2987  0.3090 -0.0327
  279MOL0     C36725   0.982   4.341   1.356 -0.7055 -0.4095  0.8568
  279MOL0     O36726   1.062   4.430   1.420 -0.4681 -0.4986 -0.2462
  279MOL0     C36727   1.203   4.437   1.395  0.4572  1.2126 -0.9637
  279MOL0     C36728   1.294   4.326   1.384 -0.2707 -0.2123 -0.4648
  279MOL0     C36729   1.424   4.351   1.333 -0.3671 -0.0838  0.7100
  279MOL0     C36730   1.474   4.476   1.323 -0.0251 -0.2071  0.0121
  279MOL0     O36731   1.609   4.483   1.285 -0.0972 -0.9591  0.1097
  279MOL0     C36732   1.647   4.601   1.226 -0.5371 -0.5235  0.1952
  279MOL0     C36733   1.786   4.587   1.156  0.5932  0.5246 -0.3514
  279MOL0     C36734   1.904   4.606   1.252  0.7132  0.4621  0.3035
  279MOL0     C36735   2.038   4.600   1.181 -0.8439 -0.8177 -0.6573
  279MOL0     C36736   2.148   4.614   1.287  0.4413 -0.1469  0.0343
  279MOL0     C36737   2.280   4.570   1.229  0.4975  0.6870  0.3435
  279MOL0     C36738   2.386   4.586   1.333 -0.6003  0.5807  0.3570
  279MOL0     C36739   2.380   4.499   1.457  0.7610  0.3941 -0.6202
  279MOL0    Cl36740   2.384   4.329   1.412 -0.4543 -0.0376 -0.4614
  279MOL0     C36741   1.393   4.582   1.339  0.1816 -0.1351  0.0511
  279MOL0     C36742   1.254   4.561   1.382 -0.2825 -0.8758  0.1801
  279MOL0     O36743   1.024   4.266   1.263  0.1219 -1.1114  0.7541
  279MOL0     C36744   0.782   4.382   1.525  0.2648  0.0218  0.1277
  279MOL0     C36745   0.649   4.396   1.548  0.7228  0.8349 -0.0180
  279MOL0     N36746   0.104   4.958   1.677 -0.6755 -0.4619  0.5137
  279MOL0     N36747   0.152   5.023   1.780 -0.2561  0.3125 -0.0438
  279MOL0     C36748   1.172   4.828   1.785 -0.3934  0.1772  0.4440
  279MOL0     C36749   1.310   4.838   1.766 -1.0515  0.1323  0.1377
  279MOL0     C36750   1.759   4.780   1.775 -0.2012  0.2303  0.4865
  279MOL0     C36751   1.810   4.814   1.642 -0.0948 -0.0338 -0.7899
  279MOL0     C36752   1.950   4.808   1.621 -0.8879 -0.4186  0.1462
  279MOL0     C36753   2.040   4.774   1.720 -1.0034 -0.1047 -0.1257
  279MOL0     O36754   2.166   4.746   1.673 -0.4291  0.3533 -0.0455
  279MOL0     C36755   2.251   4.853   1.699 -0.5781 -0.0111  0.9848
  279MOL0     C36756   2.371   4.837   1.601  0.5700 -0.2417 -0.6168
  279MOL0     C36757   2.495   4.923   1.646 -0.2990 -0.0620  0.6168
  279MOL0     C36758   2.593   4.949   1.524  0.5320  1.4220 -0.1388
  279MOL0     C36759   2.649   4.823   1.488  1.2432  0.2300 -0.3759
  279MOL0     C36760   2.709   4.732   1.438 -0.7580 -0.0788  0.5355
  279MOL0     C36761   2.002   4.749   1.851 -0.0535  0.0238  0.4638
  279MOL0     C36762   1.855   4.742   1.874  0.1160  0.3893  0.0132
  279MOL0     H36763   1.398   4.556   1.620  1.1355 -0.3053  2.2517
  279MOL0     H36764   1.143   4.517   1.660 -1.1203  0.2227  0.3730
  279MOL0     H36765   0.952   4.627   1.554  0.8799  1.3261 -1.1036
  279MOL0     H36766   0.960   4.797   1.553 -2.1418  2.2933  1.8876
  279MOL0     H36767   0.734   4.655   1.698  0.0328  3.4860  4.6882
  279MOL0     H36768   0.738   4.688   1.526  1.0606 -0.7020  1.3246
  279MOL0     H36769   0.604   4.845   1.612 -0.1915  0.0915 -1.4859
  279MOL0     H36770   0.756   4.916   1.555  0.9889 -1.3123 -0.5606
  279MOL0     H36771   0.703   4.827   1.847 -0.5108  1.6307  1.3653
  279MOL0     H36772   0.839   4.931   1.798  0.1375 -1.6404  1.4478
  279MOL0     H36773   0.693   5.123   1.738 -0.3117  0.6654 -0.4676
  279MOL0     H36774   0.686   5.087   1.905  0.8037 -0.4735  0.5964
  279MOL0     H36775   0.474   4.974   1.724 -1.7353 -2.3678  2.1278
  279MOL0     H36776   0.451   5.119   1.816  0.7513  1.7642  1.7673
  279MOL0     H36777   0.486   4.850   1.932 -1.9879 -1.2719  2.6243
  279MOL0     H36778   0.513   4.994   2.028 -0.6337  2.2753 -0.7307
  279MOL0     H36779   0.286   5.074   2.013 -2.2861 -1.1314 -1.3936
  279MOL0     H36780   0.287   4.909   2.057 -1.6560 -0.1130  0.0124
  279MOL0     H36781   0.270   4.719   1.828 -4.5256 -1.2562 -0.2605
  279MOL0     H36782   0.057   4.756   1.503  1.2874  0.2260  0.1656
  279MOL0     H36783   0.058   4.648   1.632 -0.5069 -0.3508  0.9153
  279MOL0     H36784   0.306   4.606   1.604  0.0414  0.2398  0.8309
  279MOL0     H36785   0.316   4.721   1.469 -0.1342  1.9525  0.4001
  279MOL0     H36786   0.163   4.458   1.467 -2.4886 -0.3843 -3.0894
  279MOL0     H36787   0.169   4.579   1.342 -0.3773  0.6973  0.7830
  279MOL0     H36788   0.411   4.545   1.315  1.8871 -0.7975  0.5117
  279MOL0     H36789   0.316   4.392   1.297 -2.2747 -1.1332  1.3799
  279MOL0     H36790   0.543   4.323   1.225  0.5970  1.3491 -1.0646
  279MOL0     H36791   0.793   4.315   1.194  1.5068 -0.9181  0.1053
  279MOL0     H36792   1.256   4.224   1.386 -0.5168 -0.1217  1.5822
  279MOL0     H36793   1.481   4.260   1.318 -1.4651 -0.5102 -1.1710
  279MOL0     H36794   1.653   4.684   1.296  2.3266 -2.4056  2.4106
  279MOL0     H36795   1.579   4.635   1.148  0.8378 -1.4499 -1.4931
  279MOL0     H36796   1.786   4.669   1.083 -2.7983  1.6172  0.6950
  279MOL0     H36797   1.798   4.491   1.105  0.1299  0.8488 -1.0867
  279MOL0     H36798   1.899   4.536   1.336 -2.5136  0.7040  0.4526
  279MOL0     H36799   1.895   4.702   1.304  0.2777  0.9999 -0.7444
  279MOL0     H36800   2.044   4.506   1.125 -1.8589 -0.4786 -1.3597
  279MOL0     H36801   2.031   4.682   1.109 -2.4724  0.2418  0.6433
  279MOL0     H36802   2.115   4.547   1.367 -4.1468 -1.4832 -2.6139
  279MOL0     H36803   2.156   4.719   1.313  3.8417 -0.2690 -0.0505
  279MOL0     H36804   2.310   4.639   1.150 -0.7563 -1.8145 -2.5171
  279MOL0     H36805   2.273   4.467   1.193 -2.4906  0.5756  1.0496
  279MOL0     H36806   2.480   4.567   1.280 -0.7754  0.6777  0.0068
  279MOL0     H36807   2.390   4.691   1.362  0.1597  1.3141 -2.1479
  279MOL0     H36808   2.293   4.526   1.517  1.7410 -2.3364  2.2895
  279MOL0     H36809   2.467   4.514   1.522 -0.8870  2.3088  1.2867
  279MOL0     H36810   1.436   4.681   1.342  2.4867 -1.0336 -0.5958
  279MOL0     H36811   1.188   4.643   1.409  0.5231  0.3347 -1.3227
  279MOL0     H36812   0.855   4.393   1.605 -1.2104  0.1340  1.5104
  279MOL0     H36813   0.609   4.418   1.647  1.6409  2.7052 -0.0260
  279MOL0     H36814   1.119   4.910   1.833 -0.7528 -0.6013  1.3956
  279MOL0     H36815   1.355   4.932   1.793  0.4400 -0.9635  1.6869
  279MOL0     H36816   1.732   4.822   1.567 -3.1830  2.2166  2.3389
  279MOL0     H36817   1.985   4.822   1.519  0.1623  2.1584  0.7918
  279MOL0     H36818   2.278   4.863   1.805 -1.3529  1.8240  1.0464
  279MOL0     H36819   2.198   4.946   1.676  1.3708  0.9827  0.3754
  279MOL0     H36820   2.390   4.729   1.606 -3.4345 -1.0524  1.5280
  279MOL0     H36821   2.336   4.868   1.503 -0.4808  0.0640 -0.1552
  279MOL0     H36822   2.550   4.867   1.722  0.5558  0.5223  0.4472
  279MOL0     H36823   2.470   5.018   1.694  3.4477  0.3547  2.1022
  279MOL0     H36824   2.527   4.994   1.449 -0.2840  0.8323  0.1996
  279MOL0     H36825   2.680   5.009   1.550  1.8911 -0.6091  0.2653
  279MOL0     H36826   2.761   4.652   1.389 -0.8793  0.4239 -0.4276
  279MOL0     H36827   2.075   4.722   1.927  0.1321  0.1345  0.3253
  279MOL0     H36828   1.829   4.689   1.965  3.8456  1.3867  1.8882
  280MOL0     O36829   7.741   4.001   1.326  0.4874 -0.4283 -0.2639
  280MOL0     C36830   7.842   4.046   1.384  0.0218 -0.5713  0.0846
  280MOL0     O36831   7.843   4.116   1.504  0.4048  0.4311 -0.7263
  280MOL0     C36832   7.720   4.121   1.561  1.1651  0.0732 -1.5519
  280MOL0     C36833   7.620   4.197   1.501 -0.0107 -0.7157  0.0084
  280MOL0     C36834   7.497   4.206   1.557  0.1678  0.2488 -0.2070
  280MOL0     C36835   7.474   4.146   1.680 -0.0556 -0.9291 -0.1060
  280MOL0     O36836   7.350   4.178   1.730 -0.3299 -0.7205 -0.7626
  280MOL0     C36837   7.309   4.089   1.829  0.1806  0.2559 -0.9393
  280MOL0     C36838   7.164   4.096   1.862  0.2403  0.1947  0.7706
  280MOL0     C36839   7.072   4.041   1.749 -0.3123  0.1998  0.4291
  280MOL0     C36840   6.939   4.012   1.813  0.2255  0.0056  0.1188
  280MOL0     C36841   6.859   4.135   1.848 -0.1205  0.4192 -0.3032
  280MOL0     C36842   6.760   4.172   1.731  0.0697  0.6183 -0.3027
  280MOL0     C36843   6.664   4.285   1.762  1.0694  0.5347  0.5657
  280MOL0     C36844   6.565   4.234   1.873 -0.5402  0.1298  0.0456
  280MOL0     N36845   6.492   4.108   1.831  0.7744 -0.3561 -0.1824
  280MOL0     C36846   6.393   4.081   1.739 -0.1119 -0.3101  0.4769
  280MOL0     C36847   6.369   3.947   1.741 -0.8332 -0.2681 -0.7567
  280MOL0     C36848   6.261   3.874   1.667 -0.0234  0.4740  0.0035
  280MOL0     C36849   6.118   3.883   1.734  0.2043 -0.4511  0.1190
  280MOL0     C36850   6.125   3.795   1.860  0.2707  0.3691  0.1665
  280MOL0     C36851   5.983   3.755   1.904  0.2556  0.0137 -0.8854
  280MOL0     O36852   5.987   3.676   2.023  0.1527  0.2901 -0.8923
  280MOL0     C36853   5.865   3.654   2.078  0.5631  0.2702 -0.0054
  280MOL0     C36854   5.750   3.621   1.997  0.5041  0.5012 -0.0318
  280MOL0     C36855   5.634   3.591   2.074 -0.5074  1.3055 -1.1439
  280MOL0     C36856   5.632   3.570   2.214 -0.0242 -0.7144 -0.4347
  280MOL0     C36857   5.522   3.503   2.275 -0.2535 -0.2346  0.0375
  280MOL0     O36858   5.496   3.538   2.405 -0.8076  0.1981 -0.3076
  280MOL0     C36859   5.400   3.482   2.489 -0.3671  0.0220  0.9108
  280MOL0     C36860   5.320   3.369   2.461 -0.8444  0.3187 -0.2164
  280MOL0     C36861   5.224   3.314   2.552 -1.5995  0.7727  0.1892
  280MOL0     C36862   5.222   3.371   2.681 -0.5314 -0.1617  0.1596
  280MOL0     O36863   5.134   3.330   2.774 -0.6138  0.1589  0.1701
  280MOL0     C36864   5.149   3.191   2.822 -0.6307 -0.0871  0.4432
  280MOL0     C36865   5.039   3.101   2.755  0.2003  0.8885  0.2149
  280MOL0     C36866   4.900   3.160   2.763  0.2964 -0.2992 -0.5927
  280MOL0     C36867   4.795   3.048   2.721  0.0302  0.0849  0.2424
  280MOL0     C36868   4.659   3.112   2.726 -0.7304  0.3711 -0.1382
  280MOL0     C36869   4.568   3.046   2.620  0.0638 -0.2099 -0.0220
  280MOL0     C36870   4.514   2.907   2.668  0.6499  0.6808  0.3867
  280MOL0     C36871   4.362   2.896   2.668  0.8003  0.1000 -0.6285
  280MOL0    Cl36872   4.320   2.756   2.786  0.4224  0.5224 -0.2663
  280MOL0     C36873   5.301   3.487   2.702 -0.0087 -0.9008 -0.0973
  280MOL0     C36874   5.398   3.537   2.616  0.5373  0.1331 -0.7507
  280MOL0     O36875   5.447   3.443   2.200  0.6642  0.3584  0.4249
  280MOL0     C36876   5.747   3.610   2.289 -0.3555 -0.5033  0.8041
  280MOL0     C36877   5.864   3.657   2.211 -0.5342 -0.2870 -0.8066
  280MOL0     N36878   6.451   3.893   1.841  0.2014 -0.7517  0.5329
  280MOL0     N36879   6.532   3.987   1.886 -0.0644  0.0339  0.0454
  280MOL0     C36880   7.569   4.055   1.730 -0.3331  0.6927  0.9729
  280MOL0     C36881   7.692   4.041   1.672  0.0609 -0.5400  0.3754
  280MOL0     C36882   7.976   3.989   1.339  0.3822 -0.0842 -0.6021
  280MOL0     C36883   8.088   3.996   1.413 -0.7089  0.2385 -1.0189
  280MOL0     C36884   8.208   3.932   1.364  0.4665 -0.4877  0.5378
  280MOL0     C36885   8.217   3.889   1.231  0.4902  1.1964  1.2001
  280MOL0     O36886   8.338   3.837   1.181  0.2661 -0.4285  0.9703
  280MOL0     C36887   8.401   3.739   1.259 -0.2977 -1.0142  0.8532
  280MOL0     C36888   8.325   3.613   1.275  0.6820 -0.6146 -0.0094
  280MOL0     C36889   8.383   3.514   1.382 -0.4689 -0.3037 -0.3522
  280MOL0     C36890   8.318   3.382   1.384 -0.7253  0.3398 -0.5092
  280MOL0     C36891   8.187   3.394   1.454  0.2114 -1.3386  0.2650
  280MOL0     C36892   8.079   3.385   1.505  0.4251  0.1126 -0.4797
  280MOL0     C36893   8.103   3.889   1.158  0.2362  0.3761  0.5715
  280MOL0     C36894   7.979   3.939   1.208  0.1676 -0.4516  0.1835
  280MOL0     H36895   7.653   4.242   1.409  1.2584 -1.0721  0.2671
  280MOL0     H36896   7.412   4.260   1.517 -0.6061 -1.2632 -0.6932
  280MOL0     H36897   7.364   4.111   1.921 -0.8224 -2.1891  0.3382
  280MOL0     H36898   7.328   3.984   1.805  0.7209 -0.3377  1.7282
  280MOL0     H36899   7.140   4.202   1.879 -0.2771  0.1685  0.2270
  280MOL0     H36900   7.144   4.051   1.959 -0.3077 -0.8501  0.1969
  280MOL0     H36901   7.127   3.958   1.703  0.7923  1.2209 -0.1722
  280MOL0     H36902   7.066   4.120   1.673  2.3379 -1.1175 -1.3129
  280MOL0     H36903   6.880   3.945   1.750 -0.4789  0.1740  0.5770
  280MOL0     H36904   6.954   3.950   1.903  0.3289 -1.3994 -0.8351
  280MOL0     H36905   6.925   4.217   1.877  1.8043 -0.9673 -0.5658
  280MOL0     H36906   6.800   4.104   1.935 -0.4136 -1.2919 -1.0582
  280MOL0     H36907   6.700   4.083   1.710 -1.2667  1.3417  0.3399
  280MOL0     H36908   6.817   4.196   1.640 -1.2465  3.1108 -0.5581
  280MOL0     H36909   6.715   4.376   1.796 -0.7889  1.6281  0.5568
  280MOL0     H36910   6.603   4.311   1.675  0.6852 -1.7352  0.0868
  280MOL0     H36911   6.492   4.311   1.899 -2.8433 -0.9289 -2.6996
  280MOL0     H36912   6.621   4.209   1.964 -0.8783 -4.6402 -0.7674
  280MOL0     H36913   6.342   4.151   1.673 -0.4491  0.7210  1.7930
  280MOL0     H36914   6.280   3.766   1.665 -0.4333  0.4021 -1.9159
  280MOL0     H36915   6.255   3.916   1.566 -2.4741 -0.0203 -0.1211
  280MOL0     H36916   6.036   3.853   1.668 -0.6063 -2.8066  2.0712
  280MOL0     H36917   6.082   3.984   1.757  0.9978  1.2362 -4.7460
  280MOL0     H36918   6.192   3.709   1.846  1.0107  0.1059  4.1175
  280MOL0     H36919   6.159   3.848   1.950  0.5612 -1.1901  1.0182
  280MOL0     H36920   5.939   3.703   1.819 -0.0206  2.0384 -2.0656
  280MOL0     H36921   5.921   3.841   1.931 -0.2498 -0.2989 -1.0498
  280MOL0     H36922   5.753   3.609   1.889  4.6790  0.8315 -0.1490
  280MOL0     H36923   5.554   3.552   2.012  1.8632 -3.3093 -1.6962
  280MOL0     H36924   5.341   3.316   2.369 -0.0580 -0.0415  0.1588
  280MOL0     H36925   5.168   3.232   2.508 -1.8109  0.9679  0.0918
  280MOL0     H36926   5.140   3.193   2.931  2.0984  3.3642  0.7934
  280MOL0     H36927   5.248   3.153   2.798 -0.9741 -0.3061 -0.6603
  280MOL0     H36928   5.036   3.012   2.819 -0.8523  0.5082 -0.3423
  280MOL0     H36929   5.048   3.079   2.649 -2.7588 -2.0686  0.4221
  280MOL0     H36930   4.894   3.246   2.695  0.0899 -0.9993 -1.4782
  280MOL0     H36931   4.882   3.175   2.870 -1.1100  1.5797 -1.0537
  280MOL0     H36932   4.827   3.023   2.619  1.4066  0.9381  0.4275
  280MOL0     H36933   4.807   2.958   2.781 -1.9813 -0.0086  0.5662
  280MOL0     H36934   4.674   3.220   2.711 -0.7359  0.4882  0.6315
  280MOL0     H36935   4.623   3.090   2.827  2.7461 -3.8007  0.4624
  280MOL0     H36936   4.620   3.058   2.525  2.9987  0.8043  1.5878
  280MOL0     H36937   4.485   3.118   2.614  0.0422 -0.3336 -1.5729
  280MOL0     H36938   4.554   2.826   2.606 -1.1993 -0.0372  0.0813
  280MOL0     H36939   4.555   2.890   2.767 -1.2966  1.4012  1.3652
  280MOL0     H36940   4.326   2.893   2.565 -3.0593  5.2772  0.1870
  280MOL0     H36941   4.314   2.986   2.706 -0.1233 -0.3478 -0.7069
  280MOL0     H36942   5.298   3.535   2.799  0.7669  1.7480 -1.2836
  280MOL0     H36943   5.457   3.625   2.639  1.4382 -0.5810 -0.2523
  280MOL0     H36944   5.758   3.596   2.396  0.7499 -0.0620  0.7575
  280MOL0     H36945   5.957   3.684   2.262  1.3194 -0.9132 -3.6480
  280MOL0     H36946   7.551   3.994   1.818 -1.3854  1.7074  1.4964
  280MOL0     H36947   7.767   3.972   1.709  0.0177 -0.5897  0.3701
  280MOL0     H36948   8.106   4.060   1.499 -0.0015  1.8527 -2.2933
  280MOL0     H36949   8.308   3.929   1.406  1.2687  4.0670 -0.5308
  280MOL0     H36950   8.441   3.786   1.350 -0.9486  0.3602  0.4530
  280MOL0     H36951   8.490   3.717   1.200  1.4705  1.0484  2.5470
  280MOL0     H36952   8.224   3.648   1.299 -0.5726 -1.0852 -3.9102
  280MOL0     H36953   8.326   3.566   1.176  3.7182 -2.7423  0.8910
  280MOL0     H36954   8.370   3.552   1.484  2.7172  0.1028  0.0056
  280MOL0     H36955   8.490   3.498   1.372 -0.0190  0.4413  2.3102
  280MOL0     H36956   8.306   3.339   1.284  1.4885 -0.6357 -0.4213
  280MOL0     H36957   8.388   3.318   1.439 -1.0059  1.7088  1.5227
  280MOL0     H36958   7.983   3.382   1.551  1.0687  0.7737  0.9680
  280MOL0     H36959   8.111   3.853   1.056 -1.7974 -0.8863  0.8051
  280MOL0     H36960   7.890   3.943   1.145 -1.1816 -1.5640  1.9319
  281MOL0     O36961   0.727  10.624   8.506 -0.0589 -0.3340 -0.0949
  281MOL0     C36962   0.738  10.730   8.462 -0.2587 -0.1715  0.8164
  281MOL0     O36963   0.646  10.835   8.456  0.4915 -0.5591  1.0041
  281MOL0     C36964   0.525  10.818   8.511 -0.5666 -0.1835 -0.2732
  281MOL0     C36965   0.481  10.912   8.601 -0.3169 -0.2767 -0.0688
  281MOL0     C36966   0.355  10.890   8.674 -0.7086  0.2294  0.2015
  281MOL0     C36967   0.276  10.784   8.640 -0.7095  0.1143  0.1509
  281MOL0     O36968   0.152  10.785   8.697  0.5623  0.3105  0.1034
  281MOL0     C36969   0.066  10.667   8.699 -0.2706 -0.5884  0.5255
  281MOL0     C36970  -0.072  10.710   8.757 -0.1898  0.0955 -0.1501
  281MOL0     C36971  -0.150  10.588   8.817  0.5254  0.5535 -0.6459
  281MOL0     C36972  -0.161  10.471   8.721  0.0712 -0.7833  0.6958
  281MOL0     C36973  -0.272  10.367   8.771 -0.2787 -0.0674  1.3200
  281MOL0     C36974  -0.270  10.248   8.671 -0.5995  0.4532 -0.1313
  281MOL0     C36975  -0.152  10.147   8.689 -0.6819 -0.0461  0.2240
  281MOL0     C36976  -0.155  10.045   8.575 -0.6948  0.4843 -0.4328
  281MOL0     N36977  -0.025   9.967   8.561  0.8211 -0.0734  0.6160
  281MOL0     C36978   0.040   9.885   8.655 -0.3776  0.6147  0.0036
  281MOL0     C36979   0.151   9.843   8.587  0.2909 -0.2892  0.2085
  281MOL0     C36980   0.247   9.738   8.620 -1.1118  0.1687 -0.0973
  281MOL0     C36981   0.202   9.599   8.556 -0.9660 -1.0603  0.0701
  281MOL0     C36982   0.207   9.482   8.658 -0.6349  0.3900 -0.1217
  281MOL0     C36983   0.366   9.446   8.680  0.2358 -0.5499  0.0806
  281MOL0     O36984   0.437   9.537   8.776 -0.1992 -0.2108 -0.0536
  281MOL0     C36985   0.576   9.526   8.786  0.8828  0.7380 -0.3065
  281MOL0     C36986   0.637   9.636   8.841 -0.9097 -0.2310 -0.4214
  281MOL0     C36987   0.778   9.638   8.854  0.3084 -0.8525  0.9034
  281MOL0     C36988   0.851   9.531   8.803 -0.0531 -0.6045 -0.0216
  281MOL0     C36989   0.996   9.529   8.822  0.8210  0.4819 -0.6042
  281MOL0     O36990   1.072   9.430   8.775 -0.3315 -0.7586 -0.0729
  281MOL0     C36991   1.210   9.450   8.776 -0.3892  1.3671 -0.0383
  281MOL0     C36992   1.278   9.417   8.653 -0.2659 -0.1520 -0.1867
  281MOL0     C36993   1.412   9.425   8.642 -0.1062  0.7889 -0.4505
  281MOL0     C36994   1.495   9.444   8.755 -0.2774  0.1158 -0.5767
  281MOL0     O36995   1.630   9.452   8.767 -0.2192  0.2645 -0.2001
  281MOL0     C36996   1.698   9.441   8.642  0.0496  0.4550 -0.0065
  281MOL0     C36997   1.848   9.454   8.671 -0.1922  0.2224 -0.4584
  281MOL0     C36998   1.892   9.559   8.776 -0.4262  0.1867  1.0911
  281MOL0     C36999   2.046   9.547   8.782  0.3238  0.5652  0.3251
  281MOL0     C37000   2.112   9.653   8.878 -0.1173  0.6840  0.5167
  281MOL0     C37001   2.259   9.661   8.853  0.1938 -0.2141  0.8262
  281MOL0     C37002   2.346   9.734   8.962  0.8830 -0.0296  0.1156
  281MOL0     C37003   2.493   9.695   8.939 -0.0529 -0.5999 -0.8292
  281MOL0    Cl37004   2.607   9.783   9.041 -0.5465  0.2201 -0.2063
  281MOL0     C37005   1.430   9.459   8.877 -0.0143 -0.7425  1.1465
  281MOL0     C37006   1.292   9.465   8.889 -0.5035 -0.3475  0.3672
  281MOL0     O37007   1.036   9.631   8.880 -0.4081 -0.3726  0.4022
  281MOL0     C37008   0.787   9.427   8.732  0.8416 -0.5675  0.1426
  281MOL0     C37009   0.649   9.423   8.724  0.5069 -0.3697 -0.0733
  281MOL0     N37010   0.150   9.916   8.467  0.2206  0.5914 -1.2516
  281MOL0     N37011   0.048   9.992   8.452  0.5966 -0.2638  1.5481
  281MOL0     C37012   0.311  10.691   8.536 -0.0078  0.0164 -0.0910
  281MOL0     C37013   0.438  10.712   8.477 -0.0963  0.4846  0.4635
  281MOL0     C37014   0.871  10.760   8.397 -0.3819 -0.1690 -0.5063
  281MOL0     C37015   0.971  10.657   8.377  0.5799  0.3308 -0.2291
  281MOL0     C37016   1.094  10.686   8.312  0.1138  0.4378 -0.0844
  281MOL0     C37017   1.117  10.811   8.264  0.3009 -0.8512 -0.2694
  281MOL0     O37018   1.237  10.846   8.206 -0.1184  0.1390  0.0357
  281MOL0     C37019   1.316  10.951   8.254  0.2437 -0.3848 -0.3038
  281MOL0     C37020   1.459  10.914   8.276  0.4556 -0.2202  1.0720
  281MOL0     C37021   1.546  11.036   8.308  0.4702 -0.0557  0.6184
  281MOL0     C37022   1.696  11.006   8.277 -0.2616  0.3085 -0.6475
  281MOL0     C37023   1.765  10.892   8.332 -0.4304  0.8500  0.4078
  281MOL0     C37024   1.824  10.802   8.383 -0.5094  1.4162 -0.4681
  281MOL0     C37025   1.018  10.910   8.277  0.2343  1.1707 -0.1405
  281MOL0     C37026   0.899  10.881   8.343  0.4591 -0.9769 -0.0456
  281MOL0     H37027   0.534  11.004   8.626 -0.0370  0.0383 -1.7352
  281MOL0     H37028   0.315  10.961   8.746 -0.6148 -1.0481  1.5755
  281MOL0     H37029   0.104  10.598   8.775 -0.9604 -0.4207  1.0373
  281MOL0     H37030   0.060  10.621   8.600  0.5612  0.0335  0.1680
  281MOL0     H37031  -0.123  10.756   8.672 -0.2474  3.5433  1.6176
  281MOL0     H37032  -0.046  10.785   8.831 -0.9696  0.2181  0.0026
  281MOL0     H37033  -0.251  10.623   8.840  0.6133 -0.0345  0.7353
  281MOL0     H37034  -0.104  10.555   8.911 -2.2243 -0.8335  0.3264
  281MOL0     H37035  -0.193  10.515   8.626  2.1218  3.1744  1.5903
  281MOL0     H37036  -0.065  10.424   8.700 -0.0029 -0.2832 -0.9141
  281MOL0     H37037  -0.366  10.424   8.762 -0.7320 -1.0309 -0.8003
  281MOL0     H37038  -0.249  10.334   8.872 -0.1486 -0.2510  1.2304
  281MOL0     H37039  -0.267  10.293   8.572 -2.1507 -0.2038 -0.5169
  281MOL0     H37040  -0.360  10.189   8.693  1.4032 -2.3351  1.1554
  281MOL0     H37041  -0.054  10.196   8.694  0.6845 -2.5695  0.0478
  281MOL0     H37042  -0.158  10.092   8.783 -0.4293 -0.4512  0.0078
  281MOL0     H37043  -0.177  10.101   8.484 -3.1541  2.6148  1.3186
  281MOL0     H37044  -0.241   9.985   8.605 -1.2655  1.8217  0.7625
  281MOL0     H37045   0.007   9.861   8.755 -1.7220  2.8916  0.1835
  281MOL0     H37046   0.255   9.741   8.729 -2.3560 -3.7749  0.2300
  281MOL0     H37047   0.335   9.769   8.563 -3.2179  1.8240 -2.7008
  281MOL0     H37048   0.263   9.574   8.469 -0.5581  1.6536 -0.5326
  281MOL0     H37049   0.099   9.614   8.522 -1.6915 -0.0725  2.4656
  281MOL0     H37050   0.166   9.498   8.758  0.5950 -0.3352  0.5166
  281MOL0     H37051   0.147   9.399   8.620  0.0486  0.7515 -2.0881
  281MOL0     H37052   0.421   9.454   8.586  1.2356 -2.6749  0.4250
  281MOL0     H37053   0.355   9.342   8.711 -1.1866 -0.0069  1.5154
  281MOL0     H37054   0.576   9.718   8.878  1.0920  0.3680  1.7760
  281MOL0     H37055   0.817   9.723   8.909  0.8637 -2.1009  2.5226
  281MOL0     H37056   1.218   9.403   8.564 -2.4753 -1.2319  1.3773
  281MOL0     H37057   1.463   9.409   8.547  1.2574  2.6686 -0.0989
  281MOL0     H37058   1.655   9.523   8.584 -1.2260  0.7503  1.3055
  281MOL0     H37059   1.682   9.346   8.591 -0.1140  1.0072 -1.0163
  281MOL0     H37060   1.894   9.484   8.576  0.2635  2.2330  0.3383
  281MOL0     H37061   1.889   9.355   8.693  1.7996  0.8597 -1.0777
  281MOL0     H37062   1.851   9.551   8.877  0.2070  2.9362  1.6493
  281MOL0     H37063   1.868   9.657   8.733  2.1006  0.8005  0.8997
  281MOL0     H37064   2.076   9.444   8.804  1.9218  0.9891  0.3110
  281MOL0     H37065   2.087   9.563   8.682  1.3724 -0.9026  0.4731
  281MOL0     H37066   2.109   9.612   8.979  1.2639  1.3166  0.8466
  281MOL0     H37067   2.052   9.744   8.879 -0.4779  0.4425  0.7902
  281MOL0     H37068   2.277   9.694   8.750 -2.0307 -0.8994  0.1607
  281MOL0     H37069   2.292   9.558   8.861 -1.0885 -0.7104  0.0910
  281MOL0     H37070   2.331   9.840   8.940  1.6604 -0.2179 -1.4741
  281MOL0     H37071   2.305   9.708   9.060 -0.2037 -1.6732 -0.7199
  281MOL0     H37072   2.512   9.694   8.831 -1.1255  0.4956 -1.0607
  281MOL0     H37073   2.493   9.588   8.964  3.5787 -0.9762 -1.8866
  281MOL0     H37074   1.504   9.476   8.954 -0.1982  0.2566  1.1128
  281MOL0     H37075   1.256   9.486   8.989  1.8942  3.2591  0.6810
  281MOL0     H37076   0.850   9.351   8.687 -0.5001 -1.0024 -1.0910
  281MOL0     H37077   0.601   9.338   8.677 -0.7395 -0.9056  2.0839
  281MOL0     H37078   0.243  10.612   8.505  1.5363 -0.1448 -3.5326
  281MOL0     H37079   0.467  10.643   8.398  0.6978 -1.6166  2.4729
  281MOL0     H37080   0.954  10.556   8.413 -3.0409  0.7798 -0.3487
  281MOL0     H37081   1.173  10.611   8.315 -2.5904 -2.5954  0.5939
  281MOL0     H37082   1.267  10.981   8.347 -0.9179 -2.3475 -0.2332
  281MOL0     H37083   1.310  11.040   8.191  4.1426  0.5035  0.3205
  281MOL0     H37084   1.473  10.832   8.347  1.3786  1.0575  2.4167
  281MOL0     H37085   1.503  10.874   8.184 -1.1132  1.7111 -0.6061
  281MOL0     H37086   1.542  11.038   8.417 -0.8233 -2.0101  0.6555
  281MOL0     H37087   1.526  11.134   8.263  1.1893  0.0581  0.5296
  281MOL0     H37088   1.704  10.980   8.171 -0.4775 -1.0264 -0.3570
  281MOL0     H37089   1.741  11.093   8.327 -0.5835 -0.2097  0.5747
  281MOL0     H37090   1.888  10.732   8.432  0.3837  2.9051  0.5883
  281MOL0     H37091   1.046  11.010   8.245  0.1175  1.2816  0.1077
  281MOL0     H37092   0.833  10.966   8.357 -3.3831 -3.5512 -0.9875
  282MOL0     O37093  10.931   6.118   8.366 -0.4568 -0.3023 -0.9582
  282MOL0     C37094  11.032   6.095   8.308 -0.0985 -0.0218  0.0246
  282MOL0     O37095  11.070   6.157   8.191 -0.3456  0.2648 -0.3989
  282MOL0     C37096  10.995   6.241   8.119  0.1885  0.0375 -0.1701
  282MOL0     C37097  10.857   6.233   8.106 -0.1670  0.0662  0.1535
  282MOL0     C37098  10.790   6.329   8.024 -1.0274  0.1192  0.3485
  282MOL0     C37099  10.858   6.423   7.948 -0.3039  0.0961  0.7851
  282MOL0     O37100  10.790   6.526   7.881 -0.5424  0.6374 -0.1343
  282MOL0     C37101  10.730   6.625   7.961  0.9966 -0.1598 -0.4482
  282MOL0     C37102  10.666   6.736   7.876 -0.4410  0.2867  0.0376
  282MOL0     C37103  10.561   6.673   7.795 -0.2196  0.0034  0.2739
  282MOL0     C37104  10.519   6.772   7.683 -0.5989  0.7356  0.4804
  282MOL0     C37105  10.374   6.749   7.645  0.5963 -0.4830 -0.1592
  282MOL0     C37106  10.345   6.835   7.517  0.2424  0.1837 -0.7484
  282MOL0     C37107  10.212   6.789   7.450 -0.0388 -0.6433  0.5220
  282MOL0     C37108  10.188   6.856   7.316  0.5011 -0.1437 -0.2839
  282MOL0     N37109  10.053   6.856   7.270 -0.0298  1.1922 -0.3456
  282MOL0     C37110   9.999   6.773   7.172  0.3241  0.9658 -0.6372
  282MOL0     C37111   9.876   6.810   7.155 -0.2132  0.2258  0.6548
  282MOL0     C37112   9.782   6.770   7.039 -0.7031 -0.7394  0.7011
  282MOL0     C37113   9.643   6.722   7.069  0.0247  0.4692 -0.4148
  282MOL0     C37114   9.648   6.586   7.141 -0.6584 -0.0510  0.1569
  282MOL0     C37115   9.510   6.545   7.186  0.2450 -0.1619 -0.3018
  282MOL0     O37116   9.503   6.437   7.282  0.2995 -0.3196  0.0108
  282MOL0     C37117   9.380   6.418   7.344 -0.4410  0.3164  0.4360
  282MOL0     C37118   9.385   6.351   7.471  0.5995  0.1902  0.0352
  282MOL0     C37119   9.276   6.318   7.546 -0.1416  0.1747  0.2660
  282MOL0     C37120   9.143   6.347   7.510  0.3632 -0.5382  0.5337
  282MOL0     C37121   9.032   6.308   7.595 -0.0996 -0.5320 -0.6928
  282MOL0     O37122   8.900   6.341   7.558 -0.6420  0.0886 -0.1962
  282MOL0     C37123   8.789   6.315   7.636  0.1653  0.1895 -0.2386
  282MOL0     C37124   8.773   6.254   7.763 -0.6577  0.2028  0.1596
  282MOL0     C37125   8.645   6.267   7.825  0.3473 -0.7847 -0.5268
  282MOL0     C37126   8.534   6.312   7.757 -0.1962 -0.2985 -0.1089
  282MOL0     O37127   8.413   6.298   7.817 -0.0324  0.7046  0.2488
  282MOL0     C37128   8.297   6.340   7.750 -0.1788 -0.5445  0.1449
  282MOL0     C37129   8.185   6.284   7.828 -0.2576 -0.6688  1.1935
  282MOL0     C37130   8.070   6.378   7.848  0.4560 -0.0657  0.1326
  282MOL0     C37131   7.990   6.354   7.969  0.4711 -0.5084 -0.8405
  282MOL0     C37132   7.855   6.429   7.977  0.2323 -0.7224 -0.2062
  282MOL0     C37133   7.744   6.346   7.899 -0.4604 -0.0244  0.2454
  282MOL0     C37134   7.609   6.413   7.912  0.5824  0.2730  0.4048
  282MOL0     C37135   7.506   6.363   7.811 -0.0432 -0.6708  0.3581
  282MOL0    Cl37136   7.510   6.181   7.787 -0.2709 -0.3641 -0.0758
  282MOL0     C37137   8.554   6.359   7.630  0.5673 -0.6740  0.3000
  282MOL0     C37138   8.677   6.352   7.566  0.3810  0.6101 -0.8626
  282MOL0     O37139   9.066   6.280   7.709 -0.4326 -1.1461  0.1176
  282MOL0     C37140   9.137   6.423   7.396  0.1509  0.9323  0.0645
  282MOL0     C37141   9.247   6.446   7.306 -0.1151  0.6621  0.6732
  282MOL0     N37142   9.843   6.901   7.254  0.7976 -0.0084 -0.3608
  282MOL0     N37143   9.950   6.927   7.314  0.0377 -0.8218  0.5045
  282MOL0     C37144  10.998   6.432   7.967 -0.2394  0.1182  0.1407
  282MOL0     C37145  11.063   6.342   8.051 -1.1317 -0.6192  0.0154
  282MOL0     C37146  11.119   5.976   8.354  0.2341 -0.5003  0.6400
  282MOL0     C37147  11.241   5.961   8.286 -0.6750  0.0448 -1.0807
  282MOL0     C37148  11.334   5.866   8.326 -0.1091  0.0644  0.4442
  282MOL0     C37149  11.315   5.777   8.435 -0.0795 -0.4267 -0.6767
  282MOL0     O37150  11.409   5.685   8.474  0.1575  0.5337  0.5859
  282MOL0     C37151  11.492   5.748   8.572  0.1754  0.9637 -0.3276
  282MOL0     C37152  11.639   5.714   8.531  1.0350  0.0024  0.0849
  282MOL0     C37153  11.731   5.790   8.622  0.1671  0.3627 -0.4857
  282MOL0     C37154  11.878   5.778   8.600  0.6321  0.4234 -0.3027
  282MOL0     C37155  11.918   5.781   8.458 -1.1514 -0.5095  0.0970
  282MOL0     C37156  11.955   5.802   8.345  1.2990 -0.2151 -0.3639
  282MOL0     C37157  11.195   5.795   8.504  0.8444  0.5543  0.4228
  282MOL0     C37158  11.096   5.890   8.455 -1.0238 -0.0168 -0.2623
  282MOL0     H37159  10.785   6.165   8.153 -4.3287  3.2112 -1.0542
  282MOL0     H37160  10.686   6.312   8.000 -0.7729  0.9017 -1.5338
  282MOL0     H37161  10.802   6.653   8.038 -0.5767 -0.4095  1.1833
  282MOL0     H37162  10.646   6.583   8.016  0.0570  0.7143 -1.1638
  282MOL0     H37163  10.733   6.791   7.810 -1.0629  0.2262 -0.6459
  282MOL0     H37164  10.612   6.808   7.938  0.6858  2.1962 -1.1149
  282MOL0     H37165  10.478   6.644   7.860 -0.2609  0.3455  0.3768
  282MOL0     H37166  10.593   6.579   7.748  0.5164 -0.1360  1.0370
  282MOL0     H37167  10.543   6.874   7.717  3.2003 -0.0349  0.5018
  282MOL0     H37168  10.590   6.749   7.603  0.5738 -2.6688  2.3202
  282MOL0     H37169  10.311   6.781   7.729  0.1917 -0.3052 -0.5270
  282MOL0     H37170  10.347   6.645   7.625  0.3331 -0.4852  0.1885
  282MOL0     H37171  10.430   6.823   7.448  2.7607 -1.0615  2.3357
  282MOL0     H37172  10.353   6.942   7.539  1.9750  0.4109 -2.1774
  282MOL0     H37173  10.224   6.683   7.426  3.8485  0.1166 -1.7628
  282MOL0     H37174  10.132   6.803   7.523 -1.1946  1.7464 -1.0634
  282MOL0     H37175  10.253   6.819   7.237  3.0842 -2.4592  2.6851
  282MOL0     H37176  10.210   6.961   7.337  1.9513 -0.7722  1.5850
  282MOL0     H37177  10.042   6.690   7.117 -1.8509  0.8674 -2.3263
  282MOL0     H37178   9.837   6.696   6.979 -1.8378 -0.3248 -0.9111
  282MOL0     H37179   9.769   6.867   6.990 -0.6131 -1.9689 -1.9457
  282MOL0     H37180   9.592   6.727   6.973 -1.9621  0.5173  0.5953
  282MOL0     H37181   9.583   6.778   7.141  1.5040  1.2097  0.3016
  282MOL0     H37182   9.686   6.511   7.070 -2.4346 -1.0690  0.2423
  282MOL0     H37183   9.715   6.579   7.227 -1.8181  1.3595  1.2211
  282MOL0     H37184   9.449   6.526   7.097  0.9354 -4.6545 -0.0750
  282MOL0     H37185   9.468   6.628   7.243  1.8274  0.6730 -0.2958
  282MOL0     H37186   9.481   6.310   7.504  1.1296  0.4848 -1.0904
  282MOL0     H37187   9.301   6.252   7.628  2.0047  1.6709  0.9007
  282MOL0     H37188   8.856   6.218   7.822 -0.3949  0.6877  0.0946
  282MOL0     H37189   8.639   6.253   7.933  1.1733  4.4417  0.4795
  282MOL0     H37190   8.298   6.298   7.649 -1.1879  0.1200 -0.1577
  282MOL0     H37191   8.285   6.449   7.743 -1.5588 -0.7977 -3.5418
  282MOL0     H37192   8.220   6.251   7.927 -1.2447  0.9545  2.1184
  282MOL0     H37193   8.142   6.199   7.774 -2.3089  1.3431 -0.4975
  282MOL0     H37194   8.003   6.344   7.768  0.7227  1.1523 -0.6322
  282MOL0     H37195   8.101   6.483   7.841  1.1406 -0.2955 -0.4646
  282MOL0     H37196   7.970   6.249   7.991 -1.2965  0.3574  2.4529
  282MOL0     H37197   8.048   6.397   8.051 -1.4526 -1.3147  1.0569
  282MOL0     H37198   7.873   6.530   7.940  2.5247 -0.3618  1.7049
  282MOL0     H37199   7.823   6.439   8.081 -0.8169  1.2038 -0.6641
  282MOL0     H37200   7.739   6.249   7.950 -0.6375  0.6188  1.4990
  282MOL0     H37201   7.768   6.335   7.793 -2.7227  1.8149 -0.5373
  282MOL0     H37202   7.570   6.417   8.014  2.7368 -2.9078  1.5162
  282MOL0     H37203   7.621   6.520   7.894 -2.9281  0.7383  0.2789
  282MOL0     H37204   7.526   6.401   7.710 -1.3356 -2.4186 -0.6250
  282MOL0     H37205   7.401   6.384   7.835 -0.1384  0.7011 -1.0513
  282MOL0     H37206   8.473   6.400   7.569  1.4682 -0.4356 -0.7752
  282MOL0     H37207   8.688   6.394   7.467 -2.3544  2.6021 -0.4492
  282MOL0     H37208   9.037   6.461   7.374 -0.4805 -0.7981 -0.1729
  282MOL0     H37209   9.228   6.488   7.208 -0.8877  3.6297  1.9866
  282MOL0     H37210  11.064   6.507   7.925 -0.2882  0.5587  0.8250
  282MOL0     H37211  11.172   6.346   8.050 -1.1552  0.2346 -0.9494
  282MOL0     H37212  11.268   6.010   8.193  1.8768  3.7394  1.3664
  282MOL0     H37213  11.412   5.856   8.252 -1.2619 -2.9697 -0.5424
  282MOL0     H37214  11.473   5.698   8.668  0.7398 -0.2717 -0.8352
  282MOL0     H37215  11.474   5.856   8.572 -1.1218  0.7562 -1.0445
  282MOL0     H37216  11.661   5.607   8.532  2.1755  0.2283  1.0878
  282MOL0     H37217  11.658   5.751   8.429  3.4265  0.2679  0.5875
  282MOL0     H37218  11.703   5.755   8.722 -0.2168 -0.9314 -1.0140
  282MOL0     H37219  11.701   5.894   8.612  1.4794  0.7232 -0.8429
  282MOL0     H37220  11.938   5.859   8.643 -0.4960  2.2266 -1.9770
  282MOL0     H37221  11.908   5.688   8.654  0.4541  0.1113 -0.7189
  282MOL0     H37222  11.984   5.823   8.244 -2.2782 -1.0925 -1.7188
  282MOL0     H37223  11.174   5.733   8.591 -0.1846 -1.0118 -0.9019
  282MOL0     H37224  10.998   5.888   8.502  0.3006  1.5333  2.8497
  283MOL0     O37225   5.800   3.587   0.277  0.5841 -0.0647 -0.4943
  283MOL0     C37226   5.917   3.605   0.233  0.3258 -0.2361  0.1954
  283MOL0     O37227   5.951   3.689   0.137 -0.4748  0.1437  0.3131
  283MOL0     C37228   5.850   3.774   0.101 -0.5667  0.1318 -0.0890
  283MOL0     C37229   5.759   3.747  -0.001  0.0468 -0.6563 -0.5300
  283MOL0     C37230   5.662   3.834  -0.034 -0.3485 -0.4563 -0.0359
  283MOL0     C37231   5.664   3.967   0.024  0.4344 -0.4831  0.2333
  283MOL0     O37232   5.580   4.078  -0.000  0.3337  0.5266  0.9102
  283MOL0     C37233   5.486   4.057  -0.104 -0.0517  0.1322 -0.2959
  283MOL0     C37234   5.420   4.189  -0.151 -0.2899  1.1311  1.2226
  283MOL0     C37235   5.315   4.230  -0.049  0.5351 -0.3829  0.6484
  283MOL0     C37236   5.256   4.367  -0.101 -0.0401  0.5380 -0.6262
  283MOL0     C37237   5.144   4.412  -0.009  0.1819  0.1582  0.1530
  283MOL0     C37238   5.009   4.345  -0.026 -0.3905 -0.7467  0.6028
  283MOL0     C37239   4.915   4.372   0.090  0.6192  0.0249  0.7486
  283MOL0     C37240   4.788   4.291   0.075 -0.1199 -0.2974  0.6584
  283MOL0     N37241   4.702   4.305   0.193 -0.1271 -0.3212 -0.6671
  283MOL0     C37242   4.675   4.422   0.254 -0.1973 -0.2762  0.7937
  283MOL0     C37243   4.588   4.402   0.350 -0.4258 -0.2292 -0.6681
  283MOL0     C37244   4.537   4.516   0.432  0.5309 -0.1735  0.2699
  283MOL0     C37245   4.388   4.483   0.477 -0.1179 -0.8091  0.0255
  283MOL0     C37246   4.295   4.436   0.370  0.8428 -0.8984 -0.4322
  283MOL0     C37247   4.146   4.454   0.408  0.1125 -0.1137 -0.2592
  283MOL0     O37248   4.123   4.595   0.433  0.6432  0.5849  0.6510
  283MOL0     C37249   3.993   4.638   0.435 -0.1007 -0.0275  0.0948
  283MOL0     C37250   3.877   4.556   0.435  0.0425 -1.1112 -0.8001
  283MOL0     C37251   3.747   4.614   0.444 -0.3689  0.6254  0.3775
  283MOL0     C37252   3.732   4.755   0.442 -0.2702  0.1701  0.2169
  283MOL0     C37253   3.602   4.828   0.429 -0.6640  0.2688  0.4927
  283MOL0     O37254   3.503   4.748   0.480 -0.3560 -0.7982 -0.3735
  283MOL0     C37255   3.419   4.820   0.551  0.2023  0.7128  0.9603
  283MOL0     C37256   3.291   4.756   0.569  0.2671  0.2172  0.2562
  283MOL0     C37257   3.207   4.801   0.675 -1.7930 -0.8110 -0.0140
  283MOL0     C37258   3.258   4.902   0.763  0.6428 -0.0353  0.0325
  283MOL0     O37259   3.176   4.957   0.867 -0.1464 -0.2432 -0.8306
  283MOL0     C37260   3.037   4.915   0.869 -0.5684 -0.4600  0.3873
  283MOL0     C37261   3.043   4.791   0.957  0.3809 -0.1805  0.0258
  283MOL0     C37262   2.906   4.762   1.027  0.6795  0.0553 -0.2984
  283MOL0     C37263   2.920   4.633   1.110 -0.7953 -0.2740 -0.0942
  283MOL0     C37264   2.779   4.566   1.129  0.0779  0.5034 -0.5281
  283MOL0     C37265   2.719   4.505   1.005 -0.4120  0.1066 -0.4449
  283MOL0     C37266   2.603   4.407   1.038  0.5158 -0.2035  0.6005
  283MOL0     C37267   2.553   4.328   0.924 -0.9767  0.4874 -0.0527
  283MOL0    Cl37268   2.446   4.200   0.996 -0.0937  0.0223  0.4493
  283MOL0     C37269   3.385   4.961   0.746  0.5816  0.2344  0.2997
  283MOL0     C37270   3.463   4.919   0.642 -0.1243  0.5496 -0.4127
  283MOL0     O37271   3.587   4.942   0.385 -0.6303  0.2507 -0.2846
  283MOL0     C37272   3.850   4.832   0.435 -0.2237 -1.6253 -0.2384
  283MOL0     C37273   3.974   4.777   0.436  0.0586 -0.6053 -0.5304
  283MOL0     N37274   4.579   4.258   0.364  0.4579 -0.4351  0.8248
  283MOL0     N37275   4.647   4.209   0.275  0.3976 -0.7253  0.7595
  283MOL0     C37276   5.754   3.995   0.121 -1.2134  0.5299 -0.7236
  283MOL0     C37277   5.853   3.903   0.155  0.4087 -0.5860 -0.1065
  283MOL0     C37278   6.003   3.498   0.276  0.4109 -0.1187  0.5317
  283MOL0     C37279   6.133   3.488   0.224  0.5057  0.3230 -1.2418
  283MOL0     C37280   6.210   3.372   0.252 -0.2327 -0.5687 -0.9040
  283MOL0     C37281   6.173   3.273   0.342  0.3526  0.0157 -0.0635
  283MOL0     O37282   6.257   3.158   0.364  0.3496 -0.7450 -0.6747
  283MOL0     C37283   6.217   3.035   0.430 -0.1783  0.1149  0.1204
  283MOL0     C37284   6.288   2.915   0.368 -0.5420  0.2445 -0.9485
  283MOL0     C37285   6.248   2.898   0.225 -0.0441  0.1712  0.3843
  283MOL0     C37286   6.205   2.750   0.200 -0.6799  0.2182 -0.3634
  283MOL0     C37287   6.305   2.647   0.211  0.4541 -0.1119  0.2141
  283MOL0     C37288   6.399   2.574   0.227 -0.3424  0.1276 -0.1681
  283MOL0     C37289   6.048   3.289   0.400  0.4445  1.1071 -0.4807
  283MOL0     C37290   5.962   3.400   0.364  0.1808 -0.1135 -0.4653
  283MOL0     H37291   5.773   3.652  -0.051  0.6050 -1.9618  1.9105
  283MOL0     H37292   5.593   3.798  -0.110  0.6029 -3.2845  0.3197
  283MOL0     H37293   5.412   3.979  -0.086 -1.1681  0.9636 -1.1532
  283MOL0     H37294   5.529   4.027  -0.199  1.7262 -0.1297  0.5494
  283MOL0     H37295   5.383   4.184  -0.253  2.3286  1.0611  0.1871
  283MOL0     H37296   5.487   4.275  -0.163 -3.4992  3.7999  1.1127
  283MOL0     H37297   5.348   4.231   0.055 -0.4136  2.0454  1.0059
  283MOL0     H37298   5.240   4.151  -0.049  1.3218 -1.2707 -2.1407
  283MOL0     H37299   5.333   4.444  -0.088 -0.4034  0.8261 -0.1614
  283MOL0     H37300   5.218   4.364  -0.203  0.6899 -1.9266 -0.8838
  283MOL0     H37301   5.128   4.513  -0.045 -2.1806 -0.2135  0.0159
  283MOL0     H37302   5.180   4.392   0.093  1.9512 -2.9368 -0.9152
  283MOL0     H37303   5.020   4.236  -0.032  0.6434 -0.6237  0.0247
  283MOL0     H37304   4.955   4.374  -0.116 -0.0996  0.5969  0.8358
  283MOL0     H37305   4.952   4.340   0.188  0.0815  0.6139  1.1515
  283MOL0     H37306   4.901   4.480   0.086  1.3334  0.0772 -1.0679
  283MOL0     H37307   4.814   4.188   0.049 -0.1627  0.6480 -3.9191
  283MOL0     H37308   4.736   4.321  -0.017  0.5475 -1.7263 -0.2052
  283MOL0     H37309   4.708   4.516   0.211 -2.4194  0.6892  1.0858
  283MOL0     H37310   4.537   4.609   0.373 -1.6103 -0.5176 -0.3766
  283MOL0     H37311   4.597   4.535   0.521  0.6909 -3.7379  1.0369
  283MOL0     H37312   4.353   4.572   0.529  1.2030 -1.8211  2.8494
  283MOL0     H37313   4.392   4.400   0.548 -0.7552  0.3138  1.4161
  283MOL0     H37314   4.325   4.485   0.277  3.7707  0.0157  0.8927
  283MOL0     H37315   4.318   4.329   0.367  0.3890 -1.0705  1.2006
  283MOL0     H37316   4.117   4.400   0.499 -0.6592 -0.1283 -0.5061
  283MOL0     H37317   4.093   4.419   0.319  1.9845  1.2708 -1.9891
  283MOL0     H37318   3.870   4.448   0.446 -1.4683 -0.7967  5.1899
  283MOL0     H37319   3.661   4.553   0.468 -1.5416  1.6712 -0.9749
  283MOL0     H37320   3.265   4.676   0.501  1.5624  1.2182 -1.5063
  283MOL0     H37321   3.115   4.743   0.678 -2.4630  0.1428 -1.3340
  283MOL0     H37322   2.994   4.898   0.770  0.2699  0.4561 -0.1606
  283MOL0     H37323   2.976   4.998   0.906 -3.3106 -1.1407 -2.1564
  283MOL0     H37324   3.130   4.790   1.023  2.3047  0.7315 -2.3616
  283MOL0     H37325   3.058   4.703   0.894 -1.2276 -1.6131  1.5346
  283MOL0     H37326   2.832   4.744   0.948  0.6102 -1.3824  0.0642
  283MOL0     H37327   2.882   4.844   1.095 -0.3777  0.7651 -1.4706
  283MOL0     H37328   2.988   4.569   1.052 -1.5109  0.9959 -2.4950
  283MOL0     H37329   2.979   4.652   1.200  1.2318 -4.1152 -0.3722
  283MOL0     H37330   2.708   4.636   1.175  1.0207 -0.1340  2.0816
  283MOL0     H37331   2.792   4.491   1.208 -0.3925 -1.0859 -1.9167
  283MOL0     H37332   2.802   4.452   0.957  1.4045  0.9504  1.6039
  283MOL0     H37333   2.682   4.583   0.939  0.6202 -0.4715 -1.7580
  283MOL0     H37334   2.649   4.350   1.120 -0.6121  0.1939  1.5316
  283MOL0     H37335   2.524   4.467   1.084 -0.7887 -1.5139  0.1423
  283MOL0     H37336   2.626   4.278   0.860  0.0061 -1.8916  2.7003
  283MOL0     H37337   2.507   4.401   0.857  1.1514  3.1326  1.2116
  283MOL0     H37338   3.414   5.027   0.827 -0.0406  1.5696 -0.5252
  283MOL0     H37339   3.569   4.940   0.633  0.4263 -2.0932 -1.0896
  283MOL0     H37340   3.854   4.939   0.419  1.8625 -1.6233 -0.0066
  283MOL0     H37341   4.060   4.843   0.437 -0.5479  0.2434 -1.5856
  283MOL0     H37342   5.769   4.092   0.167  2.6265  0.1450 -0.9006
  283MOL0     H37343   5.930   3.925   0.228 -1.1106 -1.2794  1.7967
  283MOL0     H37344   6.190   3.567   0.176 -0.5885  1.0705 -1.3428
  283MOL0     H37345   6.302   3.351   0.199 -1.1819 -0.1099 -2.8070
  283MOL0     H37346   6.109   3.022   0.416  0.0638  0.1374 -2.1302
  283MOL0     H37347   6.239   3.040   0.537 -3.5271 -1.0194  1.0197
  283MOL0     H37348   6.397   2.912   0.375 -0.3889 -3.0996 -2.7176
  283MOL0     H37349   6.268   2.817   0.412 -1.9609 -0.3669 -2.8258
  283MOL0     H37350   6.332   2.921   0.159  0.8342 -0.4996  1.2341
  283MOL0     H37351   6.161   2.955   0.191 -1.8186 -3.3148 -1.4698
  283MOL0     H37352   6.122   2.722   0.266  1.1233 -1.7169  1.2252
  283MOL0     H37353   6.150   2.752   0.105  1.5526  1.3129 -1.7032
  283MOL0     H37354   6.481   2.505   0.241  1.2411  1.5492 -1.9445
  283MOL0     H37355   6.017   3.218   0.476 -1.8005  2.1242 -0.3707
  283MOL0     H37356   5.866   3.413   0.414 -1.4072 -1.3708 -2.9354
  284MOL0     O37357   0.836   9.864   9.298  0.4773 -0.2541  0.4184
  284MOL0     C37358   0.895   9.913   9.204  0.2445  0.1686 -0.0593
  284MOL0     O37359   0.842   9.981   9.101  0.2261 -0.3402  0.5201
  284MOL0     C37360   0.710  10.016   9.126 -0.3547 -0.3162 -0.6266
  284MOL0     C37361   0.685  10.148   9.163  0.6003 -0.1591 -0.3528
  284MOL0     C37362   0.551  10.189   9.174 -0.0532 -0.4621  0.4356
  284MOL0     C37363   0.443  10.101   9.135  0.2963 -0.1859  1.2330
  284MOL0     O37364   0.318  10.155   9.146 -0.6072 -0.1161 -0.3496
  284MOL0     C37365   0.204  10.067   9.167 -0.3700  0.2662 -0.5546
  284MOL0     C37366   0.084  10.149   9.143  0.0239  0.1318 -0.1445
  284MOL0     C37367  -0.042  10.070   9.132  0.5164 -0.0287 -0.7306
  284MOL0     C37368  -0.161  10.151   9.111  0.5201 -0.3390  0.1672
  284MOL0     C37369  -0.289  10.088   9.041  0.0214  0.1401  0.4959
  284MOL0     C37370  -0.372   9.997   9.134 -0.1443 -0.3176 -0.5581
  284MOL0     C37371  -0.517   9.946   9.098 -0.3724 -0.4152 -0.2656
  284MOL0     C37372  -0.526   9.851   8.980 -0.3086 -0.0498  0.0202
  284MOL0     N37373  -0.557   9.927   8.854 -0.2273 -0.1347  0.0511
  284MOL0     C37374  -0.640  10.037   8.839 -0.1623  0.4058 -0.6114
  284MOL0     C37375  -0.621  10.083   8.715  0.1515  0.2042 -0.2424
  284MOL0     C37376  -0.692  10.213   8.667  0.2584  0.5693  0.7224
  284MOL0     C37377  -0.814  10.190   8.579 -0.5565 -0.5347  0.8541
  284MOL0     C37378  -0.883  10.325   8.556  0.7626 -0.8821  0.3580
  284MOL0     C37379  -1.001  10.309   8.469 -0.1800 -0.1066 -0.0186
  284MOL0     O37380  -1.084  10.428   8.469 -0.5958 -0.1810  1.2997
  284MOL0     C37381  -1.212  10.404   8.495 -0.8745 -0.1168  0.4633
  284MOL0     C37382  -1.282  10.333   8.398  0.1130  0.1842  0.7219
  284MOL0     C37383  -1.418  10.310   8.409 -0.8578  0.1465  0.1267
  284MOL0     C37384  -1.486  10.358   8.516 -0.3133 -1.1119  0.8980
  284MOL0     C37385  -1.634  10.366   8.505 -0.5498 -0.2869  0.7075
  284MOL0     O37386  -1.684  10.313   8.400  0.4372  0.4133 -0.3769
  284MOL0     C37387  -1.817  10.284   8.400 -0.1911 -0.2366  1.1430
  284MOL0     C37388  -1.876  10.186   8.471  1.0813 -0.2715 -0.6061
  284MOL0     C37389  -2.018  10.158   8.465 -1.1628 -0.7237  0.1831
  284MOL0     C37390  -2.093  10.233   8.374  0.3321  0.7371 -0.3808
  284MOL0     O37391  -2.229  10.210   8.365  0.2849  0.1738  0.0466
  284MOL0     C37392  -2.257  10.091   8.293  0.0472 -0.1154 -1.1543
  284MOL0     C37393  -2.283   9.984   8.399 -0.8466  0.2671  0.8128
  284MOL0     C37394  -2.424   9.930   8.372 -0.1900  0.0942  0.4703
  284MOL0     C37395  -2.450   9.826   8.480 -0.6274  0.3863 -0.1651
  284MOL0     C37396  -2.604   9.817   8.520  1.1121  0.4322 -0.6433
  284MOL0     C37397  -2.635   9.696   8.609 -0.0271  0.7131 -0.3823
  284MOL0     C37398  -2.787   9.700   8.638  0.5610  0.7240 -0.3296
  284MOL0     C37399  -2.835   9.587   8.734  0.8428  0.6563 -0.8113
  284MOL0    Cl37400  -2.813   9.432   8.642 -0.0692  0.0032  0.0305
  284MOL0     C37401  -2.032  10.330   8.292 -1.8941  0.2767 -0.8642
  284MOL0     C37402  -1.894  10.353   8.304 -0.1141  0.0022 -0.0960
  284MOL0     O37403  -1.694  10.398   8.607 -0.1036 -0.1644 -0.6962
  284MOL0     C37404  -1.419  10.433   8.617  0.4903  1.4106  0.5951
  284MOL0     C37405  -1.279  10.454   8.599  0.6777 -0.3162  0.1219
  284MOL0     N37406  -0.533   9.998   8.647  0.2458 -0.5258 -0.3845
  284MOL0     N37407  -0.496   9.901   8.732 -0.1637 -0.4889  1.1487
  284MOL0     C37408   0.469   9.964   9.100 -0.5935  0.3196 -0.7013
  284MOL0     C37409   0.603   9.933   9.090 -0.5016  0.8310 -0.4103
  284MOL0     C37410   1.044   9.912   9.204 -0.2392  0.6949  1.0474
  284MOL0     C37411   1.109   9.914   9.324 -0.4928  0.5001  0.6055
  284MOL0     C37412   1.243   9.868   9.340 -0.4002  0.7542 -0.1614
  284MOL0     C37413   1.319   9.843   9.225 -0.1884  0.1749 -0.2152
  284MOL0     O37414   1.449   9.801   9.255 -0.6927  0.1388  0.1439
  284MOL0     C37415   1.537   9.753   9.157  0.3267  0.0588 -0.4385
  284MOL0     C37416   1.672   9.799   9.204  0.9266  0.5112  0.2876
  284MOL0     C37417   1.775   9.804   9.092 -0.1442 -0.3279 -0.6277
  284MOL0     C37418   1.903   9.881   9.126  0.1493 -0.2776 -0.6709
  284MOL0     C37419   1.985   9.818   9.227 -0.7429  0.4848 -1.0950
  284MOL0     C37420   2.052   9.763   9.312 -0.6969 -0.3902  0.2274
  284MOL0     C37421   1.259   9.854   9.099  0.4264  0.4859 -0.6423
  284MOL0     C37422   1.127   9.889   9.086  0.8505  0.2907 -0.1286
  284MOL0     H37423   0.766  10.215   9.189 -2.2967  3.6072 -0.1978
  284MOL0     H37424   0.540  10.295   9.196  1.4549 -0.2169  0.1258
  284MOL0     H37425   0.211  10.025   9.268  0.8932  0.5282 -0.5157
  284MOL0     H37426   0.211   9.991   9.088  1.6664 -2.0787  1.6690
  284MOL0     H37427   0.089  10.212   9.054 -0.0264 -0.0150 -0.2514
  284MOL0     H37428   0.065  10.216   9.228  0.1973  0.5009 -0.3926
  284MOL0     H37429  -0.050  10.000   9.216 -2.0499 -0.4459 -1.2488
  284MOL0     H37430  -0.028  10.005   9.045  0.8769 -0.1569 -0.5795
  284MOL0     H37431  -0.201  10.184   9.208 -1.1694  1.5185 -1.0521
  284MOL0     H37432  -0.145  10.242   9.052 -2.4180 -0.2074 -0.6165
  284MOL0     H37433  -0.256  10.022   8.960 -0.8048  0.6350 -0.2708
  284MOL0     H37434  -0.362  10.166   9.017  0.7871  0.2522 -1.6733
  284MOL0     H37435  -0.390  10.057   9.224 -4.0608  0.7704 -1.8638
  284MOL0     H37436  -0.300   9.922   9.169  0.0875  0.6700  1.2153
  284MOL0     H37437  -0.572   9.896   9.178 -0.3460  2.6106  1.8019
  284MOL0     H37438  -0.577  10.037   9.090  0.5956  0.6079  2.7477
  284MOL0     H37439  -0.609   9.783   9.002  1.3524 -2.9515 -2.0548
  284MOL0     H37440  -0.434   9.795   8.964  0.6124  2.2026 -3.7553
  284MOL0     H37441  -0.701  10.087   8.914 -1.1858  1.3515 -2.0230
  284MOL0     H37442  -0.613  10.263   8.610 -1.5146 -0.5325 -3.0067
  284MOL0     H37443  -0.711  10.282   8.750  0.6794 -1.4987  2.6476
  284MOL0     H37444  -0.890  10.125   8.623 -0.3374  0.2832  2.4874
  284MOL0     H37445  -0.782  10.146   8.484  0.6249  1.5933  0.1928
  284MOL0     H37446  -0.902  10.379   8.648 -0.1448 -1.8266  0.7481
  284MOL0     H37447  -0.811  10.390   8.504  1.0101 -0.1223  1.6237
  284MOL0     H37448  -1.054  10.217   8.492  0.9572 -0.6551  0.4865
  284MOL0     H37449  -0.957  10.291   8.370  1.6377  1.5753  0.4096
  284MOL0     H37450  -1.225  10.312   8.309  1.8624 -1.6108  2.1816
  284MOL0     H37451  -1.476  10.266   8.329 -0.4310  0.9683 -0.6620
  284MOL0     H37452  -1.814  10.129   8.539  1.6319 -0.5734 -1.3467
  284MOL0     H37453  -2.049  10.068   8.518 -6.6567  1.0424  0.5816
  284MOL0     H37454  -2.178  10.070   8.220  0.2222 -0.4334 -0.8778
  284MOL0     H37455  -2.349  10.107   8.235  1.1112  1.0892 -2.6022
  284MOL0     H37456  -2.293  10.037   8.494 -1.4298  1.6367  0.0314
  284MOL0     H37457  -2.195   9.919   8.399  0.0167  1.3919  1.1938
  284MOL0     H37458  -2.440   9.897   8.269 -0.2485 -0.9920  0.8212
  284MOL0     H37459  -2.498  10.009   8.387 -0.8288  0.0377 -1.9453
  284MOL0     H37460  -2.414   9.730   8.444 -1.6347  0.2282 -0.8099
  284MOL0     H37461  -2.395   9.854   8.570 -2.1584 -1.3783  1.3973
  284MOL0     H37462  -2.663   9.819   8.428 -2.0611  2.8290  1.2089
  284MOL0     H37463  -2.628   9.908   8.575  2.9528  0.5014  0.1268
  284MOL0     H37464  -2.594   9.711   8.709 -0.1685 -1.5618  0.0688
  284MOL0     H37465  -2.600   9.600   8.570 -0.5297  0.7338 -0.8956
  284MOL0     H37466  -2.814   9.798   8.678 -0.9123  0.1698  0.1133
  284MOL0     H37467  -2.838   9.696   8.541  0.9591  0.5331 -0.5335
  284MOL0     H37468  -2.935   9.605   8.776  1.4272 -1.2831  1.6372
  284MOL0     H37469  -2.771   9.593   8.822  2.2712 -1.2082 -1.6458
  284MOL0     H37470  -2.083  10.383   8.212 -1.1810  1.9934 -0.2191
  284MOL0     H37471  -1.850  10.431   8.242  0.7250  0.9937  1.6914
  284MOL0     H37472  -1.477  10.476   8.698 -0.4249 -1.0097  1.2954
  284MOL0     H37473  -1.214  10.506   8.669  2.8568 -2.6832  0.0020
  284MOL0     H37474   0.384   9.898   9.083 -0.5942  0.2316 -0.3779
  284MOL0     H37475   0.629   9.835   9.050  2.7100  1.7487 -0.8529
  284MOL0     H37476   1.049   9.944   9.409  0.9259  3.1903  0.7399
  284MOL0     H37477   1.282   9.854   9.441 -0.7956 -0.7853 -0.1901
  284MOL0     H37478   1.504   9.787   9.059 -1.1248  0.0440  0.0159
  284MOL0     H37479   1.535   9.646   9.136 -1.5651  0.0762 -0.4617
  284MOL0     H37480   1.660   9.903   9.234 -1.3419  0.7377 -1.1811
  284MOL0     H37481   1.708   9.736   9.286 -0.4364 -4.7836 -2.7365
  284MOL0     H37482   1.731   9.863   9.011  1.6790  1.4134 -0.4130
  284MOL0     H37483   1.810   9.705   9.061  2.9185  0.2176  0.7339
  284MOL0     H37484   1.959   9.892   9.032  0.7651  0.7990 -0.1927
  284MOL0     H37485   1.890   9.984   9.161  3.7662 -0.3651  1.4100
  284MOL0     H37486   2.123   9.722   9.380  1.5038  0.5511 -1.3684
  284MOL0     H37487   1.312   9.830   9.008  0.0159 -0.9496 -0.5267
  284MOL0     H37488   1.069   9.892   8.994 -1.8467  0.7831  1.4712
  285MOL0     O37489   2.253   4.566   2.015 -0.0720  1.0773 -0.2612
  285MOL0     C37490   2.289   4.454   1.971 -0.3374 -0.1253  0.5944
  285MOL0     O37491   2.217   4.340   1.977 -0.7845  0.4316 -0.5715
  285MOL0     C37492   2.101   4.360   2.041  0.8260 -0.3930 -0.0711
  285MOL0     C37493   2.099   4.333   2.176  0.9617  0.9999  1.0061
  285MOL0     C37494   1.978   4.334   2.235 -0.6094  0.5834 -0.5035
  285MOL0     C37495   1.859   4.381   2.177 -0.3891  0.6227  0.7949
  285MOL0     O37496   1.746   4.388   2.252 -0.2242  0.0693  0.2539
  285MOL0     C37497   1.622   4.353   2.188  0.5465  0.6897  0.1286
  285MOL0     C37498   1.520   4.357   2.304  0.0315 -0.0417  1.1781
  285MOL0     C37499   1.378   4.315   2.263 -0.3875 -0.4782  0.0691
  285MOL0     C37500   1.277   4.299   2.378 -0.2176  0.1679 -0.2913
  285MOL0     C37501   1.139   4.276   2.329 -0.0802  0.7755  0.2858
  285MOL0     C37502   1.059   4.220   2.451 -0.4730 -1.0043  0.9430
  285MOL0     C37503   0.905   4.235   2.417 -0.1722  0.4588  0.6278
  285MOL0     C37504   0.825   4.163   2.519  0.7336 -0.7297 -0.1923
  285MOL0     N37505   0.683   4.154   2.475  0.0429  0.6697 -0.0580
  285MOL0     C37506   0.580   4.148   2.562 -0.5539  0.7634  0.2266
  285MOL0     C37507   0.471   4.144   2.474  0.1555 -0.3778  0.2791
  285MOL0     C37508   0.323   4.142   2.517 -0.1711  0.2293 -0.1608
  285MOL0     C37509   0.285   4.004   2.598 -0.2197  0.2576  0.7798
  285MOL0     C37510   0.135   4.005   2.657 -0.6367 -0.0155 -0.2546
  285MOL0     C37511   0.023   4.031   2.557 -0.4481 -0.3417 -0.1840
  285MOL0     O37512  -0.001   4.167   2.526 -0.0448 -0.1049 -0.2901
  285MOL0     C37513  -0.127   4.229   2.537 -1.0899  0.2189  0.9102
  285MOL0     C37514  -0.248   4.180   2.586  0.0670  0.2296 -0.7380
  285MOL0     C37515  -0.347   4.270   2.619 -0.0514 -0.7396  0.1877
  285MOL0     C37516  -0.333   4.408   2.587 -0.5001 -0.1286 -0.3156
  285MOL0     C37517  -0.444   4.498   2.615  0.1254 -0.4758  0.0460
  285MOL0     O37518  -0.424   4.635   2.622 -0.3800  0.0756 -0.2335
  285MOL0     C37519  -0.523   4.722   2.669  0.5022 -0.2886  0.3532
  285MOL0     C37520  -0.538   4.845   2.603 -0.7108  0.1655  0.1658
  285MOL0     C37521  -0.645   4.926   2.630 -0.4715 -0.2514 -0.2232
  285MOL0     C37522  -0.736   4.899   2.733  0.4656  0.3478  0.6450
  285MOL0     O37523  -0.825   4.996   2.779  0.0930  0.3240  0.4702
  285MOL0     C37524  -0.961   4.954   2.793  0.5814  0.0283 -0.5909
  285MOL0     C37525  -1.041   5.085   2.791 -0.2480 -0.1325 -0.1541
  285MOL0     C37526  -0.995   5.163   2.908  0.8608  0.3489 -0.3524
  285MOL0     C37527  -1.085   5.293   2.940 -1.1187 -0.5279  0.4438
  285MOL0     C37528  -1.024   5.359   3.063 -0.0839 -0.9230 -0.3042
  285MOL0     C37529  -1.104   5.475   3.102 -0.2921  0.1132  0.5691
  285MOL0     C37530  -1.043   5.514   3.241  0.1224 -0.0751 -0.8673
  285MOL0     C37531  -1.106   5.645   3.286  0.8216 -0.1302  0.0854
  285MOL0    Cl37532  -1.269   5.607   3.340 -0.1373  0.1902 -0.3096
  285MOL0     C37533  -0.717   4.772   2.804 -0.9963 -0.3847  0.0014
  285MOL0     C37534  -0.608   4.683   2.779 -0.4123 -0.6619 -0.1045
  285MOL0     O37535  -0.553   4.445   2.624 -0.3419  0.3431  0.7327
  285MOL0     C37536  -0.212   4.453   2.525 -0.3501  1.3691 -0.7780
  285MOL0     C37537  -0.120   4.360   2.498 -0.5945 -0.6599 -0.0133
  285MOL0     N37538   0.504   4.159   2.343 -0.4243 -0.3415 -0.0408
  285MOL0     N37539   0.631   4.164   2.347  0.9013 -0.1733 -0.0228
  285MOL0     C37540   1.859   4.411   2.039  0.2674 -0.7037 -0.4811
  285MOL0     C37541   1.982   4.400   1.973 -0.3805  0.0080 -0.0148
  285MOL0     C37542   2.417   4.458   1.906  0.3636  0.8063  0.0800
  285MOL0     C37543   2.447   4.560   1.821  0.5777 -0.2699  0.8508
  285MOL0     C37544   2.577   4.569   1.758  0.5276 -0.4505 -0.2704
  285MOL0     C37545   2.679   4.474   1.777  0.0036 -0.4683 -0.1675
  285MOL0     O37546   2.805   4.492   1.722  0.1168  0.0114  0.0293
  285MOL0     C37547   2.873   4.373   1.681 -0.7285  0.5943 -0.4869
  285MOL0     C37548   3.025   4.394   1.645 -0.4576 -0.4950  0.6039
  285MOL0     C37549   3.055   4.455   1.512 -0.6588 -0.5061 -0.2522
  285MOL0     C37550   3.200   4.501   1.492 -0.1157 -0.4420  0.0274
  285MOL0     C37551   3.223   4.525   1.348 -0.5034  0.9651 -0.4127
  285MOL0     C37552   3.244   4.560   1.232 -0.7216 -0.2063 -0.3432
  285MOL0     C37553   2.648   4.369   1.870 -0.0829  0.4604 -0.1550
  285MOL0     C37554   2.520   4.363   1.929  0.6882 -0.3730  0.0190
  285MOL0     H37555   2.188   4.303   2.230  1.6832  0.6874 -0.3043
  285MOL0     H37556   1.968   4.305   2.339  1.5426 -1.7056 -0.8568
  285MOL0     H37557   1.619   4.249   2.154 -0.9157  0.2218  1.5861
  285MOL0     H37558   1.594   4.433   2.119  2.4130 -0.1620 -1.7567
  285MOL0     H37559   1.520   4.448   2.366  0.0491 -1.7060  3.8060
  285MOL0     H37560   1.554   4.282   2.376  3.1566  2.3683  2.4988
  285MOL0     H37561   1.387   4.218   2.213 -1.6860 -1.2425  1.2135
  285MOL0     H37562   1.353   4.381   2.180 -0.2719 -2.2079 -1.4097
  285MOL0     H37563   1.297   4.211   2.440  1.6726  0.4452 -0.4549
  285MOL0     H37564   1.284   4.383   2.448  2.3446  0.6198 -0.9887
  285MOL0     H37565   1.135   4.220   2.235 -1.8618  1.5387 -0.1260
  285MOL0     H37566   1.107   4.379   2.312 -1.1973  0.2027 -1.3527
  285MOL0     H37567   1.076   4.271   2.546  0.3730 -0.8417  0.7108
  285MOL0     H37568   1.094   4.117   2.469 -0.2837 -0.9350  0.9761
  285MOL0     H37569   0.862   4.334   2.404  0.4934  0.6463 -0.1741
  285MOL0     H37570   0.880   4.189   2.321  1.0715  1.3673 -0.1500
  285MOL0     H37571   0.837   4.220   2.612 -2.5863 -1.2413  0.6701
  285MOL0     H37572   0.858   4.061   2.537  0.7508 -0.3686  2.1296
  285MOL0     H37573   0.579   4.144   2.670  1.4011  1.7956  0.3218
  285MOL0     H37574   0.262   4.148   2.426 -2.4173 -1.3435  1.1370
  285MOL0     H37575   0.302   4.231   2.576 -0.2393  0.0156  0.1423
  285MOL0     H37576   0.349   3.999   2.687  1.2973 -1.1964 -0.3268
  285MOL0     H37577   0.308   3.921   2.531  0.0745 -0.0100  1.2042
  285MOL0     H37578   0.106   3.908   2.701  2.3940 -0.1783  1.6510
  285MOL0     H37579   0.127   4.077   2.739  0.2105 -1.7619  1.4477
  285MOL0     H37580  -0.058   3.973   2.602  0.3547 -1.1524  0.2689
  285MOL0     H37581   0.046   3.982   2.462  2.6789  0.1944  0.1870
  285MOL0     H37582  -0.262   4.073   2.604  0.4473  0.3063  0.0833
  285MOL0     H37583  -0.434   4.239   2.675  1.5994  1.0806  4.1635
  285MOL0     H37584  -0.465   4.860   2.525  0.1832  0.0400  0.9609
  285MOL0     H37585  -0.649   5.018   2.573  3.8747 -0.1211 -0.6588
  285MOL0     H37586  -0.982   4.900   2.886 -2.7358 -0.4647 -1.5200
  285MOL0     H37587  -1.010   4.896   2.714 -1.9190  1.3400 -0.0949
  285MOL0     H37588  -1.145   5.050   2.794  0.3955 -2.5555 -2.2448
  285MOL0     H37589  -1.030   5.145   2.700  7.4559 -2.3679 -1.4179
  285MOL0     H37590  -0.893   5.201   2.900  1.1276  0.6860  3.3381
  285MOL0     H37591  -1.000   5.106   3.001 -0.3712 -0.0030 -0.6174
  285MOL0     H37592  -1.074   5.365   2.859  1.1391  2.3326  3.0280
  285MOL0     H37593  -1.191   5.269   2.947 -1.4746 -0.3020 -2.8216
  285MOL0     H37594  -0.923   5.391   3.039 -0.2234  0.1765  0.4951
  285MOL0     H37595  -1.027   5.285   3.144  4.8433 -0.0326  1.0102
  285MOL0     H37596  -1.201   5.429   3.121  0.4656 -2.0937 -0.4990
  285MOL0     H37597  -1.108   5.551   3.024 -1.0848 -0.5187 -0.0310
  285MOL0     H37598  -1.052   5.431   3.312 -0.3875  0.2746 -0.5169
  285MOL0     H37599  -0.935   5.527   3.232  0.3302 -1.4695 -0.7166
  285MOL0     H37600  -1.107   5.723   3.209  1.4007  1.7011  1.8590
  285MOL0     H37601  -1.052   5.695   3.367  1.5312 -0.0842 -0.4039
  285MOL0     H37602  -0.788   4.753   2.883  0.0970 -1.5588  0.7443
  285MOL0     H37603  -0.597   4.590   2.835  2.6166 -1.0828 -1.2431
  285MOL0     H37604  -0.192   4.556   2.500 -0.1426  1.2465 -1.1277
  285MOL0     H37605  -0.034   4.403   2.448 -1.2372  1.8211  0.8825
  285MOL0     H37606   1.775   4.458   1.990 -1.7567  1.5259  4.4284
  285MOL0     H37607   1.987   4.418   1.866  1.1664 -0.0771  0.0331
  285MOL0     H37608   2.367   4.631   1.798 -0.6465 -2.0959 -0.8906
  285MOL0     H37609   2.601   4.644   1.684 -0.8835  0.1570 -0.1378
  285MOL0     H37610   2.822   4.331   1.593 -0.4324 -1.0442  0.0961
  285MOL0     H37611   2.872   4.299   1.761 -0.6393  1.4364  0.3094
  285MOL0     H37612   3.076   4.444   1.729  2.4010  0.6659 -1.6183
  285MOL0     H37613   3.072   4.296   1.634  1.1668  0.3415 -0.4177
  285MOL0     H37614   2.986   4.535   1.485  0.7247 -0.2392 -3.3214
  285MOL0     H37615   3.030   4.380   1.437 -2.0288  1.4011 -1.7854
  285MOL0     H37616   3.219   4.591   1.551  1.5397  0.4755 -1.8279
  285MOL0     H37617   3.271   4.420   1.513  2.5310  2.0044  1.1490
  285MOL0     H37618   3.252   4.588   1.129 -1.5279 -0.4672 -0.4874
  285MOL0     H37619   2.718   4.289   1.896  0.2487 -0.0039 -2.2682
  285MOL0     H37620   2.504   4.294   2.011 -1.7168  0.3847  0.2730
  286MOL0     O37621   3.791   6.342   0.756 -0.7200  0.5073 -0.2181
  286MOL0     C37622   3.765   6.305   0.870  0.4364 -0.3826  0.9993
  286MOL0     O37623   3.843   6.324   0.981  0.6169 -0.2012  0.7841
  286MOL0     C37624   3.981   6.324   0.969  0.0107 -0.0273 -0.5825
  286MOL0     C37625   4.056   6.213   0.993 -0.2084  0.4600  0.4167
  286MOL0     C37626   4.198   6.219   0.978 -0.0667  0.0514  0.1260
  286MOL0     C37627   4.265   6.339   0.948 -0.4953  0.9495 -0.2925
  286MOL0     O37628   4.404   6.332   0.939 -0.5105  0.8447  0.0027
  286MOL0     C37629   4.474   6.451   0.903 -0.8020  0.2141 -0.0020
  286MOL0     C37630   4.628   6.441   0.906 -0.3475  0.1238 -0.5107
  286MOL0     C37631   4.672   6.321   0.820 -1.2018  0.3056 -0.2524
  286MOL0     C37632   4.833   6.293   0.832 -0.6353 -0.8147 -0.4207
  286MOL0     C37633   4.911   6.386   0.744 -0.0498  0.1204  0.6328
  286MOL0     C37634   5.062   6.364   0.744  0.2113  0.3461 -0.1423
  286MOL0     C37635   5.101   6.246   0.652 -0.5012 -1.5931  0.3415
  286MOL0     C37636   5.254   6.244   0.622  0.8148 -0.2434 -0.3913
  286MOL0     N37637   5.348   6.238   0.730  0.2971  0.4327  0.7052
  286MOL0     C37638   5.381   6.121   0.780 -0.1204 -0.1063  0.2747
  286MOL0     C37639   5.458   6.149   0.884 -0.6398 -0.0627  0.2968
  286MOL0     C37640   5.520   6.045   0.961 -0.4461  0.5531 -0.4974
  286MOL0     C37641   5.660   6.091   0.993 -0.7367  0.0827 -0.7881
  286MOL0     C37642   5.730   5.985   1.085  0.0208 -0.4415 -0.2366
  286MOL0     C37643   5.803   5.875   1.006  0.1334 -0.2126 -0.3074
  286MOL0     O37644   5.844   5.769   1.095  0.3680  0.1726  0.1906
  286MOL0     C37645   5.760   5.659   1.138  0.3990  0.4942 -0.5470
  286MOL0     C37646   5.626   5.654   1.109  0.2984 -0.0557 -0.2650
  286MOL0     C37647   5.550   5.556   1.166 -0.4059  0.4883 -0.6329
  286MOL0     C37648   5.619   5.447   1.239  0.8425  0.7955 -0.3795
  286MOL0     C37649   5.529   5.334   1.298  0.5474 -0.3650  0.8103
  286MOL0     O37650   5.597   5.225   1.343  0.1430  0.1041  0.6688
  286MOL0     C37651   5.520   5.115   1.355  0.5630 -0.0777 -0.1930
  286MOL0     C37652   5.510   5.066   1.487 -0.3222  0.8370  0.1839
  286MOL0     C37653   5.420   4.959   1.511  0.5961 -0.0943 -0.8393
  286MOL0     C37654   5.352   4.894   1.403  0.6332 -0.5626  0.9460
  286MOL0     O37655   5.289   4.779   1.438  0.4627 -0.0835  1.4762
  286MOL0     C37656   5.167   4.743   1.359  0.2904  0.0660  0.2329
  286MOL0     C37657   5.046   4.701   1.450  0.1129  0.3486 -0.0449
  286MOL0     C37658   4.924   4.683   1.356  1.3773  0.3335 -0.0090
  286MOL0     C37659   4.796   4.687   1.443  0.1975 -0.1175 -1.5907
  286MOL0     C37660   4.693   4.606   1.356  0.6575  0.2740  0.1998
  286MOL0     C37661   4.562   4.592   1.440 -0.0864 -0.3071  0.7709
  286MOL0     C37662   4.454   4.515   1.360  0.3462 -0.9879 -0.2120
  286MOL0     C37663   4.310   4.519   1.420  0.8059 -0.1371  0.3025
  286MOL0    Cl37664   4.311   4.461   1.588  0.2376  0.2676 -0.6862
  286MOL0     C37665   5.374   4.948   1.276  0.3764 -0.3862  0.3290
  286MOL0     C37666   5.461   5.055   1.245 -0.3573 -0.0991  0.5987
  286MOL0     O37667   5.415   5.369   1.330 -0.4034 -0.9499  1.1815
  286MOL0     C37668   5.755   5.448   1.251  0.5079 -0.0477 -0.5839
  286MOL0     C37669   5.832   5.559   1.203  0.3707  0.5627  0.7386
  286MOL0     N37670   5.467   6.287   0.893 -0.3618  0.3841  0.2485
  286MOL0     N37671   5.397   6.341   0.807  0.3003 -0.1892  0.4169
  286MOL0     C37672   4.184   6.458   0.935  0.0945  0.0681 -0.6033
  286MOL0     C37673   4.043   6.447   0.943  0.6478  0.3970  0.5801
  286MOL0     C37674   3.620   6.265   0.895 -0.4224  0.0553 -0.6994
  286MOL0     C37675   3.590   6.254   1.031  0.6775  0.5430  0.2226
  286MOL0     C37676   3.468   6.201   1.075  0.1039 -0.2531 -0.0894
  286MOL0     C37677   3.365   6.174   0.973  0.4320  0.0835  0.1435
  286MOL0     O37678   3.241   6.132   1.014  0.2557 -0.1141  0.6690
  286MOL0     C37679   3.213   6.071   1.140 -0.5777  0.2079 -0.2319
  286MOL0     C37680   3.061   6.043   1.156 -0.8691 -0.3431 -0.2856
  286MOL0     C37681   2.989   6.177   1.129  0.1376 -0.3075 -0.1656
  286MOL0     C37682   2.831   6.172   1.117 -0.9616 -0.1093  0.0979
  286MOL0     C37683   2.771   6.144   1.250 -0.6525  0.0181 -0.4405
  286MOL0     C37684   2.739   6.107   1.358 -0.3647  0.5476  0.1028
  286MOL0     C37685   3.397   6.197   0.840  0.5410  0.1873 -0.2116
  286MOL0     C37686   3.522   6.236   0.792  0.8398  0.5118 -0.1898
  286MOL0     H37687   4.007   6.125   1.033 -1.5516  0.7477 -0.5534
  286MOL0     H37688   4.254   6.129   1.001 -0.9694 -1.0348 -1.6721
  286MOL0     H37689   4.438   6.525   0.974 -0.2796 -0.0792  0.5888
  286MOL0     H37690   4.448   6.483   0.802 -2.3616  1.1767  0.6879
  286MOL0     H37691   4.657   6.434   1.011 -0.4372  3.1888 -0.1780
  286MOL0     H37692   4.674   6.530   0.862  0.8660 -0.6616 -0.8594
  286MOL0     H37693   4.657   6.339   0.713  0.6860 -0.0415 -0.6007
  286MOL0     H37694   4.609   6.236   0.848 -0.7740  0.4481  1.2143
  286MOL0     H37695   4.863   6.307   0.936 -1.9617 -1.8402  0.1317
  286MOL0     H37696   4.863   6.191   0.806 -0.5163 -1.2662  1.3383
  286MOL0     H37697   4.898   6.485   0.789 -1.0243  0.2897  0.0181
  286MOL0     H37698   4.873   6.378   0.641  2.6217 -1.4496 -0.3494
  286MOL0     H37699   5.104   6.350   0.843  0.3084  0.6798 -0.1344
  286MOL0     H37700   5.106   6.453   0.698  3.3600 -0.6910  0.6601
  286MOL0     H37701   5.060   6.157   0.701  1.3396 -1.6079  1.9382
  286MOL0     H37702   5.054   6.269   0.556  0.0901  1.8197  0.7478
  286MOL0     H37703   5.277   6.340   0.575 -1.9598  2.5825  3.4201
  286MOL0     H37704   5.262   6.161   0.550 -3.1978  1.4327 -3.1627
  286MOL0     H37705   5.351   6.024   0.740  0.2337 -1.0589  2.1990
  286MOL0     H37706   5.520   5.953   0.901 -1.8080 -1.7002  2.6341
  286MOL0     H37707   5.459   6.032   1.051  1.0198 -0.1144  0.4374
  286MOL0     H37708   5.648   6.171   1.066 -0.9515 -1.2297  0.6536
  286MOL0     H37709   5.721   6.113   0.904  2.0086  0.1676  1.0071
  286MOL0     H37710   5.815   6.035   1.132 -1.2574  0.7098  0.9744
  286MOL0     H37711   5.664   5.938   1.159  0.3602  0.1413  0.4603
  286MOL0     H37712   5.896   5.920   0.971  0.9091 -1.1668  0.4716
  286MOL0     H37713   5.738   5.836   0.927 -0.1186  0.2131 -0.3138
  286MOL0     H37714   5.569   5.733   1.060 -2.7966 -1.0940  1.3916
  286MOL0     H37715   5.443   5.567   1.155 -0.2553  1.7485 -0.9710
  286MOL0     H37716   5.554   5.116   1.573  2.3585 -0.1516 -0.5002
  286MOL0     H37717   5.386   4.940   1.613 -2.1901  0.9123 -1.4817
  286MOL0     H37718   5.189   4.658   1.293  0.9803  1.1565 -0.9696
  286MOL0     H37719   5.134   4.820   1.289 -0.1067 -0.9355 -0.7244
  286MOL0     H37720   5.033   4.777   1.528  0.3358 -0.0512  0.3929
  286MOL0     H37721   5.071   4.608   1.502 -0.5973 -0.3702 -0.9607
  286MOL0     H37722   4.928   4.596   1.290  2.3828  1.8496 -2.0754
  286MOL0     H37723   4.914   4.770   1.289 -0.9868  3.1968  3.6656
  286MOL0     H37724   4.811   4.636   1.539  0.8789 -0.2777 -1.7780
  286MOL0     H37725   4.752   4.785   1.466  0.1150 -0.7001  1.0425
  286MOL0     H37726   4.717   4.503   1.327 -1.3493  0.2971 -1.8469
  286MOL0     H37727   4.673   4.665   1.266  0.4249 -1.6081 -1.0378
  286MOL0     H37728   4.525   4.688   1.478  3.0090  1.1997  0.2485
  286MOL0     H37729   4.588   4.528   1.525  6.1035  3.5642  2.4261
  286MOL0     H37730   4.441   4.546   1.256 -0.5473 -0.4071  0.0573
  286MOL0     H37731   4.490   4.412   1.360 -1.9579 -1.8663  1.1578
  286MOL0     H37732   4.232   4.465   1.366  1.4553 -0.6704 -0.1266
  286MOL0     H37733   4.273   4.622   1.419 -3.4527 -1.4630 -1.0289
  286MOL0     H37734   5.327   4.898   1.192 -0.4206  1.9150 -0.6837
  286MOL0     H37735   5.468   5.095   1.145 -1.7363  0.9695  0.9114
  286MOL0     H37736   5.808   5.364   1.296 -1.0374 -0.1826  1.1139
  286MOL0     H37737   5.939   5.560   1.220  0.4917  0.3477  0.0097
  286MOL0     H37738   4.205   6.564   0.922 -1.6238  0.1329 -4.4725
  286MOL0     H37739   3.978   6.532   0.927  0.6763  0.5740  1.3336
  286MOL0     H37740   3.658   6.274   1.113  2.0935  3.7136 -1.5285
  286MOL0     H37741   3.436   6.168   1.173 -1.2187 -0.5501 -0.6025
  286MOL0     H37742   3.251   6.133   1.222  1.6735 -2.0150  0.5110
  286MOL0     H37743   3.277   5.983   1.137  1.6453  1.5269  2.9438
  286MOL0     H37744   3.023   5.967   1.087 -3.9178  0.3204  0.5294
  286MOL0     H37745   3.039   6.004   1.256  0.5063 -2.5805 -0.7766
  286MOL0     H37746   3.023   6.220   1.035  1.1018  0.7130  0.6234
  286MOL0     H37747   3.011   6.254   1.204 -4.6494  0.3665  0.9277
  286MOL0     H37748   2.796   6.268   1.078 -0.1631 -0.6684 -2.1097
  286MOL0     H37749   2.794   6.101   1.043 -0.4329 -0.6472  0.3389
  286MOL0     H37750   2.706   6.065   1.451 -0.5475  0.8613  0.1833
  286MOL0     H37751   3.315   6.183   0.770 -1.4039 -0.4443  2.0840
  286MOL0     H37752   3.533   6.245   0.685 -0.2129 -3.5427 -0.7866
  287MOL0     O37753   4.181  11.263   0.021  0.5916 -0.0291  0.4710
  287MOL0     C37754   4.114  11.192  -0.057  0.6429  0.0959  0.2198
  287MOL0     O37755   4.138  11.075  -0.119 -0.8592  0.0955  0.0245
  287MOL0     C37756   4.275  11.037  -0.125  0.1528  0.4540  0.6381
  287MOL0     C37757   4.329  11.047  -0.258  0.6896  0.1236  0.8703
  287MOL0     C37758   4.467  11.027  -0.282  0.9071  0.4275 -0.4001
  287MOL0     C37759   4.548  10.989  -0.176 -0.6182 -0.8186  0.9303
  287MOL0     O37760   4.681  10.983  -0.199 -0.1540 -0.0646  0.2112
  287MOL0     C37761   4.755  10.876  -0.135 -0.4014  0.4709  0.5598
  287MOL0     C37762   4.860  10.825  -0.229 -0.7913  0.2617  0.0444
  287MOL0     C37763   4.974  10.762  -0.142 -1.2336  0.1938  0.2231
  287MOL0     C37764   5.093  10.725  -0.223 -0.2233  0.6257  0.3473
  287MOL0     C37765   5.210  10.687  -0.138  0.7294 -1.0209 -0.1513
  287MOL0     C37766   5.323  10.613  -0.213 -0.6873  0.2353 -1.0494
  287MOL0     C37767   5.398  10.691  -0.305 -0.9053 -1.1649  0.4403
  287MOL0     C37768   5.471  10.606  -0.409 -0.0762 -0.0962  1.0550
  287MOL0     N37769   5.579  10.524  -0.350 -0.1331 -0.3320  0.0516
  287MOL0     C37770   5.712  10.550  -0.350 -0.3768  0.1958  0.4179
  287MOL0     C37771   5.768  10.447  -0.277  0.1796 -0.0411  0.6392
  287MOL0     C37772   5.919  10.430  -0.245 -0.4837 -1.0035 -0.1512
  287MOL0     C37773   5.950  10.421  -0.094  0.1389  1.0656  0.1305
  287MOL0     C37774   6.104  10.404  -0.071 -1.1489  0.0571  0.3139
  287MOL0     C37775   6.139  10.382   0.070  0.2521 -0.2552 -0.4818
  287MOL0     O37776   6.092  10.498   0.142  0.8719  0.6011 -0.6347
  287MOL0     C37777   6.159  10.518   0.263 -0.0014 -0.0052  0.0902
  287MOL0     C37778   6.198  10.646   0.291  0.1907  0.3620  0.0006
  287MOL0     C37779   6.262  10.659   0.417  0.1200  0.4114  0.3858
  287MOL0     C37780   6.256  10.559   0.519  0.9346  0.4543  0.0797
  287MOL0     C37781   6.311  10.575   0.655 -0.0865  0.4639  0.7295
  287MOL0     O37782   6.245  10.504   0.747  0.4118  0.7731 -0.6104
  287MOL0     C37783   6.317  10.488   0.864  0.6950 -0.7136 -0.2102
  287MOL0     C37784   6.421  10.397   0.856  0.0151  0.1431  0.0280
  287MOL0     C37785   6.499  10.369   0.974  0.7950 -0.3569  0.0939
  287MOL0     C37786   6.468  10.439   1.092 -0.8985 -0.4632  0.3467
  287MOL0     O37787   6.551  10.411   1.199  0.0737  0.1187 -0.1014
  287MOL0     C37788   6.504  10.437   1.333  0.3068 -0.4028  0.2141
  287MOL0     C37789   6.559  10.568   1.386 -0.5484 -0.2622 -0.5924
  287MOL0     C37790   6.490  10.603   1.516  0.3303 -0.5952 -0.0691
  287MOL0     C37791   6.538  10.732   1.568  0.5184  0.1105  0.1582
  287MOL0     C37792   6.449  10.801   1.674 -0.4842  0.4714 -0.4457
  287MOL0     C37793   6.483  10.751   1.818 -0.5505 -0.0890 -0.4508
  287MOL0     C37794   6.420  10.851   1.917  0.4330  0.2349 -0.0527
  287MOL0     C37795   6.402  10.791   2.064  0.1021  0.3132 -0.0417
  287MOL0    Cl37796   6.575  10.760   2.139 -0.3913 -0.0641  0.1359
  287MOL0     C37797   6.369  10.540   1.096  0.1221  0.6134 -0.3638
  287MOL0     C37798   6.289  10.550   0.986 -0.4755  0.3500  0.0991
  287MOL0     O37799   6.408  10.650   0.678 -0.3164  0.0396 -0.8259
  287MOL0     C37800   6.193  10.439   0.490 -0.4154  0.1095  0.5411
  287MOL0     C37801   6.148  10.413   0.356  0.1317 -0.9757 -0.4338
  287MOL0     N37802   5.665  10.368  -0.238 -0.2912  0.8594 -0.6198
  287MOL0     N37803   5.554  10.411  -0.288 -0.7315 -0.0508 -0.1962
  287MOL0     C37804   4.504  10.989  -0.044 -0.6023 -0.1817  0.4128
  287MOL0     C37805   4.360  11.013  -0.017 -0.1860 -0.0845 -1.2126
  287MOL0     C37806   3.988  11.260  -0.087  0.1528 -0.2133 -0.0777
  287MOL0     C37807   3.895  11.217  -0.182 -0.3848 -0.2685 -0.2513
  287MOL0     C37808   3.780  11.289  -0.226 -0.7947 -0.1922  0.0331
  287MOL0     C37809   3.753  11.418  -0.170 -0.2001  0.0569  0.6577
  287MOL0     O37810   3.660  11.498  -0.236 -0.4066  0.1470 -0.0147
  287MOL0     C37811   3.618  11.607  -0.159 -0.0791 -0.2295 -0.1407
  287MOL0     C37812   3.480  11.660  -0.211  0.6166 -0.6429  0.8973
  287MOL0     C37813   3.506  11.716  -0.346 -0.2973  1.0019  0.6229
  287MOL0     C37814   3.392  11.825  -0.394  0.1522 -0.6552 -0.1373
  287MOL0     C37815   3.407  11.954  -0.318 -0.6601 -0.7267 -0.3181
  287MOL0     C37816   3.423  12.057  -0.252 -0.6901 -0.0202  0.1511
  287MOL0     C37817   3.839  11.460  -0.071 -0.5525 -0.1679 -0.4060
  287MOL0     C37818   3.943  11.377  -0.023 -0.8452 -0.3056 -0.1547
  287MOL0     H37819   4.268  11.070  -0.345  3.7721  4.0645 -0.5375
  287MOL0     H37820   4.511  11.038  -0.381  1.0386  3.9927 -0.0798
  287MOL0     H37821   4.700  10.791  -0.094  0.6329  0.1848  1.3760
  287MOL0     H37822   4.807  10.919  -0.049  0.6203 -0.8455  0.6237
  287MOL0     H37823   4.903  10.900  -0.295 -0.9271  1.4421  1.2661
  287MOL0     H37824   4.821  10.749  -0.298  1.5297  1.0189 -2.2875
  287MOL0     H37825   4.919  10.680  -0.093 -0.7313 -1.1426 -1.3549
  287MOL0     H37826   5.006  10.840  -0.072  0.8286  1.3547 -1.9101
  287MOL0     H37827   5.067  10.630  -0.270 -1.6362  0.4225  1.4382
  287MOL0     H37828   5.115  10.799  -0.301 -0.2744  0.3848  0.1012
  287MOL0     H37829   5.165  10.623  -0.061 -2.4908 -1.4424 -2.1862
  287MOL0     H37830   5.239  10.779  -0.087 -1.9348  1.7226 -3.1566
  287MOL0     H37831   5.282  10.531  -0.273 -1.6534 -0.1163  0.0575
  287MOL0     H37832   5.389  10.572  -0.136 -2.4610 -1.7722 -0.5003
  287MOL0     H37833   5.335  10.768  -0.352 -2.0599 -1.1105  1.9827
  287MOL0     H37834   5.465  10.757  -0.250 -2.7635  1.4894 -0.2614
  287MOL0     H37835   5.515  10.657  -0.496 -2.7687 -1.3275 -1.1934
  287MOL0     H37836   5.395  10.548  -0.462  0.5794  0.1765 -0.2390
  287MOL0     H37837   5.761  10.637  -0.391  0.2200  1.4321  3.4613
  287MOL0     H37838   5.980  10.513  -0.282 -0.0070 -1.0361  0.5435
  287MOL0     H37839   5.962  10.347  -0.302  0.5044 -0.9827  0.5307
  287MOL0     H37840   5.906  10.323  -0.072  0.5177 -0.2886 -4.1169
  287MOL0     H37841   5.901  10.503  -0.042 -1.6192 -0.0941  0.4043
  287MOL0     H37842   6.127  10.310  -0.121 -0.2225 -1.3225  3.1076
  287MOL0     H37843   6.154  10.491  -0.115  1.8309 -0.8216  1.6731
  287MOL0     H37844   6.247  10.383   0.084  0.5706  2.2946 -2.3789
  287MOL0     H37845   6.098  10.286   0.102 -3.2830  0.7870 -1.4291
  287MOL0     H37846   6.213  10.732   0.227  4.3105  2.0817  2.7948
  287MOL0     H37847   6.328  10.744   0.433  0.9992 -0.3941  1.1224
  287MOL0     H37848   6.445  10.345   0.764 -2.3509  2.2152 -1.9162
  287MOL0     H37849   6.579  10.297   0.989  1.5678  0.8973  2.7017
  287MOL0     H37850   6.531  10.356   1.402  3.1854  0.6701  0.4585
  287MOL0     H37851   6.395  10.443   1.328  0.3458 -0.6634 -1.9184
  287MOL0     H37852   6.538  10.647   1.314  1.5658  1.2610  0.3515
  287MOL0     H37853   6.667  10.565   1.402 -1.0189 -1.9861  3.5958
  287MOL0     H37854   6.512  10.529   1.594 -4.5180 -2.1795  0.1163
  287MOL0     H37855   6.381  10.610   1.505  0.4075  3.0975  0.2108
  287MOL0     H37856   6.639  10.720   1.608  0.6398  0.9145  0.1120
  287MOL0     H37857   6.546  10.798   1.481  1.3913 -0.4466 -0.2028
  287MOL0     H37858   6.344  10.775   1.657  0.2349 -2.9363 -0.5313
  287MOL0     H37859   6.482  10.905   1.673 -0.9347  0.6105 -1.1741
  287MOL0     H37860   6.591  10.744   1.834 -0.4919 -1.6192 -1.2484
  287MOL0     H37861   6.442  10.650   1.832  1.6638 -1.1843 -1.4300
  287MOL0     H37862   6.480  10.941   1.932  0.0180  0.5607 -0.2953
  287MOL0     H37863   6.316  10.871   1.888 -0.5407 -1.5083  1.9165
  287MOL0     H37864   6.342  10.700   2.058  1.0021 -0.2037 -2.1460
  287MOL0     H37865   6.355  10.867   2.128  2.8063  2.5156 -0.4669
  287MOL0     H37866   6.344  10.605   1.179 -1.6607 -0.3055 -0.1259
  287MOL0     H37867   6.207  10.621   0.973 -0.2624  1.1737  2.8084
  287MOL0     H37868   6.197  10.358   0.562  4.8252  0.7613  1.4226
  287MOL0     H37869   6.092  10.324   0.328 -1.1120  0.2342 -1.9556
  287MOL0     H37870   4.588  10.969   0.022 -0.0533  0.7085  0.0045
  287MOL0     H37871   4.314  10.993   0.079 -0.0794 -2.5107 -1.6100
  287MOL0     H37872   3.914  11.125  -0.238  0.0667 -0.1146 -0.3576
  287MOL0     H37873   3.717  11.255  -0.308 -0.8740 -2.4074  0.9436
  287MOL0     H37874   3.701  11.677  -0.175  1.9773 -3.0404 -2.7994
  287MOL0     H37875   3.610  11.588  -0.052 -0.4226  1.4191  0.1508
  287MOL0     H37876   3.407  11.579  -0.216  2.2368 -2.0836 -1.1406
  287MOL0     H37877   3.432  11.735  -0.147  3.2691  0.6750  1.4925
  287MOL0     H37878   3.502  11.631  -0.415 -3.9919 -0.2991  2.1577
  287MOL0     H37879   3.608  11.755  -0.351 -0.8833  2.4926 -3.5870
  287MOL0     H37880   3.409  11.848  -0.499  1.9683 -3.1855 -0.4887
  287MOL0     H37881   3.289  11.794  -0.375 -0.5412  0.3878 -1.9136
  287MOL0     H37882   3.444  12.143  -0.193 -0.0822  0.9949 -1.4809
  287MOL0     H37883   3.807  11.552  -0.024 -0.6032 -0.4369  0.0948
  287MOL0     H37884   4.005  11.422   0.054 -1.9614  0.6243  0.2334
  288MOL0     O37885   9.244   2.123   2.619  0.0882  1.2681  1.0502
  288MOL0     C37886   9.193   2.097   2.512 -0.1948  0.4390 -0.0105
  288MOL0     O37887   9.252   2.037   2.401 -0.4515  0.6280 -0.6769
  288MOL0     C37888   9.381   2.000   2.441  0.3197 -0.7275 -0.9270
  288MOL0     C37889   9.419   1.872   2.479 -0.1310  0.3136  1.1289
  288MOL0     C37890   9.556   1.851   2.508 -0.5543 -0.1231  0.0007
  288MOL0     C37891   9.653   1.956   2.507 -0.2833 -0.2426 -0.3148
  288MOL0     O37892   9.786   1.938   2.532 -0.2193  0.3441 -0.0602
  288MOL0     C37893   9.839   1.808   2.550 -0.5175 -0.0347  0.0155
  288MOL0     C37894   9.969   1.815   2.620 -0.7327  0.5648  0.4815
  288MOL0     C37895  10.078   1.896   2.554  0.6407  0.0457  0.2099
  288MOL0     C37896  10.191   1.901   2.648  0.9867  0.5512 -0.7659
  288MOL0     C37897  10.317   1.946   2.570  0.0791  0.1653  0.1038
  288MOL0     C37898  10.442   1.932   2.658  0.5675  0.3182  0.2430
  288MOL0     C37899  10.581   1.964   2.588  0.1705 -0.5914 -0.5341
  288MOL0     C37900  10.640   1.851   2.507  0.6705 -0.3837 -0.3414
  288MOL0     N37901  10.789   1.867   2.488 -0.4778 -0.0522  0.5231
  288MOL0     C37902  10.889   1.845   2.576 -0.1366  0.2258  0.0802
  288MOL0     C37903  11.009   1.851   2.515 -0.7911  0.2258  0.1920
  288MOL0     C37904  11.153   1.826   2.569 -0.2495 -0.3224  0.3042
  288MOL0     C37905  11.174   1.675   2.593  0.4838 -0.7068 -0.1758
  288MOL0     C37906  11.309   1.643   2.654  0.0326  0.0127  0.3294
  288MOL0     C37907  11.323   1.490   2.666 -0.2939  0.7296 -0.5317
  288MOL0     O37908  11.248   1.440   2.773  0.2239 -0.3680 -0.1135
  288MOL0     C37909  11.199   1.311   2.766 -0.2606 -0.5770  0.9427
  288MOL0     C37910  11.293   1.206   2.725 -0.0731  0.3766  0.7500
  288MOL0     C37911  11.245   1.070   2.723  1.1756 -0.6894  0.7850
  288MOL0     C37912  11.114   1.038   2.757  0.4207 -0.0340 -0.4697
  288MOL0     C37913  11.066   0.899   2.737  0.7575  0.1022 -0.1010
  288MOL0     O37914  11.126   0.821   2.637 -0.2795  0.0951 -0.5269
  288MOL0     C37915  11.060   0.702   2.613  0.6259  0.4353  0.1912
  288MOL0     C37916  11.005   0.676   2.481 -0.4357 -0.5307 -0.0177
  288MOL0     C37917  10.961   0.551   2.454 -0.0629  0.2620  0.7742
  288MOL0     C37918  10.966   0.445   2.544 -0.1331  0.4124  0.1229
  288MOL0     O37919  10.924   0.321   2.499 -0.2405 -0.0411 -0.2581
  288MOL0     C37920  10.807   0.315   2.416  0.1831  0.6304 -0.3367
  288MOL0     C37921  10.754   0.172   2.453 -0.3532 -0.3917 -0.2564
  288MOL0     C37922  10.634   0.139   2.382  0.2581 -0.1566 -0.7683
  288MOL0     C37923  10.514   0.205   2.441 -0.0940 -0.0410 -0.1514
  288MOL0     C37924  10.381   0.154   2.373 -0.1951 -0.4559  0.0257
  288MOL0     C37925  10.256   0.191   2.449  0.5143 -0.4825 -0.4215
  288MOL0     C37926  10.129   0.141   2.373  0.2065  0.6212  0.0025
  288MOL0     C37927  10.000   0.178   2.445 -0.0090 -1.2145  1.3619
  288MOL0    Cl37928   9.969   0.360   2.434  0.1179  0.6217  0.4182
  288MOL0     C37929  11.026   0.463   2.669 -0.1286  0.8423 -0.0052
  288MOL0     C37930  11.068   0.590   2.700 -0.4726 -0.3579  0.3581
  288MOL0     O37931  10.983   0.856   2.816 -0.5747 -0.2703  1.1734
  288MOL0     C37932  11.032   1.145   2.793 -0.1311  0.4059  0.8624
  288MOL0     C37933  11.069   1.282   2.790 -0.5864  0.3509 -0.0265
  288MOL0     N37934  10.980   1.902   2.385  0.7044  0.3909  0.6548
  288MOL0     N37935  10.850   1.891   2.367  0.4262  0.6409  0.2586
  288MOL0     C37936   9.609   2.088   2.482  0.1434  0.3193  0.5827
  288MOL0     C37937   9.472   2.104   2.440 -0.3971 -0.1592  0.2271
  288MOL0     C37938   9.048   2.148   2.480 -0.2815 -1.0334 -0.3849
  288MOL0     C37939   8.957   2.194   2.581 -0.4380 -0.0251 -0.3194
  288MOL0     C37940   8.829   2.232   2.561 -0.3263 -0.1505  0.7022
  288MOL0     C37941   8.781   2.220   2.437  0.5087 -0.5945  0.7004
  288MOL0     O37942   8.656   2.256   2.413 -0.4956  0.5112 -0.5394
  288MOL0     C37943   8.586   2.214   2.300  0.6240 -0.2026  0.7641
  288MOL0     C37944   8.445   2.248   2.279  0.5541 -0.7350  0.4913
  288MOL0     C37945   8.424   2.404   2.280 -0.3152  0.2574  0.0341
  288MOL0     C37946   8.378   2.441   2.417  0.2721  0.1644  0.4141
  288MOL0     C37947   8.409   2.578   2.461  1.0200 -0.1527 -0.5228
  288MOL0     C37948   8.439   2.687   2.492 -0.0633 -0.6971 -0.2228
  288MOL0     C37949   8.857   2.164   2.333  1.2401 -0.1371  0.3268
  288MOL0     C37950   8.996   2.142   2.349 -0.4792  0.1858  0.6293
  288MOL0     H37951   9.337   1.801   2.470 -0.3031  0.5596  0.6961
  288MOL0     H37952   9.585   1.748   2.528  0.8336  0.9407  4.7712
  288MOL0     H37953   9.851   1.764   2.451  1.0490 -2.6842  1.2724
  288MOL0     H37954   9.778   1.746   2.616  1.2332  0.3208  2.1085
  288MOL0     H37955  10.004   1.712   2.633 -2.5419  0.2199  3.9278
  288MOL0     H37956   9.954   1.849   2.723  0.5928  1.8937  0.2716
  288MOL0     H37957  10.050   1.999   2.531 -0.1127  0.5450  2.9898
  288MOL0     H37958  10.124   1.843   2.471  4.8762  1.3836  1.4344
  288MOL0     H37959  10.171   1.965   2.734  0.0129  2.1028 -2.0998
  288MOL0     H37960  10.206   1.797   2.680 -0.0814  0.3723 -0.7966
  288MOL0     H37961  10.303   2.050   2.539 -1.3801 -0.0163  0.1036
  288MOL0     H37962  10.324   1.885   2.480  0.6272 -1.1538  1.0142
  288MOL0     H37963  10.450   1.831   2.697  1.7529  0.3947  0.2325
  288MOL0     H37964  10.435   2.000   2.743  0.9540  1.1128 -0.3424
  288MOL0     H37965  10.577   2.054   2.527  4.8967  0.7049  0.6433
  288MOL0     H37966  10.653   1.995   2.664  1.0495 -3.2161 -0.1974
  288MOL0     H37967  10.579   1.845   2.417 -0.8879 -0.7904  0.6939
  288MOL0     H37968  10.631   1.755   2.560 -1.3539 -0.0572  0.0050
  288MOL0     H37969  10.869   1.805   2.675  0.9693 -2.7055 -0.7617
  288MOL0     H37970  11.160   1.883   2.662 -2.8121  0.3282  0.1908
  288MOL0     H37971  11.225   1.852   2.491  0.7337 -0.3252  1.1995
  288MOL0     H37972  11.162   1.626   2.495  1.3695 -0.7865 -0.2551
  288MOL0     H37973  11.097   1.638   2.661  0.7953 -1.0190  0.0091
  288MOL0     H37974  11.380   1.686   2.583 -1.1537  3.3014  0.9919
  288MOL0     H37975  11.309   1.692   2.752 -3.5616 -1.6730  1.3531
  288MOL0     H37976  11.429   1.465   2.677 -1.4575 -4.8522  1.1583
  288MOL0     H37977  11.305   1.440   2.570  3.7048 -0.4602 -0.8526
  288MOL0     H37978  11.397   1.206   2.695  0.0244 -3.9788  0.4526
  288MOL0     H37979  11.312   0.985   2.710  0.6666 -1.0436  0.4420
  288MOL0     H37980  10.996   0.751   2.404  3.6568  0.2853  0.0624
  288MOL0     H37981  10.917   0.550   2.355  0.1654 -0.0977  0.6730
  288MOL0     H37982  10.828   0.318   2.309  2.2682 -3.3119 -0.2097
  288MOL0     H37983  10.730   0.382   2.454 -0.8095 -2.1666  3.1011
  288MOL0     H37984  10.754   0.170   2.562 -0.0297 -1.0214 -0.2623
  288MOL0     H37985  10.828   0.094   2.431  1.2558  0.6549  1.1748
  288MOL0     H37986  10.614   0.032   2.390  0.1755 -0.1548 -0.9476
  288MOL0     H37987  10.639   0.162   2.275  0.6350 -0.3236 -0.7908
  288MOL0     H37988  10.503   0.193   2.550  0.0193  0.4588 -0.0814
  288MOL0     H37989  10.532   0.310   2.414 -1.7816  0.7591  1.5440
  288MOL0     H37990  10.397   0.046   2.370  4.6682  0.0568 -0.9718
  288MOL0     H37991  10.365   0.195   2.273 -0.1605 -2.3576 -0.7895
  288MOL0     H37992  10.252   0.299   2.465  0.5823 -0.6789  1.1467
  288MOL0     H37993  10.256   0.155   2.553 -0.4307  0.3462 -0.1211
  288MOL0     H37994  10.129   0.195   2.278 -1.5884 -0.0842 -0.4446
  288MOL0     H37995  10.131   0.034   2.353  0.9593 -0.0809  3.1778
  288MOL0     H37996  10.018   0.143   2.547  1.1953 -1.2286  1.1646
  288MOL0     H37997   9.913   0.135   2.396  1.4963 -0.5864 -2.1350
  288MOL0     H37998  11.025   0.379   2.739 -0.8117  1.5998  0.9230
  288MOL0     H37999  11.128   0.615   2.787  0.3373  1.0297 -0.5493
  288MOL0     H38000  10.933   1.119   2.828  1.0667 -2.9569  2.1481
  288MOL0     H38001  11.003   1.366   2.810  1.2410  2.2644 -1.6457
  288MOL0     H38002   9.677   2.173   2.482  1.5906 -0.7842 -0.3174
  288MOL0     H38003   9.439   2.202   2.405  0.3956 -0.2418 -0.7932
  288MOL0     H38004   8.992   2.204   2.683  2.1240  0.3967 -1.1713
  288MOL0     H38005   8.780   2.278   2.645 -0.9283 -1.2572  0.9875
  288MOL0     H38006   8.602   2.107   2.285  4.9079  0.5358 -1.8321
  288MOL0     H38007   8.624   2.258   2.207 -3.9751  0.1219 -1.2146
  288MOL0     H38008   8.419   2.217   2.177  0.1787  0.9154  0.0567
  288MOL0     H38009   8.375   2.196   2.344 -0.3593 -3.3906 -2.3460
  288MOL0     H38010   8.359   2.442   2.200  3.6529  3.1670 -2.2005
  288MOL0     H38011   8.522   2.449   2.260  1.6295 -4.0163 -1.1704
  288MOL0     H38012   8.269   2.439   2.428  0.4089  0.2273  2.0970
  288MOL0     H38013   8.411   2.367   2.490 -1.3971  0.6576  1.7649
  288MOL0     H38014   8.472   2.786   2.518 -2.9110  0.4916 -0.7142
  288MOL0     H38015   8.816   2.149   2.233  1.4354  0.0307  0.2217
  288MOL0     H38016   9.043   2.098   2.262 -2.5687 -0.3360 -0.2939
  289MOL0     O38017   7.226   7.865  10.039 -0.9764 -0.4218  0.1332
  289MOL0     C38018   7.204   7.906  10.152 -0.1910  0.2498 -0.0629
  289MOL0     O38019   7.291   7.880  10.261 -0.4282 -0.3119 -0.7053
  289MOL0     C38020   7.393   7.787  10.252  0.1746  0.1177 -0.3128
  289MOL0     C38021   7.388   7.666  10.322 -0.5615  0.2211 -1.2420
  289MOL0     C38022   7.491   7.575  10.307 -1.0269  0.5172  0.6457
  289MOL0     C38023   7.601   7.610  10.217  0.2622 -0.6548 -0.2203
  289MOL0     O38024   7.705   7.532  10.210 -0.5362  0.0484 -0.3898
  289MOL0     C38025   7.670   7.390  10.200  0.3438 -0.2889 -0.0127
  289MOL0     C38026   7.791   7.308  10.142  0.3560  0.0339 -0.0561
  289MOL0     C38027   7.766   7.163  10.174  0.2661 -0.2869 -0.8188
  289MOL0     C38028   7.878   7.080  10.099  0.3349  0.2942 -0.3598
  289MOL0     C38029   7.869   6.930  10.139  1.5134  0.3707  1.0237
  289MOL0     C38030   7.965   6.849  10.050 -0.4200 -0.3477  0.3023
  289MOL0     C38031   7.933   6.698  10.041  0.0895  0.4629  1.2010
  289MOL0     C38032   8.016   6.603   9.948 -0.5117  0.0308  0.1374
  289MOL0     N38033   7.984   6.628   9.808  0.9730 -0.0438  0.2190
  289MOL0     C38034   7.875   6.566   9.736  0.3706  0.0935 -0.3575
  289MOL0     C38035   7.896   6.623   9.614  0.0829 -0.1418 -0.2996
  289MOL0     C38036   7.814   6.568   9.499 -1.1664 -0.0254 -0.0082
  289MOL0     C38037   7.694   6.658   9.467 -0.8327 -0.2584 -0.7272
  289MOL0     C38038   7.638   6.634   9.325 -0.2434 -1.1827 -0.0252
  289MOL0     C38039   7.533   6.745   9.275 -0.5321  0.0556  0.1977
  289MOL0     O38040   7.410   6.711   9.332 -0.8977 -0.0912  0.2436
  289MOL0     C38041   7.323   6.817   9.353 -0.6065  0.4043 -0.4102
  289MOL0     C38042   7.351   6.910   9.449 -0.0464 -0.3022 -0.1007
  289MOL0     C38043   7.269   7.027   9.468  0.4353  0.0944 -0.7178
  289MOL0     C38044   7.151   7.046   9.388  0.0772 -0.3223  0.0440
  289MOL0     C38045   7.062   7.169   9.397  0.1702  0.2460 -0.2670
  289MOL0     O38046   6.937   7.150   9.331 -0.2854 -0.5657 -0.4789
  289MOL0     C38047   6.828   7.239   9.363 -1.1573  0.1242  0.5058
  289MOL0     C38048   6.713   7.162   9.374 -0.5171  0.4716  0.7456
  289MOL0     C38049   6.590   7.225   9.394  0.2809 -0.0970  0.2570
  289MOL0     C38050   6.583   7.359   9.410 -0.0725 -0.1270 -0.3556
  289MOL0     O38051   6.452   7.405   9.426 -0.5635  0.1289 -0.4385
  289MOL0     C38052   6.435   7.515   9.516 -0.9026  0.5328  0.1514
  289MOL0     C38053   6.356   7.616   9.436 -0.7330 -0.2135  0.4964
  289MOL0     C38054   6.340   7.738   9.519  0.1149  0.0399 -0.0857
  289MOL0     C38055   6.285   7.851   9.426  0.1165 -0.1297 -0.0183
  289MOL0     C38056   6.227   7.964   9.514 -0.4912  0.0464 -0.8352
  289MOL0     C38057   6.092   7.938   9.584 -0.0820  0.3752 -0.6999
  289MOL0     C38058   6.022   8.068   9.627  0.3108 -0.0326 -1.0719
  289MOL0     C38059   5.915   8.027   9.717  0.5451 -0.0002 -0.4728
  289MOL0    Cl38060   5.824   8.166   9.779  0.4030 -0.0437 -0.1135
  289MOL0     C38061   6.704   7.436   9.404  0.7575 -0.1199  0.1869
  289MOL0     C38062   6.829   7.375   9.371 -0.4116  0.3544 -0.2081
  289MOL0     O38063   7.093   7.259   9.473  0.5250 -0.5943  0.9979
  289MOL0     C38064   7.116   6.935   9.308 -0.9914  0.7596 -1.0543
  289MOL0     C38065   7.205   6.820   9.283  0.9686  0.0366 -0.6095
  289MOL0     N38066   7.997   6.713   9.608  0.7802  0.6066  0.1786
  289MOL0     N38067   8.047   6.726   9.728  0.6799  0.6001 -1.6109
  289MOL0     C38068   7.610   7.730  10.158 -1.1918  0.2772 -0.1428
  289MOL0     C38069   7.493   7.812  10.167 -0.3599  0.0685 -0.0183
  289MOL0     C38070   7.075   7.970  10.176 -0.2444  0.5358 -0.5945
  289MOL0     C38071   7.053   8.049  10.298  0.0724 -0.6627 -0.5376
  289MOL0     C38072   6.932   8.109  10.324 -0.7093  0.1025 -0.2401
  289MOL0     C38073   6.833   8.098  10.231 -0.0253  0.8326 -0.2625
  289MOL0     O38074   6.724   8.177  10.252  0.0587  0.7619 -0.0887
  289MOL0     C38075   6.618   8.178  10.162  0.6430  0.0511  0.1729
  289MOL0     C38076   6.508   8.291  10.184  0.4823  0.4076  0.2607
  289MOL0     C38077   6.410   8.240  10.277  0.4828  0.7451 -0.5221
  289MOL0     C38078   6.299   8.350  10.291 -0.4418 -0.1250 -0.8320
  289MOL0     C38079   6.212   8.330  10.407 -0.1425  0.0015 -1.2753
  289MOL0     C38080   6.143   8.316  10.507  0.5891  0.0522 -0.0497
  289MOL0     C38081   6.852   8.028  10.115 -0.3077  0.2773 -0.2415
  289MOL0     C38082   6.973   7.953  10.088 -0.0343  0.4990  0.0363
  289MOL0     H38083   7.309   7.642  10.392 -0.0319 -1.5775 -1.2064
  289MOL0     H38084   7.481   7.477  10.351  2.0962  0.3331  1.1478
  289MOL0     H38085   7.583   7.370  10.138  0.3111 -3.2340  0.8279
  289MOL0     H38086   7.644   7.343  10.296 -0.0188 -3.9693 -1.7378
  289MOL0     H38087   7.881   7.334  10.198 -0.1516  3.0360 -0.4751
  289MOL0     H38088   7.806   7.325  10.035  0.2208  0.0630 -0.0710
  289MOL0     H38089   7.663   7.142  10.145 -0.5118 -0.0504  1.5218
  289MOL0     H38090   7.762   7.147  10.282  0.0792  2.7663 -0.2864
  289MOL0     H38091   7.855   7.087   9.992  0.7146 -3.4597 -0.8398
  289MOL0     H38092   7.977   7.119  10.122 -0.4372  1.8410  0.4972
  289MOL0     H38093   7.771   6.885  10.126  1.8092 -1.2640  3.7735
  289MOL0     H38094   7.895   6.916  10.244  2.0074 -3.7971  0.5283
  289MOL0     H38095   8.069   6.869  10.077  0.1236 -1.8987 -0.5056
  289MOL0     H38096   7.956   6.882   9.946 -1.3199 -4.0320 -0.9420
  289MOL0     H38097   7.954   6.654  10.139 -2.1340 -0.0565  1.5094
  289MOL0     H38098   7.829   6.694  10.007  0.9204 -1.9743 -1.4549
  289MOL0     H38099   8.002   6.497   9.968  5.7804 -2.5302 -5.3428
  289MOL0     H38100   8.123   6.617   9.969  0.1199 -1.1305 -1.9788
  289MOL0     H38101   7.792   6.500   9.758  0.1224  0.7592  0.7894
  289MOL0     H38102   7.772   6.468   9.514 -0.0228 -0.3990  0.8359
  289MOL0     H38103   7.869   6.556   9.405 -2.3379  0.7434 -0.8083
  289MOL0     H38104   7.738   6.757   9.474  1.1761 -1.2493  2.3770
  289MOL0     H38105   7.615   6.652   9.543 -2.5132 -1.8562 -2.4697
  289MOL0     H38106   7.722   6.637   9.255 -0.3502 -2.9555 -0.2648
  289MOL0     H38107   7.599   6.534   9.304 -1.4620 -0.8271  0.4035
  289MOL0     H38108   7.526   6.751   9.166  2.7828 -0.3038 -0.1154
  289MOL0     H38109   7.570   6.839   9.316  0.2433 -0.2099  0.1070
  289MOL0     H38110   7.439   6.896   9.511  0.1201 -1.9996 -0.6758
  289MOL0     H38111   7.295   7.111   9.532  1.9183 -0.0307 -1.1065
  289MOL0     H38112   6.706   7.056   9.354 -0.7828  0.6018  0.1330
  289MOL0     H38113   6.496   7.171   9.398 -0.5630  1.3674  1.8872
  289MOL0     H38114   6.526   7.561   9.554 -1.1627 -0.2015  1.7703
  289MOL0     H38115   6.373   7.471   9.595  1.1163  1.8900  2.6384
  289MOL0     H38116   6.257   7.578   9.408 -2.4744  2.9630  1.8589
  289MOL0     H38117   6.421   7.640   9.352 -1.5029 -4.1153 -1.4587
  289MOL0     H38118   6.437   7.764   9.563  0.1156 -0.2381  0.0811
  289MOL0     H38119   6.272   7.719   9.602 -1.5183  0.3299 -1.3195
  289MOL0     H38120   6.358   7.895   9.358  0.8004 -0.3567  0.5555
  289MOL0     H38121   6.203   7.805   9.370 -0.1171  0.8648 -0.5116
  289MOL0     H38122   6.215   8.047   9.445 -0.7191  0.5757 -0.1755
  289MOL0     H38123   6.305   8.000   9.582 -0.0354 -0.4657 -1.0752
  289MOL0     H38124   6.116   7.871   9.667 -0.2902  0.4874 -0.5478
  289MOL0     H38125   6.021   7.880   9.524 -0.3308 -0.6433  0.5365
  289MOL0     H38126   6.094   8.128   9.683  0.7420 -1.5646  0.0733
  289MOL0     H38127   5.984   8.128   9.544  0.2703  4.1507  1.6655
  289MOL0     H38128   5.954   7.975   9.805  0.0688  2.2843  1.1869
  289MOL0     H38129   5.834   7.963   9.680 -0.2268  0.4999  0.3196
  289MOL0     H38130   6.691   7.542   9.420  0.1151 -0.4278  1.8915
  289MOL0     H38131   6.923   7.427   9.355 -1.3562  1.4319 -2.8569
  289MOL0     H38132   7.019   6.946   9.259 -0.4318  1.1408 -2.1148
  289MOL0     H38133   7.176   6.744   9.212 -2.4916  1.6985 -1.2305
  289MOL0     H38134   7.705   7.751  10.110  1.5738 -2.6444  3.4660
  289MOL0     H38135   7.473   7.893  10.098 -2.1229 -0.1764  0.1661
  289MOL0     H38136   7.135   8.050  10.370 -0.3913 -4.1171  0.1875
  289MOL0     H38137   6.920   8.165  10.416  0.6979  2.4308 -1.3875
  289MOL0     H38138   6.578   8.077  10.175  1.4207 -0.3392 -0.3788
  289MOL0     H38139   6.649   8.191  10.058 -1.5023  0.9880 -0.4112
  289MOL0     H38140   6.559   8.382  10.216 -1.8859  3.2302 -3.1847
  289MOL0     H38141   6.458   8.312  10.088  2.7152  1.6508 -0.7100
  289MOL0     H38142   6.445   8.218  10.378 -2.1266  0.3364  0.3718
  289MOL0     H38143   6.360   8.153  10.233  0.1539  2.2305 -3.3165
  289MOL0     H38144   6.347   8.444  10.322  0.5123 -1.1460  0.9878
  289MOL0     H38145   6.240   8.371  10.202 -0.0180  1.3666 -0.7920
  289MOL0     H38146   6.089   8.318  10.600  2.1495  0.5297  0.8859
  289MOL0     H38147   6.775   8.007  10.041 -1.4201 -0.3726  1.0606
  289MOL0     H38148   6.977   7.905   9.991 -1.4621 -0.0425  0.2208
  290MOL0     O38149   9.400   9.654   0.677 -0.2816  0.3925  0.5000
  290MOL0     C38150   9.480   9.642   0.582  0.4929  0.0977  0.4267
  290MOL0     O38151   9.453   9.670   0.454 -0.1250  0.2478  0.5852
  290MOL0     C38152   9.317   9.668   0.416 -0.5626  0.8229  0.1914
  290MOL0     C38153   9.222   9.588   0.479  0.3611 -0.5177  0.3994
  290MOL0     C38154   9.082   9.611   0.452  0.4605 -0.5035 -0.0740
  290MOL0     C38155   9.039   9.701   0.354  0.2841  0.5235 -0.9370
  290MOL0     O38156   8.918   9.724   0.303  0.7811  0.1286 -0.3794
  290MOL0     C38157   8.813   9.633   0.353  0.4303 -0.4279 -0.3023
  290MOL0     C38158   8.683   9.694   0.287  0.2404 -0.4119  0.2861
  290MOL0     C38159   8.551   9.637   0.346 -0.7447 -0.4641 -0.7348
  290MOL0     C38160   8.518   9.705   0.477  1.0387  0.0422  0.1031
  290MOL0     C38161   8.391   9.640   0.538  0.5747 -0.2469 -0.2363
  290MOL0     C38162   8.278   9.637   0.433  0.7183  0.6340 -0.1635
  290MOL0     C38163   8.137   9.625   0.503 -0.3492 -0.2240  0.5989
  290MOL0     C38164   8.021   9.638   0.398  0.0754  0.2951 -0.9203
  290MOL0     N38165   8.040   9.542   0.293 -0.5682  0.2083 -0.0367
  290MOL0     C38166   8.042   9.406   0.322 -0.8448  0.5524 -0.2942
  290MOL0     C38167   8.106   9.351   0.211 -0.4370 -0.4303  0.1654
  290MOL0     C38168   8.149   9.209   0.191  0.3271  1.0074  0.4237
  290MOL0     C38169   8.047   9.102   0.228 -0.4952 -0.2697 -0.5137
  290MOL0     C38170   8.057   9.061   0.372 -1.2274 -0.1877  0.4913
  290MOL0     C38171   7.930   8.995   0.424 -0.3309  0.2105  0.5407
  290MOL0     O38172   7.947   8.936   0.550  0.3735  0.5985  0.1746
  290MOL0     C38173   7.844   8.868   0.597  0.0348  0.5215  0.5463
  290MOL0     C38174   7.863   8.795   0.722 -1.1475 -0.1739 -0.2504
  290MOL0     C38175   7.769   8.710   0.776 -0.4381  1.2009 -0.8099
  290MOL0     C38176   7.654   8.687   0.707 -0.6871  0.0664 -0.1218
  290MOL0     C38177   7.550   8.590   0.746  0.2053 -1.1074 -0.2988
  290MOL0     O38178   7.437   8.581   0.673 -0.6689  0.3087 -0.3082
  290MOL0     C38179   7.329   8.516   0.716  0.5569 -1.0154  0.2058
  290MOL0     C38180   7.274   8.533   0.842  0.4828  0.5463  0.3854
  290MOL0     C38181   7.150   8.470   0.867 -0.4096  0.2652 -0.3881
  290MOL0     C38182   7.081   8.394   0.768  0.3309 -0.8966 -0.3252
  290MOL0     O38183   6.951   8.357   0.794  0.6080  0.2572 -0.4712
  290MOL0     C38184   6.847   8.450   0.789  0.1832 -0.2358  0.2689
  290MOL0     C38185   6.718   8.391   0.729 -0.3108 -0.2991  0.4549
  290MOL0     C38186   6.661   8.271   0.810 -0.0247  0.2242 -0.1121
  290MOL0     C38187   6.524   8.226   0.770  0.1342 -0.7478 -0.5234
  290MOL0     C38188   6.468   8.100   0.837 -1.0592 -0.6735 -0.5511
  290MOL0     C38189   6.341   8.048   0.783  0.1580 -0.5472 -0.0613
  290MOL0     C38190   6.294   7.921   0.860 -0.4391 -0.9479  0.3312
  290MOL0     C38191   6.188   7.847   0.778 -0.8441  0.1048  0.2829
  290MOL0    Cl38192   6.262   7.719   0.686  0.1510  0.3290  0.3196
  290MOL0     C38193   7.142   8.376   0.638  0.1982 -0.5296  0.0290
  290MOL0     C38194   7.262   8.446   0.617  0.2107  0.3708  0.4546
  290MOL0     O38195   7.570   8.524   0.852  0.3967  0.1732  0.5872
  290MOL0     C38196   7.623   8.762   0.587 -0.1027 -0.4155 -0.8397
  290MOL0     C38197   7.715   8.863   0.541  0.4985 -0.5764 -0.4206
  290MOL0     N38198   8.162   9.448   0.143  0.2477 -0.3515  0.2324
  290MOL0     N38199   8.115   9.558   0.176  0.2464 -0.0090 -0.2155
  290MOL0     C38200   9.138   9.779   0.303 -0.3838  0.4525  1.0016
  290MOL0     C38201   9.274   9.764   0.322  0.2930 -0.3831 -0.0301
  290MOL0     C38202   9.610   9.596   0.606  1.0436 -0.0127 -1.2991
  290MOL0     C38203   9.667   9.610   0.741  0.6399 -0.7092 -0.0148
  290MOL0     C38204   9.790   9.556   0.756 -0.1964  0.1985 -0.0234
  290MOL0     C38205   9.864   9.495   0.652 -0.6541 -0.0428 -0.6475
  290MOL0     O38206   9.990   9.462   0.694 -0.4696  0.0603  0.2429
  290MOL0     C38207  10.099   9.452   0.599  1.2701  0.3051  0.7359
  290MOL0     C38208  10.216   9.483   0.677 -0.3742 -0.3556  0.4013
  290MOL0     C38209  10.340   9.428   0.603 -0.4114  0.4937 -1.0752
  290MOL0     C38210  10.470   9.462   0.682 -0.5392  0.4213 -0.7608
  290MOL0     C38211  10.594   9.387   0.622  0.1122  0.2973 -0.3185
  290MOL0     C38212  10.695   9.339   0.567 -0.5673 -0.2281 -0.0958
  290MOL0     C38213   9.815   9.495   0.521 -0.4837  0.4325 -0.2667
  290MOL0     C38214   9.682   9.541   0.510 -0.4056 -0.1522  0.3350
  290MOL0     H38215   9.249   9.509   0.549  2.0317 -1.3416 -1.0948
  290MOL0     H38216   9.004   9.547   0.491 -0.1286  1.0826  1.5185
  290MOL0     H38217   8.807   9.652   0.461  2.4387  2.5541 -0.5895
  290MOL0     H38218   8.842   9.528   0.337 -0.3568 -0.7963  0.6148
  290MOL0     H38219   8.676   9.672   0.180  0.6037 -1.0708  0.3939
  290MOL0     H38220   8.688   9.803   0.301  0.4126 -0.5459  1.4033
  290MOL0     H38221   8.556   9.530   0.364 -4.1305 -0.5619  0.3034
  290MOL0     H38222   8.484   9.667   0.265  0.0857  2.3109 -0.5117
  290MOL0     H38223   8.599   9.697   0.550  0.2278  1.7241  1.2475
  290MOL0     H38224   8.501   9.811   0.456  1.7385  0.5946  2.1044
  290MOL0     H38225   8.358   9.698   0.624 -1.0581 -3.0645  1.1759
  290MOL0     H38226   8.412   9.540   0.579  1.8921  0.0499 -0.1480
  290MOL0     H38227   8.293   9.553   0.365  0.0277  1.2821 -1.1481
  290MOL0     H38228   8.275   9.729   0.372  0.5993  0.0373 -1.0781
  290MOL0     H38229   8.133   9.522   0.540 -1.2554  0.1557  1.6145
  290MOL0     H38230   8.129   9.701   0.581 -2.5171 -2.3979  2.6601
  290MOL0     H38231   8.011   9.739   0.357 -4.9699  0.0842 -0.7163
  290MOL0     H38232   7.924   9.620   0.445  1.4808 -1.2728  1.5903
  290MOL0     H38233   7.992   9.360   0.406  1.3719  0.4694  1.0719
  290MOL0     H38234   8.241   9.197   0.250 -0.3177  1.6935  1.6224
  290MOL0     H38235   8.178   9.187   0.088 -1.4644  1.6731 -0.2575
  290MOL0     H38236   8.075   9.021   0.160  0.7331  0.1593 -0.5496
  290MOL0     H38237   7.946   9.132   0.201  0.2133  2.7502 -0.2566
  290MOL0     H38238   8.127   8.978   0.380 -1.4613 -0.4373  0.0258
  290MOL0     H38239   8.088   9.145   0.435 -0.2091 -0.8214  0.8424
  290MOL0     H38240   7.902   8.916   0.354  2.7025 -1.7822  1.3800
  290MOL0     H38241   7.848   9.067   0.427 -1.3301 -0.9140  1.0948
  290MOL0     H38242   7.962   8.789   0.766 -1.2638  0.3083  0.0723
  290MOL0     H38243   7.787   8.658   0.870  1.5681 -2.0918 -2.7819
  290MOL0     H38244   7.332   8.582   0.919 -0.9735  0.1840  1.7611
  290MOL0     H38245   7.107   8.497   0.963 -1.2811  0.2093 -0.7613
  290MOL0     H38246   6.875   8.543   0.737 -1.9042 -0.0003 -0.5164
  290MOL0     H38247   6.813   8.478   0.889  1.8338  0.0829  0.7839
  290MOL0     H38248   6.728   8.354   0.627 -0.6176 -0.2377  0.4005
  290MOL0     H38249   6.657   8.482   0.722  1.4012  0.8910  0.3316
  290MOL0     H38250   6.650   8.301   0.914 -0.7025 -0.4309  0.0171
  290MOL0     H38251   6.736   8.192   0.811 -1.2951 -1.0114  0.9655
  290MOL0     H38252   6.456   8.309   0.794 -0.4493 -1.1841 -0.6577
  290MOL0     H38253   6.533   8.211   0.662  2.8222 -0.0291 -0.4761
  290MOL0     H38254   6.452   8.115   0.945 -2.9075 -1.9531 -0.5847
  290MOL0     H38255   6.540   8.020   0.815 -2.6929 -1.3552 -4.0175
  290MOL0     H38256   6.360   8.036   0.676  1.7630  0.4564  0.0752
  290MOL0     H38257   6.255   8.114   0.793 -1.9256 -3.3140  1.7718
  290MOL0     H38258   6.381   7.863   0.889  0.7323 -0.5406 -2.1279
  290MOL0     H38259   6.246   7.949   0.954  1.5155  1.5418  0.6913
  290MOL0     H38260   6.149   7.919   0.705  0.1282  1.4610  1.0607
  290MOL0     H38261   6.108   7.811   0.843 -3.0845  2.5051 -0.9328
  290MOL0     H38262   7.085   8.314   0.569  1.6269 -3.8881  1.6322
  290MOL0     H38263   7.304   8.424   0.519 -3.0600  0.0304 -1.0194
  290MOL0     H38264   7.533   8.752   0.526 -0.8005  2.3715 -0.3786
  290MOL0     H38265   7.677   8.926   0.461  1.8085  1.6552  0.6293
  290MOL0     H38266   9.123   9.856   0.228  1.1937 -0.5421 -0.3981
  290MOL0     H38267   9.348   9.821   0.267 -1.0366 -1.2693 -2.9107
  290MOL0     H38268   9.605   9.659   0.815  1.0934 -0.3865  0.1576
  290MOL0     H38269   9.829   9.562   0.857  1.5334 -0.9801 -0.5765
  290MOL0     H38270  10.087   9.523   0.516  0.9902 -0.5857 -0.0073
  290MOL0     H38271  10.100   9.355   0.549  2.0350  1.3228 -1.3774
  290MOL0     H38272  10.224   9.591   0.692 -0.5081 -0.0483 -1.4424
  290MOL0     H38273  10.221   9.427   0.770  2.9710  0.8412  1.0859
  290MOL0     H38274  10.335   9.465   0.500 -2.0664  0.4617 -1.0395
  290MOL0     H38275  10.327   9.320   0.610 -0.2565  0.5363  0.0277
  290MOL0     H38276  10.504   9.566   0.675 -0.1600  0.2846 -1.0466
  290MOL0     H38277  10.455   9.430   0.785  0.6323 -1.5992 -1.1641
  290MOL0     H38278  10.773   9.292   0.511  0.1136  1.6224 -0.7841
  290MOL0     H38279   9.871   9.465   0.433  0.6314 -0.7541  0.8163
  290MOL0     H38280   9.648   9.542   0.407 -0.6141  1.1506  0.4041
  291MOL0     O38281   8.617  11.212   4.155  0.4559  0.0190 -0.4287
  291MOL0     C38282   8.551  11.278   4.232  1.0478 -0.6055  0.4101
  291MOL0     O38283   8.539  11.413   4.228 -0.4753 -0.7686  0.0027
  291MOL0     C38284   8.634  11.482   4.153  0.4484  1.1377 -0.1843
  291MOL0     C38285   8.578  11.588   4.095 -0.3284 -0.0148  0.4136
  291MOL0     C38286   8.651  11.665   4.003 -0.2431  0.8461 -0.3385
  291MOL0     C38287   8.790  11.640   3.975  0.5540 -0.8816 -0.4275
  291MOL0     O38288   8.862  11.740   3.901  0.5132 -0.6381  0.2071
  291MOL0     C38289   9.004  11.734   3.901 -0.2163 -0.0645  0.1056
  291MOL0     C38290   9.072  11.848   3.825 -0.7431  0.5561  0.0930
  291MOL0     C38291   9.031  11.851   3.674 -0.2112  0.5198 -0.4359
  291MOL0     C38292   9.099  11.968   3.599 -0.3472  0.2863 -0.2957
  291MOL0     C38293   9.060  11.979   3.450 -0.5851 -0.4623  0.5343
  291MOL0     C38294   9.135  12.090   3.379 -0.6338 -0.3530 -0.0754
  291MOL0     C38295   9.120  12.088   3.222  0.5210 -0.1667 -0.1640
  291MOL0     C38296   8.996  12.162   3.162  0.3665  0.8083  0.4934
  291MOL0     N38297   8.997  12.173   3.013 -1.3038  0.7505  0.0722
  291MOL0     C38298   9.049  12.286   2.947 -0.8095  0.1391 -0.1937
  291MOL0     C38299   9.001  12.275   2.814  0.1270  0.5338 -0.9153
  291MOL0     C38300   9.032  12.379   2.710  0.1511 -1.1751 -0.2625
  291MOL0     C38301   8.909  12.454   2.661  1.1790  0.7292  0.3510
  291MOL0     C38302   8.939  12.545   2.543  0.7043  0.7838 -0.2814
  291MOL0     C38303   8.806  12.619   2.494 -0.7575  0.6590  0.2702
  291MOL0     O38304   8.690  12.534   2.498 -0.1775  0.0261  0.1710
  291MOL0     C38305   8.576  12.586   2.461  0.5592  0.3399  0.7441
  291MOL0     C38306   8.538  12.717   2.447 -0.3396 -0.2808  1.3583
  291MOL0     C38307   8.400  12.749   2.410 -0.4376 -0.0535 -0.3244
  291MOL0     C38308   8.302  12.648   2.388 -0.4208 -0.1113 -0.3843
  291MOL0     C38309   8.170  12.688   2.327  0.3539 -0.0355  0.4844
  291MOL0     O38310   8.091  12.584   2.302  0.4223  0.3627 -0.2267
  291MOL0     C38311   7.978  12.590   2.232  0.3951  0.1257 -0.0825
  291MOL0     C38312   7.867  12.665   2.271  0.6268 -0.6008  0.0192
  291MOL0     C38313   7.738  12.639   2.211 -0.0895 -0.5543 -0.4220
  291MOL0     C38314   7.721  12.547   2.103 -0.5583  0.2861  0.0246
  291MOL0     O38315   7.600  12.546   2.035 -0.6455  0.0771  0.1936
  291MOL0     C38316   7.591  12.479   1.912 -0.1438  0.1872 -0.3286
  291MOL0     C38317   7.471  12.535   1.832  1.5133  0.3651  0.5976
  291MOL0     C38318   7.463  12.688   1.813  1.3674 -0.3461  0.0822
  291MOL0     C38319   7.555  12.742   1.699 -0.4036 -0.1276  0.1421
  291MOL0     C38320   7.547  12.891   1.658 -0.1868 -0.1259  0.2085
  291MOL0     C38321   7.676  12.949   1.607 -0.0347 -0.0231 -0.1341
  291MOL0     C38322   7.664  13.092   1.570  0.9503  1.0411 -0.2023
  291MOL0     C38323   7.804  13.159   1.533 -0.6139  0.1959  1.3659
  291MOL0    Cl38324   7.872  13.100   1.377  0.1699 -0.4271  0.8028
  291MOL0     C38325   7.838  12.493   2.061  0.1841  0.5291  0.1056
  291MOL0     C38326   7.964  12.507   2.120 -0.7507  0.2504 -0.6925
  291MOL0     O38327   8.132  12.807   2.318 -0.1811 -1.0305  0.4734
  291MOL0     C38328   8.349  12.515   2.389 -0.1618  0.1145  0.7934
  291MOL0     C38329   8.483  12.489   2.425  0.6285 -0.2762 -0.4524
  291MOL0     N38330   8.941  12.148   2.798 -0.3105  0.1557 -0.1958
  291MOL0     N38331   8.931  12.098   2.921 -0.1381  0.0522  0.5789
  291MOL0     C38332   8.839  11.523   4.027 -0.6888  0.0193 -1.1123
  291MOL0     C38333   8.767  11.443   4.121 -0.2628 -0.5930 -0.0212
  291MOL0     C38334   8.463  11.218   4.332  1.3252 -0.5110  0.5887
  291MOL0     C38335   8.461  11.080   4.343  0.1576  0.5697  0.3313
  291MOL0     C38336   8.385  11.026   4.450 -0.1734  0.7152 -0.0186
  291MOL0     C38337   8.294  11.106   4.530  0.6605 -0.1629 -0.8010
  291MOL0     O38338   8.225  11.037   4.622  0.0900  0.3003 -0.1930
  291MOL0     C38339   8.105  11.094   4.660  0.3396 -0.6013  0.3023
  291MOL0     C38340   7.993  11.071   4.552  0.4268  0.0264 -0.0078
  291MOL0     C38341   7.855  11.138   4.595  0.5222  0.1332  0.0406
  291MOL0     C38342   7.731  11.105   4.507 -0.2822  0.4888  0.1965
  291MOL0     C38343   7.703  11.185   4.392 -0.4376  0.2324 -0.4398
  291MOL0     C38344   7.673  11.233   4.287  0.8646  0.6064 -0.3922
  291MOL0     C38345   8.289  11.246   4.506  0.0045 -0.3659  0.0493
  291MOL0     C38346   8.365  11.297   4.401  0.2670  0.1814  0.3575
  291MOL0     H38347   8.477  11.605   4.130  1.0289  0.8667  4.5119
  291MOL0     H38348   8.604  11.742   3.944 -3.2441 -0.7841 -0.2749
  291MOL0     H38349   9.049  11.645   3.856  1.0762  1.3614 -1.5228
  291MOL0     H38350   9.051  11.742   4.000  2.4153 -1.3553 -0.9454
  291MOL0     H38351   9.180  11.847   3.841 -0.7301  1.3124  0.0919
  291MOL0     H38352   9.037  11.939   3.874 -1.4119  0.7791 -0.7786
  291MOL0     H38353   8.924  11.874   3.670 -0.9180 -1.9389  1.8982
  291MOL0     H38354   9.048  11.757   3.621  2.6536 -0.4678  1.9787
  291MOL0     H38355   9.069  12.068   3.634 -1.5537 -0.6473  1.4605
  291MOL0     H38356   9.208  11.958   3.609 -0.3145 -2.0081 -2.1301
  291MOL0     H38357   8.955  12.002   3.430 -0.0350 -0.0822 -2.3796
  291MOL0     H38358   9.078  11.885   3.397 -2.0194  0.1903 -1.2582
  291MOL0     H38359   9.240  12.085   3.406 -1.2531 -2.0357  2.2960
  291MOL0     H38360   9.095  12.184   3.419 -3.8499 -1.5302 -0.2018
  291MOL0     H38361   9.211  12.129   3.176 -0.2242 -0.0272 -1.5667
  291MOL0     H38362   9.124  11.988   3.178  0.2763 -0.2818  0.0687
  291MOL0     H38363   8.978  12.265   3.192 -1.5747  1.3676 -2.2409
  291MOL0     H38364   8.907  12.103   3.185 -0.2707  1.4606 -0.2600
  291MOL0     H38365   9.102  12.369   2.994  2.8835 -1.5673 -0.9827
  291MOL0     H38366   9.076  12.339   2.618  1.9790  0.6413 -0.2572
  291MOL0     H38367   9.102  12.455   2.748 -1.4255  1.4349 -2.1867
  291MOL0     H38368   8.875  12.509   2.749  2.1170  1.0541  0.5277
  291MOL0     H38369   8.835  12.381   2.627 -1.1762  3.5958 -1.1073
  291MOL0     H38370   9.006  12.627   2.568  0.9988  1.7765 -3.7853
  291MOL0     H38371   8.976  12.489   2.457  1.0013  1.3451 -0.5262
  291MOL0     H38372   8.814  12.661   2.394  2.8797 -0.1866  0.0895
  291MOL0     H38373   8.794  12.702   2.564 -2.5894 -0.9804  2.0477
  291MOL0     H38374   8.601  12.801   2.475 -0.9182  0.6873 -0.0833
  291MOL0     H38375   8.370  12.851   2.390 -2.5300 -0.7489 -1.0485
  291MOL0     H38376   7.867  12.726   2.361 -0.7043  1.5227 -1.3249
  291MOL0     H38377   7.647  12.691   2.238  0.5876 -0.5438  2.1227
  291MOL0     H38378   7.597  12.371   1.927  3.4836  0.6380  3.3290
  291MOL0     H38379   7.674  12.517   1.852 -2.1303  3.1141 -1.4709
  291MOL0     H38380   7.383  12.514   1.894 -0.3029  1.2771 -1.5369
  291MOL0     H38381   7.465  12.497   1.730 -0.1354  2.6816 -0.2679
  291MOL0     H38382   7.486  12.730   1.911 -0.7319  1.8356 -0.2710
  291MOL0     H38383   7.359  12.716   1.796  1.1558 -1.7271 -1.1397
  291MOL0     H38384   7.658  12.721   1.731  0.6848  1.3168 -2.1128
  291MOL0     H38385   7.539  12.679   1.610 -0.6773 -1.4339  1.0842
  291MOL0     H38386   7.516  12.952   1.743 -0.8506 -2.5655  1.7998
  291MOL0     H38387   7.470  12.890   1.580 -2.7206  0.2615  2.5486
  291MOL0     H38388   7.689  12.897   1.512  0.4147  0.2878 -0.2440
  291MOL0     H38389   7.765  12.934   1.669  1.4246 -1.8335 -2.4921
  291MOL0     H38390   7.589  13.102   1.491 -0.8994 -1.6883  1.0626
  291MOL0     H38391   7.636  13.139   1.664  2.6777 -2.9207  2.5620
  291MOL0     H38392   7.879  13.157   1.612  1.6634 -1.0299 -0.6681
  291MOL0     H38393   7.779  13.266   1.527  0.0149  0.3951  2.1843
  291MOL0     H38394   7.839  12.427   1.974 -0.7682  0.7725 -0.0943
  291MOL0     H38395   8.051  12.447   2.097  1.6070  2.5180  1.6372
  291MOL0     H38396   8.282  12.434   2.361 -0.6737  2.3312 -6.3848
  291MOL0     H38397   8.516  12.386   2.429  2.3199  0.1228 -2.1844
  291MOL0     H38398   8.945  11.505   4.016 -0.1219  1.8510  0.8353
  291MOL0     H38399   8.808  11.355   4.170 -0.9562 -0.5403  0.6721
  291MOL0     H38400   8.529  11.010   4.295  0.6636  0.8374  0.6486
  291MOL0     H38401   8.388  10.922   4.480  1.7675  0.6987 -0.1303
  291MOL0     H38402   8.123  11.199   4.685  1.5651 -1.1101  1.6546
  291MOL0     H38403   8.076  11.038   4.749  1.2680  1.3434  1.9029
  291MOL0     H38404   8.030  11.100   4.453  1.1607  0.9970  0.5350
  291MOL0     H38405   7.985  10.963   4.534  0.5703  0.7186 -7.1780
  291MOL0     H38406   7.875  11.244   4.612  2.5883 -0.4448  1.6044
  291MOL0     H38407   7.847  11.095   4.696  1.6534 -2.5720 -0.9361
  291MOL0     H38408   7.743  11.002   4.473 -0.0799  1.2118 -2.0700
  291MOL0     H38409   7.636  11.111   4.560 -0.8851 -0.5273 -0.7401
  291MOL0     H38410   7.640  11.275   4.194  0.0052  1.6293  0.3427
  291MOL0     H38411   8.238  11.324   4.562  1.6990  0.0029  1.1722
  291MOL0     H38412   8.349  11.401   4.376  0.2504  0.0349 -0.2419
  292MOL0     O38413   8.922   2.901   7.638  0.9063  0.1201  0.0961
  292MOL0     C38414   9.018   2.938   7.569 -0.4235 -1.0977  0.2152
  292MOL0     O38415   9.055   3.068   7.560 -0.6271  0.6353 -0.0746
  292MOL0     C38416   9.003   3.175   7.627 -0.3159  0.9712  1.0905
  292MOL0     C38417   8.953   3.165   7.757  0.6959 -0.3692  0.2205
  292MOL0     C38418   8.910   3.272   7.828  0.6353 -0.1831  0.5122
  292MOL0     C38419   8.895   3.404   7.768  0.5967 -0.0470  0.7093
  292MOL0     O38420   8.870   3.527   7.830 -0.0278  0.2882  0.4212
  292MOL0     C38421   8.879   3.538   7.977 -0.1381 -0.4324  0.5464
  292MOL0     C38422   8.746   3.498   8.038  0.7295 -0.4757  0.5359
  292MOL0     C38423   8.623   3.558   7.967  0.1311  0.4198 -0.1771
  292MOL0     C38424   8.616   3.704   7.971  0.4811  0.6552 -0.2411
  292MOL0     C38425   8.476   3.762   7.923 -0.4105  0.8031  0.1943
  292MOL0     C38426   8.366   3.770   8.019  0.0099 -0.1432  0.3698
  292MOL0     C38427   8.249   3.870   7.995  0.1538  0.0456  0.6404
  292MOL0     C38428   8.280   4.006   8.054  0.2244  0.1149 -1.2296
  292MOL0     N38429   8.239   4.021   8.199 -0.2680 -0.6802 -0.3871
  292MOL0     C38430   8.174   4.137   8.240  0.2725 -0.8688 -0.1835
  292MOL0     C38431   8.162   4.132   8.377  0.4148 -0.2744  0.4157
  292MOL0     C38432   8.112   4.239   8.472  1.4813 -0.6553 -0.2489
  292MOL0     C38433   7.972   4.202   8.535  0.2455  0.2097  0.4903
  292MOL0     C38434   7.957   4.109   8.652 -0.4503 -0.1103 -0.6126
  292MOL0     C38435   7.819   4.089   8.690  0.8083 -0.2444  0.6298
  292MOL0     O38436   7.756   4.209   8.720  0.2702 -0.1465 -0.0020
  292MOL0     C38437   7.621   4.215   8.749  0.2557  0.5693  0.1671
  292MOL0     C38438   7.544   4.106   8.793  1.0243 -0.2411  0.0418
  292MOL0     C38439   7.407   4.114   8.810 -0.5815  0.5870 -0.8811
  292MOL0     C38440   7.346   4.243   8.792  0.5396  0.3776 -0.5101
  292MOL0     C38441   7.206   4.265   8.832  0.8536  0.2597 -0.7947
  292MOL0     O38442   7.142   4.376   8.769 -0.1071 -0.1874  0.5245
  292MOL0     C38443   7.018   4.413   8.810 -0.1448 -0.9791 -0.8280
  292MOL0     C38444   6.937   4.450   8.704  0.3539 -0.1270 -0.4115
  292MOL0     C38445   6.804   4.485   8.733 -0.5440  0.4615  0.6836
  292MOL0     C38446   6.756   4.491   8.867  0.2963  0.1654 -0.2615
  292MOL0     O38447   6.631   4.529   8.908 -0.0996 -0.1822  0.6467
  292MOL0     C38448   6.525   4.486   8.821  0.6589  0.1644 -0.1677
  292MOL0     C38449   6.404   4.584   8.839  0.5889  0.2452  0.1732
  292MOL0     C38450   6.315   4.582   8.709 -0.6383  0.6882  0.5315
  292MOL0     C38451   6.176   4.643   8.737  0.2297  0.3561 -0.3936
  292MOL0     C38452   6.082   4.627   8.617 -0.3276 -0.1151  0.5687
  292MOL0     C38453   6.013   4.746   8.553 -0.7886 -0.7058  0.4614
  292MOL0     C38454   5.936   4.837   8.649  0.2408 -0.9269 -0.1604
  292MOL0     C38455   5.821   4.780   8.726  0.3315 -0.2789  0.0882
  292MOL0    Cl38456   5.735   4.906   8.839 -0.4472  0.5072  0.2220
  292MOL0     C38457   6.846   4.459   8.973  0.4129  0.2861  0.1132
  292MOL0     C38458   6.975   4.421   8.945  0.2493  0.2649 -0.0079
  292MOL0     O38459   7.152   4.202   8.919  0.4628  0.4567 -0.2355
  292MOL0     C38460   7.423   4.356   8.745 -0.3934  0.5592  0.4927
  292MOL0     C38461   7.558   4.340   8.723 -0.6670 -0.5982 -0.1827
  292MOL0     N38462   8.211   3.998   8.405 -0.3500  0.6731 -0.2073
  292MOL0     N38463   8.251   3.936   8.298  0.3819 -0.3629  0.4743
  292MOL0     C38464   8.928   3.406   7.632  0.2305  0.6417  0.2842
  292MOL0     C38465   8.985   3.296   7.562  0.0439  0.0607 -0.5018
  292MOL0     C38466   9.096   2.847   7.483 -0.2832  1.2437  0.3688
  292MOL0     C38467   9.093   2.704   7.505  0.4261  0.3314  0.4915
  292MOL0     C38468   9.180   2.614   7.442  0.3697 -0.4045  0.2568
  292MOL0     C38469   9.273   2.678   7.343  0.1242 -0.3980 -0.9095
  292MOL0     O38470   9.346   2.601   7.264  0.4439  0.4040 -0.2058
  292MOL0     C38471   9.475   2.642   7.210  0.5652 -0.4668  0.7081
  292MOL0     C38472   9.595   2.687   7.297 -0.0531 -0.5736  0.4245
  292MOL0     C38473   9.624   2.565   7.396 -0.6519  0.1936  0.3973
  292MOL0     C38474   9.698   2.602   7.520  0.0715 -0.0748 -1.1186
  292MOL0     C38475   9.828   2.673   7.478 -0.1562  0.4942 -0.5449
  292MOL0     C38476   9.941   2.718   7.481 -1.3167 -0.3050  0.0949
  292MOL0     C38477   9.268   2.816   7.328  0.9482  0.1009 -1.1267
  292MOL0     C38478   9.194   2.897   7.412  0.0281 -0.4294  0.6372
  292MOL0     H38479   8.964   3.079   7.823  0.1986  1.4147  2.7844
  292MOL0     H38480   8.888   3.269   7.934 -0.4372  2.5044  0.4243
  292MOL0     H38481   8.898   3.644   8.000 -0.1251 -0.1382 -0.7713
  292MOL0     H38482   8.964   3.484   8.021  0.8539  0.0269 -0.7226
  292MOL0     H38483   8.739   3.529   8.142 -0.4653  1.9616 -0.1883
  292MOL0     H38484   8.751   3.389   8.032  2.2210 -0.3632 -0.9667
  292MOL0     H38485   8.532   3.506   8.000  1.6569 -4.4002 -2.5277
  292MOL0     H38486   8.630   3.530   7.861  1.9301 -2.8553  0.6578
  292MOL0     H38487   8.631   3.731   8.076  5.0113 -0.3777 -0.3927
  292MOL0     H38488   8.702   3.737   7.912  1.5887 -1.7623 -0.1293
  292MOL0     H38489   8.444   3.703   7.836 -1.0797  1.6441 -0.1360
  292MOL0     H38490   8.492   3.863   7.885  0.9318 -0.6706 -3.6876
  292MOL0     H38491   8.404   3.768   8.122  2.9568 -1.0965 -0.6121
  292MOL0     H38492   8.320   3.671   8.013 -0.0546 -0.0796 -0.1739
  292MOL0     H38493   8.234   3.891   7.888 -2.4433  2.3672  1.3392
  292MOL0     H38494   8.150   3.836   8.025  0.4488 -3.5284 -1.8454
  292MOL0     H38495   8.226   4.087   8.006  1.2509  1.3268 -0.4006
  292MOL0     H38496   8.387   4.029   8.044  0.7333 -0.2056  2.2437
  292MOL0     H38497   8.148   4.228   8.187  2.5522  0.5027  0.8972
  292MOL0     H38498   8.095   4.327   8.409 -0.7052 -0.4777  0.5058
  292MOL0     H38499   8.178   4.264   8.555  1.8812  1.8636 -1.2338
  292MOL0     H38500   7.916   4.146   8.460 -0.7102 -3.3995  3.5696
  292MOL0     H38501   7.937   4.301   8.563 -0.9512  0.0939 -0.5431
  292MOL0     H38502   7.998   4.012   8.622  2.0873  0.8471 -0.4758
  292MOL0     H38503   8.008   4.143   8.742  2.4536 -0.0856 -2.1453
  292MOL0     H38504   7.823   4.027   8.781  0.8547 -0.7082  0.3166
  292MOL0     H38505   7.775   4.043   8.601  2.3537 -3.0924  1.2152
  292MOL0     H38506   7.591   4.008   8.801  1.0828 -0.0582  2.6181
  292MOL0     H38507   7.344   4.029   8.836  0.0165  0.4687  0.2514
  292MOL0     H38508   6.975   4.462   8.603  3.0318  1.8617  0.7124
  292MOL0     H38509   6.740   4.507   8.648 -2.7016  2.4529  2.6533
  292MOL0     H38510   6.503   4.380   8.838 -1.3560  0.1362 -2.3756
  292MOL0     H38511   6.545   4.495   8.714 -1.6258  0.6476 -0.6204
  292MOL0     H38512   6.429   4.689   8.851 -1.0388  0.7734 -0.7409
  292MOL0     H38513   6.336   4.557   8.921 -0.1744  1.3166 -0.0775
  292MOL0     H38514   6.300   4.481   8.672 -1.3230  0.1476  2.1786
  292MOL0     H38515   6.372   4.633   8.630  1.0008 -1.2115  0.4237
  292MOL0     H38516   6.136   4.604   8.831 -0.7041  0.2049 -0.8301
  292MOL0     H38517   6.195   4.751   8.742 -0.2450  0.4894 -1.1541
  292MOL0     H38518   5.999   4.563   8.647  0.0274 -0.2885  1.2025
  292MOL0     H38519   6.143   4.587   8.535  1.4223 -1.5744  2.4510
  292MOL0     H38520   5.948   4.714   8.471  0.7592  2.1476 -2.0728
  292MOL0     H38521   6.089   4.803   8.499 -0.0349 -1.3009  0.8782
  292MOL0     H38522   6.008   4.874   8.723 -1.4564 -1.4243  1.8236
  292MOL0     H38523   5.916   4.932   8.598  2.0468 -0.7391 -0.6085
  292MOL0     H38524   5.854   4.694   8.785 -1.5350 -0.7262  0.5545
  292MOL0     H38525   5.741   4.742   8.662 -0.7974  1.8688  0.1223
  292MOL0     H38526   6.822   4.467   9.078  1.2771  2.9107  0.1804
  292MOL0     H38527   7.037   4.386   9.027 -1.2334  0.8260  1.4222
  292MOL0     H38528   7.388   4.455   8.719  0.3438  0.4318 -1.1093
  292MOL0     H38529   7.618   4.425   8.691  1.9634 -1.8456  1.1437
  292MOL0     H38530   8.920   3.485   7.558  0.4617  0.9983  0.6304
  292MOL0     H38531   9.030   3.311   7.464  0.5367 -2.9616 -0.8146
  292MOL0     H38532   9.025   2.663   7.579 -0.0394 -0.8661 -0.5727
  292MOL0     H38533   9.173   2.510   7.473 -3.9435 -0.3574  0.0204
  292MOL0     H38534   9.443   2.712   7.133 -1.3204 -2.0206  0.0068
  292MOL0     H38535   9.502   2.550   7.158 -1.1002  0.5836 -2.2306
  292MOL0     H38536   9.680   2.716   7.234 -0.5526  4.1077  1.5692
  292MOL0     H38537   9.565   2.770   7.362  0.3199 -3.1570  4.2624
  292MOL0     H38538   9.695   2.498   7.347  1.5659  0.8576  2.5194
  292MOL0     H38539   9.535   2.509   7.425  0.2373 -0.2814  2.3675
  292MOL0     H38540   9.645   2.664   7.593  0.8096 -2.3532  1.5908
  292MOL0     H38541   9.715   2.515   7.585  2.3559  2.5374  2.2014
  292MOL0     H38542  10.042   2.747   7.457 -1.6057 -1.1468 -2.3978
  292MOL0     H38543   9.331   2.865   7.254  1.7152  0.9871  0.0710
  292MOL0     H38544   9.219   3.002   7.417  1.4583 -0.6915 -0.4040
  293MOL0     O38545   7.836   3.928   5.186  0.5272  0.4507  0.1250
  293MOL0     C38546   7.891   3.921   5.296  0.1063 -0.4267  0.2019
  293MOL0     O38547   7.846   3.982   5.407 -0.1397  0.1951 -0.6107
  293MOL0     C38548   7.721   4.038   5.391  0.1298  0.3127 -0.6414
  293MOL0     C38549   7.707   4.177   5.376  0.6708  0.6370  0.1458
  293MOL0     C38550   7.578   4.237   5.377 -0.5089 -0.5026  0.1640
  293MOL0     C38551   7.462   4.155   5.403 -0.4693 -0.6713 -0.6218
  293MOL0     O38552   7.337   4.203   5.407  0.3452  0.3408 -0.6248
  293MOL0     C38553   7.314   4.303   5.318 -0.2331 -0.9081 -0.8927
  293MOL0     C38554   7.164   4.313   5.295 -0.4478  0.0608  0.2057
  293MOL0     C38555   7.115   4.441   5.218 -0.0193 -0.6371  0.0859
  293MOL0     C38556   6.976   4.401   5.168 -0.3880 -0.0994 -0.7544
  293MOL0     C38557   6.872   4.501   5.113 -0.3128  0.0769  0.8909
  293MOL0     C38558   6.834   4.606   5.217 -1.0138 -0.6888  0.5017
  293MOL0     C38559   6.703   4.670   5.189  0.6365  1.1315 -0.3111
  293MOL0     C38560   6.692   4.777   5.303  0.3839  0.7756 -0.3435
  293MOL0     N38561   6.591   4.867   5.265  0.7251  0.4199  0.1943
  293MOL0     C38562   6.470   4.881   5.336  0.8545  0.5554  0.8908
  293MOL0     C38563   6.399   4.965   5.267 -0.6377  0.3214  0.9032
  293MOL0     C38564   6.264   5.011   5.303  1.3191 -0.8121  0.1972
  293MOL0     C38565   6.170   4.995   5.182 -0.0491  0.6051 -0.0225
  293MOL0     C38566   6.046   5.082   5.183 -0.2929 -0.4503 -0.8653
  293MOL0     C38567   5.930   5.041   5.260  0.8966 -0.3921 -0.2546
  293MOL0     O38568   5.861   4.938   5.197 -0.2072  0.3151  0.6162
  293MOL0     C38569   5.736   4.917   5.243  0.3677  0.9934  0.0458
  293MOL0     C38570   5.704   4.886   5.377  0.2286  0.5147  0.2191
  293MOL0     C38571   5.572   4.865   5.413 -0.1864  0.0301 -0.1852
  293MOL0     C38572   5.469   4.874   5.319  0.0451  0.1663  0.2820
  293MOL0     C38573   5.325   4.860   5.359 -0.4675  0.0972  0.0438
  293MOL0     O38574   5.299   4.788   5.472  1.3214  0.2671  0.0664
  293MOL0     C38575   5.170   4.790   5.517  0.2992  0.6624 -0.3334
  293MOL0     C38576   5.153   4.791   5.650  0.2309  1.1831  0.3333
  293MOL0     C38577   5.021   4.790   5.709 -1.0825  0.5713  0.6035
  293MOL0     C38578   4.913   4.785   5.633  1.0150  0.3487  0.3088
  293MOL0     O38579   4.784   4.799   5.683 -0.6979 -0.2637 -0.2470
  293MOL0     C38580   4.716   4.915   5.628  0.0955  0.9674  0.1725
  293MOL0     C38581   4.591   4.904   5.710  0.2342  0.6319 -0.3275
  293MOL0     C38582   4.499   5.030   5.686 -0.3443  0.2603 -0.4189
  293MOL0     C38583   4.358   4.996   5.718 -0.2063  0.5653 -0.0440
  293MOL0     C38584   4.328   4.974   5.866 -0.3909 -0.5762  0.0803
  293MOL0     C38585   4.175   4.963   5.896  1.0371 -0.9322  0.4346
  293MOL0     C38586   4.122   5.114   5.912  1.5226 -0.1865  0.9380
  293MOL0     C38587   4.068   5.139   6.051 -0.6524  0.6435 -0.0621
  293MOL0    Cl38588   3.933   5.039   6.086  0.2844  0.2331  0.3299
  293MOL0     C38589   4.927   4.778   5.490  0.3571  0.0176  0.0675
  293MOL0     C38590   5.052   4.771   5.438  0.8998 -0.9373 -0.0069
  293MOL0     O38591   5.241   4.908   5.286  0.3806 -0.1275  0.6608
  293MOL0     C38592   5.503   4.897   5.192 -0.6989  0.9303 -0.1463
  293MOL0     C38593   5.639   4.912   5.151  0.5250  0.3137  0.0713
  293MOL0     N38594   6.481   5.018   5.169 -0.0905  0.0971  0.4335
  293MOL0     N38595   6.596   4.964   5.167 -0.6369 -0.0351 -0.1302
  293MOL0     C38596   7.480   4.023   5.438 -0.5587  0.0363 -0.6803
  293MOL0     C38597   7.611   3.957   5.430 -0.2870 -0.7741  0.2517
  293MOL0     C38598   8.012   3.827   5.302  0.8334 -0.6084  0.0888
  293MOL0     C38599   8.089   3.802   5.422  0.8008  0.1101  0.7786
  293MOL0     C38600   8.211   3.731   5.398 -0.0538 -1.6467  0.9872
  293MOL0     C38601   8.235   3.666   5.282 -0.2641 -0.0630  0.7067
  293MOL0     O38602   8.358   3.617   5.247  0.2410 -0.8662  0.5942
  293MOL0     C38603   8.455   3.576   5.352 -0.2804 -0.8287 -0.3487
  293MOL0     C38604   8.565   3.679   5.388  0.2075  0.8579  0.7514
  293MOL0     C38605   8.671   3.682   5.274 -1.2145 -1.0580 -0.3976
  293MOL0     C38606   8.795   3.600   5.297 -0.3755  0.1217 -0.3017
  293MOL0     C38607   8.858   3.621   5.428 -0.2229  0.7595 -0.9159
  293MOL0     C38608   8.924   3.645   5.525  0.5761  0.3618 -0.4294
  293MOL0     C38609   8.145   3.672   5.176 -0.3161  0.0627 -0.9625
  293MOL0     C38610   8.029   3.754   5.182  0.1034 -0.3309 -0.2175
  293MOL0     H38611   7.787   4.249   5.360  2.2217 -1.3688 -1.7285
  293MOL0     H38612   7.575   4.345   5.368 -0.0842 -0.6764 -4.6234
  293MOL0     H38613   7.355   4.294   5.217 -3.7387  4.0686 -3.1976
  293MOL0     H38614   7.357   4.396   5.356 -0.3475 -0.3774 -2.0318
  293MOL0     H38615   7.122   4.305   5.396 -1.2895  1.5023 -0.0022
  293MOL0     H38616   7.128   4.225   5.240  0.7201 -0.0809 -0.3772
  293MOL0     H38617   7.169   4.470   5.128 -2.5301 -1.2967 -1.7538
  293MOL0     H38618   7.111   4.521   5.292 -3.1512 -0.9251  0.3813
  293MOL0     H38619   7.004   4.334   5.087  1.4059  0.6299 -0.7913
  293MOL0     H38620   6.928   4.355   5.255  0.8592 -0.9431 -0.4986
  293MOL0     H38621   6.787   4.436   5.090 -0.0264 -0.8158  2.2112
  293MOL0     H38622   6.900   4.556   5.023  2.2542 -2.1883  0.1592
  293MOL0     H38623   6.900   4.693   5.212 -3.8190  1.5956 -0.2088
  293MOL0     H38624   6.835   4.550   5.310  1.3299 -1.3551  0.1385
  293MOL0     H38625   6.696   4.702   5.084  1.5060 -4.6793 -2.5238
  293MOL0     H38626   6.627   4.593   5.208  1.1684  0.1702 -1.8832
  293MOL0     H38627   6.788   4.826   5.318  2.3075 -2.8534  0.1935
  293MOL0     H38628   6.678   4.728   5.400 -0.7109 -1.3077 -1.4957
  293MOL0     H38629   6.442   4.841   5.433  1.2414 -0.3634  0.6424
  293MOL0     H38630   6.272   5.118   5.322  1.8552 -1.2774  3.0028
  293MOL0     H38631   6.230   4.956   5.391  1.8971 -0.7474  0.4614
  293MOL0     H38632   6.161   4.887   5.163  0.1930  0.5340  0.2497
  293MOL0     H38633   6.225   5.033   5.096  0.3034 -1.1763 -0.6403
  293MOL0     H38634   6.076   5.179   5.222  1.1505 -0.9783 -0.6114
  293MOL0     H38635   6.021   5.092   5.077  1.0945 -1.7946 -1.3610
  293MOL0     H38636   5.867   5.130   5.268 -0.3403 -0.9140 -3.1578
  293MOL0     H38637   5.955   5.005   5.361 -1.8020 -0.4819  0.4670
  293MOL0     H38638   5.789   4.881   5.445  0.4339  2.9437  0.2225
  293MOL0     H38639   5.544   4.846   5.516 -0.5142  1.2140 -0.0330
  293MOL0     H38640   5.233   4.802   5.722  1.9153  4.6070 -1.7871
  293MOL0     H38641   5.008   4.775   5.816  1.0473 -0.7368  0.7616
  293MOL0     H38642   4.694   4.897   5.523 -0.0228  0.0876  0.3384
  293MOL0     H38643   4.771   5.009   5.640 -1.4400  1.7159  1.9241
  293MOL0     H38644   4.619   4.885   5.814  3.0368  1.3355 -0.8706
  293MOL0     H38645   4.548   4.807   5.683  4.9090 -2.3795  1.5494
  293MOL0     H38646   4.497   5.051   5.578  0.5449  2.0541 -0.1217
  293MOL0     H38647   4.536   5.110   5.751 -2.2694  0.0179  1.0882
  293MOL0     H38648   4.304   5.084   5.681  0.2237  0.9982  0.3469
  293MOL0     H38649   4.337   4.908   5.656  0.9822 -0.4943  0.9904
  293MOL0     H38650   4.370   5.050   5.931 -2.0556 -0.2610  0.8299
  293MOL0     H38651   4.373   4.878   5.893 -2.2821 -1.0474  1.7508
  293MOL0     H38652   4.161   4.912   5.992  1.5585 -1.9346 -0.0110
  293MOL0     H38653   4.122   4.911   5.815  1.6461  0.4481 -0.8875
  293MOL0     H38654   4.190   5.192   5.878 -0.7312  1.7489  0.6590
  293MOL0     H38655   4.033   5.124   5.848 -1.3219  1.7588  4.7753
  293MOL0     H38656   4.055   5.246   6.037  1.0668  0.7622 -0.9618
  293MOL0     H38657   4.134   5.124   6.137  0.5380  0.6296 -0.9638
  293MOL0     H38658   4.837   4.785   5.429 -0.0905  0.8186  0.7871
  293MOL0     H38659   5.064   4.755   5.331  2.3073 -0.0403 -0.0056
  293MOL0     H38660   5.427   4.901   5.114  0.3617 -1.5760 -1.4098
  293MOL0     H38661   5.656   4.927   5.045  1.6535 -3.9858 -0.5471
  293MOL0     H38662   7.400   3.962   5.477  0.1794 -0.8786 -0.5763
  293MOL0     H38663   7.631   3.855   5.460  3.3827  0.4936  2.7465
  293MOL0     H38664   8.077   3.858   5.513 -1.4167 -1.3035  1.4319
  293MOL0     H38665   8.290   3.738   5.473  2.1876 -0.6433 -1.2908
  293MOL0     H38666   8.495   3.479   5.321  1.0992 -1.2287  2.3340
  293MOL0     H38667   8.411   3.546   5.448 -0.4911  1.7362  0.4130
  293MOL0     H38668   8.523   3.780   5.390 -1.3000  0.2605  1.8120
  293MOL0     H38669   8.619   3.669   5.483  4.8405 -0.5235 -1.7103
  293MOL0     H38670   8.712   3.782   5.256  1.0669 -2.2868 -2.6372
  293MOL0     H38671   8.629   3.646   5.180 -1.2983 -1.9983 -0.0173
  293MOL0     H38672   8.770   3.493   5.300 -1.0256  0.2773  0.2829
  293MOL0     H38673   8.863   3.615   5.214  1.1027  0.4705  0.9367
  293MOL0     H38674   8.979   3.678   5.610 -0.7191  0.6779  0.3084
  293MOL0     H38675   8.164   3.623   5.081  2.1377 -1.4135  0.1937
  293MOL0     H38676   7.971   3.764   5.091 -0.2315 -0.6458 -0.0408
  294MOL0     O38677   3.553   8.591   9.551 -0.0792 -0.9960 -0.1037
  294MOL0     C38678   3.596   8.622   9.661 -0.2028 -0.7378  0.1008
  294MOL0     O38679   3.529   8.613   9.784  0.0589 -0.2874  0.0919
  294MOL0     C38680   3.406   8.651   9.808 -0.1977  0.1843 -1.0944
  294MOL0     C38681   3.379   8.785   9.803 -0.2704 -0.5190 -1.2310
  294MOL0     C38682   3.246   8.827   9.838 -0.4617 -0.1359 -0.5157
  294MOL0     C38683   3.147   8.726   9.853  0.1295 -1.3353 -0.6236
  294MOL0     O38684   3.020   8.763   9.881 -0.5038  0.4316 -0.1347
  294MOL0     C38685   2.938   8.675   9.953  0.1841  0.0880 -0.5628
  294MOL0     C38686   2.828   8.763  10.016 -0.2847 -0.1549  0.4554
  294MOL0     C38687   2.719   8.677  10.081  0.1427  0.6655 -0.2143
  294MOL0     C38688   2.776   8.574  10.181 -0.6797 -0.8532  0.3504
  294MOL0     C38689   2.679   8.531  10.294  0.4701  0.6912  0.2038
  294MOL0     C38690   2.558   8.451  10.236 -0.0274 -0.6554 -0.2534
  294MOL0     C38691   2.446   8.431  10.336  0.6588 -0.6577 -0.2535
  294MOL0     C38692   2.331   8.337  10.280 -0.0776  1.2538  1.2070
  294MOL0     N38693   2.250   8.412  10.172  0.8224 -0.3429 -0.2194
  294MOL0     C38694   2.286   8.436  10.041 -0.6757 -0.4817  0.1664
  294MOL0     C38695   2.203   8.540  10.006  0.4371 -0.3028  0.3658
  294MOL0     C38696   2.189   8.609   9.873  1.0656 -0.0039  0.0764
  294MOL0     C38697   2.291   8.723   9.865  0.1199  0.9696  0.4599
  294MOL0     C38698   2.309   8.779   9.724  0.1472 -0.5767 -0.0055
  294MOL0     C38699   2.185   8.791   9.637 -0.0547  1.0804  0.1051
  294MOL0     O38700   2.207   8.813   9.503  0.2512 -0.4016 -0.3225
  294MOL0     C38701   2.100   8.781   9.419  0.3175  0.1575 -0.4216
  294MOL0     C38702   1.999   8.878   9.393  0.7113  0.1616 -0.5674
  294MOL0     C38703   1.879   8.845   9.337  0.0493 -0.2517  0.2972
  294MOL0     C38704   1.858   8.711   9.294 -0.2052 -0.3188  0.2656
  294MOL0     C38705   1.734   8.685   9.223  0.7081  0.5091 -0.1744
  294MOL0     O38706   1.637   8.787   9.226 -0.0439 -0.5151  0.1792
  294MOL0     C38707   1.517   8.764   9.164 -0.6028  0.0427 -0.7734
  294MOL0     C38708   1.405   8.772   9.252  0.0785 -0.6757  0.3641
  294MOL0     C38709   1.277   8.728   9.210 -0.5166 -0.2482 -0.2105
  294MOL0     C38710   1.252   8.686   9.080 -0.6238  0.3866  0.0134
  294MOL0     O38711   1.125   8.648   9.037 -0.5430  0.7558 -0.4932
  294MOL0     C38712   1.075   8.684   8.908 -0.4362 -0.1386 -0.6327
  294MOL0     C38713   0.924   8.658   8.908  1.4999  0.6935  0.1673
  294MOL0     C38714   0.842   8.731   8.804 -0.1084 -0.9835 -1.0243
  294MOL0     C38715   0.709   8.666   8.793 -0.1068  0.5066  0.4393
  294MOL0     C38716   0.634   8.742   8.676  1.1594 -0.2298 -0.3322
  294MOL0     C38717   0.510   8.666   8.632  0.3426 -0.6835 -0.3074
  294MOL0     C38718   0.478   8.678   8.476 -0.3685  0.4110 -0.0101
  294MOL0     C38719   0.489   8.534   8.417 -0.1062 -0.8528  0.1138
  294MOL0    Cl38720   0.373   8.413   8.487 -0.0519  0.0343 -0.0505
  294MOL0     C38721   1.361   8.685   8.995 -0.0985  0.7608  0.4400
  294MOL0     C38722   1.495   8.716   9.037 -0.8127 -0.5231  0.3752
  294MOL0     O38723   1.735   8.580   9.156  0.0917 -0.3771 -0.4210
  294MOL0     C38724   1.961   8.617   9.309  0.1253 -0.2134  0.1612
  294MOL0     C38725   2.082   8.652   9.372  0.3895 -0.9165  0.8760
  294MOL0     N38726   2.108   8.561  10.104  0.1489 -0.4821 -0.4746
  294MOL0     N38727   2.144   8.497  10.208  0.1899  0.8937 -0.6574
  294MOL0     C38728   3.174   8.596   9.832 -0.7299  0.9540 -0.5857
  294MOL0     C38729   3.307   8.554   9.818 -0.3059 -0.1005  0.6068
  294MOL0     C38730   3.738   8.672   9.672 -0.2969  0.5006 -0.5040
  294MOL0     C38731   3.824   8.671   9.565  0.1318  0.6990  0.1622
  294MOL0     C38732   3.960   8.711   9.571  0.4764  0.0968 -0.3183
  294MOL0     C38733   4.011   8.764   9.690 -1.6029 -0.5619 -0.6326
  294MOL0     O38734   4.146   8.790   9.690 -0.1460 -0.3589 -0.3759
  294MOL0     C38735   4.214   8.839   9.816 -0.0775  0.8485  0.2703
  294MOL0     C38736   4.367   8.822   9.809  1.6077  0.0888  0.1689
  294MOL0     C38737   4.406   8.674   9.831 -0.2608  1.0936 -0.6247
  294MOL0     C38738   4.404   8.631   9.986  0.0514  0.1780 -0.6038
  294MOL0     C38739   4.435   8.486   9.997  0.3194 -1.1562 -0.7462
  294MOL0     C38740   4.447   8.368   9.976 -0.2708  0.8690  0.2720
  294MOL0     C38741   3.916   8.783   9.797 -0.0577 -1.3594  0.6167
  294MOL0     C38742   3.782   8.745   9.780  0.4890 -0.6341 -0.3730
  294MOL0     H38743   3.451   8.859   9.768  0.4261  1.1050  3.0058
  294MOL0     H38744   3.213   8.930   9.834  1.6212  0.5837 -0.1820
  294MOL0     H38745   3.000   8.620  10.024 -0.4889  1.8001  1.4530
  294MOL0     H38746   2.884   8.599   9.896 -0.5184  0.0662  0.1111
  294MOL0     H38747   2.787   8.831   9.940 -0.2803 -1.7510 -1.0240
  294MOL0     H38748   2.875   8.825  10.093  0.3576  1.2090 -0.9804
  294MOL0     H38749   2.665   8.618  10.007 -3.7749  0.0700  2.7918
  294MOL0     H38750   2.643   8.735  10.134 -0.5676  0.4858 -1.0172
  294MOL0     H38751   2.806   8.483  10.128 -4.3864 -0.9499 -1.9071
  294MOL0     H38752   2.861   8.628  10.224  0.0484 -0.2042 -1.7651
  294MOL0     H38753   2.637   8.627  10.327  3.0193  2.2423 -0.7994
  294MOL0     H38754   2.733   8.478  10.372 -3.6105  0.1609  2.9855
  294MOL0     H38755   2.590   8.350  10.210 -1.0847 -1.1572  0.3707
  294MOL0     H38756   2.526   8.500  10.144 -1.2510 -1.3617 -0.2236
  294MOL0     H38757   2.487   8.374  10.419  0.5159  3.6814  3.1701
  294MOL0     H38758   2.412   8.529  10.372 -1.0996 -0.3032 -2.6704
  294MOL0     H38759   2.274   8.297  10.364  2.3304  0.0787  2.3782
  294MOL0     H38760   2.371   8.252  10.225 -2.2665  2.3751 -2.4262
  294MOL0     H38761   2.360   8.379   9.987 -0.6938  1.6842 -2.3750
  294MOL0     H38762   2.086   8.641   9.854  0.4795 -1.2533  1.0210
  294MOL0     H38763   2.219   8.538   9.795  2.8619  2.3430 -1.5404
  294MOL0     H38764   2.394   8.694   9.890  1.2016  1.4880 -2.9323
  294MOL0     H38765   2.273   8.805   9.935 -0.7570  1.7555 -0.6587
  294MOL0     H38766   2.356   8.878   9.731  0.2773 -0.5612 -1.0020
  294MOL0     H38767   2.385   8.716   9.676 -1.4470 -2.2428 -0.4433
  294MOL0     H38768   2.108   8.860   9.671 -0.2651  1.3360 -0.8792
  294MOL0     H38769   2.141   8.691   9.641  1.8463  0.2223  1.9534
  294MOL0     H38770   2.020   8.982   9.414  1.3839 -0.1853  0.5987
  294MOL0     H38771   1.804   8.924   9.328  1.8237  1.3163 -1.7243
  294MOL0     H38772   1.416   8.806   9.354 -1.5876 -2.4659  1.2281
  294MOL0     H38773   1.194   8.746   9.278 -1.3430 -2.0542 -0.6793
  294MOL0     H38774   1.116   8.626   8.825  0.3749 -0.7835  0.1969
  294MOL0     H38775   1.086   8.792   8.893  2.0153 -0.1875  0.3258
  294MOL0     H38776   0.877   8.686   9.003 -0.3421  4.6371 -1.6589
  294MOL0     H38777   0.909   8.550   8.901 -0.7619  0.6306  3.6877
  294MOL0     H38778   0.891   8.703   8.711  0.2758 -0.2033 -1.0651
  294MOL0     H38779   0.840   8.840   8.813  0.1378 -1.0892  0.6010
  294MOL0     H38780   0.720   8.562   8.760 -0.2270  0.3212  0.9709
  294MOL0     H38781   0.655   8.681   8.887  1.9582  1.6169  1.5080
  294MOL0     H38782   0.702   8.761   8.592  0.0141  0.4177 -1.1375
  294MOL0     H38783   0.594   8.840   8.704 -2.0620 -1.9228  1.6518
  294MOL0     H38784   0.435   8.712   8.698  1.2541 -0.7273  0.7996
  294MOL0     H38785   0.521   8.566   8.675  0.5563 -0.4429  0.2069
  294MOL0     H38786   0.376   8.713   8.458 -1.0555 -1.4414  0.1489
  294MOL0     H38787   0.554   8.741   8.429 -0.4624  0.4609 -0.0940
  294MOL0     H38788   0.590   8.501   8.441  0.0625  0.5877  1.6218
  294MOL0     H38789   0.481   8.537   8.308 -2.9960 -0.2086  0.2373
  294MOL0     H38790   1.342   8.634   8.901 -0.2202  0.6487  0.5252
  294MOL0     H38791   1.581   8.692   8.976 -2.0311 -2.3069 -0.7661
  294MOL0     H38792   1.943   8.513   9.283 -1.3025 -0.3034  1.4084
  294MOL0     H38793   2.161   8.578   9.379  0.1736 -1.0894  1.5384
  294MOL0     H38794   3.099   8.517   9.838 -1.5435  1.4467 -3.0398
  294MOL0     H38795   3.335   8.449   9.819  0.7781  0.1343  2.7973
  294MOL0     H38796   3.796   8.640   9.464 -1.1980  0.1165  0.6848
  294MOL0     H38797   4.022   8.719   9.483  0.8173 -2.1779 -0.3408
  294MOL0     H38798   4.182   8.793   9.910  0.6618  2.2446  1.2329
  294MOL0     H38799   4.180   8.942   9.826  2.5388  1.6570  1.7558
  294MOL0     H38800   4.408   8.863   9.716 -0.3384  3.1892  0.5303
  294MOL0     H38801   4.410   8.889   9.885  1.6585 -0.8845  1.0097
  294MOL0     H38802   4.510   8.668   9.797 -0.1392  0.0085 -0.1217
  294MOL0     H38803   4.338   8.607   9.777 -0.2964  1.8315 -1.5120
  294MOL0     H38804   4.480   8.690  10.038 -1.0715 -0.0167  1.3689
  294MOL0     H38805   4.313   8.652  10.043  0.8670 -1.0417  1.2262
  294MOL0     H38806   4.437   8.262   9.964 -2.6715  0.7429  2.3672
  294MOL0     H38807   3.945   8.835   9.888 -1.3089  1.3442 -0.4207
  294MOL0     H38808   3.706   8.772   9.852  1.3291  1.0579 -0.0671
  295MOL0     O38809   4.828   0.198   6.888  0.2879 -0.0160 -0.2713
  295MOL0     C38810   4.728   0.262   6.850  0.0353 -0.2863 -0.3463
  295MOL0     O38811   4.717   0.399   6.853  0.3814  0.9769  0.0195
  295MOL0     C38812   4.820   0.485   6.872 -1.1976 -0.4819 -0.5017
  295MOL0     C38813   4.786   0.624   6.882  0.0121 -0.3719  0.0174
  295MOL0     C38814   4.893   0.716   6.904 -0.5264  0.1469 -0.2487
  295MOL0     C38815   5.027   0.684   6.895  0.0725 -0.6588 -0.0932
  295MOL0     O38816   5.121   0.777   6.908 -0.2124  0.1908 -0.2644
  295MOL0     C38817   5.222   0.779   6.812 -0.5735  0.6467 -0.0964
  295MOL0     C38818   5.283   0.917   6.818  0.0630  0.6992 -1.0363
  295MOL0     C38819   5.413   0.906   6.732 -1.2016  0.4328 -0.3297
  295MOL0     C38820   5.514   0.808   6.802  0.1524 -0.3476 -0.3489
  295MOL0     C38821   5.660   0.834   6.770 -0.3162  0.9944  0.5919
  295MOL0     C38822   5.689   0.809   6.625 -0.3257 -0.2015  0.2229
  295MOL0     C38823   5.817   0.894   6.579  0.0850 -0.4173 -0.0027
  295MOL0     C38824   5.796   1.044   6.534  0.9116 -0.0840 -0.6224
  295MOL0     N38825   5.877   1.074   6.417  0.3205  0.2609  0.1726
  295MOL0     C38826   6.010   1.037   6.408  0.0477 -0.1864 -0.1244
  295MOL0     C38827   6.048   1.092   6.293  0.0764  0.3485  0.3076
  295MOL0     C38828   6.180   1.090   6.224 -0.2733  0.5347  1.3008
  295MOL0     C38829   6.289   1.130   6.328  0.0963  0.8709  0.4445
  295MOL0     C38830   6.419   1.140   6.252 -1.4467  0.1501 -0.3806
  295MOL0     C38831   6.539   1.184   6.334  0.0866 -0.3393  0.1411
  295MOL0     O38832   6.583   1.060   6.398  0.7205 -0.2793 -0.1411
  295MOL0     C38833   6.719   1.041   6.420  0.4640 -0.2327  0.1313
  295MOL0     C38834   6.753   0.922   6.478  0.0498  0.2679 -0.7430
  295MOL0     C38835   6.886   0.887   6.503  0.7404 -0.3600 -0.7779
  295MOL0     C38836   6.987   0.975   6.469  0.6673 -0.0539 -0.1821
  295MOL0     C38837   7.124   0.946   6.503  0.2240  0.4590  1.0859
  295MOL0     O38838   7.150   0.833   6.577 -0.0924 -0.3433  0.4529
  295MOL0     C38839   7.279   0.823   6.627  0.0619  0.0270  0.8116
  295MOL0     C38840   7.358   0.712   6.579 -0.4970 -0.5605  0.7277
  295MOL0     C38841   7.483   0.698   6.640  0.0549 -0.2367  0.0613
  295MOL0     C38842   7.530   0.780   6.748 -0.5988  0.7480  0.2382
  295MOL0     O38843   7.666   0.753   6.784  0.6019  0.7631 -0.1226
  295MOL0     C38844   7.738   0.852   6.857  1.1970 -0.6621 -0.0283
  295MOL0     C38845   7.885   0.808   6.847 -0.3846  0.3805 -0.4148
  295MOL0     C38846   7.989   0.898   6.919  0.1683 -0.8729  0.4582
  295MOL0     C38847   8.131   0.840   6.948  0.1496 -0.2511  0.8975
  295MOL0     C38848   8.203   0.801   6.818  0.0472 -0.6133  0.4112
  295MOL0     C38849   8.348   0.751   6.847  0.5571 -0.0253 -0.5079
  295MOL0     C38850   8.413   0.722   6.714  0.4421  0.4486 -0.0752
  295MOL0     C38851   8.547   0.653   6.737 -0.5347  0.2045  0.7610
  295MOL0    Cl38852   8.615   0.622   6.575  0.2904  0.3754  0.4398
  295MOL0     C38853   7.451   0.882   6.789 -0.6340  0.3181 -0.0386
  295MOL0     C38854   7.326   0.901   6.728 -0.2732  0.0141 -0.1839
  295MOL0     O38855   7.210   1.003   6.437 -0.3757 -0.3728 -0.5428
  295MOL0     C38856   6.949   1.093   6.405  0.4509 -0.7264  0.0209
  295MOL0     C38857   6.820   1.122   6.376  0.1354 -0.3879  0.5698
  295MOL0     N38858   5.943   1.173   6.246 -0.3797  0.1457  0.5819
  295MOL0     N38859   5.844   1.161   6.312  0.8310  0.8733 -0.1881
  295MOL0     C38860   5.058   0.547   6.879 -0.3256 -0.5042 -0.3768
  295MOL0     C38861   4.957   0.450   6.867 -0.4242 -0.2328  0.1587
  295MOL0     C38862   4.598   0.191   6.833  0.7440  0.0293  0.0650
  295MOL0     C38863   4.602   0.054   6.808  0.6780 -0.2920 -1.2401
  295MOL0     C38864   4.482  -0.010   6.797  0.6234  0.0349 -0.7484
  295MOL0     C38865   4.355   0.053   6.798 -0.1597 -0.4624 -0.6472
  295MOL0     O38866   4.238  -0.019   6.785  0.4122 -0.5855 -0.0609
  295MOL0     C38867   4.112   0.034   6.820  0.0104  0.3143 -0.6103
  295MOL0     C38868   4.017  -0.096   6.800  0.5869 -0.5020  0.2268
  295MOL0     C38869   3.884  -0.091   6.883  0.0729 -0.4649  0.0510
  295MOL0     C38870   3.762  -0.164   6.825 -0.7185 -0.0228  0.0911
  295MOL0     C38871   3.641  -0.116   6.881  0.0571 -1.0249  0.8796
  295MOL0     C38872   3.550  -0.068   6.945 -0.9544  0.3183  0.5558
  295MOL0     C38873   4.351   0.192   6.815 -0.7069  0.5302  0.7476
  295MOL0     C38874   4.474   0.262   6.828  0.1808  0.5340  0.2991
  295MOL0     H38875   4.684   0.660   6.893  0.8337  1.8122  1.1351
  295MOL0     H38876   4.869   0.816   6.938 -0.3537 -0.3520  1.4743
  295MOL0     H38877   5.186   0.759   6.710 -2.2532  4.5122 -0.4429
  295MOL0     H38878   5.281   0.695   6.850 -0.2428  1.1252  0.4578
  295MOL0     H38879   5.309   0.951   6.919  0.7334 -0.9508 -0.6140
  295MOL0     H38880   5.211   0.989   6.777 -0.8910  0.2589 -0.1743
  295MOL0     H38881   5.464   1.002   6.730 -0.8442  0.3301  1.8150
  295MOL0     H38882   5.392   0.885   6.627 -1.0986  1.8400 -0.6472
  295MOL0     H38883   5.516   0.804   6.911  3.3625  1.6242 -0.2029
  295MOL0     H38884   5.495   0.706   6.766  1.3805 -0.8886  0.4843
  295MOL0     H38885   5.715   0.766   6.835  0.5237  1.5345  0.4710
  295MOL0     H38886   5.678   0.939   6.796 -1.0443  0.8961  1.5066
  295MOL0     H38887   5.611   0.836   6.553 -0.7635 -1.1162  0.3539
  295MOL0     H38888   5.717   0.703   6.622 -1.3044 -0.4951  1.0685
  295MOL0     H38889   5.896   0.887   6.654  2.0686  2.3431 -1.6130
  295MOL0     H38890   5.865   0.839   6.497  1.9825  0.0417  0.7422
  295MOL0     H38891   5.814   1.114   6.616 -0.6986  0.5969 -0.7939
  295MOL0     H38892   5.695   1.057   6.493  0.3577  0.2060  0.7661
  295MOL0     H38893   6.074   0.969   6.462 -0.6073  0.5717  1.6692
  295MOL0     H38894   6.173   1.156   6.137 -1.9133 -1.0883  0.1059
  295MOL0     H38895   6.200   0.989   6.185  1.1439  1.3229 -0.1423
  295MOL0     H38896   6.312   1.059   6.408  0.2103  2.2711  1.7055
  295MOL0     H38897   6.253   1.226   6.366 -0.3508  1.3824 -1.2134
  295MOL0     H38898   6.444   1.042   6.211  2.9022  0.1826  1.5804
  295MOL0     H38899   6.412   1.205   6.164 -2.9493  1.6446  0.7969
  295MOL0     H38900   6.507   1.257   6.408 -0.3878  0.0689 -0.4537
  295MOL0     H38901   6.616   1.229   6.270  0.1676 -1.6678 -0.7513
  295MOL0     H38902   6.667   0.860   6.502  0.0509  0.2279 -0.8442
  295MOL0     H38903   6.910   0.801   6.565  1.9915 -2.0334 -3.3890
  295MOL0     H38904   7.319   0.640   6.507  2.8560 -0.5423 -1.3260
  295MOL0     H38905   7.545   0.622   6.594  0.4909  1.4295 -2.3154
  295MOL0     H38906   7.699   0.868   6.957 -0.9289  1.9942 -1.1651
  295MOL0     H38907   7.726   0.947   6.804 -0.5866 -0.1139  1.2985
  295MOL0     H38908   7.916   0.791   6.743  4.1011  0.4468  0.6710
  295MOL0     H38909   7.898   0.718   6.907  1.3235  2.3791  2.4321
  295MOL0     H38910   7.948   0.925   7.016  0.7832 -1.0032  0.7612
  295MOL0     H38911   7.997   0.993   6.865 -2.8128 -0.3236  0.8396
  295MOL0     H38912   8.178   0.922   7.003  0.2987 -0.4963  1.1349
  295MOL0     H38913   8.124   0.747   7.005 -1.9191 -0.7745 -0.1098
  295MOL0     H38914   8.207   0.878   6.740 -1.9823 -1.7039 -0.8349
  295MOL0     H38915   8.147   0.717   6.776 -0.3721 -1.3020  2.2894
  295MOL0     H38916   8.354   0.661   6.908  0.2382  0.3755  0.1228
  295MOL0     H38917   8.392   0.837   6.897 -1.6021 -0.6251  2.7298
  295MOL0     H38918   8.351   0.650   6.660  0.9746  1.8049 -2.6906
  295MOL0     H38919   8.428   0.816   6.659  0.3550  1.2696  1.2645
  295MOL0     H38920   8.525   0.559   6.789  1.6030 -0.3340  0.7814
  295MOL0     H38921   8.622   0.712   6.790  1.6168  1.0272 -2.8080
  295MOL0     H38922   7.479   0.959   6.860 -1.2518 -0.6087  1.2516
  295MOL0     H38923   7.266   0.983   6.766 -3.3471 -2.6205  1.1574
  295MOL0     H38924   7.017   1.178   6.400 -1.9515  1.2926  0.1997
  295MOL0     H38925   6.797   1.208   6.314 -0.6518 -0.3658  0.8829
  295MOL0     H38926   5.157   0.504   6.883 -0.0579  0.1858  0.7625
  295MOL0     H38927   4.999   0.351   6.856  1.7518  0.8374 -2.5309
  295MOL0     H38928   4.695  -0.001   6.794  0.5449 -0.4684 -1.4423
  295MOL0     H38929   4.497  -0.118   6.798  1.4834  0.1422  0.9284
  295MOL0     H38930   4.083   0.108   6.745  0.9175 -0.8225 -2.1477
  295MOL0     H38931   4.107   0.070   6.923 -0.7923 -0.8653 -0.2089
  295MOL0     H38932   3.997  -0.116   6.694 -0.4105 -0.8483  0.4709
  295MOL0     H38933   4.072  -0.186   6.830  2.1947  0.2136 -0.4612
  295MOL0     H38934   3.859   0.015   6.899 -1.3256 -1.0049  1.6881
  295MOL0     H38935   3.897  -0.142   6.978 -0.4969 -0.6016  0.0599
  295MOL0     H38936   3.746  -0.143   6.719 -0.5858 -1.2494 -0.1865
  295MOL0     H38937   3.772  -0.272   6.841 -2.1151 -0.0862  0.7301
  295MOL0     H38938   3.469  -0.026   7.001 -1.7811  2.7449 -2.2035
  295MOL0     H38939   4.258   0.246   6.801 -2.3031 -2.0244  0.8319
  295MOL0     H38940   4.475   0.370   6.835 -1.0661  0.6394 -0.8166
  296MOL0     O38941   3.945   4.330  10.456 -0.3825 -0.7819 -1.2129
  296MOL0     C38942   3.974   4.381  10.349  0.0784 -0.5265 -0.4280
  296MOL0     O38943   3.886   4.420  10.251 -0.4046 -0.0355 -0.0483
  296MOL0     C38944   3.762   4.448  10.295 -0.9689 -0.1099 -0.6618
  296MOL0     C38945   3.739   4.541  10.401 -0.7101 -0.0572  0.0766
  296MOL0     C38946   3.607   4.567  10.441  0.0892 -0.4216  0.9186
  296MOL0     C38947   3.497   4.523  10.365 -0.6267 -0.7243 -1.0267
  296MOL0     O38948   3.375   4.556  10.407  0.0144  0.2622  0.6671
  296MOL0     C38949   3.273   4.574  10.303  0.4648 -1.1401 -0.8493
  296MOL0     C38950   3.151   4.623  10.375 -0.2192 -0.3271 -0.5025
  296MOL0     C38951   3.151   4.771  10.417 -0.5033 -0.8635 -0.9121
  296MOL0     C38952   3.177   4.868  10.300 -0.2558 -0.2436 -0.4216
  296MOL0     C38953   3.197   5.019  10.320  0.6190  0.0720  0.7005
  296MOL0     C38954   3.338   5.039  10.373 -0.4668  0.1038 -0.5378
  296MOL0     C38955   3.374   5.179  10.346 -0.7383  0.1522 -0.0829
  296MOL0     C38956   3.304   5.283  10.438 -0.3017  0.4334  0.2964
  296MOL0     N38957   3.351   5.266  10.577 -0.2724  0.0835  0.0440
  296MOL0     C38958   3.276   5.201  10.671  0.7472 -1.3957  0.1161
  296MOL0     C38959   3.346   5.199  10.780  1.2909  0.5832 -0.6848
  296MOL0     C38960   3.296   5.138  10.906 -0.4509  0.1053 -0.4732
  296MOL0     C38961   3.303   4.986  10.925 -0.2776  0.2016  0.8674
  296MOL0     C38962   3.266   4.896  10.806 -0.2467 -0.5352 -0.0747
  296MOL0     C38963   3.294   4.755  10.850 -0.1029  0.0676  1.0548
  296MOL0     O38964   3.189   4.729  10.949 -0.1225  0.1666 -0.2775
  296MOL0     C38965   3.057   4.693  10.919 -0.2445 -0.0254 -0.2364
  296MOL0     C38966   3.004   4.701  10.786  0.9127  0.6854 -0.6784
  296MOL0     C38967   2.865   4.684  10.751 -0.0057  0.0776  0.0017
  296MOL0     C38968   2.780   4.652  10.854  0.3089 -0.0969  0.1700
  296MOL0     C38969   2.637   4.624  10.824 -0.7048  0.3397  0.3643
  296MOL0     O38970   2.592   4.634  10.695 -0.1339 -0.2542 -0.6085
  296MOL0     C38971   2.457   4.623  10.682  0.5646  0.6422  0.5037
  296MOL0     C38972   2.404   4.497  10.657  0.3135 -0.2778 -0.6223
  296MOL0     C38973   2.269   4.475  10.652  0.6888  0.0294  0.6405
  296MOL0     C38974   2.177   4.579  10.676 -0.3456 -0.1077  0.9152
  296MOL0     O38975   2.042   4.565  10.655  0.6613  0.0882 -0.2593
  296MOL0     C38976   1.962   4.666  10.712  0.6293  0.5167  0.9323
  296MOL0     C38977   1.821   4.609  10.730  0.4314 -0.0980 -0.1866
  296MOL0     C38978   1.816   4.507  10.845 -0.1587  0.1537  0.7900
  296MOL0     C38979   1.668   4.457  10.854 -0.3027 -0.0190 -0.6677
  296MOL0     C38980   1.564   4.567  10.843  0.1215  0.2219  0.0149
  296MOL0     C38981   1.425   4.509  10.887  0.4289 -0.1846  0.0269
  296MOL0     C38982   1.304   4.588  10.840  0.8358 -0.3572 -0.3304
  296MOL0     C38983   1.177   4.498  10.824 -0.1983 -0.4746 -0.1333
  296MOL0    Cl38984   1.059   4.606  10.776  0.2300  0.3447 -0.2155
  296MOL0     C38985   2.235   4.714  10.685  0.7255 -0.6059  0.7668
  296MOL0     C38986   2.369   4.730  10.681  0.0446 -0.4272 -0.9807
  296MOL0     O38987   2.569   4.585  10.918  0.3443  0.5037  0.0134
  296MOL0     C38988   2.827   4.642  10.987  0.0483 -0.1344  0.2571
  296MOL0     C38989   2.959   4.656  11.015 -0.2300  0.0505  0.2375
  296MOL0     N38990   3.468   5.236  10.748 -0.3167  0.0511  0.2811
  296MOL0     N38991   3.467   5.291  10.634 -0.3297  0.5006  0.0118
  296MOL0     C38992   3.529   4.435  10.260 -0.1698  0.3108  0.5831
  296MOL0     C38993   3.654   4.406  10.222  0.5262  0.2564  0.3058
  296MOL0     C38994   4.118   4.391  10.316 -0.0678 -0.4402 -0.2408
  296MOL0     C38995   4.213   4.442  10.402 -0.2273  0.2625  0.0852
  296MOL0     C38996   4.348   4.448  10.358 -0.2879 -0.6911 -0.7043
  296MOL0     C38997   4.389   4.418  10.232 -0.1383  0.0459  0.6986
  296MOL0     O38998   4.516   4.437  10.201 -0.1007  0.5581 -0.1316
  296MOL0     C38999   4.571   4.427  10.068 -0.1808  0.5800 -0.4467
  296MOL0     C39000   4.644   4.293  10.050  0.3614  0.2190 -0.3890
  296MOL0     C39001   4.731   4.271  10.172  0.2340 -0.2963  0.5646
  296MOL0     C39002   4.832   4.152  10.157  0.3320  0.7296 -0.1549
  296MOL0     C39003   4.934   4.177  10.255 -0.5397  0.1299  1.2990
  296MOL0     C39004   5.027   4.184  10.333 -0.1132 -0.1745 -0.5477
  296MOL0     C39005   4.294   4.357  10.145  0.3553 -0.2152  0.7883
  296MOL0     C39006   4.159   4.352  10.187  0.1172 -0.4609  0.4233
  296MOL0     H39007   3.821   4.581  10.461 -3.3762  0.8515  3.4361
  296MOL0     H39008   3.598   4.635  10.524 -0.0137  2.3452 -1.2213
  296MOL0     H39009   3.257   4.479  10.252  2.4890 -0.7828 -2.2741
  296MOL0     H39010   3.306   4.649  10.231 -1.2116  1.4830  0.9351
  296MOL0     H39011   3.129   4.569  10.468  1.6595  1.7117  1.2312
  296MOL0     H39012   3.063   4.602  10.314 -2.5671 -2.0152  3.0812
  296MOL0     H39013   3.220   4.795  10.499  0.4840 -4.6356 -0.4105
  296MOL0     H39014   3.049   4.794  10.449  0.6618  2.5478  0.8709
  296MOL0     H39015   3.265   4.832  10.246  1.1457  0.1170  1.5050
  296MOL0     H39016   3.094   4.851  10.230  0.7244  0.8135 -1.9038
  296MOL0     H39017   3.115   5.057  10.381  0.2472 -0.7800  0.7453
  296MOL0     H39018   3.184   5.049  10.215  0.4849  2.0170  1.2325
  296MOL0     H39019   3.399   4.964  10.323 -1.6848 -0.4001 -1.3077
  296MOL0     H39020   3.353   5.018  10.480  5.1754 -2.1215 -1.4055
  296MOL0     H39021   3.482   5.188  10.361 -0.6348 -1.8867  0.7428
  296MOL0     H39022   3.345   5.206  10.244 -1.7299 -1.3685 -0.2424
  296MOL0     H39023   3.196   5.280  10.428 -0.1801  0.5045 -1.2832
  296MOL0     H39024   3.326   5.386  10.408  0.6774 -0.1179 -0.9923
  296MOL0     H39025   3.173   5.174  10.651  0.6203 -0.4701 -0.5303
  296MOL0     H39026   3.188   5.154  10.915 -0.8609 -1.2950 -2.3335
  296MOL0     H39027   3.331   5.198  10.990 -3.0479  1.2298 -0.0843
  296MOL0     H39028   3.235   4.961  11.007 -1.0383  2.0397  0.8575
  296MOL0     H39029   3.402   4.950  10.953  0.4539  1.7039  0.3178
  296MOL0     H39030   3.161   4.917  10.781 -0.2290 -1.8376 -1.4081
  296MOL0     H39031   3.330   4.919  10.721 -1.3873  2.4994 -0.2489
  296MOL0     H39032   3.394   4.727  10.886 -1.1976 -3.4845  1.6883
  296MOL0     H39033   3.281   4.686  10.766 -1.1597  1.0244  0.4041
  296MOL0     H39034   3.064   4.734  10.702 -2.1312  3.8493 -1.8540
  296MOL0     H39035   2.830   4.690  10.648 -1.6201 -0.8127  0.4724
  296MOL0     H39036   2.485   4.426  10.642  0.5956 -0.3490  1.0787
  296MOL0     H39037   2.234   4.374  10.634 -1.9523  0.7311  1.4694
  296MOL0     H39038   1.955   4.743  10.635  2.8198  0.9635  1.1173
  296MOL0     H39039   1.999   4.718  10.801  1.9761  0.2736  0.5460
  296MOL0     H39040   1.770   4.572  10.640 -3.1051 -0.1498  1.6626
  296MOL0     H39041   1.763   4.693  10.769  0.5976 -0.9493  2.0493
  296MOL0     H39042   1.845   4.569  10.930  2.2235  2.5819 -1.6149
  296MOL0     H39043   1.885   4.425  10.824  1.8060  2.3838 -2.2687
  296MOL0     H39044   1.663   4.382  10.775  3.6822  1.8926 -3.0561
  296MOL0     H39045   1.662   4.401  10.948 -2.3015  0.4043 -0.4980
  296MOL0     H39046   1.567   4.596  10.738 -0.4490  2.2986  0.5170
  296MOL0     H39047   1.602   4.643  10.912  0.6682  0.2426 -0.3044
  296MOL0     H39048   1.423   4.492  10.995 -0.4956  0.0733  0.0653
  296MOL0     H39049   1.431   4.407  10.848  5.1543 -1.1167  2.5717
  296MOL0     H39050   1.290   4.675  10.905  4.1364 -1.3408  1.9714
  296MOL0     H39051   1.324   4.622  10.738 -0.8863  0.9586 -0.2761
  296MOL0     H39052   1.151   4.442  10.914  0.6854 -0.8495 -0.1011
  296MOL0     H39053   1.199   4.428  10.744  0.2423 -2.5407  1.7054
  296MOL0     H39054   2.165   4.796  10.691 -0.7281 -1.6229 -1.1867
  296MOL0     H39055   2.407   4.830  10.701  2.1291 -0.8341 -2.5439
  296MOL0     H39056   2.758   4.629  11.070  0.5548  0.7417  0.8425
  296MOL0     H39057   2.982   4.677  11.119 -1.0046 -3.7626  1.3321
  296MOL0     H39058   3.448   4.381  10.212  0.8875 -2.9895  2.1844
  296MOL0     H39059   3.673   4.348  10.132 -2.5050 -1.4344  0.6104
  296MOL0     H39060   4.179   4.470  10.501  2.9557  2.6376  0.6805
  296MOL0     H39061   4.424   4.485  10.426 -2.0916  0.5965  0.7114
  296MOL0     H39062   4.637   4.514  10.061  1.3446 -0.3698  1.1401
  296MOL0     H39063   4.501   4.443   9.986  0.1117 -3.7543 -1.8210
  296MOL0     H39064   4.564   4.219  10.058  0.3059  0.4610  1.9446
  296MOL0     H39065   4.696   4.293   9.954 -1.4504  3.8338 -1.5756
  296MOL0     H39066   4.673   4.238  10.259 -2.5880  2.7956  0.0832
  296MOL0     H39067   4.789   4.362  10.193  0.5175 -0.2463 -0.3895
  296MOL0     H39068   4.791   4.051  10.158  1.2720  0.3016 -1.7524
  296MOL0     H39069   4.879   4.159  10.059 -0.2024 -1.2435 -0.5917
  296MOL0     H39070   5.098   4.214  10.407 -1.1898  2.7429 -0.5230
  296MOL0     H39071   4.312   4.340  10.040 -1.0829  4.5903 -0.4770
  296MOL0     H39072   4.091   4.311  10.113  0.7161  0.4225 -0.6453
  297MOL0     O39073   3.353   2.809   9.424 -0.3147  0.3255  0.1296
  297MOL0     C39074   3.316   2.916   9.382 -1.2771  0.3826 -0.4106
  297MOL0     O39075   3.403   2.997   9.311 -0.5171  0.5320  0.2233
  297MOL0     C39076   3.523   2.944   9.270  0.1534  0.2169  0.6788
  297MOL0     C39077   3.548   2.912   9.133 -0.3052  0.4025 -0.3283
  297MOL0     C39078   3.677   2.855   9.084 -0.1750 -0.3451  0.0705
  297MOL0     C39079   3.778   2.834   9.175 -0.8575  0.9594 -0.8350
  297MOL0     O39080   3.906   2.783   9.140  0.3321  0.2891 -0.2981
  297MOL0     C39081   3.927   2.679   9.050 -0.2939  0.0871  1.1060
  297MOL0     C39082   4.073   2.668   9.040 -0.4050 -0.3613  0.6212
  297MOL0     C39083   4.147   2.655   9.174  0.1227 -0.7674 -0.7214
  297MOL0     C39084   4.289   2.606   9.151 -0.5196  0.3255  0.6079
  297MOL0     C39085   4.360   2.591   9.287  0.0737  1.5073  0.5976
  297MOL0     C39086   4.467   2.474   9.272 -0.6985 -0.8597  0.4894
  297MOL0     C39087   4.571   2.469   9.165 -0.0687  0.2745  1.6881
  297MOL0     C39088   4.681   2.373   9.212 -0.3964 -0.2364 -0.3949
  297MOL0     N39089   4.639   2.243   9.251  0.5391  0.2753  0.1364
  297MOL0     C39090   4.679   2.163   9.359 -0.6041  0.2977  0.1844
  297MOL0     C39091   4.648   2.036   9.324 -0.3186  0.2701 -0.4172
  297MOL0     C39092   4.676   1.903   9.389  0.3921  0.3338 -0.2153
  297MOL0     C39093   4.581   1.894   9.511 -0.6076  0.3640 -0.3678
  297MOL0     C39094   4.553   1.757   9.570 -0.6403  0.3737 -0.2113
  297MOL0     C39095   4.672   1.651   9.569 -0.2727 -0.7295 -0.1658
  297MOL0     O39096   4.638   1.513   9.598  0.1960 -0.7426  0.5516
  297MOL0     C39097   4.739   1.423   9.630  0.5352 -0.3156 -0.1415
  297MOL0     C39098   4.873   1.448   9.589  0.7133  1.0837  0.0314
  297MOL0     C39099   4.971   1.344   9.606 -0.1490 -0.0629 -0.4725
  297MOL0     C39100   4.938   1.222   9.672 -0.0141  0.1343  0.0051
  297MOL0     C39101   5.031   1.111   9.701  0.6492  0.2959  0.3535
  297MOL0     O39102   5.164   1.140   9.730  0.1704 -0.1436 -0.3192
  297MOL0     C39103   5.257   1.054   9.781 -0.1897  0.5832  0.0364
  297MOL0     C39104   5.392   1.091   9.760  0.0321 -1.0472 -0.0908
  297MOL0     C39105   5.500   1.012   9.817  0.0796  0.4137 -0.3883
  297MOL0     C39106   5.469   0.902   9.896  0.9011  0.0292 -0.0553
  297MOL0     O39107   5.570   0.821   9.952 -0.3791 -0.7120  0.2417
  297MOL0     C39108   5.687   0.795   9.869  0.3951 -0.4560  0.3110
  297MOL0     C39109   5.767   0.682   9.924 -0.7987  0.2245 -0.2485
  297MOL0     C39110   5.857   0.635   9.814 -0.0794  0.3113 -0.1472
  297MOL0     C39111   5.952   0.529   9.869  0.1266 -0.0554 -0.3055
  297MOL0     C39112   6.055   0.474   9.767  1.0931  0.2445 -0.3050
  297MOL0     C39113   6.157   0.373   9.843  0.4088 -0.0430  0.8339
  297MOL0     C39114   6.202   0.259   9.754 -0.2897 -0.7434 -0.3544
  297MOL0     C39115   6.321   0.176   9.817  0.2740 -0.3846  0.4641
  297MOL0    Cl39116   6.343   0.021   9.721  0.1383  0.1328 -0.0497
  297MOL0     C39117   5.335   0.863   9.910 -0.3503  0.0315  0.2474
  297MOL0     C39118   5.226   0.933   9.857 -0.5103 -0.5918  0.4493
  297MOL0     O39119   4.978   0.997   9.695 -0.0710 -0.2374 -0.9814
  297MOL0     C39120   4.808   1.204   9.706 -0.0211  0.5966  0.0525
  297MOL0     C39121   4.704   1.302   9.685 -0.4190 -0.3059  0.3614
  297MOL0     N39122   4.586   2.034   9.201 -0.0782 -1.0777  0.3434
  297MOL0     N39123   4.592   2.156   9.163 -0.4556 -0.2688  0.0452
  297MOL0     C39124   3.752   2.865   9.314 -0.1336 -0.1877 -0.4094
  297MOL0     C39125   3.624   2.921   9.359  0.2627  0.4213  0.9154
  297MOL0     C39126   3.182   2.967   9.430  0.2191 -0.1283  0.0591
  297MOL0     C39127   3.158   3.109   9.424  0.5364 -0.3585  0.8710
  297MOL0     C39128   3.026   3.169   9.454  0.5956  1.1110 -0.1591
  297MOL0     C39129   2.929   3.089   9.493 -1.0309  0.8417  0.5085
  297MOL0     O39130   2.803   3.131   9.530 -0.6984 -0.3773  0.6047
  297MOL0     C39131   2.783   3.272   9.559  0.4065  0.5055 -0.3001
  297MOL0     C39132   2.648   3.297   9.630  0.6392 -0.1769  0.1842
  297MOL0     C39133   2.639   3.209   9.757  0.0960  0.3488 -0.4333
  297MOL0     C39134   2.497   3.185   9.796  0.4055 -0.1418  0.1304
  297MOL0     C39135   2.486   3.103   9.918  0.4109  0.0689 -0.0748
  297MOL0     C39136   2.467   3.028  10.014  1.0318 -0.0842  0.8032
  297MOL0     C39137   2.951   2.946   9.488  0.5938 -0.1882 -0.0945
  297MOL0     C39138   3.071   2.886   9.467 -0.3991  0.0451  0.9033
  297MOL0     H39139   3.472   2.926   9.057 -0.6824 -1.2973 -0.3114
  297MOL0     H39140   3.693   2.822   8.983  0.2407  0.2560 -0.0683
  297MOL0     H39141   3.884   2.697   8.951 -0.7969  1.6650  1.5731
  297MOL0     H39142   3.878   2.595   9.100 -1.3757  1.3044  2.1635
  297MOL0     H39143   4.117   2.750   8.982  0.2109  0.0626  1.6592
  297MOL0     H39144   4.090   2.579   8.979 -2.5626  0.0405 -0.6341
  297MOL0     H39145   4.091   2.584   9.235  2.5330 -1.7290  0.5008
  297MOL0     H39146   4.151   2.752   9.224  2.0431 -1.4202  0.5106
  297MOL0     H39147   4.274   2.512   9.097  0.5533  0.0684  0.7326
  297MOL0     H39148   4.359   2.665   9.091  0.9452 -0.7251  1.2236
  297MOL0     H39149   4.280   2.573   9.358 -0.8537  1.0359 -0.5244
  297MOL0     H39150   4.407   2.684   9.319 -0.5663  2.1580 -0.3178
  297MOL0     H39151   4.409   2.381   9.261 -1.1247 -0.3597 -2.5868
  297MOL0     H39152   4.518   2.478   9.368 -1.9440 -1.1642  1.1827
  297MOL0     H39153   4.529   2.420   9.076  1.1529  1.5947  0.3303
  297MOL0     H39154   4.609   2.565   9.131 -0.2116 -0.9822 -2.7366
  297MOL0     H39155   4.726   2.419   9.300  1.9077  2.0392 -2.6009
  297MOL0     H39156   4.749   2.351   9.129  0.8887  0.0860  0.5575
  297MOL0     H39157   4.739   2.196   9.443  0.6406  1.1759 -0.9932
  297MOL0     H39158   4.779   1.909   9.425  2.1117 -3.8787 -3.5871
  297MOL0     H39159   4.668   1.824   9.314 -0.8606  0.3608 -0.1416
  297MOL0     H39160   4.488   1.943   9.482  0.7920  2.9649 -0.8212
  297MOL0     H39161   4.630   1.952   9.590 -0.0228 -0.1191 -0.3685
  297MOL0     H39162   4.507   1.769   9.669 -0.6788 -1.3970  0.0205
  297MOL0     H39163   4.480   1.702   9.511 -0.4868 -2.5898  2.1089
  297MOL0     H39164   4.747   1.701   9.632 -0.9881  0.4864 -0.2430
  297MOL0     H39165   4.706   1.647   9.465 -1.8675 -1.7499 -0.6811
  297MOL0     H39166   4.911   1.534   9.535 -0.9147  1.7232 -0.1431
  297MOL0     H39167   5.074   1.355   9.571  0.8977 -1.9888  1.7607
  297MOL0     H39168   5.414   1.183   9.706  0.2006 -1.1480 -0.1969
  297MOL0     H39169   5.603   1.046   9.814  0.1992  0.8544  3.1909
  297MOL0     H39170   5.755   0.880   9.856  2.3565 -2.0805 -0.6167
  297MOL0     H39171   5.649   0.781   9.768 -2.6474 -0.1665  1.3106
  297MOL0     H39172   5.702   0.599   9.954  0.5320 -1.3134 -1.4077
  297MOL0     H39173   5.820   0.724  10.011 -2.8518  0.2114  1.0698
  297MOL0     H39174   5.916   0.721   9.781 -0.5534 -0.2235 -2.5368
  297MOL0     H39175   5.797   0.612   9.726  1.5505  0.3401 -1.3039
  297MOL0     H39176   6.010   0.566   9.955 -2.3054 -0.4956  1.6441
  297MOL0     H39177   5.893   0.450   9.915 -0.5678 -0.0506 -1.1641
  297MOL0     H39178   6.127   0.554   9.748  3.2798 -0.3286  4.1237
  297MOL0     H39179   6.010   0.444   9.672 -0.6944  2.9231 -0.4131
  297MOL0     H39180   6.108   0.334   9.932  1.2472 -1.0181  0.8789
  297MOL0     H39181   6.246   0.430   9.873  1.0512 -0.5905  0.0202
  297MOL0     H39182   6.120   0.186   9.756  0.0710 -1.1803  2.4131
  297MOL0     H39183   6.219   0.289   9.650  1.9930  0.4877  0.3069
  297MOL0     H39184   6.296   0.152   9.921  1.5736  1.9401  1.3894
  297MOL0     H39185   6.415   0.231   9.819  1.3350 -2.1481  0.4521
  297MOL0     H39186   5.301   0.767   9.948 -1.4355  0.1924 -0.2832
  297MOL0     H39187   5.124   0.897   9.864 -0.5370 -0.8609 -0.9303
  297MOL0     H39188   4.779   1.119   9.767 -1.2514  2.4168  2.1784
  297MOL0     H39189   4.599   1.286   9.709 -1.1283  0.6256 -1.8293
  297MOL0     H39190   3.827   2.839   9.388 -0.6011 -1.1680 -0.2649
  297MOL0     H39191   3.606   2.932   9.466  1.0686 -0.4172  1.1444
  297MOL0     H39192   3.229   3.182   9.386 -0.7495 -0.0086 -1.0167
  297MOL0     H39193   3.020   3.277   9.451 -0.5159  1.0786  0.6080
  297MOL0     H39194   2.783   3.327   9.464  2.5026 -0.6009 -1.0063
  297MOL0     H39195   2.861   3.314   9.623 -0.1537  1.6786 -0.3666
  297MOL0     H39196   2.633   3.401   9.661 -3.7206  0.5934 -3.4097
  297MOL0     H39197   2.556   3.287   9.570  1.3495 -2.5135 -0.6326
  297MOL0     H39198   2.704   3.251   9.833 -0.1135 -2.1805  1.2755
  297MOL0     H39199   2.679   3.107   9.749 -1.8278 -0.5949  1.1084
  297MOL0     H39200   2.448   3.282   9.808 -0.8883 -0.4343 -2.1334
  297MOL0     H39201   2.449   3.137   9.710 -2.9286  2.9271  0.0765
  297MOL0     H39202   2.438   2.961  10.093 -1.6187 -0.8381 -0.6955
  297MOL0     H39203   2.878   2.875   9.526 -2.4925  2.2975 -0.9799
  297MOL0     H39204   3.083   2.778   9.464  1.9034  0.2432  0.5192
  298MOL0     O39205   2.499  10.938   1.129 -0.7222  0.0828 -0.3336
  298MOL0     C39206   2.576  10.959   1.033 -0.1563 -0.3203  0.6016
  298MOL0     O39207   2.534  10.997   0.907 -0.1982 -0.2535  0.0844
  298MOL0     C39208   2.401  10.988   0.874  0.4265  0.2373  0.1818
  298MOL0     C39209   2.330  10.865   0.888 -0.0883 -0.3769  0.4883
  298MOL0     C39210   2.199  10.853   0.833  0.2357 -0.2107  0.4935
  298MOL0     C39211   2.146  10.950   0.752  0.6572  0.0708 -0.7611
  298MOL0     O39212   2.012  10.930   0.708 -0.3630 -0.6230 -0.0710
  298MOL0     C39213   1.959  11.016   0.608  0.0433 -0.1760  0.3667
  298MOL0     C39214   1.842  10.962   0.535  0.2452  0.1265  0.5420
  298MOL0     C39215   1.716  10.970   0.618  0.3122 -0.2569 -0.0088
  298MOL0     C39216   1.613  10.892   0.549 -0.2147 -0.4006  0.7870
  298MOL0     C39217   1.492  10.886   0.645  0.3392 -0.2046  0.5418
  298MOL0     C39218   1.404  10.762   0.631 -0.0523 -0.1367 -0.1576
  298MOL0     C39219   1.375  10.717   0.493  0.1983  0.1838 -0.1682
  298MOL0     C39220   1.294  10.828   0.406  0.7524 -0.3064  0.0629
  298MOL0     N39221   1.147  10.845   0.442 -0.6992  1.1840 -0.2543
  298MOL0     C39222   1.051  10.769   0.384  0.3855  0.0160  0.2259
  298MOL0     C39223   0.937  10.833   0.408  0.1305 -0.3491  1.0706
  298MOL0     C39224   0.806  10.801   0.343  0.0060 -0.8994  0.1970
  298MOL0     C39225   0.734  10.703   0.432 -0.3113 -0.0151 -0.4628
  298MOL0     C39226   0.796  10.557   0.424  0.2626 -0.4388 -0.3264
  298MOL0     C39227   0.684  10.458   0.465  0.1914 -0.7206  0.0918
  298MOL0     O39228   0.556  10.487   0.405 -0.6034  0.3772  0.5875
  298MOL0     C39229   0.454  10.414   0.455  0.4205 -1.1505  0.0144
  298MOL0     C39230   0.331  10.421   0.385  0.0339  0.1872 -0.5030
  298MOL0     C39231   0.218  10.352   0.433  1.0382 -0.1428  0.1253
  298MOL0     C39232   0.223  10.273   0.558  0.3378 -0.1962  0.8004
  298MOL0     C39233   0.102  10.214   0.617  0.4903 -0.2413 -0.3657
  298MOL0     O39234   0.012  10.154   0.532  0.9160  0.4960  0.7789
  298MOL0     C39235  -0.096  10.083   0.582  0.1994  0.2975 -0.1543
  298MOL0     C39236  -0.234  10.105   0.540 -0.3368  0.6506 -0.4819
  298MOL0     C39237  -0.333  10.010   0.575  0.2510 -0.4356  0.0015
  298MOL0     C39238  -0.301   9.899   0.649  0.5861  0.8756 -0.4027
  298MOL0     O39239  -0.396   9.808   0.678 -0.5565 -0.0780 -0.1995
  298MOL0     C39240  -0.378   9.729   0.795 -0.0068 -0.3212 -0.3470
  298MOL0     C39241  -0.508   9.651   0.831  0.2379  0.1683  0.2512
  298MOL0     C39242  -0.497   9.579   0.962  0.4384 -0.3795 -0.6721
  298MOL0     C39243  -0.412   9.447   0.942 -0.0403  0.5543  0.0950
  298MOL0     C39244  -0.398   9.381   1.088  0.2964 -0.6852 -1.2452
  298MOL0     C39245  -0.523   9.342   1.159 -0.3150  0.6335 -0.2918
  298MOL0     C39246  -0.475   9.278   1.288  0.6301  0.3686 -0.8818
  298MOL0     C39247  -0.597   9.227   1.360  0.7200  0.3776  0.7236
  298MOL0    Cl39248  -0.687   9.098   1.262  0.1062 -0.1693 -0.0693
  298MOL0     C39249  -0.166   9.875   0.688  0.2237  1.2612  0.4268
  298MOL0     C39250  -0.065   9.963   0.654  0.1820 -1.1255  0.5449
  298MOL0     O39251   0.090  10.212   0.742 -0.2832  0.2901  0.0396
  298MOL0     C39252   0.351  10.270   0.627 -0.7319  0.0282 -0.4584
  298MOL0     C39253   0.459  10.336   0.572  1.0366 -0.9056  0.6985
  298MOL0     N39254   0.964  10.939   0.492 -0.4659 -0.6006 -0.4818
  298MOL0     N39255   1.094  10.945   0.513  0.5880  0.2170 -0.1921
  298MOL0     C39256   2.212  11.076   0.735  0.8279 -0.1477 -0.7124
  298MOL0     C39257   2.337  11.087   0.805  0.0804  0.5106  1.4577
  298MOL0     C39258   2.717  10.959   1.061  0.6236  0.3235 -0.0795
  298MOL0     C39259   2.762  10.927   1.188 -0.2317 -0.0044 -0.2638
  298MOL0     C39260   2.897  10.950   1.219  0.4890  0.4371 -0.3514
  298MOL0     C39261   2.995  10.972   1.125 -1.0418 -0.0718  0.7245
  298MOL0     O39262   3.130  10.985   1.145 -0.2394 -0.2761 -0.0260
  298MOL0     C39263   3.164  11.014   1.277  0.7641 -0.5943  0.2064
  298MOL0     C39264   3.317  11.012   1.302  0.7850  0.1555 -0.6600
  298MOL0     C39265   3.361  11.067   1.436  0.6036 -0.0562 -0.5635
  298MOL0     C39266   3.513  11.039   1.460 -0.1982 -0.5249  0.0009
  298MOL0     C39267   3.539  11.120   1.580 -1.4348  0.2123 -0.0331
  298MOL0     C39268   3.555  11.187   1.683  0.3917 -0.6652  0.1046
  298MOL0     C39269   2.953  10.986   0.997 -0.2709 -0.2530  0.6767
  298MOL0     C39270   2.822  10.977   0.955  0.8058 -0.6519 -0.7158
  298MOL0     H39271   2.372  10.781   0.943 -0.7573 -0.0316  1.5639
  298MOL0     H39272   2.137  10.766   0.852 -0.9641  0.7506  1.0719
  298MOL0     H39273   2.035  11.035   0.531 -1.5845  2.1878 -0.7433
  298MOL0     H39274   1.945  11.114   0.654 -0.8291  0.3239 -0.9170
  298MOL0     H39275   1.869  10.862   0.501 -1.5083 -0.2375  0.1268
  298MOL0     H39276   1.830  11.015   0.439 -2.0072  1.4825  1.4864
  298MOL0     H39277   1.690  11.075   0.638 -0.1135 -0.5271  0.9056
  298MOL0     H39278   1.738  10.929   0.717  1.3204 -1.6545 -0.7924
  298MOL0     H39279   1.588  10.920   0.446  2.3359 -4.0427 -1.0906
  298MOL0     H39280   1.649  10.789   0.542 -0.3888 -0.4296  0.2542
  298MOL0     H39281   1.426  10.971   0.628 -0.4473 -0.9936 -0.5529
  298MOL0     H39282   1.516  10.896   0.751  1.1944 -3.6161  0.7850
  298MOL0     H39283   1.304  10.771   0.675 -0.2768 -4.6390  0.7678
  298MOL0     H39284   1.458  10.682   0.683 -2.7004 -1.7722  0.2836
  298MOL0     H39285   1.468  10.709   0.437  0.2104 -2.9400  0.1028
  298MOL0     H39286   1.322  10.621   0.495 -1.0897  0.8629  1.1312
  298MOL0     H39287   1.304  10.796   0.302  1.8929 -0.2302  0.1381
  298MOL0     H39288   1.355  10.919   0.413  2.6853 -1.2184 -3.0337
  298MOL0     H39289   1.066  10.688   0.313 -4.8365 -1.8776  0.8422
  298MOL0     H39290   0.829  10.755   0.246 -1.4394  0.5913 -0.9008
  298MOL0     H39291   0.745  10.891   0.328  0.0865 -0.8273  0.2989
  298MOL0     H39292   0.631  10.713   0.398 -0.0043  4.5625 -0.6815
  298MOL0     H39293   0.735  10.737   0.536 -0.6441 -0.0949 -0.4337
  298MOL0     H39294   0.820  10.538   0.318  1.6839  1.2025 -0.3350
  298MOL0     H39295   0.892  10.548   0.477  0.8179 -1.0055 -1.3828
  298MOL0     H39296   0.689  10.462   0.575  3.1468  1.3403  0.0103
  298MOL0     H39297   0.725  10.359   0.446 -0.0108 -0.8865  0.4953
  298MOL0     H39298   0.322  10.487   0.299  3.0664  1.0613 -0.2559
  298MOL0     H39299   0.121  10.368   0.386  0.8834 -0.9546  0.1562
  298MOL0     H39300  -0.262  10.199   0.495  1.4593  1.9628  0.9648
  298MOL0     H39301  -0.437  10.032   0.553  0.9040  0.9835 -1.9115
  298MOL0     H39302  -0.352   9.792   0.881  2.1381 -1.0780 -0.3878
  298MOL0     H39303  -0.294   9.660   0.783  2.7964  2.8391 -0.3284
  298MOL0     H39304  -0.523   9.576   0.753  0.3569 -1.0438  1.3590
  298MOL0     H39305  -0.589   9.725   0.834  1.6762  1.8137  0.1487
  298MOL0     H39306  -0.599   9.543   0.982  0.7146 -1.2391 -0.7754
  298MOL0     H39307  -0.455   9.650   1.034  1.1761 -2.0916  0.6583
  298MOL0     H39308  -0.457   9.373   0.876  0.1760  0.0495  0.4990
  298MOL0     H39309  -0.318   9.479   0.896 -1.2046 -0.9174 -3.7241
  298MOL0     H39310  -0.359   9.463   1.149  4.8696 -1.1851 -3.1132
  298MOL0     H39311  -0.313   9.312   1.098 -0.6104 -1.9672 -2.1160
  298MOL0     H39312  -0.571   9.265   1.098  2.3215 -0.2182 -1.4475
  298MOL0     H39313  -0.590   9.426   1.177  0.8509  1.5223  0.0139
  298MOL0     H39314  -0.417   9.186   1.277  0.3049  0.1765 -1.0265
  298MOL0     H39315  -0.424   9.356   1.345  1.7412  0.6591 -2.2294
  298MOL0     H39316  -0.669   9.306   1.381 -0.7101 -0.0279 -2.1391
  298MOL0     H39317  -0.560   9.181   1.452 -0.0211 -0.3277  0.6807
  298MOL0     H39318  -0.128   9.796   0.753  3.2655 -0.5104 -3.0934
  298MOL0     H39319   0.036   9.941   0.690  1.4785  2.1419 -0.7118
  298MOL0     H39320   0.358  10.229   0.728  0.0451  2.4585  0.5394
  298MOL0     H39321   0.547  10.326   0.635  3.4853  2.3484 -1.8661
  298MOL0     H39322   2.159  11.148   0.673 -0.8512 -0.7996 -0.0724
  298MOL0     H39323   2.388  11.183   0.803  1.5099 -0.2357  0.5948
  298MOL0     H39324   2.692  10.896   1.265  0.7512  2.4076  1.7522
  298MOL0     H39325   2.919  10.944   1.325 -4.0886  1.7248  0.8765
  298MOL0     H39326   3.135  10.936   1.349 -4.7312 -1.3382 -2.3672
  298MOL0     H39327   3.131  11.114   1.306 -0.7169  0.0170 -3.1426
  298MOL0     H39328   3.368  10.917   1.289  3.2808  0.5265  4.1428
  298MOL0     H39329   3.355  11.070   1.217  1.6713 -0.4658 -0.6991
  298MOL0     H39330   3.296  11.032   1.517  0.2366 -2.7668 -1.9173
  298MOL0     H39331   3.347  11.175   1.437 -1.2301 -0.2490 -1.4476
  298MOL0     H39332   3.533  10.932   1.463 -0.3484 -0.5330  0.9635
  298MOL0     H39333   3.578  11.081   1.383  1.2153 -3.0865 -0.3299
  298MOL0     H39334   3.592  11.239   1.769  1.8451 -2.9779  0.9854
  298MOL0     H39335   3.033  11.021   0.933  0.7179 -2.8783  0.3546
  298MOL0     H39336   2.790  11.006   0.855 -1.7582 -2.4310 -0.5113
  299MOL0     O39337   3.982   5.882   6.490  0.0847 -0.3009  0.3610
  299MOL0     C39338   4.044   5.822   6.581  1.0827 -0.3040  0.6416
  299MOL0     O39339   3.989   5.778   6.695 -0.0804  0.0185  0.2551
  299MOL0     C39340   3.851   5.760   6.704  0.3812  0.1253 -1.1811
  299MOL0     C39341   3.755   5.764   6.604 -0.5798  0.2230 -1.0379
  299MOL0     C39342   3.620   5.733   6.630  0.1759  0.7592  0.2663
  299MOL0     C39343   3.580   5.692   6.758  0.4429  1.0405 -0.6202
  299MOL0     O39344   3.448   5.673   6.776 -1.0528 -0.3195  0.5779
  299MOL0     C39345   3.394   5.550   6.754  0.4302 -0.1071  0.5380
  299MOL0     C39346   3.376   5.476   6.880  0.2243  0.0294  0.3564
  299MOL0     C39347   3.284   5.351   6.883  0.1116  0.4603 -1.1713
  299MOL0     C39348   3.354   5.241   6.820  0.2219  0.2784  0.2402
  299MOL0     C39349   3.265   5.126   6.775  0.4621  0.1925 -0.0487
  299MOL0     C39350   3.168   5.068   6.873 -0.6579 -0.3756 -0.4656
  299MOL0     C39351   3.090   4.953   6.811 -0.0095 -0.6839 -0.0610
  299MOL0     C39352   2.976   4.904   6.913  0.7353 -0.4830  0.2162
  299MOL0     N39353   2.875   4.817   6.855  0.8217  0.0244 -0.2630
  299MOL0     C39354   2.745   4.828   6.902  1.3029  0.4703  0.0601
  299MOL0     C39355   2.675   4.720   6.848 -0.6715  1.1976  0.4734
  299MOL0     C39356   2.526   4.687   6.845  0.5409  0.3745 -0.0665
  299MOL0     C39357   2.443   4.767   6.742  0.4304  0.0262 -0.0839
  299MOL0     C39358   2.414   4.916   6.779 -0.5882  0.0236  0.5944
  299MOL0     C39359   2.309   4.976   6.686  0.4513 -0.2319 -0.0872
  299MOL0     O39360   2.191   4.898   6.678  0.2606 -0.3532  1.0447
  299MOL0     C39361   2.083   4.963   6.626  0.5799 -1.2093 -0.1280
  299MOL0     C39362   1.956   4.903   6.642 -0.3170 -0.3118 -0.2737
  299MOL0     C39363   1.839   4.964   6.614 -0.2361 -0.4271 -0.1187
  299MOL0     C39364   1.842   5.081   6.530 -0.0407  0.3833 -0.1683
  299MOL0     C39365   1.717   5.149   6.489 -1.0893  0.3833  0.0451
  299MOL0     O39366   1.614   5.130   6.569  0.4871 -0.2666 -0.1990
  299MOL0     C39367   1.488   5.187   6.535 -0.6348  0.5493 -0.4521
  299MOL0     C39368   1.384   5.093   6.526 -0.3974  0.0093  0.3688
  299MOL0     C39369   1.257   5.134   6.506 -0.8214 -0.4034 -0.0335
  299MOL0     C39370   1.224   5.267   6.512 -0.0727 -0.3951  0.1737
  299MOL0     O39371   1.099   5.322   6.483  0.0049  0.5870  0.3690
  299MOL0     C39372   0.986   5.250   6.531 -0.5135 -0.5650 -0.3607
  299MOL0     C39373   0.861   5.329   6.533  0.0778  0.3441  0.7392
  299MOL0     C39374   0.867   5.444   6.632  0.3959  0.0219  0.4483
  299MOL0     C39375   0.732   5.524   6.628  0.2921 -0.7513 -1.0848
  299MOL0     C39376   0.745   5.671   6.676 -0.8005  0.1717 -0.0540
  299MOL0     C39377   0.623   5.757   6.640 -0.5302 -0.7323  0.9489
  299MOL0     C39378   0.500   5.688   6.688 -0.6934  0.0828 -0.3800
  299MOL0     C39379   0.384   5.787   6.726 -0.1559 -0.0078 -0.7933
  299MOL0    Cl39380   0.411   5.863   6.878 -0.3626  0.6303 -0.2419
  299MOL0     C39381   1.322   5.359   6.547  0.2149  1.3322  0.2060
  299MOL0     C39382   1.454   5.319   6.560  0.5946 -0.0644 -0.6806
  299MOL0     O39383   1.724   5.216   6.384 -0.7894  0.3309 -0.3303
  299MOL0     C39384   1.965   5.137   6.505 -0.5118 -0.3244  0.6480
  299MOL0     C39385   2.088   5.083   6.548  0.2029 -0.0491  0.2328
  299MOL0     N39386   2.771   4.637   6.785  0.9000  0.2386  0.2465
  299MOL0     N39387   2.885   4.701   6.786  0.0536 -0.3786 -0.2863
  299MOL0     C39388   3.670   5.702   6.866 -0.1822  0.6095 -0.5244
  299MOL0     C39389   3.802   5.724   6.834 -1.0465  0.0100  0.4318
  299MOL0     C39390   4.169   5.766   6.542  0.5709 -0.0036  0.5156
  299MOL0     C39391   4.223   5.653   6.605 -0.6876 -0.1073 -0.3245
  299MOL0     C39392   4.351   5.607   6.571 -0.2752 -0.7004 -0.5715
  299MOL0     C39393   4.413   5.659   6.455 -0.1062 -0.0805 -0.3417
  299MOL0     O39394   4.533   5.597   6.420  0.6528  0.5129  0.3277
  299MOL0     C39395   4.609   5.647   6.306  0.8804  0.2568  0.3044
  299MOL0     C39396   4.682   5.531   6.237 -0.7587  0.3267  0.2791
  299MOL0     C39397   4.735   5.420   6.337 -0.4219 -0.8749  0.1653
  299MOL0     C39398   4.857   5.476   6.417  0.3341  0.5084  0.7527
  299MOL0     C39399   4.983   5.495   6.338 -0.5105  0.0856 -1.0835
  299MOL0     C39400   5.093   5.509   6.293  0.3221 -0.5175  0.6110
  299MOL0     C39401   4.364   5.772   6.397  0.0129 -0.0359 -0.2053
  299MOL0     C39402   4.246   5.832   6.435  0.5283  0.1885  0.2140
  299MOL0     H39403   3.782   5.800   6.505  0.8324  1.3052 -0.2957
  299MOL0     H39404   3.537   5.728   6.560  0.5059 -0.1517 -0.0706
  299MOL0     H39405   3.459   5.492   6.688 -0.7265  0.7993 -1.5042
  299MOL0     H39406   3.295   5.561   6.707  0.3849  1.8171  1.0112
  299MOL0     H39407   3.343   5.542   6.960 -1.3748 -0.3607  0.0610
  299MOL0     H39408   3.478   5.444   6.903  1.3846  1.9557 -1.7454
  299MOL0     H39409   3.184   5.367   6.842 -0.2816 -0.7374 -0.7232
  299MOL0     H39410   3.266   5.314   6.984  0.1194  1.7717 -0.6797
  299MOL0     H39411   3.424   5.268   6.740 -0.9277 -4.4836 -2.7959
  299MOL0     H39412   3.416   5.198   6.899  1.3573 -1.8498 -1.6942
  299MOL0     H39413   3.324   5.040   6.744 -1.9039 -2.7236  2.8109
  299MOL0     H39414   3.213   5.163   6.686  1.5131 -0.0766 -0.7944
  299MOL0     H39415   3.103   5.150   6.905  0.9433 -0.2040  2.7178
  299MOL0     H39416   3.229   5.032   6.956 -1.6457 -1.6001 -0.2373
  299MOL0     H39417   3.038   4.990   6.722  0.1289  0.2566  0.2419
  299MOL0     H39418   3.166   4.877   6.792  1.4701  0.5004  0.9011
  299MOL0     H39419   2.922   4.990   6.954 -2.0111 -2.3193  0.6775
  299MOL0     H39420   3.018   4.860   7.004  1.7928 -2.4114 -1.1291
  299MOL0     H39421   2.696   4.915   6.945 -1.7438 -0.0667 -2.0032
  299MOL0     H39422   2.481   4.698   6.944  0.9177  2.6438 -0.0798
  299MOL0     H39423   2.509   4.580   6.835  1.3558  0.2771 -0.5117
  299MOL0     H39424   2.348   4.715   6.729 -0.0876  1.2893 -1.6508
  299MOL0     H39425   2.492   4.753   6.645 -3.4919 -2.8484 -1.8909
  299MOL0     H39426   2.376   4.930   6.881  0.3811  0.8737  0.8481
  299MOL0     H39427   2.512   4.962   6.770 -0.0142 -1.0832  1.0244
  299MOL0     H39428   2.348   4.991   6.585 -0.5347 -1.2207 -0.6283
  299MOL0     H39429   2.294   5.079   6.722 -1.7687  0.5355 -2.8568
  299MOL0     H39430   1.943   4.806   6.690  2.9238  1.2418  4.4159
  299MOL0     H39431   1.751   4.906   6.640  0.5402 -1.1937  0.8880
  299MOL0     H39432   1.402   4.986   6.521 -0.2607 -0.0712  2.0943
  299MOL0     H39433   1.170   5.070   6.497 -1.0190 -0.0380 -0.8035
  299MOL0     H39434   0.994   5.212   6.634 -1.9768 -1.1731 -0.4442
  299MOL0     H39435   0.964   5.169   6.461 -1.7556 -0.8119  0.2833
  299MOL0     H39436   0.783   5.261   6.569 -1.4418  2.3489  1.4026
  299MOL0     H39437   0.842   5.359   6.430  2.4379 -1.5012 -0.3156
  299MOL0     H39438   0.950   5.507   6.599  1.0748 -0.1093  1.8055
  299MOL0     H39439   0.901   5.418   6.733  3.1126  0.8428 -0.1718
  299MOL0     H39440   0.692   5.528   6.526 -1.3561 -0.0803 -0.4536
  299MOL0     H39441   0.651   5.475   6.683 -1.6382  2.2011 -1.0596
  299MOL0     H39442   0.821   5.730   6.625 -0.2596 -0.1917  0.3185
  299MOL0     H39443   0.778   5.674   6.781  1.0199  0.1405 -0.5923
  299MOL0     H39444   0.635   5.794   6.537  1.3410  0.0047  1.4029
  299MOL0     H39445   0.625   5.851   6.696 -1.1646 -0.9126  1.2902
  299MOL0     H39446   0.460   5.621   6.612 -0.9894  0.2977 -0.4166
  299MOL0     H39447   0.529   5.630   6.776 -0.0005  0.1531 -0.5593
  299MOL0     H39448   0.288   5.737   6.744  0.1116  0.7449  3.8746
  299MOL0     H39449   0.389   5.866   6.650  1.6601  0.1174 -0.5828
  299MOL0     H39450   1.304   5.466   6.547  1.4042  1.5382  0.2558
  299MOL0     H39451   1.538   5.382   6.591  0.2264  0.3266 -0.4562
  299MOL0     H39452   1.970   5.221   6.436 -0.5084 -0.5456  0.3797
  299MOL0     H39453   2.184   5.124   6.518  1.4913 -2.2578  1.0666
  299MOL0     H39454   3.631   5.695   6.967  0.1992 -0.3383 -0.4278
  299MOL0     H39455   3.884   5.715   6.904 -1.3311  0.1462  0.7892
  299MOL0     H39456   4.169   5.612   6.690 -1.2723  1.8906  0.3296
  299MOL0     H39457   4.400   5.527   6.625  0.2953  0.5893  0.8778
  299MOL0     H39458   4.681   5.715   6.354 -0.4027  0.0751  2.6179
  299MOL0     H39459   4.543   5.692   6.231 -0.4905 -4.7649 -1.9808
  299MOL0     H39460   4.610   5.479   6.173  1.9693 -2.0898 -1.1040
  299MOL0     H39461   4.758   5.571   6.170 -1.1925 -0.0157 -0.4327
  299MOL0     H39462   4.767   5.330   6.285  0.3375 -1.6845  1.9456
  299MOL0     H39463   4.664   5.384   6.412  0.4836 -4.0655 -0.3362
  299MOL0     H39464   4.818   5.568   6.462 -0.7410 -0.3753  1.7001
  299MOL0     H39465   4.874   5.404   6.498 -2.2311 -0.2666  0.6964
  299MOL0     H39466   5.187   5.526   6.245  1.9121 -1.4970  3.1729
  299MOL0     H39467   4.408   5.824   6.312  0.5363 -1.2329 -0.6916
  299MOL0     H39468   4.204   5.918   6.383 -0.7305  0.2731  1.3027
  300MOL0     O39469   2.543   6.936   0.237 -0.0827 -0.4490  0.1464
  300MOL0     C39470   2.614   6.839   0.232 -0.1141 -0.1824 -0.2987
  300MOL0     O39471   2.574   6.705   0.237  0.6205 -0.5770  0.5120
  300MOL0     C39472   2.439   6.684   0.263 -0.3657 -0.3067 -0.2154
  300MOL0     C39473   2.393   6.637   0.381 -0.1989 -0.3645 -0.2055
  300MOL0     C39474   2.260   6.602   0.410  0.2826  0.7197 -0.1000
  300MOL0     C39475   2.172   6.605   0.307  0.2233  0.7343  0.9354
  300MOL0     O39476   2.041   6.565   0.316  0.3897  0.6337 -0.3546
  300MOL0     C39477   1.962   6.576   0.440  0.4822  0.0352  0.8735
  300MOL0     C39478   1.814   6.602   0.374 -1.5236  0.7719 -0.2308
  300MOL0     C39479   1.705   6.583   0.476 -0.0112  0.3638  0.1838
  300MOL0     C39480   1.583   6.645   0.407 -0.3486 -0.3254 -0.2668
  300MOL0     C39481   1.450   6.632   0.482  0.4192 -0.4080  0.3661
  300MOL0     C39482   1.337   6.705   0.401 -0.6284  0.8103 -1.4302
  300MOL0     C39483   1.202   6.693   0.474  0.1401  0.1327  0.2178
  300MOL0     C39484   1.083   6.774   0.413  0.6375 -0.2013 -0.9432
  300MOL0     N39485   0.956   6.762   0.482  0.2735  0.0868  0.5950
  300MOL0     C39486   0.848   6.681   0.451 -0.5400 -0.5202  0.1905
  300MOL0     C39487   0.750   6.713   0.550 -0.9519  0.3304  0.1664
  300MOL0     C39488   0.619   6.642   0.561  0.6966 -0.2630  0.0283
  300MOL0     C39489   0.563   6.679   0.704  0.6259  0.4522  0.5681
  300MOL0     C39490   0.437   6.589   0.747 -1.0280  0.3907  0.4276
  300MOL0     C39491   0.316   6.674   0.742  0.6532 -0.8292 -0.8667
  300MOL0     O39492   0.287   6.728   0.614 -0.0074 -0.2028 -0.4978
  300MOL0     C39493   0.154   6.764   0.605 -0.9153 -0.8218  0.9711
  300MOL0     C39494   0.112   6.893   0.643 -0.1915 -0.3866 -0.3156
  300MOL0     C39495  -0.022   6.931   0.622 -0.0419  0.2154 -1.2803
  300MOL0     C39496  -0.122   6.848   0.556  0.7883 -0.3023 -0.3300
  300MOL0     C39497  -0.263   6.889   0.531 -1.0805  0.8168 -0.6492
  300MOL0     O39498  -0.356   6.802   0.488 -0.3291  0.4325 -0.4498
  300MOL0     C39499  -0.479   6.851   0.480 -0.5423  0.3363  0.7836
  300MOL0     C39500  -0.580   6.813   0.557  0.5730  0.9250 -0.6771
  300MOL0     C39501  -0.715   6.861   0.541  0.3180 -0.1237 -0.0061
  300MOL0     C39502  -0.750   6.936   0.426 -0.0194  0.5817 -0.9155
  300MOL0     O39503  -0.877   6.979   0.408  1.1337 -0.7417  0.0198
  300MOL0     C39504  -0.962   6.871   0.368  0.5979 -0.0226  0.5598
  300MOL0     C39505  -1.101   6.935   0.330 -0.7627 -0.1203 -0.7665
  300MOL0     C39506  -1.202   6.838   0.272 -0.1210  0.7589  1.0963
  300MOL0     C39507  -1.346   6.879   0.258 -0.3723 -0.5081  0.0143
  300MOL0     C39508  -1.367   7.024   0.226  0.2378 -0.8825  0.4168
  300MOL0     C39509  -1.503   7.058   0.165 -0.2370  0.3758  0.3956
  300MOL0     C39510  -1.498   7.204   0.138  0.0270 -0.3989 -0.4865
  300MOL0     C39511  -1.626   7.242   0.077  0.0442 -0.5817  0.1740
  300MOL0    Cl39512  -1.767   7.237   0.202  0.0833  0.2831  0.0968
  300MOL0     C39513  -0.645   6.979   0.345  0.0559  0.0874  0.9542
  300MOL0     C39514  -0.507   6.935   0.374 -0.5275  0.8107 -0.3848
  300MOL0     O39515  -0.282   7.008   0.553  0.2311 -0.1481 -0.0417
  300MOL0     C39516  -0.073   6.724   0.508 -0.1995 -0.8443 -0.5715
  300MOL0     C39517   0.067   6.680   0.534 -0.9330 -0.1370  0.1489
  300MOL0     N39518   0.804   6.810   0.634 -0.0241 -0.6394 -0.1741
  300MOL0     N39519   0.921   6.835   0.587 -0.9866 -0.1934  0.6073
  300MOL0     C39520   2.218   6.651   0.186 -0.2887 -0.0228 -0.9296
  300MOL0     C39521   2.339   6.695   0.160 -0.4944 -0.2880 -1.9060
  300MOL0     C39522   2.759   6.858   0.228 -0.5700 -0.6031 -1.2229
  300MOL0     C39523   2.813   6.968   0.304 -0.4332 -0.1654 -0.3804
  300MOL0     C39524   2.955   6.977   0.332  0.4889 -0.5015 -1.0310
  300MOL0     C39525   3.040   6.895   0.255 -0.0757 -0.2137  0.5769
  300MOL0     O39526   3.180   6.895   0.251 -0.3317 -0.2746  0.2632
  300MOL0     C39527   3.245   7.004   0.324  0.1806  0.5773 -0.1226
  300MOL0     C39528   3.371   7.040   0.255 -0.6483 -0.8345  0.6327
  300MOL0     C39529   3.448   7.157   0.326  0.2829 -0.3321  0.7080
  300MOL0     C39530   3.400   7.291   0.280 -0.0418  0.0740 -0.2814
  300MOL0     C39531   3.497   7.395   0.311 -0.9031  0.4433  0.0052
  300MOL0     C39532   3.584   7.462   0.359 -0.7923 -0.2328 -0.2552
  300MOL0     C39533   2.988   6.801   0.170  0.8806  0.3008 -0.1048
  300MOL0     C39534   2.848   6.773   0.153 -0.2218  0.4152 -0.9771
  300MOL0     H39535   2.469   6.627   0.458 -0.9845 -1.3723  0.4597
  300MOL0     H39536   2.228   6.539   0.492 -1.2229 -0.5436 -1.5650
  300MOL0     H39537   1.988   6.663   0.501  0.9596 -0.4712  1.4086
  300MOL0     H39538   1.971   6.480   0.491  0.2577  1.6642  4.2732
  300MOL0     H39539   1.803   6.527   0.295  2.9182 -0.4542  0.0522
  300MOL0     H39540   1.820   6.699   0.324 -1.1250 -0.0742 -1.8796
  300MOL0     H39541   1.729   6.626   0.574 -1.3440 -1.1660  1.2389
  300MOL0     H39542   1.686   6.476   0.489 -2.2545  0.9295  2.2621
  300MOL0     H39543   1.605   6.753   0.407  0.7382 -0.5093  1.2897
  300MOL0     H39544   1.571   6.605   0.306 -1.3004  0.6296 -0.5442
  300MOL0     H39545   1.465   6.685   0.576  0.2197  0.2506  0.0310
  300MOL0     H39546   1.438   6.524   0.494  2.6766 -0.6279  0.9931
  300MOL0     H39547   1.335   6.661   0.301 -2.6421 -2.2815 -0.1804
  300MOL0     H39548   1.365   6.811   0.402 -0.5044  0.8423  1.9893
  300MOL0     H39549   1.168   6.589   0.466 -1.3958  0.6193  0.0382
  300MOL0     H39550   1.218   6.712   0.581  0.1758  0.7755  0.1017
  300MOL0     H39551   1.067   6.742   0.309  1.2683 -1.1011 -0.7779
  300MOL0     H39552   1.128   6.874   0.416  0.1847 -0.0146  0.0513
  300MOL0     H39553   0.842   6.602   0.376  0.5929  0.8672 -1.4329
  300MOL0     H39554   0.631   6.534   0.555 -2.2462 -0.6269 -0.7713
  300MOL0     H39555   0.551   6.679   0.483  2.5287 -2.8943 -3.0247
  300MOL0     H39556   0.542   6.787   0.711 -1.7273  0.1225 -0.6073
  300MOL0     H39557   0.641   6.654   0.777  1.0583  3.2637  1.2101
  300MOL0     H39558   0.435   6.499   0.685  3.8358 -0.0706  0.6168
  300MOL0     H39559   0.456   6.557   0.850 -2.8931 -3.8589 -0.2918
  300MOL0     H39560   0.332   6.751   0.818 -1.3172 -3.0801  2.0745
  300MOL0     H39561   0.242   6.609   0.790 -1.6394  3.7939  2.6904
  300MOL0     H39562   0.180   6.966   0.686 -2.3025  2.9220 -2.1914
  300MOL0     H39563  -0.068   7.025   0.650 -0.2641 -0.4810  0.7860
  300MOL0     H39564  -0.557   6.748   0.641  1.0867  2.3279  0.3054
  300MOL0     H39565  -0.788   6.832   0.616  1.8761 -3.7659  0.3034
  300MOL0     H39566  -0.971   6.788   0.438  3.5084 -0.3801  0.6354
  300MOL0     H39567  -0.920   6.824   0.279  1.0732 -0.0329  0.7871
  300MOL0     H39568  -1.083   7.019   0.262 -0.9949 -1.2424 -2.2599
  300MOL0     H39569  -1.151   6.982   0.415 -1.1616  3.3134 -2.7321
  300MOL0     H39570  -1.215   6.743   0.325 -1.8474  0.5210  0.3202
  300MOL0     H39571  -1.170   6.813   0.170  2.4124  4.6882  0.7040
  300MOL0     H39572  -1.397   6.821   0.180 -2.9631 -1.4289  2.2587
  300MOL0     H39573  -1.389   6.863   0.357  1.6306 -1.8306  0.7358
  300MOL0     H39574  -1.296   7.046   0.146  1.2958  2.3234  2.0667
  300MOL0     H39575  -1.350   7.096   0.307  1.4442  1.8367 -2.0729
  300MOL0     H39576  -1.581   7.050   0.241  0.0380  0.9081  0.7409
  300MOL0     H39577  -1.516   7.001   0.073 -3.3926  3.9573 -1.6276
  300MOL0     H39578  -1.500   7.265   0.229 -0.5873  0.4544 -1.0560
  300MOL0     H39579  -1.413   7.232   0.074  1.4197 -0.2577  1.3230
  300MOL0     H39580  -1.644   7.166  -0.000 -0.3227  0.1255 -0.4542
  300MOL0     H39581  -1.626   7.343   0.034 -0.6955  0.2980  2.1294
  300MOL0     H39582  -0.663   7.026   0.250  1.5067 -2.8530 -0.9373
  300MOL0     H39583  -0.426   6.969   0.311 -0.8519  2.0649 -0.1432
  300MOL0     H39584  -0.143   6.664   0.451  0.2397 -0.6306 -1.3547
  300MOL0     H39585   0.105   6.590   0.485 -0.3794 -0.4758  1.1571
  300MOL0     H39586   2.132   6.662   0.120  0.2804 -1.9599 -2.0686
  300MOL0     H39587   2.369   6.731   0.062 -1.1756 -0.1588 -2.0764
  300MOL0     H39588   2.750   7.040   0.353  0.3883  0.3424 -0.0489
  300MOL0     H39589   2.996   7.066   0.381 -4.2935  1.6268 -0.3169
  300MOL0     H39590   3.270   6.984   0.429 -0.3921  2.8394  0.5027
  300MOL0     H39591   3.177   7.090   0.329 -1.0206 -0.1822 -2.1865
  300MOL0     H39592   3.441   6.958   0.236 -1.4802 -1.1329 -1.4291
  300MOL0     H39593   3.349   7.068   0.152 -0.5926 -0.9301  0.5939
  300MOL0     H39594   3.550   7.141   0.290  1.2559  2.0031  2.1842
  300MOL0     H39595   3.447   7.149   0.435  0.7153 -0.8009  0.6848
  300MOL0     H39596   3.375   7.287   0.173  1.2587  1.3597 -0.6583
  300MOL0     H39597   3.307   7.309   0.335 -2.1561 -0.5185 -3.3331
  300MOL0     H39598   3.662   7.526   0.395 -1.6019  1.1540 -0.8867
  300MOL0     H39599   3.051   6.733   0.115  0.3560  1.6880 -2.5435
  300MOL0     H39600   2.807   6.689   0.097 -1.0508  0.2495 -0.1546
  301MOL0     O39601   1.259   9.646   6.213  0.1179 -0.3569  0.5411
  301MOL0     C39602   1.345   9.578   6.260  0.3695 -0.2305  0.5591
  301MOL0     O39603   1.342   9.441   6.278  0.5500  0.7963  0.0922
  301MOL0     C39604   1.210   9.386   6.283 -0.5728  0.2670  0.3458
  301MOL0     C39605   1.119   9.417   6.386 -0.2764 -0.9602 -0.8229
  301MOL0     C39606   0.996   9.364   6.378 -1.0324  0.3203  0.3976
  301MOL0     C39607   0.957   9.267   6.280  0.3072  0.4000  0.8455
  301MOL0     O39608   0.828   9.221   6.275 -0.5958  0.1519 -0.3538
  301MOL0     C39609   0.760   9.219   6.400 -0.2994  0.2395  0.0062
  301MOL0     C39610   0.619   9.172   6.395  0.2577 -0.6378 -0.0242
  301MOL0     C39611   0.518   9.282   6.350  0.0686 -0.3046 -0.5219
  301MOL0     C39612   0.378   9.263   6.398 -0.1185  0.0752 -0.1667
  301MOL0     C39613   0.263   9.324   6.330 -0.8230 -0.1024 -0.3094
  301MOL0     C39614   0.273   9.478   6.330 -0.0815  0.0587  0.2211
  301MOL0     C39615   0.175   9.530   6.232 -0.0443 -0.3543  0.3981
  301MOL0     C39616   0.030   9.546   6.288 -0.2849  0.2295 -0.2876
  301MOL0     N39617  -0.034   9.660   6.213 -0.3283 -0.5441 -0.5490
  301MOL0     C39618  -0.106   9.647   6.092 -0.0208  0.1791 -0.0327
  301MOL0     C39619  -0.120   9.769   6.042  0.0148 -0.8287 -0.2458
  301MOL0     C39620  -0.199   9.804   5.916 -0.5650  0.1181  0.7642
  301MOL0     C39621  -0.345   9.830   5.967 -0.1268  0.5871  0.2416
  301MOL0     C39622  -0.418   9.923   5.881 -0.4819 -0.2065 -0.5867
  301MOL0     C39623  -0.420   9.889   5.738  0.0072  0.1727 -0.4256
  301MOL0     O39624  -0.549   9.890   5.680  0.9649 -0.2783 -0.9630
  301MOL0     C39625  -0.633   9.998   5.672 -0.6438 -0.5735 -0.1302
  301MOL0     C39626  -0.587  10.127   5.688 -0.0578  0.7580  0.2711
  301MOL0     C39627  -0.679  10.228   5.663 -0.4866 -0.1985 -0.6243
  301MOL0     C39628  -0.804  10.201   5.610  0.0865  0.9644  0.5384
  301MOL0     C39629  -0.903  10.297   5.591  0.5341  0.0286 -0.5320
  301MOL0     O39630  -1.027  10.257   5.544 -0.3268 -0.2162 -0.3306
  301MOL0     C39631  -1.132  10.343   5.544  0.1193 -0.7193  0.8397
  301MOL0     C39632  -1.262  10.289   5.564  0.0164 -1.2794 -0.2340
  301MOL0     C39633  -1.379  10.368   5.565 -0.2347 -1.5233 -0.1866
  301MOL0     C39634  -1.380  10.505   5.537 -0.4655  0.0083 -0.7006
  301MOL0     O39635  -1.491  10.583   5.557  1.0502 -0.1760  0.9013
  301MOL0     C39636  -1.493  10.716   5.496  0.4452 -0.3556  0.4003
  301MOL0     C39637  -1.641  10.760   5.493 -0.3905  0.7807 -0.1479
  301MOL0     C39638  -1.690  10.740   5.342  0.2804  0.3215  0.0335
  301MOL0     C39639  -1.848  10.757   5.341  0.1435  0.0664  0.4459
  301MOL0     C39640  -1.910  10.825   5.215 -0.4593  0.3863  0.4080
  301MOL0     C39641  -2.057  10.848   5.243  1.3124  0.1996 -0.2760
  301MOL0     C39642  -2.098  10.925   5.119 -0.7924  0.0337 -0.4661
  301MOL0     C39643  -2.238  10.990   5.122 -0.8737 -0.3859 -0.1727
  301MOL0    Cl39644  -2.361  10.861   5.154  0.0433  0.3572 -0.2379
  301MOL0     C39645  -1.253  10.559   5.514 -0.0946  0.3031 -0.0137
  301MOL0     C39646  -1.131  10.480   5.506 -0.7510 -0.1235 -0.6283
  301MOL0     O39647  -0.875  10.406   5.634 -0.1595 -0.5090  0.1798
  301MOL0     C39648  -0.834  10.071   5.577 -0.6170 -0.3974  0.0260
  301MOL0     C39649  -0.743   9.972   5.603  0.7378 -0.2144  0.0785
  301MOL0     N39650  -0.060   9.858   6.132 -0.4542  0.4627  0.7150
  301MOL0     N39651  -0.012   9.793   6.229  0.1595  0.6270  0.5029
  301MOL0     C39652   1.043   9.240   6.173  0.0166 -0.1674 -0.3432
  301MOL0     C39653   1.167   9.305   6.178  0.3377 -0.0015  0.0298
  301MOL0     C39654   1.465   9.649   6.306 -0.1007 -0.1965 -0.1190
  301MOL0     C39655   1.571   9.592   6.378 -0.4660  0.1343  0.2345
  301MOL0     C39656   1.685   9.669   6.413 -0.1012  0.2201 -0.0111
  301MOL0     C39657   1.701   9.800   6.376  0.1658  0.0204  0.3646
  301MOL0     O39658   1.819   9.856   6.384 -0.4080  0.1478  0.0730
  301MOL0     C39659   1.927   9.797   6.452  0.6895  0.6144  0.2195
  301MOL0     C39660   2.046   9.891   6.451 -0.1706 -0.5085 -1.0731
  301MOL0     C39661   2.103   9.876   6.317  0.3718 -0.4957 -0.3345
  301MOL0     C39662   2.218   9.980   6.282  0.6725 -0.9122  0.0733
  301MOL0     C39663   2.327   9.983   6.377 -0.2490  0.2815  0.9131
  301MOL0     C39664   2.418   9.997   6.448 -0.2719 -0.0273  0.0621
  301MOL0     C39665   1.599   9.861   6.299 -0.3486  0.4346 -0.0056
  301MOL0     C39666   1.485   9.787   6.267 -0.6682  0.7186 -0.7640
  301MOL0     H39667   1.142   9.487   6.465 -1.9082  0.6057 -1.6742
  301MOL0     H39668   0.933   9.398   6.459  0.1487  1.4368  0.8702
  301MOL0     H39669   0.746   9.320   6.441 -0.1675  0.0105  0.6371
  301MOL0     H39670   0.817   9.158   6.472  0.8287  0.4124 -0.7205
  301MOL0     H39671   0.599   9.155   6.502  2.4472 -0.9273  0.3894
  301MOL0     H39672   0.588   9.078   6.350 -1.6718 -1.1686  2.1839
  301MOL0     H39673   0.522   9.290   6.241  2.4494 -0.9634 -0.5544
  301MOL0     H39674   0.544   9.383   6.384 -0.4296 -0.0801 -0.8025
  301MOL0     H39675   0.355   9.156   6.388 -1.2591  0.3741 -0.9778
  301MOL0     H39676   0.385   9.278   6.506  2.2237 -1.8149  0.0423
  301MOL0     H39677   0.167   9.288   6.367 -1.9542  0.5886 -2.4147
  301MOL0     H39678   0.282   9.281   6.231  1.1763  2.1023 -0.9923
  301MOL0     H39679   0.375   9.509   6.306 -0.4087  0.3918 -0.7604
  301MOL0     H39680   0.256   9.504   6.435 -0.5469  0.7638 -0.0199
  301MOL0     H39681   0.221   9.628   6.215  1.3651 -0.6401  2.2969
  301MOL0     H39682   0.179   9.475   6.138  0.6156  0.5182 -0.0941
  301MOL0     H39683   0.035   9.568   6.395  0.8187 -0.5367 -0.1678
  301MOL0     H39684  -0.033   9.458   6.305  1.0509 -0.3476  2.2547
  301MOL0     H39685  -0.130   9.551   6.048 -0.5464  0.8039 -1.1604
  301MOL0     H39686  -0.206   9.725   5.841 -1.3668  0.5660  0.3451
  301MOL0     H39687  -0.147   9.888   5.868  0.9819 -1.2216  0.0238
  301MOL0     H39688  -0.338   9.864   6.071  0.6210  1.0599  0.0464
  301MOL0     H39689  -0.402   9.736   5.969  1.1723 -0.2113  1.2399
  301MOL0     H39690  -0.522   9.924   5.917 -1.3836 -2.1616 -2.8443
  301MOL0     H39691  -0.370  10.021   5.888 -0.2652 -0.2100 -1.8269
  301MOL0     H39692  -0.377   9.792   5.714  0.1616 -0.0928  0.8620
  301MOL0     H39693  -0.355   9.960   5.685  1.0958 -1.6552 -1.6512
  301MOL0     H39694  -0.499  10.168   5.735 -0.9693  3.4599 -0.2037
  301MOL0     H39695  -0.649  10.329   5.688 -2.6784  0.0856  1.1458
  301MOL0     H39696  -1.281  10.184   5.582 -1.7138 -1.1005 -0.8347
  301MOL0     H39697  -1.478  10.327   5.581 -0.1265 -1.3673  0.9683
  301MOL0     H39698  -1.449  10.730   5.397 -0.2069  1.8846  0.3667
  301MOL0     H39699  -1.438  10.785   5.561 -0.1045 -0.2437  0.7477
  301MOL0     H39700  -1.639  10.865   5.520 -0.7308  0.5741  0.7053
  301MOL0     H39701  -1.696  10.701   5.567  3.0662 -4.1583 -1.0030
  301MOL0     H39702  -1.667  10.641   5.303 -3.5766 -0.4145 -0.7837
  301MOL0     H39703  -1.642  10.807   5.270 -2.4588  2.1398 -0.2657
  301MOL0     H39704  -1.884  10.655   5.355 -0.9652  0.3342 -0.2878
  301MOL0     H39705  -1.885  10.819   5.423  2.0529  1.0331  0.6321
  301MOL0     H39706  -1.901  10.764   5.124 -1.4681  0.0885  0.4962
  301MOL0     H39707  -1.860  10.919   5.193  0.4341  0.1528  1.3813
  301MOL0     H39708  -2.076  10.908   5.332 -1.9903 -0.9401 -0.0828
  301MOL0     H39709  -2.118  10.757   5.244 -0.2958  1.2508 -0.2533
  301MOL0     H39710  -2.027  11.006   5.095  1.1729 -2.6363 -5.1825
  301MOL0     H39711  -2.088  10.850   5.040  1.1052  0.2582 -0.4800
  301MOL0     H39712  -2.257  11.032   5.022 -1.5722 -1.2822 -0.4309
  301MOL0     H39713  -2.230  11.055   5.209 -0.5519  0.8306 -1.0937
  301MOL0     H39714  -1.244  10.666   5.498 -0.6182  0.4575  0.6706
  301MOL0     H39715  -1.041  10.531   5.473 -2.1056  1.5166 -1.9462
  301MOL0     H39716  -0.931  10.041   5.539 -0.3327  1.7153 -2.6328
  301MOL0     H39717  -0.761   9.869   5.575  1.5511 -0.3280 -0.0429
  301MOL0     H39718   1.015   9.179   6.088 -5.2914 -1.5066  1.9444
  301MOL0     H39719   1.238   9.276   6.101 -1.7932 -2.0040 -1.3296
  301MOL0     H39720   1.560   9.487   6.401  0.2942  0.2777  1.3697
  301MOL0     H39721   1.762   9.616   6.468 -0.8013  0.1103  0.9036
  301MOL0     H39722   1.955   9.701   6.407 -0.0957  1.7677 -2.9549
  301MOL0     H39723   1.896   9.771   6.554  0.4963  0.0455  0.0190
  301MOL0     H39724   2.026   9.996   6.473 -3.5377 -1.2431 -0.0847
  301MOL0     H39725   2.120   9.849   6.520 -3.6628 -1.8150  2.2919
  301MOL0     H39726   2.027   9.902   6.243  2.2802  0.7243 -1.9752
  301MOL0     H39727   2.148   9.777   6.307  1.8661  0.3018 -1.9991
  301MOL0     H39728   2.258   9.963   6.182  5.7690 -0.0600  1.6465
  301MOL0     H39729   2.171  10.079   6.288  0.4930 -0.9929 -0.0306
  301MOL0     H39730   2.502   9.998   6.515  2.2318 -0.2295 -2.8380
  301MOL0     H39731   1.616   9.959   6.255 -1.3431 -0.7111 -3.2297
  301MOL0     H39732   1.412   9.851   6.219 -0.0053  0.6384 -1.9156
  302MOL0     O39733   0.603   3.974  10.749  0.4770 -0.4286  0.2105
  302MOL0     C39734   0.666   4.072  10.703 -0.1092 -0.2006  0.3353
  302MOL0     O39735   0.761   4.063  10.605 -0.0227 -0.4125  0.5700
  302MOL0     C39736   0.790   3.949  10.530  0.5075  0.0896  0.9333
  302MOL0     C39737   0.927   3.920  10.491  0.1576 -0.2596 -0.2243
  302MOL0     C39738   0.953   3.831  10.389  0.3990 -0.0790  0.4209
  302MOL0     C39739   0.846   3.744  10.343 -0.3427  0.5314 -0.1048
  302MOL0     O39740   0.867   3.643  10.253 -0.1338  0.8369 -0.1923
  302MOL0     C39741   1.007   3.601  10.231  0.2214 -0.1790  0.0793
  302MOL0     C39742   1.074   3.681  10.120  0.2692  0.2204  0.2899
  302MOL0     C39743   0.999   3.657   9.993 -0.5624  0.2753  0.1115
  302MOL0     C39744   1.038   3.774   9.898 -0.8771 -0.1435 -0.1398
  302MOL0     C39745   1.012   3.738   9.760 -0.1480 -0.6901  0.4923
  302MOL0     C39746   1.082   3.603   9.716 -0.8753  0.7669  0.1172
  302MOL0     C39747   1.104   3.604   9.563  0.4288 -0.2997  0.5973
  302MOL0     C39748   1.175   3.472   9.529 -0.4318  0.4930 -0.0159
  302MOL0     N39749   1.111   3.346   9.570  0.1248 -0.0530 -0.1532
  302MOL0     C39750   0.995   3.288   9.516 -0.9014 -0.2412  0.3508
  302MOL0     C39751   0.982   3.167   9.573  0.5449 -0.8462  0.2980
  302MOL0     C39752   0.868   3.063   9.553  0.2415  0.8375 -0.1813
  302MOL0     C39753   0.930   2.922   9.573  0.7636 -0.8539  0.2997
  302MOL0     C39754   0.844   2.803   9.509  0.7615  0.0114 -0.1525
  302MOL0     C39755   0.695   2.808   9.549 -0.4932  0.7070 -0.4711
  302MOL0     O39756   0.627   2.708   9.480 -0.0583  0.2218 -0.1671
  302MOL0     C39757   0.489   2.709   9.477  0.3563 -0.4419  0.1410
  302MOL0     C39758   0.437   2.626   9.374 -0.0666 -0.3082  0.7738
  302MOL0     C39759   0.301   2.621   9.358 -0.7277  0.1049 -0.4951
  302MOL0     C39760   0.209   2.682   9.444 -0.5356  0.2353 -0.7064
  302MOL0     C39761   0.069   2.661   9.421  0.1856  0.0493 -0.7034
  302MOL0     O39762  -0.019   2.716   9.514  0.2254  0.6852 -0.6465
  302MOL0     C39763  -0.149   2.688   9.507 -0.9230  0.6304 -0.3718
  302MOL0     C39764  -0.211   2.764   9.609 -0.2616 -0.6181 -0.0331
  302MOL0     C39765  -0.351   2.741   9.629 -0.0166  0.2630 -1.6633
  302MOL0     C39766  -0.425   2.648   9.555  0.8820 -0.1729 -0.3557
  302MOL0     O39767  -0.553   2.636   9.593  0.1434  0.0157  0.3286
  302MOL0     C39768  -0.654   2.635   9.486 -0.4498  1.1256 -0.2583
  302MOL0     C39769  -0.776   2.721   9.533  0.1152 -0.4110 -0.4733
  302MOL0     C39770  -0.727   2.865   9.557  0.1790 -1.3948 -0.6720
  302MOL0     C39771  -0.838   2.946   9.645  0.2159  0.4244  0.3512
  302MOL0     C39772  -0.820   2.914   9.796 -0.6366 -0.1820  0.1353
  302MOL0     C39773  -0.710   2.988   9.863 -1.0618  0.5757 -0.0382
  302MOL0     C39774  -0.675   2.929  10.000 -1.0537 -0.1817  0.3878
  302MOL0     C39775  -0.782   2.940  10.111 -0.4010 -0.4493  0.5494
  302MOL0    Cl39776  -0.798   3.113  10.159 -0.3404  0.2077 -0.0121
  302MOL0     C39777  -0.367   2.578   9.461 -0.3379  0.3078 -0.6088
  302MOL0     C39778  -0.229   2.603   9.433  0.1687 -0.3517 -0.3245
  302MOL0     O39779   0.039   2.598   9.320  0.6916 -0.0780 -0.5535
  302MOL0     C39780   0.263   2.767   9.550 -0.0462 -0.6889 -0.6091
  302MOL0     C39781   0.404   2.784   9.560  0.5848 -0.1044  0.6527
  302MOL0     N39782   1.088   3.159   9.667 -0.0089 -0.0901 -0.1961
  302MOL0     N39783   1.164   3.265   9.663  0.9015 -0.6210  0.3115
  302MOL0     C39784   0.715   3.755  10.384  0.0966  0.3281  0.4677
  302MOL0     C39785   0.691   3.862  10.477  0.3343  0.3778 -0.1038
  302MOL0     C39786   0.666   4.204  10.770  0.6198 -0.4195 -0.2778
  302MOL0     C39787   0.552   4.254  10.839  0.2558 -0.1390 -0.3221
  302MOL0     C39788   0.548   4.384  10.888 -0.4563  0.5363  0.5221
  302MOL0     C39789   0.646   4.475  10.869  0.7558  0.0698  1.1063
  302MOL0     O39790   0.615   4.604  10.907  0.5727  0.0114 -0.5039
  302MOL0     C39791   0.715   4.710  10.891 -0.4113 -0.2706  0.0453
  302MOL0     C39792   0.672   4.856  10.916 -0.2095  0.3087  0.1229
  302MOL0     C39793   0.671   4.889  11.067  0.1453 -1.0069 -0.2310
  302MOL0     C39794   0.646   5.048  11.069  0.0935  0.5137 -0.4947
  302MOL0     C39795   0.678   5.105  11.205  0.7208  0.0041  0.9579
  302MOL0     C39796   0.683   5.171  11.305 -0.3753  0.4136  0.3090
  302MOL0     C39797   0.763   4.425  10.817  0.5215 -0.2143  0.0070
  302MOL0     C39798   0.776   4.293  10.765  0.2675  0.0088 -0.3413
  302MOL0     H39799   1.004   3.983  10.536 -0.1648 -0.2342  0.3054
  302MOL0     H39800   1.053   3.829  10.348 -0.1173 -1.1589 -0.8458
  302MOL0     H39801   1.011   3.498  10.193  0.6501 -0.6099  1.2515
  302MOL0     H39802   1.074   3.604  10.317 -0.3068 -0.1584  0.4963
  302MOL0     H39803   1.180   3.656  10.116  0.5483  1.5410 -2.6946
  302MOL0     H39804   1.062   3.787  10.143 -0.6135 -0.2206  2.0895
  302MOL0     H39805   0.890   3.652   9.999 -0.6872  0.0743 -1.7516
  302MOL0     H39806   1.039   3.561   9.961 -0.3156  0.8125 -1.2611
  302MOL0     H39807   0.970   3.859   9.910  0.6922  1.3025 -1.0277
  302MOL0     H39808   1.141   3.810   9.907 -1.1060  0.3777  0.4906
  302MOL0     H39809   1.046   3.822   9.698  0.4610  0.9692  2.9626
  302MOL0     H39810   0.907   3.718   9.736  0.1124 -1.2934 -0.2222
  302MOL0     H39811   1.016   3.527   9.757 -2.9704  2.1476 -0.5058
  302MOL0     H39812   1.177   3.599   9.769 -1.6251  1.0527  1.5318
  302MOL0     H39813   1.003   3.606   9.521 -0.6039 -2.6549  2.7545
  302MOL0     H39814   1.157   3.683   9.510  1.3011 -2.8353 -2.6595
  302MOL0     H39815   1.279   3.485   9.559 -0.4913 -0.4281  0.6609
  302MOL0     H39816   1.184   3.460   9.421  1.0037 -3.1975  0.3514
  302MOL0     H39817   0.927   3.332   9.443  2.3828  2.4340 -1.3689
  302MOL0     H39818   0.831   3.086   9.453 -0.3004  0.0192 -0.1752
  302MOL0     H39819   0.790   3.075   9.628  0.2676  0.0200 -0.0081
  302MOL0     H39820   0.942   2.894   9.678 -0.9195  0.0556  0.7633
  302MOL0     H39821   1.027   2.924   9.521 -1.0553  0.0352 -3.3960
  302MOL0     H39822   0.864   2.831   9.405  2.5189 -0.4025  0.0332
  302MOL0     H39823   0.893   2.709   9.536  1.1971  0.2826  0.0156
  302MOL0     H39824   0.655   2.908   9.529  1.9199  1.8475  0.0392
  302MOL0     H39825   0.690   2.788   9.656  0.2155 -2.9974 -0.9874
  302MOL0     H39826   0.493   2.578   9.294 -2.1525  0.4123 -1.2305
  302MOL0     H39827   0.260   2.562   9.277  2.2684 -0.5616 -1.6356
  302MOL0     H39828  -0.162   2.835   9.674 -3.8148 -0.3024  2.5834
  302MOL0     H39829  -0.394   2.815   9.696  4.4164  2.3818 -0.7963
  302MOL0     H39830  -0.683   2.538   9.445  0.4018 -0.2773  2.2115
  302MOL0     H39831  -0.627   2.688   9.394 -2.1528  1.3255 -0.6730
  302MOL0     H39832  -0.814   2.682   9.628  1.0755  1.8586  0.9440
  302MOL0     H39833  -0.855   2.738   9.460  0.6325  2.5833 -0.4722
  302MOL0     H39834  -0.721   2.925   9.466 -3.3778 -3.1466 -2.2659
  302MOL0     H39835  -0.627   2.853   9.600  0.0905 -2.8343 -0.8098
  302MOL0     H39836  -0.819   3.049   9.615 -0.7162 -0.3919 -3.6192
  302MOL0     H39837  -0.935   2.913   9.607  2.2555 -1.7160 -3.6378
  302MOL0     H39838  -0.803   2.808   9.817  0.9238  0.0630  0.2655
  302MOL0     H39839  -0.916   2.929   9.846  0.3901  2.1484  1.5903
  302MOL0     H39840  -0.738   3.092   9.885 -3.1256  0.1072 -0.2102
  302MOL0     H39841  -0.618   2.987   9.806  1.6647 -0.5398  3.9400
  302MOL0     H39842  -0.656   2.824   9.976 -0.3358 -0.1590  0.8048
  302MOL0     H39843  -0.580   2.972  10.033 -0.7560 -1.0811  0.7508
  302MOL0     H39844  -0.745   2.882  10.197  1.0146 -0.9009 -0.3352
  302MOL0     H39845  -0.875   2.897  10.073  0.8110 -2.0196 -0.8029
  302MOL0     H39846  -0.417   2.494   9.416  0.1238  0.0988 -0.7352
  302MOL0     H39847  -0.191   2.535   9.357  2.2557 -4.5959  3.9258
  302MOL0     H39848   0.200   2.815   9.624  1.6954 -2.3755  2.1607
  302MOL0     H39849   0.453   2.839   9.639 -1.4542  0.5325  1.5423
  302MOL0     H39850   0.637   3.695  10.340 -0.3862  1.0285  0.3632
  302MOL0     H39851   0.595   3.863  10.529  0.1091 -0.8949 -0.4555
  302MOL0     H39852   0.465   4.192  10.856 -1.4877  1.0895 -3.7843
  302MOL0     H39853   0.447   4.419  10.910 -0.4098  1.8942 -1.2345
  302MOL0     H39854   0.758   4.704  10.790  1.4697 -0.2126  0.7962
  302MOL0     H39855   0.806   4.697  10.950  0.0625 -0.1188 -0.6317
  302MOL0     H39856   0.748   4.915  10.863  1.0636  1.1124  2.6887
  302MOL0     H39857   0.572   4.868  10.872  0.0136  1.3939 -0.1380
  302MOL0     H39858   0.761   4.852  11.116  0.8663  1.1423  0.2060
  302MOL0     H39859   0.583   4.848  11.116  0.0742  0.4961  1.0064
  302MOL0     H39860   0.705   5.109  10.999  0.5339 -1.3022 -1.7693
  302MOL0     H39861   0.544   5.069  11.034  0.7583  0.2827 -2.6893
  302MOL0     H39862   0.681   5.227  11.397  0.5409  0.1534  0.4971
  302MOL0     H39863   0.857   4.481  10.815  1.5147 -1.7916  0.7478
  302MOL0     H39864   0.876   4.262  10.735  0.2671 -2.7277  2.0056
  303MOL0     O39865   5.516   6.206   4.210 -0.0934 -0.3707 -0.0752
  303MOL0     C39866   5.527   6.316   4.153  0.8040 -0.4069  0.4256
  303MOL0     O39867   5.440   6.376   4.067  0.2688 -0.1219  0.0491
  303MOL0     C39868   5.318   6.318   4.035 -0.8634 -0.1742 -0.1728
  303MOL0     C39869   5.285   6.185   4.007 -0.0484 -0.3058  0.0472
  303MOL0     C39870   5.149   6.157   3.971 -0.7781  0.3387 -0.1596
  303MOL0     C39871   5.050   6.263   3.960 -0.6369  0.0859  0.4219
  303MOL0     O39872   4.918   6.244   3.923 -0.6227 -0.4974  0.4329
  303MOL0     C39873   4.854   6.124   3.906 -0.5289 -0.2637  0.9371
  303MOL0     C39874   4.723   6.149   3.816 -0.1240 -0.1525  0.5477
  303MOL0     C39875   4.665   6.021   3.750 -0.0817  0.5592  0.1122
  303MOL0     C39876   4.514   6.042   3.729 -0.3612  0.4514  0.2153
  303MOL0     C39877   4.445   5.907   3.728 -0.4107 -0.9205  0.0176
  303MOL0     C39878   4.313   5.925   3.667  1.1739  0.7431  0.2960
  303MOL0     C39879   4.203   5.823   3.707  0.8484  0.1377 -1.0655
  303MOL0     C39880   4.144   5.865   3.836 -0.2445  0.1748  0.1333
  303MOL0     N39881   4.024   5.787   3.877 -0.5883 -0.4524 -0.0490
  303MOL0     C39882   3.916   5.755   3.796  0.6674  0.1757 -0.2556
  303MOL0     C39883   3.823   5.702   3.883  0.2688  0.5274 -1.0196
  303MOL0     C39884   3.686   5.644   3.843 -0.3386  0.6031  0.2230
  303MOL0     C39885   3.574   5.648   3.954 -0.6141  0.1955  0.1148
  303MOL0     C39886   3.435   5.635   3.893  0.7771 -0.5450  0.6141
  303MOL0     C39887   3.402   5.750   3.804  0.6457  0.6458  1.1126
  303MOL0     O39888   3.263   5.781   3.792 -0.3449  0.3936 -0.1218
  303MOL0     C39889   3.188   5.726   3.687 -0.2186 -0.1543  0.9098
  303MOL0     C39890   3.047   5.737   3.698 -0.8671 -0.3526  0.3750
  303MOL0     C39891   2.953   5.701   3.604  0.3298  0.1726  0.6423
  303MOL0     C39892   3.002   5.647   3.486 -0.1071  0.3607 -0.8930
  303MOL0     C39893   2.906   5.595   3.390 -0.2916  0.5147  0.3737
  303MOL0     O39894   2.783   5.612   3.422  0.2095  0.5199 -0.0893
  303MOL0     C39895   2.692   5.549   3.353 -0.2102 -0.2629  0.1811
  303MOL0     C39896   2.656   5.599   3.224 -0.2448  0.5422 -0.2627
  303MOL0     C39897   2.547   5.520   3.166 -0.4437 -0.5931 -0.4114
  303MOL0     C39898   2.491   5.408   3.218  0.0083 -0.4574 -0.0815
  303MOL0     O39899   2.388   5.335   3.174 -0.1655  0.6172 -0.0822
  303MOL0     C39900   2.287   5.397   3.099  0.5537 -0.3020 -0.6057
  303MOL0     C39901   2.170   5.297   3.053  0.7228 -0.1295  0.6022
  303MOL0     C39902   2.090   5.346   2.938  0.0744 -0.3899  0.4752
  303MOL0     C39903   2.159   5.369   2.803 -0.5677 -0.2433 -0.3659
  303MOL0     C39904   2.238   5.241   2.767 -0.2052 -0.5026  1.2482
  303MOL0     C39905   2.163   5.109   2.760  0.2468 -0.2191 -0.8537
  303MOL0     C39906   2.227   4.999   2.665 -1.1394  0.0992  0.4310
  303MOL0     C39907   2.351   4.941   2.735  0.1315  0.3470  0.3182
  303MOL0    Cl39908   2.410   4.790   2.643 -0.2603 -0.2987 -0.4909
  303MOL0     C39909   2.534   5.377   3.351  0.0055 -0.6780  0.8830
  303MOL0     C39910   2.619   5.451   3.415 -0.8052  0.2291  0.1327
  303MOL0     O39911   2.953   5.534   3.287  0.2540  0.1430  0.3106
  303MOL0     C39912   3.142   5.617   3.479  0.1098  0.1971 -0.7769
  303MOL0     C39913   3.232   5.659   3.574  0.1823  0.4679 -0.3713
  303MOL0     N39914   3.876   5.711   4.014  0.5476  0.0440  0.0883
  303MOL0     N39915   3.986   5.773   4.014 -0.3066 -0.1395  0.0290
  303MOL0     C39916   5.095   6.396   3.974  0.9879  0.1665 -0.2085
  303MOL0     C39917   5.225   6.422   4.007 -0.1837 -0.0941  1.1696
  303MOL0     C39918   5.649   6.393   4.187 -1.0653  0.4783 -0.3606
  303MOL0     C39919   5.675   6.519   4.126 -0.1654  0.7727 -0.1182
  303MOL0     C39920   5.805   6.574   4.133 -0.2390  0.0656 -0.0799
  303MOL0     C39921   5.907   6.503   4.201  0.2859 -0.0110  0.1495
  303MOL0     O39922   6.023   6.568   4.218 -0.2931 -0.7491 -0.0007
  303MOL0     C39923   6.140   6.486   4.221  0.8570 -0.1777 -0.3091
  303MOL0     C39924   6.266   6.571   4.212 -0.2540 -0.0601  0.3302
  303MOL0     C39925   6.290   6.646   4.342  0.4137 -0.0088  0.0826
  303MOL0     C39926   6.413   6.734   4.331 -0.8401 -0.6652 -0.4674
  303MOL0     C39927   6.544   6.673   4.360 -0.1539  1.3315 -0.0852
  303MOL0     C39928   6.650   6.616   4.383  0.1024 -1.3953 -0.2802
  303MOL0     C39929   5.879   6.379   4.269  0.7820  0.1555 -0.2306
  303MOL0     C39930   5.753   6.329   4.258  0.9626 -0.0070  1.0267
  303MOL0     H39931   5.371   6.119   4.020  4.2763  4.8039  0.9826
  303MOL0     H39932   5.125   6.051   3.959 -0.6166 -0.0627  2.4879
  303MOL0     H39933   4.835   6.076   4.002  0.6776  0.3345  1.4855
  303MOL0     H39934   4.914   6.049   3.853  0.4335  2.1125 -1.6063
  303MOL0     H39935   4.749   6.206   3.726  0.7990  0.1271  0.9709
  303MOL0     H39936   4.663   6.200   3.892 -1.0230 -2.6734  1.6439
  303MOL0     H39937   4.674   5.937   3.820  0.5683  0.0081 -0.6176
  303MOL0     H39938   4.712   5.985   3.658 -3.9640 -0.9963 -1.4741
  303MOL0     H39939   4.470   6.112   3.801 -1.1539 -1.4741  1.6886
  303MOL0     H39940   4.518   6.086   3.629  3.4985 -2.1035 -0.9747
  303MOL0     H39941   4.443   5.877   3.834  2.0219 -2.2714 -0.2449
  303MOL0     H39942   4.502   5.835   3.670  3.5207 -0.6317  3.0628
  303MOL0     H39943   4.335   5.929   3.560  0.1363  1.0195  0.0837
  303MOL0     H39944   4.267   6.023   3.679 -1.9636 -0.1985 -2.5681
  303MOL0     H39945   4.123   5.820   3.632  1.4415  0.0329 -1.7056
  303MOL0     H39946   4.254   5.727   3.711  0.3660 -0.1030 -0.5468
  303MOL0     H39947   4.119   5.971   3.845 -1.7749 -0.0518 -1.1474
  303MOL0     H39948   4.218   5.862   3.917  0.3248  3.4564 -0.1197
  303MOL0     H39949   3.904   5.768   3.689  1.5412  5.2282  0.0038
  303MOL0     H39950   3.699   5.540   3.812  0.9910  0.6063  0.6917
  303MOL0     H39951   3.660   5.697   3.751  2.7233 -0.4407 -1.3763
  303MOL0     H39952   3.581   5.741   4.012 -0.2904  1.5364 -1.9585
  303MOL0     H39953   3.586   5.555   4.010  2.8176  0.4597  0.0410
  303MOL0     H39954   3.423   5.547   3.828  0.2037  0.4988 -0.7272
  303MOL0     H39955   3.363   5.621   3.973 -1.1837  0.6616 -0.8437
  303MOL0     H39956   3.456   5.733   3.711 -0.5537  2.3389  0.0267
  303MOL0     H39957   3.452   5.840   3.840  1.2622 -0.6891  3.8389
  303MOL0     H39958   3.008   5.783   3.788 -0.8738  0.0255  0.1795
  303MOL0     H39959   2.845   5.710   3.612  0.1706  0.7614 -1.5312
  303MOL0     H39960   2.698   5.689   3.182  1.4687  1.0737  2.3519
  303MOL0     H39961   2.507   5.547   3.069 -3.2986 -1.0209  0.5502
  303MOL0     H39962   2.325   5.443   3.008 -2.7824 -0.1520 -2.0409
  303MOL0     H39963   2.248   5.474   3.166  0.5278  0.1059 -1.0853
  303MOL0     H39964   2.096   5.279   3.131  1.7520  0.9591  1.8815
  303MOL0     H39965   2.217   5.204   3.019 -3.0424 -1.6901 -0.8990
  303MOL0     H39966   2.043   5.442   2.962 -1.5625 -1.1382  0.4327
  303MOL0     H39967   2.010   5.273   2.922 -1.1058  0.8372  0.6091
  303MOL0     H39968   2.077   5.388   2.733 -1.3283 -0.1712  0.5128
  303MOL0     H39969   2.228   5.453   2.814 -0.2929 -0.4772 -0.2964
  303MOL0     H39970   2.329   5.229   2.827 -0.1481 -0.8876  1.0882
  303MOL0     H39971   2.258   5.275   2.665 -0.4921 -0.5167  1.1875
  303MOL0     H39972   2.066   5.128   2.712  1.1827 -0.1039 -2.8305
  303MOL0     H39973   2.145   5.082   2.864  0.7311  1.9927 -0.1334
  303MOL0     H39974   2.160   4.916   2.642  1.5295 -1.1421 -4.1283
  303MOL0     H39975   2.245   5.033   2.563  0.2051 -1.7896 -0.0205
  303MOL0     H39976   2.325   4.916   2.838 -0.7436  0.7425  0.2030
  303MOL0     H39977   2.439   5.005   2.734 -0.2849  0.9662 -1.4920
  303MOL0     H39978   2.491   5.287   3.394  2.6067 -2.8638 -0.7243
  303MOL0     H39979   2.654   5.417   3.511  0.1454 -0.1985 -0.3455
  303MOL0     H39980   3.196   5.582   3.392  0.6663  2.2779 -1.3134
  303MOL0     H39981   3.333   5.624   3.558 -0.4554 -0.5336 -2.4425
  303MOL0     H39982   5.019   6.472   3.957 -1.5763 -2.1012  0.3456
  303MOL0     H39983   5.259   6.525   3.998  0.0652 -0.1021  1.9780
  303MOL0     H39984   5.590   6.572   4.084  0.5148  0.7646 -1.5702
  303MOL0     H39985   5.828   6.673   4.093  1.4488 -0.3264 -0.1126
  303MOL0     H39986   6.146   6.407   4.145 -1.7140  1.0751 -1.9576
  303MOL0     H39987   6.142   6.433   4.316 -2.2546 -0.8438 -0.4964
  303MOL0     H39988   6.352   6.504   4.206 -1.3620 -1.3703 -2.4900
  303MOL0     H39989   6.266   6.642   4.130 -0.7435 -0.4503 -0.0138
  303MOL0     H39990   6.311   6.578   4.424 -0.3790 -0.2215  0.1205
  303MOL0     H39991   6.202   6.701   4.376  0.3532  0.0073 -0.0977
  303MOL0     H39992   6.415   6.790   4.236 -1.4563  0.0169 -0.0945
  303MOL0     H39993   6.397   6.818   4.399 -1.6882 -1.2630  0.0930
  303MOL0     H39994   6.740   6.569   4.415  1.7854  3.3615  3.1105
  303MOL0     H39995   5.954   6.321   4.321  0.9014 -0.7900 -1.4066
  303MOL0     H39996   5.726   6.234   4.302 -0.9589 -0.0487 -0.1443
  304MOL0     O39997   5.979   3.281   3.279  0.1104 -0.0561 -0.3671
  304MOL0     C39998   6.009   3.351   3.375  0.8714  1.2320  0.0647
  304MOL0     O39999   5.926   3.432   3.450 -0.0361 -0.2614 -0.6958
  304MOL0     C40000   5.796   3.448   3.448 -0.1730 -0.5274  0.3947
  304MOL0     C40001   5.721   3.421   3.335  0.4273 -0.0486 -0.7360
  304MOL0     C40002   5.579   3.421   3.345  0.4190  0.4267 -0.7024
  304MOL0     C40003   5.519   3.470   3.463 -0.3716  0.5817  0.4285
  304MOL0     O40004   5.382   3.476   3.465 -0.2093 -0.3665 -0.1299
  304MOL0     C40005   5.298   3.431   3.571 -0.0502 -0.1982  0.1141
  304MOL0     C40006   5.172   3.368   3.510  0.2337  0.0019 -0.4211
  304MOL0     C40007   5.185   3.211   3.488 -0.0758 -0.6333  0.4171
  304MOL0     C40008   5.068   3.147   3.413 -0.1556 -0.1387  0.0442
  304MOL0     C40009   4.936   3.126   3.502 -0.3293  0.0436  0.0610
  304MOL0     C40010   4.823   3.041   3.436 -0.0192 -0.1482  0.2719
  304MOL0     C40011   4.741   3.129   3.338  0.6897 -0.4244  0.4706
  304MOL0     C40012   4.613   3.047   3.318 -0.4478 -0.9096  0.2982
  304MOL0     N40013   4.527   3.121   3.224 -0.2105 -0.5838  0.5211
  304MOL0     C40014   4.451   3.070   3.120 -0.2256 -0.5526  0.0299
  304MOL0     C40015   4.361   3.172   3.082 -0.2840  0.1200  0.0676
  304MOL0     C40016   4.272   3.173   2.959 -0.7811 -0.1623 -0.1967
  304MOL0     C40017   4.143   3.079   2.961 -0.6590  0.8077  0.6574
  304MOL0     C40018   4.050   3.107   3.077 -0.4342  0.2438 -0.4033
  304MOL0     C40019   3.947   3.003   3.117  0.1013 -0.1892  0.0821
  304MOL0     O40020   3.874   2.965   2.999  0.1739 -0.6191  0.3599
  304MOL0     C40021   3.775   2.877   3.021 -0.8111  0.4471 -0.2801
  304MOL0     C40022   3.701   2.860   2.904 -0.3775 -0.2958 -0.1063
  304MOL0     C40023   3.583   2.790   2.906 -0.0271  0.0796 -0.4558
  304MOL0     C40024   3.530   2.743   3.035 -1.0762  0.7372  0.2658
  304MOL0     C40025   3.411   2.663   3.056  0.5402  0.0113  0.9749
  304MOL0     O40026   3.337   2.625   2.944  0.6534 -0.5203  0.7266
  304MOL0     C40027   3.215   2.568   2.966  0.4928 -0.4762  1.8363
  304MOL0     C40028   3.103   2.645   2.987 -0.0404 -0.0645 -0.1603
  304MOL0     C40029   2.978   2.580   3.014 -0.8456 -1.0193  1.0275
  304MOL0     C40030   2.970   2.444   3.034  0.2471  0.5432  0.6132
  304MOL0     O40031   2.845   2.390   3.073 -0.0560 -0.5859  0.5437
  304MOL0     C40032   2.845   2.339   3.204  0.7839  0.4218 -0.9234
  304MOL0     C40033   2.714   2.379   3.270  0.5843 -0.6161  0.0421
  304MOL0     C40034   2.592   2.316   3.190 -0.4873  0.6779  1.0245
  304MOL0     C40035   2.465   2.345   3.264 -0.2586  0.1716 -0.1041
  304MOL0     C40036   2.348   2.256   3.223 -0.0624 -0.1953  0.5383
  304MOL0     C40037   2.207   2.301   3.271 -0.0523 -1.0124  0.7730
  304MOL0     C40038   2.107   2.185   3.282 -0.0187  0.0810  0.1345
  304MOL0     C40039   1.989   2.229   3.369  1.0406 -0.8923  0.4004
  304MOL0    Cl40040   1.904   2.072   3.404 -0.2546  0.0791  0.0841
  304MOL0     C40041   3.092   2.369   3.016 -0.5209  0.4242  0.3388
  304MOL0     C40042   3.210   2.429   2.982 -0.6373  0.2099  0.0170
  304MOL0     O40043   3.381   2.644   3.175  0.0552 -0.1550  0.5300
  304MOL0     C40044   3.605   2.764   3.155 -0.2683 -0.6356  0.2779
  304MOL0     C40045   3.733   2.828   3.146 -0.4005  1.3413  0.4835
  304MOL0     N40046   4.374   3.275   3.180  1.3126 -0.4157  0.5888
  304MOL0     N40047   4.473   3.242   3.260 -0.3924 -0.0955 -0.2428
  304MOL0     C40048   5.605   3.516   3.569 -0.2372  1.2533  0.1980
  304MOL0     C40049   5.741   3.497   3.563  0.9636 -0.8517 -0.2509
  304MOL0     C40050   6.144   3.340   3.431  0.1051 -0.4461  0.9062
  304MOL0     C40051   6.241   3.280   3.360 -1.0313 -1.2828  0.1954
  304MOL0     C40052   6.373   3.250   3.402 -0.2371 -0.4175  0.5833
  304MOL0     C40053   6.408   3.292   3.529 -0.5044  0.8078  0.3821
  304MOL0     O40054   6.529   3.274   3.597 -0.3544  0.3649  0.1449
  304MOL0     C40055   6.647   3.219   3.537 -0.1719  0.1266 -0.7554
  304MOL0     C40056   6.664   3.078   3.588  0.2778  0.5261 -0.5635
  304MOL0     C40057   6.806   3.019   3.557 -0.2548 -0.9427  0.2397
  304MOL0     C40058   6.831   2.896   3.633  0.1018  0.0514  0.4411
  304MOL0     C40059   6.787   2.768   3.571 -0.5543  0.5783 -0.1226
  304MOL0     C40060   6.750   2.670   3.511  0.8174  0.7542  0.7295
  304MOL0     C40061   6.307   3.369   3.603 -0.3671  0.0843  0.6827
  304MOL0     C40062   6.172   3.381   3.561 -0.8152  1.2598  0.5686
  304MOL0     H40063   5.773   3.372   3.254  1.3620 -0.5536  0.1544
  304MOL0     H40064   5.530   3.374   3.260 -2.3877  0.5832  0.6992
  304MOL0     H40065   5.268   3.521   3.625 -6.4435 -2.2089  0.8767
  304MOL0     H40066   5.349   3.362   3.639 -0.5942 -1.6411 -0.8849
  304MOL0     H40067   5.141   3.418   3.418  0.4831 -0.4758 -0.7711
  304MOL0     H40068   5.089   3.386   3.578  2.4706  3.4096  1.7334
  304MOL0     H40069   5.198   3.164   3.586 -0.0480  0.9167  1.1918
  304MOL0     H40070   5.274   3.198   3.425  1.4696 -1.9381  2.7312
  304MOL0     H40071   5.037   3.205   3.326 -2.5266  2.3390  2.3444
  304MOL0     H40072   5.101   3.049   3.375 -0.1507 -1.5558  3.3403
  304MOL0     H40073   4.885   3.217   3.532 -5.9264 -1.7431 -2.6917
  304MOL0     H40074   4.975   3.062   3.582  3.3581 -1.8266 -2.8607
  304MOL0     H40075   4.758   3.010   3.519  0.4705 -1.0041  0.3554
  304MOL0     H40076   4.859   2.950   3.386  2.7878  1.1245 -0.2504
  304MOL0     H40077   4.725   3.228   3.381 -0.7385 -0.4064 -0.0265
  304MOL0     H40078   4.787   3.151   3.241  0.3819  1.1610  0.6574
  304MOL0     H40079   4.551   3.016   3.402 -2.2555 -0.3698 -0.7847
  304MOL0     H40080   4.635   2.954   3.266  2.7249 -1.0773  1.7333
  304MOL0     H40081   4.472   2.974   3.074 -2.1241 -0.0826 -1.9888
  304MOL0     H40082   4.319   3.147   2.863 -2.9971 -0.4346 -1.2836
  304MOL0     H40083   4.233   3.275   2.955 -3.7702 -1.2102 -2.9198
  304MOL0     H40084   4.191   2.981   2.973  0.4064  0.9719 -1.6604
  304MOL0     H40085   4.091   3.088   2.865  1.5337 -0.6847 -0.7676
  304MOL0     H40086   4.113   3.125   3.165 -1.4988 -1.9452  0.8897
  304MOL0     H40087   4.003   3.202   3.053  0.7770  1.3703  1.4121
  304MOL0     H40088   3.872   3.048   3.183  1.1534  2.5868 -0.4609
  304MOL0     H40089   3.994   2.920   3.169  0.4805  0.5323  0.9286
  304MOL0     H40090   3.732   2.909   2.812  0.1172  1.4992  0.9566
  304MOL0     H40091   3.523   2.772   2.817 -2.0663 -0.2682  0.9102
  304MOL0     H40092   3.087   2.752   2.991  0.0384  0.0147 -1.5888
  304MOL0     H40093   2.884   2.627   3.043  0.7644  1.8957  1.9527
  304MOL0     H40094   2.921   2.379   3.271 -1.8230 -1.9378  3.9450
  304MOL0     H40095   2.852   2.230   3.198  0.8401  0.5043 -3.0393
  304MOL0     H40096   2.694   2.486   3.272  0.8227 -0.5769  0.3656
  304MOL0     H40097   2.708   2.345   3.374  0.1715 -0.4699  0.0678
  304MOL0     H40098   2.600   2.209   3.168  2.8756  0.8712  0.8075
  304MOL0     H40099   2.596   2.375   3.098  2.6474  1.6323  1.6613
  304MOL0     H40100   2.468   2.311   3.368 -2.2128 -0.9427 -0.3618
  304MOL0     H40101   2.434   2.450   3.259 -0.9515  0.0240  0.8509
  304MOL0     H40102   2.377   2.155   3.252  1.1361 -0.3389 -1.0163
  304MOL0     H40103   2.344   2.262   3.114  1.6120  4.2504  0.5057
  304MOL0     H40104   2.165   2.371   3.198 -0.2563  0.6079  2.3759
  304MOL0     H40105   2.214   2.357   3.364 -1.7945  1.8507 -0.6794
  304MOL0     H40106   2.081   2.156   3.180  3.2486  0.9982 -1.1032
  304MOL0     H40107   2.161   2.099   3.323 -2.3998 -0.6433  1.9418
  304MOL0     H40108   1.942   2.319   3.328  1.3266 -0.4826  0.9609
  304MOL0     H40109   2.012   2.272   3.466 -1.8309 -4.3729  2.8859
  304MOL0     H40110   3.075   2.262   3.022 -4.3054  0.7877 -0.8722
  304MOL0     H40111   3.305   2.377   2.972  0.6099  2.3890 -0.1339
  304MOL0     H40112   3.570   2.736   3.254 -2.5390  0.5799 -0.1014
  304MOL0     H40113   3.785   2.836   3.241  2.5575  1.6274 -1.0316
  304MOL0     H40114   5.556   3.563   3.654 -2.0108 -0.0455 -0.0444
  304MOL0     H40115   5.805   3.520   3.648 -1.4027  0.7619  1.2104
  304MOL0     H40116   6.206   3.223   3.274  0.5688 -2.0163 -0.0130
  304MOL0     H40117   6.437   3.183   3.346 -2.6185 -1.6011 -0.8897
  304MOL0     H40118   6.730   3.287   3.563 -1.7665  1.7443  0.3439
  304MOL0     H40119   6.631   3.202   3.430 -1.7940 -3.5404 -0.0697
  304MOL0     H40120   6.652   3.085   3.696 -0.0581 -1.6181 -0.4113
  304MOL0     H40121   6.589   3.010   3.545  0.3545 -1.3903  2.0771
  304MOL0     H40122   6.881   3.096   3.580  0.3769 -1.1619 -0.9848
  304MOL0     H40123   6.812   2.998   3.450  0.3674  3.8792 -0.9029
  304MOL0     H40124   6.939   2.883   3.625 -0.0075  0.0203 -4.5702
  304MOL0     H40125   6.797   2.906   3.736 -1.6991  2.5908 -0.2852
  304MOL0     H40126   6.700   2.591   3.460 -0.9181  2.0365  0.3342
  304MOL0     H40127   6.335   3.415   3.697  0.6932  1.6982 -0.3817
  304MOL0     H40128   6.102   3.424   3.632  0.1382  0.3246  2.1632
  305MOL0     O40129   4.485   0.354   8.792  0.4083 -0.8811  0.1586
  305MOL0     C40130   4.429   0.450   8.845 -0.1359 -0.3237 -0.4927
  305MOL0     O40131   4.371   0.450   8.967 -0.0686  0.7080 -0.3259
  305MOL0     C40132   4.368   0.353   9.066  0.1835 -0.4959 -0.3332
  305MOL0     C40133   4.330   0.401   9.188  0.3338 -0.2042 -0.5188
  305MOL0     C40134   4.313   0.332   9.305  0.0791  0.4867 -0.1224
  305MOL0     C40135   4.338   0.186   9.292  0.4003 -0.5489 -0.0345
  305MOL0     O40136   4.323   0.096   9.394 -0.0928 -0.3245  0.2789
  305MOL0     C40137   4.229   0.115   9.507 -0.3125  0.5841  1.0957
  305MOL0     C40138   4.084   0.126   9.463  0.2738 -0.3183 -0.2321
  305MOL0     C40139   3.996   0.137   9.588  0.4229 -0.6555  0.1043
  305MOL0     C40140   3.851   0.123   9.549  0.1047 -0.4173 -0.3581
  305MOL0     C40141   3.759   0.193   9.652 -0.3753  0.2361  0.0631
  305MOL0     C40142   3.743   0.117   9.785 -0.4881 -1.0647 -0.2760
  305MOL0     C40143   3.623   0.173   9.861  0.0755 -0.7982 -0.3296
  305MOL0     C40144   3.481   0.121   9.818  0.5106 -0.2120  0.2683
  305MOL0     N40145   3.382   0.184   9.904  0.7356 -0.4070  0.2032
  305MOL0     C40146   3.377   0.135  10.030  0.3290  0.4126  0.0844
  305MOL0     C40147   3.288   0.225  10.080 -0.4563  0.5303 -0.0553
  305MOL0     C40148   3.243   0.218  10.226  0.2362  0.3379 -0.6286
  305MOL0     C40149   3.094   0.206  10.241  0.3518 -0.5031  0.1301
  305MOL0     C40150   3.045   0.076  10.189 -0.5540 -1.1549 -0.4727
  305MOL0     C40151   3.091  -0.037  10.279 -1.0851 -1.1027 -1.0789
  305MOL0     O40152   3.009  -0.158  10.271 -0.5121 -0.4122 -0.4025
  305MOL0     C40153   2.872  -0.148  10.306 -0.5968 -0.4330 -0.9748
  305MOL0     C40154   2.795  -0.260  10.270 -0.4229 -0.4503  0.3518
  305MOL0     C40155   2.661  -0.273  10.295  0.1352 -0.1190  0.1288
  305MOL0     C40156   2.593  -0.168  10.356 -0.3413  0.1438  0.1705
  305MOL0     C40157   2.445  -0.176  10.370 -0.3168  0.4327 -0.2141
  305MOL0     O40158   2.380  -0.270  10.304 -0.4980  0.5155  0.7920
  305MOL0     C40159   2.248  -0.268  10.307 -0.1345  0.4152 -0.0291
  305MOL0     C40160   2.179  -0.150  10.265  0.1965  0.9165  1.2215
  305MOL0     C40161   2.044  -0.147  10.256 -0.5692  0.1111  0.7251
  305MOL0     C40162   1.967  -0.264  10.278  0.1621 -0.3679 -1.0314
  305MOL0     O40163   1.831  -0.266  10.262 -0.0067  1.0011 -0.0075
  305MOL0     C40164   1.776  -0.180  10.164 -0.1069 -0.2957  0.0582
  305MOL0     C40165   1.631  -0.197  10.113 -0.0177  0.0383 -0.0594
  305MOL0     C40166   1.637  -0.271   9.978  0.5098  0.7968 -0.7310
  305MOL0     C40167   1.636  -0.420   9.992  0.3818  0.6589 -0.0243
  305MOL0     C40168   1.664  -0.508   9.871 -0.1635 -0.5042 -0.9224
  305MOL0     C40169   1.721  -0.646   9.883 -1.4464  0.2685  0.3889
  305MOL0     C40170   1.742  -0.711   9.744  0.2841  1.2321  0.2427
  305MOL0     C40171   1.881  -0.702   9.678  0.9183  0.0227 -0.5917
  305MOL0    Cl40172   1.903  -0.534   9.613  0.0243 -0.0540 -0.2768
  305MOL0     C40173   2.035  -0.375  10.333  0.1552 -0.0486  0.1369
  305MOL0     C40174   2.174  -0.382  10.350 -1.1527 -1.1260  0.6639
  305MOL0     O40175   2.396  -0.103  10.453 -0.5849 -0.1250 -0.1366
  305MOL0     C40176   2.673  -0.053  10.400 -0.2360  1.0611  0.3973
  305MOL0     C40177   2.804  -0.044  10.380 -0.8533 -0.6568 -0.4331
  305MOL0     N40178   3.245   0.318   9.989  0.7441 -0.3163 -0.1279
  305MOL0     N40179   3.307   0.295   9.882 -1.0799  0.0579  0.3964
  305MOL0     C40180   4.385   0.135   9.169 -0.2356 -0.5726 -0.6414
  305MOL0     C40181   4.407   0.222   9.052 -0.8020  0.1822 -0.1871
  305MOL0     C40182   4.409   0.577   8.752 -0.0175 -0.1216  0.4607
  305MOL0     C40183   4.408   0.566   8.617  0.3238  0.0720 -0.5882
  305MOL0     C40184   4.379   0.673   8.528 -0.0058  0.2974 -1.1034
  305MOL0     C40185   4.339   0.792   8.581 -0.5355  0.3349 -0.0135
  305MOL0     O40186   4.294   0.880   8.483  0.4576  0.1204 -0.3756
  305MOL0     C40187   4.213   0.992   8.523 -0.6228 -0.1121  0.4765
  305MOL0     C40188   4.198   1.090   8.408  0.4783 -0.5598  0.8093
  305MOL0     C40189   4.100   1.210   8.440 -0.6807  0.5630 -0.3520
  305MOL0     C40190   4.165   1.320   8.522 -0.2220 -0.2683 -0.5131
  305MOL0     C40191   4.270   1.400   8.451  0.6890  0.8379  0.4127
  305MOL0     C40192   4.361   1.469   8.403  0.0280 -0.6735  0.2015
  305MOL0     C40193   4.335   0.809   8.721  0.2595 -0.5834  0.0543
  305MOL0     C40194   4.362   0.699   8.801  0.7337  0.6863  0.0256
  305MOL0     H40195   4.316   0.509   9.197 -0.0629 -0.1661 -1.4856
  305MOL0     H40196   4.277   0.388   9.391 -6.9339  0.2504 -2.2963
  305MOL0     H40197   4.254   0.214   9.548 -2.7358  2.6656 -1.9418
  305MOL0     H40198   4.251   0.025   9.564 -2.0757 -0.4576  0.2138
  305MOL0     H40199   4.059   0.032   9.412 -0.6076 -0.1947 -0.0399
  305MOL0     H40200   4.069   0.217   9.404  0.9423  0.8962  1.4289
  305MOL0     H40201   4.025   0.231   9.636 -0.5273 -1.6232  2.7704
  305MOL0     H40202   4.018   0.066   9.668  0.2461  2.9586  3.6333
  305MOL0     H40203   3.837   0.187   9.461 -0.4861 -1.5699 -1.1419
  305MOL0     H40204   3.825   0.023   9.512  2.0319 -0.5169 -1.5717
  305MOL0     H40205   3.657   0.211   9.614 -0.7009 -1.0233  0.3196
  305MOL0     H40206   3.810   0.287   9.674 -1.6579  1.0420 -0.2614
  305MOL0     H40207   3.833   0.114   9.847  0.6871  2.5078 -1.5319
  305MOL0     H40208   3.718   0.014   9.759  1.0941 -1.3863 -0.6156
  305MOL0     H40209   3.635   0.138   9.964  2.9981  3.1008  0.8748
  305MOL0     H40210   3.625   0.282   9.860  0.0256 -0.7488 -3.1084
  305MOL0     H40211   3.491   0.012   9.830  1.7187  0.0506  2.0864
  305MOL0     H40212   3.460   0.155   9.716  2.9434  0.9192  0.0888
  305MOL0     H40213   3.421   0.053  10.086 -2.4024 -0.3185  1.3568
  305MOL0     H40214   3.270   0.314  10.272 -2.1530  0.8322 -0.1022
  305MOL0     H40215   3.298   0.138  10.276 -2.4196 -2.0067 -1.2165
  305MOL0     H40216   3.049   0.284  10.179  3.5630 -1.1055 -3.3958
  305MOL0     H40217   3.061   0.229  10.342 -3.4187 -2.5498 -0.4660
  305MOL0     H40218   2.937   0.087  10.200 -0.4980  0.0889 -1.0089
  305MOL0     H40219   3.086   0.065  10.088  3.2063  0.9711  0.6366
  305MOL0     H40220   3.085  -0.007  10.384 -0.1919  0.0952 -1.3444
  305MOL0     H40221   3.195  -0.069  10.271 -0.3147  1.1583 -0.9304
  305MOL0     H40222   2.842  -0.336  10.208  1.7053 -0.7324  2.1731
  305MOL0     H40223   2.611  -0.357  10.248  1.0826 -0.1840 -0.7919
  305MOL0     H40224   2.237  -0.068  10.225  0.9646  0.2238  0.8922
  305MOL0     H40225   2.009  -0.046  10.236 -1.8606 -0.2778  0.9039
  305MOL0     H40226   1.842  -0.191  10.077 -0.3591 -1.8909  0.0274
  305MOL0     H40227   1.779  -0.081  10.210 -0.1045 -0.4408  0.3736
  305MOL0     H40228   1.588  -0.098  10.092  1.8800  0.7127 -0.9873
  305MOL0     H40229   1.571  -0.247  10.190  0.7799  0.4296  0.8326
  305MOL0     H40230   1.716  -0.230   9.915 -0.1601  0.2294 -1.9695
  305MOL0     H40231   1.540  -0.250   9.933 -0.2017 -0.3441  0.2117
  305MOL0     H40232   1.710  -0.449  10.067 -0.2342 -2.8516 -0.5927
  305MOL0     H40233   1.536  -0.443  10.031  2.2704 -1.2860  4.3159
  305MOL0     H40234   1.724  -0.452   9.798  0.2655  1.5984  0.9519
  305MOL0     H40235   1.569  -0.515   9.817 -0.9408  1.2981  0.1314
  305MOL0     H40236   1.658  -0.716   9.939 -0.0571 -1.5596 -0.2265
  305MOL0     H40237   1.800  -0.641   9.958 -2.8168  0.0538  1.9004
  305MOL0     H40238   1.719  -0.817   9.758 -0.1254  1.3167  0.2117
  305MOL0     H40239   1.671  -0.668   9.673  2.1755  3.8414 -0.1957
  305MOL0     H40240   1.896  -0.779   9.602  1.2363 -1.2145  0.6802
  305MOL0     H40241   1.954  -0.709   9.760  3.1719  0.3624 -2.4714
  305MOL0     H40242   1.972  -0.464  10.335 -0.6909  0.4598 -1.6798
  305MOL0     H40243   2.227  -0.471  10.383 -0.4798 -1.1739 -0.4722
  305MOL0     H40244   2.629   0.025  10.462  2.7705  1.5447  2.0927
  305MOL0     H40245   2.857   0.039  10.426  1.9886 -1.6346 -1.7244
  305MOL0     H40246   4.405   0.028   9.180 -0.6121 -0.5542  0.3441
  305MOL0     H40247   4.431   0.184   8.954 -0.5739 -1.2684  0.4093
  305MOL0     H40248   4.439   0.468   8.582  1.9625 -0.3006  1.6839
  305MOL0     H40249   4.388   0.646   8.423  2.3719 -1.6713 -0.4765
  305MOL0     H40250   4.258   1.051   8.604 -0.0172  0.1257 -0.0335
  305MOL0     H40251   4.122   0.938   8.552 -0.0745 -1.9002 -0.9336
  305MOL0     H40252   4.292   1.137   8.377 -0.6298  1.5178  0.3926
  305MOL0     H40253   4.167   1.039   8.316 -0.9870 -0.5785  1.2868
  305MOL0     H40254   4.005   1.174   8.481 -1.0617  1.0632 -0.7856
  305MOL0     H40255   4.074   1.256   8.344 -1.9073 -0.5271 -0.5796
  305MOL0     H40256   4.085   1.383   8.561  0.4620 -0.5914  1.5521
  305MOL0     H40257   4.213   1.278   8.611  0.6622 -0.0846 -0.8921
  305MOL0     H40258   4.438   1.539   8.376  1.8883 -2.9265 -0.7161
  305MOL0     H40259   4.300   0.905   8.758 -0.9577 -0.7096 -0.7179
  305MOL0     H40260   4.369   0.716   8.908  1.1157  0.9423 -0.0417
  306MOL0     O40261   3.550   8.577   0.046 -0.5968 -0.7810  0.8063
  306MOL0     C40262   3.557   8.645  -0.053  0.2296 -0.6661 -0.1340
  306MOL0     O40263   3.474   8.749  -0.094 -0.0983  0.5617  0.2245
  306MOL0     C40264   3.373   8.804  -0.017  0.9592  0.7947 -0.0014
  306MOL0     C40265   3.326   8.930  -0.044 -0.5949 -0.2698  0.7222
  306MOL0     C40266   3.215   8.989   0.013 -0.8197 -0.4168  0.0298
  306MOL0     C40267   3.155   8.922   0.124 -0.6981 -0.8006 -0.1521
  306MOL0     O40268   3.057   8.969   0.200  0.5243 -0.4037 -0.9152
  306MOL0     C40269   2.981   9.078   0.166 -0.4397 -0.0513 -0.6028
  306MOL0     C40270   2.837   9.058   0.215 -0.7139  0.6831 -1.2222
  306MOL0     C40271   2.836   9.085   0.366  1.1703 -1.1504  0.7363
  306MOL0     C40272   2.703   9.042   0.422  0.2799  0.6330  0.7589
  306MOL0     C40273   2.688   9.058   0.573  0.2563  0.0420 -0.1674
  306MOL0     C40274   2.721   9.199   0.615 -0.3851  1.2737  0.7861
  306MOL0     C40275   2.616   9.308   0.601 -0.5663  0.4347  1.3686
  306MOL0     C40276   2.622   9.414   0.702  0.1423 -0.1209 -1.0143
  306MOL0     N40277   2.488   9.482   0.702  0.5133  0.5319 -0.0369
  306MOL0     C40278   2.421   9.530   0.594  0.2382  0.1307 -1.0225
  306MOL0     C40279   2.308   9.573   0.656  0.6396  0.4889  0.0391
  306MOL0     C40280   2.201   9.642   0.576  0.2859 -0.1050  0.1191
  306MOL0     C40281   2.059   9.615   0.632  0.9118 -0.0669  0.5052
  306MOL0     C40282   1.949   9.685   0.538 -0.0812 -0.3258 -0.2515
  306MOL0     C40283   1.809   9.681   0.614 -0.5330 -0.1793 -0.4016
  306MOL0     O40284   1.725   9.765   0.530 -0.4062 -0.3019 -0.4083
  306MOL0     C40285   1.585   9.756   0.538  1.0378 -0.1889  0.0025
  306MOL0     C40286   1.523   9.852   0.458  0.1333 -0.2752  0.6099
  306MOL0     C40287   1.385   9.868   0.462  0.7721  0.6521  0.4917
  306MOL0     C40288   1.307   9.775   0.537 -0.3115  0.3939 -0.0707
  306MOL0     C40289   1.158   9.795   0.542 -0.4178  0.0135  0.0314
  306MOL0     O40290   1.082   9.688   0.581 -0.4299 -0.3333  0.4900
  306MOL0     C40291   0.946   9.707   0.587 -0.4026  1.3400  0.4663
  306MOL0     C40292   0.892   9.825   0.645 -0.1320  0.1499 -0.3640
  306MOL0     C40293   0.751   9.838   0.639  0.1796 -0.4599 -0.2066
  306MOL0     C40294   0.663   9.728   0.617 -0.0021 -0.3282  0.3996
  306MOL0     O40295   0.527   9.736   0.649 -0.5182  0.3064 -1.3020
  306MOL0     C40296   0.441   9.635   0.607  0.4573  0.7162  0.3423
  306MOL0     C40297   0.289   9.675   0.629 -0.8233  0.0696 -0.0764
  306MOL0     C40298   0.201   9.566   0.564  0.3091 -0.0848 -0.1022
  306MOL0     C40299   0.057   9.618   0.572 -0.4555 -0.7560  0.0021
  306MOL0     C40300  -0.048   9.518   0.514  0.6510  0.3072 -0.3154
  306MOL0     C40301  -0.059   9.376   0.586  0.9653 -0.1931 -0.1820
  306MOL0     C40302  -0.188   9.314   0.552 -0.4570  0.5222 -0.2257
  306MOL0     C40303  -0.201   9.178   0.618  0.0585 -0.1625 -0.3661
  306MOL0    Cl40304  -0.367   9.099   0.565  0.4198  0.3346 -0.0886
  306MOL0     C40305   0.722   9.615   0.565 -0.5663 -0.4924  0.3690
  306MOL0     C40306   0.861   9.604   0.545  0.1159 -0.6597  0.6013
  306MOL0     O40307   1.115   9.891   0.480 -0.6153 -0.1427  0.2638
  306MOL0     C40308   1.369   9.678   0.609 -0.4780 -0.2880 -0.0317
  306MOL0     C40309   1.509   9.666   0.620  0.1162  0.4248 -0.1018
  306MOL0     N40310   2.306   9.558   0.794 -0.3696  0.8047  0.4900
  306MOL0     N40311   2.414   9.494   0.816  0.1945 -0.0121 -0.6142
  306MOL0     C40312   3.200   8.790   0.151 -0.5647 -0.4724  0.6628
  306MOL0     C40313   3.303   8.733   0.082 -0.6224  0.5281 -0.4263
  306MOL0     C40314   3.670   8.620  -0.149  0.0351 -0.2214  0.4141
  306MOL0     C40315   3.675   8.691  -0.265  0.1867  0.2968  0.4281
  306MOL0     C40316   3.778   8.664  -0.351  0.3230 -0.2080  0.6352
  306MOL0     C40317   3.858   8.565  -0.333  0.2118  0.8676  0.2321
  306MOL0     O40318   3.946   8.542  -0.437  0.5149  0.6260  0.3170
  306MOL0     C40319   4.008   8.415  -0.451  0.1209  0.5830 -0.7138
  306MOL0     C40320   4.061   8.414  -0.595 -0.8803  0.3286 -0.0173
  306MOL0     C40321   4.111   8.544  -0.666  0.5568  0.7861  0.1332
  306MOL0     C40322   4.147   8.515  -0.810  0.4890  0.5527 -0.0654
  306MOL0     C40323   4.222   8.625  -0.870 -0.4866  0.7035 -0.6959
  306MOL0     C40324   4.305   8.709  -0.904 -0.0353  0.1787 -0.4653
  306MOL0     C40325   3.859   8.495  -0.210 -0.0326 -0.6658 -0.3392
  306MOL0     C40326   3.771   8.528  -0.112 -0.4000 -1.5377  0.3673
  306MOL0     H40327   3.377   8.972  -0.131 -0.6946  2.0470  1.7182
  306MOL0     H40328   3.185   9.088  -0.022  0.2214  0.2405  0.9142
  306MOL0     H40329   2.980   9.095   0.058  1.6395 -2.6225 -1.1318
  306MOL0     H40330   3.019   9.175   0.201 -0.5868 -0.0215 -0.5245
  306MOL0     H40331   2.816   8.952   0.200  0.4889  0.4276 -1.1925
  306MOL0     H40332   2.762   9.119   0.165 -0.7179  1.9637  0.2562
  306MOL0     H40333   2.854   9.191   0.387  6.1133 -1.3555 -1.1052
  306MOL0     H40334   2.911   9.022   0.413  0.4360 -1.1073  2.0006
  306MOL0     H40335   2.633   9.104   0.365  1.3883  1.9257  0.7413
  306MOL0     H40336   2.672   8.940   0.401  2.1141 -0.1592  1.6447
  306MOL0     H40337   2.758   8.986   0.617  0.3388  0.1715 -0.0853
  306MOL0     H40338   2.588   9.029   0.604  0.7793  0.3318  1.9469
  306MOL0     H40339   2.823   9.219   0.583 -0.1046 -3.2176 -1.9663
  306MOL0     H40340   2.728   9.180   0.723  1.4879  3.7213  1.1905
  306MOL0     H40341   2.636   9.347   0.501 -3.5252 -3.0832 -0.8647
  306MOL0     H40342   2.513   9.275   0.584 -0.6881  1.5424 -0.2374
  306MOL0     H40343   2.712   9.475   0.692 -0.6359  1.4004  0.7585
  306MOL0     H40344   2.636   9.359   0.795  2.3055 -0.7089 -1.6287
  306MOL0     H40345   2.455   9.527   0.491  1.9224 -0.7241 -0.4894
  306MOL0     H40346   2.203   9.599   0.476 -3.5303 -0.6845  0.1487
  306MOL0     H40347   2.236   9.745   0.563  2.3087 -0.7633 -0.0009
  306MOL0     H40348   2.055   9.661   0.731  3.2217 -2.0180  1.5950
  306MOL0     H40349   2.036   9.508   0.636  0.3622 -0.0031 -0.6065
  306MOL0     H40350   1.978   9.790   0.526  0.4910 -0.5550 -0.9500
  306MOL0     H40351   1.945   9.628   0.445  0.8459 -2.8424  1.1350
  306MOL0     H40352   1.821   9.713   0.718  0.2235  0.9339 -0.8082
  306MOL0     H40353   1.770   9.579   0.618 -0.3517 -0.2138  0.5100
  306MOL0     H40354   1.582   9.918   0.395 -0.0844 -1.9238 -1.4563
  306MOL0     H40355   1.348   9.948   0.399 -1.5936 -0.5725  0.2273
  306MOL0     H40356   0.966   9.893   0.686  0.0616 -1.7984  2.8583
  306MOL0     H40357   0.707   9.930   0.676 -3.4497 -1.4685 -1.5999
  306MOL0     H40358   0.461   9.534   0.643 -0.1952  0.0012 -1.2264
  306MOL0     H40359   0.449   9.624   0.498 -1.7557 -3.2325  0.4074
  306MOL0     H40360   0.265   9.773   0.588  0.1431  1.5368  2.6328
  306MOL0     H40361   0.267   9.683   0.736  0.1969 -1.5345  0.2882
  306MOL0     H40362   0.215   9.465   0.603  0.6747 -1.2934 -3.1248
  306MOL0     H40363   0.230   9.570   0.459  1.1611  4.0919  0.1142
  306MOL0     H40364   0.030   9.647   0.674  0.6493 -0.8127  0.3160
  306MOL0     H40365   0.051   9.711   0.515 -1.2326 -0.0220  1.2265
  306MOL0     H40366  -0.018   9.488   0.413  0.0300  2.3203 -1.1339
  306MOL0     H40367  -0.148   9.561   0.501  0.2900 -0.4096 -0.0314
  306MOL0     H40368  -0.060   9.395   0.694 -1.0260  1.5804 -0.4379
  306MOL0     H40369   0.033   9.322   0.564  1.2900  0.1901  0.1972
  306MOL0     H40370  -0.275   9.373   0.583 -2.5486 -3.1209  1.5949
  306MOL0     H40371  -0.191   9.297   0.444  4.2074  1.7965 -0.7535
  306MOL0     H40372  -0.204   9.185   0.727 -1.1600  1.8237 -0.4687
  306MOL0     H40373  -0.117   9.110   0.600  1.0990 -0.3969  4.1317
  306MOL0     H40374   0.665   9.526   0.538 -0.6778 -0.0435 -0.9158
  306MOL0     H40375   0.901   9.512   0.504 -2.5887 -0.7665 -2.1077
  306MOL0     H40376   1.315   9.604   0.668  0.2044 -1.0709 -0.3765
  306MOL0     H40377   1.558   9.601   0.693 -0.3498  2.9041  2.6085
  306MOL0     H40378   3.154   8.734   0.231  0.5659 -2.0046  0.2810
  306MOL0     H40379   3.321   8.626   0.091 -1.1095  0.5207  0.6036
  306MOL0     H40380   3.603   8.766  -0.293  0.5357  0.5135  0.1025
  306MOL0     H40381   3.785   8.712  -0.448  0.6670 -1.2135  0.1450
  306MOL0     H40382   3.944   8.329  -0.429 -0.1391  1.0461  0.3711
  306MOL0     H40383   4.088   8.411  -0.376 -0.5458  1.9236  0.1093
  306MOL0     H40384   4.144   8.343  -0.601  1.1281  2.4583  0.8338
  306MOL0     H40385   3.973   8.382  -0.651  0.6236  0.2536 -2.5223
  306MOL0     H40386   4.196   8.586  -0.612 -1.5091  6.3201 -0.3107
  306MOL0     H40387   4.024   8.609  -0.677  0.4883  0.4268 -1.7027
  306MOL0     H40388   4.213   8.427  -0.808  2.1937  1.6320  4.5649
  306MOL0     H40389   4.061   8.502  -0.876  2.8600 -0.1609 -3.2724
  306MOL0     H40390   4.365   8.792  -0.938  1.0641  0.7513  2.5704
  306MOL0     H40391   3.936   8.422  -0.186  0.8739 -0.0357 -1.3231
  306MOL0     H40392   3.773   8.493  -0.010  2.0373 -1.4895  0.4004
  307MOL0     O40393   2.747   0.194   2.829  0.0853 -0.5410 -0.5313
  307MOL0     C40394   2.812   0.136   2.745 -0.4941  0.3021 -0.5707
  307MOL0     O40395   2.752   0.098   2.630 -0.2381  0.4818 -0.1590
  307MOL0     C40396   2.618   0.106   2.598  1.0234 -0.0304 -0.0881
  307MOL0     C40397   2.546  -0.012   2.548  0.2984 -0.2180 -0.4437
  307MOL0     C40398   2.419  -0.002   2.502 -0.8069  0.7503 -0.1115
  307MOL0     C40399   2.343   0.121   2.517 -0.5122  0.5402 -0.1923
  307MOL0     O40400   2.215   0.130   2.471 -0.2299 -1.2933 -0.2209
  307MOL0     C40401   2.133   0.013   2.476  0.3927 -0.5965  0.6654
  307MOL0     C40402   1.999   0.065   2.430  0.0642  0.1298  0.1086
  307MOL0     C40403   1.894  -0.045   2.427  0.2916  0.7049  0.0279
  307MOL0     C40404   1.761  -0.005   2.366  0.6264 -0.4476 -0.1162
  307MOL0     C40405   1.698   0.122   2.424  0.2109  0.0948  0.2099
  307MOL0     C40406   1.563   0.152   2.361  0.2358 -0.4063 -0.0973
  307MOL0     C40407   1.521   0.296   2.383  0.0181 -0.0769 -0.1318
  307MOL0     C40408   1.499   0.324   2.537 -0.3397  0.5156  0.3688
  307MOL0     N40409   1.384   0.254   2.584 -0.0863  1.0635 -0.2305
  307MOL0     C40410   1.262   0.290   2.555 -0.0221 -0.6300  1.0544
  307MOL0     C40411   1.181   0.184   2.589  0.0656 -0.5707  0.1463
  307MOL0     C40412   1.036   0.159   2.576  0.4524 -1.2032 -0.0174
  307MOL0     C40413   0.976   0.095   2.705 -0.0962  0.7705 -0.2303
  307MOL0     C40414   0.826   0.105   2.735 -0.4056  0.8903 -0.2352
  307MOL0     C40415   0.745   0.032   2.635 -1.0836  0.8817  0.5141
  307MOL0     O40416   0.622   0.099   2.632  0.1141  0.1545 -0.1526
  307MOL0     C40417   0.540   0.075   2.527  0.5389 -0.0342  0.8346
  307MOL0     C40418   0.473   0.181   2.467  0.8051 -0.1796 -0.6362
  307MOL0     C40419   0.395   0.154   2.353  0.7722 -0.1150  0.1016
  307MOL0     C40420   0.381   0.022   2.312  0.4819 -0.1833 -0.2982
  307MOL0     C40421   0.294  -0.007   2.193 -0.9224  0.0784 -0.5943
  307MOL0     O40422   0.226  -0.133   2.192 -0.5007  0.1146 -0.3579
  307MOL0     C40423   0.126  -0.151   2.095 -0.6226  0.1694 -0.5632
  307MOL0     C40424   0.015  -0.226   2.130  0.2505 -0.1506 -0.4096
  307MOL0     C40425  -0.089  -0.248   2.048  0.0546  0.8209 -0.0614
  307MOL0     C40426  -0.084  -0.206   1.914  0.0236 -0.1209  0.5147
  307MOL0     O40427  -0.197  -0.235   1.836 -0.0987  0.0290 -0.0267
  307MOL0     C40428  -0.218  -0.138   1.728 -0.0943  0.7261  0.1757
  307MOL0     C40429  -0.336  -0.195   1.645 -0.0351 -0.6476 -0.0605
  307MOL0     C40430  -0.355  -0.097   1.525 -0.0418 -0.3565 -0.5997
  307MOL0     C40431  -0.487  -0.121   1.458 -0.7355 -1.0164 -0.6336
  307MOL0     C40432  -0.506  -0.024   1.343 -0.5188 -0.0562  0.6455
  307MOL0     C40433  -0.641  -0.053   1.278 -1.2909 -0.2113 -0.0737
  307MOL0     C40434  -0.673   0.033   1.150  0.1346  1.3049  0.0381
  307MOL0     C40435  -0.780   0.141   1.172 -0.9139  0.2613 -0.2301
  307MOL0    Cl40436  -0.955   0.078   1.211  0.3617  0.5281 -0.0687
  307MOL0     C40437   0.043  -0.161   1.864  0.0269  0.7164 -0.2117
  307MOL0     C40438   0.143  -0.130   1.958 -0.5811  0.0958  0.2448
  307MOL0     O40439   0.264   0.090   2.119  0.7632  0.6488 -0.1057
  307MOL0     C40440   0.443  -0.084   2.381  1.3491 -0.8359  0.0918
  307MOL0     C40441   0.525  -0.054   2.485 -0.5392  0.3561  0.1664
  307MOL0     N40442   1.271   0.087   2.637  0.4261 -0.4915 -0.0536
  307MOL0     N40443   1.386   0.132   2.640 -0.5724  0.6005 -0.4147
  307MOL0     C40444   2.407   0.229   2.579  0.0674  0.3877  0.4253
  307MOL0     C40445   2.542   0.222   2.612  0.3149 -0.1717 -0.7511
  307MOL0     C40446   2.960   0.107   2.766 -0.9691 -0.6980  0.2533
  307MOL0     C40447   3.017   0.117   2.891 -0.1208  0.6087 -1.5932
  307MOL0     C40448   3.152   0.096   2.904 -0.4889  0.1310  0.3721
  307MOL0     C40449   3.235   0.073   2.789  0.2300  0.3716 -0.2473
  307MOL0     O40450   3.369   0.048   2.780  0.6480  0.3483  0.3680
  307MOL0     C40451   3.433   0.056   2.916 -1.2018  0.4749  0.1703
  307MOL0     C40452   3.579   0.008   2.899 -0.0311  0.5950 -0.4788
  307MOL0     C40453   3.624  -0.035   3.045  0.3495 -0.1265 -0.2593
  307MOL0     C40454   3.774  -0.075   3.042 -0.9256  0.6966  0.2055
  307MOL0     C40455   3.822  -0.133   3.169  0.6395 -0.3006  0.4307
  307MOL0     C40456   3.876  -0.179   3.268  0.2935  0.3932  0.1445
  307MOL0     C40457   3.173   0.065   2.672 -0.2783 -0.1418 -0.0270
  307MOL0     C40458   3.039   0.080   2.655  0.3293 -0.1616  0.0895
  307MOL0     H40459   2.611  -0.098   2.535 -1.1305 -1.6043  1.1157
  307MOL0     H40460   2.377  -0.096   2.466  0.3086 -0.6958  2.0829
  307MOL0     H40461   2.134  -0.026   2.578  0.5940  1.6354  1.5834
  307MOL0     H40462   2.170  -0.052   2.396  0.6653  2.2511 -1.6864
  307MOL0     H40463   2.015   0.114   2.334 -0.9722 -3.5792 -2.1532
  307MOL0     H40464   1.951   0.142   2.492 -1.0668  0.7119 -1.4381
  307MOL0     H40465   1.887  -0.075   2.532  2.3463 -1.3742 -0.3584
  307MOL0     H40466   1.940  -0.133   2.382  0.8195  0.5563  0.8285
  307MOL0     H40467   1.778   0.008   2.259 -0.8277 -0.8692 -0.4196
  307MOL0     H40468   1.699  -0.093   2.384 -0.0627  0.2251  0.9061
  307MOL0     H40469   1.761   0.210   2.408  0.2622 -0.0567 -0.4412
  307MOL0     H40470   1.687   0.116   2.533 -0.9439 -0.9732  0.0481
  307MOL0     H40471   1.486   0.084   2.401  2.0992 -3.0134 -0.6558
  307MOL0     H40472   1.549   0.139   2.253 -3.8975  0.7026  0.1342
  307MOL0     H40473   1.589   0.371   2.343 -1.2255  1.0469 -0.1855
  307MOL0     H40474   1.427   0.317   2.332  1.4683 -0.0161 -2.9906
  307MOL0     H40475   1.490   0.431   2.559  3.1939  1.5080 -2.0951
  307MOL0     H40476   1.591   0.297   2.589 -0.3421  0.0684  0.1429
  307MOL0     H40477   1.225   0.370   2.492  1.1222 -0.3438  0.7421
  307MOL0     H40478   1.021   0.092   2.490 -0.5620 -0.5423 -0.3850
  307MOL0     H40479   0.987   0.254   2.552 -0.6216 -2.0482 -1.3419
  307MOL0     H40480   1.043   0.119   2.788  1.6669  1.7325 -1.8398
  307MOL0     H40481   0.986  -0.012   2.687 -2.2020  1.0929 -4.8064
  307MOL0     H40482   0.795   0.070   2.834 -5.3612 -3.9563 -2.9495
  307MOL0     H40483   0.804   0.211   2.717  1.2952  0.7688 -3.7790
  307MOL0     H40484   0.734  -0.065   2.685  2.3434  0.4710  0.7223
  307MOL0     H40485   0.794   0.008   2.540 -4.6337 -4.0618 -0.4990
  307MOL0     H40486   0.479   0.277   2.518 -0.6117 -0.8837  0.9397
  307MOL0     H40487   0.340   0.234   2.306 -3.1670 -0.0317  4.1860
  307MOL0     H40488   0.007  -0.273   2.227 -3.0192 -4.3822 -2.4108
  307MOL0     H40489  -0.173  -0.296   2.095 -0.0737 -0.2937 -1.3549
  307MOL0     H40490  -0.131  -0.138   1.661 -1.3464 -1.0615 -1.5758
  307MOL0     H40491  -0.238  -0.038   1.766  0.1530  0.2116  1.7150
  307MOL0     H40492  -0.427  -0.192   1.705 -0.0426  3.4871  0.0105
  307MOL0     H40493  -0.310  -0.294   1.609  0.2694  0.1592 -2.1828
  307MOL0     H40494  -0.275  -0.104   1.450 -2.2992 -2.1346 -3.0383
  307MOL0     H40495  -0.369   0.005   1.562 -1.0431 -0.5541 -0.4110
  307MOL0     H40496  -0.500  -0.227   1.431 -3.5270 -1.2507  1.1718
  307MOL0     H40497  -0.571  -0.106   1.527 -0.3066 -1.4220 -0.0174
  307MOL0     H40498  -0.429  -0.040   1.267 -2.6636 -0.3751 -1.5718
  307MOL0     H40499  -0.502   0.082   1.369  2.9391  0.1883 -0.4315
  307MOL0     H40500  -0.716  -0.028   1.353 -0.5047  0.3670  0.5256
  307MOL0     H40501  -0.645  -0.157   1.243 -2.1997  0.0814 -0.8776
  307MOL0     H40502  -0.585   0.084   1.108  1.7944 -1.7799 -0.5794
  307MOL0     H40503  -0.707  -0.045   1.081  3.6107 -0.9803  0.6412
  307MOL0     H40504  -0.791   0.211   1.088  5.1266  3.6424  1.1840
  307MOL0     H40505  -0.743   0.209   1.249 -1.0951 -1.9039  1.8451
  307MOL0     H40506   0.063  -0.144   1.759 -1.9649 -0.5491 -0.8450
  307MOL0     H40507   0.227  -0.073   1.919 -1.1117 -0.6477 -2.1677
  307MOL0     H40508   0.438  -0.186   2.346 -1.1313 -0.9776  0.6214
  307MOL0     H40509   0.582  -0.135   2.530 -0.8881 -0.2746 -0.5112
  307MOL0     H40510   2.360   0.323   2.604  2.4789  1.7368  0.2160
  307MOL0     H40511   2.589   0.306   2.662 -0.2580  0.2848 -0.9567
  307MOL0     H40512   2.958   0.146   2.978  0.1114 -1.2166 -0.7787
  307MOL0     H40513   3.196   0.096   3.003 -0.8537  2.0797  0.5755
  307MOL0     H40514   3.383  -0.014   2.985  3.6363 -0.2352  3.4757
  307MOL0     H40515   3.436   0.162   2.943  0.1517  1.2585 -2.7127
  307MOL0     H40516   3.572  -0.071   2.823 -2.2214  0.3768 -0.1272
  307MOL0     H40517   3.636   0.083   2.844  0.1933 -2.2467 -4.6001
  307MOL0     H40518   3.559  -0.113   3.086 -0.2567  0.9323  0.8884
  307MOL0     H40519   3.613   0.052   3.111 -1.3762  0.2891 -1.0382
  307MOL0     H40520   3.790  -0.155   2.970  0.1997 -0.6619  1.8820
  307MOL0     H40521   3.829   0.012   3.005 -3.1264  1.2698 -1.9989
  307MOL0     H40522   3.934  -0.232   3.341  0.4411  3.5220  2.4861
  307MOL0     H40523   3.228   0.048   2.580 -0.3372  3.2070 -0.7965
  307MOL0     H40524   2.988   0.068   2.559 -1.6738  0.2600  1.0465
  308MOL0     O40525   8.072   5.311   1.065 -0.1648 -0.1304 -0.2093
  308MOL0     C40526   7.994   5.282   1.158 -0.1298 -0.1394  1.1025
  308MOL0     O40527   7.988   5.165   1.225  0.0492 -0.4003 -0.9587
  308MOL0     C40528   8.046   5.056   1.175  0.3715  0.5958  0.0079
  308MOL0     C40529   8.163   5.016   1.237 -0.3683 -0.4164 -0.1781
  308MOL0     C40530   8.237   4.906   1.190 -0.4477 -1.0563 -0.4986
  308MOL0     C40531   8.174   4.832   1.090 -0.6342 -0.3451 -0.3589
  308MOL0     O40532   8.241   4.717   1.063  0.1477 -0.3182  0.1555
  308MOL0     C40533   8.181   4.609   0.988  0.1444 -0.0374  0.4791
  308MOL0     C40534   8.189   4.631   0.836  0.3653 -0.1192 -0.1354
  308MOL0     C40535   8.221   4.506   0.755 -0.3714 -0.2113 -0.0327
  308MOL0     C40536   8.094   4.413   0.725 -0.1662  0.0853 -1.2663
  308MOL0     C40537   8.124   4.311   0.613 -0.2752  0.0487 -0.7242
  308MOL0     C40538   8.230   4.205   0.655  0.8580  0.6628  0.6592
  308MOL0     C40539   8.253   4.104   0.543 -0.1967 -0.0168 -0.5384
  308MOL0     C40540   8.153   3.992   0.508 -0.1054  1.1079 -1.9220
  308MOL0     N40541   8.129   3.923   0.634  0.0802  1.1157 -0.4887
  308MOL0     C40542   8.173   3.788   0.646 -0.6692 -0.4393  0.2154
  308MOL0     C40543   8.123   3.742   0.767  0.5509  0.6564 -0.7197
  308MOL0     C40544   8.179   3.618   0.831 -0.2380 -0.7268  0.6318
  308MOL0     C40545   8.147   3.497   0.755  0.7015 -1.0927 -0.7240
  308MOL0     C40546   8.213   3.372   0.814  0.2248  0.0999  0.1562
  308MOL0     C40547   8.215   3.257   0.708  0.9784 -0.1029 -0.4918
  308MOL0     O40548   8.329   3.160   0.718  0.0159 -0.6511  0.2050
  308MOL0     C40549   8.450   3.214   0.675 -0.0749  0.0528 -0.2790
  308MOL0     C40550   8.477   3.328   0.603 -0.2663 -0.2820 -0.2208
  308MOL0     C40551   8.615   3.371   0.583 -0.0255 -0.6878 -0.2163
  308MOL0     C40552   8.709   3.280   0.630  0.4428 -0.8249  0.4266
  308MOL0     C40553   8.845   3.326   0.605  0.0946 -0.1394  1.2988
  308MOL0     O40554   8.862   3.456   0.569  0.1749 -0.2478  0.5515
  308MOL0     C40555   8.987   3.519   0.593  0.3816 -0.2302  0.0056
  308MOL0     C40556   9.082   3.487   0.694  0.6514 -0.1371 -0.1674
  308MOL0     C40557   9.188   3.572   0.719 -0.5235 -0.9371 -0.9304
  308MOL0     C40558   9.203   3.688   0.658  0.1278 -0.2971  0.5417
  308MOL0     O40559   9.306   3.778   0.691 -0.2313  0.2083  0.3277
  308MOL0     C40560   9.437   3.741   0.748 -0.1840  0.6397  0.6828
  308MOL0     C40561   9.500   3.883   0.771 -0.2979 -0.5462 -0.3727
  308MOL0     C40562   9.544   3.963   0.643  0.4962 -0.4409 -1.0123
  308MOL0     C40563   9.615   3.882   0.531 -0.6397  0.4098 -0.2888
  308MOL0     C40564   9.676   3.967   0.413  0.6703  0.8550  0.1022
  308MOL0     C40565   9.724   3.864   0.309  0.6216 -0.2616 -0.2752
  308MOL0     C40566   9.779   3.949   0.186  0.6507  0.1188 -0.3174
  308MOL0     C40567   9.925   3.995   0.209  0.5264 -1.2477 -0.3141
  308MOL0    Cl40568  10.019   3.840   0.228  0.3145  0.0845 -0.2534
  308MOL0     C40569   9.108   3.728   0.564  0.7844 -0.0827 -0.2431
  308MOL0     C40570   9.003   3.637   0.528 -0.4452  0.1830  0.5900
  308MOL0     O40571   8.932   3.241   0.609  0.1456 -0.1048  0.3187
  308MOL0     C40572   8.678   3.157   0.699  0.1982  0.0228  0.1072
  308MOL0     C40573   8.550   3.133   0.715  0.8004 -0.3300 -0.4537
  308MOL0     N40574   8.027   3.839   0.811 -0.2811  0.0921 -0.4293
  308MOL0     N40575   8.026   3.943   0.729 -0.4394 -0.1261  0.5382
  308MOL0     C40576   8.049   4.862   1.036  0.0673  0.2687  0.5172
  308MOL0     C40577   7.993   4.984   1.064 -0.4962  0.2474  0.1055
  308MOL0     C40578   7.900   5.386   1.194 -0.7884  1.1533 -0.3240
  308MOL0     C40579   7.811   5.370   1.307 -0.0874  0.2481 -0.7647
  308MOL0     C40580   7.727   5.480   1.335 -0.1398 -0.1544 -1.4076
  308MOL0     C40581   7.736   5.602   1.277 -0.0630  0.6057  0.2272
  308MOL0     O40582   7.645   5.703   1.316 -0.2760 -0.3806 -0.4063
  308MOL0     C40583   7.663   5.841   1.264 -0.0307 -0.2370  0.6056
  308MOL0     C40584   7.585   5.868   1.137 -0.5716  1.1327 -1.2847
  308MOL0     C40585   7.573   6.016   1.100 -0.5336  0.6533 -0.3811
  308MOL0     C40586   7.439   6.071   1.159  0.6268  0.1384  0.2332
  308MOL0     C40587   7.446   6.117   1.301 -0.5655  0.2231 -0.1813
  308MOL0     C40588   7.429   6.157   1.420 -0.7296  0.2666 -0.3019
  308MOL0     C40589   7.820   5.619   1.169 -0.7218 -0.6301 -0.1825
  308MOL0     C40590   7.909   5.515   1.133 -0.6307  0.6614 -0.0972
  308MOL0     H40591   8.208   5.069   1.320  1.6865 -3.9727  1.2064
  308MOL0     H40592   8.333   4.879   1.232 -0.6619 -1.9935 -0.5871
  308MOL0     H40593   8.074   4.599   1.012  0.2686 -1.1083  0.6630
  308MOL0     H40594   8.240   4.519   1.008  4.6181  2.4950 -0.1634
  308MOL0     H40595   8.264   4.708   0.818  0.0490 -0.4530 -3.5879
  308MOL0     H40596   8.091   4.667   0.801  0.6703  1.8167  0.8888
  308MOL0     H40597   8.298   4.450   0.810  1.5097  1.4463 -0.8809
  308MOL0     H40598   8.282   4.521   0.666 -1.1262  0.7037 -0.3975
  308MOL0     H40599   8.074   4.347   0.811  0.7648 -0.6652 -1.6130
  308MOL0     H40600   8.002   4.472   0.720 -1.6860 -1.8331  1.3061
  308MOL0     H40601   8.161   4.364   0.525 -1.1083 -1.9653 -2.3503
  308MOL0     H40602   8.028   4.262   0.594 -0.8064 -0.3171  2.3634
  308MOL0     H40603   8.199   4.163   0.751 -2.5178  1.4462  0.0281
  308MOL0     H40604   8.322   4.264   0.671  0.1211  1.7199  1.1241
  308MOL0     H40605   8.280   4.163   0.455 -0.2350 -0.1163 -0.6173
  308MOL0     H40606   8.337   4.049   0.586 -0.9482 -2.1977 -1.7142
  308MOL0     H40607   8.191   3.934   0.423  1.0558  1.9352 -1.9848
  308MOL0     H40608   8.058   4.043   0.486 -0.2798  1.9374  0.4985
  308MOL0     H40609   8.250   3.753   0.578 -0.1097 -1.3362  1.2665
  308MOL0     H40610   8.136   3.609   0.931 -3.7769  1.7953 -0.4827
  308MOL0     H40611   8.288   3.625   0.836 -0.2514 -0.3222  0.3452
  308MOL0     H40612   8.187   3.521   0.656  2.1837  2.3129  0.5309
  308MOL0     H40613   8.040   3.474   0.744  0.1233  1.7660 -1.9401
  308MOL0     H40614   8.314   3.399   0.848  1.5474 -0.3739 -3.0364
  308MOL0     H40615   8.158   3.342   0.904  0.2042 -0.0745  0.0862
  308MOL0     H40616   8.208   3.297   0.607 -0.5309 -0.9792 -0.7634
  308MOL0     H40617   8.125   3.195   0.717 -1.3077  3.0795  0.3017
  308MOL0     H40618   8.407   3.396   0.556 -0.2927  0.1990  0.4947
  308MOL0     H40619   8.634   3.465   0.532 -1.2388  0.5676  1.5355
  308MOL0     H40620   9.072   3.409   0.769 -1.1980  1.6680  1.5885
  308MOL0     H40621   9.254   3.528   0.794 -0.8281  0.5187  0.2338
  308MOL0     H40622   9.478   3.670   0.675 -0.7718 -1.2264  2.1052
  308MOL0     H40623   9.430   3.693   0.846  3.0293  0.4118  0.9217
  308MOL0     H40624   9.575   3.858   0.846 -1.1860 -2.0862  0.0441
  308MOL0     H40625   9.433   3.953   0.822 -0.7773 -0.5030 -1.0414
  308MOL0     H40626   9.606   4.051   0.661  0.3060 -0.3923 -0.5928
  308MOL0     H40627   9.450   3.995   0.596  0.5776 -0.4338 -1.1721
  308MOL0     H40628   9.701   3.845   0.587 -0.2589  1.4405 -0.1748
  308MOL0     H40629   9.553   3.797   0.501 -0.6419  0.2040  0.2873
  308MOL0     H40630   9.760   4.026   0.452  0.3357  0.2890  1.7540
  308MOL0     H40631   9.606   4.033   0.362  1.2411  1.3975  0.0060
  308MOL0     H40632   9.645   3.802   0.264 -1.4681  0.2661  2.3960
  308MOL0     H40633   9.801   3.802   0.356 -1.5354 -0.9200  2.7332
  308MOL0     H40634   9.771   3.897   0.090  2.7542  0.1621 -0.5555
  308MOL0     H40635   9.724   4.044   0.183  1.2786  0.5551  1.1016
  308MOL0     H40636   9.936   4.066   0.291 -0.6739 -1.7092  0.2718
  308MOL0     H40637   9.959   4.039   0.115  1.8560  1.7164  1.4258
  308MOL0     H40638   9.100   3.826   0.517 -0.6894 -1.1857 -2.4870
  308MOL0     H40639   8.930   3.668   0.454 -1.9530 -0.5513  1.7063
  308MOL0     H40640   8.747   3.083   0.736  0.1989 -0.7177 -1.3121
  308MOL0     H40641   8.542   3.035   0.762  1.2173  0.2764  0.9208
  308MOL0     H40642   7.999   4.789   0.973 -0.7908 -0.9798  2.5168
  308MOL0     H40643   7.899   5.018   1.022 -0.2357  0.9937  0.0977
  308MOL0     H40644   7.815   5.283   1.371  1.0975  1.0954  0.3737
  308MOL0     H40645   7.660   5.465   1.420 -1.3079  1.0520 -2.0879
  308MOL0     H40646   7.768   5.868   1.248 -0.8441  2.0327 -1.4919
  308MOL0     H40647   7.632   5.911   1.341 -1.1305 -0.3507  0.2782
  308MOL0     H40648   7.635   5.818   1.053  2.1540  0.2686  0.7324
  308MOL0     H40649   7.490   5.814   1.142  0.0204  0.1506  0.0349
  308MOL0     H40650   7.581   6.017   0.991 -0.1368 -0.7983 -0.3869
  308MOL0     H40651   7.650   6.081   1.143 -2.3201  3.5669 -1.2785
  308MOL0     H40652   7.397   6.156   1.105  2.0760 -0.6255 -2.2398
  308MOL0     H40653   7.360   5.996   1.145  0.2930  0.7726 -1.5643
  308MOL0     H40654   7.412   6.194   1.519  0.1864 -1.4161  0.5289
  308MOL0     H40655   7.830   5.714   1.119  0.5834 -1.3064 -1.2696
  308MOL0     H40656   7.989   5.538   1.063 -0.5574  3.9012  0.8856
  309MOL0     O40657   4.472  10.906   4.977 -0.6528 -1.4846  0.0935
  309MOL0     C40658   4.527  10.821   4.913  0.9283 -0.0994  0.0026
  309MOL0     O40659   4.494  10.689   4.909 -0.5536 -0.2255  0.4187
  309MOL0     C40660   4.371  10.648   4.955  0.4300  0.9074  0.2750
  309MOL0     C40661   4.354  10.569   5.075 -0.3682  0.5861 -0.2200
  309MOL0     C40662   4.229  10.514   5.109  0.4565 -0.0074  0.9121
  309MOL0     C40663   4.119  10.535   5.022  0.2957  0.3884 -0.4987
  309MOL0     O40664   4.001  10.495   5.071  0.8695 -0.0790  0.7822
  309MOL0     C40665   3.886  10.462   4.990 -0.1616  0.8972 -0.7483
  309MOL0     C40666   3.751  10.464   5.061 -0.9748 -0.0604 -0.3379
  309MOL0     C40667   3.746  10.341   5.152  0.6262  0.3446 -0.9642
  309MOL0     C40668   3.615  10.348   5.242 -0.6909 -0.1096 -0.6568
  309MOL0     C40669   3.626  10.246   5.361  0.0287  0.8011  0.3063
  309MOL0     C40670   3.608  10.090   5.318 -0.2612  0.0388 -0.4333
  309MOL0     C40671   3.666   9.987   5.414  0.0643 -0.1988  0.0797
  309MOL0     C40672   3.556   9.945   5.496  0.4123  0.4522 -0.2125
  309MOL0     N40673   3.604   9.883   5.621 -0.0388  0.2627  0.4884
  309MOL0     C40674   3.687   9.770   5.618 -1.1206 -0.2647  0.1243
  309MOL0     C40675   3.736   9.760   5.744  0.0499 -0.7623 -0.1082
  309MOL0     C40676   3.827   9.649   5.797  0.0043  0.0544 -0.0722
  309MOL0     C40677   3.759   9.584   5.915 -0.2940 -0.0501  0.2517
  309MOL0     C40678   3.860   9.484   5.993  0.6278 -0.1308 -0.3226
  309MOL0     C40679   3.797   9.399   6.101  0.5225  0.1325  0.3152
  309MOL0     O40680   3.680   9.332   6.033 -0.7525 -0.3788 -0.6627
  309MOL0     C40681   3.588   9.259   6.106 -0.0557 -0.2469  0.6096
  309MOL0     C40682   3.465   9.240   6.034  0.5894  0.9013 -0.4966
  309MOL0     C40683   3.365   9.169   6.098 -0.4377 -0.7298 -0.2954
  309MOL0     C40684   3.380   9.129   6.232  0.0252 -0.3094 -0.7201
  309MOL0     C40685   3.275   9.046   6.301  0.0685 -0.0022 -0.3809
  309MOL0     O40686   3.162   9.032   6.226 -0.6002  0.2484  0.2946
  309MOL0     C40687   3.062   8.949   6.254  0.0308  0.3796  0.8092
  309MOL0     C40688   3.061   8.825   6.323 -0.2248 -0.6035  0.5493
  309MOL0     C40689   2.947   8.747   6.326  0.2560 -0.4237  0.2491
  309MOL0     C40690   2.829   8.783   6.259  0.1490  0.2400 -0.5942
  309MOL0     O40691   2.726   8.691   6.271 -0.7928  0.2640 -0.2875
  309MOL0     C40692   2.605   8.741   6.209  0.7547 -0.2380 -0.0816
  309MOL0     C40693   2.505   8.631   6.232  0.1859  0.3167  0.1306
  309MOL0     C40694   2.391   8.639   6.130 -0.4262 -0.4951 -0.3245
  309MOL0     C40695   2.278   8.543   6.174  0.1153 -0.5953 -1.1641
  309MOL0     C40696   2.164   8.537   6.073  0.5681 -0.3804  0.7167
  309MOL0     C40697   2.046   8.445   6.104 -0.3678  1.0504 -0.6583
  309MOL0     C40698   2.086   8.306   6.152  0.7095  0.1445  0.5431
  309MOL0     C40699   1.956   8.231   6.190  0.0473 -0.1224 -1.2273
  309MOL0    Cl40700   1.994   8.082   6.279 -0.1166 -0.4682 -0.1805
  309MOL0     C40701   2.826   8.904   6.191 -0.3185 -0.1903  0.8897
  309MOL0     C40702   2.945   8.984   6.183  0.1784  0.7197 -0.1598
  309MOL0     O40703   3.301   9.005   6.413 -0.4563 -0.8519  0.4109
  309MOL0     C40704   3.504   9.142   6.300 -0.9454 -0.3897  0.5336
  309MOL0     C40705   3.610   9.206   6.235  1.1335  0.5719 -1.0362
  309MOL0     N40706   3.689   9.868   5.817  0.5992  0.2190 -0.3905
  309MOL0     N40707   3.604   9.939   5.754  0.1051  0.3860  0.6852
  309MOL0     C40708   4.144  10.590   4.893  0.5378 -0.5726 -0.1281
  309MOL0     C40709   4.267  10.656   4.870  1.0729 -0.7673 -0.3510
  309MOL0     C40710   4.641  10.858   4.833 -0.5568  0.4615 -0.5263
  309MOL0     C40711   4.699  10.985   4.835  0.2068 -0.3558  0.4334
  309MOL0     C40712   4.795  11.024   4.736  0.4799 -0.3233 -0.6165
  309MOL0     C40713   4.840  10.939   4.644 -0.0364  0.0880  0.1414
  309MOL0     O40714   4.935  10.982   4.551 -0.0322  0.0697 -0.7434
  309MOL0     C40715   5.064  10.988   4.610 -0.5855 -0.3285 -0.2606
  309MOL0     C40716   5.168  10.925   4.522 -0.0893 -0.0718  0.1487
  309MOL0     C40717   5.231  11.012   4.416  0.5975 -0.2448  0.0289
  309MOL0     C40718   5.325  10.932   4.333  0.4237  0.3129 -0.0586
  309MOL0     C40719   5.438  10.878   4.415 -0.4159  0.5100  0.5423
  309MOL0     C40720   5.529  10.831   4.483  0.8459 -0.7548  0.1908
  309MOL0     C40721   4.793  10.812   4.644  0.3525  0.8386 -0.1964
  309MOL0     C40722   4.695  10.769   4.737  0.4358  0.0635 -0.3388
  309MOL0     H40723   4.442  10.557   5.137  0.5356  1.5576 -1.2717
  309MOL0     H40724   4.234  10.473   5.209  0.7058  2.2127  1.8571
  309MOL0     H40725   3.908  10.362   4.949 -1.8265  0.4399 -0.5825
  309MOL0     H40726   3.869  10.530   4.906 -0.7247 -0.5412 -1.8569
  309MOL0     H40727   3.669  10.468   4.988 -0.6624 -1.0469 -0.7636
  309MOL0     H40728   3.747  10.558   5.117  1.2099 -0.4254  0.5497
  309MOL0     H40729   3.837  10.348   5.212  2.5204  4.3396 -3.7964
  309MOL0     H40730   3.757  10.245   5.100  2.3363 -0.7205  1.2253
  309MOL0     H40731   3.603  10.449   5.282 -1.2891 -0.8662  1.1873
  309MOL0     H40732   3.521  10.325   5.192 -0.9889 -0.1098 -0.0964
  309MOL0     H40733   3.548  10.268   5.435 -0.5468  0.9152 -0.3204
  309MOL0     H40734   3.726  10.261   5.403 -0.7324  1.9335  1.8176
  309MOL0     H40735   3.656  10.077   5.221 -0.5572 -4.8269 -0.1662
  309MOL0     H40736   3.507  10.060   5.289  0.0921 -3.0992  1.1417
  309MOL0     H40737   3.704   9.900   5.359 -1.4802  1.6474 -4.3294
  309MOL0     H40738   3.742  10.029   5.481  0.3863 -1.1635  0.3401
  309MOL0     H40739   3.496   9.868   5.446  0.6675  0.2274 -0.1715
  309MOL0     H40740   3.493  10.031   5.523 -2.3724 -1.2497 -0.8387
  309MOL0     H40741   3.709   9.707   5.532 -4.7604 -3.6836  1.3726
  309MOL0     H40742   3.925   9.688   5.826 -0.4528  3.1627 -2.2466
  309MOL0     H40743   3.843   9.568   5.725  2.3662 -1.3207  1.8421
  309MOL0     H40744   3.673   9.530   5.876  1.8769 -1.9884 -2.2331
  309MOL0     H40745   3.729   9.659   5.989 -0.9299  1.2433 -1.2402
  309MOL0     H40746   3.903   9.415   5.920  2.5604 -1.9404  2.3304
  309MOL0     H40747   3.939   9.548   6.032  0.8225 -0.0884 -0.7804
  309MOL0     H40748   3.754   9.457   6.183 -0.2868 -2.3120  1.7087
  309MOL0     H40749   3.871   9.325   6.131 -2.0310 -1.6161  2.7834
  309MOL0     H40750   3.455   9.271   5.930  0.3426  1.6300 -0.2634
  309MOL0     H40751   3.281   9.148   6.033  0.7829  3.2992 -3.5715
  309MOL0     H40752   3.147   8.779   6.372  1.1862  1.1325 -0.1767
  309MOL0     H40753   2.952   8.664   6.397  3.7098  1.2343  2.2058
  309MOL0     H40754   2.614   8.756   6.101  0.1457 -3.5070 -0.6815
  309MOL0     H40755   2.574   8.835   6.256  0.5726 -0.6428  0.6266
  309MOL0     H40756   2.472   8.635   6.336  0.6712 -1.4776  0.3958
  309MOL0     H40757   2.559   8.535   6.230  2.3728  1.5001 -0.5753
  309MOL0     H40758   2.427   8.626   6.028  1.4228  3.0175 -0.2959
  309MOL0     H40759   2.344   8.737   6.138 -3.2619 -1.8189  0.3021
  309MOL0     H40760   2.323   8.444   6.190  1.5229  0.3315  0.9215
  309MOL0     H40761   2.232   8.586   6.263  2.1049 -0.0539 -0.3504
  309MOL0     H40762   2.198   8.488   5.981 -2.2733  2.1406 -1.9184
  309MOL0     H40763   2.137   8.642   6.056  3.1862  0.2645  0.0918
  309MOL0     H40764   1.988   8.449   6.012 -2.4801  0.7896  0.5761
  309MOL0     H40765   1.994   8.497   6.186  3.7763  1.8993  1.7118
  309MOL0     H40766   2.138   8.248   6.075 -1.8171 -1.7876  0.1725
  309MOL0     H40767   2.149   8.311   6.242  0.5040 -3.2356  1.0084
  309MOL0     H40768   1.900   8.201   6.101 -0.4873 -1.4548 -0.4667
  309MOL0     H40769   1.896   8.297   6.253  1.5905  0.0979  0.0858
  309MOL0     H40770   2.739   8.931   6.131 -0.6076  0.1244  1.4407
  309MOL0     H40771   2.965   9.074   6.125  0.4583 -0.1712 -1.4844
  309MOL0     H40772   3.520   9.103   6.400 -1.9412 -0.7866  0.5519
  309MOL0     H40773   3.705   9.231   6.281  0.4795 -0.2391  0.8583
  309MOL0     H40774   4.065  10.605   4.821 -1.1431  1.9492  2.0282
  309MOL0     H40775   4.276  10.706   4.774  0.1308  1.3930  0.6318
  309MOL0     H40776   4.666  11.059   4.907 -0.9364  1.4375 -1.7927
  309MOL0     H40777   4.824  11.128   4.734  3.2366 -1.0052 -0.0451
  309MOL0     H40778   5.080  10.938   4.706 -1.4925 -0.8021 -0.3524
  309MOL0     H40779   5.095  11.091   4.632  3.3716 -1.5157  0.6002
  309MOL0     H40780   5.261  10.900   4.575  2.9949  1.7501 -3.8798
  309MOL0     H40781   5.123  10.834   4.480 -2.7905 -0.3254  3.2010
  309MOL0     H40782   5.288  11.096   4.457 -1.0247  0.9888 -0.1284
  309MOL0     H40783   5.148  11.049   4.355 -0.0619 -0.5112  0.7410
  309MOL0     H40784   5.269  10.847   4.292 -1.2519  2.0391 -1.5255
  309MOL0     H40785   5.362  11.003   4.258  2.2568  1.5966  1.9526
  309MOL0     H40786   5.607  10.793   4.545 -0.0999  0.0720  1.9581
  309MOL0     H40787   4.842  10.745   4.574  0.4378  2.6148 -1.9396
  309MOL0     H40788   4.644  10.673   4.727 -5.0179  2.5908  0.0026
  310MOL0     O40789   3.711   9.712   8.825 -0.1544 -0.4110 -0.3987
  310MOL0     C40790   3.735   9.807   8.752 -0.1233 -0.6864 -0.1499
  310MOL0     O40791   3.636   9.900   8.705  0.3183 -0.2756 -0.7325
  310MOL0     C40792   3.510   9.888   8.765  0.1888 -0.3200 -0.2730
  310MOL0     C40793   3.489   9.888   8.906 -0.1941  0.0643 -0.6260
  310MOL0     C40794   3.360   9.874   8.962 -0.0528 -0.6630  0.5859
  310MOL0     C40795   3.246   9.873   8.878  0.4660  0.0227  0.0274
  310MOL0     O40796   3.125   9.835   8.925  0.5576  0.3446 -1.0267
  310MOL0     C40797   3.025   9.790   8.831  0.5315 -0.4120  0.4083
  310MOL0     C40798   2.918   9.704   8.905 -0.4272 -0.0925 -0.6027
  310MOL0     C40799   2.812   9.635   8.813  0.3558 -0.1592 -0.6685
  310MOL0     C40800   2.871   9.557   8.702  0.1047 -0.1161 -0.3725
  310MOL0     C40801   2.764   9.482   8.615  0.0520  0.5450  0.1059
  310MOL0     C40802   2.835   9.409   8.499  0.1969  0.0080  0.2555
  310MOL0     C40803   2.725   9.375   8.385  0.1226 -0.9340 -0.6759
  310MOL0     C40804   2.591   9.304   8.444 -0.0301  0.2024 -0.5847
  310MOL0     N40805   2.506   9.236   8.341  0.1512  0.5134 -0.7586
  310MOL0     C40806   2.417   9.125   8.350  0.3206  0.6016 -0.0836
  310MOL0     C40807   2.395   9.080   8.224  0.6829  1.2049  0.8400
  310MOL0     C40808   2.313   8.955   8.192 -0.3317 -0.7256 -0.3541
  310MOL0     C40809   2.177   8.990   8.134  0.1504 -0.3209  0.0213
  310MOL0     C40810   2.130   8.901   8.016 -0.0724 -1.4459  0.0286
  310MOL0     C40811   2.119   8.757   8.048  0.3733  0.0854  0.0792
  310MOL0     O40812   2.061   8.730   8.177 -0.8890 -0.6045  0.0286
  310MOL0     C40813   2.001   8.606   8.198 -0.0983 -0.3694 -0.5148
  310MOL0     C40814   2.051   8.494   8.136  0.0626  0.0864  0.0858
  310MOL0     C40815   1.981   8.381   8.139  0.0031  0.6006 -0.6805
  310MOL0     C40816   1.867   8.354   8.213  0.7537 -0.0465  0.1365
  310MOL0     C40817   1.795   8.217   8.204  0.1485 -0.0691 -0.4557
  310MOL0     O40818   1.697   8.183   8.297  0.1490  0.1907 -0.8040
  310MOL0     C40819   1.612   8.083   8.277  0.0370  1.6042  1.0252
  310MOL0     C40820   1.563   8.039   8.150 -0.9458 -1.0405 -0.1267
  310MOL0     C40821   1.494   7.921   8.140  0.5128  0.1071 -0.0700
  310MOL0     C40822   1.459   7.846   8.251 -0.3058  0.9095  0.6150
  310MOL0     O40823   1.400   7.720   8.249  0.0812 -0.0867 -0.4481
  310MOL0     C40824   1.464   7.617   8.178 -1.3296  0.3041  0.4118
  310MOL0     C40825   1.363   7.550   8.090  0.5985 -0.5302 -0.5884
  310MOL0     C40826   1.260   7.467   8.174  0.5835 -0.6566 -1.2240
  310MOL0     C40827   1.136   7.447   8.082 -0.0448 -0.2137  0.6139
  310MOL0     C40828   1.027   7.355   8.134 -0.6431 -0.1665 -1.2107
  310MOL0     C40829   0.895   7.367   8.051 -0.4101  0.4319  0.5807
  310MOL0     C40830   0.929   7.335   7.897 -0.6623 -0.4180 -0.2650
  310MOL0     C40831   0.807   7.335   7.807  0.1390  0.0914 -0.1270
  310MOL0    Cl40832   0.685   7.198   7.835 -0.5065 -0.1496  0.4026
  310MOL0     C40833   1.493   7.900   8.378 -0.0958  0.4725  0.1118
  310MOL0     C40834   1.575   8.009   8.383  0.9963 -0.3497  0.1954
  310MOL0     O40835   1.822   8.151   8.103 -0.3685  0.3281 -0.2330
  310MOL0     C40836   1.828   8.463   8.289  0.3640 -0.6485 -0.8040
  310MOL0     C40837   1.882   8.592   8.277 -0.9672 -0.1319 -0.7008
  310MOL0     N40838   2.459   9.166   8.137 -0.0155 -0.4869  0.3319
  310MOL0     N40839   2.523   9.260   8.206  0.0900  0.8498 -0.0726
  310MOL0     C40840   3.265   9.901   8.738 -0.3893  0.6832 -0.3902
  310MOL0     C40841   3.395   9.910   8.680 -0.1172 -0.0571 -0.5592
  310MOL0     C40842   3.875   9.813   8.701 -0.0684 -0.1789  0.2032
  310MOL0     C40843   3.964   9.709   8.725 -0.6205 -0.1878 -0.3460
  310MOL0     C40844   4.105   9.721   8.691 -0.9228  1.0626 -0.6125
  310MOL0     C40845   4.152   9.842   8.642 -0.9296  0.2047  0.4480
  310MOL0     O40846   4.286   9.877   8.618 -0.3476  0.7241  0.2483
  310MOL0     C40847   4.376   9.769   8.584  0.0732  0.1837 -0.5126
  310MOL0     C40848   4.494   9.829   8.510  0.6803  0.2221  0.4132
  310MOL0     C40849   4.461   9.891   8.375  0.2972 -0.7562  0.1416
  310MOL0     C40850   4.537  10.019   8.331 -0.7859  0.7339  1.1823
  310MOL0     C40851   4.467  10.104   8.234 -0.3444  0.4886 -0.1297
  310MOL0     C40852   4.413  10.201   8.179 -0.1154 -0.4957 -0.5201
  310MOL0     C40853   4.065   9.944   8.605 -0.1241 -0.5022  0.4722
  310MOL0     C40854   3.926   9.925   8.631 -0.8757  1.2979 -0.2918
  310MOL0     H40855   3.579   9.892   8.967  0.8716 -1.7930 -1.9940
  310MOL0     H40856   3.352   9.850   9.067  0.7185 -3.1463  0.1450
  310MOL0     H40857   3.072   9.738   8.747 -1.0039 -2.1253  0.5522
  310MOL0     H40858   2.969   9.872   8.784  0.3874 -1.9278 -2.2409
  310MOL0     H40859   2.860   9.763   8.977 -0.0726 -2.2084  1.5441
  310MOL0     H40860   2.967   9.639   8.978 -2.4375  0.2167  1.1345
  310MOL0     H40861   2.750   9.711   8.764 -0.7942 -0.6377  0.0116
  310MOL0     H40862   2.754   9.575   8.884  0.5853  1.3941  0.9065
  310MOL0     H40863   2.913   9.635   8.637 -2.4598 -0.2904 -2.4125
  310MOL0     H40864   2.952   9.497   8.743  1.6732  3.5549  2.5276
  310MOL0     H40865   2.681   9.547   8.586 -0.8184  0.4188  2.1494
  310MOL0     H40866   2.730   9.401   8.680  0.9371  1.1840  1.4072
  310MOL0     H40867   2.887   9.329   8.551  0.9999 -0.5623 -1.3637
  310MOL0     H40868   2.913   9.464   8.446 -1.0347  0.4592 -1.1790
  310MOL0     H40869   2.702   9.473   8.342  2.0379 -0.1025  0.0722
  310MOL0     H40870   2.768   9.313   8.306  1.0703  1.4374 -2.1342
  310MOL0     H40871   2.520   9.378   8.481 -0.8699 -0.8916  0.0458
  310MOL0     H40872   2.620   9.235   8.523  2.9073  2.4772  0.5245
  310MOL0     H40873   2.392   9.084   8.448  0.9849  1.0224  0.2677
  310MOL0     H40874   2.302   8.901   8.287  2.0192  2.1440  1.7625
  310MOL0     H40875   2.369   8.884   8.130  0.7931 -0.9332  0.8277
  310MOL0     H40876   2.181   9.093   8.099  0.7309 -0.1888  0.4637
  310MOL0     H40877   2.101   8.981   8.213 -1.8450  2.7712 -1.3666
  310MOL0     H40878   2.030   8.944   8.001  1.0796  1.4907  0.0294
  310MOL0     H40879   2.187   8.931   7.928  0.5038  0.5419  1.0241
  310MOL0     H40880   2.220   8.716   8.035  0.5822  1.1766 -2.2325
  310MOL0     H40881   2.060   8.704   7.974  2.0318 -3.3318  0.9754
  310MOL0     H40882   2.150   8.504   8.092  0.0249 -0.1323 -0.0525
  310MOL0     H40883   2.016   8.298   8.079 -0.5260 -0.0761 -0.0693
  310MOL0     H40884   1.572   8.084   8.051 -2.4405 -0.2646  0.0583
  310MOL0     H40885   1.472   7.875   8.044  1.8147 -1.2446  0.2466
  310MOL0     H40886   1.506   7.541   8.245 -2.4943 -1.7707 -1.0946
  310MOL0     H40887   1.550   7.652   8.121 -0.0770 -2.6013  0.3115
  310MOL0     H40888   1.407   7.488   8.011  0.3670 -0.0159 -1.1337
  310MOL0     H40889   1.305   7.632   8.047 -3.9271 -2.2867  1.5466
  310MOL0     H40890   1.228   7.521   8.263 -1.1740 -0.9214 -1.6598
  310MOL0     H40891   1.299   7.377   8.223 -0.8922 -0.6372  0.0763
  310MOL0     H40892   1.089   7.545   8.068  2.4481  0.9371 -0.3746
  310MOL0     H40893   1.180   7.408   7.990 -0.2424  0.7271  0.1101
  310MOL0     H40894   0.993   7.387   8.233  0.9247 -1.2425 -0.2716
  310MOL0     H40895   1.056   7.250   8.142 -2.0170 -0.4723  0.4994
  310MOL0     H40896   0.840   7.461   8.057  0.5140  1.1898 -1.5485
  310MOL0     H40897   0.825   7.290   8.083 -1.7900  0.1165 -2.7338
  310MOL0     H40898   0.992   7.416   7.861  0.4370 -0.8069  0.7162
  310MOL0     H40899   0.987   7.245   7.878  1.1015  0.5470  0.3138
  310MOL0     H40900   0.839   7.345   7.703  0.9903  4.6724  0.3434
  310MOL0     H40901   0.746   7.426   7.819 -1.6921 -1.0437 -0.3379
  310MOL0     H40902   1.469   7.833   8.460  0.0183  0.0242 -0.2211
  310MOL0     H40903   1.624   8.030   8.478 -1.8259  2.0094  1.3101
  310MOL0     H40904   1.743   8.471   8.357  0.3371  1.9662 -1.0743
  310MOL0     H40905   1.832   8.677   8.322  1.6560  2.2660 -2.0182
  310MOL0     H40906   3.184   9.900   8.666 -1.6596  1.1694  0.9811
  310MOL0     H40907   3.410   9.933   8.575 -2.0936  0.6240 -0.7274
  310MOL0     H40908   3.933   9.616   8.771 -0.3816  0.6041  1.5433
  310MOL0     H40909   4.166   9.632   8.703 -3.2372 -0.4328  0.9789
  310MOL0     H40910   4.324   9.690   8.529 -0.4484 -1.2075  1.8429
  310MOL0     H40911   4.388   9.721   8.681  2.3319 -0.8391 -1.2087
  310MOL0     H40912   4.527   9.906   8.580 -0.2538  2.7842 -1.7537
  310MOL0     H40913   4.576   9.760   8.489 -0.1807 -0.6212 -0.2969
  310MOL0     H40914   4.359   9.932   8.375  1.1767  1.5819  0.5951
  310MOL0     H40915   4.454   9.811   8.300 -5.4504  1.7649 -2.6419
  310MOL0     H40916   4.560  10.073   8.423  3.6301 -1.8798  1.9295
  310MOL0     H40917   4.640  10.002   8.298 -0.3784  3.9682  0.4951
  310MOL0     H40918   4.372  10.291   8.139  0.7412 -0.9786 -2.6446
  310MOL0     H40919   4.099  10.036   8.558 -2.5389  0.2454  0.0962
  310MOL0     H40920   3.865  10.005   8.590 -3.4468 -0.8045 -0.8992
  311MOL0     O40921   5.660   6.416   8.693  0.0935 -0.4117  0.4144
  311MOL0     C40922   5.661   6.539   8.679 -0.4154  0.0777 -0.3230
  311MOL0     O40923   5.562   6.629   8.705 -0.1203  0.2131 -0.7300
  311MOL0     C40924   5.436   6.583   8.728 -0.2503 -0.1876 -1.0345
  311MOL0     C40925   5.325   6.645   8.669  0.2372  0.5108  0.2223
  311MOL0     C40926   5.192   6.602   8.691  0.3477  0.0736  0.6814
  311MOL0     C40927   5.169   6.487   8.768  0.5624 -0.0339 -0.0025
  311MOL0     O40928   5.030   6.449   8.782  0.5343 -0.4650 -0.4276
  311MOL0     C40929   4.985   6.319   8.838 -0.2296  0.1234 -0.3706
  311MOL0     C40930   4.833   6.300   8.837 -0.0283  0.0959  0.4371
  311MOL0     C40931   4.763   6.383   8.951 -0.5228 -0.5023 -0.2088
  311MOL0     C40932   4.607   6.382   8.935 -0.1998  0.5512  0.4759
  311MOL0     C40933   4.536   6.389   9.074  0.3545  0.0063 -0.6639
  311MOL0     C40934   4.534   6.244   9.136  0.1603 -0.8605  0.5563
  311MOL0     C40935   4.497   6.248   9.285 -0.2631 -0.2684 -0.0089
  311MOL0     C40936   4.629   6.280   9.361  0.2170  0.7034  0.4688
  311MOL0     N40937   4.613   6.288   9.509 -0.4033  0.6425 -1.0719
  311MOL0     C40938   4.713   6.311   9.595  0.2762  0.6623  0.3046
  311MOL0     C40939   4.655   6.314   9.716  1.2452  0.4921  0.5005
  311MOL0     C40940   4.749   6.332   9.830 -0.5129  0.1388  0.0385
  311MOL0     C40941   4.692   6.429   9.938  0.2081 -0.2198 -0.2590
  311MOL0     C40942   4.686   6.582   9.906 -0.3693 -0.7525  0.4462
  311MOL0     C40943   4.822   6.648   9.916  0.8152 -0.0666 -0.3091
  311MOL0     O40944   4.866   6.647   9.781  0.0054  0.5411  0.0766
  311MOL0     C40945   4.995   6.678   9.756 -0.2166  0.5553 -0.0942
  311MOL0     C40946   5.039   6.665   9.632 -0.9903  0.2006  0.7063
  311MOL0     C40947   5.179   6.692   9.610 -0.8857 -0.8276 -0.0397
  311MOL0     C40948   5.265   6.744   9.709 -0.3678 -0.2055  0.2158
  311MOL0     C40949   5.411   6.779   9.690  0.4561  0.0522 -0.1575
  311MOL0     O40950   5.448   6.893   9.764 -0.8161 -0.5175  0.2347
  311MOL0     C40951   5.587   6.914   9.803 -0.1926  1.0179  0.3427
  311MOL0     C40952   5.658   7.030   9.771 -0.2078 -0.5937  0.7976
  311MOL0     C40953   5.802   7.030   9.798  0.4697 -0.9799 -0.6992
  311MOL0     C40954   5.855   6.931   9.874  0.2624 -0.6599  0.1327
  311MOL0     O40955   5.989   6.941   9.905 -1.0118 -0.3951 -0.5024
  311MOL0     C40956   6.036   6.891  10.042  0.2162  0.4191  0.0049
  311MOL0     C40957   6.171   6.955  10.061  0.4001 -0.1069 -0.5701
  311MOL0     C40958   6.227   6.907  10.195  0.3521  0.0637  0.2365
  311MOL0     C40959   6.259   7.020  10.290  0.4076 -0.1252  0.3286
  311MOL0     C40960   6.321   6.953  10.413  0.3225 -0.5161 -0.4395
  311MOL0     C40961   6.375   7.052  10.523  0.5556 -0.1199  0.3957
  311MOL0     C40962   6.476   6.976  10.615 -1.1847  0.2036 -0.0578
  311MOL0     C40963   6.412   6.886  10.715 -0.3671  1.0143  0.4310
  311MOL0    Cl40964   6.335   6.972  10.859 -0.3249 -0.0933  0.5222
  311MOL0     C40965   5.774   6.837   9.927  1.0140  0.6624  0.4641
  311MOL0     C40966   5.644   6.824   9.892  0.0249  0.8814  0.4045
  311MOL0     O40967   5.480   6.714   9.610 -0.1038 -0.5935 -0.1770
  311MOL0     C40968   5.207   6.765   9.830  0.4769 -0.2752  0.1684
  311MOL0     C40969   5.079   6.725   9.865  0.4057 -0.1219 -0.1326
  311MOL0     N40970   4.521   6.290   9.715  0.0956 -0.5822 -0.8580
  311MOL0     N40971   4.501   6.283   9.585 -0.0107  0.1008 -0.1103
  311MOL0     C40972   5.283   6.428   8.836  0.2056 -0.2112  0.7618
  311MOL0     C40973   5.408   6.484   8.821 -0.1585 -0.4588 -0.6103
  311MOL0     C40974   5.783   6.596   8.629 -0.4599  0.3090 -0.3795
  311MOL0     C40975   5.903   6.536   8.660 -0.3410 -0.0098  0.0214
  311MOL0     C40976   6.026   6.599   8.637  0.3243 -0.5468 -0.3300
  311MOL0     C40977   6.030   6.720   8.576  1.0461 -0.9523 -0.3544
  311MOL0     O40978   6.139   6.800   8.559  0.0922  1.0986 -0.7507
  311MOL0     C40979   6.271   6.757   8.593  0.2203 -0.3850  0.1194
  311MOL0     C40980   6.332   6.837   8.710  0.1835 -0.1999 -0.2828
  311MOL0     C40981   6.445   6.752   8.787  0.1208  0.7674  0.3968
  311MOL0     C40982   6.556   6.837   8.845  0.3633  0.6416 -0.1850
  311MOL0     C40983   6.528   6.881   8.983  0.0127  0.2195  0.8981
  311MOL0     C40984   6.522   6.908   9.102  0.0798  0.1569  0.8409
  311MOL0     C40985   5.906   6.780   8.541  0.9810  0.0638 -0.0531
  311MOL0     C40986   5.786   6.719   8.571  0.5082  0.2774  0.5873
  311MOL0     H40987   5.344   6.726   8.600  0.7713  2.0436  2.0813
  311MOL0     H40988   5.111   6.656   8.643 -0.8990 -0.3501  2.2463
  311MOL0     H40989   5.019   6.309   8.941 -0.0436  0.3734 -0.4078
  311MOL0     H40990   5.022   6.233   8.781 -2.2712 -0.3541 -1.0645
  311MOL0     H40991   4.804   6.196   8.858  0.6097 -0.0730  0.5001
  311MOL0     H40992   4.797   6.325   8.737 -0.3342 -2.2123 -0.0895
  311MOL0     H40993   4.804   6.483   8.934  0.4194 -0.8465 -0.0036
  311MOL0     H40994   4.785   6.353   9.054 -1.3388  0.1543  0.1672
  311MOL0     H40995   4.569   6.473   8.889 -2.9981 -0.0630  1.3551
  311MOL0     H40996   4.569   6.288   8.893  2.4989 -0.2796 -0.3082
  311MOL0     H40997   4.434   6.421   9.055  1.0385  2.9262  0.1102
  311MOL0     H40998   4.581   6.460   9.144 -2.9390  0.6738  0.9784
  311MOL0     H40999   4.638   6.216   9.117  0.7803  1.9239 -0.7696
  311MOL0     H41000   4.460   6.183   9.084 -1.6419 -0.4445  2.4880
  311MOL0     H41001   4.430   6.330   9.311  1.1109  0.6335  0.8485
  311MOL0     H41002   4.442   6.158   9.311 -2.1890  1.3997  2.0745
  311MOL0     H41003   4.679   6.366   9.317  1.0005  0.2778  0.4991
  311MOL0     H41004   4.701   6.199   9.346 -0.0353  0.4499  0.6255
  311MOL0     H41005   4.817   6.317   9.566  0.0005  0.8513 -0.7121
  311MOL0     H41006   4.849   6.367   9.801  0.2274 -1.7046  0.2299
  311MOL0     H41007   4.767   6.236   9.880 -0.7578 -0.7435 -1.4986
  311MOL0     H41008   4.758   6.411  10.023  1.2592 -0.3010 -1.0713
  311MOL0     H41009   4.592   6.394   9.965 -0.2716  0.2587 -1.3887
  311MOL0     H41010   4.644   6.584   9.805 -1.6399  1.8495  0.9545
  311MOL0     H41011   4.617   6.645   9.963 -0.0326  2.1025 -2.0447
  311MOL0     H41012   4.891   6.588   9.978  1.0984  1.7154  1.1845
  311MOL0     H41013   4.813   6.751   9.950 -1.7711  0.7324 -3.0744
  311MOL0     H41014   4.980   6.621   9.552  1.5140 -1.7073 -0.2453
  311MOL0     H41015   5.234   6.680   9.517  1.0881 -1.3703  1.1584
  311MOL0     H41016   5.615   7.112   9.716  2.9436  1.7225  1.5136
  311MOL0     H41017   5.858   7.114   9.759 -0.7527 -0.0884 -0.5865
  311MOL0     H41018   6.052   6.783  10.040 -2.9064 -0.1340 -2.4463
  311MOL0     H41019   5.970   6.919  10.124  1.4896 -0.1394  1.2696
  311MOL0     H41020   6.164   7.064  10.050  0.5054 -0.2011 -1.6122
  311MOL0     H41021   6.240   6.917   9.986 -0.8044 -1.1503 -1.1901
  311MOL0     H41022   6.320   6.853  10.175  1.0144  2.1634 -3.1316
  311MOL0     H41023   6.155   6.841  10.244  0.4088  1.6706  2.6930
  311MOL0     H41024   6.340   7.080  10.247  0.8305 -1.0873 -0.2301
  311MOL0     H41025   6.174   7.087  10.310  1.1300  0.8037  0.3807
  311MOL0     H41026   6.402   6.897  10.367  1.3086  0.8655 -0.4371
  311MOL0     H41027   6.251   6.879  10.454 -0.7719 -0.5234 -2.1890
  311MOL0     H41028   6.311   7.110  10.590  0.4851  1.3631 -0.8854
  311MOL0     H41029   6.439   7.123  10.470  0.1175  0.1060  0.1661
  311MOL0     H41030   6.549   6.921  10.555 -1.1843  0.2603 -0.1105
  311MOL0     H41031   6.521   7.053  10.677  0.4450  0.6657 -1.7342
  311MOL0     H41032   6.478   6.810  10.757 -1.8495 -0.0108  0.9718
  311MOL0     H41033   6.340   6.819  10.666  0.1162  0.8054 -0.0061
  311MOL0     H41034   5.813   6.773  10.006  1.6077  0.7929  0.2805
  311MOL0     H41035   5.592   6.744   9.943 -1.0058  0.5901 -1.0752
  311MOL0     H41036   5.274   6.809   9.904 -0.0239 -0.0899  0.5136
  311MOL0     H41037   5.042   6.742   9.965 -1.3576 -0.9584 -0.5938
  311MOL0     H41038   5.263   6.347   8.907 -3.2046  0.2908  0.5216
  311MOL0     H41039   5.485   6.455   8.892 -1.0683 -1.3220  0.0613
  311MOL0     H41040   5.896   6.436   8.703 -3.3973 -0.1970 -0.6990
  311MOL0     H41041   6.115   6.549   8.672 -0.1909 -0.3690  1.3102
  311MOL0     H41042   6.337   6.776   8.508  2.6077 -1.8368  1.5438
  311MOL0     H41043   6.284   6.649   8.605  2.2725 -0.4438 -1.9648
  311MOL0     H41044   6.383   6.925   8.671 -1.0991  0.5556 -0.2785
  311MOL0     H41045   6.266   6.879   8.785  1.2978  2.0461 -0.4785
  311MOL0     H41046   6.489   6.682   8.714  0.1024  2.9644 -1.8662
  311MOL0     H41047   6.393   6.694   8.864  0.8113  2.0607  1.8738
  311MOL0     H41048   6.645   6.772   8.849  1.7334  2.3901 -0.8839
  311MOL0     H41049   6.580   6.919   8.777  0.7703 -1.4901 -2.8107
  311MOL0     H41050   6.544   6.921   9.206 -2.0524 -1.2352  1.5550
  311MOL0     H41051   5.923   6.872   8.487  3.0111  1.7223  3.1142
  311MOL0     H41052   5.695   6.767   8.538 -0.5293 -1.4704  0.7268
  312MOL0     O41053   9.811   2.400   1.179 -0.2656  0.4371  0.8208
  312MOL0     C41054   9.721   2.349   1.111  0.0713  0.3311  0.3520
  312MOL0     O41055   9.711   2.215   1.074  0.5234 -0.0992  0.1808
  312MOL0     C41056   9.816   2.140   1.112  0.1136 -0.0179  0.2715
  312MOL0     C41057   9.906   2.096   1.025 -0.4527  0.6527  0.4440
  312MOL0     C41058  10.004   1.995   1.058  0.0434 -0.4174  0.5317
  312MOL0     C41059  10.009   1.944   1.193 -0.4878  0.4612  0.5437
  312MOL0     O41060  10.102   1.850   1.222 -0.0993 -0.0857  0.2760
  312MOL0     C41061  10.125   1.754   1.114 -0.6167  0.3769  0.0606
  312MOL0     C41062  10.128   1.613   1.179 -0.2008 -0.4379  0.6811
  312MOL0     C41063  10.248   1.573   1.259  0.2086  0.0689 -0.1628
  312MOL0     C41064  10.237   1.597   1.408  0.7820 -0.6318  0.3031
  312MOL0     C41065  10.356   1.531   1.489 -0.2483  0.0414  0.2402
  312MOL0     C41066  10.355   1.565   1.650 -0.4804 -0.5837 -0.0361
  312MOL0     C41067  10.482   1.494   1.688 -0.4521 -0.2556  0.1675
  312MOL0     C41068  10.473   1.475   1.843 -0.5246 -0.7387 -0.6290
  312MOL0     N41069  10.604   1.445   1.913 -0.1162  0.2542 -1.1118
  312MOL0     C41070  10.716   1.521   1.923  0.1198 -0.2041 -0.5985
  312MOL0     C41071  10.786   1.458   2.026  0.2842 -0.3067 -0.1460
  312MOL0     C41072  10.910   1.514   2.089  0.3333  0.1355  0.0044
  312MOL0     C41073  11.026   1.516   1.983  0.1987 -0.1441 -0.2176
  312MOL0     C41074  11.077   1.374   1.950  0.1343  1.2321  0.4989
  312MOL0     C41075  11.169   1.377   1.827  0.0640  0.5618 -0.0982
  312MOL0     O41076  11.309   1.428   1.847  0.5209 -0.2052 -0.0697
  312MOL0     C41077  11.401   1.398   1.753  0.6994 -0.3700 -0.3400
  312MOL0     C41078  11.533   1.379   1.802 -0.2166 -0.2079 -0.7624
  312MOL0     C41079  11.638   1.336   1.723  0.6581 -0.2978  0.3492
  312MOL0     C41080  11.615   1.302   1.590 -0.9132 -0.3910 -0.6921
  312MOL0     C41081  11.730   1.248   1.509  0.6939 -0.6612  1.1191
  312MOL0     O41082  11.850   1.224   1.562  0.1307 -0.4848 -0.6575
  312MOL0     C41083  11.954   1.172   1.488  0.6026  0.0779 -0.0319
  312MOL0     C41084  12.073   1.213   1.544  0.4004 -1.1009  0.8530
  312MOL0     C41085  12.192   1.175   1.489 -1.0851  0.1750 -0.4823
  312MOL0     C41086  12.191   1.100   1.369 -0.1611  1.4359  0.1181
  312MOL0     O41087  12.307   1.069   1.302  0.2370 -0.4281 -0.3496
  312MOL0     C41088  12.424   1.152   1.315 -0.3236 -0.2149  0.2917
  312MOL0     C41089  12.525   1.115   1.212 -0.7624 -0.0622 -0.8159
  312MOL0     C41090  12.643   1.214   1.205  0.1301 -0.5615 -1.4855
  312MOL0     C41091  12.726   1.181   1.084  1.0726  0.3670  1.1521
  312MOL0     C41092  12.866   1.248   1.094  0.2055 -0.0268 -0.8589
  312MOL0     C41093  12.962   1.203   0.986  0.2836 -0.1015  0.4428
  312MOL0     C41094  13.093   1.273   0.993 -0.2210  0.9135 -0.1119
  312MOL0     C41095  13.190   1.233   0.884 -0.4273  0.6899  0.0054
  312MOL0    Cl41096  13.359   1.256   0.934 -0.0217  0.0178 -0.0980
  312MOL0     C41097  12.072   1.069   1.319 -0.3547 -0.4544  0.4582
  312MOL0     C41098  11.950   1.094   1.374 -0.1981  0.1212  0.4397
  312MOL0     O41099  11.708   1.246   1.386 -0.3951  0.0986 -0.2303
  312MOL0     C41100  11.487   1.329   1.538 -0.1283  0.4175  0.5840
  312MOL0     C41101  11.380   1.372   1.614  0.0811 -0.0954 -0.2493
  312MOL0     N41102  10.725   1.345   2.065  0.4249  0.6826  0.8400
  312MOL0     N41103  10.612   1.348   2.006 -0.8337  0.0084 -0.2301
  312MOL0     C41104   9.915   1.987   1.288 -0.3896  0.8732  0.0220
  312MOL0     C41105   9.825   2.085   1.252  0.5453  0.4386  0.5326
  312MOL0     C41106   9.602   2.421   1.067 -0.4634 -0.7372  0.4730
  312MOL0     C41107   9.592   2.559   1.122 -0.6167 -0.0974 -0.2882
  312MOL0     C41108   9.489   2.642   1.074  1.2155 -0.1413 -0.0174
  312MOL0     C41109   9.396   2.596   0.977 -0.6549 -1.1939 -0.0635
  312MOL0     O41110   9.307   2.678   0.924 -0.8239 -0.5721 -0.6761
  312MOL0     C41111   9.171   2.641   0.977 -0.0033 -0.6213 -0.7730
  312MOL0     C41112   9.152   2.666   1.121 -0.1781 -0.6148  0.1976
  312MOL0     C41113   9.185   2.817   1.145  0.6540  0.4201  0.5573
  312MOL0     C41114   9.180   2.846   1.296  1.0968 -0.0753 -0.2759
  312MOL0     C41115   9.290   2.795   1.378 -0.7019 -0.8076  0.0305
  312MOL0     C41116   9.383   2.750   1.435 -0.4400  0.3993 -0.2757
  312MOL0     C41117   9.408   2.466   0.924 -0.5848  0.4821  0.2593
  312MOL0     C41118   9.511   2.381   0.966 -0.2541  1.0471 -1.1859
  312MOL0     H41119   9.897   2.137   0.925  0.2804 -2.2225 -0.9193
  312MOL0     H41120  10.086   1.967   0.993  1.6786  1.0025  1.8868
  312MOL0     H41121  10.219   1.776   1.065  0.5931 -1.8436  1.2271
  312MOL0     H41122  10.051   1.744   1.034  0.8168  0.2134 -1.2956
  312MOL0     H41123  10.117   1.537   1.101  0.6789 -0.8042  0.9076
  312MOL0     H41124  10.037   1.603   1.240 -3.1836 -1.9491 -3.5102
  312MOL0     H41125  10.334   1.624   1.216  1.9994 -1.0604  1.8718
  312MOL0     H41126  10.262   1.466   1.245  2.3558  0.3537 -0.4818
  312MOL0     H41127  10.240   1.706   1.421 -1.7120 -0.4670  0.0817
  312MOL0     H41128  10.143   1.559   1.450 -0.9143  0.7958 -1.9762
  312MOL0     H41129  10.453   1.555   1.446 -0.6670  2.7159  0.5977
  312MOL0     H41130  10.338   1.423   1.489 -1.9104  0.2751 -1.1334
  312MOL0     H41131  10.275   1.513   1.704 -1.5797  0.4625 -0.6118
  312MOL0     H41132  10.363   1.672   1.670 -1.1639 -0.5402  0.0317
  312MOL0     H41133  10.484   1.391   1.651 -1.9950 -1.2322  2.5888
  312MOL0     H41134  10.573   1.550   1.662 -1.3201  1.2658  0.2980
  312MOL0     H41135  10.407   1.390   1.857 -1.0367 -0.5889 -1.9512
  312MOL0     H41136  10.439   1.573   1.878 -0.5263 -0.1752 -2.1314
  312MOL0     H41137  10.731   1.623   1.889 -2.4603  0.7913  0.9083
  312MOL0     H41138  10.934   1.464   2.184  2.3589 -1.0090 -1.0397
  312MOL0     H41139  10.884   1.616   2.120 -0.5503  0.4471 -1.6641
  312MOL0     H41140  11.086   1.586   2.042 -1.0521  0.9333 -0.1989
  312MOL0     H41141  11.001   1.579   1.898  1.3199  0.8829  0.1761
  312MOL0     H41142  11.131   1.326   2.032 -1.7605 -1.2896  0.4081
  312MOL0     H41143  10.992   1.305   1.944 -0.8347  2.4887 -0.5235
  312MOL0     H41144  11.111   1.430   1.750 -1.0966  0.7502  0.8799
  312MOL0     H41145  11.184   1.271   1.803  1.2904  0.8431 -0.6684
  312MOL0     H41146  11.545   1.402   1.908  2.5199  1.3406 -1.3143
  312MOL0     H41147  11.731   1.330   1.778 -1.0974 -0.4167  3.6059
  312MOL0     H41148  12.074   1.274   1.633  2.5267  0.2019  0.0018
  312MOL0     H41149  12.280   1.199   1.547 -1.4888 -2.1389  1.2416
  312MOL0     H41150  12.471   1.129   1.411 -1.6242 -2.8601  0.3574
  312MOL0     H41151  12.395   1.257   1.306  1.5442  0.1459 -3.3201
  312MOL0     H41152  12.481   1.117   1.111 -0.5042  0.9813 -0.9226
  312MOL0     H41153  12.570   1.016   1.216 -1.5373 -0.5586 -2.9357
  312MOL0     H41154  12.702   1.214   1.296  0.8444 -0.6719 -1.9422
  312MOL0     H41155  12.613   1.319   1.194 -0.2188 -0.2564  1.6540
  312MOL0     H41156  12.746   1.074   1.075 -1.2344 -0.1194  1.1940
  312MOL0     H41157  12.683   1.210   0.988  1.2974  0.0706  0.9605
  312MOL0     H41158  12.916   1.220   1.187 -0.9065  1.1971  0.1625
  312MOL0     H41159  12.854   1.357   1.100 -2.1413 -0.1606 -1.7451
  312MOL0     H41160  12.924   1.231   0.887 -1.5395  1.7864  1.6095
  312MOL0     H41161  12.973   1.094   0.992 -1.4673 -0.3364 -0.1464
  312MOL0     H41162  13.084   1.381   0.979 -1.8158  0.7555 -0.5115
  312MOL0     H41163  13.143   1.261   1.089  0.8941  2.3697 -0.4839
  312MOL0     H41164  13.179   1.295   0.795  0.6432  0.1707 -0.5136
  312MOL0     H41165  13.174   1.129   0.854  0.0046  1.0769 -1.6850
  312MOL0     H41166  12.074   1.030   1.218 -1.5522 -1.0890  0.6635
  312MOL0     H41167  11.863   1.041   1.336  1.3043 -1.0586 -1.5479
  312MOL0     H41168  11.465   1.306   1.435  1.6540  1.1055  0.0113
  312MOL0     H41169  11.281   1.393   1.575 -0.4143 -1.7873 -0.0226
  312MOL0     H41170   9.915   1.936   1.384  1.1295  1.7059  0.5057
  312MOL0     H41171   9.757   2.115   1.331  2.5037  0.0297  2.4466
  312MOL0     H41172   9.663   2.611   1.185 -1.5241  0.1982  0.5236
  312MOL0     H41173   9.459   2.734   1.123 -0.7838 -0.0639 -1.2869
  312MOL0     H41174   9.151   2.536   0.955  0.9701 -0.9293 -0.2499
  312MOL0     H41175   9.103   2.709   0.924  0.8993 -0.0032 -1.1540
  312MOL0     H41176   9.046   2.645   1.138 -0.0087  0.0780  2.4506
  312MOL0     H41177   9.223   2.607   1.181  1.4610 -0.2219 -1.2709
  312MOL0     H41178   9.109   2.873   1.089 -1.4004 -0.4318  2.3308
  312MOL0     H41179   9.288   2.844   1.119  0.5188  1.5464  1.1131
  312MOL0     H41180   9.179   2.955   1.304 -1.2026 -0.1615  1.7120
  312MOL0     H41181   9.102   2.785   1.343  1.8512 -0.1593  0.9190
  312MOL0     H41182   9.462   2.699   1.486  0.8731  0.8713 -1.7630
  312MOL0     H41183   9.330   2.443   0.851  0.0718  2.8100 -1.3104
  312MOL0     H41184   9.535   2.289   0.916 -0.7437 -0.7317  1.6146
  313MOL0     O41185   1.811   6.975   0.119  0.3015 -0.4750 -0.5176
  313MOL0     C41186   1.805   6.997   0.239 -1.1080 -0.3656 -0.0495
  313MOL0     O41187   1.700   7.017   0.310 -0.1468  0.3158  0.1592
  313MOL0     C41188   1.569   7.038   0.263  0.2928  0.0509 -0.0718
  313MOL0     C41189   1.520   6.985   0.140 -0.0766  0.5979 -0.3020
  313MOL0     C41190   1.384   7.000   0.111 -0.7932 -0.6644 -0.5300
  313MOL0     C41191   1.294   7.066   0.204 -0.2586  0.6322  0.1932
  313MOL0     O41192   1.162   7.087   0.184  0.3766 -0.7641  0.3537
  313MOL0     C41193   1.114   7.043   0.057  0.1117 -0.2819  0.2367
  313MOL0     C41194   0.959   7.078   0.043 -0.1356 -0.1726  0.2684
  313MOL0     C41195   0.882   6.937   0.039 -0.3105  0.9306 -0.7364
  313MOL0     C41196   0.736   6.947   0.008  0.6508  0.8345  0.0740
  313MOL0     C41197   0.666   6.808   0.004 -0.2600 -0.1654  0.2562
  313MOL0     C41198   0.654   6.743   0.146  0.4559 -0.1315  0.5897
  313MOL0     C41199   0.578   6.608   0.150 -0.0834  0.2624  0.2317
  313MOL0     C41200   0.656   6.475   0.098 -0.2535  0.4926  0.1869
  313MOL0     N41201   0.740   6.422   0.204  0.0404 -0.3028 -0.5474
  313MOL0     C41202   0.878   6.414   0.197  0.3976  0.4575 -0.3403
  313MOL0     C41203   0.910   6.343   0.300 -0.1405 -0.8586  0.2153
  313MOL0     C41204   1.049   6.303   0.343  0.2595 -0.1370  0.2155
  313MOL0     C41205   1.158   6.296   0.236 -0.1203 -0.4472  0.0141
  313MOL0     C41206   1.284   6.269   0.314 -0.7745 -1.6180 -0.6589
  313MOL0     C41207   1.406   6.238   0.230 -0.2121  0.8172  0.2734
  313MOL0     O41208   1.523   6.221   0.309 -0.1335  0.3574  0.0974
  313MOL0     C41209   1.650   6.235   0.248  0.3487  0.0209 -0.1082
  313MOL0     C41210   1.673   6.267   0.112  0.6889 -0.4585  0.2749
  313MOL0     C41211   1.808   6.265   0.067 -0.1078  0.5477  0.4435
  313MOL0     C41212   1.926   6.232   0.133  1.5858  0.3666  0.7076
  313MOL0     C41213   2.052   6.222   0.060  0.8910  0.0771 -0.2693
  313MOL0     O41214   2.058   6.297  -0.059 -0.0431  0.1498 -0.3118
  313MOL0     C41215   2.179   6.310  -0.122  0.7458  0.8297  0.2365
  313MOL0     C41216   2.177   6.262  -0.259  0.0748 -0.1119 -1.1817
  313MOL0     C41217   2.290   6.260  -0.339 -0.8213  0.1354  0.3222
  313MOL0     C41218   2.409   6.310  -0.278 -0.1344  1.1689  0.3165
  313MOL0     O41219   2.522   6.307  -0.361 -0.3746 -0.4046  0.4204
  313MOL0     C41220   2.511   6.342  -0.508  0.6380 -0.9007 -0.7823
  313MOL0     C41221   2.654   6.346  -0.537 -0.5601  0.2283 -0.3521
  313MOL0     C41222   2.716   6.479  -0.498  0.3124 -0.5015  0.8315
  313MOL0     C41223   2.699   6.585  -0.607 -0.1875 -0.0690 -1.1994
  313MOL0     C41224   2.793   6.556  -0.730  0.0519 -0.7404 -0.7422
  313MOL0     C41225   2.778   6.664  -0.822 -0.5054 -1.0282  0.8545
  313MOL0     C41226   2.876   6.646  -0.939 -0.9773 -0.3500 -0.4452
  313MOL0     C41227   2.858   6.747  -1.046  0.0684 -0.6492  0.1472
  313MOL0    Cl41228   2.682   6.775  -1.079  0.1928  0.7226  0.2684
  313MOL0     C41229   2.413   6.360  -0.157  0.1694 -0.9149  0.2847
  313MOL0     C41230   2.297   6.365  -0.074  0.1475 -0.0047 -0.7178
  313MOL0     O41231   2.148   6.167   0.119 -0.3070 -0.0572 -0.2883
  313MOL0     C41232   1.903   6.206   0.272  0.7876 -0.1817  0.0861
  313MOL0     C41233   1.765   6.208   0.323 -0.2493 -1.9975 -0.2010
  313MOL0     N41234   0.802   6.332   0.386 -0.3474 -0.7358  0.2136
  313MOL0     N41235   0.699   6.381   0.329 -0.2561 -0.3064  0.6685
  313MOL0     C41236   1.343   7.131   0.318 -0.7311 -0.2740 -0.6275
  313MOL0     C41237   1.485   7.115   0.345 -0.1006 -0.8141 -0.2686
  313MOL0     C41238   1.935   7.018   0.303  0.7971 -0.4491 -0.8469
  313MOL0     C41239   2.052   6.965   0.243 -0.3996  0.2883 -1.3539
  313MOL0     C41240   2.177   6.967   0.312 -1.0420 -0.2837 -0.2117
  313MOL0     C41241   2.189   7.025   0.440  0.0078  0.2613  0.2291
  313MOL0     O41242   2.306   7.036   0.504 -0.5085 -0.5550  0.4012
  313MOL0     C41243   2.338   6.938   0.596  0.0929  0.0539  0.3565
  313MOL0     C41244   2.441   7.000   0.690 -0.0688 -0.0319 -1.2475
  313MOL0     C41245   2.577   7.027   0.619  0.3712 -0.6225 -0.2898
  313MOL0     C41246   2.671   6.913   0.637  0.8599  0.5687  0.2625
  313MOL0     C41247   2.742   6.919   0.761 -0.4823 -0.2375  0.0167
  313MOL0     C41248   2.810   6.935   0.855  0.1486  0.3929 -0.6719
  313MOL0     C41249   2.073   7.091   0.490 -0.2812  0.4895  0.4410
  313MOL0     C41250   1.945   7.083   0.434 -0.1980  0.1701 -0.3618
  313MOL0     H41251   1.585   6.938   0.066 -1.6078  0.7323 -1.7878
  313MOL0     H41252   1.349   6.950   0.021 -2.4049  0.7658 -0.7452
  313MOL0     H41253   1.131   6.936   0.047  1.6767 -0.4367  3.4792
  313MOL0     H41254   1.170   7.093  -0.023 -3.0377 -1.7157 -3.1880
  313MOL0     H41255   0.939   7.124  -0.054 -2.3879  1.3507  1.3674
  313MOL0     H41256   0.907   7.132   0.124 -0.4991 -0.9622  0.5742
  313MOL0     H41257   0.894   6.876   0.129 -2.9146  1.0318 -0.2436
  313MOL0     H41258   0.933   6.873  -0.034 -0.7584 -2.6149  1.7978
  313MOL0     H41259   0.687   7.018   0.075 -2.0685  0.5217 -1.4499
  313MOL0     H41260   0.708   6.992  -0.088 -2.4833 -4.4152 -1.9301
  313MOL0     H41261   0.715   6.742  -0.068 -1.9686  2.6465 -3.8780
  313MOL0     H41262   0.568   6.821  -0.042  1.3897 -1.0702 -3.9502
  313MOL0     H41263   0.607   6.810   0.218 -0.7563 -1.7142  1.3268
  313MOL0     H41264   0.753   6.712   0.180  1.4087  0.0661 -1.7875
  313MOL0     H41265   0.547   6.594   0.254  0.6524 -1.2979  0.2764
  313MOL0     H41266   0.490   6.608   0.084 -0.9330 -0.9195  1.3206
  313MOL0     H41267   0.716   6.498   0.010 -1.8222  0.1867 -0.9912
  313MOL0     H41268   0.599   6.387   0.067  2.7958 -2.0116  1.1762
  313MOL0     H41269   0.939   6.451   0.115  1.5233 -0.2639  0.1480
  313MOL0     H41270   1.044   6.209   0.397  0.3564 -0.5434 -0.4705
  313MOL0     H41271   1.081   6.370   0.423 -0.7578 -1.7961  2.0896
  313MOL0     H41272   1.164   6.389   0.178 -1.0525  0.4014  1.2129
  313MOL0     H41273   1.141   6.228   0.152 -2.3026 -0.0322  0.0535
  313MOL0     H41274   1.307   6.338   0.395 -0.6164 -2.6570  0.2130
  313MOL0     H41275   1.264   6.179   0.374 -0.2283 -0.1227  1.9003
  313MOL0     H41276   1.421   6.316   0.154  0.8498  2.4098  2.0116
  313MOL0     H41277   1.386   6.145   0.178 -1.0624  0.7524  0.6967
  313MOL0     H41278   1.594   6.285   0.040  2.1437 -1.3025 -1.5892
  313MOL0     H41279   1.815   6.303  -0.035  0.5980  1.4004  0.7960
  313MOL0     H41280   2.080   6.234  -0.301 -0.6719 -1.0372  1.0381
  313MOL0     H41281   2.271   6.225  -0.440 -3.5111 -1.0399  1.1425
  313MOL0     H41282   2.461   6.438  -0.521  0.7901 -0.9668 -1.8995
  313MOL0     H41283   2.466   6.266  -0.572 -1.2661  0.6924 -1.4290
  313MOL0     H41284   2.669   6.330  -0.644  3.4650  2.0824 -0.2217
  313MOL0     H41285   2.703   6.269  -0.477 -1.3410  0.9372  1.2600
  313MOL0     H41286   2.822   6.474  -0.473  0.0820  0.4598  2.1501
  313MOL0     H41287   2.666   6.522  -0.410 -0.3220 -0.4607  0.4565
  313MOL0     H41288   2.600   6.597  -0.651  0.7494 -1.2819 -3.8575
  313MOL0     H41289   2.727   6.678  -0.557  0.8067 -2.2068  2.6501
  313MOL0     H41290   2.775   6.464  -0.786 -1.1382 -0.6732 -0.4835
  313MOL0     H41291   2.891   6.552  -0.680 -0.3216 -0.6207  0.0147
  313MOL0     H41292   2.798   6.757  -0.768 -2.1147 -0.9798  1.4065
  313MOL0     H41293   2.673   6.662  -0.852  0.4620 -1.4413 -3.0397
  313MOL0     H41294   2.979   6.662  -0.905 -1.7699  0.3455  1.8666
  313MOL0     H41295   2.870   6.542  -0.972 -0.7035 -0.3171 -0.6068
  313MOL0     H41296   2.893   6.714  -1.144 -0.6507 -0.7737 -0.0817
  313MOL0     H41297   2.903   6.841  -1.013 -0.4262 -0.7909  1.2872
  313MOL0     H41298   2.504   6.401  -0.114  0.1746  0.0736 -0.6431
  313MOL0     H41299   2.308   6.414   0.022  0.8019  0.7398 -1.1622
  313MOL0     H41300   1.985   6.172   0.335  0.8123 -0.8892 -0.3118
  313MOL0     H41301   1.750   6.183   0.428 -4.4301 -1.1710 -0.4112
  313MOL0     H41302   1.287   7.205   0.374 -2.6716 -4.0614  3.0183
  313MOL0     H41303   1.533   7.170   0.425  1.2235 -3.5969  0.9985
  313MOL0     H41304   2.042   6.897   0.159  1.4091 -1.2516 -0.3946
  313MOL0     H41305   2.262   6.925   0.260  0.8161  1.1171  1.5252
  313MOL0     H41306   2.389   6.859   0.541 -0.0974  0.9315 -1.1629
  313MOL0     H41307   2.254   6.905   0.658  1.9436  1.5448  3.9781
  313MOL0     H41308   2.398   7.097   0.716  0.4958  0.7125 -2.9286
  313MOL0     H41309   2.457   6.944   0.782 -0.2154  2.4201  0.3549
  313MOL0     H41310   2.623   7.112   0.670 -3.4272  1.9228 -0.6122
  313MOL0     H41311   2.566   7.060   0.515 -2.2838 -0.8554 -0.1643
  313MOL0     H41312   2.626   6.815   0.623  0.3503  1.1499 -3.0613
  313MOL0     H41313   2.750   6.923   0.561  2.0213  0.4337  1.4216
  313MOL0     H41314   2.874   6.953   0.939  0.7743 -3.6792 -0.0891
  313MOL0     H41315   2.087   7.162   0.571  1.8416  0.6514 -0.0061
  313MOL0     H41316   1.864   7.148   0.464 -0.4193 -0.8010  1.3093
  314MOL0     O41317   7.652   3.222   6.816 -0.3788 -0.1031 -0.0732
  314MOL0     C41318   7.627   3.342   6.833  0.7344  0.4626  0.0620
  314MOL0     O41319   7.717   3.446   6.829  0.3577 -0.7820 -0.4265
  314MOL0     C41320   7.839   3.419   6.771 -1.4965  0.2323 -0.6349
  314MOL0     C41321   7.940   3.366   6.860 -0.4053 -0.3251 -0.6786
  314MOL0     C41322   8.065   3.341   6.810 -0.4176 -0.2382 -0.2176
  314MOL0     C41323   8.090   3.378   6.683 -0.5725 -0.7117  0.2312
  314MOL0     O41324   8.224   3.366   6.649  0.5098  0.9034 -0.3320
  314MOL0     C41325   8.277   3.470   6.570  0.3806  0.6942 -0.4967
  314MOL0     C41326   8.310   3.419   6.429  0.8814 -0.3294 -0.0472
  314MOL0     C41327   8.444   3.354   6.434 -0.2705  0.9840 -0.3211
  314MOL0     C41328   8.563   3.448   6.454  0.7878 -0.7229 -0.0347
  314MOL0     C41329   8.693   3.365   6.447 -0.5280 -0.0262  0.3239
  314MOL0     C41330   8.813   3.470   6.437  0.8418 -0.0999 -0.2185
  314MOL0     C41331   8.951   3.411   6.438  0.1599  0.5684  1.2431
  314MOL0     C41332   9.052   3.524   6.455 -0.4033 -0.9616  0.2745
  314MOL0     N41333   9.194   3.475   6.495  0.1816 -0.3101  0.4945
  314MOL0     C41334   9.254   3.496   6.614  0.5759 -0.4441 -0.4114
  314MOL0     C41335   9.382   3.438   6.597 -0.3770 -1.2068 -0.4085
  314MOL0     C41336   9.501   3.430   6.686 -0.6723  0.3668 -0.5417
  314MOL0     C41337   9.606   3.530   6.627  0.6650 -0.5885 -0.3359
  314MOL0     C41338   9.696   3.587   6.741  0.6852  0.1197  0.0553
  314MOL0     C41339   9.779   3.712   6.700 -0.5413 -0.5132 -0.9641
  314MOL0     O41340   9.869   3.683   6.593  0.4284  0.2114  0.0138
  314MOL0     C41341   9.971   3.768   6.569 -0.3082  0.4811 -0.0241
  314MOL0     C41342  10.105   3.730   6.592 -0.2824 -0.7614  0.7100
  314MOL0     C41343  10.206   3.825   6.571 -0.1025  1.2244 -0.1241
  314MOL0     C41344  10.180   3.957   6.534  0.5473 -0.5365 -0.5771
  314MOL0     C41345  10.296   4.051   6.507 -0.2658  0.2336 -0.1588
  314MOL0     O41346  10.424   4.001   6.484 -0.0946 -0.4250 -0.5448
  314MOL0     C41347  10.531   4.076   6.447  0.7479 -0.7027  0.1105
  314MOL0     C41348  10.647   4.009   6.445 -0.1700  0.5219 -0.6457
  314MOL0     C41349  10.772   4.069   6.428  0.4128 -0.1732  0.8174
  314MOL0     C41350  10.781   4.214   6.422  0.1406 -0.1250  0.1393
  314MOL0     O41351  10.912   4.261   6.423  0.3068  0.4176 -0.4168
  314MOL0     C41352  10.943   4.395   6.465  0.7181 -0.0538 -1.0464
  314MOL0     C41353  11.068   4.443   6.401 -0.0745 -0.9936 -0.3955
  314MOL0     C41354  11.184   4.347   6.390 -0.0685 -0.4047 -0.7463
  314MOL0     C41355  11.287   4.419   6.297  0.1686  0.5592  0.5317
  314MOL0     C41356  11.394   4.318   6.245 -0.1242 -1.0991 -0.7129
  314MOL0     C41357  11.484   4.395   6.142 -0.2495  1.1918  0.0342
  314MOL0     C41358  11.601   4.304   6.098  0.8148  0.6801 -0.1469
  314MOL0     C41359  11.682   4.374   5.985 -0.0730  0.0392 -0.4014
  314MOL0    Cl41360  11.788   4.503   6.062 -0.2676 -0.1463  0.1329
  314MOL0     C41361  10.655   4.285   6.414  0.7530  0.3253 -0.3032
  314MOL0     C41362  10.534   4.216   6.417  0.0322  0.6602 -1.2604
  314MOL0     O41363  10.265   4.167   6.525 -0.0086 -0.3393 -0.1478
  314MOL0     C41364  10.046   4.000   6.521  0.6595 -1.0751 -0.0773
  314MOL0     C41365   9.939   3.902   6.534  0.4635 -0.3337  0.0412
  314MOL0     N41366   9.375   3.375   6.474  0.0109 -0.7192 -0.2994
  314MOL0     N41367   9.264   3.397   6.413  0.2792  0.1388  0.1268
  314MOL0     C41368   7.996   3.432   6.599  0.6862  0.6961  0.4165
  314MOL0     C41369   7.866   3.454   6.644 -0.1580 -0.4504 -0.7952
  314MOL0     C41370   7.489   3.373   6.888 -0.5510 -0.1620  0.4282
  314MOL0     C41371   7.379   3.278   6.866 -0.9177  0.3750  0.4002
  314MOL0     C41372   7.263   3.317   6.913  0.1767 -0.0483 -0.1813
  314MOL0     C41373   7.234   3.438   6.984  2.0652  0.9388  0.1531
  314MOL0     O41374   7.107   3.478   7.028 -0.0965  0.1301  0.2936
  314MOL0     C41375   7.004   3.379   7.049 -0.0493  0.2592  1.0815
  314MOL0     C41376   6.916   3.423   7.166 -0.6008  0.3686  0.4334
  314MOL0     C41377   6.993   3.413   7.306 -0.0257  0.1121 -0.2464
  314MOL0     C41378   7.066   3.543   7.354  0.2878 -0.1997 -0.9285
  314MOL0     C41379   6.966   3.655   7.368  0.2231  0.5052 -0.6898
  314MOL0     C41380   6.882   3.745   7.392  0.7877 -0.0206 -0.0609
  314MOL0     C41381   7.341   3.523   7.013  0.0156 -0.3462 -0.3176
  314MOL0     C41382   7.465   3.490   6.963  0.4666 -0.6776 -0.4928
  314MOL0     H41383   7.916   3.350   6.965  1.4882  0.3318 -0.1066
  314MOL0     H41384   8.150   3.300   6.862 -1.1782  1.7773  2.8551
  314MOL0     H41385   8.364   3.509   6.623  0.3650  1.1069 -0.7741
  314MOL0     H41386   8.199   3.546   6.560 -1.4578 -0.8945  0.9113
  314MOL0     H41387   8.319   3.504   6.360  0.4161 -0.2602 -0.0218
  314MOL0     H41388   8.235   3.349   6.392  2.1079 -2.1254  0.7094
  314MOL0     H41389   8.455   3.318   6.332 -2.0757  4.6867 -1.9969
  314MOL0     H41390   8.454   3.277   6.512  0.9385  0.7140 -0.7156
  314MOL0     H41391   8.561   3.533   6.385  0.8789  0.8375  1.7927
  314MOL0     H41392   8.558   3.488   6.556 -1.0287  2.6437 -1.3023
  314MOL0     H41393   8.698   3.295   6.363 -3.1447 -0.7116  0.6515
  314MOL0     H41394   8.697   3.307   6.540  0.8349 -0.1562  0.1935
  314MOL0     H41395   8.800   3.530   6.528  0.6000 -1.5063  0.6983
  314MOL0     H41396   8.795   3.545   6.360  1.2930  3.9656  3.2608
  314MOL0     H41397   8.957   3.338   6.520  1.9879 -1.0674 -0.2549
  314MOL0     H41398   8.964   3.349   6.349 -1.6480  2.2180 -0.2726
  314MOL0     H41399   9.010   3.587   6.534  1.4537  1.4045 -0.5264
  314MOL0     H41400   9.065   3.578   6.361  0.3246 -0.2455  0.7771
  314MOL0     H41401   9.211   3.547   6.699 -2.7273  1.2677 -2.8772
  314MOL0     H41402   9.547   3.331   6.684 -0.7325  0.2632 -5.0790
  314MOL0     H41403   9.482   3.456   6.791 -1.3933  3.3773 -1.3135
  314MOL0     H41404   9.555   3.611   6.573 -1.4017  0.1853  2.5932
  314MOL0     H41405   9.669   3.470   6.560 -0.3481 -1.8082 -0.2334
  314MOL0     H41406   9.654   3.595   6.842  3.4529  0.8670  1.2632
  314MOL0     H41407   9.767   3.504   6.749 -0.6293 -0.9193  1.5961
  314MOL0     H41408   9.836   3.750   6.786  2.8776 -0.6673 -2.9898
  314MOL0     H41409   9.714   3.794   6.669 -0.5003  0.0909  0.4629
  314MOL0     H41410  10.132   3.634   6.635  0.3567  0.7910  4.0835
  314MOL0     H41411  10.310   3.796   6.587 -0.3248 -0.0704 -0.8936
  314MOL0     H41412  10.658   3.901   6.454  0.7237  0.4992 -1.8498
  314MOL0     H41413  10.866   4.015   6.426  2.8639  3.7670  0.1640
  314MOL0     H41414  10.944   4.401   6.574 -2.6910  1.6462 -0.9838
  314MOL0     H41415  10.863   4.462   6.432 -1.2457 -1.8491 -0.1815
  314MOL0     H41416  11.102   4.539   6.440 -0.1332 -1.4797  0.8817
  314MOL0     H41417  11.031   4.450   6.298 -2.7542 -1.2221  0.4679
  314MOL0     H41418  11.149   4.257   6.340 -0.2471 -0.7935  0.0759
  314MOL0     H41419  11.224   4.322   6.489 -0.6370  0.3787 -0.3060
  314MOL0     H41420  11.233   4.465   6.214 -2.8656  0.9314  2.5071
  314MOL0     H41421  11.349   4.496   6.344 -0.0890  0.6952  0.6510
  314MOL0     H41422  11.348   4.231   6.197  1.6714 -2.8185  0.5483
  314MOL0     H41423  11.455   4.270   6.321 -1.3137 -0.7805  0.4945
  314MOL0     H41424  11.516   4.489   6.188 -0.3299 -0.3148  3.4765
  314MOL0     H41425  11.427   4.430   6.055  1.2146  2.1203 -0.5748
  314MOL0     H41426  11.661   4.276   6.185 -1.5180 -1.3154  0.9398
  314MOL0     H41427  11.553   4.209   6.072 -2.8502  1.9341  1.3639
  314MOL0     H41428  11.613   4.414   5.910 -0.9209  0.4707  0.5830
  314MOL0     H41429  11.754   4.314   5.930  0.1834  1.0005 -1.1357
  314MOL0     H41430  10.655   4.393   6.407  1.0664  0.4396  1.2085
  314MOL0     H41431  10.443   4.276   6.415  0.1629  1.1589  1.9593
  314MOL0     H41432  10.027   4.104   6.496  3.5283 -0.1123  1.2731
  314MOL0     H41433   9.833   3.922   6.520 -0.8121 -3.6806  3.4112
  314MOL0     H41434   8.025   3.470   6.502 -1.9529  1.6303 -0.0958
  314MOL0     H41435   7.795   3.510   6.584 -0.6914  0.5373  0.6920
  314MOL0     H41436   7.388   3.191   6.802  0.4960  1.0144 -0.3125
  314MOL0     H41437   7.183   3.250   6.883  1.6957 -2.0822  0.1136
  314MOL0     H41438   7.043   3.278   7.063 -0.7552 -0.5719 -2.1140
  314MOL0     H41439   6.933   3.370   6.966  0.4576 -0.7064  0.7295
  314MOL0     H41440   6.880   3.525   7.147 -1.6637 -0.1624 -0.5677
  314MOL0     H41441   6.824   3.364   7.165 -2.4035  2.8080 -3.3786
  314MOL0     H41442   7.071   3.337   7.313 -0.7705 -0.4816  3.1880
  314MOL0     H41443   6.933   3.362   7.382  0.8796  1.4578  1.4475
  314MOL0     H41444   7.095   3.527   7.459  0.8816  1.1033 -0.8692
  314MOL0     H41445   7.157   3.562   7.298  0.7700 -0.4854 -0.2578
  314MOL0     H41446   6.811   3.820   7.418  0.4150 -0.9483  1.8229
  314MOL0     H41447   7.338   3.608   7.081 -2.7730  1.3516 -2.3696
  314MOL0     H41448   7.551   3.549   6.996 -1.0740  1.1692  0.4368
  315MOL0     O41449   3.992   2.351   2.184  1.1680  0.2207 -0.0535
  315MOL0     C41450   4.046   2.245   2.207 -0.2350 -0.9407 -0.0271
  315MOL0     O41451   3.992   2.158   2.288  0.1100 -0.0545  0.2207
  315MOL0     C41452   3.863   2.180   2.313 -0.1841 -0.0846 -0.3769
  315MOL0     C41453   3.772   2.117   2.218  0.7295  0.1138 -0.2249
  315MOL0     C41454   3.641   2.153   2.230 -0.7991 -0.2469 -0.5818
  315MOL0     C41455   3.593   2.236   2.328  0.4996  0.4991 -1.0305
  315MOL0     O41456   3.461   2.290   2.341 -0.3088 -0.2628 -0.6662
  315MOL0     C41457   3.361   2.243   2.247  0.2395  0.1818 -0.0813
  315MOL0     C41458   3.228   2.325   2.278  0.4901  0.9030 -0.1445
  315MOL0     C41459   3.127   2.307   2.161 -0.6176  0.6245  0.2820
  315MOL0     C41460   3.003   2.397   2.177  0.2208  0.0153 -0.2976
  315MOL0     C41461   2.924   2.394   2.044 -0.2833  0.3522 -0.3586
  315MOL0     C41462   2.831   2.276   2.026 -0.0209  0.3589  0.2647
  315MOL0     C41463   2.742   2.296   1.902 -0.3939  0.3302  0.2700
  315MOL0     C41464   2.632   2.188   1.897 -0.2289  0.3467  0.4152
  315MOL0     N41465   2.541   2.176   1.779 -0.6999 -0.8173  0.4143
  315MOL0     C41466   2.474   2.292   1.735 -0.1319  0.4274 -0.0238
  315MOL0     C41467   2.359   2.247   1.695  0.0948  0.2821  0.1546
  315MOL0     C41468   2.250   2.331   1.667 -0.3545 -0.3651  0.7403
  315MOL0     C41469   2.137   2.308   1.776  0.4655 -0.7795  0.4527
  315MOL0     C41470   2.010   2.393   1.736  1.1502  0.9614  0.0323
  315MOL0     C41471   1.901   2.367   1.834  0.8113 -0.0014 -0.2085
  315MOL0     O41472   1.775   2.431   1.788  0.1231  0.3813  0.3472
  315MOL0     C41473   1.685   2.473   1.886 -0.4715  0.5641 -0.1932
  315MOL0     C41474   1.707   2.590   1.958 -0.4942  0.0347  1.1170
  315MOL0     C41475   1.607   2.638   2.052  0.3462 -0.4134  0.6385
  315MOL0     C41476   1.484   2.569   2.068  0.1746 -1.4495  0.5704
  315MOL0     C41477   1.378   2.612   2.168  0.7115  0.2749 -0.0967
  315MOL0     O41478   1.288   2.512   2.201  0.1230  0.2045 -0.6198
  315MOL0     C41479   1.179   2.541   2.279 -0.6986 -0.1708  0.1552
  315MOL0     C41480   1.099   2.657   2.274  0.2728  0.2572  1.2324
  315MOL0     C41481   0.980   2.660   2.347 -0.0455  0.4189 -1.3968
  315MOL0     C41482   0.947   2.553   2.435  0.4535  0.1511 -0.9433
  315MOL0     O41483   0.836   2.544   2.517 -0.1128 -0.0919 -0.6751
  315MOL0     C41484   0.754   2.656   2.534 -0.2437  0.4115 -0.6234
  315MOL0     C41485   0.627   2.605   2.604 -0.0475  0.3817  0.8667
  315MOL0     C41486   0.657   2.510   2.723 -0.1982 -1.0818 -0.0646
  315MOL0     C41487   0.544   2.427   2.766 -1.0443 -0.0212  0.2342
  315MOL0     C41488   0.571   2.339   2.894 -0.4313 -0.1541  0.4605
  315MOL0     C41489   0.456   2.343   2.991  0.4751 -0.2488 -0.3641
  315MOL0     C41490   0.494   2.267   3.117 -0.6226  0.5083 -0.3034
  315MOL0     C41491   0.369   2.185   3.161  0.5435 -0.0486  0.3650
  315MOL0    Cl41492   0.397   2.117   3.320 -0.5257  0.0083  0.6712
  315MOL0     C41493   1.033   2.447   2.445 -0.1989  0.4242  0.0818
  315MOL0     C41494   1.143   2.429   2.364 -0.0585 -0.0719  0.3066
  315MOL0     O41495   1.382   2.726   2.210 -0.1502 -0.3235 -0.7820
  315MOL0     C41496   1.475   2.444   1.999 -0.2111 -0.5355  0.4533
  315MOL0     C41497   1.569   2.400   1.909 -0.2410 -0.4399  0.9108
  315MOL0     N41498   2.361   2.112   1.694 -0.3196  0.9606  0.0727
  315MOL0     N41499   2.473   2.064   1.743 -0.8914 -0.3574 -0.7760
  315MOL0     C41500   3.681   2.299   2.421  0.9749  0.6792 -0.6182
  315MOL0     C41501   3.819   2.262   2.417  0.2496 -0.1797  0.1737
  315MOL0     C41502   4.161   2.215   2.129  0.4147  0.3110  0.2206
  315MOL0     C41503   4.236   2.317   2.058  0.6749 -0.0875  0.1521
  315MOL0     C41504   4.344   2.287   1.977  0.4062  1.0892  0.4584
  315MOL0     C41505   4.387   2.156   1.967 -0.4327  0.3872  0.2079
  315MOL0     O41506   4.491   2.140   1.882 -0.2977 -0.0284 -0.2411
  315MOL0     C41507   4.563   2.018   1.866  0.5039 -0.4190  0.5210
  315MOL0     C41508   4.559   1.970   1.722 -0.7104  0.5200  0.8970
  315MOL0     C41509   4.643   1.840   1.693 -0.0899  0.4915  0.1121
  315MOL0     C41510   4.657   1.740   1.806  1.3843  0.6005  0.2638
  315MOL0     C41511   4.528   1.688   1.851  1.1507 -0.9221 -0.2545
  315MOL0     C41512   4.423   1.648   1.896  0.0954 -0.2331  1.1495
  315MOL0     C41513   4.302   2.059   2.023 -0.3349  0.4212 -0.3425
  315MOL0     C41514   4.199   2.089   2.099  0.3344  0.3403 -0.7395
  315MOL0     H41515   3.809   2.053   2.139 -3.9618 -1.1803 -1.6965
  315MOL0     H41516   3.579   2.125   2.145 -1.2257 -1.1660  0.0260
  315MOL0     H41517   3.343   2.135   2.261  1.7719 -0.4829 -2.6846
  315MOL0     H41518   3.390   2.256   2.143  3.2987  1.1437  0.7856
  315MOL0     H41519   3.255   2.431   2.277  4.1343  0.2624  3.1973
  315MOL0     H41520   3.171   2.302   2.368 -1.0501 -0.3546 -1.3774
  315MOL0     H41521   3.108   2.203   2.132 -0.3154  0.7210 -0.2781
  315MOL0     H41522   3.182   2.331   2.069  0.9821  0.0540  1.0556
  315MOL0     H41523   2.948   2.348   2.258  0.3230  0.5942  0.1357
  315MOL0     H41524   3.031   2.501   2.199 -2.4568  0.6459  0.5894
  315MOL0     H41525   2.997   2.408   1.964 -0.2410 -0.1381 -0.4055
  315MOL0     H41526   2.864   2.484   2.060  0.9376  0.8802  1.7395
  315MOL0     H41527   2.760   2.266   2.109  1.2764  1.2952  1.5444
  315MOL0     H41528   2.882   2.182   2.005  0.3481  0.4785  0.6220
  315MOL0     H41529   2.687   2.390   1.907 -0.9170 -0.0167  1.2952
  315MOL0     H41530   2.816   2.293   1.822  0.4832  1.5497  0.9981
  315MOL0     H41531   2.559   2.209   1.976 -1.1232 -1.2996  0.0692
  315MOL0     H41532   2.674   2.088   1.895 -0.2033  0.3308 -2.0151
  315MOL0     H41533   2.513   2.392   1.756  1.9999 -0.8521  2.7527
  315MOL0     H41534   2.206   2.307   1.570  1.6690 -0.7697 -0.1162
  315MOL0     H41535   2.283   2.435   1.654 -2.5021  0.0362 -2.6782
  315MOL0     H41536   2.168   2.334   1.878  0.3568 -1.6175  0.7039
  315MOL0     H41537   2.117   2.201   1.776  0.2799 -0.8283 -2.2674
  315MOL0     H41538   2.030   2.501   1.740 -1.4025  1.6186 -2.0654
  315MOL0     H41539   1.983   2.376   1.631  2.0520 -0.8841  0.0649
  315MOL0     H41540   1.931   2.401   1.934  0.4955 -4.0051  1.4240
  315MOL0     H41541   1.885   2.259   1.830  2.0073 -0.1790 -0.4798
  315MOL0     H41542   1.803   2.639   1.943 -0.4508 -0.9598 -3.5994
  315MOL0     H41543   1.613   2.731   2.109  1.6394  1.0874 -1.7584
  315MOL0     H41544   1.121   2.739   2.206  2.3182 -3.6902 -3.5191
  315MOL0     H41545   0.921   2.751   2.338  0.1022  1.0173  2.0940
  315MOL0     H41546   0.731   2.696   2.434  0.4903  0.4518 -0.7883
  315MOL0     H41547   0.796   2.740   2.590 -0.8294 -0.4139  1.1188
  315MOL0     H41548   0.567   2.560   2.525  1.9653 -0.3591 -0.2969
  315MOL0     H41549   0.564   2.686   2.643 -0.6758  1.7611 -2.6092
  315MOL0     H41550   0.681   2.577   2.807  0.7150  1.1758 -2.0086
  315MOL0     H41551   0.737   2.439   2.699 -1.1815 -1.3980 -2.6826
  315MOL0     H41552   0.455   2.487   2.784  0.9978  3.2606  0.1245
  315MOL0     H41553   0.524   2.365   2.678  0.7989  0.0841 -0.2957
  315MOL0     H41554   0.657   2.383   2.944 -0.1405 -0.4525  0.2279
  315MOL0     H41555   0.600   2.237   2.867 -0.1439 -0.8562  3.1119
  315MOL0     H41556   0.368   2.296   2.947  0.1213 -0.4026  0.4870
  315MOL0     H41557   0.432   2.444   3.025 -1.6707 -1.2302  1.2883
  315MOL0     H41558   0.580   2.203   3.096 -0.5659  0.6105 -0.3856
  315MOL0     H41559   0.514   2.336   3.200 -0.7665  2.6715 -1.9942
  315MOL0     H41560   0.353   2.099   3.096 -1.8847 -0.9072  1.9600
  315MOL0     H41561   0.280   2.248   3.162  0.6640  0.1165  0.8096
  315MOL0     H41562   1.019   2.363   2.512 -1.2977 -0.5367 -1.2984
  315MOL0     H41563   1.208   2.343   2.377 -0.1238 -0.0177  1.0268
  315MOL0     H41564   1.383   2.389   2.015 -1.0242  0.6369 -0.1114
  315MOL0     H41565   1.546   2.311   1.851  0.3122 -0.9685  1.4908
  315MOL0     H41566   3.646   2.372   2.493 -0.2173  2.6918 -3.0745
  315MOL0     H41567   3.899   2.296   2.481  1.0914 -1.3965 -0.1753
  315MOL0     H41568   4.212   2.422   2.071  1.6259  0.1005  0.5117
  315MOL0     H41569   4.400   2.365   1.927  0.1536  0.7283 -0.4072
  315MOL0     H41570   4.535   1.937   1.935  1.0573 -0.9294  0.1593
  315MOL0     H41571   4.670   2.035   1.879  0.9620  1.1023 -3.7304
  315MOL0     H41572   4.453   1.958   1.696 -0.2690 -0.7538 -0.4457
  315MOL0     H41573   4.588   2.053   1.656 -2.9607  1.8676  1.4740
  315MOL0     H41574   4.745   1.864   1.659  1.6832 -3.7014  1.7077
  315MOL0     H41575   4.593   1.784   1.614  1.4867 -0.2692 -0.3852
  315MOL0     H41576   4.729   1.663   1.777  3.2095  2.1854  0.3612
  315MOL0     H41577   4.708   1.797   1.884 -0.4524  2.5191  0.1626
  315MOL0     H41578   4.339   1.595   1.936  0.6877 -3.0065 -0.9076
  315MOL0     H41579   4.328   1.954   2.023  0.3482  0.4145  3.9042
  315MOL0     H41580   4.136   2.008   2.135  1.8517  0.0758  1.5791
  316MOL0     O41581   3.365   3.070   6.075  0.3556  0.2176  0.6440
  316MOL0     C41582   3.455   2.991   6.050 -0.2847  0.0945 -0.1734
  316MOL0     O41583   3.482   2.882   6.120 -0.1387  0.4196 -0.1194
  316MOL0     C41584   3.395   2.848   6.216 -0.2551  0.1971  0.5621
  316MOL0     C41585   3.421   2.865   6.354 -0.5864 -0.7502  0.2528
  316MOL0     C41586   3.315   2.837   6.445 -0.1668  0.6086  0.3435
  316MOL0     C41587   3.194   2.774   6.410 -0.4256  0.0728 -1.3212
  316MOL0     O41588   3.099   2.737   6.505  0.1875 -1.1870  0.2423
  316MOL0     C41589   2.995   2.649   6.456 -0.2936 -0.6135  0.4760
  316MOL0     C41590   2.898   2.616   6.560 -0.5024  0.4377 -1.0134
  316MOL0     C41591   2.789   2.540   6.487  0.3482 -0.1047  0.7311
  316MOL0     C41592   2.671   2.515   6.582  0.1738 -0.0615  0.6992
  316MOL0     C41593   2.535   2.521   6.522  0.3161  0.0629  0.2608
  316MOL0     C41594   2.490   2.638   6.442  0.7718  0.3625 -0.3129
  316MOL0     C41595   2.509   2.763   6.524  0.1925 -0.2042  0.2892
  316MOL0     C41596   2.462   2.890   6.460  0.0141 -0.8209  0.8397
  316MOL0     N41597   2.359   2.895   6.356 -0.0189  0.6811  0.5899
  316MOL0     C41598   2.222   2.885   6.381 -0.6830 -0.3706  0.2691
  316MOL0     C41599   2.165   2.858   6.270  0.3412 -0.2626 -0.5340
  316MOL0     C41600   2.021   2.824   6.261 -0.0217  0.0662  0.7600
  316MOL0     C41601   1.957   2.909   6.155  0.2397 -0.3248  0.0159
  316MOL0     C41602   1.812   2.939   6.165 -0.4015 -0.2632 -0.1536
  316MOL0     C41603   1.778   3.020   6.299 -0.3933 -0.3643 -1.6849
  316MOL0     O41604   1.660   3.095   6.276  0.3727  0.2154  0.0744
  316MOL0     C41605   1.537   3.053   6.330 -0.1917  0.1808  1.6141
  316MOL0     C41606   1.439   3.150   6.320 -0.0945  0.1546 -0.1433
  316MOL0     C41607   1.306   3.110   6.353 -0.6220  0.2767 -0.2399
  316MOL0     C41608   1.273   2.974   6.371 -0.6252  1.0240 -1.0848
  316MOL0     C41609   1.136   2.928   6.363  0.0186  0.1374  0.4007
  316MOL0     O41610   1.107   2.800   6.374 -0.2729 -0.2302  0.5785
  316MOL0     C41611   0.985   2.749   6.374  0.1163 -0.2686  0.2126
  316MOL0     C41612   0.868   2.819   6.422 -0.1684  0.4162  0.0480
  316MOL0     C41613   0.742   2.760   6.421 -0.0636 -0.9840  0.4284
  316MOL0     C41614   0.723   2.627   6.371 -0.8267 -0.8829 -0.2096
  316MOL0     O41615   0.587   2.590   6.361  0.0335  0.2351  0.1892
  316MOL0     C41616   0.576   2.459   6.397  0.0752  1.1995  0.0485
  316MOL0     C41617   0.439   2.396   6.359 -1.2107 -0.9618 -0.5074
  316MOL0     C41618   0.313   2.457   6.431 -0.0534 -0.3263 -1.1738
  316MOL0     C41619   0.178   2.394   6.379  0.7578 -0.6368  0.1263
  316MOL0     C41620   0.064   2.429   6.467  0.0415 -0.2212  0.0113
  316MOL0     C41621  -0.064   2.345   6.440 -0.4848 -0.2268  0.1354
  316MOL0     C41622  -0.183   2.379   6.532 -0.2187  0.0681 -0.0688
  316MOL0     C41623  -0.311   2.330   6.479 -0.1835 -0.6644  0.2162
  316MOL0    Cl41624  -0.433   2.386   6.606 -0.2958  0.0932  0.2310
  316MOL0     C41625   0.838   2.563   6.318  0.8104  0.3596  0.2722
  316MOL0     C41626   0.965   2.619   6.325  0.4053 -0.0656  0.8791
  316MOL0     O41627   1.055   3.017   6.342 -0.5375 -0.3285  0.4634
  316MOL0     C41628   1.374   2.877   6.374  0.0211 -0.2252 -0.3366
  316MOL0     C41629   1.503   2.920   6.360 -0.4754  0.3909 -0.1398
  316MOL0     N41630   2.261   2.861   6.167  0.0663 -0.5181 -0.2661
  316MOL0     N41631   2.378   2.871   6.223 -0.3742 -0.0266 -0.1434
  316MOL0     C41632   3.181   2.745   6.271 -0.2835  0.2468 -0.6283
  316MOL0     C41633   3.272   2.790   6.176 -0.4284 -0.0145 -0.6495
  316MOL0     C41634   3.546   3.024   5.941  0.0052 -0.4556  0.1727
  316MOL0     C41635   3.645   2.932   5.913 -0.4929  0.5652 -0.2119
  316MOL0     C41636   3.724   2.952   5.801  0.0183  0.3597 -0.2708
  316MOL0     C41637   3.710   3.075   5.723 -0.6511  0.2059  0.1507
  316MOL0     O41638   3.796   3.125   5.630  0.1558  0.3979  0.1214
  316MOL0     C41639   3.920   3.063   5.599 -0.2087 -0.6775 -0.5905
  316MOL0     C41640   3.947   2.953   5.496 -0.2824 -0.7243 -0.0429
  316MOL0     C41641   4.104   2.929   5.504  1.0297 -0.7200  0.9965
  316MOL0     C41642   4.150   2.826   5.409  0.1526  0.4118  0.1828
  316MOL0     C41643   4.109   2.833   5.269 -0.7977 -0.4733  0.1285
  316MOL0     C41644   4.073   2.845   5.158 -0.9026 -0.1341  0.0375
  316MOL0     C41645   3.597   3.162   5.753  0.4486 -0.1950 -0.0065
  316MOL0     C41646   3.523   3.141   5.873 -0.6901  0.4360  0.7070
  316MOL0     H41647   3.519   2.901   6.382 -1.3241 -0.0596  2.0503
  316MOL0     H41648   3.340   2.848   6.550 -0.1023  1.9875  0.2002
  316MOL0     H41649   3.039   2.557   6.418 -0.5522  0.3335 -2.3353
  316MOL0     H41650   2.940   2.692   6.371  0.6129  1.0303  0.6684
  316MOL0     H41651   2.857   2.707   6.604 -1.9099 -1.7029  2.5973
  316MOL0     H41652   2.948   2.552   6.634 -0.0074  0.3621 -1.4085
  316MOL0     H41653   2.831   2.443   6.461 -0.3438  0.0924 -1.2787
  316MOL0     H41654   2.766   2.583   6.389 -0.6830 -1.9037  0.1335
  316MOL0     H41655   2.674   2.418   6.631  0.1628 -1.0393 -1.1552
  316MOL0     H41656   2.675   2.583   6.668  1.1418 -1.1363  1.5361
  316MOL0     H41657   2.479   2.511   6.616 -2.1604 -1.9293 -1.2842
  316MOL0     H41658   2.517   2.434   6.457 -1.9710 -0.5573  1.5921
  316MOL0     H41659   2.385   2.622   6.419  0.6240  0.7963  0.0510
  316MOL0     H41660   2.541   2.632   6.345  0.8084 -1.7755 -0.2049
  316MOL0     H41661   2.476   2.756   6.628  2.9940  2.3523  1.5010
  316MOL0     H41662   2.616   2.778   6.542  0.4669  0.8290 -1.9231
  316MOL0     H41663   2.558   2.935   6.430 -0.1088 -0.6030  0.7680
  316MOL0     H41664   2.426   2.961   6.535  2.4025 -0.0283  1.3456
  316MOL0     H41665   2.174   2.869   6.477 -1.1533 -0.2117  0.0629
  316MOL0     H41666   1.984   2.846   6.362 -0.9507  5.0593 -0.3803
  316MOL0     H41667   2.014   2.719   6.231  1.5491  0.1151  0.1536
  316MOL0     H41668   1.987   2.857   6.063  0.8833 -2.8159  1.5259
  316MOL0     H41669   2.010   3.005   6.153 -0.3569  0.0198  0.5843
  316MOL0     H41670   1.776   2.987   6.074 -0.8640  1.8778  1.0889
  316MOL0     H41671   1.764   2.841   6.172  0.5356 -0.7388 -0.3786
  316MOL0     H41672   1.852   3.096   6.326  0.8844 -3.1575  4.2926
  316MOL0     H41673   1.773   2.958   6.389 -0.1069  0.0816 -1.3591
  316MOL0     H41674   1.470   3.253   6.304  0.1258 -0.1935 -2.2076
  316MOL0     H41675   1.234   3.192   6.357 -1.0982 -0.1375 -0.1770
  316MOL0     H41676   0.873   2.925   6.445  1.8458  0.3949 -0.0703
  316MOL0     H41677   0.652   2.814   6.449 -0.2106 -0.9256 -0.1346
  316MOL0     H41678   0.582   2.451   6.506  1.3049  0.9509 -0.0313
  316MOL0     H41679   0.642   2.387   6.349 -0.7603 -0.7757  1.7331
  316MOL0     H41680   0.446   2.293   6.395  2.1549  0.0312  2.2523
  316MOL0     H41681   0.421   2.403   6.252 -2.2695  1.0226 -0.2556
  316MOL0     H41682   0.310   2.565   6.413  1.8488  0.6091  2.9036
  316MOL0     H41683   0.321   2.443   6.539 -1.1564  1.4357 -0.8180
  316MOL0     H41684   0.171   2.418   6.273  2.0585 -0.7302  0.0011
  316MOL0     H41685   0.190   2.286   6.385 -1.7871 -0.9038  2.5785
  316MOL0     H41686   0.046   2.536   6.451 -1.3170  0.2269  3.5965
  316MOL0     H41687   0.093   2.414   6.571  5.0167 -0.4743 -1.1235
  316MOL0     H41688  -0.024   2.244   6.446  0.3579  0.0128 -1.0708
  316MOL0     H41689  -0.088   2.368   6.335 -4.5686 -1.2215  0.6843
  316MOL0     H41690  -0.163   2.324   6.625  0.4209 -2.7114 -1.7522
  316MOL0     H41691  -0.183   2.487   6.549  0.0999  0.2100 -0.9463
  316MOL0     H41692  -0.320   2.227   6.445  1.3449  0.5995 -4.8779
  316MOL0     H41693  -0.345   2.382   6.389 -1.7895  0.1954  1.2533
  316MOL0     H41694   0.815   2.469   6.268  0.8405 -0.2263  1.3118
  316MOL0     H41695   1.050   2.556   6.300  0.7293  0.1720  1.3649
  316MOL0     H41696   1.357   2.770   6.378  0.3751 -0.3110 -0.9935
  316MOL0     H41697   1.581   2.848   6.379  0.8389  1.5756 -0.8797
  316MOL0     H41698   3.105   2.684   6.222  0.3058 -0.3552 -0.8023
  316MOL0     H41699   3.250   2.769   6.072 -0.9162  1.9797 -1.0070
  316MOL0     H41700   3.650   2.835   5.961 -0.9261 -0.0768 -1.4252
  316MOL0     H41701   3.784   2.870   5.763 -2.9529 -1.3657 -1.6108
  316MOL0     H41702   3.985   3.037   5.683  1.2459  0.3418 -1.3518
  316MOL0     H41703   3.980   3.146   5.560  1.9718 -0.4639  2.7719
  316MOL0     H41704   3.885   2.868   5.526  1.4788 -1.3832  1.9721
  316MOL0     H41705   3.905   2.981   5.399  2.1601  0.1812 -0.9124
  316MOL0     H41706   4.129   2.892   5.603  2.6739 -3.3044 -0.2703
  316MOL0     H41707   4.159   3.018   5.473 -2.0304  0.8889 -0.2704
  316MOL0     H41708   4.259   2.816   5.421  0.1002  1.8830  2.4736
  316MOL0     H41709   4.109   2.729   5.440  4.3119 -2.0212 -1.0296
  316MOL0     H41710   4.060   2.858   5.052 -0.6225 -2.5898 -0.3626
  316MOL0     H41711   3.587   3.252   5.693  0.6938 -1.2810 -1.7535
  316MOL0     H41712   3.443   3.211   5.893 -0.6993  0.1883  1.5390
  317MOL0     O41713  10.155   7.731   0.872  0.3381 -0.7119  1.0756
  317MOL0     C41714  10.143   7.673   0.978 -0.4389  0.1923 -0.0200
  317MOL0     O41715  10.026   7.647   1.047 -0.0718 -0.0256  0.7515
  317MOL0     C41716   9.910   7.715   1.027  0.2366 -0.5682 -0.0318
  317MOL0     C41717   9.810   7.733   1.124  0.0300 -0.0805 -0.4531
  317MOL0     C41718   9.686   7.805   1.095 -0.7073  0.5750 -0.4368
  317MOL0     C41719   9.668   7.856   0.965  0.6892  0.7501 -0.5666
  317MOL0     O41720   9.556   7.936   0.953 -0.3888 -0.8516 -0.4294
  317MOL0     C41721   9.478   7.930   0.830  0.1087  1.0821  0.3688
  317MOL0     C41722   9.333   7.976   0.849 -0.2659  0.0053  0.2707
  317MOL0     C41723   9.249   7.964   0.724  0.9811  0.4545 -0.4553
  317MOL0     C41724   9.110   8.016   0.744  0.5836  0.0385  0.5636
  317MOL0     C41725   9.015   7.951   0.641  0.7937 -0.1226  0.5893
  317MOL0     C41726   9.053   7.972   0.493  1.1813  0.3012  0.1637
  317MOL0     C41727   8.943   7.899   0.407 -0.3132  0.2828 -1.2250
  317MOL0     C41728   8.971   7.916   0.260 -0.2506  0.7669  0.8621
  317MOL0     N41729   9.057   7.797   0.220 -0.1035  0.6006 -0.2608
  317MOL0     C41730   8.997   7.684   0.170  0.3063 -0.2435  0.5597
  317MOL0     C41731   9.110   7.621   0.136  0.1112  0.0726 -0.1098
  317MOL0     C41732   9.112   7.483   0.077  0.6547  0.1560 -0.5927
  317MOL0     C41733   9.086   7.508  -0.075  0.6190 -0.3514  0.3933
  317MOL0     C41734   9.111   7.375  -0.156 -0.3528 -0.1961  0.6197
  317MOL0     C41735   8.993   7.282  -0.147  0.1169  0.2096 -0.2568
  317MOL0     O41736   8.871   7.338  -0.196 -0.4649 -0.1269 -0.3808
  317MOL0     C41737   8.758   7.271  -0.161  0.4144  0.0213 -0.1310
  317MOL0     C41738   8.761   7.134  -0.118  0.0305 -0.3839 -0.3410
  317MOL0     C41739   8.646   7.063  -0.091  0.1320 -0.1911  0.0693
  317MOL0     C41740   8.517   7.118  -0.106 -0.4873  0.1047 -0.3914
  317MOL0     C41741   8.393   7.044  -0.086  0.3885 -0.2071 -0.6353
  317MOL0     O41742   8.278   7.113  -0.116  0.7825  0.0900  0.0864
  317MOL0     C41743   8.151   7.071  -0.080 -0.5113 -1.0936 -0.1078
  317MOL0     C41744   8.056   7.172  -0.051  0.0346 -0.2228 -0.2424
  317MOL0     C41745   7.924   7.138  -0.027 -0.1830  0.0763 -0.6703
  317MOL0     C41746   7.878   7.008  -0.037  0.4916  0.1639  0.5750
  317MOL0     O41747   7.741   6.988  -0.017  1.3400  0.0747 -0.2256
  317MOL0     C41748   7.680   6.868   0.019 -0.1003  0.4069 -1.1413
  317MOL0     C41749   7.607   6.821  -0.109  0.5289  0.5141 -0.3578
  317MOL0     C41750   7.518   6.713  -0.068 -0.5354  1.5068  0.2872
  317MOL0     C41751   7.453   6.643  -0.195 -0.3218  0.5187  0.0363
  317MOL0     C41752   7.363   6.530  -0.145  0.7450  0.2774 -0.2367
  317MOL0     C41753   7.296   6.454  -0.249 -0.6314  1.0266  0.2570
  317MOL0     C41754   7.199   6.541  -0.327  0.2099  0.2696 -0.0783
  317MOL0     C41755   7.176   6.482  -0.466 -0.2060 -0.2313 -0.1976
  317MOL0    Cl41756   7.323   6.478  -0.569  0.0012  0.7434  0.3247
  317MOL0     C41757   7.975   6.907  -0.078 -0.6076  1.1146  0.0015
  317MOL0     C41758   8.115   6.937  -0.093  0.3097 -0.1662  0.9705
  317MOL0     O41759   8.408   6.929  -0.045 -0.2021 -0.1767  0.4677
  317MOL0     C41760   8.516   7.252  -0.143 -0.3827  0.7165  0.5547
  317MOL0     C41761   8.626   7.326  -0.173 -0.2572 -0.6414  0.2052
  317MOL0     N41762   9.230   7.683   0.177  0.7321  0.1895 -0.4370
  317MOL0     N41763   9.194   7.782   0.240 -0.2806 -0.5512 -0.2414
  317MOL0     C41764   9.759   7.838   0.870  0.5740  0.0423 -1.0014
  317MOL0     C41765   9.872   7.760   0.894  0.8101  0.0234 -0.3717
  317MOL0     C41766  10.270   7.627   1.037  0.8029  0.3100 -0.9677
  317MOL0     C41767  10.377   7.601   0.956 -1.2440  0.2766  0.4752
  317MOL0     C41768  10.500   7.577   1.014 -0.0983  0.1169  0.3524
  317MOL0     C41769  10.528   7.564   1.147  0.0135  0.3065 -0.0685
  317MOL0     O41770  10.646   7.525   1.211  0.0568  0.0074  0.2920
  317MOL0     C41771  10.757   7.485   1.128 -0.2667 -0.0555  0.0217
  317MOL0     C41772  10.864   7.424   1.218 -0.6496  0.3475 -0.4574
  317MOL0     C41773  10.831   7.284   1.268  0.0439 -0.6145 -0.5234
  317MOL0     C41774  10.857   7.172   1.162 -0.1669 -0.0303 -0.3265
  317MOL0     C41775  10.999   7.163   1.126  0.1099 -0.6906  0.0464
  317MOL0     C41776  11.104   7.150   1.072 -0.0976  0.2794 -0.0632
  317MOL0     C41777  10.421   7.580   1.224  0.2803  0.1631  0.2234
  317MOL0     C41778  10.289   7.604   1.180  0.2360 -0.6666  0.5995
  317MOL0     H41779   9.822   7.685   1.220 -2.5350 -0.1292 -0.0825
  317MOL0     H41780   9.608   7.818   1.171 -2.9357  2.3112 -2.8495
  317MOL0     H41781   9.473   7.827   0.794 -2.6866  1.9786 -2.1958
  317MOL0     H41782   9.520   7.989   0.748 -2.9127  0.2174 -1.9597
  317MOL0     H41783   9.332   8.079   0.885  2.0611 -0.0813  0.7901
  317MOL0     H41784   9.286   7.906   0.919 -3.4103 -0.2695 -1.9157
  317MOL0     H41785   9.246   7.859   0.691  0.7752 -1.3081  4.3446
  317MOL0     H41786   9.304   8.019   0.647  1.4481 -1.8175 -1.8431
  317MOL0     H41787   9.068   7.991   0.842 -0.8144  0.4795  0.0988
  317MOL0     H41788   9.110   8.125   0.736  0.3493  0.1321  1.6678
  317MOL0     H41789   8.912   7.989   0.652  0.1222 -1.8065  0.4072
  317MOL0     H41790   9.010   7.845   0.666 -2.1196 -0.4525 -0.9084
  317MOL0     H41791   9.150   7.923   0.483  1.7989  1.4665  0.3207
  317MOL0     H41792   9.060   8.080   0.473 -0.8190  0.9339  2.4380
  317MOL0     H41793   8.931   7.795   0.441 -0.5380  0.0690 -1.9463
  317MOL0     H41794   8.861   7.965   0.436  1.5006  1.5395  1.5071
  317MOL0     H41795   9.020   8.012   0.237  1.2326 -0.1548  0.0318
  317MOL0     H41796   8.871   7.904   0.217  0.2937 -2.7927  0.3271
  317MOL0     H41797   8.893   7.657   0.156  0.4334 -0.8390  0.7303
  317MOL0     H41798   9.030   7.422   0.117  0.5240  0.1512 -0.8645
  317MOL0     H41799   9.211   7.437   0.077  1.3109  1.4976 -1.3146
  317MOL0     H41800   9.159   7.582  -0.110  1.2511  0.8424  3.8017
  317MOL0     H41801   8.987   7.546  -0.101  0.8829 -0.5982 -1.0251
  317MOL0     H41802   9.140   7.393  -0.259 -1.4203  2.6195  0.6950
  317MOL0     H41803   9.193   7.321  -0.109  0.4782  0.6404  0.1538
  317MOL0     H41804   8.990   7.244  -0.045 -0.5140 -1.9253 -1.0104
  317MOL0     H41805   9.014   7.194  -0.209  0.1065 -0.3973  0.5822
  317MOL0     H41806   8.857   7.087  -0.101  0.8542  1.3927  0.1589
  317MOL0     H41807   8.648   6.956  -0.071 -0.2478 -0.4217 -1.0508
  317MOL0     H41808   8.093   7.273  -0.035 -1.5686  0.4761 -0.6831
  317MOL0     H41809   7.865   7.215   0.020  2.2292  2.5067 -1.3880
  317MOL0     H41810   7.611   6.887   0.102 -0.8779 -0.6828 -1.5038
  317MOL0     H41811   7.739   6.785   0.060 -3.7696 -0.9687  1.9605
  317MOL0     H41812   7.680   6.784  -0.180  0.1617 -0.9666  0.0153
  317MOL0     H41813   7.557   6.909  -0.151  1.8655  2.5998  2.1077
  317MOL0     H41814   7.436   6.753  -0.007  1.0287  2.4024  1.9021
  317MOL0     H41815   7.569   6.636  -0.009  0.6175  1.8222 -0.2703
  317MOL0     H41816   7.401   6.719  -0.254  0.7045  2.2307  1.2296
  317MOL0     H41817   7.536   6.614  -0.260  0.7251  0.1462  1.4721
  317MOL0     H41818   7.282   6.555  -0.076 -0.6459 -2.4087 -0.7388
  317MOL0     H41819   7.436   6.468  -0.093  0.9088  0.0023 -0.7781
  317MOL0     H41820   7.248   6.369  -0.201 -0.8767  1.2164  0.3491
  317MOL0     H41821   7.366   6.410  -0.321 -0.1054  0.4477  1.1148
  317MOL0     H41822   7.104   6.539  -0.272 -0.2433  2.3959 -0.6807
  317MOL0     H41823   7.230   6.646  -0.331 -2.8952  1.2667 -1.5898
  317MOL0     H41824   7.108   6.550  -0.519 -3.5766 -2.5565  0.8354
  317MOL0     H41825   7.143   6.378  -0.465 -1.1370 -0.2191 -5.1159
  317MOL0     H41826   7.935   6.806  -0.068 -0.2733  1.0726  1.0330
  317MOL0     H41827   8.182   6.855  -0.118  1.9133  0.3406  3.2393
  317MOL0     H41828   8.420   7.302  -0.148 -0.3288  1.0412  2.3620
  317MOL0     H41829   8.599   7.426  -0.204  1.5810 -0.2782 -0.3760
  317MOL0     H41830   9.724   7.882   0.777 -2.5736 -0.7955 -0.3340
  317MOL0     H41831   9.934   7.727   0.812  0.3541 -1.0430 -0.2987
  317MOL0     H41832  10.376   7.623   0.850 -2.4000  1.5265  0.7235
  317MOL0     H41833  10.577   7.575   0.937 -3.6574 -0.9413 -3.5569
  317MOL0     H41834  10.793   7.578   1.082  2.8680  0.3414  2.8791
  317MOL0     H41835  10.727   7.417   1.048 -0.3245 -1.4572  1.2075
  317MOL0     H41836  10.955   7.418   1.156 -2.3404 -1.1659 -2.9764
  317MOL0     H41837  10.879   7.476   1.313 -4.3065 -2.6012  2.0217
  317MOL0     H41838  10.733   7.278   1.315  0.6545 -3.2775  0.6295
  317MOL0     H41839  10.904   7.278   1.350 -1.7280  2.4114  1.4549
  317MOL0     H41840  10.830   7.078   1.212 -1.4681 -0.6574 -2.0881
  317MOL0     H41841  10.802   7.189   1.069 -2.1597 -0.9106  0.6372
  317MOL0     H41842  11.195   7.151   1.015 -2.0069  3.6120 -3.5416
  317MOL0     H41843  10.426   7.570   1.332  0.4252  1.3843  0.3407
  317MOL0     H41844  10.208   7.614   1.252 -1.2078 -2.4282 -0.6960
  318MOL0     O41845   8.407   6.405  10.881  0.4737  0.2542 -0.1815
  318MOL0     C41846   8.390   6.523  10.909 -0.1343 -0.2948  0.5254
  318MOL0     O41847   8.274   6.586  10.941  0.7141 -0.9613  0.1019
  318MOL0     C41848   8.151   6.519  10.932  0.3947  0.0537  0.3326
  318MOL0     C41849   8.116   6.400  10.866  0.4422 -0.3016  0.0338
  318MOL0     C41850   7.981   6.353  10.874  0.7071  0.8112 -0.3073
  318MOL0     C41851   7.886   6.419  10.952  0.3341 -0.1637 -0.0607
  318MOL0     O41852   7.754   6.379  10.968 -0.6535 -0.3591 -0.0250
  318MOL0     C41853   7.745   6.243  11.012 -0.3324 -0.3881  1.0684
  318MOL0     C41854   7.597   6.204  10.985  0.3202 -0.4094 -0.1048
  318MOL0     C41855   7.544   6.249  10.846  0.2691  0.0405  1.0710
  318MOL0     C41856   7.625   6.195  10.729  0.4407  0.2035 -0.0615
  318MOL0     C41857   7.584   6.252  10.597 -0.9570 -0.6899 -0.2977
  318MOL0     C41858   7.482   6.150  10.522  0.2079 -0.4440 -0.7766
  318MOL0     C41859   7.447   6.206  10.376  0.9632 -0.0790  0.0713
  318MOL0     C41860   7.552   6.156  10.268  0.5459 -0.0762 -0.6814
  318MOL0     N41861   7.569   6.253  10.161 -0.1212  0.5005  0.3677
  318MOL0     C41862   7.474   6.288  10.073  0.0057 -0.2142  0.7413
  318MOL0     C41863   7.525   6.398  10.012 -0.3901  0.1779  0.3892
  318MOL0     C41864   7.472   6.466   9.893 -0.8289  0.8730 -0.7139
  318MOL0     C41865   7.352   6.387   9.840  0.2567 -0.3769  0.0851
  318MOL0     C41866   7.283   6.451   9.720 -0.7264 -1.0969  0.7377
  318MOL0     C41867   7.202   6.582   9.738  0.2566  0.6169 -0.9309
  318MOL0     O41868   7.076   6.545   9.782  0.4812  1.0000  0.0646
  318MOL0     C41869   6.983   6.509   9.679  0.2602 -0.1512 -0.0159
  318MOL0     C41870   6.858   6.456   9.722  0.0015 -0.0951  0.1116
  318MOL0     C41871   6.754   6.418   9.636  0.3211  0.3502 -0.2229
  318MOL0     C41872   6.772   6.423   9.499 -0.7500  0.4493 -0.4245
  318MOL0     C41873   6.672   6.366   9.418  0.0082 -0.0768  0.1855
  318MOL0     O41874   6.538   6.373   9.456 -0.3290  0.6719  0.3600
  318MOL0     C41875   6.447   6.420   9.369 -0.1391  0.4780  0.2558
  318MOL0     C41876   6.457   6.508   9.264  1.0947  0.2018  0.4207
  318MOL0     C41877   6.352   6.531   9.172 -0.1938 -0.2292 -0.0020
  318MOL0     C41878   6.226   6.474   9.187  0.0225  0.6311 -0.2876
  318MOL0     O41879   6.117   6.493   9.112  0.1682  0.7678  0.4789
  318MOL0     C41880   6.119   6.624   9.050 -0.9527 -0.0489 -0.1868
  318MOL0     C41881   5.975   6.664   9.035 -0.0471  0.0730 -0.3154
  318MOL0     C41882   5.960   6.792   8.969  0.2179 -0.1136  0.8129
  318MOL0     C41883   5.818   6.823   8.954 -0.2674 -0.3119  0.3425
  318MOL0     C41884   5.813   6.962   8.897  0.3637 -0.0028  0.4235
  318MOL0     C41885   5.679   6.992   8.832  0.0381 -0.1453  0.2961
  318MOL0     C41886   5.652   7.136   8.797  0.1397 -0.1077  0.0170
  318MOL0     C41887   5.552   7.134   8.685 -0.3966 -0.3194  1.3434
  318MOL0    Cl41888   5.643   7.078   8.530  0.0809  0.3771  0.0038
  318MOL0     C41889   6.212   6.386   9.288  0.5196 -0.9272 -1.0914
  318MOL0     C41890   6.326   6.348   9.370  0.4928 -0.2392 -0.3695
  318MOL0     O41891   6.710   6.330   9.306 -0.1536 -0.1017 -0.1395
  318MOL0     C41892   6.893   6.474   9.447  0.9840 -0.5287  0.0005
  318MOL0     C41893   6.997   6.518   9.534  0.4698 -0.5230 -0.7452
  318MOL0     N41894   7.646   6.431  10.070 -0.1470 -0.4364  0.0731
  318MOL0     N41895   7.668   6.346  10.164  0.0261 -0.4151  0.4519
  318MOL0     C41896   7.934   6.521  11.034  0.0207 -0.8691 -0.2593
  318MOL0     C41897   8.060   6.573  11.020 -0.2157  0.9612 -0.1753
  318MOL0     C41898   8.507   6.609  10.883 -0.3469 -0.7852  0.2811
  318MOL0     C41899   8.516   6.739  10.939  0.7175  0.3265 -0.1234
  318MOL0     C41900   8.632   6.810  10.944 -0.0502  0.9858  0.4126
  318MOL0     C41901   8.744   6.754  10.879  0.5162 -0.3142 -0.5218
  318MOL0     O41902   8.855   6.827  10.870  0.1128 -0.9608  0.1337
  318MOL0     C41903   8.867   6.917  10.755  0.0041 -0.0092 -0.4617
  318MOL0     C41904   8.896   7.055  10.806 -0.8671 -0.4463 -0.4068
  318MOL0     C41905   9.047   7.070  10.860 -0.8438 -0.5390 -0.1162
  318MOL0     C41906   9.115   7.201  10.824 -0.1197 -0.7470 -0.5083
  318MOL0     C41907   9.252   7.216  10.878 -0.5862 -0.2884  0.1306
  318MOL0     C41908   9.368   7.229  10.917  0.2954  0.1233 -0.1592
  318MOL0     C41909   8.740   6.624  10.826  0.1585  0.4555 -0.5154
  318MOL0     C41910   8.620   6.557  10.824 -0.3566  0.4563  0.0161
  318MOL0     H41911   8.182   6.345  10.800  0.8055  0.2185 -0.0427
  318MOL0     H41912   7.956   6.257  10.829 -0.3090  0.1234  1.6187
  318MOL0     H41913   7.774   6.224  11.116 -2.0103 -1.2941  1.4156
  318MOL0     H41914   7.810   6.180  10.950 -0.5088  2.8454 -2.8065
  318MOL0     H41915   7.542   6.257  11.064  0.9865 -0.9344  0.7327
  318MOL0     H41916   7.588   6.095  10.998  0.9362 -0.2256  2.4783
  318MOL0     H41917   7.545   6.358  10.840  1.4635 -0.0395 -1.9207
  318MOL0     H41918   7.438   6.221  10.846  0.1950  0.3191  0.9636
  318MOL0     H41919   7.732   6.217  10.732  0.2069  1.8928 -1.9619
  318MOL0     H41920   7.613   6.087  10.742 -0.2896  0.4817  2.0307
  318MOL0     H41921   7.678   6.255  10.542 -0.0498 -0.6032  1.2034
  318MOL0     H41922   7.541   6.353  10.596  2.2501  0.7835 -1.3171
  318MOL0     H41923   7.396   6.148  10.590 -0.1449 -3.7994 -1.1645
  318MOL0     H41924   7.537   6.056  10.516  0.8184  0.0055 -4.2395
  318MOL0     H41925   7.347   6.171  10.350 -0.7098  2.6229  2.4111
  318MOL0     H41926   7.430   6.314  10.372 -0.7694 -0.3207  0.2919
  318MOL0     H41927   7.506   6.066  10.228 -0.4764  0.6015 -1.0722
  318MOL0     H41928   7.650   6.132  10.311  0.0523 -0.1406  0.4478
  318MOL0     H41929   7.374   6.253  10.052 -1.5422  1.5938  4.1478
  318MOL0     H41930   7.553   6.486   9.822  1.3956  3.4870  2.2769
  318MOL0     H41931   7.445   6.562   9.939  0.7945  0.9051  0.2357
  318MOL0     H41932   7.279   6.371   9.920  0.7677  2.9697  1.4222
  318MOL0     H41933   7.384   6.285   9.818  3.1248  0.8266 -1.8225
  318MOL0     H41934   7.356   6.471   9.640 -0.5810  0.2257  1.1795
  318MOL0     H41935   7.222   6.369   9.682 -1.0350 -1.2338  1.5133
  318MOL0     H41936   7.202   6.642   9.646 -0.4478  1.4216 -0.4257
  318MOL0     H41937   7.258   6.645   9.808  2.4194 -1.1680 -0.9340
  318MOL0     H41938   6.827   6.436   9.824 -1.5951 -2.5455 -0.7661
  318MOL0     H41939   6.665   6.370   9.676 -1.8915  3.2282 -1.2910
  318MOL0     H41940   6.551   6.554   9.238  0.4396  1.5047  0.2604
  318MOL0     H41941   6.369   6.597   9.087 -3.1206 -1.7513 -1.9215
  318MOL0     H41942   6.169   6.619   8.952 -1.9361  1.1848 -0.7696
  318MOL0     H41943   6.171   6.685   9.124 -2.2200 -0.8461  1.4312
  318MOL0     H41944   5.935   6.666   9.137  1.6746 -0.6658  0.4050
  318MOL0     H41945   5.919   6.589   8.978 -2.3156  2.4487 -1.4253
  318MOL0     H41946   6.014   6.793   8.873  0.1313 -1.3552  0.7341
  318MOL0     H41947   6.011   6.870   9.026 -0.2769  0.5417  0.3757
  318MOL0     H41948   5.761   6.752   8.893 -0.3372 -0.2145  0.2931
  318MOL0     H41949   5.775   6.829   9.054  1.5071 -0.2047  1.1478
  318MOL0     H41950   5.885   6.969   8.815  0.1118  0.2187  0.2191
  318MOL0     H41951   5.840   7.031   8.978 -1.5033 -1.5772  2.5238
  318MOL0     H41952   5.593   6.957   8.890 -1.6663  0.5141 -1.7394
  318MOL0     H41953   5.693   6.935   8.740  0.8497  0.5257 -0.0056
  318MOL0     H41954   5.630   7.185   8.892 -2.3455 -1.0045 -0.0155
  318MOL0     H41955   5.747   7.182   8.771 -0.0479  1.1364  1.3886
  318MOL0     H41956   5.517   7.236   8.668 -2.1181 -0.7719  1.9980
  318MOL0     H41957   5.455   7.086   8.700 -0.3487 -1.3711 -1.2468
  318MOL0     H41958   6.114   6.341   9.298  0.0086  0.5095  1.0894
  318MOL0     H41959   6.300   6.273   9.444  2.0726 -0.8240 -0.3810
  318MOL0     H41960   6.900   6.482   9.339 -1.3856  1.7961 -0.0680
  318MOL0     H41961   7.087   6.543   9.477  1.3699 -4.1487 -1.1390
  318MOL0     H41962   7.876   6.565  11.114 -2.6550 -0.5640 -2.2470
  318MOL0     H41963   8.084   6.651  11.091 -0.0809  1.2052 -0.4876
  318MOL0     H41964   8.431   6.780  10.993  0.0533 -2.2314  0.9021
  318MOL0     H41965   8.640   6.908  10.991  0.6918  0.2271  1.9411
  318MOL0     H41966   8.769   6.912  10.707 -0.2238 -0.6993  0.0580
  318MOL0     H41967   8.952   6.894  10.689  0.3247  1.3776 -0.5605
  318MOL0     H41968   8.894   7.127  10.724  1.0584  0.2650  0.1015
  318MOL0     H41969   8.820   7.082  10.881 -4.8792  2.3305 -4.8545
  318MOL0     H41970   9.097   6.980  10.822 -1.4459 -0.1954 -1.7899
  318MOL0     H41971   9.055   7.058  10.969  2.1314 -0.0932 -0.2049
  318MOL0     H41972   9.119   7.214  10.715  0.0979 -0.6954 -0.4948
  318MOL0     H41973   9.053   7.287  10.850  2.5744  0.9894  0.6106
  318MOL0     H41974   9.468   7.247  10.952  0.0323 -0.1171  0.7335
  318MOL0     H41975   8.823   6.576  10.775  0.6799  0.5659  0.2145
  318MOL0     H41976   8.618   6.454  10.790  0.4163  0.0100  1.2568
  319MOL0     O41977   3.772   1.175   8.689 -0.4566 -0.1989 -0.1653
  319MOL0     C41978   3.733   1.219   8.583  0.9192  1.4726  0.2500
  319MOL0     O41979   3.677   1.147   8.477 -0.3447  0.2590  0.2023
  319MOL0     C41980   3.563   1.076   8.505 -0.3575  0.2588  0.3638
  319MOL0     C41981   3.464   1.083   8.407  0.8649  0.4416  0.5343
  319MOL0     C41982   3.342   1.026   8.428 -0.0019  0.1602  0.1447
  319MOL0     C41983   3.309   0.957   8.545 -0.2661 -0.5437  0.2936
  319MOL0     O41984   3.178   0.904   8.560 -0.2449 -0.2781  0.9265
  319MOL0     C41985   3.143   0.809   8.661  0.1219  0.5179 -0.0539
  319MOL0     C41986   2.990   0.779   8.661  0.3903 -0.2952 -0.2515
  319MOL0     C41987   2.958   0.698   8.783 -0.0409  0.4734 -0.5386
  319MOL0     C41988   2.815   0.675   8.795 -0.0928 -0.0986 -0.4546
  319MOL0     C41989   2.782   0.573   8.901 -0.5635  0.2678 -0.3971
  319MOL0     C41990   2.630   0.545   8.919  0.0690  1.0061 -0.2200
  319MOL0     C41991   2.591   0.461   9.035 -0.6128 -0.7774 -0.1354
  319MOL0     C41992   2.441   0.469   9.056 -0.1748  1.0581 -0.9704
  319MOL0     N41993   2.377   0.345   9.110 -0.1494 -0.0330  0.0813
  319MOL0     C41994   2.343   0.314   9.242 -0.0278  0.0744  0.1464
  319MOL0     C41995   2.301   0.186   9.237  0.9533 -0.0326  0.0546
  319MOL0     C41996   2.248   0.105   9.359 -0.3435 -0.3246 -0.2439
  319MOL0     C41997   2.193  -0.021   9.329 -0.5967  0.2881  0.4747
  319MOL0     C41998   2.246  -0.140   9.421  0.2816 -0.4322 -0.5620
  319MOL0     C41999   2.396  -0.176   9.405 -0.6457  0.0939  0.4424
  319MOL0     O42000   2.487  -0.103   9.494 -0.0581  0.3492 -0.0758
  319MOL0     C42001   2.597  -0.080   9.423 -0.2509 -0.6687  0.9085
  319MOL0     C42002   2.696  -0.172   9.395 -0.0606 -0.5108  0.0625
  319MOL0     C42003   2.805  -0.126   9.327 -0.5706 -0.2019 -0.7024
  319MOL0     C42004   2.827   0.012   9.296  0.1299  0.5675 -0.6906
  319MOL0     C42005   2.943   0.047   9.222  0.3219  0.6305  1.1916
  319MOL0     O42006   2.957   0.177   9.178 -0.2399 -0.4840  0.8127
  319MOL0     C42007   3.072   0.228   9.127  0.3720  0.3736 -0.0881
  319MOL0     C42008   3.206   0.196   9.177 -0.2712  0.0102 -0.0125
  319MOL0     C42009   3.318   0.233   9.105 -0.6998  0.3725  0.9632
  319MOL0     C42010   3.314   0.329   9.002  0.4666  0.1482 -0.2677
  319MOL0     O42011   3.419   0.389   8.935  0.1143  0.3361  0.9314
  319MOL0     C42012   3.531   0.308   8.885 -0.1475 -0.3766  0.6871
  319MOL0     C42013   3.493   0.202   8.781  0.5308 -0.0388  0.6640
  319MOL0     C42014   3.424   0.077   8.839  0.1626 -0.9523  0.0400
  319MOL0     C42015   3.420  -0.025   8.720 -0.6096 -0.0993 -0.2151
  319MOL0     C42016   3.366  -0.168   8.754  0.1012  0.6775  0.0404
  319MOL0     C42017   3.218  -0.181   8.808 -0.8822  0.1304  0.7523
  319MOL0     C42018   3.128  -0.275   8.724 -0.7415  0.2876  0.2925
  319MOL0     C42019   2.977  -0.235   8.754  1.2485  0.3020 -0.5900
  319MOL0    Cl42020   2.877  -0.354   8.670 -0.1549 -0.1028  0.1312
  319MOL0     C42021   3.185   0.379   8.967 -0.0560  0.5093 -0.0417
  319MOL0     C42022   3.063   0.325   9.027 -0.2051 -0.4557 -0.0191
  319MOL0     O42023   3.032  -0.040   9.206  0.3280 -0.0014 -1.2588
  319MOL0     C42024   2.727   0.099   9.327  0.1503  0.1823  0.4789
  319MOL0     C42025   2.610   0.056   9.382 -0.1613 -0.0416  0.1995
  319MOL0     N42026   2.314   0.145   9.098 -0.5586 -0.1350  0.0557
  319MOL0     N42027   2.363   0.232   9.027 -0.1378 -1.3251  0.1041
  319MOL0     C42028   3.407   0.944   8.646 -0.0803  0.4418  0.9409
  319MOL0     C42029   3.524   1.001   8.619  0.4867  0.3248 -0.0411
  319MOL0     C42030   3.782   1.357   8.557  1.1388  0.3854  0.3491
  319MOL0     C42031   3.821   1.433   8.663 -0.6287  0.3084 -0.2214
  319MOL0     C42032   3.874   1.561   8.648  0.1195  0.7277 -0.0897
  319MOL0     C42033   3.878   1.623   8.529 -0.5392 -0.0320  1.5221
  319MOL0     O42034   3.921   1.757   8.527 -0.7998 -0.2822 -0.7220
  319MOL0     C42035   3.988   1.806   8.408 -0.2686 -0.1087 -0.0319
  319MOL0     C42036   4.129   1.740   8.405 -0.5453  0.6054  0.0335
  319MOL0     C42037   4.201   1.800   8.285  0.2736  0.6750 -0.0584
  319MOL0     C42038   4.144   1.768   8.149 -0.1532  0.4811  0.3323
  319MOL0     C42039   4.112   1.627   8.149 -0.3199 -0.0544  0.0365
  319MOL0     C42040   4.069   1.513   8.142 -0.2737  1.1960 -0.8177
  319MOL0     C42041   3.834   1.549   8.416 -0.3856 -0.8039 -0.2823
  319MOL0     C42042   3.792   1.417   8.434 -0.8174  0.0826 -0.1785
  319MOL0     H42043   3.487   1.143   8.319 -3.2199  2.7849  0.8084
  319MOL0     H42044   3.265   1.040   8.353 -0.3372 -1.6612  0.0892
  319MOL0     H42045   3.181   0.851   8.754  2.8109  0.4730 -1.0411
  319MOL0     H42046   3.198   0.717   8.637  1.2836  1.4735 -1.2361
  319MOL0     H42047   2.972   0.717   8.573 -0.0518  1.6413 -1.5934
  319MOL0     H42048   2.942   0.877   8.663  0.4908 -0.2419  2.1461
  319MOL0     H42049   2.987   0.757   8.870 -1.5591 -2.3103  2.0508
  319MOL0     H42050   3.025   0.612   8.775 -0.9466 -0.4137  0.9206
  319MOL0     H42051   2.745   0.758   8.807 -2.3673 -1.3839 -3.3608
  319MOL0     H42052   2.778   0.629   8.703 -2.0314  0.3623  0.0300
  319MOL0     H42053   2.821   0.608   8.997  1.2918  2.0285 -1.7180
  319MOL0     H42054   2.846   0.489   8.871  0.7187  2.3038 -3.8267
  319MOL0     H42055   2.584   0.488   8.837 -1.5601 -0.3495  1.5470
  319MOL0     H42056   2.574   0.639   8.922  1.3019  1.7270  0.5647
  319MOL0     H42057   2.620   0.359   9.009  1.5459 -1.3062  3.6357
  319MOL0     H42058   2.650   0.491   9.123  0.0667  0.8565 -1.1035
  319MOL0     H42059   2.390   0.476   8.959 -1.7318 -2.3566 -0.5476
  319MOL0     H42060   2.415   0.538   9.136 -0.6549  0.2741 -0.4313
  319MOL0     H42061   2.346   0.385   9.325  0.5567 -0.5099  0.6376
  319MOL0     H42062   2.179   0.175   9.407  4.7139  2.2666  4.4229
  319MOL0     H42063   2.317   0.094   9.443 -0.3417  0.5030 -0.1254
  319MOL0     H42064   2.210  -0.055   9.227  2.5007 -0.1178  1.0315
  319MOL0     H42065   2.087  -0.001   9.345 -0.4592  1.8442 -0.3922
  319MOL0     H42066   2.222  -0.113   9.524  0.7869 -1.0397 -0.2794
  319MOL0     H42067   2.202  -0.234   9.387  2.0062 -2.2731  1.9688
  319MOL0     H42068   2.428  -0.177   9.300 -1.8296  0.1563  0.0740
  319MOL0     H42069   2.397  -0.279   9.440 -4.4361 -0.6315 -1.1405
  319MOL0     H42070   2.668  -0.272   9.425 -0.1754 -0.0352  1.6249
  319MOL0     H42071   2.898  -0.182   9.318 -0.4976 -0.3168  0.5373
  319MOL0     H42072   3.218   0.121   9.255  1.2783 -1.3603 -1.4887
  319MOL0     H42073   3.417   0.225   9.150 -0.4634  0.5822  0.4865
  319MOL0     H42074   3.581   0.254   8.966 -0.5290  0.7506  1.7019
  319MOL0     H42075   3.589   0.382   8.830 -2.1660  1.0700  0.3912
  319MOL0     H42076   3.585   0.171   8.730  0.4565 -0.5506  0.8415
  319MOL0     H42077   3.440   0.252   8.699 -0.8602  1.5213  2.4185
  319MOL0     H42078   3.331   0.111   8.884 -0.7600  1.9232 -3.4854
  319MOL0     H42079   3.493   0.044   8.917  1.7444  2.5602  0.3182
  319MOL0     H42080   3.359   0.023   8.643  1.7623  0.1484 -2.0431
  319MOL0     H42081   3.522  -0.033   8.682 -1.3067  0.5812 -2.3537
  319MOL0     H42082   3.426  -0.213   8.834 -2.7834 -3.8272  0.0496
  319MOL0     H42083   3.365  -0.228   8.662 -3.3224  0.0554  0.3358
  319MOL0     H42084   3.172  -0.082   8.814 -2.7263 -0.6624  0.2821
  319MOL0     H42085   3.231  -0.227   8.906 -0.5150 -2.6358 -0.5091
  319MOL0     H42086   3.150  -0.273   8.617 -0.2814  2.1656  0.3932
  319MOL0     H42087   3.146  -0.378   8.756 -1.5707 -0.8067 -2.4695
  319MOL0     H42088   2.934  -0.144   8.711  1.6882  1.3472  1.1000
  319MOL0     H42089   2.953  -0.240   8.861 -1.3906 -1.7237 -1.1741
  319MOL0     H42090   3.158   0.440   8.882 -0.5120  2.3390  1.3695
  319MOL0     H42091   2.965   0.356   8.991 -0.5970 -1.8475 -0.1889
  319MOL0     H42092   2.735   0.206   9.311  0.6370  0.4650  2.4016
  319MOL0     H42093   2.533   0.128   9.408 -0.6223 -1.1148  2.0747
  319MOL0     H42094   3.385   0.913   8.747 -3.8673 -2.0709 -0.4088
  319MOL0     H42095   3.607   0.980   8.686 -0.1864 -5.9172 -0.6335
  319MOL0     H42096   3.817   1.402   8.767  1.3719 -0.6620 -0.3935
  319MOL0     H42097   3.907   1.625   8.729  6.0851 -0.2889 -1.2668
  319MOL0     H42098   3.983   1.915   8.409 -3.0351 -0.0870  3.6449
  319MOL0     H42099   3.934   1.774   8.318  1.9519 -1.7244 -0.8770
  319MOL0     H42100   4.185   1.772   8.494  0.9564  2.9013 -1.6401
  319MOL0     H42101   4.119   1.631   8.395 -0.2971  0.6038 -0.2071
  319MOL0     H42102   4.301   1.755   8.285  0.3318  0.7750 -1.2198
  319MOL0     H42103   4.226   1.906   8.292  1.5735  0.3782  0.2107
  319MOL0     H42104   4.053   1.820   8.119 -1.5504 -0.3652  2.7982
  319MOL0     H42105   4.223   1.784   8.075 -0.0013 -1.8114 -0.0808
  319MOL0     H42106   4.041   1.410   8.132 -2.0556  1.4099  1.3450
  319MOL0     H42107   3.825   1.584   8.313  0.9582 -1.4949 -0.6694
  319MOL0     H42108   3.763   1.361   8.346  1.2361 -3.4875  1.1811
  320MOL0     O42109   2.556   0.192   6.132  0.7224 -0.1969  0.5334
  320MOL0     C42110   2.655   0.139   6.082 -0.4532  0.8005 -0.9428
  320MOL0     O42111   2.661   0.029   5.998 -0.8850 -0.1463 -0.6735
  320MOL0     C42112   2.542  -0.020   5.947  0.7778  0.4537 -0.0427
  320MOL0     C42113   2.480  -0.126   6.010  0.7602  0.5280  0.4396
  320MOL0     C42114   2.362  -0.165   5.960 -0.4487 -0.3488 -0.7600
  320MOL0     C42115   2.283  -0.097   5.873  0.4897  0.4197  0.2226
  320MOL0     O42116   2.150  -0.133   5.864 -0.6039  0.6286 -0.8606
  320MOL0     C42117   2.080  -0.104   5.747 -0.2291  0.1750 -0.3319
  320MOL0     C42118   1.966  -0.208   5.723 -0.0252  0.0567 -0.2126
  320MOL0     C42119   1.854  -0.170   5.816  0.5091  0.0087  0.4107
  320MOL0     C42120   1.774  -0.286   5.867  0.3742 -0.7889 -0.2507
  320MOL0     C42121   1.841  -0.351   5.985  0.3293 -0.3186 -0.0378
  320MOL0     C42122   1.831  -0.269   6.117 -0.6373  0.0337 -0.0213
  320MOL0     C42123   1.689  -0.207   6.143 -0.2438 -0.3856 -0.5846
  320MOL0     C42124   1.675  -0.144   6.282  0.1879  0.1814 -0.2446
  320MOL0     N42125   1.545  -0.066   6.291  0.0797  0.5477  0.9348
  320MOL0     C42126   1.421  -0.118   6.272  0.5249  0.0371 -0.4630
  320MOL0     C42127   1.329  -0.012   6.291 -0.5806  0.4755 -0.5555
  320MOL0     C42128   1.182  -0.039   6.294  0.7112  0.0650  0.4972
  320MOL0     C42129   1.147  -0.167   6.352 -0.1549  0.1958 -0.0572
  320MOL0     C42130   0.997  -0.194   6.356  0.5696  0.2334 -1.8680
  320MOL0     C42131   0.935  -0.199   6.222 -1.0034 -0.7822 -0.2265
  320MOL0     O42132   0.866  -0.072   6.201 -0.0337  0.5667 -0.5106
  320MOL0     C42133   0.786  -0.071   6.092  0.1635 -1.4490  0.2368
  320MOL0     C42134   0.843  -0.086   5.969 -0.3863 -0.5057 -0.1166
  320MOL0     C42135   0.755  -0.109   5.858 -0.3018  0.2249  0.7055
  320MOL0     C42136   0.616  -0.099   5.870 -0.3682  0.2948  0.1094
  320MOL0     C42137   0.517  -0.124   5.758  0.5109 -0.4067 -1.5820
  320MOL0     O42138   0.389  -0.151   5.790  0.1316 -0.0024 -0.2026
  320MOL0     C42139   0.294  -0.158   5.687  0.5107 -0.8126 -0.1809
  320MOL0     C42140   0.217  -0.045   5.659 -0.1275 -0.2127 -0.2770
  320MOL0     C42141   0.105  -0.054   5.575 -0.0731  0.4767  0.9130
  320MOL0     C42142   0.080  -0.174   5.500 -0.0949 -0.0969 -0.0253
  320MOL0     O42143  -0.030  -0.189   5.413 -0.5102  0.6207  0.3797
  320MOL0     C42144  -0.148  -0.113   5.428  0.6206 -0.3562  0.3996
  320MOL0     C42145  -0.256  -0.183   5.356 -0.0576  2.2096  0.2467
  320MOL0     C42146  -0.376  -0.089   5.352  0.1295  1.6790  0.5189
  320MOL0     C42147  -0.489  -0.151   5.263  0.0356  0.1642 -0.2390
  320MOL0     C42148  -0.631  -0.093   5.301  0.4957  0.4905  0.2448
  320MOL0     C42149  -0.735  -0.203   5.299 -0.1515 -0.4792  0.0714
  320MOL0     C42150  -0.740  -0.252   5.150 -1.2599  0.2907 -0.0554
  320MOL0     C42151  -0.843  -0.364   5.146 -0.1406  0.2245  0.4458
  320MOL0    Cl42152  -0.870  -0.390   4.970 -0.0877  0.3600 -0.0596
  320MOL0     C42153   0.172  -0.282   5.522 -0.4209 -0.1625 -0.1954
  320MOL0     C42154   0.273  -0.271   5.617 -0.1015  0.6478  0.7709
  320MOL0     O42155   0.558  -0.114   5.641 -0.3686  0.7041 -0.1621
  320MOL0     C42156   0.557  -0.088   5.999 -0.0153  0.0418  0.1947
  320MOL0     C42157   0.644  -0.076   6.106 -0.3522 -0.2500 -0.0231
  320MOL0     N42158   1.410   0.102   6.300  0.7054  0.4902  0.1721
  320MOL0     N42159   1.536   0.071   6.294 -0.3098 -0.9250  0.3295
  320MOL0     C42160   2.346   0.004   5.801  0.1295 -0.7775  0.7573
  320MOL0     C42161   2.482   0.035   5.836 -0.1267 -0.2543 -0.2228
  320MOL0     C42162   2.785   0.206   6.106 -0.0480 -0.2356 -1.4807
  320MOL0     C42163   2.883   0.213   6.002  0.3391  0.7163 -0.4873
  320MOL0     C42164   3.006   0.261   6.034 -0.0101  0.7679 -0.1021
  320MOL0     C42165   3.030   0.319   6.155  0.7214 -0.2941 -0.7962
  320MOL0     O42166   3.155   0.381   6.180 -0.7542  0.4725 -0.5943
  320MOL0     C42167   3.190   0.440   6.295  0.0716 -0.8827 -0.8466
  320MOL0     C42168   3.317   0.525   6.278 -0.1745  0.2218 -0.1123
  320MOL0     C42169   3.364   0.579   6.413  0.2004 -0.7402  0.1039
  320MOL0     C42170   3.280   0.709   6.443 -0.8214  0.9985 -0.3552
  320MOL0     C42171   3.161   0.666   6.505  1.0764  0.4764  0.4290
  320MOL0     C42172   3.042   0.662   6.539 -0.4349 -0.6815  0.3158
  320MOL0     C42173   2.926   0.332   6.252 -0.0230  0.4835  0.7753
  320MOL0     C42174   2.803   0.272   6.227 -0.3663 -0.7880  0.1874
  320MOL0     H42175   2.526  -0.164   6.101 -0.2239 -1.7207  0.0867
  320MOL0     H42176   2.316  -0.247   6.014  2.1289 -1.5472 -0.2397
  320MOL0     H42177   2.143  -0.104   5.657  0.6649 -0.3494  0.2876
  320MOL0     H42178   2.036  -0.004   5.740  1.6184  0.9437 -2.1203
  320MOL0     H42179   2.006  -0.307   5.741  2.4474  1.0374  0.0071
  320MOL0     H42180   1.930  -0.203   5.620  1.3280 -3.4153 -0.9850
  320MOL0     H42181   1.788  -0.098   5.766 -0.3362  0.6839  2.3812
  320MOL0     H42182   1.891  -0.108   5.899 -1.6098 -0.4705  1.7889
  320MOL0     H42183   1.671  -0.255   5.888  1.4415  1.3339  2.5036
  320MOL0     H42184   1.784  -0.361   5.787  2.2250  1.7036 -2.5267
  320MOL0     H42185   1.942  -0.384   5.958 -0.6576 -1.4301 -2.7552
  320MOL0     H42186   1.779  -0.439   6.007  0.6161 -0.3950  0.4758
  320MOL0     H42187   1.906  -0.190   6.101  1.8928 -2.5791 -2.0297
  320MOL0     H42188   1.864  -0.323   6.207  3.5282  1.8658 -0.2049
  320MOL0     H42189   1.672  -0.118   6.082 -2.7865  0.7878  1.6484
  320MOL0     H42190   1.610  -0.282   6.128  0.2757 -1.8695  3.0344
  320MOL0     H42191   1.748  -0.062   6.288  3.3602 -2.5249  2.3375
  320MOL0     H42192   1.683  -0.217   6.363 -0.6129 -1.5493 -1.6367
  320MOL0     H42193   1.398  -0.224   6.269 -0.5109  0.0827  2.5251
  320MOL0     H42194   1.165  -0.042   6.186 -0.3730  0.3366  0.6466
  320MOL0     H42195   1.126   0.045   6.336  1.9540  0.1674  2.0379
  320MOL0     H42196   1.194  -0.175   6.450 -4.4513  0.9982  2.3057
  320MOL0     H42197   1.194  -0.242   6.288 -1.5232  0.1197 -1.0299
  320MOL0     H42198   0.982  -0.285   6.415 -3.4581  3.5044  2.9911
  320MOL0     H42199   0.954  -0.124   6.428  1.3779 -2.3849  1.4198
  320MOL0     H42200   0.868  -0.286   6.223 -0.4666 -1.2205 -0.9622
  320MOL0     H42201   1.006  -0.217   6.140 -2.4408 -3.0477 -1.0712
  320MOL0     H42202   0.951  -0.080   5.953 -0.7387  1.8931 -2.2403
  320MOL0     H42203   0.806  -0.128   5.764  1.6273 -1.3132  1.9742
  320MOL0     H42204   0.250   0.039   5.719  5.8119 -1.7609 -0.7457
  320MOL0     H42205   0.044   0.034   5.557 -3.1448 -1.3173  1.8064
  320MOL0     H42206  -0.129  -0.021   5.372 -1.7617  0.4276  0.7814
  320MOL0     H42207  -0.178  -0.087   5.530 -2.3889  0.9796 -0.7082
  320MOL0     H42208  -0.284  -0.281   5.395  2.3277  0.5629 -1.8567
  320MOL0     H42209  -0.232  -0.204   5.252  0.0759  1.2659  0.4656
  320MOL0     H42210  -0.340   0.002   5.304  2.0765  0.8491  0.2814
  320MOL0     H42211  -0.411  -0.064   5.453  0.6016 -1.5298  1.5969
  320MOL0     H42212  -0.467  -0.136   5.157 -1.0505 -0.1895 -0.5270
  320MOL0     H42213  -0.487  -0.257   5.293 -0.5701  0.2980  0.3042
  320MOL0     H42214  -0.658  -0.009   5.236  0.4216  1.2379  1.2065
  320MOL0     H42215  -0.615  -0.044   5.398 -0.2242  3.6592 -1.1103
  320MOL0     H42216  -0.831  -0.161   5.332  0.9570 -0.4789  3.7081
  320MOL0     H42217  -0.711  -0.281   5.372 -0.1528  1.1705  1.9370
  320MOL0     H42218  -0.776  -0.171   5.086 -0.0663  0.4474 -0.5675
  320MOL0     H42219  -0.651  -0.296   5.103 -2.4415 -1.8075 -0.4497
  320MOL0     H42220  -0.934  -0.332   5.197 -0.6748  3.0108 -1.9898
  320MOL0     H42221  -0.815  -0.462   5.186  0.2309  1.1644  2.5968
  320MOL0     H42222   0.154  -0.380   5.479 -2.0943  0.4892 -1.0537
  320MOL0     H42223   0.343  -0.350   5.644 -0.9446 -0.0094  1.0730
  320MOL0     H42224   0.449  -0.086   6.005 -0.0335  1.6985 -0.2376
  320MOL0     H42225   0.607  -0.067   6.207  0.6421 -0.5154  0.3753
  320MOL0     H42226   2.289   0.060   5.728 -0.1791 -2.2934 -0.2326
  320MOL0     H42227   2.532   0.122   5.797 -0.7731 -0.3292 -1.2589
  320MOL0     H42228   2.864   0.184   5.899 -2.5564  1.9545 -0.3910
  320MOL0     H42229   3.082   0.240   5.960  1.4817 -0.3698  1.6539
  320MOL0     H42230   3.212   0.374   6.379  3.7233  0.0477 -0.8952
  320MOL0     H42231   3.112   0.516   6.310  0.8879  0.7594 -4.1074
  320MOL0     H42232   3.393   0.465   6.226 -0.0884  1.9173 -2.0724
  320MOL0     H42233   3.307   0.610   6.211  0.0081  0.6965  0.4580
  320MOL0     H42234   3.471   0.600   6.406  0.8864 -3.2125  1.7557
  320MOL0     H42235   3.355   0.513   6.500  0.0880 -1.0696 -0.1547
  320MOL0     H42236   3.341   0.777   6.504  2.7664 -1.5683 -0.7365
  320MOL0     H42237   3.261   0.768   6.353  0.8088 -0.0523 -1.4579
  320MOL0     H42238   2.939   0.676   6.563 -0.5723 -0.1053 -0.5742
  320MOL0     H42239   2.940   0.381   6.348  0.4550 -3.7596  3.1264
  320MOL0     H42240   2.738   0.246   6.309 -1.2402 -1.1789 -0.6103
  321MOL0     O42241   8.318   6.237   0.300 -0.6926  0.3941  0.4932
  321MOL0     C42242   8.333   6.220   0.423 -0.1680  0.1785 -0.4299
  321MOL0     O42243   8.235   6.178   0.513 -0.8002 -0.4453  0.0679
  321MOL0     C42244   8.118   6.115   0.462 -0.5643 -0.4091 -0.0662
  321MOL0     C42245   8.131   6.015   0.361  0.6286  0.4054 -0.1157
  321MOL0     C42246   8.016   5.951   0.313 -0.4730 -0.6412  0.3131
  321MOL0     C42247   7.892   5.989   0.356 -0.2499  0.7382 -0.7204
  321MOL0     O42248   7.791   5.919   0.298  0.2749 -0.3573 -0.8576
  321MOL0     C42249   7.650   5.931   0.334  0.1867 -0.5674 -0.7802
  321MOL0     C42250   7.617   5.814   0.440  0.7560  0.1833  0.0528
  321MOL0     C42251   7.610   5.682   0.364  0.1795  0.9740 -0.6710
  321MOL0     C42252   7.543   5.567   0.443  0.3171 -0.7867 -0.8901
  321MOL0     C42253   7.572   5.441   0.369 -0.2225 -0.2551 -0.1743
  321MOL0     C42254   7.495   5.433   0.251  0.5889 -0.0099 -0.1452
  321MOL0     C42255   7.564   5.407   0.111  0.3758  0.2418 -0.4506
  321MOL0     C42256   7.477   5.362  -0.006  0.3404  0.6169  0.0065
  321MOL0     N42257   7.537   5.391  -0.140 -0.1178  0.1136  0.8130
  321MOL0     C42258   7.471   5.450  -0.252  0.8340 -0.0469  0.0160
  321MOL0     C42259   7.567   5.489  -0.333  0.2499  0.3839  0.3079
  321MOL0     C42260   7.547   5.539  -0.476  0.4547  0.0955 -0.6627
  321MOL0     C42261   7.468   5.679  -0.475  0.7388 -0.2023 -1.0300
  321MOL0     C42262   7.402   5.702  -0.611 -0.2481  0.4550  0.1858
  321MOL0     C42263   7.277   5.789  -0.612 -0.8209 -0.3553 -0.1597
  321MOL0     O42264   7.304   5.917  -0.559 -0.5273 -0.7090  0.9632
  321MOL0     C42265   7.210   5.986  -0.482  0.1992 -0.0801  0.8140
  321MOL0     C42266   7.082   6.021  -0.526  0.5599  0.5629 -0.2507
  321MOL0     C42267   7.005   6.080  -0.433  0.0115  0.0586 -0.4199
  321MOL0     C42268   7.051   6.139  -0.310 -0.1730  0.1747 -0.0144
  321MOL0     C42269   6.951   6.202  -0.214 -0.3208  0.9899  0.3100
  321MOL0     O42270   7.013   6.243  -0.100  0.5153  0.5149 -0.2235
  321MOL0     C42271   6.938   6.294   0.002 -0.4677 -0.1737  0.1910
  321MOL0     C42272   6.832   6.229   0.067 -0.1958  0.0814  0.2307
  321MOL0     C42273   6.762   6.300   0.163 -0.0455 -0.7107  0.0597
  321MOL0     C42274   6.795   6.437   0.195 -0.5339 -0.6689  0.1418
  321MOL0     O42275   6.724   6.494   0.290  0.1462  0.7079 -0.0226
  321MOL0     C42276   6.708   6.636   0.297 -0.2115  1.0297 -0.2507
  321MOL0     C42277   6.617   6.675   0.409 -0.0267 -0.6861 -0.5370
  321MOL0     C42278   6.576   6.823   0.397  0.0176  0.2663  0.6354
  321MOL0     C42279   6.453   6.856   0.481 -0.2309 -0.0976 -1.1915
  321MOL0     C42280   6.428   7.002   0.502  0.1969 -0.3413 -0.1100
  321MOL0     C42281   6.287   7.045   0.455 -0.4002  0.1321  0.2454
  321MOL0     C42282   6.168   6.970   0.514  0.9329 -0.2048  0.6361
  321MOL0     C42283   6.044   7.049   0.502 -0.3297 -0.5991 -0.5184
  321MOL0    Cl42284   5.918   6.979   0.592  0.1938 -0.0486 -0.0549
  321MOL0     C42285   6.911   6.499   0.138  0.2125  0.5280 -0.6028
  321MOL0     C42286   6.982   6.421   0.041  0.2100 -0.1194  0.4951
  321MOL0     O42287   6.831   6.214  -0.237  0.4208  0.0375 -0.5529
  321MOL0     C42288   7.176   6.111  -0.274  0.3581  0.1837 -0.0880
  321MOL0     C42289   7.257   6.035  -0.364 -1.0230 -0.4272  0.8398
  321MOL0     N42290   7.683   5.432  -0.289 -0.1432  0.6009 -0.1190
  321MOL0     N42291   7.667   5.379  -0.177  0.9361  0.1567  0.5448
  321MOL0     C42292   7.875   6.088   0.451 -0.7615  0.5341 -0.1514
  321MOL0     C42293   7.985   6.149   0.501 -0.1684  0.7134  0.8722
  321MOL0     C42294   8.456   6.255   0.491  0.0477  0.1548  1.5287
  321MOL0     C42295   8.566   6.288   0.419  0.0102 -0.3142  0.6325
  321MOL0     C42296   8.687   6.346   0.474  0.1931 -0.0093  0.0079
  321MOL0     C42297   8.691   6.364   0.616 -0.3009 -0.0747 -0.3081
  321MOL0     O42298   8.795   6.420   0.693 -0.1475  0.1094 -0.3433
  321MOL0     C42299   8.898   6.481   0.618 -0.4143 -0.3858  0.4012
  321MOL0     C42300   9.013   6.521   0.716  0.3521  0.4719 -0.0488
  321MOL0     C42301   8.980   6.612   0.830  0.6422 -0.7190 -0.2704
  321MOL0     C42302   9.083   6.621   0.936 -0.0739  0.0614 -0.6173
  321MOL0     C42303   9.215   6.639   0.880 -0.7991  0.3934 -0.5637
  321MOL0     C42304   9.330   6.650   0.844  0.2406  0.4266 -0.7382
  321MOL0     C42305   8.574   6.323   0.684  0.2822 -0.1134 -0.4635
  321MOL0     C42306   8.455   6.270   0.630  1.3399  0.0619  0.0219
  321MOL0     H42307   8.227   5.985   0.320  0.6684 -0.4064  0.5494
  321MOL0     H42308   8.012   5.874   0.237 -0.7197  0.1631 -0.5072
  321MOL0     H42309   7.588   5.925   0.244  0.1379  0.5552 -0.8327
  321MOL0     H42310   7.635   6.029   0.381 -3.6237 -1.2928 -0.0952
  321MOL0     H42311   7.532   5.846   0.500  0.0698 -1.0240 -0.2403
  321MOL0     H42312   7.699   5.814   0.513  1.9111  1.3767 -1.2031
  321MOL0     H42313   7.711   5.658   0.332  0.5028  1.8542 -0.3441
  321MOL0     H42314   7.544   5.697   0.278  1.3078 -0.1486 -1.7641
  321MOL0     H42315   7.592   5.569   0.541  0.0994  2.6431 -0.7081
  321MOL0     H42316   7.436   5.587   0.456 -0.0067 -0.4392 -3.5183
  321MOL0     H42317   7.538   5.365   0.440 -1.6230  0.4096 -0.1035
  321MOL0     H42318   7.679   5.425   0.359  0.1072  1.3299  0.5733
  321MOL0     H42319   7.424   5.516   0.241 -0.1225 -0.4863  0.7085
  321MOL0     H42320   7.439   5.339   0.256 -0.2670  0.4095 -1.3366
  321MOL0     H42321   7.596   5.503   0.070 -0.7165 -0.2439 -2.6098
  321MOL0     H42322   7.644   5.335   0.128 -0.1897 -0.0388  1.2615
  321MOL0     H42323   7.383   5.418  -0.005  0.0055  0.0555  0.6566
  321MOL0     H42324   7.459   5.254   0.004 -0.3666  0.9220  2.6918
  321MOL0     H42325   7.365   5.467  -0.267  0.1267 -4.0373 -0.7563
  321MOL0     H42326   7.515   5.452  -0.534 -1.0263  1.6064 -2.2070
  321MOL0     H42327   7.649   5.557  -0.513  0.1931 -1.9885 -2.5839
  321MOL0     H42328   7.532   5.761  -0.442 -2.5199  0.8425  3.6532
  321MOL0     H42329   7.388   5.662  -0.403  2.1243  1.1355  0.9229
  321MOL0     H42330   7.485   5.731  -0.675  0.4157  3.6097  2.2643
  321MOL0     H42331   7.371   5.604  -0.649  0.2040  1.3522 -2.7349
  321MOL0     H42332   7.192   5.748  -0.556 -0.1189  0.5227  1.6227
  321MOL0     H42333   7.243   5.782  -0.716 -0.0884  0.1417 -0.4403
  321MOL0     H42334   7.024   5.986  -0.611  1.1804 -1.8655  0.2721
  321MOL0     H42335   6.898   6.087  -0.451 -0.7349  0.5975  3.4190
  321MOL0     H42336   6.801   6.126   0.053 -0.7729  0.1650  0.8153
  321MOL0     H42337   6.676   6.258   0.215 -2.1564  1.9470 -1.0166
  321MOL0     H42338   6.665   6.676   0.204 -0.4261 -0.3743 -0.7762
  321MOL0     H42339   6.803   6.685   0.322  1.0335 -0.6934 -1.4007
  321MOL0     H42340   6.667   6.682   0.506 -0.6380 -2.6456 -0.0560
  321MOL0     H42341   6.542   6.597   0.422  1.1167 -1.6592  0.5138
  321MOL0     H42342   6.552   6.851   0.294 -0.5327 -1.1957  0.3512
  321MOL0     H42343   6.667   6.879   0.419 -0.4225  1.0356  0.5446
  321MOL0     H42344   6.372   6.802   0.432  0.6858 -1.9738 -0.7363
  321MOL0     H42345   6.476   6.809   0.577  0.0993 -2.1985 -2.2383
  321MOL0     H42346   6.505   7.063   0.454  0.5376 -0.0661  0.7796
  321MOL0     H42347   6.442   7.024   0.608 -3.3602 -2.5136  0.9828
  321MOL0     H42348   6.281   7.040   0.345  4.2051 -2.9329 -0.1372
  321MOL0     H42349   6.282   7.150   0.487 -1.1682  0.2886 -0.3467
  321MOL0     H42350   6.152   6.866   0.484 -2.7958 -0.5077  3.0451
  321MOL0     H42351   6.188   6.956   0.621 -1.6407 -2.5273  0.9322
  321MOL0     H42352   6.027   7.071   0.396  0.9259  1.9118 -0.2500
  321MOL0     H42353   6.057   7.148   0.546 -4.4343  1.2654 -2.8674
  321MOL0     H42354   6.945   6.595   0.176 -0.4319  1.0084 -1.1988
  321MOL0     H42355   7.078   6.455   0.005  0.4334 -1.5907 -0.3824
  321MOL0     H42356   7.218   6.140  -0.178  0.9367  1.6240 -0.7469
  321MOL0     H42357   7.360   6.017  -0.334 -0.2201 -1.0603 -1.9803
  321MOL0     H42358   7.783   6.114   0.503  0.0420  2.3341  0.4434
  321MOL0     H42359   7.976   6.233   0.569  0.0797  0.7708  0.8323
  321MOL0     H42360   8.568   6.271   0.312  0.7257  2.1347  0.1950
  321MOL0     H42361   8.770   6.374   0.411  0.4102  0.0682  0.3257
  321MOL0     H42362   8.854   6.570   0.571  1.1260 -1.0822 -2.6039
  321MOL0     H42363   8.938   6.419   0.537  0.9608  2.2102 -1.0348
  321MOL0     H42364   9.058   6.425   0.745  0.1545 -0.4160 -2.4633
  321MOL0     H42365   9.080   6.581   0.655 -1.1490 -1.6763 -4.1883
  321MOL0     H42366   8.883   6.592   0.876  0.2556 -1.8942 -1.5538
  321MOL0     H42367   8.966   6.713   0.789 -1.1434 -0.5772  0.6207
  321MOL0     H42368   9.053   6.703   1.002 -0.2957 -2.1084  2.1411
  321MOL0     H42369   9.084   6.528   0.994 -0.6614  0.1860 -0.3961
  321MOL0     H42370   9.415   6.696   0.798  0.2673  0.7578 -0.3566
  321MOL0     H42371   8.570   6.339   0.791 -0.6523 -0.7749 -0.3894
  321MOL0     H42372   8.378   6.228   0.694  2.2375  2.2241  2.7098
  322MOL0     O42373   0.908   4.416   4.651  0.2039 -0.0501  0.5971
  322MOL0     C42374   0.971   4.500   4.717  0.6322  1.1915  0.0545
  322MOL0     O42375   0.918   4.618   4.766  0.0889 -0.5777 -0.0598
  322MOL0     C42376   0.785   4.637   4.748 -0.1279 -1.0716 -0.4200
  322MOL0     C42377   0.686   4.541   4.786  1.0882 -0.6747  0.6289
  322MOL0     C42378   0.542   4.568   4.769 -0.3802  0.2987 -0.7031
  322MOL0     C42379   0.497   4.686   4.719  0.2278  0.2743  0.1680
  322MOL0     O42380   0.369   4.727   4.701  0.4643 -0.2581 -0.5167
  322MOL0     C42381   0.266   4.639   4.751  0.2788  0.5570  0.8559
  322MOL0     C42382   0.127   4.697   4.720  0.1552  0.1301  0.7476
  322MOL0     C42383   0.007   4.616   4.785 -1.1194  0.2067  0.6235
  322MOL0     C42384  -0.123   4.694   4.766 -0.3286 -0.3436  0.3314
  322MOL0     C42385  -0.246   4.632   4.846 -0.1942 -0.8783 -0.9596
  322MOL0     C42386  -0.338   4.751   4.859 -0.5136 -0.9656  0.5587
  322MOL0     C42387  -0.474   4.716   4.901  0.0424 -0.4963  0.4368
  322MOL0     C42388  -0.555   4.635   4.795 -0.4371  1.2743  0.5215
  322MOL0     N42389  -0.702   4.621   4.816 -0.6172  1.0458 -0.3044
  322MOL0     C42390  -0.798   4.562   4.732 -0.8980  0.3418 -0.1545
  322MOL0     C42391  -0.914   4.558   4.802 -0.0330  0.0005  1.0735
  322MOL0     C42392  -1.045   4.486   4.779 -0.0683  0.5257 -0.2745
  322MOL0     C42393  -1.187   4.569   4.772 -0.1162 -0.1120 -0.1261
  322MOL0     C42394  -1.275   4.544   4.898  0.9103  0.7155 -0.6233
  322MOL0     C42395  -1.419   4.590   4.900  0.5806  0.5915  0.5145
  322MOL0     O42396  -1.487   4.484   4.809 -0.0934 -0.1442  0.0770
  322MOL0     C42397  -1.623   4.496   4.788  1.0675  0.7685 -1.0557
  322MOL0     C42398  -1.694   4.400   4.716  0.3497 -0.8927 -0.4641
  322MOL0     C42399  -1.832   4.402   4.716  0.3708  0.6445 -0.6261
  322MOL0     C42400  -1.905   4.498   4.789  0.1586 -0.1952 -0.0912
  322MOL0     C42401  -2.054   4.485   4.802  0.2510  0.1141 -0.9828
  322MOL0     O42402  -2.108   4.410   4.706 -0.1656  0.4044  0.0241
  322MOL0     C42403  -2.233   4.362   4.718  0.5218 -0.6306 -0.9847
  322MOL0     C42404  -2.340   4.429   4.653  0.7648 -0.4826  0.0947
  322MOL0     C42405  -2.473   4.388   4.667 -0.3068 -0.3014 -1.1030
  322MOL0     C42406  -2.503   4.276   4.748 -0.3464 -0.8108 -0.5372
  322MOL0     O42407  -2.628   4.232   4.763  0.3989  0.0866 -0.3535
  322MOL0     C42408  -2.729   4.260   4.666 -0.1109  0.4877  0.2660
  322MOL0     C42409  -2.870   4.236   4.735 -0.6175  0.2624  0.8853
  322MOL0     C42410  -2.977   4.298   4.651 -1.2932  0.5546  0.0229
  322MOL0     C42411  -3.121   4.275   4.698  0.4417  0.9387  0.2435
  322MOL0     C42412  -3.216   4.342   4.595 -0.0224 -0.8169 -0.3426
  322MOL0     C42413  -3.367   4.330   4.637  0.3987  0.0360 -0.2181
  322MOL0     C42414  -3.455   4.388   4.528  0.7315 -0.4732  0.5957
  322MOL0     C42415  -3.594   4.395   4.578 -0.3562 -0.1391  0.1361
  322MOL0    Cl42416  -3.708   4.481   4.472  0.1887 -0.1465  0.3727
  322MOL0     C42417  -2.397   4.206   4.809  0.8450 -0.0326  0.7600
  322MOL0     C42418  -2.264   4.249   4.795  0.7872 -1.5784  0.0960
  322MOL0     O42419  -2.109   4.539   4.901 -0.3238 -0.3846  0.8456
  322MOL0     C42420  -1.841   4.605   4.854  0.2721  0.3624  0.3800
  322MOL0     C42421  -1.699   4.604   4.845  0.1869 -0.2225  0.3228
  322MOL0     N42422  -0.893   4.632   4.920  0.9684 -0.3102 -0.2262
  322MOL0     N42423  -0.769   4.670   4.928  0.8394 -0.1193  0.0721
  322MOL0     C42424   0.596   4.778   4.689 -0.1168 -0.7315 -0.2946
  322MOL0     C42425   0.734   4.764   4.709  0.6418 -1.0238 -0.6533
  322MOL0     C42426   1.112   4.474   4.720 -1.0485  0.0136  0.6378
  322MOL0     C42427   1.161   4.356   4.679  0.1258 -0.1502  0.0995
  322MOL0     C42428   1.293   4.326   4.669  1.2850  0.6690  0.2212
  322MOL0     C42429   1.387   4.421   4.706  0.0125 -0.0722 -0.8178
  322MOL0     O42430   1.522   4.399   4.702  0.4815 -0.4884 -0.0973
  322MOL0     C42431   1.613   4.486   4.763  0.0105  0.5361 -0.1730
  322MOL0     C42432   1.748   4.505   4.699 -0.0144  0.8266  0.6048
  322MOL0     C42433   1.823   4.373   4.677  0.5791 -0.0286  0.9786
  322MOL0     C42434   1.970   4.382   4.635 -0.1633  0.2845  0.2851
  322MOL0     C42435   1.978   4.394   4.486 -0.7215 -0.7618 -1.2158
  322MOL0     C42436   1.985   4.404   4.365 -0.1595  0.0219  0.4670
  322MOL0     C42437   1.331   4.553   4.733 -0.0538  0.4945 -0.1440
  322MOL0     C42438   1.198   4.579   4.745  0.4315  0.9221  0.7108
  322MOL0     H42439   0.714   4.439   4.811 -0.8856 -2.3167 -2.8765
  322MOL0     H42440   0.473   4.488   4.795  1.1488  0.0900  3.5934
  322MOL0     H42441   0.278   4.632   4.859  0.5647 -0.0919  0.7879
  322MOL0     H42442   0.285   4.535   4.724 -0.6384  0.1695  1.6884
  322MOL0     H42443   0.117   4.704   4.612  1.1682  0.1164  0.6445
  322MOL0     H42444   0.115   4.798   4.761 -0.0054  0.0822  0.8198
  322MOL0     H42445   0.031   4.616   4.892  1.6936  2.0231  0.1336
  322MOL0     H42446   0.016   4.518   4.738  0.5870  1.0479 -0.9480
  322MOL0     H42447  -0.109   4.797   4.798  0.4084  0.7818 -3.1497
  322MOL0     H42448  -0.142   4.712   4.660  0.3470 -0.7353  0.1336
  322MOL0     H42449  -0.216   4.609   4.949 -0.8230  2.4142  0.0853
  322MOL0     H42450  -0.293   4.552   4.789 -1.2471 -2.5737  2.0343
  322MOL0     H42451  -0.351   4.791   4.759 -1.3870 -2.5984 -0.0166
  322MOL0     H42452  -0.294   4.827   4.925 -2.2247 -0.4128  1.1049
  322MOL0     H42453  -0.474   4.645   4.984  0.4887 -1.3829 -0.2983
  322MOL0     H42454  -0.520   4.808   4.937  1.4010  1.5089 -2.5234
  322MOL0     H42455  -0.517   4.532   4.792 -1.0185  1.0088  1.6355
  322MOL0     H42456  -0.521   4.679   4.701  1.2297  2.3797  1.5659
  322MOL0     H42457  -0.788   4.520   4.632  0.2118 -1.0757  0.4979
  322MOL0     H42458  -1.050   4.405   4.853 -0.4848  1.2238  0.4804
  322MOL0     H42459  -1.017   4.436   4.686 -1.1585  0.5303 -0.6289
  322MOL0     H42460  -1.244   4.533   4.685  0.7424 -2.9540  0.3898
  322MOL0     H42461  -1.170   4.676   4.757 -1.8898  0.1904 -0.1713
  322MOL0     H42462  -1.275   4.435   4.908 -1.4465  0.7149  0.0347
  322MOL0     H42463  -1.216   4.579   4.983  1.8919  0.2876 -1.1142
  322MOL0     H42464  -1.436   4.682   4.843 -2.5251 -0.9573 -1.3411
  322MOL0     H42465  -1.458   4.586   5.002 -0.3915  1.7028  0.2083
  322MOL0     H42466  -1.634   4.327   4.663  0.1213 -2.9431  1.9283
  322MOL0     H42467  -1.885   4.319   4.673  1.1182 -0.1410 -0.0679
  322MOL0     H42468  -2.321   4.516   4.590  2.6457 -1.2419 -0.4648
  322MOL0     H42469  -2.543   4.449   4.613 -0.0992 -0.0232 -1.0603
  322MOL0     H42470  -2.721   4.185   4.587  3.4845  1.0095 -0.0059
  322MOL0     H42471  -2.716   4.362   4.628 -1.4200  0.5130 -0.1541
  322MOL0     H42472  -2.871   4.282   4.834 -1.5969  1.7288  0.2237
  322MOL0     H42473  -2.887   4.128   4.735 -1.5959  0.1939 -3.8934
  322MOL0     H42474  -2.971   4.245   4.556  0.4939  0.6898  0.0413
  322MOL0     H42475  -2.956   4.405   4.638  3.1179  0.1190  1.9774
  322MOL0     H42476  -3.149   4.169   4.706  1.7136  0.2466 -2.8183
  322MOL0     H42477  -3.132   4.312   4.800  2.1446 -1.8631  1.5649
  322MOL0     H42478  -3.189   4.314   4.493  3.0167 -1.2097  0.4762
  322MOL0     H42479  -3.196   4.449   4.602 -1.3856 -0.6603  2.0669
  322MOL0     H42480  -3.367   4.376   4.737  0.7463  0.8961 -0.6046
  322MOL0     H42481  -3.395   4.226   4.654  4.3399 -1.3337 -1.1030
  322MOL0     H42482  -3.416   4.489   4.512 -1.6109  0.1153 -2.5268
  322MOL0     H42483  -3.439   4.321   4.443 -0.9713 -2.2459  1.6066
  322MOL0     H42484  -3.585   4.449   4.672  1.1480  0.6896 -0.4412
  322MOL0     H42485  -3.626   4.291   4.594  3.5341 -1.5080  0.1520
  322MOL0     H42486  -2.420   4.116   4.864  1.2431 -0.2910  0.5034
  322MOL0     H42487  -2.182   4.210   4.854  2.0060  0.4551 -0.1576
  322MOL0     H42488  -1.879   4.688   4.913  0.0409  0.3907  0.1897
  322MOL0     H42489  -1.647   4.681   4.901  0.6731  0.2522 -0.7735
  322MOL0     H42490   0.553   4.870   4.652 -0.6016 -0.5601  0.6648
  322MOL0     H42491   0.803   4.843   4.679  0.2097 -0.6465 -0.6499
  322MOL0     H42492   1.093   4.274   4.658  1.3767 -1.1362 -0.2468
  322MOL0     H42493   1.325   4.230   4.629  3.9781  1.8991 -0.7905
  322MOL0     H42494   1.635   4.445   4.862 -1.9702  0.3118  0.2035
  322MOL0     H42495   1.577   4.589   4.759  0.8606  0.8624  0.1684
  322MOL0     H42496   1.740   4.560   4.605 -1.4474 -3.0084 -1.7618
  322MOL0     H42497   1.809   4.571   4.761 -1.7100  0.7758  2.4096
  322MOL0     H42498   1.767   4.320   4.600 -0.8342 -1.2179  2.7421
  322MOL0     H42499   1.826   4.317   4.771  1.7298  0.7026  1.3994
  322MOL0     H42500   2.021   4.468   4.680 -0.6132  0.5019  0.3832
  322MOL0     H42501   2.010   4.288   4.674 -0.4347  1.6071  4.1252
  322MOL0     H42502   1.972   4.439   4.265  0.9265 -0.5514  0.1005
  322MOL0     H42503   1.388   4.644   4.746  1.1658 -0.3472  0.6151
  322MOL0     H42504   1.152   4.675   4.762 -1.8916 -0.4868  3.3252
  323MOL0     O42505   9.043   8.367   4.808 -0.1312  0.1603  0.2319
  323MOL0     C42506   9.112   8.279   4.846 -0.3186  0.3347 -0.1422
  323MOL0     O42507   9.062   8.182   4.927 -0.3991  0.1587 -0.2485
  323MOL0     C42508   8.934   8.186   4.974  0.4788  0.3633  0.0709
  323MOL0     C42509   8.912   8.253   5.099  0.0175  0.1303  0.2823
  323MOL0     C42510   8.782   8.283   5.136 -0.6469  0.5075  0.0329
  323MOL0     C42511   8.670   8.238   5.064 -0.5793 -0.1173 -0.0409
  323MOL0     O42512   8.550   8.295   5.095 -0.0667 -0.0075  0.5839
  323MOL0     C42513   8.431   8.252   5.030  0.2457  0.6522 -0.7355
  323MOL0     C42514   8.325   8.359   5.049 -0.0661 -0.2859  0.2537
  323MOL0     C42515   8.287   8.369   5.197  0.6127 -0.5564  0.4461
  323MOL0     C42516   8.149   8.431   5.215 -0.3905  0.5786  0.2309
  323MOL0     C42517   8.110   8.428   5.359  0.0400  0.0447  0.0567
  323MOL0     C42518   7.995   8.522   5.381  0.3154 -0.3254 -0.6154
  323MOL0     C42519   7.970   8.559   5.527  0.4020  0.6964 -0.4929
  323MOL0     C42520   7.845   8.495   5.584 -0.0629  0.1425 -0.1025
  323MOL0     N42521   7.718   8.543   5.529  0.4534  0.3610  0.7641
  323MOL0     C42522   7.672   8.670   5.538  0.9944  0.3089  0.3135
  323MOL0     C42523   7.561   8.678   5.462  0.1360  1.0661  1.0891
  323MOL0     C42524   7.467   8.787   5.429  0.2066  0.8062 -0.2060
  323MOL0     C42525   7.317   8.753   5.423 -0.6504  0.7047  0.4179
  323MOL0     C42526   7.266   8.721   5.567  0.2689 -0.2195  0.4223
  323MOL0     C42527   7.120   8.661   5.551  0.0906 -0.2870  0.3401
  323MOL0     O42528   7.045   8.661   5.675 -0.0700  0.8338 -0.3847
  323MOL0     C42529   6.916   8.643   5.678  0.1766  0.2987  0.0687
  323MOL0     C42530   6.855   8.686   5.797 -0.1766  0.3625 -0.2725
  323MOL0     C42531   6.718   8.680   5.816  0.1955 -0.6752 -0.8634
  323MOL0     C42532   6.635   8.643   5.709 -0.4434 -0.0208 -0.2734
  323MOL0     C42533   6.486   8.641   5.712  0.0939 -0.3986  0.2137
  323MOL0     O42534   6.424   8.673   5.595  0.4481  0.0826 -0.3125
  323MOL0     C42535   6.284   8.665   5.602 -0.3154  1.0960  0.4674
  323MOL0     C42536   6.227   8.546   5.624  0.4998  0.4194  0.3591
  323MOL0     C42537   6.079   8.545   5.635 -0.7102 -0.0525  0.2234
  323MOL0     C42538   6.015   8.661   5.589 -0.1598 -0.3734  0.2783
  323MOL0     O42539   5.876   8.680   5.579 -0.7030  0.9527 -0.3030
  323MOL0     C42540   5.787   8.563   5.593  0.3307  0.1037 -0.4572
  323MOL0     C42541   5.646   8.606   5.556 -1.0079  0.1837 -0.3586
  323MOL0     C42542   5.547   8.483   5.548 -0.1575 -0.0003 -0.7919
  323MOL0     C42543   5.439   8.528   5.452 -0.4720 -0.1236  1.0825
  323MOL0     C42544   5.338   8.412   5.419 -0.4999 -0.2297 -0.2732
  323MOL0     C42545   5.217   8.474   5.360 -0.8080 -1.1078 -0.2212
  323MOL0     C42546   5.098   8.380   5.346  0.6769 -0.0731  0.5187
  323MOL0     C42547   4.987   8.458   5.297  0.4184 -0.6726  0.1872
  323MOL0    Cl42548   5.026   8.493   5.120 -0.4007 -0.0525 -0.0929
  323MOL0     C42549   6.075   8.779   5.557 -1.0548  0.1582  0.6505
  323MOL0     C42550   6.215   8.775   5.568 -0.4117 -0.7738  0.6223
  323MOL0     O42551   6.438   8.646   5.819 -0.3464  0.4753 -0.2895
  323MOL0     C42552   6.697   8.622   5.583  0.2503  0.6346  0.2516
  323MOL0     C42553   6.832   8.605   5.571 -0.6236  0.5731 -0.7081
  323MOL0     N42554   7.558   8.557   5.391 -0.6303 -0.3839  0.5237
  323MOL0     N42555   7.644   8.482   5.437  0.2352  0.3230 -0.2345
  323MOL0     C42556   8.700   8.174   4.939  0.6653 -0.1556 -0.6407
  323MOL0     C42557   8.828   8.129   4.892 -0.5029 -0.2680 -0.2313
  323MOL0     C42558   9.248   8.254   4.789 -0.3334 -0.5402  0.7422
  323MOL0     C42559   9.305   8.129   4.797 -0.5462  1.3176  0.4546
  323MOL0     C42560   9.440   8.125   4.749  0.2812 -0.6478 -0.2617
  323MOL0     C42561   9.495   8.228   4.663 -0.0868 -0.0491  0.3387
  323MOL0     O42562   9.626   8.231   4.607  0.2473 -0.1219 -0.0063
  323MOL0     C42563   9.719   8.124   4.639  0.1781 -0.1526 -0.6237
  323MOL0     C42564   9.823   8.124   4.537  0.0664 -0.5151 -0.5075
  323MOL0     C42565   9.957   8.128   4.608 -0.2848 -0.2604  0.1629
  323MOL0     C42566  10.008   8.266   4.634 -0.3222 -0.7645  0.6306
  323MOL0     C42567  10.128   8.259   4.710  0.0263  0.6480 -0.1599
  323MOL0     C42568  10.237   8.254   4.772 -0.4600 -0.4103 -0.0694
  323MOL0     C42569   9.419   8.340   4.640  0.1799 -0.3858 -0.3099
  323MOL0     C42570   9.297   8.354   4.703  0.0642  0.0203 -0.6094
  323MOL0     H42571   8.995   8.302   5.150  2.7070 -1.7873 -1.9673
  323MOL0     H42572   8.775   8.344   5.225 -0.9310  0.5183  0.0035
  323MOL0     H42573   8.400   8.160   5.079 -1.8213  0.8068 -1.6269
  323MOL0     H42574   8.435   8.223   4.924 -2.1622 -0.1311 -0.6815
  323MOL0     H42575   8.237   8.328   4.992 -1.2991  1.3985  1.1380
  323MOL0     H42576   8.343   8.458   5.008 -0.6233 -0.0621  0.5387
  323MOL0     H42577   8.356   8.437   5.248  2.1926 -0.2277 -2.0010
  323MOL0     H42578   8.293   8.273   5.251 -2.1817 -2.1738 -1.8211
  323MOL0     H42579   8.146   8.537   5.189  0.1388  0.9947  1.6959
  323MOL0     H42580   8.070   8.385   5.156  0.1763  0.6252 -0.5766
  323MOL0     H42581   8.194   8.431   5.429  0.9262 -2.3171 -0.7695
  323MOL0     H42582   8.084   8.323   5.378  0.4128 -0.1026 -0.2177
  323MOL0     H42583   7.904   8.482   5.335 -0.6256 -1.1814  1.8336
  323MOL0     H42584   8.023   8.615   5.329 -0.3158  0.6393  0.7255
  323MOL0     H42585   8.052   8.525   5.591 -1.7832 -0.4349  1.9337
  323MOL0     H42586   7.962   8.668   5.524  1.1758  0.7604 -0.3383
  323MOL0     H42587   7.841   8.523   5.690 -0.0303  1.5909 -0.4585
  323MOL0     H42588   7.859   8.387   5.579  3.0918  0.2466  2.6630
  323MOL0     H42589   7.720   8.742   5.605 -0.1401  0.9361  0.4864
  323MOL0     H42590   7.485   8.826   5.328 -0.6991  0.0637 -0.6686
  323MOL0     H42591   7.480   8.876   5.492 -0.0419  0.7864 -0.1287
  323MOL0     H42592   7.315   8.667   5.356  4.1908 -2.5523  3.7271
  323MOL0     H42593   7.267   8.844   5.388 -0.7060 -0.1360 -1.8241
  323MOL0     H42594   7.344   8.664   5.619  1.9841  1.6658  0.0618
  323MOL0     H42595   7.261   8.821   5.610 -0.4882 -0.2826  0.4864
  323MOL0     H42596   7.131   8.560   5.510 -0.0834  0.6922 -2.3287
  323MOL0     H42597   7.058   8.717   5.480  0.9288  1.2365  0.7652
  323MOL0     H42598   6.915   8.726   5.878  0.8335  0.1046 -0.8830
  323MOL0     H42599   6.668   8.706   5.909 -0.6288  1.7338 -1.8976
  323MOL0     H42600   6.285   8.458   5.648  0.4765  0.7608  1.7659
  323MOL0     H42601   6.024   8.458   5.671 -2.4246  1.0787  0.4297
  323MOL0     H42602   5.786   8.527   5.696  1.0661 -3.9206 -1.6694
  323MOL0     H42603   5.810   8.475   5.531 -2.9030  0.6308 -2.6569
  323MOL0     H42604   5.650   8.651   5.457 -1.3544 -1.4071 -1.1276
  323MOL0     H42605   5.620   8.683   5.630 -1.1947 -0.1730 -0.0465
  323MOL0     H42606   5.515   8.456   5.649 -2.1706  1.4477 -0.9703
  323MOL0     H42607   5.607   8.405   5.500 -0.1202  0.4425 -1.4839
  323MOL0     H42608   5.392   8.617   5.495 -0.2430  0.0560  0.9641
  323MOL0     H42609   5.499   8.551   5.363 -2.6045 -0.6217 -0.5634
  323MOL0     H42610   5.313   8.365   5.515  1.0422  0.9036  0.7530
  323MOL0     H42611   5.377   8.337   5.350  0.3394  1.4310 -1.6651
  323MOL0     H42612   5.237   8.518   5.262  2.8128  0.7831  1.1670
  323MOL0     H42613   5.178   8.552   5.426 -2.7554 -2.0822 -0.1668
  323MOL0     H42614   5.117   8.300   5.275  1.3695 -0.1827  0.8254
  323MOL0     H42615   5.084   8.325   5.439  1.0064 -0.3609  0.3992
  323MOL0     H42616   4.971   8.547   5.359  3.4704  0.1431 -0.0283
  323MOL0     H42617   4.895   8.401   5.311  0.0044  0.1969  1.1933
  323MOL0     H42618   6.023   8.868   5.521 -0.3319 -0.9674 -3.7038
  323MOL0     H42619   6.272   8.864   5.546  0.8237 -1.9024 -1.0067
  323MOL0     H42620   6.634   8.588   5.500 -3.8629 -0.2644  3.3852
  323MOL0     H42621   6.855   8.557   5.477  2.6480 -1.5938  0.9871
  323MOL0     H42622   8.612   8.139   4.886 -0.6629  0.5991  0.9614
  323MOL0     H42623   8.849   8.067   4.806 -0.3451 -0.1931 -0.2484
  323MOL0     H42624   9.258   8.050   4.854 -2.4265  0.6045 -1.9162
  323MOL0     H42625   9.498   8.035   4.767 -1.1064 -1.8358 -1.4210
  323MOL0     H42626   9.671   8.025   4.637  1.1675 -0.6739  0.5825
  323MOL0     H42627   9.755   8.143   4.740 -0.9164  0.7854 -0.3837
  323MOL0     H42628   9.826   8.054   4.453  1.8793 -0.8705 -0.1796
  323MOL0     H42629   9.809   8.219   4.484 -4.7215  0.2506  1.5719
  323MOL0     H42630  10.032   8.077   4.547  1.0423  0.5431  1.0821
  323MOL0     H42631   9.944   8.076   4.703 -3.2673 -1.0465 -0.5724
  323MOL0     H42632  10.022   8.312   4.536 -0.8387 -1.6261  0.1471
  323MOL0     H42633   9.937   8.336   4.679  2.5046  1.4998  1.9752
  323MOL0     H42634  10.327   8.249   4.829 -0.0455  0.7313 -0.6058
  323MOL0     H42635   9.440   8.420   4.570  1.9538 -1.6301 -1.2625
  323MOL0     H42636   9.238   8.443   4.684 -3.7152 -1.3484  3.1976
  324MOL0     O42637   1.093   3.049   4.516 -0.2982  0.3002 -0.1500
  324MOL0     C42638   1.138   3.038   4.402  1.0983  0.7496  0.6039
  324MOL0     O42639   1.062   3.049   4.287 -0.1778 -0.5510  0.5233
  324MOL0     C42640   0.930   3.060   4.291 -0.0836 -0.0078  0.3290
  324MOL0     C42641   0.846   2.951   4.261 -0.7124  0.9190 -0.2292
  324MOL0     C42642   0.710   2.954   4.284 -0.6336 -0.9465 -0.2792
  324MOL0     C42643   0.642   3.070   4.309 -0.4985  0.1446 -0.3429
  324MOL0     O42644   0.507   3.068   4.316 -0.2580  0.2765 -0.1230
  324MOL0     C42645   0.451   3.137   4.434 -0.4814  0.1797 -0.1433
  324MOL0     C42646   0.316   3.095   4.458 -0.1513 -0.3671 -0.6461
  324MOL0     C42647   0.254   3.158   4.593  0.0563  0.9205  0.0336
  324MOL0     C42648   0.133   3.076   4.631  0.3632 -0.2281 -0.3571
  324MOL0     C42649   0.068   3.134   4.759  0.4054  0.7099  0.1387
  324MOL0     C42650  -0.068   3.061   4.775  0.5187 -0.5569 -0.9163
  324MOL0     C42651  -0.142   3.108   4.910  0.7440  0.6216  0.6737
  324MOL0     C42652  -0.225   3.236   4.903 -0.0078 -0.5816  1.2373
  324MOL0     N42653  -0.331   3.234   4.814  0.3904 -0.8141 -0.1115
  324MOL0     C42654  -0.389   3.348   4.763  0.0601 -0.6100  0.2824
  324MOL0     C42655  -0.504   3.314   4.702 -0.1980  0.5322 -0.4067
  324MOL0     C42656  -0.607   3.399   4.635 -0.4798 -1.0038  0.3208
  324MOL0     C42657  -0.744   3.372   4.689  0.1341 -0.4086 -0.5181
  324MOL0     C42658  -0.828   3.483   4.636  0.7191 -0.6588  0.7619
  324MOL0     C42659  -0.977   3.429   4.643  0.2967  0.0886  0.3685
  324MOL0     O42660  -1.068   3.539   4.618 -0.0326  0.4413 -0.3392
  324MOL0     C42661  -1.203   3.511   4.610  0.4953  0.4402  0.1748
  324MOL0     C42662  -1.283   3.633   4.601 -1.0897  0.2170  0.2295
  324MOL0     C42663  -1.422   3.617   4.598 -0.6048 -0.9379 -0.5153
  324MOL0     C42664  -1.493   3.499   4.614  0.3178  0.1607  0.8144
  324MOL0     C42665  -1.640   3.499   4.613 -0.0006 -0.7881  0.0128
  324MOL0     O42666  -1.705   3.385   4.574 -0.5119  0.3850 -0.2007
  324MOL0     C42667  -1.838   3.384   4.573  0.5711  0.4407  0.9756
  324MOL0     C42668  -1.917   3.327   4.678  0.0659  0.0366 -0.2202
  324MOL0     C42669  -2.055   3.311   4.663 -0.1718  1.1589  0.2982
  324MOL0     C42670  -2.127   3.368   4.565 -0.5442  0.0384 -0.2464
  324MOL0     O42671  -2.264   3.381   4.561  0.5429 -0.1356  0.5171
  324MOL0     C42672  -2.327   3.263   4.512  0.3459  0.1980  0.2479
  324MOL0     C42673  -2.459   3.313   4.449 -1.4693  0.0790  0.5262
  324MOL0     C42674  -2.563   3.360   4.554  1.0269  0.6684  0.7657
  324MOL0     C42675  -2.710   3.359   4.493  0.0718  0.1202 -0.4546
  324MOL0     C42676  -2.817   3.442   4.576  0.1461  0.1160  0.0492
  324MOL0     C42677  -2.951   3.394   4.519 -1.0346 -0.3827  1.2675
  324MOL0     C42678  -2.982   3.430   4.371  0.7634 -0.2126 -1.2435
  324MOL0     C42679  -2.974   3.585   4.348  0.5148 -0.0257  0.5691
  324MOL0    Cl42680  -3.022   3.640   4.175  0.4166  0.2916  0.1512
  324MOL0     C42681  -2.055   3.436   4.469 -0.8412  0.7761  0.4193
  324MOL0     C42682  -1.913   3.438   4.461  0.0004 -0.7288  0.2710
  324MOL0     O42683  -1.697   3.599   4.647  0.2333  0.1615  0.0935
  324MOL0     C42684  -1.414   3.379   4.623  0.0657 -0.4701  0.9739
  324MOL0     C42685  -1.272   3.392   4.623  0.1942  0.8085 -0.4823
  324MOL0     N42686  -0.506   3.176   4.703  0.6010  0.0771  0.2894
  324MOL0     N42687  -0.400   3.131   4.765 -0.7461 -0.9846  0.5354
  324MOL0     C42688   0.725   3.186   4.332  0.3431  0.0859 -0.2415
  324MOL0     C42689   0.868   3.182   4.321 -0.3113  0.1482 -1.0532
  324MOL0     C42690   1.284   3.002   4.381 -1.1383  1.2820  0.0879
  324MOL0     C42691   1.342   3.012   4.253  0.0014  0.2322 -1.4508
  324MOL0     C42692   1.477   2.978   4.235  0.1906 -0.4668  0.6517
  324MOL0     C42693   1.552   2.929   4.344 -0.3917 -0.6980  0.6597
  324MOL0     O42694   1.678   2.894   4.322 -0.4350  0.3677 -0.2181
  324MOL0     C42695   1.730   2.805   4.420 -0.7803 -0.2031 -0.1409
  324MOL0     C42696   1.829   2.879   4.517  1.2379  0.4355  0.4759
  324MOL0     C42697   1.926   2.774   4.569  0.5457  0.3598  0.9739
  324MOL0     C42698   1.998   2.804   4.694  0.8496  0.5243  0.3383
  324MOL0     C42699   2.113   2.901   4.660 -0.0448  0.3510  0.1787
  324MOL0     C42700   2.202   2.980   4.637  0.1931  0.6020  0.4270
  324MOL0     C42701   1.496   2.935   4.474 -0.5670 -0.9337  1.1707
  324MOL0     C42702   1.358   2.967   4.493 -0.7134 -0.5280 -0.0326
  324MOL0     H42703   0.899   2.861   4.232  0.1356  1.2033  0.4158
  324MOL0     H42704   0.655   2.862   4.270  2.0879 -3.1029  2.0181
  324MOL0     H42705   0.458   3.242   4.405 -1.0548  0.4636  0.7198
  324MOL0     H42706   0.514   3.116   4.521 -0.3185  1.0287 -0.0507
  324MOL0     H42707   0.326   2.988   4.477 -4.9693 -0.6207  2.1637
  324MOL0     H42708   0.257   3.113   4.368  0.7272 -3.3112 -1.9301
  324MOL0     H42709   0.229   3.263   4.573  1.0537  1.0639 -0.5175
  324MOL0     H42710   0.330   3.162   4.672 -0.3267 -1.0709  0.5483
  324MOL0     H42711   0.071   3.101   4.544  1.6694  3.2778 -0.4190
  324MOL0     H42712   0.159   2.970   4.636  0.7224 -0.0961  0.8608
  324MOL0     H42713   0.048   3.240   4.746 -0.6227  0.2502 -2.9957
  324MOL0     H42714   0.129   3.122   4.849 -0.9566  1.5631  1.2080
  324MOL0     H42715  -0.064   2.953   4.759 -1.1429 -1.4283  3.2247
  324MOL0     H42716  -0.134   3.088   4.692 -1.6130 -2.1896  0.1321
  324MOL0     H42717  -0.214   3.032   4.941  1.7076 -0.8525 -0.5485
  324MOL0     H42718  -0.060   3.120   4.982 -0.6314 -0.2489  2.4614
  324MOL0     H42719  -0.164   3.326   4.889 -1.0155 -0.1035 -0.3825
  324MOL0     H42720  -0.284   3.245   4.995 -1.2782 -1.0233  0.4969
  324MOL0     H42721  -0.349   3.449   4.762  5.2700 -2.3706 -1.2507
  324MOL0     H42722  -0.607   3.374   4.528 -0.7784  0.9044 -0.1715
  324MOL0     H42723  -0.566   3.500   4.640  1.1073 -1.5446 -0.8549
  324MOL0     H42724  -0.752   3.387   4.797 -4.2847 -1.6768 -0.4609
  324MOL0     H42725  -0.779   3.269   4.672  1.3655 -0.7999 -0.7269
  324MOL0     H42726  -0.821   3.576   4.694 -2.8818  2.0810 -2.6220
  324MOL0     H42727  -0.801   3.511   4.533 -1.6054 -0.1964  0.2228
  324MOL0     H42728  -0.996   3.391   4.744 -1.3151 -2.3332 -0.7624
  324MOL0     H42729  -0.988   3.348   4.571  0.8511  0.2968  0.0461
  324MOL0     H42730  -1.223   3.723   4.602 -1.7423  0.6595  1.2622
  324MOL0     H42731  -1.478   3.710   4.589  1.7429  0.8395  1.8556
  324MOL0     H42732  -1.867   3.309   4.773  0.4596 -0.4465 -0.5127
  324MOL0     H42733  -2.115   3.260   4.738  0.3466  0.1844  0.0623
  324MOL0     H42734  -2.343   3.191   4.593 -0.2952 -1.0357 -0.9341
  324MOL0     H42735  -2.273   3.215   4.430  2.3619  0.1285  1.5589
  324MOL0     H42736  -2.495   3.229   4.389  1.4073 -0.6351 -0.3963
  324MOL0     H42737  -2.437   3.397   4.382  1.5697 -1.2798 -0.3827
  324MOL0     H42738  -2.543   3.465   4.576  4.8088  0.5364 -1.3192
  324MOL0     H42739  -2.552   3.291   4.639  1.9228 -0.8333 -0.5233
  324MOL0     H42740  -2.698   3.390   4.388  0.3736  2.3301  0.1765
  324MOL0     H42741  -2.739   3.255   4.476  0.1168 -0.0293  0.3706
  324MOL0     H42742  -2.792   3.548   4.570 -1.1114  0.3706 -1.2096
  324MOL0     H42743  -2.813   3.426   4.684 -0.9259  3.8164  0.7682
  324MOL0     H42744  -3.026   3.452   4.573  0.9455  3.2183  0.4602
  324MOL0     H42745  -2.961   3.288   4.544 -2.0356 -0.6363 -0.0977
  324MOL0     H42746  -2.907   3.394   4.300  0.2013 -1.9713 -0.9938
  324MOL0     H42747  -3.079   3.392   4.336  1.6452 -1.7293 -2.1704
  324MOL0     H42748  -2.873   3.621   4.369  1.0978 -1.3625  0.1491
  324MOL0     H42749  -3.037   3.641   4.418  1.6316  1.7113  0.2374
  324MOL0     H42750  -2.105   3.478   4.382  0.0270  1.9460  0.4675
  324MOL0     H42751  -1.845   3.497   4.401  1.6397  0.0329  2.6830
  324MOL0     H42752  -1.466   3.283   4.625 -0.2368 -0.3380 -0.0920
  324MOL0     H42753  -1.230   3.293   4.630  0.5547  1.0219  0.4310
  324MOL0     H42754   0.688   3.288   4.339  0.2406  0.1047 -1.0490
  324MOL0     H42755   0.931   3.268   4.344 -0.2754  0.4182 -2.1218
  324MOL0     H42756   1.276   3.059   4.180 -0.5716 -1.2396 -1.9075
  324MOL0     H42757   1.525   2.977   4.137  0.9245  2.2776  0.9067
  324MOL0     H42758   1.801   2.739   4.370  2.6031  0.1578  3.6631
  324MOL0     H42759   1.657   2.739   4.467 -0.7964  1.4606  2.3469
  324MOL0     H42760   1.882   2.962   4.470  1.4247 -1.0417 -2.1327
  324MOL0     H42761   1.775   2.913   4.605  2.7195 -0.7953  1.9253
  324MOL0     H42762   1.992   2.754   4.485 -0.5386 -0.8985  0.4009
  324MOL0     H42763   1.879   2.679   4.595 -0.1007  1.3711  3.9919
  324MOL0     H42764   1.929   2.844   4.768 -1.7284  0.7703 -2.0196
  324MOL0     H42765   2.062   2.721   4.726  1.8126  1.7614  1.7249
  324MOL0     H42766   2.280   3.051   4.619  0.2701  0.3655 -0.1918
  324MOL0     H42767   1.550   2.918   4.566 -0.0530 -1.7853  0.7274
  324MOL0     H42768   1.320   2.943   4.592 -2.1205  1.2435 -0.0922
  325MOL0     O42769   6.487   8.274   7.351 -0.4391  0.1072 -0.8381
  325MOL0     C42770   6.565   8.294   7.262  0.4944  0.4429 -0.5753
  325MOL0     O42771   6.549   8.382   7.158 -0.4563 -0.4983  0.2225
  325MOL0     C42772   6.444   8.463   7.166 -0.3829  0.1878 -1.2888
  325MOL0     C42773   6.304   8.417   7.151  0.1429 -0.1086  0.2020
  325MOL0     C42774   6.206   8.512   7.138  0.0618 -1.0256 -1.0393
  325MOL0     C42775   6.229   8.649   7.169 -0.0711  0.1092 -0.7574
  325MOL0     O42776   6.124   8.743   7.171  0.5808 -0.1774  0.2217
  325MOL0     C42777   5.980   8.706   7.167 -1.2929  1.3097 -0.6906
  325MOL0     C42778   5.925   8.849   7.156  0.8922  0.8141 -0.6164
  325MOL0     C42779   5.772   8.835   7.181  0.3724  0.4523 -0.3427
  325MOL0     C42780   5.716   8.975   7.170 -0.9332 -0.5269 -0.5857
  325MOL0     C42781   5.571   8.973   7.181  0.4045  0.2783 -0.2665
  325MOL0     C42782   5.526   9.099   7.249  0.9594 -1.0806  0.2493
  325MOL0     C42783   5.385   9.124   7.197  0.4400  1.5103  0.7003
  325MOL0     C42784   5.314   9.231   7.279  1.4799 -0.9609  0.2200
  325MOL0     N42785   5.316   9.368   7.222 -0.3242 -0.2556  0.9288
  325MOL0     C42786   5.436   9.440   7.232  0.4594 -0.0441 -0.4280
  325MOL0     C42787   5.412   9.552   7.158  0.0245 -0.3407  0.3944
  325MOL0     C42788   5.490   9.677   7.166  0.8288 -0.3910 -0.1788
  325MOL0     C42789   5.601   9.688   7.053  0.2802  0.4920  0.9873
  325MOL0     C42790   5.697   9.800   7.060 -0.5875 -0.3648  0.2396
  325MOL0     C42791   5.784   9.816   7.183 -0.2270  0.5199 -0.1789
  325MOL0     O42792   5.906   9.747   7.179  0.2178  0.4463 -0.5437
  325MOL0     C42793   6.014   9.779   7.255 -0.5828  0.2874 -0.8928
  325MOL0     C42794   6.141   9.737   7.230 -0.3875  0.2863  0.6577
  325MOL0     C42795   6.259   9.795   7.278  0.3549 -0.6134 -0.0069
  325MOL0     C42796   6.247   9.897   7.374  0.1263  1.0141 -0.6606
  325MOL0     C42797   6.365   9.959   7.428 -0.2020  0.1359  1.0968
  325MOL0     O42798   6.485   9.906   7.379  0.2714  0.3620 -0.3070
  325MOL0     C42799   6.608   9.950   7.434 -0.6657 -0.9465 -0.3028
  325MOL0     C42800   6.632  10.018   7.553  0.2959  0.2968  0.4990
  325MOL0     C42801   6.766  10.046   7.597  0.5373 -1.4046  0.3852
  325MOL0     C42802   6.874  10.004   7.509 -1.0891  0.1224  0.1240
  325MOL0     O42803   7.004  10.017   7.541 -1.0026  0.1534  0.0057
  325MOL0     C42804   7.036  10.085   7.661  0.2979 -0.5199 -0.1174
  325MOL0     C42805   7.031   9.978   7.770 -0.3777  0.8229  1.4511
  325MOL0     C42806   7.146   9.872   7.746  0.0836 -0.7525 -0.1466
  325MOL0     C42807   7.136   9.759   7.846  1.1153 -0.1738 -0.4059
  325MOL0     C42808   7.255   9.663   7.865 -0.1949 -0.3097  0.1612
  325MOL0     C42809   7.394   9.726   7.914  0.0144 -0.7220 -0.4155
  325MOL0     C42810   7.484   9.614   7.915 -0.2809 -0.2225  0.4070
  325MOL0     C42811   7.635   9.659   7.945  0.3877  0.2986 -0.4100
  325MOL0    Cl42812   7.726   9.508   7.986  0.0494  0.6077 -0.1837
  325MOL0     C42813   6.854   9.935   7.395 -0.3743  0.4614  0.7124
  325MOL0     C42814   6.725   9.900   7.360 -0.0254  0.2596 -1.1174
  325MOL0     O42815   6.356  10.051   7.505 -0.5350  0.1286 -0.3406
  325MOL0     C42816   6.116   9.941   7.412  1.1280 -0.4698  0.3039
  325MOL0     C42817   6.005   9.884   7.345 -0.1644  1.2268  0.2142
  325MOL0     N42818   5.290   9.539   7.087 -0.3203  0.4335  0.1526
  325MOL0     N42819   5.234   9.427   7.129  0.3182 -0.1890  0.3641
  325MOL0     C42820   6.358   8.690   7.197 -0.1529 -0.4861  0.8603
  325MOL0     C42821   6.464   8.600   7.187 -1.2538 -0.3906  0.3872
  325MOL0     C42822   6.700   8.224   7.264 -0.2760 -0.5948 -0.8104
  325MOL0     C42823   6.813   8.285   7.212 -0.0221  0.7377 -0.2343
  325MOL0     C42824   6.942   8.229   7.227  0.3658  0.1740  0.4233
  325MOL0     C42825   6.962   8.117   7.298  0.7108 -0.6195 -1.1633
  325MOL0     O42826   7.080   8.046   7.324  0.6757 -0.6632  0.5709
  325MOL0     C42827   7.201   8.066   7.248 -0.3519 -0.3076 -0.5993
  325MOL0     C42828   7.301   7.961   7.311  0.4662  0.7378  0.2840
  325MOL0     C42829   7.442   7.979   7.256  0.4493  0.6322 -1.2325
  325MOL0     C42830   7.537   7.884   7.324  0.7180  0.9607 -1.0342
  325MOL0     C42831   7.663   7.873   7.252 -0.0139 -0.5893  0.8874
  325MOL0     C42832   7.768   7.864   7.191 -0.6081  0.4285 -0.0716
  325MOL0     C42833   6.847   8.063   7.366  0.3850  0.5946 -0.0520
  325MOL0     C42834   6.721   8.113   7.340  0.1910 -0.4485  0.4144
  325MOL0     H42835   6.290   8.311   7.130  1.3334  0.1279 -2.1254
  325MOL0     H42836   6.107   8.481   7.105  0.2032 -2.1645 -0.4316
  325MOL0     H42837   5.951   8.637   7.247 -0.7520 -0.6315 -2.0910
  325MOL0     H42838   5.953   8.650   7.077 -1.9153  3.0592 -1.6335
  325MOL0     H42839   5.942   8.899   7.061  1.2512  2.6753  0.3799
  325MOL0     H42840   5.972   8.898   7.241  3.4375 -1.7219 -0.4080
  325MOL0     H42841   5.750   8.799   7.282 -5.1742 -3.6625 -2.4733
  325MOL0     H42842   5.737   8.760   7.108  0.1081  0.2592 -0.0206
  325MOL0     H42843   5.770   9.036   7.243 -0.0141 -1.2366 -0.6617
  325MOL0     H42844   5.754   8.995   7.069 -0.5711 -1.1602 -0.5772
  325MOL0     H42845   5.544   8.894   7.251  2.0762  0.3456  0.4976
  325MOL0     H42846   5.524   8.944   7.087 -0.4329  1.7023 -0.3130
  325MOL0     H42847   5.576   9.193   7.225 -2.3008 -0.0912 -3.8355
  325MOL0     H42848   5.522   9.072   7.355 -3.7295 -0.4956  0.4227
  325MOL0     H42849   5.383   9.151   7.091  2.9390 -0.6668 -0.0112
  325MOL0     H42850   5.328   9.031   7.208 -0.9343  2.4513  1.9813
  325MOL0     H42851   5.375   9.225   7.370 -0.1819 -1.1210  1.3764
  325MOL0     H42852   5.216   9.188   7.303  0.5920 -0.6821 -2.5671
  325MOL0     H42853   5.524   9.423   7.292 -0.7183  0.0310  1.4106
  325MOL0     H42854   5.531   9.691   7.266  1.3352 -0.0559 -0.4297
  325MOL0     H42855   5.419   9.760   7.166  2.5484  1.2065  2.4971
  325MOL0     H42856   5.546   9.692   6.958  2.1616 -0.0706 -0.1719
  325MOL0     H42857   5.659   9.596   7.055  0.3201  0.3429 -1.8665
  325MOL0     H42858   5.770   9.806   6.978 -1.7261 -2.6372 -1.0314
  325MOL0     H42859   5.639   9.892   7.061  0.8972  0.6697  3.2489
  325MOL0     H42860   5.735   9.790   7.277 -1.6503  2.3321 -0.3650
  325MOL0     H42861   5.794   9.925   7.189  0.3487  0.5876 -1.8495
  325MOL0     H42862   6.155   9.655   7.160 -0.2567  0.6861  0.2093
  325MOL0     H42863   6.356   9.760   7.244  1.3435  0.4865  1.5894
  325MOL0     H42864   6.549  10.042   7.620 -1.2184 -2.2159 -0.3312
  325MOL0     H42865   6.783  10.110   7.683 -1.0952 -1.6228  0.9036
  325MOL0     H42866   6.979  10.176   7.683  4.8296  2.3728  0.9542
  325MOL0     H42867   7.143  10.110   7.660 -0.0538  1.3533  1.8664
  325MOL0     H42868   6.929   9.938   7.768 -1.3930  3.2266 -0.7566
  325MOL0     H42869   7.041  10.023   7.869 -2.4677  1.6211  1.3545
  325MOL0     H42870   7.241   9.924   7.758 -0.3317 -0.4608  2.4213
  325MOL0     H42871   7.143   9.829   7.645  1.3612 -2.2910  0.4306
  325MOL0     H42872   7.102   9.794   7.944  2.0057  0.9307 -0.4631
  325MOL0     H42873   7.053   9.695   7.815  0.0677 -0.3680  2.5023
  325MOL0     H42874   7.264   9.612   7.769 -3.9933 -2.9621  0.9976
  325MOL0     H42875   7.226   9.596   7.947  1.3236  1.5489  2.3420
  325MOL0     H42876   7.379   9.768   8.014 -2.1405  1.4174 -1.5304
  325MOL0     H42877   7.426   9.803   7.843  1.5135 -1.8107 -0.9779
  325MOL0     H42878   7.454   9.542   7.992 -1.4622  0.2886  0.4406
  325MOL0     H42879   7.486   9.583   7.811  2.6459  1.5914 -0.2199
  325MOL0     H42880   7.638   9.737   8.022  0.0748 -1.5558  1.5988
  325MOL0     H42881   7.668   9.699   7.849 -0.5146  0.1557 -0.7918
  325MOL0     H42882   6.932   9.894   7.331 -3.3935 -1.5447 -1.9490
  325MOL0     H42883   6.721   9.839   7.270  0.7159 -0.4141 -0.7097
  325MOL0     H42884   6.111  10.028   7.478 -2.6860  0.9715 -1.5590
  325MOL0     H42885   5.914   9.932   7.379  0.9110  2.0597  2.0769
  325MOL0     H42886   6.363   8.794   7.228 -0.4811  0.4606 -1.9811
  325MOL0     H42887   6.567   8.636   7.194 -2.5816  4.4942 -1.1057
  325MOL0     H42888   6.806   8.378   7.156 -0.4452  0.2400 -1.0264
  325MOL0     H42889   7.033   8.274   7.187  1.6626 -0.6776  2.2747
  325MOL0     H42890   7.236   8.168   7.270  0.0744 -0.4611 -0.5654
  325MOL0     H42891   7.191   8.069   7.139  0.4907 -0.1118 -0.6758
  325MOL0     H42892   7.311   7.978   7.419  1.2434 -1.5021  0.6236
  325MOL0     H42893   7.277   7.854   7.308  2.0105  0.2705  2.2397
  325MOL0     H42894   7.470   8.084   7.272 -1.5474  0.9542  0.5987
  325MOL0     H42895   7.439   7.961   7.148 -4.3425  0.3335 -1.2448
  325MOL0     H42896   7.545   7.888   7.433  1.5251  0.3849 -1.0681
  325MOL0     H42897   7.490   7.786   7.308  0.7021  0.8709 -0.4762
  325MOL0     H42898   7.862   7.848   7.143 -0.5977 -2.5846  0.7949
  325MOL0     H42899   6.853   7.987   7.443  4.4486  0.8360  0.0623
  325MOL0     H42900   6.641   8.061   7.392  1.5825 -1.0169  2.0782
  326MOL0     O42901   5.713   0.293   1.475  0.4514  0.0840  0.2201
  326MOL0     C42902   5.679   0.404   1.512  0.4585  0.4969 -0.6029
  326MOL0     O42903   5.668   0.511   1.434  0.1337  1.0002  0.2155
  326MOL0     C42904   5.686   0.508   1.298 -0.2628  0.8268 -0.4345
  326MOL0     C42905   5.802   0.453   1.236 -0.2941  0.0796 -0.0568
  326MOL0     C42906   5.810   0.465   1.095  0.0728  0.5388  0.1117
  326MOL0     C42907   5.705   0.514   1.022 -0.6693 -0.1703  0.6368
  326MOL0     O42908   5.728   0.510   0.883  0.0972 -0.5257  0.0740
  326MOL0     C42909   5.653   0.598   0.791  0.1369 -0.0412  0.2160
  326MOL0     C42910   5.711   0.597   0.648  0.0712  0.7634  0.6410
  326MOL0     C42911   5.652   0.488   0.566 -0.0448 -0.5705 -0.7172
  326MOL0     C42912   5.736   0.356   0.579 -0.4287 -0.4965  0.4300
  326MOL0     C42913   5.691   0.258   0.464 -0.9482 -0.0842 -0.6398
  326MOL0     C42914   5.572   0.165   0.484  0.3875 -0.4304  0.4471
  326MOL0     C42915   5.555   0.086   0.616 -0.9070  0.4145 -0.4749
  326MOL0     C42916   5.454  -0.026   0.615 -0.4548 -0.5234 -0.8337
  326MOL0     N42917   5.333   0.021   0.568  0.3375  1.3226  0.4953
  326MOL0     C42918   5.227   0.051   0.641 -0.1834  0.3518  0.1040
  326MOL0     C42919   5.120   0.024   0.559  0.1395  0.1379  0.5143
  326MOL0     C42920   4.987   0.020   0.614 -0.1138  0.4642 -0.0978
  326MOL0     C42921   4.873   0.083   0.545  0.3943  0.3993  0.0833
  326MOL0     C42922   4.793  -0.010   0.454  0.0976 -0.3092 -0.4220
  326MOL0     C42923   4.668   0.060   0.407 -0.0341 -0.5996 -0.1352
  326MOL0     O42924   4.568   0.063   0.518  0.1054  0.3528 -0.2857
  326MOL0     C42925   4.442   0.108   0.477 -0.4047 -0.0294  0.4036
  326MOL0     C42926   4.335   0.086   0.568  0.2643  0.2373  0.1515
  326MOL0     C42927   4.209   0.141   0.550  0.3291  0.0214 -0.3337
  326MOL0     C42928   4.178   0.217   0.437 -1.0584  0.1538  0.0159
  326MOL0     C42929   4.046   0.279   0.410 -0.5376 -0.1862 -0.0303
  326MOL0     O42930   4.022   0.313   0.273 -0.0691 -0.1237 -1.1341
  326MOL0     C42931   3.919   0.381   0.226  0.8572 -0.6345 -0.1111
  326MOL0     C42932   3.809   0.400   0.297  0.1417  0.5520  1.0685
  326MOL0     C42933   3.698   0.471   0.241 -0.3200 -0.3867  0.2348
  326MOL0     C42934   3.700   0.523   0.112 -0.4338 -0.2923 -0.0592
  326MOL0     O42935   3.594   0.594   0.059 -0.4438 -0.3232  0.5522
  326MOL0     C42936   3.451   0.564   0.081 -0.3705 -0.1871  0.1072
  326MOL0     C42937   3.384   0.679   0.148  0.1643  0.4500 -0.2191
  326MOL0     C42938   3.238   0.646   0.176 -0.4109 -0.2588 -0.2403
  326MOL0     C42939   3.172   0.761   0.245 -0.4367 -0.2879 -0.5979
  326MOL0     C42940   3.026   0.744   0.293  1.6229 -0.0953 -0.9122
  326MOL0     C42941   2.928   0.723   0.176 -0.4628  0.0382  0.6816
  326MOL0     C42942   2.787   0.733   0.236  1.0108 -0.4994 -0.0404
  326MOL0     C42943   2.668   0.747   0.134  0.3165  0.0240  0.4593
  326MOL0    Cl42944   2.534   0.822   0.224 -0.7741  0.0860  0.0966
  326MOL0     C42945   3.821   0.519   0.036 -1.3785  0.1699 -0.6626
  326MOL0     C42946   3.931   0.450   0.110  0.1282  0.1634  0.7831
  326MOL0     O42947   3.986   0.311   0.514 -0.1809 -0.8083 -0.1350
  326MOL0     C42948   4.285   0.235   0.350 -0.5155  0.2638  0.2107
  326MOL0     C42949   4.414   0.188   0.373 -0.2009 -0.0552  0.0396
  326MOL0     N42950   5.154  -0.018   0.434 -1.0400  0.8626 -0.5228
  326MOL0     N42951   5.283  -0.018   0.449  0.0025  0.3526 -0.3296
  326MOL0     C42952   5.586   0.561   1.083 -0.0069 -0.2749  0.1653
  326MOL0     C42953   5.579   0.565   1.224  0.2604  1.1664 -0.1457
  326MOL0     C42954   5.676   0.425   1.662 -0.7540  0.1948  0.2391
  326MOL0     C42955   5.700   0.325   1.757 -1.2168 -0.4041  1.0091
  326MOL0     C42956   5.708   0.355   1.890  0.5330 -0.7346 -1.8494
  326MOL0     C42957   5.672   0.486   1.935  0.0676  0.6423 -0.1146
  326MOL0     O42958   5.687   0.521   2.067 -0.5662 -1.0274  0.0865
  326MOL0     C42959   5.686   0.420   2.171 -0.2040  0.3344  0.1516
  326MOL0     C42960   5.635   0.452   2.313 -0.4795 -0.4927  0.5326
  326MOL0     C42961   5.656   0.329   2.413 -0.6577 -0.4083 -0.0497
  326MOL0     C42962   5.643   0.347   2.570 -0.2078 -0.3986 -0.5979
  326MOL0     C42963   5.640   0.226   2.660 -0.6944  0.4049 -0.7066
  326MOL0     C42964   5.656   0.123   2.727  0.0084 -0.0573 -0.1004
  326MOL0     C42965   5.636   0.581   1.844  0.2427  0.7534  0.6317
  326MOL0     C42966   5.646   0.555   1.712 -0.1879  0.0298  0.6021
  326MOL0     H42967   5.883   0.412   1.295 -0.6031 -2.0175 -0.9908
  326MOL0     H42968   5.891   0.427   1.032 -0.8390 -0.9527 -0.2182
  326MOL0     H42969   5.659   0.704   0.817  0.6975  0.3541 -1.3815
  326MOL0     H42970   5.546   0.575   0.795 -0.0140  0.4991 -0.4591
  326MOL0     H42971   5.820   0.600   0.648  0.1637 -1.0869  2.0256
  326MOL0     H42972   5.692   0.695   0.602  1.2038  2.3819  3.3695
  326MOL0     H42973   5.660   0.518   0.461 -1.3467  1.7332 -0.2275
  326MOL0     H42974   5.547   0.466   0.588  0.2957 -3.5419 -1.6455
  326MOL0     H42975   5.840   0.387   0.561 -0.2566 -0.4573  1.4561
  326MOL0     H42976   5.734   0.312   0.679  2.6680  2.7631  2.1772
  326MOL0     H42977   5.776   0.190   0.453  0.2986  1.7662 -4.0556
  326MOL0     H42978   5.699   0.315   0.371 -0.6071 -2.2917 -2.0217
  326MOL0     H42979   5.568   0.106   0.392 -0.6960 -0.3668  0.4422
  326MOL0     H42980   5.489   0.233   0.462  2.1836  0.4979 -5.1221
  326MOL0     H42981   5.655   0.061   0.652 -0.7146 -0.0995 -1.3308
  326MOL0     H42982   5.526   0.155   0.696  5.5856  2.8214  0.3942
  326MOL0     H42983   5.453  -0.073   0.714  1.4631 -1.6501 -1.2794
  326MOL0     H42984   5.489  -0.113   0.559 -1.4357 -0.0520 -2.2074
  326MOL0     H42985   5.224   0.076   0.746 -2.4253 -0.2792  0.2285
  326MOL0     H42986   4.981   0.052   0.718 -0.4513 -1.3860  0.5012
  326MOL0     H42987   4.963  -0.086   0.626  2.3299 -0.0151  1.1864
  326MOL0     H42988   4.896   0.169   0.482 -3.7107  0.8158 -1.1597
  326MOL0     H42989   4.809   0.124   0.624 -1.2911  2.5865 -2.2588
  326MOL0     H42990   4.848  -0.032   0.362 -1.0215  0.0101 -1.1891
  326MOL0     H42991   4.755  -0.100   0.504 -2.0082  0.5515 -0.3535
  326MOL0     H42992   4.621   0.022   0.315 -0.9694  0.8862 -0.3045
  326MOL0     H42993   4.692   0.161   0.372  0.6045 -0.7193 -0.0445
  326MOL0     H42994   4.372   0.031   0.654  1.4804 -1.8862 -1.6047
  326MOL0     H42995   4.124   0.137   0.618  0.5373  2.8733  0.2142
  326MOL0     H42996   3.788   0.364   0.398 -0.0395  2.2113  1.6626
  326MOL0     H42997   3.606   0.474   0.298 -2.4319  0.3243 -2.9390
  326MOL0     H42998   3.445   0.474   0.143 -0.5139  0.1773  0.6295
  326MOL0     H42999   3.402   0.545  -0.015  0.6318 -1.2036 -0.2210
  326MOL0     H43000   3.390   0.761   0.076  0.3524  0.6967  0.0723
  326MOL0     H43001   3.429   0.699   0.246  0.9006 -0.7394 -0.3016
  326MOL0     H43002   3.235   0.563   0.248 -0.6020  1.1992  1.5233
  326MOL0     H43003   3.184   0.631   0.083 -1.5300  1.5286  0.0872
  326MOL0     H43004   3.249   0.799   0.313 -0.3104 -0.6566 -0.5283
  326MOL0     H43005   3.165   0.844   0.174  0.2417 -0.7920 -1.2766
  326MOL0     H43006   3.000   0.827   0.360 -0.8969 -2.0477  0.7352
  326MOL0     H43007   3.015   0.666   0.369  1.7673 -0.0623 -0.8576
  326MOL0     H43008   2.936   0.625   0.127 -2.5728  0.4302 -0.5600
  326MOL0     H43009   2.934   0.807   0.106 -0.6145  3.6016  4.5646
  326MOL0     H43010   2.765   0.637   0.285  0.3452 -1.4201 -2.0208
  326MOL0     H43011   2.791   0.811   0.311  0.7793 -3.3304  3.1601
  326MOL0     H43012   2.640   0.657   0.079  3.3494 -0.7775  0.0276
  326MOL0     H43013   2.691   0.823   0.058 -0.5512 -2.4254 -2.4649
  326MOL0     H43014   3.835   0.573  -0.057  5.3828 -0.1159 -0.3118
  326MOL0     H43015   4.021   0.448   0.050 -0.8318 -0.2315 -0.6655
  326MOL0     H43016   4.269   0.293   0.259  0.0958 -1.3857 -1.0012
  326MOL0     H43017   4.479   0.216   0.290 -0.7940 -1.0684 -0.8011
  326MOL0     H43018   5.500   0.584   1.021  0.6272 -0.2270 -0.7086
  326MOL0     H43019   5.497   0.600   1.286 -0.8187 -0.1751 -0.7604
  326MOL0     H43020   5.716   0.229   1.709 -2.9847  0.4553 -1.5007
  326MOL0     H43021   5.740   0.283   1.964  0.8512  1.2802  0.0692
  326MOL0     H43022   5.789   0.392   2.192 -0.4417 -0.9292 -0.2566
  326MOL0     H43023   5.621   0.335   2.148 -0.2039  0.9685 -2.5745
  326MOL0     H43024   5.691   0.538   2.351  0.0844  0.2450 -1.7919
  326MOL0     H43025   5.530   0.478   2.300 -0.5342 -0.8800  0.1769
  326MOL0     H43026   5.758   0.296   2.393  0.8407  2.0372  2.8316
  326MOL0     H43027   5.591   0.246   2.384 -0.0784 -0.8605 -0.0727
  326MOL0     H43028   5.726   0.410   2.600 -1.3262  0.9158 -0.1585
  326MOL0     H43029   5.554   0.410   2.583  1.0971  1.0643  1.7192
  326MOL0     H43030   5.687   0.033   2.776 -3.1343 -0.3245  1.6129
  326MOL0     H43031   5.606   0.677   1.885  0.9833  1.8229 -1.2114
  326MOL0     H43032   5.632   0.633   1.638  1.1800 -1.9696 -1.9391
  327MOL0     O43033  10.822   1.698   6.899  0.1571 -0.2793  0.5960
  327MOL0     C43034  10.837   1.624   6.991  1.0715  0.1936 -0.0546
  327MOL0     O43035  10.762   1.620   7.107 -0.5611 -0.4679 -0.0164
  327MOL0     C43036  10.690   1.734   7.139 -0.7956 -0.2932 -0.4099
  327MOL0     C43037  10.717   1.870   7.095  0.9428 -0.2519 -0.2871
  327MOL0     C43038  10.623   1.963   7.129 -0.2935  0.5457 -0.3386
  327MOL0     C43039  10.516   1.937   7.219 -1.1051  0.2785  0.1570
  327MOL0     O43040  10.432   2.036   7.258  0.6369  0.2427 -0.5644
  327MOL0     C43041  10.470   2.171   7.253 -0.4529 -0.7753 -0.7373
  327MOL0     C43042  10.434   2.241   7.120  0.5442 -0.1049  1.1222
  327MOL0     C43043  10.285   2.271   7.101  0.0125 -0.0262  0.2497
  327MOL0     C43044  10.210   2.332   7.229 -0.7554 -0.6608 -0.8736
  327MOL0     C43045  10.071   2.373   7.203  0.3090 -0.4751  0.0399
  327MOL0     C43046  10.068   2.477   7.096 -0.2618  0.1320 -0.2527
  327MOL0     C43047   9.929   2.539   7.086  0.3057  0.7786  0.6673
  327MOL0     C43048   9.923   2.626   6.957 -0.0936 -0.0786 -1.3572
  327MOL0     N43049   9.784   2.676   6.940  0.1140 -0.3361 -0.1290
  327MOL0     C43050   9.675   2.606   6.889 -0.0144 -0.4442  0.0616
  327MOL0     C43051   9.579   2.702   6.846 -0.4426 -0.7908 -0.9751
  327MOL0     C43052   9.436   2.666   6.808  0.1956 -0.1922  0.0158
  327MOL0     C43053   9.350   2.779   6.749  0.3400 -0.5043  0.1110
  327MOL0     C43054   9.207   2.736   6.720  0.5825  0.1147  1.0140
  327MOL0     C43055   9.116   2.699   6.832  0.1902 -0.1606  0.3209
  327MOL0     O43056   9.084   2.817   6.911 -0.3899 -0.0692  0.5001
  327MOL0     C43057   8.975   2.800   6.990 -0.6178 -1.2010  0.0379
  327MOL0     C43058   8.845   2.834   6.945 -0.4113  1.6324  0.0166
  327MOL0     C43059   8.734   2.833   7.021  0.5823 -0.5709 -0.0622
  327MOL0     C43060   8.752   2.804   7.156 -1.2742 -1.2142 -0.9481
  327MOL0     C43061   8.639   2.817   7.250  0.0054  0.0850 -0.3890
  327MOL0     O43062   8.519   2.812   7.207 -0.5532  0.9735 -0.4562
  327MOL0     C43063   8.419   2.854   7.285 -0.9851 -1.3167  1.0192
  327MOL0     C43064   8.297   2.785   7.257  0.1232  0.2294 -0.5442
  327MOL0     C43065   8.182   2.807   7.335  0.2182 -0.4089 -0.0251
  327MOL0     C43066   8.182   2.914   7.424  0.1289  0.9421  0.1800
  327MOL0     O43067   8.065   2.912   7.508 -1.2108  0.0953  0.0952
  327MOL0     C43068   8.071   2.993   7.628 -0.1247 -0.7226 -0.3730
  327MOL0     C43069   7.970   2.934   7.728 -0.6249 -1.0776  0.2696
  327MOL0     C43070   7.824   2.970   7.691 -0.8796 -0.8495 -0.4665
  327MOL0     C43071   7.730   2.944   7.802 -0.3833 -0.5064  0.2531
  327MOL0     C43072   7.587   3.002   7.763 -0.6762 -0.0358 -0.9410
  327MOL0     C43073   7.480   2.976   7.869  1.2548 -0.2183  0.4403
  327MOL0     C43074   7.521   2.981   8.023 -0.1742 -0.9042 -0.4849
  327MOL0     C43075   7.404   2.967   8.123  1.6421  0.3167  1.0665
  327MOL0    Cl43076   7.332   2.798   8.114 -0.2498  0.0302  0.2516
  327MOL0     C43077   8.294   3.007   7.435 -0.8557  0.5457  0.0339
  327MOL0     C43078   8.408   2.969   7.365 -0.4829 -0.5207  0.1575
  327MOL0     O43079   8.667   2.846   7.362  0.7254 -0.2938 -0.3022
  327MOL0     C43080   8.878   2.771   7.207 -0.1377 -0.7168  0.0039
  327MOL0     C43081   8.986   2.765   7.120  0.0000 -0.3284 -0.4488
  327MOL0     N43082   9.647   2.815   6.882 -0.1052 -0.7304 -0.1721
  327MOL0     N43083   9.763   2.806   6.929 -0.9627 -0.3947  0.1887
  327MOL0     C43084  10.502   1.811   7.267  0.2784  0.3455  0.9911
  327MOL0     C43085  10.591   1.708   7.232  0.1697  0.2197  0.1964
  327MOL0     C43086  10.951   1.531   6.999  0.5335  0.3703 -0.1200
  327MOL0     C43087  10.958   1.438   7.109  0.2704  0.2342 -0.4123
  327MOL0     C43088  11.073   1.354   7.116  0.8587  0.5438 -0.6332
  327MOL0     C43089  11.161   1.346   7.006  0.0494 -0.1532 -0.0025
  327MOL0     O43090  11.265   1.258   6.996  0.0055 -0.1412  0.4678
  327MOL0     C43091  11.325   1.210   7.116 -0.5599  0.8484 -0.4890
  327MOL0     C43092  11.273   1.067   7.152 -0.4194 -0.4345 -0.1928
  327MOL0     C43093  11.281   0.975   7.032  0.4815  0.4143  0.1178
  327MOL0     C43094  11.242   0.836   7.071 -0.1615 -0.7092 -0.2491
  327MOL0     C43095  11.328   0.756   6.989 -0.3722 -0.5887  0.1038
  327MOL0     C43096  11.391   0.695   6.911  0.0933 -0.8126  0.6113
  327MOL0     C43097  11.145   1.431   6.897 -0.9869 -0.3534 -0.2118
  327MOL0     C43098  11.045   1.520   6.886  0.0836 -0.6901 -0.9090
  327MOL0     H43099  10.801   1.923   7.051  0.5176  0.9129  0.2719
  327MOL0     H43100  10.640   2.065   7.096 -0.5812 -0.0046 -2.3128
  327MOL0     H43101  10.579   2.180   7.258 -0.6093  1.4593 -0.3097
  327MOL0     H43102  10.429   2.227   7.338  1.4401  0.8009 -0.7890
  327MOL0     H43103  10.476   2.184   7.037 -1.2728  0.2193 -0.0594
  327MOL0     H43104  10.480   2.340   7.110  3.6834 -1.4971  0.3948
  327MOL0     H43105  10.248   2.169   7.089  1.9775 -0.8254  0.5784
  327MOL0     H43106  10.278   2.331   7.010  5.2069  0.2434 -0.2478
  327MOL0     H43107  10.199   2.259   7.309  1.7927  0.7554  0.9222
  327MOL0     H43108  10.273   2.407   7.278 -1.2715 -2.2565  2.5236
  327MOL0     H43109  10.028   2.418   7.293  1.2351  0.1503  0.1850
  327MOL0     H43110  10.008   2.288   7.174  1.1140  0.0586 -3.8160
  327MOL0     H43111  10.099   2.434   7.000  0.2353 -2.3695  0.9672
  327MOL0     H43112  10.146   2.550   7.119 -1.4531  0.6959  2.3467
  327MOL0     H43113   9.855   2.460   7.068  1.6766 -0.6755  1.1126
  327MOL0     H43114   9.896   2.598   7.172 -0.2488 -0.7281  1.5372
  327MOL0     H43115   9.946   2.553   6.879 -0.1011  0.6169 -2.0205
  327MOL0     H43116   9.999   2.704   6.962 -0.3015  0.0777 -0.1341
  327MOL0     H43117   9.668   2.499   6.878  1.4169 -1.4067  5.7054
  327MOL0     H43118   9.385   2.632   6.899 -0.2785 -0.5854 -0.3945
  327MOL0     H43119   9.433   2.581   6.740  0.3928 -0.3935  0.2574
  327MOL0     H43120   9.403   2.819   6.662 -0.8273  0.6693 -0.0940
  327MOL0     H43121   9.352   2.864   6.818  0.3595  0.0149 -0.5202
  327MOL0     H43122   9.165   2.821   6.665  0.6100 -0.6673 -0.2430
  327MOL0     H43123   9.221   2.652   6.652  0.6641 -0.4443  1.7120
  327MOL0     H43124   9.162   2.627   6.900  2.4380  0.0092 -0.9347
  327MOL0     H43125   9.025   2.668   6.780  0.0525  0.3055  0.2749
  327MOL0     H43126   8.832   2.865   6.841  0.1553  0.8505 -0.2945
  327MOL0     H43127   8.642   2.851   6.966  1.5138 -0.4533 -1.6321
  327MOL0     H43128   8.302   2.717   7.173  0.0051  1.9724 -2.0195
  327MOL0     H43129   8.098   2.738   7.337  1.2475 -1.6935  0.9495
  327MOL0     H43130   8.037   3.093   7.602  1.5322 -0.8336 -3.5258
  327MOL0     H43131   8.169   2.985   7.678  0.7158  1.8164 -1.4670
  327MOL0     H43132   7.985   2.975   7.828 -1.8136 -0.4593  0.2228
  327MOL0     H43133   7.990   2.827   7.722 -2.1187 -1.3432 -4.1489
  327MOL0     H43134   7.808   2.897   7.611  1.3636 -0.8419 -0.9817
  327MOL0     H43135   7.815   3.074   7.657  0.2607 -0.7596 -0.5396
  327MOL0     H43136   7.720   2.836   7.815 -0.5395 -0.4073  1.0164
  327MOL0     H43137   7.766   2.982   7.898  0.6461 -1.6533  0.3451
  327MOL0     H43138   7.548   2.965   7.668  1.6154  0.1309 -2.0272
  327MOL0     H43139   7.593   3.110   7.746  1.3610 -0.2611 -2.0241
  327MOL0     H43140   7.432   2.882   7.842 -2.5139  0.7602  2.9249
  327MOL0     H43141   7.411   3.061   7.862  0.1507 -1.0092  1.3444
  327MOL0     H43142   7.595   2.904   8.046 -0.3980 -1.5313 -1.7248
  327MOL0     H43143   7.559   3.082   8.040 -0.9719 -0.6757  0.0116
  327MOL0     H43144   7.326   3.043   8.108 -1.1585 -2.4898  0.3027
  327MOL0     H43145   7.438   2.982   8.226 -0.7833  2.1665  1.7019
  327MOL0     H43146   8.298   3.080   7.515 -1.3602  0.5951  0.0206
  327MOL0     H43147   8.489   3.034   7.397 -2.2669  0.3869  3.2113
  327MOL0     H43148   8.886   2.746   7.313  2.1529 -1.0035 -0.1922
  327MOL0     H43149   9.082   2.724   7.152 -1.4734 -2.9669  0.9606
  327MOL0     H43150  10.433   1.779   7.344 -2.1665  1.8791 -0.4254
  327MOL0     H43151  10.583   1.617   7.292  2.5968  0.6423  1.3085
  327MOL0     H43152  10.892   1.442   7.195  0.7877 -0.3000  0.0176
  327MOL0     H43153  11.072   1.292   7.205 -3.2468 -2.2781 -2.3433
  327MOL0     H43154  11.315   1.273   7.204  1.5086  0.8931 -0.2274
  327MOL0     H43155  11.434   1.202   7.104 -0.4863 -1.3628  1.0288
  327MOL0     H43156  11.330   1.017   7.231  2.4025 -0.7243 -2.2392
  327MOL0     H43157  11.169   1.082   7.183  0.0130  1.1808  0.6130
  327MOL0     H43158  11.378   0.995   6.986 -1.3626  1.5933 -3.7265
  327MOL0     H43159  11.215   1.001   6.949 -2.1051 -0.2075  1.8585
  327MOL0     H43160  11.280   0.833   7.174 -2.1739  2.5637  0.7487
  327MOL0     H43161  11.137   0.816   7.048 -0.7243 -0.0842  1.6203
  327MOL0     H43162  11.447   0.625   6.853  3.9822  1.1594  1.6453
  327MOL0     H43163  11.222   1.425   6.820  2.3030  0.8603  2.6849
  327MOL0     H43164  11.023   1.588   6.805 -1.9961  1.0662  1.0057
  328MOL0     O43165   4.170   2.758   6.326 -0.1334 -0.2763  0.1886
  328MOL0     C43166   4.065   2.819   6.289  0.3577  0.0819  0.3506
  328MOL0     O43167   3.946   2.785   6.337 -0.1724  0.4110 -0.4567
  328MOL0     C43168   3.923   2.651   6.372 -0.2378 -0.4978 -0.6338
  328MOL0     C43169   3.811   2.639   6.452  0.7306 -0.0846 -0.4596
  328MOL0     C43170   3.765   2.522   6.513  0.1404 -0.7824 -0.5658
  328MOL0     C43171   3.836   2.401   6.486  0.4039  0.4780 -0.3045
  328MOL0     O43172   3.790   2.291   6.550  0.2861  0.6105 -0.0696
  328MOL0     C43173   3.857   2.161   6.540  0.4988  1.0037  0.8249
  328MOL0     C43174   3.789   2.057   6.628 -1.1111  0.7597  0.1950
  328MOL0     C43175   3.633   2.043   6.595  0.0399 -0.2225 -0.4392
  328MOL0     C43176   3.569   1.952   6.697 -0.1393 -0.5516 -0.1504
  328MOL0     C43177   3.547   1.813   6.635 -0.2623 -0.6968 -0.2299
  328MOL0     C43178   3.430   1.806   6.536  0.3034 -0.5583  0.3845
  328MOL0     C43179   3.426   1.665   6.478 -0.1366  1.0604 -0.2757
  328MOL0     C43180   3.557   1.599   6.422 -0.0224  0.3560  0.4158
  328MOL0     N43181   3.535   1.450   6.402  0.0399  0.9066  0.3736
  328MOL0     C43182   3.562   1.380   6.286  0.3945 -0.1012  0.4806
  328MOL0     C43183   3.576   1.253   6.315  0.2923  0.2955  0.6179
  328MOL0     C43184   3.619   1.144   6.226 -0.0463 -0.5800 -0.0201
  328MOL0     C43185   3.518   1.133   6.114  0.2390 -0.2613 -0.2887
  328MOL0     C43186   3.395   1.058   6.160 -0.1889 -0.7299  0.1938
  328MOL0     C43187   3.313   1.015   6.022 -0.5922 -0.0652 -0.5500
  328MOL0     O43188   3.263   0.880   6.039  0.8886 -0.0830  1.0727
  328MOL0     C43189   3.144   0.855   6.109 -1.1221 -0.7796  0.8777
  328MOL0     C43190   3.083   0.952   6.191  0.1497  0.1465 -0.0491
  328MOL0     C43191   2.965   0.913   6.251  0.4417 -0.3457  0.4627
  328MOL0     C43192   2.912   0.785   6.234  0.1641  0.5757 -0.7319
  328MOL0     C43193   2.788   0.740   6.315  1.2997  0.4741 -0.2425
  328MOL0     O43194   2.762   0.603   6.318  0.7606  0.2234 -0.5344
  328MOL0     C43195   2.655   0.567   6.389  0.0474 -0.2631  0.7968
  328MOL0     C43196   2.628   0.601   6.534 -0.3207 -0.5706  0.1333
  328MOL0     C43197   2.515   0.556   6.605  0.1140  0.2643  0.8341
  328MOL0     C43198   2.417   0.474   6.539 -0.8596  0.2449  0.8666
  328MOL0     O43199   2.308   0.448   6.618 -0.5133 -0.9428  0.0455
  328MOL0     C43200   2.181   0.460   6.554 -0.0486 -0.1447  0.4163
  328MOL0     C43201   2.078   0.461   6.660 -0.2008 -0.0887 -1.2871
  328MOL0     C43202   1.936   0.484   6.585 -0.4556 -0.8619 -0.2426
  328MOL0     C43203   1.877   0.375   6.507 -0.6734 -0.2506  0.5661
  328MOL0     C43204   1.735   0.407   6.467 -0.2760 -0.4918  0.1071
  328MOL0     C43205   1.641   0.379   6.579 -0.3432  0.8758 -0.5553
  328MOL0     C43206   1.496   0.444   6.549 -0.2507  0.7843 -0.1841
  328MOL0     C43207   1.489   0.595   6.574 -0.2105 -1.3972  1.2343
  328MOL0    Cl43208   1.496   0.634   6.755  0.3932  0.0820  0.2190
  328MOL0     C43209   2.453   0.426   6.402 -0.1633 -0.0093 -0.3340
  328MOL0     C43210   2.558   0.485   6.332 -0.2420  0.2885  0.7098
  328MOL0     O43211   2.711   0.826   6.364  0.0788 -0.3879  0.0324
  328MOL0     C43212   2.974   0.686   6.164  1.4424 -0.1002  0.0286
  328MOL0     C43213   3.088   0.722   6.103 -0.1424  0.8933 -0.5620
  328MOL0     N43214   3.566   1.234   6.451  0.7328 -0.7130 -0.1533
  328MOL0     N43215   3.547   1.354   6.498 -1.0614  0.2219 -0.0857
  328MOL0     C43216   3.929   2.408   6.386  0.1625 -0.1915  0.3085
  328MOL0     C43217   3.974   2.528   6.332 -0.9038 -0.6628  0.3436
  328MOL0     C43218   4.087   2.911   6.172 -0.1327 -0.0195 -0.0726
  328MOL0     C43219   4.217   2.917   6.104 -0.6693  0.1671  0.4265
  328MOL0     C43220   4.234   3.004   5.997 -0.4814 -0.3008 -0.3873
  328MOL0     C43221   4.134   3.093   5.955 -0.4037 -0.1562 -0.6235
  328MOL0     O43222   4.148   3.189   5.854  0.6357  0.4325  1.1858
  328MOL0     C43223   4.250   3.180   5.752 -1.2798  0.1474 -0.6989
  328MOL0     C43224   4.258   3.307   5.669  0.8285  0.1162 -0.1616
  328MOL0     C43225   4.344   3.279   5.544 -0.6590  1.3598 -0.5453
  328MOL0     C43226   4.499   3.281   5.561  0.1126  0.1104  0.9004
  328MOL0     C43227   4.555   3.149   5.587 -0.2059  0.2767 -0.0664
  328MOL0     C43228   4.622   3.052   5.620  1.0312  0.0083  0.4508
  328MOL0     C43229   4.022   3.099   6.032  0.3782  0.6260 -0.9181
  328MOL0     C43230   3.989   3.002   6.134 -0.1745  0.6075 -0.2388
  328MOL0     H43231   3.751   2.725   6.479 -0.7900 -1.4430  0.6993
  328MOL0     H43232   3.688   2.523   6.590 -0.2434 -2.8566 -0.8574
  328MOL0     H43233   3.966   2.164   6.556  1.1444  1.1285 -2.8163
  328MOL0     H43234   3.848   2.126   6.437  1.0815  1.3593  0.6463
  328MOL0     H43235   3.811   2.089   6.730  0.8719  4.0687 -1.0945
  328MOL0     H43236   3.837   1.961   6.611  0.5685  1.8462 -1.5187
  328MOL0     H43237   3.609   2.023   6.490 -0.3186  1.6144 -0.7452
  328MOL0     H43238   3.588   2.140   6.618 -0.4587 -1.0042  2.2433
  328MOL0     H43239   3.636   1.952   6.784 -0.4512 -2.3119  0.1158
  328MOL0     H43240   3.474   1.997   6.726  0.8983  1.5503  0.2444
  328MOL0     H43241   3.517   1.746   6.716 -3.7490 -1.0765 -1.6460
  328MOL0     H43242   3.645   1.776   6.603  1.1682  1.3223  1.6024
  328MOL0     H43243   3.449   1.875   6.453 -0.0784  0.4975  1.1499
  328MOL0     H43244   3.331   1.820   6.580 -1.0291  0.4909 -2.6490
  328MOL0     H43245   3.378   1.601   6.553 -0.4815 -0.7131 -1.9252
  328MOL0     H43246   3.356   1.662   6.395 -0.4118  1.4133 -0.0579
  328MOL0     H43247   3.639   1.597   6.494 -2.1828  1.6600  3.1046
  328MOL0     H43248   3.587   1.648   6.328 -1.0028  0.8861  0.3731
  328MOL0     H43249   3.560   1.428   6.189 -0.6839  0.8395  0.9457
  328MOL0     H43250   3.625   1.051   6.284 -2.6837 -0.3507  0.7653
  328MOL0     H43251   3.722   1.167   6.195 -0.2976 -0.7407 -1.0250
  328MOL0     H43252   3.560   1.071   6.034 -1.8463 -4.4929  1.5735
  328MOL0     H43253   3.495   1.222   6.056 -1.0645  0.4978  1.3073
  328MOL0     H43254   3.437   0.969   6.207 -0.6816 -0.5937  0.9117
  328MOL0     H43255   3.330   1.113   6.228  1.4069  0.7504  0.5817
  328MOL0     H43256   3.381   1.024   5.936  1.7784 -2.8221  0.8815
  328MOL0     H43257   3.229   1.085   6.015 -1.5207 -0.9116  1.5420
  328MOL0     H43258   3.135   1.047   6.205  1.4561 -0.7258  1.3423
  328MOL0     H43259   2.925   0.981   6.326  1.1787  1.5073 -0.7532
  328MOL0     H43260   2.701   0.661   6.587 -2.3492  1.0023  1.2789
  328MOL0     H43261   2.494   0.584   6.708 -2.4068 -1.8874  1.0005
  328MOL0     H43262   2.159   0.385   6.477  0.1461  2.6472 -2.6183
  328MOL0     H43263   2.177   0.553   6.497  1.4223 -0.1399  0.2982
  328MOL0     H43264   2.103   0.542   6.729 -0.4043 -1.7834  0.8559
  328MOL0     H43265   2.077   0.370   6.720 -1.3088  0.6380 -0.1708
  328MOL0     H43266   1.939   0.573   6.521 -1.4732 -1.9618 -1.8968
  328MOL0     H43267   1.865   0.497   6.667 -2.3694 -1.0886 -1.7937
  328MOL0     H43268   1.941   0.364   6.419  0.1001 -1.5693  1.2613
  328MOL0     H43269   1.887   0.292   6.577 -0.6073 -1.2567 -0.5876
  328MOL0     H43270   1.708   0.335   6.389 -1.1953 -1.2526  1.0930
  328MOL0     H43271   1.724   0.508   6.428  0.2826 -0.1548  0.7921
  328MOL0     H43272   1.678   0.414   6.675  2.5385 -0.2406 -1.1750
  328MOL0     H43273   1.625   0.271   6.575  0.3300  0.8051 -1.8874
  328MOL0     H43274   1.469   0.409   6.449 -0.5791  1.6266 -0.3991
  328MOL0     H43275   1.424   0.397   6.616 -1.7977 -1.2327 -3.0551
  328MOL0     H43276   1.389   0.623   6.541  0.1194 -0.9624  0.5757
  328MOL0     H43277   1.573   0.631   6.513 -1.9559 -1.3031 -1.2959
  328MOL0     H43278   2.379   0.365   6.350  0.1283 -0.0333 -0.7320
  328MOL0     H43279   2.576   0.468   6.226  2.0995 -1.0721  1.2574
  328MOL0     H43280   2.934   0.586   6.153 -0.8522  0.9944 -3.1509
  328MOL0     H43281   3.146   0.654   6.042  2.1858  3.3633 -1.3082
  328MOL0     H43282   3.984   2.319   6.356  1.8320  0.7070  0.5789
  328MOL0     H43283   4.059   2.519   6.265 -0.4043  0.9033  0.7158
  328MOL0     H43284   4.306   2.871   6.145  0.4274 -0.7545 -2.6767
  328MOL0     H43285   4.324   3.000   5.937 -0.9132  1.5831 -1.2426
  328MOL0     H43286   4.239   3.089   5.692  5.3531 -1.1082 -0.7068
  328MOL0     H43287   4.347   3.186   5.801 -0.7904 -1.3125 -1.4440
  328MOL0     H43288   4.157   3.335   5.640  0.8804 -0.3006 -0.7700
  328MOL0     H43289   4.300   3.390   5.727  2.3632  1.3726 -2.8906
  328MOL0     H43290   4.315   3.370   5.490  0.0297  1.5205 -0.6621
  328MOL0     H43291   4.330   3.184   5.494  4.5308  0.3334 -0.6330
  328MOL0     H43292   4.534   3.320   5.465  2.6479 -3.2953  0.2751
  328MOL0     H43293   4.518   3.349   5.645 -3.7914  1.8160  0.6366
  328MOL0     H43294   4.682   2.975   5.665  1.4644 -0.6802 -1.2549
  328MOL0     H43295   3.950   3.179   6.018 -1.3472 -0.5569  0.6710
  328MOL0     H43296   3.902   3.011   6.199  1.7553 -0.8897  2.7550
  329MOL0     O43297   3.946   8.006   3.709  1.0695  0.4942  0.4764
  329MOL0     C43298   3.986   7.911   3.770  1.5325 -0.4346  0.0384
  329MOL0     O43299   3.916   7.800   3.783  0.7755  0.4513  0.3648
  329MOL0     C43300   3.798   7.787   3.719  0.0284 -0.6814  0.4731
  329MOL0     C43301   3.673   7.786   3.791 -0.7107 -0.4311 -0.0215
  329MOL0     C43302   3.548   7.777   3.733 -0.4366 -0.2004  0.8443
  329MOL0     C43303   3.545   7.729   3.592  0.5348 -0.0424  0.0497
  329MOL0     O43304   3.434   7.669   3.538  0.1259  0.1873  0.3837
  329MOL0     C43305   3.419   7.678   3.398 -0.2162  0.1292 -0.4536
  329MOL0     C43306   3.267   7.662   3.379 -0.2982  0.1022  0.0280
  329MOL0     C43307   3.198   7.801   3.400 -0.4075  0.5444 -0.8222
  329MOL0     C43308   3.051   7.780   3.390 -0.6522  0.0518 -0.6582
  329MOL0     C43309   2.965   7.871   3.476  1.1916 -0.9827 -0.0156
  329MOL0     C43310   2.816   7.860   3.455 -0.1581  0.6371 -0.2638
  329MOL0     C43311   2.771   7.947   3.328 -0.6825  0.2958  0.0023
  329MOL0     C43312   2.619   7.978   3.315 -0.2533  0.6410 -0.4445
  329MOL0     N43313   2.599   8.054   3.191  0.2003 -0.2144  0.2100
  329MOL0     C43314   2.595   8.185   3.189  0.0513  0.1679 -0.4664
  329MOL0     C43315   2.559   8.216   3.061  0.0712 -0.1385 -0.3740
  329MOL0     C43316   2.540   8.356   3.018 -0.3312 -0.1183 -0.0073
  329MOL0     C43317   2.396   8.397   3.034  0.0170 -0.6248 -0.1026
  329MOL0     C43318   2.353   8.460   3.171  0.1509 -0.4711 -0.5038
  329MOL0     C43319   2.237   8.554   3.157 -0.0833 -0.4888  0.1479
  329MOL0     O43320   2.130   8.470   3.116  0.0705 -0.5863 -0.2754
  329MOL0     C43321   1.997   8.503   3.151 -0.9999  0.8696  0.0475
  329MOL0     C43322   1.901   8.404   3.133  0.1390 -0.0795  0.6808
  329MOL0     C43323   1.771   8.440   3.163 -0.2413 -0.0011  0.6613
  329MOL0     C43324   1.730   8.564   3.187 -0.9263 -0.4266  0.9113
  329MOL0     C43325   1.583   8.590   3.200  0.3838  0.7025 -0.0656
  329MOL0     O43326   1.498   8.485   3.230 -0.2720  0.7545 -0.6965
  329MOL0     C43327   1.376   8.507   3.265  0.1452  0.1644 -0.8284
  329MOL0     C43328   1.336   8.587   3.375 -1.1378 -0.3075 -0.1342
  329MOL0     C43329   1.213   8.628   3.409 -0.1333 -0.4822  0.3045
  329MOL0     C43330   1.112   8.615   3.318 -0.0724 -0.5918  0.2482
  329MOL0     O43331   0.998   8.669   3.357  0.9092 -0.5703  0.6265
  329MOL0     C43332   0.881   8.602   3.303  0.3323  0.7115 -0.1086
  329MOL0     C43333   0.747   8.644   3.364  0.1202 -0.0970  0.8549
  329MOL0     C43334   0.708   8.786   3.317  0.4946 -0.5245 -0.2955
  329MOL0     C43335   0.605   8.853   3.410 -0.7495  0.6210  0.0066
  329MOL0     C43336   0.476   8.769   3.411  0.3637  0.1268  0.5153
  329MOL0     C43337   0.349   8.851   3.436 -0.2185 -0.0394  1.2410
  329MOL0     C43338   0.226   8.758   3.415  0.4184 -0.0152 -0.3739
  329MOL0     C43339   0.101   8.810   3.489 -0.3518  0.2669  0.3407
  329MOL0    Cl43340  -0.041   8.711   3.458 -0.3018  0.1789  0.0950
  329MOL0     C43341   1.136   8.535   3.197  0.0931 -0.6549 -0.1348
  329MOL0     C43342   1.269   8.484   3.178 -0.4667  0.0510 -0.4915
  329MOL0     O43343   1.556   8.712   3.198  0.1344 -0.4581 -1.3661
  329MOL0     C43344   1.828   8.667   3.199 -0.1033 -0.7173  0.5236
  329MOL0     C43345   1.961   8.638   3.177 -0.0714  0.0284  0.8019
  329MOL0     N43346   2.540   8.099   2.984 -0.1588 -0.0162 -0.6712
  329MOL0     N43347   2.554   8.006   3.069 -0.5385  0.5776 -0.6803
  329MOL0     C43348   3.673   7.727   3.531 -0.4136 -0.2454  0.8182
  329MOL0     C43349   3.798   7.761   3.588 -0.2530  0.0834  0.4039
  329MOL0     C43350   4.119   7.916   3.817  0.2338 -0.5007  0.1586
  329MOL0     C43351   4.180   8.044   3.830 -0.6678 -0.2661  0.1765
  329MOL0     C43352   4.309   8.052   3.878  0.2716 -0.3115 -0.6888
  329MOL0     C43353   4.379   7.938   3.925 -0.3239  0.6051  0.0428
  329MOL0     O43354   4.510   7.940   3.968  0.1205 -0.6383  0.1300
  329MOL0     C43355   4.580   8.065   3.994  0.5821  0.0269 -1.3140
  329MOL0     C43356   4.726   8.035   4.050  0.9769 -0.3732  0.6043
  329MOL0     C43357   4.809   8.170   4.084  0.4163 -0.2906 -0.2505
  329MOL0     C43358   4.760   8.246   4.201  0.5874 -0.4053 -0.2765
  329MOL0     C43359   4.872   8.328   4.249  0.1566  0.2713  0.3267
  329MOL0     C43360   4.955   8.403   4.292 -0.6006  0.9148 -0.4283
  329MOL0     C43361   4.313   7.816   3.918 -0.8043 -0.3973 -0.0894
  329MOL0     C43362   4.188   7.802   3.861 -0.4839 -0.7395 -0.1493
  329MOL0     H43363   3.676   7.806   3.897 -3.6353  1.4569 -0.1462
  329MOL0     H43364   3.456   7.790   3.789  0.8061 -2.2299  3.5850
  329MOL0     H43365   3.477   7.598   3.351  1.1072  1.0834 -0.4732
  329MOL0     H43366   3.444   7.775   3.356 -0.9627  0.2269 -0.6867
  329MOL0     H43367   3.227   7.585   3.446  0.2736  0.7864  1.1678
  329MOL0     H43368   3.250   7.624   3.277 -0.6170  1.2482 -0.3650
  329MOL0     H43369   3.220   7.871   3.319 -2.4521  2.0997 -0.1121
  329MOL0     H43370   3.228   7.845   3.495 -1.5029 -2.8333  1.2771
  329MOL0     H43371   3.033   7.804   3.284 -1.2139 -0.0270 -0.5854
  329MOL0     H43372   3.019   7.678   3.414 -0.4677  0.1632  0.0869
  329MOL0     H43373   2.997   7.974   3.458  0.6637 -0.8907 -0.4153
  329MOL0     H43374   2.997   7.829   3.573 -0.4644 -4.2786 -0.7711
  329MOL0     H43375   2.769   7.896   3.547  0.0612  0.4315 -0.0711
  329MOL0     H43376   2.778   7.758   3.440 -0.3802  0.5745  0.6290
  329MOL0     H43377   2.822   8.044   3.332  0.7556 -0.3029 -2.1188
  329MOL0     H43378   2.812   7.889   3.245 -1.6410 -0.7516  0.2363
  329MOL0     H43379   2.579   8.042   3.395  2.8822  1.7473  0.4103
  329MOL0     H43380   2.567   7.882   3.317 -0.6425  0.8433  2.0804
  329MOL0     H43381   2.614   8.247   3.277  0.4720  1.0003 -1.1297
  329MOL0     H43382   2.566   8.374   2.913 -3.6222  1.4539 -0.6853
  329MOL0     H43383   2.595   8.422   3.085 -1.2934  0.9826 -0.2604
  329MOL0     H43384   2.331   8.311   3.015 -0.2551 -1.3342  3.4448
  329MOL0     H43385   2.374   8.473   2.958  1.4821  0.5475  0.6161
  329MOL0     H43386   2.348   8.389   3.254  2.7592  1.1442  1.1889
  329MOL0     H43387   2.437   8.520   3.207  0.7170 -1.7301  0.3604
  329MOL0     H43388   2.248   8.632   3.081 -0.0406  0.9372  1.5639
  329MOL0     H43389   2.210   8.608   3.249 -0.5681  3.7616 -2.2130
  329MOL0     H43390   1.925   8.306   3.093 -1.5195  0.0590 -0.8275
  329MOL0     H43391   1.695   8.362   3.161 -0.8061  0.4975 -2.1764
  329MOL0     H43392   1.420   8.634   3.426  1.5060 -1.9088 -2.7177
  329MOL0     H43393   1.202   8.681   3.502 -0.3750  0.8104 -0.4336
  329MOL0     H43394   0.870   8.494   3.319 -1.4014  1.2111  2.7891
  329MOL0     H43395   0.882   8.621   3.195  2.6923  1.5502 -0.0082
  329MOL0     H43396   0.763   8.633   3.471  2.6106  0.0104  0.5433
  329MOL0     H43397   0.670   8.572   3.332 -2.1518  2.3186  0.5227
  329MOL0     H43398   0.666   8.788   3.216  2.4272 -2.3867 -1.2137
  329MOL0     H43399   0.790   8.856   3.302 -1.3633  1.3978 -2.4520
  329MOL0     H43400   0.651   8.867   3.509  2.7338  1.1928 -1.5447
  329MOL0     H43401   0.595   8.956   3.374  5.4751  1.8871  0.6799
  329MOL0     H43402   0.499   8.675   3.461  1.3184  1.0215  1.8156
  329MOL0     H43403   0.457   8.736   3.308  2.0002  0.2760  0.1400
  329MOL0     H43404   0.341   8.941   3.373 -0.0412 -1.4100 -0.8526
  329MOL0     H43405   0.342   8.882   3.540  2.0545  0.4965  1.3035
  329MOL0     H43406   0.203   8.763   3.308 -0.0028 -0.8593 -0.3362
  329MOL0     H43407   0.248   8.655   3.445  1.5985 -0.1214 -1.5086
  329MOL0     H43408   0.080   8.916   3.473  1.6109  0.9332  1.7944
  329MOL0     H43409   0.132   8.814   3.594 -2.6672 -1.9534  1.2194
  329MOL0     H43410   1.063   8.498   3.127 -0.5842 -0.4521  0.4507
  329MOL0     H43411   1.289   8.443   3.079  0.7601 -0.6124  0.0033
  329MOL0     H43412   1.796   8.770   3.213  0.4151 -0.1615 -2.0324
  329MOL0     H43413   2.022   8.722   3.209 -3.2769  2.6445  0.5029
  329MOL0     H43414   3.689   7.680   3.434  3.2627 -0.2661  1.2937
  329MOL0     H43415   3.893   7.757   3.535  0.5217  0.4586  1.7419
  329MOL0     H43416   4.140   8.142   3.805 -2.0725 -0.9977 -0.5558
  329MOL0     H43417   4.346   8.152   3.898 -0.8482 -0.0457  0.1651
  329MOL0     H43418   4.526   8.128   4.066  1.7064 -0.3372 -0.1344
  329MOL0     H43419   4.578   8.124   3.902 -1.0153  0.4529 -1.0511
  329MOL0     H43420   4.720   7.981   4.145  0.8441 -0.7776  0.3652
  329MOL0     H43421   4.769   7.974   3.971 -1.9691 -0.8185 -0.7812
  329MOL0     H43422   4.800   8.239   3.999 -1.2838  0.8817  0.8111
  329MOL0     H43423   4.917   8.151   4.088  1.4476  4.4618  0.5559
  329MOL0     H43424   4.672   8.307   4.178 -0.3694 -0.9458  1.6662
  329MOL0     H43425   4.735   8.164   4.269 -0.9507 -0.3934 -0.7867
  329MOL0     H43426   5.042   8.449   4.334  0.8838 -1.9085 -0.1910
  329MOL0     H43427   4.365   7.727   3.951 -0.3886 -0.7034 -1.4762
  329MOL0     H43428   4.138   7.705   3.859 -1.7548 -0.1600 -3.0017
  330MOL0     O43429   6.709   2.573   1.564  0.3079 -0.4216 -0.7970
  330MOL0     C43430   6.682   2.483   1.646 -0.3732  0.6042 -0.0167
  330MOL0     O43431   6.563   2.425   1.660 -0.0692  0.1491 -0.4626
  330MOL0     C43432   6.458   2.484   1.608  0.8769  0.6449  0.1394
  330MOL0     C43433   6.363   2.541   1.695  0.4069  0.6651  0.2574
  330MOL0     C43434   6.243   2.600   1.642  0.7727 -0.3292 -0.3352
  330MOL0     C43435   6.222   2.608   1.504 -0.2684 -0.4438 -1.3382
  330MOL0     O43436   6.110   2.663   1.452 -0.4533 -1.3061  0.4233
  330MOL0     C43437   6.071   2.781   1.521 -0.0511 -0.9005 -0.1657
  330MOL0     C43438   5.994   2.873   1.431  0.2063 -0.6742 -0.9170
  330MOL0     C43439   6.090   2.924   1.328 -0.3176 -0.1228 -0.3229
  330MOL0     C43440   6.047   3.063   1.276  0.8228  0.7254  0.0331
  330MOL0     C43441   5.903   3.059   1.223 -0.5021 -0.2621  0.1644
  330MOL0     C43442   5.847   3.194   1.182  0.0920 -0.2170 -0.4881
  330MOL0     C43443   5.704   3.193   1.141  0.3839 -0.2760  0.0646
  330MOL0     C43444   5.666   3.329   1.096  0.4304 -0.5728  0.3383
  330MOL0     N43445   5.528   3.336   1.040 -0.6005  0.5945  0.0040
  330MOL0     C43446   5.485   3.463   1.004  0.0443  0.0844 -0.4029
  330MOL0     C43447   5.388   3.431   0.906  0.1664  0.4232  1.1694
  330MOL0     C43448   5.291   3.522   0.845  0.2585  0.2131 -0.1322
  330MOL0     C43449   5.362   3.622   0.752  0.5214 -1.5309 -0.0026
  330MOL0     C43450   5.385   3.560   0.615  0.4182 -0.6287  0.2924
  330MOL0     C43451   5.430   3.419   0.610 -0.4387 -1.0321 -0.5276
  330MOL0     O43452   5.476   3.368   0.484 -0.2223 -0.7881 -0.5472
  330MOL0     C43453   5.551   3.245   0.489  0.5856 -0.5013  0.1480
  330MOL0     C43454   5.639   3.228   0.380 -0.0300  0.1227  0.1061
  330MOL0     C43455   5.712   3.113   0.360  0.7992 -0.1681  0.7862
  330MOL0     C43456   5.707   3.015   0.466 -0.8505  0.6009  0.1517
  330MOL0     C43457   5.796   2.899   0.453 -0.3066  0.4138  0.8985
  330MOL0     O43458   5.761   2.787   0.527  0.2954  0.3560 -0.2841
  330MOL0     C43459   5.804   2.650   0.499  0.0299 -0.0316 -0.4310
  330MOL0     C43460   5.711   2.549   0.543 -0.2436  0.1596  0.0165
  330MOL0     C43461   5.753   2.423   0.549  0.1829  0.9658 -0.0679
  330MOL0     C43462   5.868   2.373   0.490 -0.3135  0.0361  0.1804
  330MOL0     O43463   5.889   2.241   0.473 -0.3425 -0.4159  0.2938
  330MOL0     C43464   5.916   2.175   0.595  0.6999 -0.5910 -0.5038
  330MOL0     C43465   5.850   2.035   0.596  0.0641  0.4698 -0.2005
  330MOL0     C43466   5.895   1.954   0.719  0.5112  0.2285  0.5284
  330MOL0     C43467   6.044   1.926   0.731  0.4403 -0.5315 -0.7834
  330MOL0     C43468   6.093   1.804   0.655 -0.6248  0.1754 -0.0430
  330MOL0     C43469   6.249   1.781   0.669  0.7861 -0.2070 -0.0894
  330MOL0     C43470   6.284   1.734   0.812 -0.1572 -0.6896  0.7031
  330MOL0     C43471   6.431   1.693   0.822 -0.1969  0.2857  0.7888
  330MOL0    Cl43472   6.547   1.832   0.827 -0.8601 -0.3449 -0.4140
  330MOL0     C43473   5.957   2.468   0.452 -0.1305  0.6371  0.3761
  330MOL0     C43474   5.924   2.599   0.453  0.0979 -1.0133 -0.3168
  330MOL0     O43475   5.892   2.907   0.371 -0.7357 -0.3269 -0.3667
  330MOL0     C43476   5.622   3.034   0.580  0.0882 -0.5121  0.4249
  330MOL0     C43477   5.537   3.149   0.591 -0.7482  0.2148  0.8324
  330MOL0     N43478   5.371   3.294   0.904 -0.7239 -0.2768 -0.6035
  330MOL0     N43479   5.462   3.238   0.973 -0.0705  0.6863 -0.1987
  330MOL0     C43480   6.315   2.557   1.423  1.1510  0.4471 -0.0215
  330MOL0     C43481   6.431   2.498   1.472 -0.7843 -0.3423  0.5784
  330MOL0     C43482   6.802   2.427   1.710 -0.9485  0.9214 -0.1624
  330MOL0     C43483   6.930   2.477   1.697  0.7291 -0.7041 -0.2863
  330MOL0     C43484   7.036   2.418   1.760 -0.3535 -0.4208 -0.3918
  330MOL0     C43485   7.029   2.300   1.836  0.6346  0.4826  0.9115
  330MOL0     O43486   7.135   2.230   1.885  0.5223 -0.4067  0.5274
  330MOL0     C43487   7.263   2.247   1.834 -0.8623 -0.6925 -0.6307
  330MOL0     C43488   7.358   2.132   1.865 -1.1078  0.4805  0.1868
  330MOL0     C43489   7.330   2.006   1.776 -0.9049  1.2197  0.3948
  330MOL0     C43490   7.373   2.016   1.627  1.2897  0.1738 -0.4487
  330MOL0     C43491   7.321   1.896   1.572  0.9643 -0.2950  0.7864
  330MOL0     C43492   7.278   1.787   1.536 -0.0636  0.3398 -0.0984
  330MOL0     C43493   6.894   2.259   1.858 -0.9083  0.5869  0.1671
  330MOL0     C43494   6.788   2.310   1.784  0.5613  0.2686 -0.5033
  330MOL0     H43495   6.388   2.541   1.801  1.5107  2.0198  0.0350
  330MOL0     H43496   6.162   2.632   1.707 -0.7385  0.0035 -2.3025
  330MOL0     H43497   6.150   2.837   1.572 -0.9692 -0.9984  1.4409
  330MOL0     H43498   6.007   2.761   1.607 -0.5357  0.6301 -0.1359
  330MOL0     H43499   5.948   2.957   1.484  1.0427 -0.5194 -0.4295
  330MOL0     H43500   5.918   2.813   1.379 -0.2523 -1.9479  1.1226
  330MOL0     H43501   6.099   2.854   1.244 -0.8609  2.5086 -2.7057
  330MOL0     H43502   6.189   2.933   1.373 -0.8439  0.8923  0.6771
  330MOL0     H43503   6.058   3.141   1.352  3.5465 -0.4318  0.9583
  330MOL0     H43504   6.118   3.091   1.199 -0.6263  1.9112 -0.9162
  330MOL0     H43505   5.831   3.031   1.300  0.0790 -1.8842  0.1644
  330MOL0     H43506   5.900   2.989   1.139 -0.8105  1.4253 -1.2926
  330MOL0     H43507   5.911   3.236   1.104 -1.0754  0.8447 -0.9198
  330MOL0     H43508   5.863   3.264   1.264 -2.8537  0.1145 -0.0611
  330MOL0     H43509   5.693   3.127   1.055 -1.8293 -1.2129  0.9782
  330MOL0     H43510   5.648   3.159   1.229 -0.3886 -1.4326 -0.8444
  330MOL0     H43511   5.739   3.378   1.032  1.2083 -0.2593  1.4228
  330MOL0     H43512   5.663   3.387   1.189 -0.5900 -3.9716  2.6242
  330MOL0     H43513   5.488   3.562   1.047 -1.6510  0.3649 -0.8490
  330MOL0     H43514   5.240   3.568   0.930 -0.1068  2.7830 -1.6441
  330MOL0     H43515   5.217   3.460   0.794  1.9976 -2.5222  0.4808
  330MOL0     H43516   5.449   3.664   0.804 -1.3068  2.3953  0.1981
  330MOL0     H43517   5.295   3.707   0.734 -1.8116 -3.0589  1.0396
  330MOL0     H43518   5.285   3.554   0.571 -1.4249  1.0347  3.7898
  330MOL0     H43519   5.445   3.633   0.561  1.5088  0.2994  2.6282
  330MOL0     H43520   5.347   3.351   0.628  0.8202 -2.4858  0.0664
  330MOL0     H43521   5.515   3.408   0.679 -0.2940  2.7165  0.1204
  330MOL0     H43522   5.636   3.303   0.302 -0.6666  0.0718  0.0772
  330MOL0     H43523   5.769   3.097   0.269  0.4115 -2.2395  0.8540
  330MOL0     H43524   5.612   2.566   0.585 -0.3815  0.1728 -0.3102
  330MOL0     H43525   5.696   2.342   0.595 -0.2688  1.0351 -0.5083
  330MOL0     H43526   5.885   2.224   0.688  0.1255  2.9244 -2.3868
  330MOL0     H43527   6.025   2.164   0.602  0.6792 -1.7925 -1.6870
  330MOL0     H43528   5.876   1.994   0.498  1.1467  1.4879 -0.3728
  330MOL0     H43529   5.741   2.044   0.598  0.0172  0.3224  2.5469
  330MOL0     H43530   5.846   1.855   0.717 -1.0386  0.7429  4.1112
  330MOL0     H43531   5.853   1.991   0.814 -1.2929  1.6730 -0.7555
  330MOL0     H43532   6.111   2.009   0.706  0.7698  0.3649  2.5506
  330MOL0     H43533   6.063   1.922   0.839  0.6022  2.3654 -0.6199
  330MOL0     H43534   6.066   1.831   0.552 -0.6473 -0.9821 -0.3496
  330MOL0     H43535   6.025   1.721   0.674  0.4980 -0.6245  0.5807
  330MOL0     H43536   6.295   1.877   0.649  0.2995 -0.3206 -1.9637
  330MOL0     H43537   6.279   1.701   0.601 -5.2799  0.0792 -3.7987
  330MOL0     H43538   6.270   1.818   0.879  0.2240 -0.0977  0.0514
  330MOL0     H43539   6.213   1.654   0.835  0.1462 -1.0717  0.3345
  330MOL0     H43540   6.457   1.633   0.734 -0.0129 -0.8739  1.6198
  330MOL0     H43541   6.439   1.632   0.912  0.4212  0.9230  1.1839
  330MOL0     H43542   6.054   2.438   0.414  0.0236  3.7501 -2.0692
  330MOL0     H43543   5.981   2.678   0.406 -2.1410  1.1264  0.3667
  330MOL0     H43544   5.621   2.967   0.665 -2.7127 -0.0466  0.8534
  330MOL0     H43545   5.468   3.167   0.672  0.5014  2.4868  1.4986
  330MOL0     H43546   6.295   2.577   1.318 -2.1772 -1.4547  0.1188
  330MOL0     H43547   6.512   2.474   1.404 -2.5324  2.0970 -2.6468
  330MOL0     H43548   6.955   2.571   1.650  4.3454  0.2607  3.0090
  330MOL0     H43549   7.131   2.469   1.755 -0.4132 -0.3469 -0.7482
  330MOL0     H43550   7.316   2.334   1.874  0.4566 -1.5874 -0.3704
  330MOL0     H43551   7.266   2.272   1.728  2.0317  0.4271 -0.3532
  330MOL0     H43552   7.461   2.160   1.844 -0.2538 -0.2591  2.9735
  330MOL0     H43553   7.364   2.090   1.966 -1.8788 -2.0963 -0.7432
  330MOL0     H43554   7.222   1.988   1.777 -0.9834  0.6457 -3.1832
  330MOL0     H43555   7.384   1.915   1.803 -0.1575  0.5718 -2.8126
  330MOL0     H43556   7.334   2.100   1.569  0.4054  1.8634  2.3865
  330MOL0     H43557   7.481   2.027   1.611  1.4229  0.4697  0.6039
  330MOL0     H43558   7.250   1.699   1.480 -0.7063  0.0947  0.5854
  330MOL0     H43559   6.869   2.171   1.916 -1.9157  0.9398  0.2883
  330MOL0     H43560   6.690   2.264   1.794  0.7139  0.1986  0.7916
  331MOL0     O43561   8.379   9.852   1.473 -0.2310  0.3005 -0.2482
  331MOL0     C43562   8.410   9.918   1.376  0.3444  1.0556 -0.5143
  331MOL0     O43563   8.351   9.901   1.247 -0.1365 -0.4150 -0.5691
  331MOL0     C43564   8.230   9.828   1.244  0.6078  0.9327  0.5230
  331MOL0     C43565   8.227   9.706   1.180 -0.2065  0.3674 -0.1611
  331MOL0     C43566   8.111   9.633   1.181 -0.2484  0.5325  0.9701
  331MOL0     C43567   7.989   9.689   1.227 -0.4648  0.8295 -0.4003
  331MOL0     O43568   7.864   9.620   1.213 -0.6909 -0.5403  0.1469
  331MOL0     C43569   7.860   9.493   1.280 -0.3069 -0.4129 -0.2060
  331MOL0     C43570   7.876   9.371   1.196 -0.0645 -0.0888 -0.4185
  331MOL0     C43571   7.753   9.338   1.118  0.6656  0.5712 -0.5884
  331MOL0     C43572   7.796   9.241   1.011 -0.3089 -0.3334  0.6971
  331MOL0     C43573   7.677   9.199   0.928 -0.0613  0.4428 -0.2605
  331MOL0     C43574   7.591   9.084   0.997 -0.0535 -0.0297  0.4882
  331MOL0     C43575   7.527   8.985   0.897  0.7071  0.3455  0.6363
  331MOL0     C43576   7.453   8.867   0.971  0.4412  0.3790 -1.1092
  331MOL0     N43577   7.342   8.928   1.045  0.5641 -0.2822 -1.0250
  331MOL0     C43578   7.356   8.947   1.182 -0.6429 -0.7931 -0.0965
  331MOL0     C43579   7.234   8.985   1.222  0.4028 -0.7733 -0.3577
  331MOL0     C43580   7.208   9.024   1.365 -0.3984 -0.7135 -0.3114
  331MOL0     C43581   7.217   9.181   1.394 -0.7893 -0.2163 -0.2718
  331MOL0     C43582   7.089   9.266   1.419  0.1567  0.6032 -0.7527
  331MOL0     C43583   6.992   9.247   1.300 -0.0060 -0.1665 -0.0551
  331MOL0     O43584   6.938   9.380   1.264  0.0916  0.9548  0.1322
  331MOL0     C43585   6.870   9.383   1.144  0.3117  0.3403 -0.6038
  331MOL0     C43586   6.813   9.270   1.080 -0.8104  0.0151 -0.2571
  331MOL0     C43587   6.750   9.272   0.946 -0.6115 -1.0987  0.2917
  331MOL0     C43588   6.730   9.401   0.891 -0.1541  0.1288  0.9077
  331MOL0     C43589   6.641   9.416   0.769 -0.2573  0.0209  1.1129
  331MOL0     O43590   6.609   9.544   0.733  0.3550 -0.0513  0.6597
  331MOL0     C43591   6.547   9.565   0.609  1.1388  0.5524 -0.8520
  331MOL0     C43592   6.616   9.652   0.524 -0.6855 -0.1040 -0.1339
  331MOL0     C43593   6.583   9.659   0.389 -0.4691 -0.2353  0.8658
  331MOL0     C43594   6.486   9.577   0.336  0.9394 -0.2799  0.6910
  331MOL0     O43595   6.479   9.569   0.203  0.1584  0.4704  0.7136
  331MOL0     C43596   6.351   9.577   0.138  0.1364 -0.2762 -0.3571
  331MOL0     C43597   6.375   9.543  -0.007  0.3026 -0.2085 -0.5937
  331MOL0     C43598   6.442   9.419  -0.039 -0.6444 -0.1704 -1.1149
  331MOL0     C43599   6.419   9.374  -0.186 -0.9951  0.6620  0.3177
  331MOL0     C43600   6.473   9.229  -0.194 -0.0630 -0.3880  0.6578
  331MOL0     C43601   6.475   9.211  -0.346  0.0957  0.5860  0.5719
  331MOL0     C43602   6.473   9.066  -0.385  0.6980  0.1543  0.5778
  331MOL0     C43603   6.331   9.004  -0.421  0.8857  0.2046  0.5489
  331MOL0    Cl43604   6.216   8.999  -0.287 -0.2235 -0.1948  0.1177
  331MOL0     C43605   6.403   9.489   0.418 -0.0837 -0.2078 -0.6814
  331MOL0     C43606   6.441   9.487   0.555  0.4093  0.1869 -0.6161
  331MOL0     O43607   6.590   9.307   0.726  0.2276  0.7290  0.2625
  331MOL0     C43608   6.798   9.517   0.939 -0.4546  0.7353  0.0338
  331MOL0     C43609   6.870   9.505   1.065 -0.8938  0.4732  0.0557
  331MOL0     N43610   7.146   8.984   1.117  0.1283  0.0679  0.4244
  331MOL0     N43611   7.212   8.957   1.009 -0.0996  0.1109  0.4346
  331MOL0     C43612   7.989   9.810   1.286  0.3602  0.2231  1.1418
  331MOL0     C43613   8.109   9.890   1.298  0.0526  1.0426  0.2399
  331MOL0     C43614   8.541   9.992   1.390  0.6915  0.2827 -0.1880
  331MOL0     C43615   8.588  10.027   1.512  0.0473 -0.7486 -0.7622
  331MOL0     C43616   8.711  10.097   1.522  0.9606  0.7291  0.3449
  331MOL0     C43617   8.790  10.129   1.416  0.4038 -0.1379  0.1326
  331MOL0     O43618   8.899  10.210   1.424 -0.1284  0.9966  0.1246
  331MOL0     C43619   9.026  10.144   1.386  0.6753  0.2929  0.3076
  331MOL0     C43620   9.086  10.079   1.508  0.4442 -0.0713  0.1644
  331MOL0     C43621   9.146  10.175   1.616 -0.1572  0.0343  0.6250
  331MOL0     C43622   9.200  10.092   1.724  0.2722 -0.1027 -1.0621
  331MOL0     C43623   9.262  10.165   1.832 -0.2954 -0.4116 -0.0501
  331MOL0     C43624   9.302  10.245   1.925  0.5286  0.4089  0.2286
  331MOL0     C43625   8.742  10.083   1.293  0.5537 -0.7358  0.1745
  331MOL0     C43626   8.616  10.027   1.276  0.2739  0.4032 -0.6939
  331MOL0     H43627   8.317   9.669   1.132 -0.7213  2.3635 -2.9258
  331MOL0     H43628   8.098   9.542   1.122  0.1449  0.1594  1.4500
  331MOL0     H43629   7.763   9.489   1.328 -1.1394  2.3088 -1.4539
  331MOL0     H43630   7.929   9.488   1.365 -0.9187  1.5787  0.4691
  331MOL0     H43631   7.899   9.296   1.272  2.8377  1.2039  0.1287
  331MOL0     H43632   7.967   9.381   1.135  1.5781  4.3077  2.2779
  331MOL0     H43633   7.707   9.429   1.080  0.4016 -0.1390 -2.0072
  331MOL0     H43634   7.683   9.289   1.187  2.6386  0.9608  1.8279
  331MOL0     H43635   7.850   9.298   0.934 -2.1112  0.3710 -0.0924
  331MOL0     H43636   7.845   9.162   1.069  0.7131  1.0270  1.7638
  331MOL0     H43637   7.693   9.172   0.823  1.6666  5.2250 -1.4933
  331MOL0     H43638   7.602   9.279   0.925 -3.7475 -2.5130  2.3263
  331MOL0     H43639   7.522   9.133   1.066  1.5451  1.1654  1.2995
  331MOL0     H43640   7.660   9.024   1.057  0.0016 -0.1076  0.3486
  331MOL0     H43641   7.449   9.028   0.834  0.9494 -2.5397 -1.9137
  331MOL0     H43642   7.611   8.950   0.834  3.0424 -1.0432  4.2044
  331MOL0     H43643   7.528   8.823   1.036  1.9035  1.9972 -1.6394
  331MOL0     H43644   7.407   8.790   0.908  0.3114 -0.1646 -0.3644
  331MOL0     H43645   7.445   8.945   1.244 -1.3195  1.2867  1.0208
  331MOL0     H43646   7.281   8.974   1.429 -0.4571 -0.1427  0.2039
  331MOL0     H43647   7.111   8.984   1.394 -1.4259  2.5160  1.1619
  331MOL0     H43648   7.290   9.219   1.321  0.7559 -0.2124  1.2087
  331MOL0     H43649   7.269   9.190   1.490 -1.0353 -1.6896  0.0177
  331MOL0     H43650   7.039   9.235   1.511  0.6252  0.3995 -0.5646
  331MOL0     H43651   7.112   9.373   1.419  2.5146  0.1644  0.9660
  331MOL0     H43652   6.914   9.179   1.335  1.1175 -0.2031  2.6231
  331MOL0     H43653   7.044   9.200   1.216  0.1886 -0.4884  0.2471
  331MOL0     H43654   6.818   9.173   1.128  1.9823  0.8837  1.4456
  331MOL0     H43655   6.726   9.176   0.901 -0.9843 -0.8792  0.0211
  331MOL0     H43656   6.709   9.695   0.559 -0.8439 -0.3836  0.6645
  331MOL0     H43657   6.641   9.711   0.312 -2.4499  1.0061  0.1394
  331MOL0     H43658   6.318   9.681   0.147 -0.4322 -0.4392 -0.5138
  331MOL0     H43659   6.268   9.510   0.163 -1.0708  1.4465  0.4282
  331MOL0     H43660   6.444   9.618  -0.047 -0.3396  2.6504  2.9990
  331MOL0     H43661   6.279   9.547  -0.059 -0.7326  1.2162  1.2571
  331MOL0     H43662   6.407   9.344   0.033  2.5314  0.0172  0.8114
  331MOL0     H43663   6.548   9.444  -0.030 -0.6613  0.7121 -2.9078
  331MOL0     H43664   6.310   9.370  -0.196 -0.9662 -4.1027 -0.1334
  331MOL0     H43665   6.473   9.448  -0.246 -0.4307 -1.2219 -1.6029
  331MOL0     H43666   6.411   9.157  -0.142 -0.6778 -2.0620 -2.1505
  331MOL0     H43667   6.572   9.210  -0.152 -0.8221 -1.5541  1.9755
  331MOL0     H43668   6.568   9.258  -0.378  1.2727 -1.3463  1.0197
  331MOL0     H43669   6.396   9.266  -0.397 -0.4484  0.2687  1.0563
  331MOL0     H43670   6.538   9.043  -0.470  2.0868 -1.0441  1.9062
  331MOL0     H43671   6.519   9.015  -0.300  0.9799 -0.3648  0.1131
  331MOL0     H43672   6.346   8.906  -0.467 -1.6727 -0.0407  0.1185
  331MOL0     H43673   6.288   9.062  -0.503 -2.0696 -0.8193  1.2429
  331MOL0     H43674   6.316   9.430   0.392 -0.5988  0.3866 -0.3366
  331MOL0     H43675   6.378   9.431   0.624 -1.3010  2.4328 -0.2054
  331MOL0     H43676   6.794   9.609   0.882  1.3012 -0.2526 -1.8033
  331MOL0     H43677   6.911   9.600   1.097 -1.5710  1.6305 -2.3143
  331MOL0     H43678   7.895   9.851   1.323 -1.8183 -2.3154 -1.1975
  331MOL0     H43679   8.108   9.975   1.364  1.3815  1.1586  0.1428
  331MOL0     H43680   8.522  10.019   1.597  0.0785  2.0867 -0.3767
  331MOL0     H43681   8.723  10.121   1.627 -2.1754 -1.9733  1.5051
  331MOL0     H43682   9.094  10.219   1.345  0.5325 -0.1778 -0.8156
  331MOL0     H43683   9.012  10.068   1.309  0.8162  0.3896  0.1865
  331MOL0     H43684   9.009  10.012   1.548 -1.8042  1.7471 -0.8948
  331MOL0     H43685   9.171  10.017   1.478  0.9992 -0.4779  2.4328
  331MOL0     H43686   9.077  10.255   1.644  0.5871  0.1338  2.2987
  331MOL0     H43687   9.231  10.230   1.575  0.2751  0.9603  2.6284
  331MOL0     H43688   9.120  10.033   1.770 -0.5599  1.4614 -0.4331
  331MOL0     H43689   9.273  10.015   1.699 -0.6777 -1.8918  1.3490
  331MOL0     H43690   9.344  10.312   1.997  0.5206 -0.5831  1.1697
  331MOL0     H43691   8.787  10.099   1.195 -0.6665  0.5821 -0.1974
  331MOL0     H43692   8.573  10.009   1.178  1.1238 -2.8775 -0.5951
  332MOL0     O43693   2.239  10.988   5.475 -0.5718  0.4070  0.3589
  332MOL0     C43694   2.270  10.909   5.385  0.0184  0.3181  0.0677
  332MOL0     O43695   2.181  10.825   5.321 -0.9542 -0.2550 -1.2610
  332MOL0     C43696   2.044  10.841   5.338  0.2507 -0.1918  0.0465
  332MOL0     C43697   1.985  10.781   5.449  0.6885 -0.5267 -0.3010
  332MOL0     C43698   1.846  10.791   5.460 -0.4671 -1.1271 -0.0718
  332MOL0     C43699   1.768  10.881   5.382 -0.0752 -0.1884  0.8103
  332MOL0     O43700   1.635  10.885   5.405 -0.2636 -0.9439 -0.1016
  332MOL0     C43701   1.565  10.999   5.346  0.5586  0.2010  0.6650
  332MOL0     C43702   1.413  10.982   5.373  0.1823  0.5602  0.5148
  332MOL0     C43703   1.328  11.077   5.299  0.3595  0.0785 -1.0162
  332MOL0     C43704   1.315  11.037   5.150 -0.0878 -0.3600 -0.4412
  332MOL0     C43705   1.209  11.126   5.075 -0.3910  0.6687  0.1466
  332MOL0     C43706   1.257  11.174   4.941  0.4514  0.6488 -0.0752
  332MOL0     C43707   1.190  11.311   4.913 -0.8024 -0.1222 -0.1519
  332MOL0     C43708   1.205  11.350   4.761 -0.1185  0.3227  0.5664
  332MOL0     N43709   1.104  11.456   4.725 -0.5304  0.2293  0.3132
  332MOL0     C43710   0.974  11.433   4.696 -0.3598 -0.6350  0.2556
  332MOL0     C43711   0.928  11.551   4.630  0.1077 -0.0241 -0.2149
  332MOL0     C43712   0.792  11.555   4.574 -0.4458 -0.0232 -0.0613
  332MOL0     C43713   0.688  11.596   4.681 -0.0786  0.0928 -0.1049
  332MOL0     C43714   0.687  11.743   4.716 -0.8349 -0.3568  0.8508
  332MOL0     C43715   0.567  11.766   4.809 -0.0551  0.3068  0.3584
  332MOL0     O43716   0.450  11.690   4.770  0.9619  0.4056  0.0747
  332MOL0     C43717   0.348  11.772   4.713 -1.3727  0.3975  0.5405
  332MOL0     C43718   0.222  11.775   4.777 -0.4861 -0.1440  0.0792
  332MOL0     C43719   0.113  11.845   4.733  0.0882 -0.8652  0.6366
  332MOL0     C43720   0.121  11.910   4.608 -0.2226  0.0770  0.5370
  332MOL0     C43721   0.007  11.979   4.559  0.5749 -0.0887  0.4921
  332MOL0     O43722  -0.098  12.004   4.648  0.1449 -0.4725 -0.3430
  332MOL0     C43723  -0.210  12.077   4.600 -0.8941  0.5676 -0.3326
  332MOL0     C43724  -0.321  12.002   4.562 -0.0321  0.5286  0.4218
  332MOL0     C43725  -0.420  12.069   4.497 -0.2459 -0.4859  0.6870
  332MOL0     C43726  -0.429  12.205   4.482 -0.3496  0.2611  0.1455
  332MOL0     O43727  -0.533  12.266   4.417  0.8910 -0.1924 -0.4874
  332MOL0     C43728  -0.502  12.370   4.317 -0.4709 -0.4404  0.3779
  332MOL0     C43729  -0.478  12.301   4.191 -1.5196  1.3600  0.9716
  332MOL0     C43730  -0.594  12.216   4.138  0.5540  1.6131 -0.3551
  332MOL0     C43731  -0.726  12.285   4.141 -0.2735  1.1608  0.8830
  332MOL0     C43732  -0.828  12.191   4.075 -0.2666  1.0839 -0.5103
  332MOL0     C43733  -0.968  12.229   4.121 -0.4302  0.4496  0.1864
  332MOL0     C43734  -1.071  12.182   4.016  0.3510  0.5424 -0.1491
  332MOL0     C43735  -1.193  12.271   4.044  0.0660  0.7547  1.3188
  332MOL0    Cl43736  -1.266  12.216   4.188  0.4936  0.3587  0.4363
  332MOL0     C43737  -0.330  12.279   4.541 -0.3028  0.4168 -0.1304
  332MOL0     C43738  -0.224  12.214   4.601 -0.6917 -0.2909  0.4146
  332MOL0     O43739   0.004  12.015   4.443  0.0385  0.4902 -0.2503
  332MOL0     C43740   0.227  11.889   4.532 -0.9357  0.4005 -0.5271
  332MOL0     C43741   0.347  11.832   4.588 -0.1048 -0.1272  0.6732
  332MOL0     N43742   1.035  11.628   4.621 -0.1485 -0.0854  0.0045
  332MOL0     N43743   1.139  11.576   4.671  0.4919 -0.9778  0.0035
  332MOL0     C43744   1.835  10.952   5.276 -0.3956  0.5860  0.0757
  332MOL0     C43745   1.975  10.929   5.256  0.3982 -0.6500 -0.4205
  332MOL0     C43746   2.412  10.902   5.341 -0.5946 -0.0905  1.4047
  332MOL0     C43747   2.459  10.835   5.218  0.2154 -0.1811  0.0003
  332MOL0     C43748   2.595  10.823   5.191  0.4996  1.1727  0.0858
  332MOL0     C43749   2.686  10.863   5.287  0.5428 -0.3700  0.4985
  332MOL0     O43750   2.813  10.821   5.260  0.5059  0.4621 -1.2661
  332MOL0     C43751   2.938  10.876   5.309  0.4556 -0.1479 -0.1711
  332MOL0     C43752   2.967  11.006   5.232  0.2540  0.5136  0.6877
  332MOL0     C43753   3.062  11.119   5.284  0.0249  0.2895  0.1719
  332MOL0     C43754   3.188  11.061   5.366  0.5040 -0.3802  0.5637
  332MOL0     C43755   3.288  11.161   5.394  0.3147  0.1682 -1.0901
  332MOL0     C43756   3.368  11.247   5.415 -0.5498 -0.0180  1.2769
  332MOL0     C43757   2.644  10.921   5.403  0.5376  0.0962  0.2362
  332MOL0     C43758   2.506  10.948   5.421  0.3261 -0.4289 -0.4762
  332MOL0     H43759   2.044  10.727   5.523  0.6580 -0.5983 -0.3294
  332MOL0     H43760   1.803  10.728   5.538  1.8785  0.2849  2.5154
  332MOL0     H43761   1.582  10.992   5.238 -1.3657 -0.9667  0.4053
  332MOL0     H43762   1.595  11.100   5.375  0.8254  1.6343 -3.8469
  332MOL0     H43763   1.399  10.985   5.481  3.3639 -1.1123  1.0855
  332MOL0     H43764   1.379  10.880   5.349 -0.7867  1.0475 -0.2745
  332MOL0     H43765   1.365  11.178   5.318  0.1579 -0.0845  0.3371
  332MOL0     H43766   1.227  11.073   5.340  1.5257  0.2232  2.1220
  332MOL0     H43767   1.419  11.040   5.114 -0.1807 -3.0010 -1.1401
  332MOL0     H43768   1.287  10.931   5.146 -1.2568 -0.0425 -0.9055
  332MOL0     H43769   1.182  11.206   5.144  0.2136  0.9086  0.1133
  332MOL0     H43770   1.120  11.067   5.049 -0.0621  0.7310 -1.2251
  332MOL0     H43771   1.233  11.096   4.868  1.5347 -1.5602  1.7996
  332MOL0     H43772   1.365  11.188   4.939  0.7181 -1.0034  0.9547
  332MOL0     H43773   1.082  11.302   4.927 -0.7660 -1.7810 -0.7186
  332MOL0     H43774   1.235  11.385   4.980 -0.8192 -1.5991  1.5554
  332MOL0     H43775   1.176  11.267   4.696 -1.6562  0.6563  0.8006
  332MOL0     H43776   1.305  11.388   4.740 -0.4291  1.2269  0.6854
  332MOL0     H43777   0.916  11.342   4.706 -0.1700 -1.0261 -1.6880
  332MOL0     H43778   0.780  11.449   4.551 -0.8107 -0.4943  2.1235
  332MOL0     H43779   0.794  11.619   4.486 -1.0774  0.6059  0.3726
  332MOL0     H43780   0.716  11.553   4.778  0.0862  3.8445  1.6797
  332MOL0     H43781   0.588  11.567   4.646 -1.6934  1.3158  3.0139
  332MOL0     H43782   0.777  11.775   4.771 -0.9286  2.4889 -0.4720
  332MOL0     H43783   0.675  11.810   4.630 -0.7471  0.4149  1.4261
  332MOL0     H43784   0.552  11.875   4.803 -1.2923  0.0732 -1.6526
  332MOL0     H43785   0.601  11.744   4.911 -0.6219  2.6831  1.1309
  332MOL0     H43786   0.213  11.724   4.872  4.1953 -1.3706  0.1273
  332MOL0     H43787   0.028  11.856   4.800  0.1502 -0.3721  0.6364
  332MOL0     H43788  -0.330  11.893   4.564  0.4605  0.4249 -1.1519
  332MOL0     H43789  -0.514  12.033   4.456 -0.6776 -0.0148  1.2502
  332MOL0     H43790  -0.426  12.446   4.335 -0.6685  1.6443 -5.5159
  332MOL0     H43791  -0.590  12.432   4.300 -1.4136 -1.7948  0.1238
  332MOL0     H43792  -0.389  12.237   4.190 -1.8082  0.9235 -0.8814
  332MOL0     H43793  -0.460  12.383   4.120  1.2130  1.2012  1.3551
  332MOL0     H43794  -0.593  12.138   4.214  1.6492  1.7286 -0.2453
  332MOL0     H43795  -0.569  12.177   4.038  1.6525 -0.4310  0.6569
  332MOL0     H43796  -0.747  12.306   4.246  2.3043  2.9186  1.1550
  332MOL0     H43797  -0.728  12.377   4.081 -1.2195 -2.2836 -5.2186
  332MOL0     H43798  -0.800  12.086   4.087  0.5089  1.4615  1.5190
  332MOL0     H43799  -0.820  12.220   3.970 -1.9599  5.1020  0.2826
  332MOL0     H43800  -0.975  12.338   4.129 -1.5704  0.5085 -1.3931
  332MOL0     H43801  -0.988  12.199   4.225  1.7537 -3.5021 -0.3435
  332MOL0     H43802  -1.032  12.207   3.917  0.8008  1.4375  0.2444
  332MOL0     H43803  -1.101  12.077   4.026 -1.6113  0.5986 -3.8508
  332MOL0     H43804  -1.268  12.257   3.965  1.5989 -0.1113 -0.0490
  332MOL0     H43805  -1.166  12.377   4.053  0.1167  0.7036  1.7775
  332MOL0     H43806  -0.342  12.387   4.540 -0.7711  0.3952  1.3947
  332MOL0     H43807  -0.146  12.277   4.643 -0.9159  0.0595  0.3102
  332MOL0     H43808   0.237  11.914   4.426 -0.4332 -0.3817 -0.6669
  332MOL0     H43809   0.439  11.820   4.532 -1.5900  1.4974 -2.3639
  332MOL0     H43810   1.789  11.021   5.207 -0.4011  1.3295  0.7975
  332MOL0     H43811   2.036  10.969   5.175  2.5864 -2.3826  0.2546
  332MOL0     H43812   2.383  10.798   5.149  0.0855  0.5277 -0.2553
  332MOL0     H43813   2.637  10.767   5.108  3.5243 -1.3382  2.9807
  332MOL0     H43814   3.019  10.806   5.289  0.9904  0.4333 -0.0496
  332MOL0     H43815   2.939  10.898   5.416 -0.2476 -0.7616 -0.0279
  332MOL0     H43816   3.007  10.976   5.135  1.4625 -0.5507  1.4780
  332MOL0     H43817   2.873  11.060   5.222 -2.3173 -3.6674  0.0672
  332MOL0     H43818   3.006  11.199   5.332  0.3889  2.1678 -2.3060
  332MOL0     H43819   3.104  11.173   5.198 -0.2100  0.7710  0.3556
  332MOL0     H43820   3.144  11.023   5.459  0.5535 -0.0057  0.7413
  332MOL0     H43821   3.233  10.981   5.307 -1.2583 -1.4431  0.5602
  332MOL0     H43822   3.442  11.321   5.440 -0.6654  0.5015  0.1526
  332MOL0     H43823   2.716  10.959   5.475  1.8049  0.8389 -1.3593
  332MOL0     H43824   2.485  11.002   5.512  4.0083  1.4333 -0.5084
  333MOL0     O43825   4.360   1.979   6.573  0.4375  0.4609 -0.1944
  333MOL0     C43826   4.239   1.973   6.528  0.2257 -0.1182  0.5621
  333MOL0     O43827   4.138   1.904   6.588 -0.4488 -0.3885  0.1895
  333MOL0     C43828   4.160   1.858   6.715  0.3927  0.2114 -0.8337
  333MOL0     C43829   4.204   1.941   6.821 -0.9640  0.2224 -0.4063
  333MOL0     C43830   4.208   1.886   6.948  0.0612 -1.0440 -0.2591
  333MOL0     C43831   4.169   1.752   6.974 -0.9759  0.1484  0.2373
  333MOL0     O43832   4.162   1.705   7.101  0.1133 -0.1157  0.5120
  333MOL0     C43833   4.045   1.765   7.166 -0.2458 -0.5488 -0.3898
  333MOL0     C43834   3.992   1.687   7.285  0.3147 -0.1209  0.4101
  333MOL0     C43835   3.898   1.774   7.364  0.9022  0.0422 -0.2851
  333MOL0     C43836   3.814   1.693   7.464 -0.6705 -0.2450  0.5179
  333MOL0     C43837   3.761   1.755   7.593 -0.3185  0.6206  0.0919
  333MOL0     C43838   3.694   1.657   7.684 -0.6357  0.4330 -0.4678
  333MOL0     C43839   3.639   1.722   7.817  0.0974  0.7506  0.2102
  333MOL0     C43840   3.534   1.821   7.788 -0.6826 -0.4519 -0.1315
  333MOL0     N43841   3.407   1.738   7.777  0.4360 -0.5980 -0.0096
  333MOL0     C43842   3.345   1.687   7.887  0.7159  1.3973  0.2753
  333MOL0     C43843   3.258   1.591   7.854  0.6286 -0.4079  0.5036
  333MOL0     C43844   3.158   1.521   7.933 -0.0415  0.8690 -0.3725
  333MOL0     C43845   3.010   1.554   7.906  0.2313  0.1734  0.2221
  333MOL0     C43846   2.972   1.532   7.755 -0.1613  0.6422  1.5284
  333MOL0     C43847   2.824   1.493   7.719 -0.8430 -0.6660 -0.8819
  333MOL0     O43848   2.790   1.380   7.799 -0.2647 -0.8746 -0.7341
  333MOL0     C43849   2.660   1.358   7.836 -0.1764  0.0899 -0.9334
  333MOL0     C43850   2.643   1.288   7.953 -0.2947  0.2326 -0.3958
  333MOL0     C43851   2.513   1.266   7.997 -0.6776  0.2264 -0.0854
  333MOL0     C43852   2.402   1.297   7.918  0.4516  0.5574 -0.4113
  333MOL0     C43853   2.260   1.271   7.961  0.1753 -0.2091 -1.4253
  333MOL0     O43854   2.237   1.231   8.092  0.0082 -0.3984 -0.2957
  333MOL0     C43855   2.105   1.233   8.128  1.0226 -0.3527  0.5155
  333MOL0     C43856   2.032   1.125   8.084 -0.3299 -0.3174 -0.1676
  333MOL0     C43857   1.905   1.106   8.141  0.3654 -0.6160 -0.1328
  333MOL0     C43858   1.848   1.182   8.241 -0.6692 -0.4366 -0.1531
  333MOL0     O43859   1.728   1.157   8.307  0.4323 -0.7474  0.3565
  333MOL0     C43860   1.623   1.083   8.240 -0.3840  0.3349 -0.8031
  333MOL0     C43861   1.509   1.048   8.329 -0.1251  0.8955  0.3731
  333MOL0     C43862   1.557   0.950   8.439 -0.4053  0.1541 -0.3715
  333MOL0     C43863   1.440   0.895   8.519  0.1428  0.4645  0.4419
  333MOL0     C43864   1.486   0.788   8.605 -0.2776  0.7131 -1.3990
  333MOL0     C43865   1.576   0.835   8.712 -0.4910  0.2509 -0.1858
  333MOL0     C43866   1.610   0.725   8.814  0.2969  0.3308 -0.2701
  333MOL0     C43867   1.686   0.795   8.925  0.1882  0.8358  0.1599
  333MOL0    Cl43868   1.834   0.871   8.879 -0.1874 -0.1890 -0.3111
  333MOL0     C43869   1.927   1.291   8.280  1.1487 -0.5893  0.1058
  333MOL0     C43870   2.060   1.314   8.230 -0.3827  0.8348 -0.1497
  333MOL0     O43871   2.173   1.299   7.878 -0.3690  1.2546 -0.4765
  333MOL0     C43872   2.426   1.356   7.796  0.0265  0.2468  0.1154
  333MOL0     C43873   2.549   1.390   7.758  0.1222 -0.1836  0.0978
  333MOL0     N43874   3.263   1.589   7.711 -0.4584 -0.0432 -0.5163
  333MOL0     N43875   3.364   1.658   7.674  0.7864  0.2243  0.6979
  333MOL0     C43876   4.127   1.677   6.865  0.5159  0.1338  1.5357
  333MOL0     C43877   4.120   1.729   6.739 -0.8584  0.1199 -0.0641
  333MOL0     C43878   4.211   2.036   6.389  0.2047 -0.1926 -0.8430
  333MOL0     C43879   4.305   2.126   6.333  0.6070  0.4384 -0.9898
  333MOL0     C43880   4.285   2.184   6.218 -1.1626 -1.2566 -0.7963
  333MOL0     C43881   4.159   2.184   6.149  0.2860 -0.1759 -0.7232
  333MOL0     O43882   4.137   2.240   6.023 -0.1646 -0.3448  0.3257
  333MOL0     C43883   4.252   2.275   5.946 -0.0986  0.4852  0.3596
  333MOL0     C43884   4.302   2.153   5.887  0.6175  0.6647 -0.2790
  333MOL0     C43885   4.194   2.077   5.802  1.0528 -0.2519 -0.3517
  333MOL0     C43886   4.250   1.969   5.702  0.1938 -0.9388 -0.1133
  333MOL0     C43887   4.291   1.845   5.763 -0.2319 -0.4415  0.9235
  333MOL0     C43888   4.319   1.739   5.818  0.5518  0.0208  0.2613
  333MOL0     C43889   4.059   2.104   6.208 -0.4396 -0.0024 -0.0327
  333MOL0     C43890   4.085   2.026   6.324 -0.3514 -0.1070  0.1615
  333MOL0     H43891   4.214   2.048   6.806  1.7062 -0.1262 -1.6624
  333MOL0     H43892   4.247   1.935   7.036 -0.3562  0.7867 -1.0446
  333MOL0     H43893   3.957   1.778   7.102 -0.2758  3.7550  0.2391
  333MOL0     H43894   4.075   1.860   7.212  2.3641 -1.2513 -0.4644
  333MOL0     H43895   4.071   1.653   7.352 -0.5176  1.3406  2.2041
  333MOL0     H43896   3.941   1.600   7.242 -2.6456  1.3239  0.6983
  333MOL0     H43897   3.828   1.823   7.297  0.6122  1.1032  0.7621
  333MOL0     H43898   3.958   1.845   7.421  1.8151 -2.6446  2.4170
  333MOL0     H43899   3.727   1.653   7.412  0.1700  0.9126 -1.9591
  333MOL0     H43900   3.881   1.611   7.491 -0.2681  0.6590  2.4462
  333MOL0     H43901   3.687   1.823   7.549  0.1283  0.9770 -0.1143
  333MOL0     H43902   3.841   1.812   7.640  0.8733 -0.5527 -0.4647
  333MOL0     H43903   3.772   1.587   7.713 -0.8563  0.2435 -0.3238
  333MOL0     H43904   3.611   1.608   7.632 -3.1341  2.6660  1.1656
  333MOL0     H43905   3.597   1.647   7.884  4.0687 -2.0782 -0.1210
  333MOL0     H43906   3.723   1.769   7.868  0.6713 -0.8289  0.7765
  333MOL0     H43907   3.549   1.878   7.695 -2.2671  0.6473  0.2427
  333MOL0     H43908   3.512   1.891   7.869 -1.2216 -1.2568  0.4344
  333MOL0     H43909   3.376   1.704   7.990 -0.2836  1.1609  0.6304
  333MOL0     H43910   3.171   1.537   8.040  2.2156  2.5122 -0.8183
  333MOL0     H43911   3.175   1.414   7.918 -0.6179  0.7468 -0.1748
  333MOL0     H43912   2.989   1.658   7.935  0.9666  0.5857 -0.6722
  333MOL0     H43913   2.960   1.481   7.970  2.0277  0.3285  1.9237
  333MOL0     H43914   3.007   1.615   7.693  2.8310 -0.3676  1.7031
  333MOL0     H43915   3.029   1.447   7.717 -2.0551 -0.0402  0.0301
  333MOL0     H43916   2.826   1.456   7.616 -0.8290  1.4450 -1.6685
  333MOL0     H43917   2.763   1.582   7.735 -2.6804 -1.5168 -2.6710
  333MOL0     H43918   2.730   1.245   8.003  1.0643 -0.5662 -3.2678
  333MOL0     H43919   2.507   1.219   8.095  2.6649 -0.0570  0.0707
  333MOL0     H43920   2.056   1.062   7.999 -4.1568 -1.4424 -0.6114
  333MOL0     H43921   1.860   1.012   8.111  0.3246 -0.5386 -0.3164
  333MOL0     H43922   1.662   0.997   8.184  1.4407  1.3832 -1.2329
  333MOL0     H43923   1.590   1.149   8.159  2.2576  5.1714  1.6024
  333MOL0     H43924   1.441   0.997   8.260  1.8734 -3.0047  0.9849
  333MOL0     H43925   1.467   1.136   8.378 -2.3789  0.6954 -1.0930
  333MOL0     H43926   1.628   1.008   8.498  0.9218  3.5848 -4.7610
  333MOL0     H43927   1.617   0.869   8.395  0.9265  0.7289  0.3319
  333MOL0     H43928   1.387   0.974   8.573 -1.5903 -0.9591  0.9487
  333MOL0     H43929   1.375   0.862   8.437  0.5543 -0.5305  0.4988
  333MOL0     H43930   1.549   0.714   8.555 -1.4738 -1.1121 -0.3191
  333MOL0     H43931   1.403   0.730   8.647  1.1998 -2.4326 -2.5629
  333MOL0     H43932   1.523   0.916   8.762  1.7499  1.8826 -0.2889
  333MOL0     H43933   1.673   0.876   8.683  1.2517 -3.7881 -0.8193
  333MOL0     H43934   1.518   0.677   8.851  1.3343 -1.2770  0.3330
  333MOL0     H43935   1.660   0.644   8.760 -3.6288 -1.8458 -1.0568
  333MOL0     H43936   1.723   0.717   8.993 -0.6246 -1.1257 -1.5584
  333MOL0     H43937   1.622   0.872   8.968 -0.7905 -0.6559  1.5005
  333MOL0     H43938   1.881   1.359   8.351 -0.1101  0.0400 -1.2602
  333MOL0     H43939   2.131   1.382   8.275  3.0749 -2.9071  0.6028
  333MOL0     H43940   2.343   1.386   7.731 -0.1930  2.5491  1.3257
  333MOL0     H43941   2.551   1.435   7.659  0.1011 -2.1329 -0.8197
  333MOL0     H43942   4.103   1.572   6.876  0.4806  0.1227  1.3450
  333MOL0     H43943   4.086   1.660   6.662  3.7423 -1.9321 -0.5648
  333MOL0     H43944   4.398   2.141   6.387  0.2164 -0.0593 -0.1654
  333MOL0     H43945   4.380   2.222   6.183  0.7513 -5.4673 -0.8330
  333MOL0     H43946   4.337   2.318   6.002  1.8400 -2.7529  0.1575
  333MOL0     H43947   4.219   2.350   5.874  1.4597  1.6686  0.8084
  333MOL0     H43948   4.377   2.185   5.815  0.9080  2.7293  0.8682
  333MOL0     H43949   4.359   2.082   5.948  2.4146  0.8096 -1.7286
  333MOL0     H43950   4.140   2.153   5.746 -0.7219  0.4701  2.1768
  333MOL0     H43951   4.114   2.037   5.865  0.6548 -1.1804 -1.4110
  333MOL0     H43952   4.175   1.952   5.623 -0.2895  0.8895 -0.0816
  333MOL0     H43953   4.335   2.012   5.649 -0.2058 -0.0960 -0.0804
  333MOL0     H43954   4.330   1.637   5.850 -4.7919 -1.1784 -0.6747
  333MOL0     H43955   3.967   2.098   6.152 -0.7707  0.6139  0.4274
  333MOL0     H43956   4.008   1.963   6.368 -0.1519  1.3314  2.7431
  334MOL0     O43957  10.877   9.355   7.233  0.8012 -0.1502 -0.0656
  334MOL0     C43958  10.792   9.361   7.318 -0.1689 -0.1496 -0.7187
  334MOL0     O43959  10.797   9.315   7.447  0.5359  0.5582 -0.0946
  334MOL0     C43960  10.901   9.245   7.499 -0.7615  0.3326 -0.4379
  334MOL0     C43961  10.942   9.262   7.636  0.1792  0.5202  0.9143
  334MOL0     C43962  11.034   9.173   7.696  0.1882 -0.8032 -0.5806
  334MOL0     C43963  11.092   9.078   7.617 -0.0514  0.8339  0.1725
  334MOL0     O43964  11.173   8.987   7.685  0.1302 -0.3632 -0.2905
  334MOL0     C43965  11.222   8.869   7.630  0.1237  0.4446 -0.4470
  334MOL0     C43966  11.357   8.875   7.579 -0.9175  0.2734  1.9013
  334MOL0     C43967  11.383   8.745   7.485 -0.5840 -0.6449 -0.1043
  334MOL0     C43968  11.510   8.759   7.400 -0.3152 -0.1978 -0.0173
  334MOL0     C43969  11.491   8.655   7.294 -0.0776  1.1977  0.6331
  334MOL0     C43970  11.617   8.658   7.207  0.1109 -0.0591  0.3584
  334MOL0     C43971  11.647   8.531   7.122  0.5916 -0.0559 -0.0610
  334MOL0     C43972  11.604   8.545   6.975  0.2564  0.1157 -0.7083
  334MOL0     N43973  11.661   8.445   6.880 -0.3783  0.5179 -0.7802
  334MOL0     C43974  11.799   8.426   6.857  0.1063  0.4108 -0.5167
  334MOL0     C43975  11.804   8.313   6.777 -0.5919 -1.0180 -0.3316
  334MOL0     C43976  11.928   8.251   6.721 -0.0099 -0.5438 -0.0940
  334MOL0     C43977  12.003   8.191   6.846 -0.7317 -0.7113  0.0580
  334MOL0     C43978  12.113   8.109   6.785  0.2384  0.3361  0.0444
  334MOL0     C43979  12.219   8.201   6.722 -0.0762  0.4811  0.7217
  334MOL0     O43980  12.317   8.243   6.823  0.0228  0.1389 -0.7066
  334MOL0     C43981  12.407   8.341   6.792  0.7645  0.3508 -0.3235
  334MOL0     C43982  12.424   8.412   6.666 -0.7565 -0.1558 -0.1650
  334MOL0     C43983  12.538   8.502   6.648 -0.1467  0.7929  0.0861
  334MOL0     C43984  12.628   8.525   6.750  0.3649 -0.3165 -0.2596
  334MOL0     C43985  12.742   8.626   6.732  1.5272 -0.2070 -0.1102
  334MOL0     O43986  12.840   8.611   6.825 -0.3448  0.4279  0.6781
  334MOL0     C43987  12.934   8.717   6.853 -0.0364 -0.0348 -0.6243
  334MOL0     C43988  13.049   8.672   6.918  0.6777 -0.7326 -0.2453
  334MOL0     C43989  13.158   8.760   6.940 -0.0050 -0.2356  0.1998
  334MOL0     C43990  13.148   8.897   6.923 -0.7985 -0.0997 -0.4689
  334MOL0     O43991  13.249   8.971   6.974 -0.5641  0.0832 -0.3973
  334MOL0     C43992  13.247   9.113   6.933 -0.4973  0.4269 -0.1646
  334MOL0     C43993  13.381   9.177   6.929 -0.2068 -0.2499 -0.7271
  334MOL0     C43994  13.481   9.113   6.825  0.3034  0.1414 -0.4441
  334MOL0     C43995  13.596   9.213   6.787 -0.2686 -0.1034  0.3269
  334MOL0     C43996  13.706   9.213   6.891  0.8489  0.4128  0.7462
  334MOL0     C43997  13.820   9.315   6.878  0.5078  0.0856  0.4529
  334MOL0     C43998  13.913   9.324   7.005  0.9185 -0.2903 -0.2160
  334MOL0     C43999  14.045   9.406   6.997  1.7180 -0.3574 -0.4012
  334MOL0    Cl44000  14.009   9.580   7.036 -0.4619 -0.0538  0.1049
  334MOL0     C44001  13.023   8.944   6.873 -0.4192 -0.1186 -0.6786
  334MOL0     C44002  12.919   8.854   6.837 -0.8116  0.8279 -0.3296
  334MOL0     O44003  12.730   8.714   6.650  0.3903  0.3992  0.2166
  334MOL0     C44004  12.609   8.450   6.865 -0.0973  0.0805  1.1063
  334MOL0     C44005  12.503   8.359   6.887 -0.8743  0.5276 -0.8763
  334MOL0     N44006  11.674   8.282   6.743 -0.1986 -0.3877  0.3343
  334MOL0     N44007  11.585   8.352   6.812 -0.1862  0.3253  0.5832
  334MOL0     C44008  11.065   9.074   7.479  0.6475 -0.4348  0.7897
  334MOL0     C44009  10.962   9.148   7.427  0.2369  0.0412  0.3551
  334MOL0     C44010  10.690   9.466   7.290 -0.2894 -0.6648  0.3190
  334MOL0     C44011  10.684   9.545   7.173 -0.3394  0.0126 -0.3523
  334MOL0     C44012  10.581   9.643   7.157  0.1519 -0.0788 -0.1828
  334MOL0     C44013  10.484   9.666   7.258 -0.5188 -1.4296 -0.7758
  334MOL0     O44014  10.398   9.774   7.247  0.1164 -0.4075  0.2506
  334MOL0     C44015  10.297   9.822   7.344 -0.6413  0.1632  0.8464
  334MOL0     C44016  10.163   9.756   7.327  0.3980 -0.1285  0.9148
  334MOL0     C44017  10.063   9.801   7.443 -0.3026  0.2355 -0.0285
  334MOL0     C44018   9.914   9.752   7.425 -1.5822 -0.5005 -0.1364
  334MOL0     C44019   9.846   9.818   7.538  0.5675  0.8411 -0.3171
  334MOL0     C44020   9.807   9.879   7.635  0.3416  0.0221 -0.7909
  334MOL0     C44021  10.482   9.574   7.366  0.1268 -0.2467  0.2477
  334MOL0     C44022  10.590   9.486   7.381 -0.5574  0.2028 -0.2966
  334MOL0     H44023  10.898   9.330   7.708  0.0771  2.8509 -1.2304
  334MOL0     H44024  11.062   9.179   7.801  1.2797 -0.5946 -0.8692
  334MOL0     H44025  11.156   8.833   7.551  0.6506  2.9117 -2.1447
  334MOL0     H44026  11.216   8.795   7.709  3.1866 -0.4401 -0.9051
  334MOL0     H44027  11.422   8.879   7.667  1.2653 -1.4858  0.4874
  334MOL0     H44028  11.363   8.965   7.517 -3.2790 -0.9653 -0.3208
  334MOL0     H44029  11.304   8.728   7.411  2.4701 -2.8509 -3.1452
  334MOL0     H44030  11.398   8.658   7.549 -0.5990 -2.7227 -2.7844
  334MOL0     H44031  11.516   8.856   7.350  2.6878  0.0362  0.5949
  334MOL0     H44032  11.599   8.748   7.464  0.4364 -1.6702 -1.2588
  334MOL0     H44033  11.406   8.684   7.231 -0.1619  1.0156  0.6624
  334MOL0     H44034  11.467   8.556   7.334  0.3423  0.9304  0.2357
  334MOL0     H44035  11.704   8.677   7.271  1.6247  1.0697 -1.9069
  334MOL0     H44036  11.615   8.751   7.150 -0.8069  0.1870  0.7692
  334MOL0     H44037  11.754   8.519   7.142  1.4130  1.0532 -3.2379
  334MOL0     H44038  11.591   8.449   7.167  2.6771 -2.2364 -1.1620
  334MOL0     H44039  11.645   8.642   6.946 -1.0488  0.7953 -0.3571
  334MOL0     H44040  11.495   8.544   6.962  0.3444 -0.1217 -1.4607
  334MOL0     H44041  11.885   8.479   6.897  2.0238 -4.4873  2.8290
  334MOL0     H44042  11.981   8.330   6.668  1.2057 -0.5000  1.1191
  334MOL0     H44043  11.896   8.165   6.661  3.0538 -0.2921 -2.2934
  334MOL0     H44044  11.942   8.127   6.910  0.0109  0.6626  2.2218
  334MOL0     H44045  12.037   8.274   6.908 -0.5360 -0.7483  0.0014
  334MOL0     H44046  12.159   8.046   6.862  1.3259 -0.7669 -1.4441
  334MOL0     H44047  12.073   8.037   6.713 -0.5823 -1.0622  1.8085
  334MOL0     H44048  12.181   8.287   6.667  1.8653 -0.0322 -1.5825
  334MOL0     H44049  12.281   8.143   6.652 -0.3941  1.1030 -0.0856
  334MOL0     H44050  12.367   8.381   6.579 -0.7151  0.5178 -0.4355
  334MOL0     H44051  12.538   8.541   6.546  3.0379 -0.7653 -0.6179
  334MOL0     H44052  13.041   8.568   6.946 -0.0259 -1.1485 -1.8781
  334MOL0     H44053  13.248   8.720   6.984  0.0645 -1.3212 -0.9042
  334MOL0     H44054  13.174   9.164   6.996 -0.5486  1.2115 -0.8562
  334MOL0     H44055  13.197   9.111   6.836 -0.2195  0.6052 -0.3131
  334MOL0     H44056  13.412   9.173   7.034  0.6091  1.9513 -0.8395
  334MOL0     H44057  13.375   9.284   6.908 -1.0959  0.6802  3.3802
  334MOL0     H44058  13.429   9.087   6.733 -0.6440 -0.2329  0.1866
  334MOL0     H44059  13.518   9.015   6.857  0.1062 -0.1793 -1.1917
  334MOL0     H44060  13.645   9.193   6.691  1.3856  1.3827  0.8105
  334MOL0     H44061  13.559   9.315   6.775 -0.8882  0.1761  3.6873
  334MOL0     H44062  13.739   9.110   6.909  0.5535  0.4653  1.6649
  334MOL0     H44063  13.665   9.228   6.991  0.4905 -2.5668  1.1311
  334MOL0     H44064  13.771   9.411   6.857 -2.7613 -0.9520  2.4905
  334MOL0     H44065  13.887   9.291   6.795 -0.5319 -2.2123  0.2122
  334MOL0     H44066  13.847   9.362   7.083  0.7160 -0.9463 -0.0554
  334MOL0     H44067  13.936   9.224   7.042 -1.1397 -0.9606 -0.6177
  334MOL0     H44068  14.089   9.395   6.897  1.4681 -1.7083 -0.3896
  334MOL0     H44069  14.123   9.369   7.065  1.5114 -1.2112 -0.6143
  334MOL0     H44070  13.010   9.052   6.881  2.2100  0.1293  2.9013
  334MOL0     H44071  12.824   8.890   6.798 -1.7672  1.8996  2.7048
  334MOL0     H44072  12.684   8.467   6.941  1.4828 -1.5314 -0.0237
  334MOL0     H44073  12.515   8.297   6.975  0.9640  2.5500  0.3977
  334MOL0     H44074  11.108   9.005   7.407  2.4722  0.2679  1.1402
  334MOL0     H44075  10.940   9.131   7.322 -3.7961 -3.5282  1.4720
  334MOL0     H44076  10.758   9.529   7.096 -0.3266  0.6263 -0.4735
  334MOL0     H44077  10.575   9.698   7.064 -0.7262  1.4995  0.7627
  334MOL0     H44078  10.275   9.927   7.325 -0.5159  0.0731  0.1555
  334MOL0     H44079  10.335   9.811   7.446  0.1292 -0.0512  0.5378
  334MOL0     H44080  10.123   9.780   7.228  1.5819 -4.4044 -0.7930
  334MOL0     H44081  10.174   9.648   7.320  0.8486 -0.1262  1.4948
  334MOL0     H44082  10.061   9.910   7.450  1.5828  0.3244 -0.3950
  334MOL0     H44083  10.105   9.762   7.537 -0.1309  0.6883  0.0817
  334MOL0     H44084   9.875   9.790   7.330 -1.4282 -1.2869 -0.5258
  334MOL0     H44085   9.915   9.643   7.436  0.8012 -0.7988 -2.4061
  334MOL0     H44086   9.751   9.940   7.702 -2.0445 -2.3748 -0.4368
  334MOL0     H44087  10.413   9.587   7.449 -0.9842  0.8703 -0.8155
  334MOL0     H44088  10.589   9.433   7.476 -1.9073 -0.1669 -0.4952
  335MOL0     O44089   6.546  10.334   8.546 -0.2198  0.3765  0.0242
  335MOL0     C44090   6.552  10.458   8.527  0.3428 -0.2335  0.4243
  335MOL0     O44091   6.452  10.541   8.528  0.3188  0.0754 -0.3171
  335MOL0     C44092   6.320  10.509   8.499 -0.1096 -0.2661 -0.5991
  335MOL0     C44093   6.237  10.604   8.439 -0.2188  0.0741  0.2949
  335MOL0     C44094   6.108  10.589   8.415  0.7022 -0.9510 -0.2085
  335MOL0     C44095   6.045  10.475   8.455  0.3575  0.2174  0.0008
  335MOL0     O44096   5.909  10.440   8.444 -0.5528 -0.0603 -0.8132
  335MOL0     C44097   5.833  10.532   8.372 -0.5323  0.0849 -0.9314
  335MOL0     C44098   5.695  10.478   8.401  0.6537 -0.5928  0.1061
  335MOL0     C44099   5.652  10.341   8.332 -0.5712 -0.9739 -0.3840
  335MOL0     C44100   5.550  10.258   8.416 -0.2589 -0.2833  0.6621
  335MOL0     C44101   5.413  10.331   8.432 -0.6335 -0.2000 -0.4855
  335MOL0     C44102   5.341  10.370   8.308 -0.1483  0.2745  0.6002
  335MOL0     C44103   5.190  10.393   8.314 -0.1268  1.1686  0.1142
  335MOL0     C44104   5.150  10.470   8.440  0.2642 -0.0532  0.1133
  335MOL0     N44105   5.211  10.606   8.442  0.6762  0.0366  0.1494
  335MOL0     C44106   5.159  10.705   8.352 -0.5442  1.1590  0.2495
  335MOL0     C44107   5.249  10.804   8.364 -0.5201 -0.5271 -0.0428
  335MOL0     C44108   5.252  10.924   8.275 -0.2962 -0.3016 -0.7842
  335MOL0     C44109   5.303  10.886   8.130  0.3930  0.1865  0.7845
  335MOL0     C44110   5.435  10.806   8.131  0.2824 -0.4798 -0.6406
  335MOL0     C44111   5.546  10.893   8.195  0.6211  0.0813 -0.5644
  335MOL0     O44112   5.667  10.807   8.196  0.0871  0.2711 -0.0964
  335MOL0     C44113   5.794  10.859   8.208  0.1531  0.5865 -0.7096
  335MOL0     C44114   5.894  10.789   8.141 -0.6319  0.0051  0.2242
  335MOL0     C44115   6.027  10.841   8.134  0.2724  0.2841  0.2242
  335MOL0     C44116   6.058  10.954   8.212  0.4847  0.5740 -0.6346
  335MOL0     C44117   6.210  10.995   8.227  1.2885 -0.1120  0.8019
  335MOL0     O44118   6.235  11.107   8.299  0.4048  0.8267 -0.7297
  335MOL0     C44119   6.365  11.145   8.310  0.5051  0.5974 -0.1426
  335MOL0     C44120   6.394  11.272   8.265 -0.3250  0.0580 -0.3749
  335MOL0     C44121   6.516  11.334   8.288 -0.0212 -0.4922  0.4414
  335MOL0     C44122   6.618  11.261   8.368 -0.1113  0.7312  0.7290
  335MOL0     O44123   6.734  11.315   8.415 -0.3251  0.9585  0.3117
  335MOL0     C44124   6.807  11.414   8.338 -0.3739 -0.5737  0.1233
  335MOL0     C44125   6.854  11.362   8.206  0.5329  0.0887 -0.1333
  335MOL0     C44126   7.004  11.328   8.219 -0.2803  0.1442  0.0970
  335MOL0     C44127   7.021  11.205   8.296  0.9757  0.5937 -0.2958
  335MOL0     C44128   7.156  11.136   8.269  0.0750 -0.9285  0.6959
  335MOL0     C44129   7.280  11.220   8.304 -0.7024  0.3745  0.5057
  335MOL0     C44130   7.400  11.128   8.294  0.0013  0.1806 -0.5649
  335MOL0     C44131   7.521  11.219   8.335 -0.6524  0.4170 -0.0681
  335MOL0    Cl44132   7.549  11.211   8.513  0.2491 -0.0801 -0.7460
  335MOL0     C44133   6.590  11.128   8.393 -0.1421  0.7271  0.2731
  335MOL0     C44134   6.467  11.066   8.371  0.7845  0.0391  0.7086
  335MOL0     O44135   6.291  10.930   8.164  0.1842 -0.8789 -0.4173
  335MOL0     C44136   5.961  11.021   8.287  0.1687  0.3079 -0.1055
  335MOL0     C44137   5.823  10.972   8.289 -0.5857  0.4881 -0.1575
  335MOL0     N44138   5.346  10.765   8.461 -0.5314 -0.4932 -0.2873
  335MOL0     N44139   5.323  10.647   8.504 -0.1030  0.3005  0.8851
  335MOL0     C44140   6.113  10.378   8.520 -0.0444  0.1978  0.9531
  335MOL0     C44141   6.249  10.396   8.547 -0.3783  0.1493 -1.0394
  335MOL0     C44142   6.685  10.509   8.480 -0.0125  0.3868  0.7024
  335MOL0     C44143   6.722  10.643   8.481  0.5004 -0.3845  1.4308
  335MOL0     C44144   6.849  10.686   8.433  0.1999  0.7403  0.0479
  335MOL0     C44145   6.945  10.590   8.387 -0.8988  0.4725  0.8634
  335MOL0     O44146   7.066  10.638   8.351 -0.1025  0.0019 -0.3923
  335MOL0     C44147   7.135  10.580   8.234  0.7487 -0.0126  0.2290
  335MOL0     C44148   7.252  10.669   8.206 -0.0166 -0.6858 -0.3445
  335MOL0     C44149   7.342  10.611   8.103  0.9033 -0.4280 -0.1345
  335MOL0     C44150   7.449  10.504   8.151 -0.3441 -0.2503  0.7279
  335MOL0     C44151   7.547  10.562   8.233 -0.2544  0.1596  0.4368
  335MOL0     C44152   7.619  10.634   8.299  0.2685 -1.0282  0.2725
  335MOL0     C44153   6.894  10.461   8.366 -0.2023 -0.2728 -1.1581
  335MOL0     C44154   6.770  10.420   8.404  0.9762  0.2804 -0.3105
  335MOL0     H44155   6.279  10.692   8.391 -2.4764  0.0696 -1.8612
  335MOL0     H44156   6.057  10.668   8.360 -1.4848 -1.1609  1.4141
  335MOL0     H44157   5.860  10.539   8.267  0.0602  2.1575 -0.6819
  335MOL0     H44158   5.837  10.628   8.425  1.5421 -2.5250  4.4843
  335MOL0     H44159   5.636  10.558   8.356  1.1973  0.4950  1.2564
  335MOL0     H44160   5.678  10.483   8.509  0.3077  1.6477 -0.0128
  335MOL0     H44161   5.745  10.284   8.333  0.5084  0.7174  0.6855
  335MOL0     H44162   5.618  10.354   8.229  0.9079  0.7957 -0.6927
  335MOL0     H44163   5.538  10.162   8.366  1.0783 -2.0213  3.3682
  335MOL0     H44164   5.603  10.257   8.513  1.8650  5.0264 -0.1113
  335MOL0     H44165   5.436  10.418   8.495 -0.4831 -1.6589  1.5484
  335MOL0     H44166   5.347  10.266   8.490 -0.5771  1.4197  1.5426
  335MOL0     H44167   5.355  10.287   8.238 -1.4124  0.4673  0.1029
  335MOL0     H44168   5.393  10.454   8.261  0.1783 -1.2525 -1.9344
  335MOL0     H44169   5.173  10.439   8.217 -2.7385  1.1188  0.4520
  335MOL0     H44170   5.141  10.296   8.304  1.0493  0.6039 -0.3385
  335MOL0     H44171   5.174  10.415   8.531  0.1315  1.5064  1.1293
  335MOL0     H44172   5.041  10.471   8.432  0.3781 -0.1164 -4.7290
  335MOL0     H44173   5.073  10.703   8.286 -2.8618 -0.4477  3.0972
  335MOL0     H44174   5.321  10.998   8.315  0.0553 -0.2805 -1.4115
  335MOL0     H44175   5.148  10.958   8.271 -0.4409 -0.6554 -0.1690
  335MOL0     H44176   5.316  10.975   8.067 -5.0404  0.0362 -1.0710
  335MOL0     H44177   5.227  10.827   8.078 -2.7783  2.6670  2.2486
  335MOL0     H44178   5.420  10.709   8.179  1.4538 -0.9991 -1.2835
  335MOL0     H44179   5.465  10.786   8.027  2.6113 -0.4811 -0.0246
  335MOL0     H44180   5.524  10.919   8.299 -0.0086  1.7316 -1.0824
  335MOL0     H44181   5.563  10.981   8.132 -0.1798 -1.1861 -2.6476
  335MOL0     H44182   5.884  10.697   8.084  3.1093 -0.7721  0.5331
  335MOL0     H44183   6.113  10.796   8.085  1.9922  3.8878 -0.4232
  335MOL0     H44184   6.318  11.340   8.227  1.5879  1.7796 -1.3166
  335MOL0     H44185   6.528  11.439   8.263  2.1880 -0.9138 -0.5390
  335MOL0     H44186   6.892  11.452   8.397 -1.3047  0.2553  0.9707
  335MOL0     H44187   6.743  11.502   8.321 -0.3988 -0.1784  2.0805
  335MOL0     H44188   6.845  11.438   8.128 -2.7078 -0.0724 -0.0556
  335MOL0     H44189   6.798  11.274   8.172  0.0112  1.5598 -3.4270
  335MOL0     H44190   7.072  11.406   8.256  2.6626 -1.8628 -0.7317
  335MOL0     H44191   7.040  11.309   8.118 -3.5952  0.7755 -1.3550
  335MOL0     H44192   7.032  11.253   8.393 -0.1367  1.0286 -0.3760
  335MOL0     H44193   6.933  11.141   8.296 -0.9614  3.1260 -0.6458
  335MOL0     H44194   7.179  11.100   8.169  3.1383 -0.4224  1.1197
  335MOL0     H44195   7.152  11.051   8.338 -1.4981 -0.3148  1.4291
  335MOL0     H44196   7.273  11.250   8.409 -0.5398  0.8454  0.3822
  335MOL0     H44197   7.298  11.304   8.237 -0.9360  1.0784  1.3094
  335MOL0     H44198   7.388  11.039   8.357 -2.9356  0.5277 -0.4940
  335MOL0     H44199   7.400  11.108   8.187  0.6979 -0.5634 -0.4356
  335MOL0     H44200   7.506  11.323   8.304 -0.8847 -0.8890 -5.2537
  335MOL0     H44201   7.615  11.191   8.287 -0.8639  0.2938 -0.4098
  335MOL0     H44202   6.653  11.053   8.439 -1.1085 -1.0936 -1.2033
  335MOL0     H44203   6.450  10.968   8.414  0.7736 -0.0030  0.6074
  335MOL0     H44204   5.995  11.102   8.351  0.1963  0.1094  0.1320
  335MOL0     H44205   5.749  11.024   8.349 -1.5573 -2.1859  1.1462
  335MOL0     H44206   6.064  10.294   8.568  0.1389 -0.5091 -0.0715
  335MOL0     H44207   6.307  10.316   8.593  0.2579  1.0660 -0.1953
  335MOL0     H44208   6.661  10.722   8.522 -2.4565 -0.8197 -1.6637
  335MOL0     H44209   6.877  10.790   8.424  1.1562  0.7284  2.1371
  335MOL0     H44210   7.081  10.579   8.139  0.2329  0.0918  0.5160
  335MOL0     H44211   7.165  10.477   8.255 -0.4575 -0.9105 -2.1691
  335MOL0     H44212   7.227  10.770   8.174  3.5783  0.8167  1.0924
  335MOL0     H44213   7.312  10.685   8.296  1.5118 -0.8154 -1.3000
  335MOL0     H44214   7.393  10.693   8.053 -1.7025  1.2275 -0.3085
  335MOL0     H44215   7.281  10.562   8.026 -1.2960 -0.0974  1.2991
  335MOL0     H44216   7.388  10.433   8.209 -0.1935 -0.8397  0.1718
  335MOL0     H44217   7.492  10.448   8.068  0.2512  2.7357 -1.1295
  335MOL0     H44218   7.674  10.710   8.351 -0.4002  0.2305 -0.7727
  335MOL0     H44219   6.965  10.388   8.328 -2.0520 -3.1598  0.5250
  335MOL0     H44220   6.738  10.318   8.385 -0.7064  0.6407  0.4032
  336MOL0     O44221   1.616  10.712   7.579  0.0646  0.1149 -0.1056
  336MOL0     C44222   1.597  10.678   7.462  0.9627  0.0107  0.3282
  336MOL0     O44223   1.480  10.606   7.416 -0.4917  0.4431 -0.2734
  336MOL0     C44224   1.411  10.519   7.494 -0.3322 -0.0617  0.2118
  336MOL0     C44225   1.304  10.452   7.434  0.0522 -0.2666  0.5590
  336MOL0     C44226   1.231  10.352   7.508 -0.3946  1.0406  0.1696
  336MOL0     C44227   1.250  10.331   7.642  0.3208 -1.0812 -0.4232
  336MOL0     O44228   1.162  10.246   7.696 -0.5032 -0.9075  0.4381
  336MOL0     C44229   1.145  10.241   7.841 -0.5468 -0.5742  0.5107
  336MOL0     C44230   1.033  10.152   7.891  1.1919 -0.1562  0.1655
  336MOL0     C44231   0.893  10.217   7.854 -0.5083  0.1919 -0.1126
  336MOL0     C44232   0.846  10.189   7.712 -0.5841  0.2578  0.0143
  336MOL0     C44233   0.714  10.265   7.701 -0.1524  0.5645  0.7386
  336MOL0     C44234   0.682  10.274   7.547 -0.6539 -0.4579 -0.1516
  336MOL0     C44235   0.561  10.357   7.513  0.1779 -0.0834  0.2024
  336MOL0     C44236   0.495  10.325   7.380  0.8505 -0.8073 -0.0930
  336MOL0     N44237   0.381  10.407   7.343 -1.1375  0.0579 -0.8178
  336MOL0     C44238   0.280  10.368   7.266  0.0755  0.0104 -0.8960
  336MOL0     C44239   0.195  10.473   7.252 -0.9977 -0.4711 -0.9467
  336MOL0     C44240   0.065  10.472   7.171 -0.0143  0.2856 -0.1035
  336MOL0     C44241  -0.035  10.581   7.225  0.2551  0.5945 -0.2052
  336MOL0     C44242  -0.148  10.613   7.131 -0.2043  0.2103 -0.4143
  336MOL0     C44243  -0.252  10.686   7.219  1.3773  0.6246 -0.4125
  336MOL0     O44244  -0.338  10.613   7.297 -0.2403 -0.1037  0.2550
  336MOL0     C44245  -0.472  10.659   7.304 -0.5841  0.0463 -0.1320
  336MOL0     C44246  -0.575  10.569   7.361  0.1931 -0.4356 -0.4656
  336MOL0     C44247  -0.709  10.605   7.362  0.8298  0.3582  0.9081
  336MOL0     C44248  -0.747  10.726   7.306  0.3620  0.4396 -0.2722
  336MOL0     C44249  -0.890  10.758   7.279 -1.0276 -0.2938 -0.7418
  336MOL0     O44250  -0.981  10.658   7.282  0.1384 -0.1556  0.2780
  336MOL0     C44251  -1.116  10.680   7.253  0.3129 -0.2963  1.1886
  336MOL0     C44252  -1.161  10.631   7.133 -0.6077  0.3835 -0.6822
  336MOL0     C44253  -1.294  10.620   7.102  0.5375 -0.2433 -0.1179
  336MOL0     C44254  -1.389  10.679   7.188  0.5681 -0.7492 -0.4292
  336MOL0     O44255  -1.525  10.695   7.157 -0.3109 -0.3640  0.1304
  336MOL0     C44256  -1.572  10.609   7.057 -0.0154  0.4652 -0.2231
  336MOL0     C44257  -1.724  10.576   7.065 -0.0270 -0.3551 -0.7853
  336MOL0     C44258  -1.773  10.551   7.210 -0.9523 -0.4794  0.1814
  336MOL0     C44259  -1.734  10.420   7.266  0.2250  0.1809  0.1865
  336MOL0     C44260  -1.589  10.411   7.326 -0.1355  0.1271 -0.4520
  336MOL0     C44261  -1.566  10.269   7.362  0.7962 -0.2511  0.0046
  336MOL0     C44262  -1.451  10.220   7.450 -0.6515 -1.1445 -0.5456
  336MOL0     C44263  -1.316  10.285   7.432  0.0764  0.2094  0.4697
  336MOL0    Cl44264  -1.297  10.442   7.501  0.2217  0.3010  0.5191
  336MOL0     C44265  -1.342  10.727   7.312 -0.4350  0.1723 -0.2712
  336MOL0     C44266  -1.205  10.731   7.341 -0.8407 -0.0343 -0.5518
  336MOL0     O44267  -0.917  10.876   7.258  0.9691 -1.3948  0.7755
  336MOL0     C44268  -0.646  10.819   7.269  0.3293  0.5433  0.2842
  336MOL0     C44269  -0.509  10.787   7.258 -0.3881  0.4648 -1.1846
  336MOL0     N44270   0.262  10.579   7.308 -0.2844 -0.4473  0.6114
  336MOL0     N44271   0.375  10.538   7.367  0.5427  0.3425 -0.7063
  336MOL0     C44272   1.359  10.391   7.706 -0.1992  0.2685 -0.3171
  336MOL0     C44273   1.443  10.475   7.628 -0.5598  0.2137 -0.3390
  336MOL0     C44274   1.692  10.729   7.364 -0.0888  0.4553 -0.0894
  336MOL0     C44275   1.818  10.777   7.407  1.0783  0.3446  0.2822
  336MOL0     C44276   1.918  10.824   7.316  0.2740 -0.1416 -0.3812
  336MOL0     C44277   1.897  10.817   7.178  0.5534 -0.4649 -0.5869
  336MOL0     O44278   2.004  10.850   7.103 -0.2426  0.4679 -0.3606
  336MOL0     C44279   1.964  10.931   6.992  0.0950  0.3693  0.2405
  336MOL0     C44280   2.021  11.069   7.006  0.5001  0.3811  0.6447
  336MOL0     C44281   2.161  11.093   7.050  0.1366 -0.1798  0.4619
  336MOL0     C44282   2.249  11.108   6.925 -0.5649 -0.9854  0.5235
  336MOL0     C44283   2.395  11.136   6.958 -0.4690  0.9940 -0.0728
  336MOL0     C44284   2.510  11.180   6.989  0.4421 -0.6073 -0.1740
  336MOL0     C44285   1.780  10.752   7.128  0.1505  0.0879 -0.1967
  336MOL0     C44286   1.685  10.702   7.228  0.8948 -0.2694  0.5837
  336MOL0     H44287   1.284  10.475   7.330  1.4125  0.3157  0.4025
  336MOL0     H44288   1.146  10.305   7.459  1.3785 -3.2964  0.7307
  336MOL0     H44289   1.129  10.346   7.867 -1.7494 -0.0848 -1.9367
  336MOL0     H44290   1.232  10.191   7.884  0.1029 -1.5880 -1.8130
  336MOL0     H44291   1.045  10.128   7.997 -0.7425  0.8665  0.6551
  336MOL0     H44292   1.046  10.057   7.838  2.1463  0.9841 -1.7534
  336MOL0     H44293   0.888  10.326   7.862  1.1844  0.3413 -0.7245
  336MOL0     H44294   0.822  10.189   7.933 -0.4974 -1.3955 -0.6426
  336MOL0     H44295   0.923  10.214   7.638 -0.1185 -1.3080 -0.0561
  336MOL0     H44296   0.818  10.083   7.712 -2.5969  0.7515  0.8439
  336MOL0     H44297   0.723  10.366   7.743 -5.2067  0.9332  1.4892
  336MOL0     H44298   0.637  10.222   7.765 -0.1897  1.1366  1.0922
  336MOL0     H44299   0.661  10.176   7.503 -1.8000 -0.0633 -0.5312
  336MOL0     H44300   0.769  10.326   7.506 -1.6656  0.3057 -1.4308
  336MOL0     H44301   0.490  10.328   7.592 -0.0093  0.9290  0.4235
  336MOL0     H44302   0.589  10.463   7.510 -0.6125  0.1165 -0.4825
  336MOL0     H44303   0.455  10.224   7.371  0.3961 -0.4747 -2.3197
  336MOL0     H44304   0.580  10.324   7.311  0.7473 -1.2670 -0.2162
  336MOL0     H44305   0.272  10.263   7.241 -2.3309  0.2143 -1.2673
  336MOL0     H44306   0.015  10.375   7.161  0.7222 -0.1430  0.2903
  336MOL0     H44307   0.102  10.500   7.073  0.5333 -2.5231 -0.7797
  336MOL0     H44308   0.023  10.673   7.231  0.6764  0.2652  0.9768
  336MOL0     H44309  -0.067  10.549   7.325  1.1062 -2.1297 -0.7263
  336MOL0     H44310  -0.118  10.664   7.039 -0.8372 -2.2047 -2.0593
  336MOL0     H44311  -0.201  10.522   7.102  0.6741 -1.4075  2.6746
  336MOL0     H44312  -0.308  10.730   7.136 -0.3356  2.8194  1.7987
  336MOL0     H44313  -0.201  10.761   7.280  3.4543 -2.7777  2.4369
  336MOL0     H44314  -0.548  10.474   7.406  1.0605 -0.0400 -0.1194
  336MOL0     H44315  -0.784  10.536   7.399 -0.3144  0.8011 -0.4520
  336MOL0     H44316  -1.084  10.606   7.060 -0.3594  4.2506 -1.9510
  336MOL0     H44317  -1.324  10.581   7.005  0.3874 -1.7644  0.5152
  336MOL0     H44318  -1.522  10.512   7.062 -1.0933 -0.0650  0.6166
  336MOL0     H44319  -1.538  10.651   6.961 -1.2880 -0.4900 -1.1374
  336MOL0     H44320  -1.753  10.485   7.011 -3.7937 -0.3970  0.9785
  336MOL0     H44321  -1.779  10.660   7.021 -3.4649  0.0869  3.6479
  336MOL0     H44322  -1.882  10.537   7.207 -0.9697 -0.5908 -3.3628
  336MOL0     H44323  -1.740  10.640   7.265 -0.8190  0.0681 -0.7539
  336MOL0     H44324  -1.810  10.387   7.338 -1.4622  0.0064 -1.6014
  336MOL0     H44325  -1.741  10.353   7.181 -0.2041  1.9268 -1.2229
  336MOL0     H44326  -1.587  10.465   7.421  0.7487 -1.1384  0.2906
  336MOL0     H44327  -1.516  10.452   7.256  0.0125  1.3604  0.3853
  336MOL0     H44328  -1.555  10.221   7.264 -2.9983 -0.6574 -0.3688
  336MOL0     H44329  -1.661  10.232   7.401  0.4495  0.0695 -0.5119
  336MOL0     H44330  -1.486  10.226   7.553 -1.4701 -1.1697 -0.8129
  336MOL0     H44331  -1.447  10.115   7.418 -4.1260 -0.9120 -2.2237
  336MOL0     H44332  -1.296  10.293   7.325  1.2783  0.4084  0.6961
  336MOL0     H44333  -1.247  10.213   7.476  0.6353  0.1996 -0.4004
  336MOL0     H44334  -1.409  10.775   7.382 -1.4983 -3.6070  1.5600
  336MOL0     H44335  -1.174  10.765   7.439 -1.1951  1.4905 -0.9494
  336MOL0     H44336  -0.672  10.919   7.235  0.7663 -0.1583 -2.2565
  336MOL0     H44337  -0.451  10.873   7.225  1.0369  0.4320  1.0357
  336MOL0     H44338   1.374  10.362   7.809  0.6124 -2.4824 -1.1406
  336MOL0     H44339   1.529  10.504   7.688 -1.5737 -0.7879  1.6825
  336MOL0     H44340   1.848  10.797   7.510  2.0380  1.8495 -0.2450
  336MOL0     H44341   2.009  10.867   7.356  0.0942 -0.5936  0.5205
  336MOL0     H44342   1.856  10.933   6.976  0.2229 -0.8294 -1.0278
  336MOL0     H44343   1.996  10.890   6.895  0.1310  0.4381  0.2233
  336MOL0     H44344   2.003  11.114   6.907  3.7211  2.0751  0.7123
  336MOL0     H44345   1.957  11.116   7.081  0.6273  0.7616  0.5150
  336MOL0     H44346   2.188  11.015   7.121 -1.2585 -0.0869  1.1139
  336MOL0     H44347   2.178  11.189   7.101  1.9824  0.0183 -0.4110
  336MOL0     H44348   2.251  11.016   6.865  2.9903  0.3964 -1.7527
  336MOL0     H44349   2.210  11.186   6.858  0.2002 -1.2193 -0.2208
  336MOL0     H44350   2.602  11.230   7.011 -1.9262  2.6118  3.6714
  336MOL0     H44351   1.765  10.737   7.022 -2.0200  0.7974 -0.0431
  336MOL0     H44352   1.591  10.655   7.199 -1.0537  3.0361  1.0653
  337MOL0     O44353   5.629   3.989   6.714 -0.7982  0.0254 -0.1737
  337MOL0     C44354   5.730   3.992   6.785  0.7395  0.2802 -0.1209
  337MOL0     O44355   5.739   4.041   6.911  1.8585  0.5210  0.3339
  337MOL0     C44356   5.635   4.109   6.964  0.3632  0.8996 -0.5618
  337MOL0     C44357   5.588   4.056   7.082  0.4609 -0.3170 -0.2918
  337MOL0     C44358   5.482   4.119   7.158 -0.1721  1.0545  0.5453
  337MOL0     C44359   5.434   4.240   7.106  0.3288 -0.0291 -0.1709
  337MOL0     O44360   5.346   4.320   7.171 -0.5358 -0.6000 -0.5654
  337MOL0     C44361   5.241   4.252   7.238 -0.4436  0.8516  0.0784
  337MOL0     C44362   5.133   4.353   7.248  0.5196 -0.0519 -0.4322
  337MOL0     C44363   5.023   4.312   7.353  0.1618 -0.4539 -0.3989
  337MOL0     C44364   4.932   4.187   7.308 -0.5760 -0.1838  0.4506
  337MOL0     C44365   4.795   4.185   7.377  0.1820 -0.2814 -0.1754
  337MOL0     C44366   4.804   4.160   7.530 -0.2454  0.4991 -0.0776
  337MOL0     C44367   4.664   4.161   7.579 -0.2174  0.3463  0.6279
  337MOL0     C44368   4.606   4.019   7.573 -0.6878  0.2964  0.0843
  337MOL0     N44369   4.461   4.017   7.604 -1.5065 -0.1371 -0.3248
  337MOL0     C44370   4.372   4.062   7.522  0.4899 -0.4076 -0.1257
  337MOL0     C44371   4.259   4.041   7.596 -0.5019  0.1004 -0.1788
  337MOL0     C44372   4.115   4.075   7.564 -0.4238  0.2096  0.7029
  337MOL0     C44373   4.093   4.230   7.560  0.1362  0.7628  0.0663
  337MOL0     C44374   4.104   4.291   7.703 -0.2114  0.0512  0.2127
  337MOL0     C44375   3.973   4.275   7.781  0.1215 -1.0647  0.3166
  337MOL0     O44376   3.855   4.325   7.710 -0.9650 -0.3250 -0.0862
  337MOL0     C44377   3.734   4.346   7.770 -1.3317 -0.2417  0.4005
  337MOL0     C44378   3.646   4.426   7.702 -0.3678  0.8231 -0.4838
  337MOL0     C44379   3.532   4.469   7.764  1.1912 -0.8531  0.0096
  337MOL0     C44380   3.485   4.413   7.886  0.4001  0.1298 -0.4967
  337MOL0     C44381   3.350   4.453   7.935  0.2095  0.0124 -0.4138
  337MOL0     O44382   3.287   4.565   7.882  0.6820  0.5020 -0.0458
  337MOL0     C44383   3.158   4.599   7.930 -0.4840  0.4235  0.4924
  337MOL0     C44384   3.147   4.704   8.023  0.2859 -1.1616  0.5379
  337MOL0     C44385   3.030   4.748   8.080  0.8355  0.1431 -0.7739
  337MOL0     C44386   2.917   4.678   8.056 -0.2205  0.3224  0.4536
  337MOL0     O44387   2.796   4.693   8.117 -0.2287 -0.1983 -0.2026
  337MOL0     C44388   2.781   4.805   8.221 -0.8574  0.8351  1.1762
  337MOL0     C44389   2.745   4.935   8.144 -1.2277 -0.1482  0.3380
  337MOL0     C44390   2.601   4.951   8.105 -0.9803 -0.6274 -0.3239
  337MOL0     C44391   2.547   4.836   8.017 -0.7852 -0.3772  0.4461
  337MOL0     C44392   2.394   4.842   8.003 -0.0428  0.0804 -0.3331
  337MOL0     C44393   2.347   4.717   7.916  0.2091 -0.2618 -0.7806
  337MOL0     C44394   2.206   4.730   7.864  0.7905  0.3341  0.0558
  337MOL0     C44395   2.101   4.748   7.979 -0.0502 -0.2440 -0.3030
  337MOL0    Cl44396   1.932   4.713   7.919  0.3225 -0.0064  0.0438
  337MOL0     C44397   2.926   4.570   7.964 -0.0919  0.4539  0.3015
  337MOL0     C44398   3.042   4.535   7.903 -0.7662  0.1969  0.2744
  337MOL0     O44399   3.302   4.379   8.020 -0.0577  0.0609  0.4112
  337MOL0     C44400   3.570   4.316   7.939  0.8028  0.6481 -1.4148
  337MOL0     C44401   3.696   4.282   7.882  0.0794  0.7600  0.4344
  337MOL0     N44402   4.282   3.953   7.701  0.4409 -0.2325  0.4351
  337MOL0     N44403   4.412   3.951   7.712  0.3796  0.2503  0.1479
  337MOL0     C44404   5.485   4.299   6.988 -0.4473  1.4459 -0.6251
  337MOL0     C44405   5.581   4.234   6.920 -0.1836 -0.1858  1.0440
  337MOL0     C44406   5.850   3.926   6.718 -0.5662 -0.1862  0.2446
  337MOL0     C44407   5.962   3.879   6.788 -0.7622  0.0615 -0.4441
  337MOL0     C44408   6.062   3.827   6.713  0.2407 -0.0208  0.6504
  337MOL0     C44409   6.057   3.809   6.564  0.6838 -0.3633  0.5421
  337MOL0     O44410   6.145   3.735   6.498  0.1791  0.1788 -0.5843
  337MOL0     C44411   6.257   3.666   6.559  0.0581 -0.7128  0.1098
  337MOL0     C44412   6.355   3.625   6.445 -0.0152  0.2141 -0.3747
  337MOL0     C44413   6.452   3.523   6.490  0.2645  0.0434  0.5123
  337MOL0     C44414   6.573   3.521   6.397  0.1264  0.4030  0.0824
  337MOL0     C44415   6.684   3.590   6.463  0.2182 -0.1287  1.0457
  337MOL0     C44416   6.774   3.630   6.529  0.0871 -0.6772 -0.1931
  337MOL0     C44417   5.958   3.871   6.493  0.0723  0.4183  0.0894
  337MOL0     C44418   5.854   3.922   6.575 -0.8419 -0.5220  0.9868
  337MOL0     H44419   5.635   3.970   7.128  2.5928  1.2160  0.5576
  337MOL0     H44420   5.463   4.076   7.256  3.0751  1.9319  1.6891
  337MOL0     H44421   5.262   4.229   7.343 -0.4416  2.3101  0.4209
  337MOL0     H44422   5.209   4.167   7.178  0.2589 -0.5321  1.6143
  337MOL0     H44423   5.087   4.365   7.149 -3.7045 -1.2642  1.1760
  337MOL0     H44424   5.172   4.450   7.279 -1.6792  0.9889 -0.7217
  337MOL0     H44425   4.961   4.398   7.379  1.4274 -0.1094  1.7611
  337MOL0     H44426   5.072   4.275   7.444 -0.3890 -1.0039 -0.3219
  337MOL0     H44427   4.923   4.185   7.199  0.1374 -1.5401  0.3813
  337MOL0     H44428   4.977   4.089   7.328 -0.9601  0.1258  3.2497
  337MOL0     H44429   4.739   4.098   7.341  2.4507 -2.7794  1.8611
  337MOL0     H44430   4.736   4.271   7.343  1.8285 -0.7328 -4.9792
  337MOL0     H44431   4.866   4.246   7.557  2.7600 -1.7078  0.6675
  337MOL0     H44432   4.865   4.074   7.560 -1.1191  1.0959  3.9360
  337MOL0     H44433   4.665   4.197   7.682  1.0091  2.0339  0.0506
  337MOL0     H44434   4.592   4.217   7.518  0.6155  0.9386  0.1789
  337MOL0     H44435   4.663   3.959   7.644 -1.0053  1.6598  1.5248
  337MOL0     H44436   4.614   3.980   7.471 -1.4522 -0.1358  0.1818
  337MOL0     H44437   4.379   4.115   7.427 -1.3392 -1.8948 -1.1691
  337MOL0     H44438   4.045   4.030   7.634 -0.3068 -2.2563 -0.6695
  337MOL0     H44439   4.099   4.034   7.464 -1.5413 -1.2872  1.4512
  337MOL0     H44440   3.995   4.251   7.516  0.2288  0.1228 -0.4530
  337MOL0     H44441   4.171   4.277   7.499  1.3982  0.5422  1.4541
  337MOL0     H44442   4.190   4.248   7.755  0.7723 -0.0449 -1.3990
  337MOL0     H44443   4.118   4.399   7.693 -0.1512  0.0640  0.4404
  337MOL0     H44444   3.997   4.337   7.868  1.2767 -0.6076 -0.2972
  337MOL0     H44445   3.948   4.171   7.805  1.3527 -1.4083  0.1482
  337MOL0     H44446   3.688   4.475   7.614 -2.2242  0.1592 -1.8105
  337MOL0     H44447   3.481   4.560   7.733  0.5795 -1.2494 -0.1680
  337MOL0     H44448   3.232   4.769   8.042 -1.3863  2.4723 -3.0667
  337MOL0     H44449   3.051   4.838   8.136  0.6208 -0.7216  0.7453
  337MOL0     H44450   2.855   4.814   8.301  0.0315  0.8361  0.3790
  337MOL0     H44451   2.694   4.781   8.283 -0.1708 -2.7467  1.0200
  337MOL0     H44452   2.805   4.950   8.054 -5.3212  1.0072 -2.4796
  337MOL0     H44453   2.776   5.023   8.203 -0.8543  1.4209 -2.0486
  337MOL0     H44454   2.586   5.036   8.038  1.8165  0.0325 -0.2195
  337MOL0     H44455   2.546   4.950   8.199 -2.7876 -1.5390 -1.3322
  337MOL0     H44456   2.600   4.857   7.924  2.7206  0.7427  2.4792
  337MOL0     H44457   2.574   4.742   8.067  2.1458  0.4139  0.5844
  337MOL0     H44458   2.364   4.934   7.953 -1.4173 -0.9040 -1.3858
  337MOL0     H44459   2.351   4.839   8.103 -1.6893 -0.8182 -1.0218
  337MOL0     H44460   2.354   4.627   7.978  2.0540  1.2838  1.4701
  337MOL0     H44461   2.405   4.716   7.824  1.6199  0.5260  0.0580
  337MOL0     H44462   2.188   4.808   7.789  2.4904  0.0202 -0.7093
  337MOL0     H44463   2.192   4.628   7.828  0.0565  0.2281  0.6207
  337MOL0     H44464   2.112   4.852   8.013  2.8242  0.1699 -2.1639
  337MOL0     H44465   2.133   4.683   8.061  0.9604 -1.3161 -1.5095
  337MOL0     H44466   2.843   4.501   7.964 -0.3433  0.7517  0.3895
  337MOL0     H44467   3.030   4.454   7.832  1.2231 -1.0558  1.2897
  337MOL0     H44468   3.523   4.257   8.017 -3.5890  2.1116 -2.6387
  337MOL0     H44469   3.749   4.206   7.939 -0.1368  2.3260  2.8858
  337MOL0     H44470   5.424   4.383   6.958 -1.6379  2.0834  3.0966
  337MOL0     H44471   5.619   4.290   6.834 -1.4964  0.6499  0.9765
  337MOL0     H44472   5.976   3.893   6.894 -2.2025  0.3562 -0.2764
  337MOL0     H44473   6.152   3.803   6.768  0.3112  0.3358  0.6972
  337MOL0     H44474   6.225   3.573   6.608  1.5796 -1.4543 -0.2459
  337MOL0     H44475   6.305   3.730   6.634  1.3092 -0.9107 -0.5034
  337MOL0     H44476   6.294   3.580   6.366  0.9588 -1.0529 -0.4386
  337MOL0     H44477   6.393   3.716   6.398  0.2440  1.2662  1.7281
  337MOL0     H44478   6.411   3.421   6.488 -1.1415  0.5210  2.3137
  337MOL0     H44479   6.491   3.553   6.587  1.1380 -1.1722  0.5614
  337MOL0     H44480   6.602   3.418   6.378  1.9414  1.0007 -0.5953
  337MOL0     H44481   6.560   3.580   6.305 -2.1465  1.8375  1.2168
  337MOL0     H44482   6.864   3.645   6.584  0.1467 -2.0916  0.1525
  337MOL0     H44483   5.951   3.854   6.386 -0.1152 -1.5148  0.3814
  337MOL0     H44484   5.773   3.976   6.526  1.0900  0.5002 -1.2935
  338MOL0     O44485   7.488   4.228  11.201 -0.1200  0.4240 -1.0067
  338MOL0     C44486   7.438   4.165  11.294 -0.1538  0.6488  0.1514
  338MOL0     O44487   7.305   4.157  11.325 -0.3550 -0.7837  0.2718
  338MOL0     C44488   7.200   4.195  11.240 -0.4282  0.5479  0.1629
  338MOL0     C44489   7.182   4.326  11.191  0.6112 -0.4618  0.1066
  338MOL0     C44490   7.084   4.353  11.096  0.1697 -0.2554 -0.7557
  338MOL0     C44491   6.993   4.255  11.061 -0.0093 -0.0335 -0.3124
  338MOL0     O44492   6.891   4.272  10.966  0.4169 -0.4412 -0.6653
  338MOL0     C44493   6.850   4.403  10.932  0.9124  0.3129 -0.2164
  338MOL0     C44494   6.757   4.390  10.806 -0.4474 -1.3341 -1.2799
  338MOL0     C44495   6.709   4.533  10.767 -0.7459 -0.4467  1.6589
  338MOL0     C44496   6.641   4.526  10.631  0.6248  0.0246  0.3773
  338MOL0     C44497   6.507   4.606  10.616  0.1579  0.4119 -0.0519
  338MOL0     C44498   6.516   4.761  10.614 -0.9689  0.6204 -0.8166
  338MOL0     C44499   6.608   4.810  10.493  0.1790 -0.4935 -0.1711
  338MOL0     C44500   6.575   4.765  10.359 -0.5468  0.1965 -0.1031
  338MOL0     N44501   6.653   4.823  10.252 -0.5301 -0.0557  0.1683
  338MOL0     C44502   6.789   4.821  10.238  0.1317  0.4050  0.0166
  338MOL0     C44503   6.806   4.863  10.106 -0.9269  0.0824 -0.5135
  338MOL0     C44504   6.937   4.885  10.043 -0.0834 -0.3972 -0.4501
  338MOL0     C44505   7.001   5.020  10.079  0.1579  0.4776  0.1496
  338MOL0     C44506   7.151   5.036  10.014  0.9376  0.7071 -0.2381
  338MOL0     C44507   7.250   4.941  10.091 -0.1924  0.1572 -0.0795
  338MOL0     O44508   7.259   4.817  10.021 -0.6676  0.2407  0.0281
  338MOL0     C44509   7.382   4.752  10.030  0.2954 -0.6690 -0.2225
  338MOL0     C44510   7.405   4.686   9.912 -0.4741  0.4953 -0.2640
  338MOL0     C44511   7.521   4.604   9.905  0.4125  0.4869 -0.6646
  338MOL0     C44512   7.621   4.604  10.010  0.5463  0.1695 -0.1058
  338MOL0     C44513   7.736   4.514  10.002  0.0797  0.0912  0.8899
  338MOL0     O44514   7.786   4.499   9.879  0.2090  0.3276  0.4957
  338MOL0     C44515   7.880   4.403   9.847 -0.2618  0.8378  0.6495
  338MOL0     C44516   7.871   4.323   9.729 -0.1735  0.4787  0.1667
  338MOL0     C44517   7.976   4.228   9.696 -0.0375  0.0057 -0.3167
  338MOL0     C44518   8.088   4.222   9.773  0.0307 -0.4400  0.2278
  338MOL0     O44519   8.188   4.133   9.753  0.2106  0.3575  0.4328
  338MOL0     C44520   8.157   3.996   9.788  0.0476 -0.1705  0.8825
  338MOL0     C44521   8.179   3.902   9.668  0.3242  0.2485 -0.0285
  338MOL0     C44522   8.170   3.765   9.733 -0.1671 -0.5257 -0.2923
  338MOL0     C44523   8.315   3.715   9.763 -0.7600 -0.1248  0.1624
  338MOL0     C44524   8.313   3.570   9.801 -0.7297 -0.1350 -0.4160
  338MOL0     C44525   8.447   3.509   9.851  0.2008 -0.9362  0.2912
  338MOL0     C44526   8.422   3.385   9.934 -0.3949  0.5961  0.2684
  338MOL0     C44527   8.342   3.388  10.067  0.4658 -0.0946  0.1697
  338MOL0    Cl44528   8.316   3.218  10.124 -0.3223 -0.0113 -0.1506
  338MOL0     C44529   8.097   4.313   9.882 -0.5456  0.5006  0.3898
  338MOL0     C44530   8.001   4.395   9.922 -0.3173 -1.0366 -0.3095
  338MOL0     O44531   7.775   4.468  10.107  0.6589  0.4140 -0.4001
  338MOL0     C44532   7.595   4.683  10.117 -0.5667 -0.5158 -0.6871
  338MOL0     C44533   7.477   4.756  10.129  0.0356 -0.4235  0.3227
  338MOL0     N44534   6.687   4.882  10.046  0.6562 -0.8779 -0.1723
  338MOL0     N44535   6.600   4.867  10.138  0.2039 -0.0903 -0.2968
  338MOL0     C44536   7.022   4.122  11.104  0.6932  0.0980 -0.3189
  338MOL0     C44537   7.126   4.097  11.191  0.6438  0.3600 -0.3492
  338MOL0     C44538   7.526   4.085  11.380 -0.2981  0.3809 -0.1543
  338MOL0     C44539   7.466   4.024  11.487 -0.1138  0.2892  0.5135
  338MOL0     C44540   7.548   3.948  11.571 -0.8963 -0.0135 -1.3392
  338MOL0     C44541   7.682   3.932  11.551 -0.1626  0.0916 -0.2359
  338MOL0     O44542   7.750   3.873  11.656 -0.8663 -0.3055  0.0888
  338MOL0     C44543   7.890   3.845  11.657  0.2413 -0.8779  0.9006
  338MOL0     C44544   7.913   3.722  11.565 -0.1343  0.6405  0.1585
  338MOL0     C44545   7.891   3.590  11.633  0.4076 -0.3381 -0.1377
  338MOL0     C44546   7.977   3.554  11.758  0.0426 -0.2256 -0.5901
  338MOL0     C44547   8.117   3.534  11.718 -0.2460 -0.5625 -0.2615
  338MOL0     C44548   8.218   3.494  11.669  0.1221  0.4634  0.2425
  338MOL0     C44549   7.740   3.988  11.434 -0.4124  0.1150 -0.5964
  338MOL0     C44550   7.665   4.067  11.349  0.0597 -1.1683  0.1832
  338MOL0     H44551   7.242   4.404  11.237 -0.0601 -1.8798  3.8106
  338MOL0     H44552   7.077   4.457  11.066 -0.7196 -0.9735 -3.2315
  338MOL0     H44553   6.932   4.473  10.915  0.6535  1.9469  3.9635
  338MOL0     H44554   6.804   4.449  11.020  0.0609  2.2349 -1.5954
  338MOL0     H44555   6.668   4.330  10.825 -0.9705 -0.6343 -1.4752
  338MOL0     H44556   6.809   4.349  10.719  1.0653  2.8194 -2.5790
  338MOL0     H44557   6.795   4.599  10.757 -0.1001 -1.3948  0.7282
  338MOL0     H44558   6.634   4.578  10.832 -0.0226  2.8041  0.4023
  338MOL0     H44559   6.712   4.574  10.563 -2.5885  1.4356 -2.2997
  338MOL0     H44560   6.627   4.422  10.598 -1.4405  0.6949 -1.1195
  338MOL0     H44561   6.437   4.565  10.689 -0.8011  1.6198 -0.2518
  338MOL0     H44562   6.457   4.585  10.521  1.1329 -1.1364 -0.2598
  338MOL0     H44563   6.574   4.800  10.699  1.7106 -1.6528 -1.4472
  338MOL0     H44564   6.418   4.808  10.610 -1.0725  0.5523  0.3391
  338MOL0     H44565   6.595   4.919  10.491  0.7569 -0.2649  2.8892
  338MOL0     H44566   6.714   4.790  10.513  0.0958 -2.3974 -1.3956
  338MOL0     H44567   6.467   4.769  10.342 -0.1638  0.2496 -3.0618
  338MOL0     H44568   6.593   4.658  10.345 -1.6470 -0.0239  0.1286
  338MOL0     H44569   6.870   4.805  10.309 -0.0389  0.0429  0.1338
  338MOL0     H44570   6.918   4.869   9.936  1.1197  0.4467 -0.8181
  338MOL0     H44571   7.004   4.802  10.068 -0.2972 -0.7614 -1.0614
  338MOL0     H44572   6.998   5.023  10.188  0.0161  0.8116  0.1391
  338MOL0     H44573   6.930   5.098  10.048 -0.5330 -0.1027  0.2417
  338MOL0     H44574   7.164   5.008   9.910  2.8989  2.0247 -0.3996
  338MOL0     H44575   7.180   5.141  10.026 -1.1573  1.4025 -0.7723
  338MOL0     H44576   7.218   4.927  10.195  3.3498  0.0105  1.1564
  338MOL0     H44577   7.347   4.992  10.087 -0.5033  0.7573 -0.1393
  338MOL0     H44578   7.331   4.687   9.832 -0.4594 -2.3758 -0.4192
  338MOL0     H44579   7.536   4.547   9.814  2.9639  0.3598 -0.2314
  338MOL0     H44580   7.783   4.322   9.665  1.7532  2.2258 -2.7867
  338MOL0     H44581   7.971   4.162   9.610  0.2890 -0.2126 -0.1708
  338MOL0     H44582   8.057   3.993   9.832  0.4528 -0.0207  1.8341
  338MOL0     H44583   8.238   3.965   9.854  0.0658 -1.7599  0.1635
  338MOL0     H44584   8.277   3.917   9.621 -0.0637  1.5914 -0.4465
  338MOL0     H44585   8.104   3.926   9.593  1.1524  2.8078 -0.1480
  338MOL0     H44586   8.119   3.698   9.663 -1.2426  0.5364 -0.5769
  338MOL0     H44587   8.095   3.763   9.813  0.2764  3.6262  0.4690
  338MOL0     H44588   8.386   3.729   9.681 -0.5735  0.8068  0.4661
  338MOL0     H44589   8.354   3.776   9.845 -1.8036 -1.4700  1.7179
  338MOL0     H44590   8.296   3.516   9.708 -0.3096 -0.1515 -0.4865
  338MOL0     H44591   8.234   3.546   9.873 -1.9489 -0.6622 -1.9021
  338MOL0     H44592   8.516   3.574   9.904  2.2976 -1.1436 -2.0108
  338MOL0     H44593   8.506   3.487   9.762  1.6218 -0.1672  1.0090
  338MOL0     H44594   8.364   3.322   9.866  2.3702 -1.7064 -0.1431
  338MOL0     H44595   8.523   3.346   9.950  0.7440  1.7429 -3.1383
  338MOL0     H44596   8.242   3.431  10.060  1.4363  2.0481 -1.2951
  338MOL0     H44597   8.396   3.448  10.141  3.8425 -0.4029 -1.8349
  338MOL0     H44598   8.174   4.299   9.957  0.3089 -2.5888 -0.8908
  338MOL0     H44599   8.023   4.457  10.008  2.3234 -1.1887 -0.7899
  338MOL0     H44600   7.656   4.700  10.205 -1.7603  0.0184  0.0603
  338MOL0     H44601   7.455   4.809  10.221 -0.4339  1.4700 -0.8494
  338MOL0     H44602   6.959   4.043  11.062  2.2221 -1.7410  0.6973
  338MOL0     H44603   7.151   3.998  11.229  0.2057  1.1909  2.3020
  338MOL0     H44604   7.364   4.039  11.520  0.6860  1.2909  2.7598
  338MOL0     H44605   7.504   3.895  11.655 -1.0016  0.4319 -1.1062
  338MOL0     H44606   7.933   3.840  11.758  0.7955 -0.5310  0.6880
  338MOL0     H44607   7.942   3.931  11.615 -1.1174 -0.3754  0.2114
  338MOL0     H44608   7.843   3.725  11.481  0.1830  2.6645 -0.0828
  338MOL0     H44609   8.016   3.720  11.528 -0.2874  1.1056 -0.3029
  338MOL0     H44610   7.890   3.508  11.561  1.3158  0.4172 -1.0366
  338MOL0     H44611   7.788   3.598  11.670  0.3661 -2.7744  0.4619
  338MOL0     H44612   7.985   3.637  11.830  0.8341 -0.0989 -0.8180
  338MOL0     H44613   7.940   3.481  11.830 -0.3128  2.2412  1.8899
  338MOL0     H44614   8.311   3.462  11.627  1.2389  1.3095  1.9736
  338MOL0     H44615   7.844   3.965  11.412 -0.3372 -1.0292  0.8178
  338MOL0     H44616   7.708   4.112  11.261 -0.1312 -1.9881 -0.3394
  339MOL0     O44617   5.622   2.376   1.702  0.3676 -0.5592  0.0654
  339MOL0     C44618   5.701   2.390   1.614  0.0794  0.5423 -1.1957
  339MOL0     O44619   5.689   2.475   1.514 -0.6330 -0.1738  0.2713
  339MOL0     C44620   5.612   2.589   1.523  0.3087  0.0999 -0.6318
  339MOL0     C44621   5.639   2.684   1.624  0.4374  0.1201  0.3436
  339MOL0     C44622   5.565   2.799   1.620  0.3909 -0.2067  0.4936
  339MOL0     C44623   5.461   2.826   1.533 -0.2473  0.2878 -0.9318
  339MOL0     O44624   5.401   2.952   1.532 -0.0298  0.1654 -0.1505
  339MOL0     C44625   5.458   3.053   1.457 -0.6313  0.5918  0.0592
  339MOL0     C44626   5.351   3.160   1.412  0.2432  0.3883  0.3350
  339MOL0     C44627   5.250   3.102   1.308 -1.4518 -0.4046 -0.8030
  339MOL0     C44628   5.125   3.043   1.379 -1.0585  0.0528  0.5593
  339MOL0     C44629   5.031   2.986   1.276 -0.2406  0.1541  0.5363
  339MOL0     C44630   4.924   2.894   1.349 -0.1716  0.4273  0.3126
  339MOL0     C44631   4.803   2.856   1.269 -0.0109 -0.2707 -0.2272
  339MOL0     C44632   4.704   2.978   1.249 -0.3970  0.4185  0.3454
  339MOL0     N44633   4.573   2.931   1.199  0.0381  0.6255  0.5254
  339MOL0     C44634   4.466   2.894   1.275 -0.0954  1.6520 -0.3990
  339MOL0     C44635   4.359   2.892   1.190  0.1573  0.0921 -0.9760
  339MOL0     C44636   4.223   2.840   1.239  0.0103  0.8116 -0.2264
  339MOL0     C44637   4.118   2.957   1.250  0.1461  0.1297 -1.2379
  339MOL0     C44638   4.088   3.000   1.110  0.0765  0.5071  0.3511
  339MOL0     C44639   3.979   3.100   1.102 -0.0898 -0.1627  0.1518
  339MOL0     O44640   3.878   3.083   1.199  0.2108  0.2940  0.4969
  339MOL0     C44641   3.770   3.162   1.186 -0.5688  1.0997  0.0290
  339MOL0     C44642   3.670   3.127   1.278 -0.6388 -0.4732 -0.7012
  339MOL0     C44643   3.551   3.200   1.289  0.5570 -0.4424 -0.2512
  339MOL0     C44644   3.516   3.299   1.200  0.1901  0.0552  0.2913
  339MOL0     C44645   3.386   3.359   1.203  1.1684 -0.1094  0.6441
  339MOL0     O44646   3.361   3.442   1.089  0.8118 -0.0382 -0.6503
  339MOL0     C44647   3.240   3.514   1.092 -0.2839  0.1144  0.5006
  339MOL0     C44648   3.115   3.446   1.070 -0.8440  0.2915 -0.0814
  339MOL0     C44649   3.001   3.527   1.053 -0.3760  0.4951  0.0340
  339MOL0     C44650   3.003   3.666   1.059 -0.6132 -0.7130  0.0660
  339MOL0     O44651   2.894   3.746   1.044 -0.5211 -0.4102  0.2792
  339MOL0     C44652   2.785   3.710   1.132 -0.2508 -0.9321 -0.0312
  339MOL0     C44653   2.670   3.804   1.087 -0.3322  0.3600  0.1763
  339MOL0     C44654   2.538   3.747   1.136  0.2948  0.1453 -0.2673
  339MOL0     C44655   2.430   3.847   1.111  1.1694 -0.5773  0.0547
  339MOL0     C44656   2.298   3.775   1.139  0.1154  0.2383  0.7106
  339MOL0     C44657   2.265   3.779   1.289 -0.6978 -0.5046  0.0303
  339MOL0     C44658   2.114   3.753   1.316  0.3743  0.7354 -0.1361
  339MOL0     C44659   2.098   3.753   1.462  0.2482  0.6633  0.2694
  339MOL0    Cl44660   1.931   3.720   1.505  0.2761  0.2880 -0.5139
  339MOL0     C44661   3.126   3.729   1.090 -0.3305  0.6507  0.3308
  339MOL0     C44662   3.244   3.650   1.113  0.2032 -0.9340  0.6223
  339MOL0     O44663   3.314   3.341   1.301  0.1625 -0.3922 -0.5523
  339MOL0     C44664   3.624   3.334   1.106 -0.2869  0.3066  0.3280
  339MOL0     C44665   3.752   3.271   1.103 -0.5211  0.5434 -0.6318
  339MOL0     N44666   4.402   2.932   1.071 -0.1544 -0.0320 -0.5773
  339MOL0     N44667   4.531   2.953   1.072  0.3926  0.2259  0.9886
  339MOL0     C44668   5.433   2.727   1.434  0.5245 -0.0771  0.4187
  339MOL0     C44669   5.511   2.611   1.434  0.1565  0.0771  0.1255
  339MOL0     C44670   5.822   2.301   1.619 -0.1948  1.0930 -0.1872
  339MOL0     C44671   5.819   2.190   1.703 -1.0390  0.2719  0.3426
  339MOL0     C44672   5.930   2.110   1.711 -0.4711  0.3272 -0.3137
  339MOL0     C44673   6.046   2.136   1.636 -0.5236 -0.8219 -0.9204
  339MOL0     O44674   6.146   2.044   1.667  0.2587  0.1397  0.0521
  339MOL0     C44675   6.279   2.061   1.618 -0.2684 -0.0186 -0.0764
  339MOL0     C44676   6.349   2.171   1.687 -1.2739 -0.4213  0.7845
  339MOL0     C44677   6.332   2.185   1.838 -0.4625  0.3223  0.0460
  339MOL0     C44678   6.364   2.048   1.907 -0.1026 -0.0731 -0.5185
  339MOL0     C44679   6.504   2.011   1.875  0.0040  0.4632  0.2264
  339MOL0     C44680   6.621   1.971   1.864  0.1103 -0.2376 -0.0330
  339MOL0     C44681   6.044   2.242   1.551 -0.0220  1.0382  0.9418
  339MOL0     C44682   5.931   2.328   1.547 -0.3324 -0.6840  0.4520
  339MOL0     H44683   5.714   2.666   1.700  1.0829 -1.1013 -0.5433
  339MOL0     H44684   5.593   2.876   1.692  3.5222  0.6300 -1.4104
  339MOL0     H44685   5.498   3.007   1.366 -1.5958  1.2641 -0.7351
  339MOL0     H44686   5.553   3.092   1.496 -1.6822  0.8628  2.5357
  339MOL0     H44687   5.401   3.248   1.370  0.0956  0.7646  0.9394
  339MOL0     H44688   5.300   3.189   1.504 -3.8695 -2.2166 -0.8671
  339MOL0     H44689   5.302   3.032   1.242 -0.0299  0.3666 -0.5480
  339MOL0     H44690   5.217   3.185   1.245 -0.2594  0.5148 -0.2701
  339MOL0     H44691   5.145   2.968   1.455  0.1773  0.8394  1.0365
  339MOL0     H44692   5.072   3.120   1.437 -1.3240  0.2729  0.0402
  339MOL0     H44693   5.095   2.937   1.201  0.9359  0.0693  1.5659
  339MOL0     H44694   4.977   3.071   1.233 -1.1070 -0.8807 -0.4770
  339MOL0     H44695   4.900   2.935   1.448  4.6415 -0.8709  2.2729
  339MOL0     H44696   4.975   2.799   1.368 -0.3582  0.1477 -0.5653
  339MOL0     H44697   4.829   2.810   1.173  3.4956 -1.5110  1.1442
  339MOL0     H44698   4.754   2.776   1.324 -0.3771  0.6830  0.8853
  339MOL0     H44699   4.760   3.042   1.182  2.7442 -3.3598 -1.0221
  339MOL0     H44700   4.685   3.043   1.335 -0.2346  1.9038 -0.7124
  339MOL0     H44701   4.445   2.887   1.381 -2.2422  0.1123 -0.8452
  339MOL0     H44702   4.238   2.796   1.339 -2.0337  2.6820  0.9929
  339MOL0     H44703   4.190   2.759   1.173  1.3345 -1.1368  1.3869
  339MOL0     H44704   4.168   3.036   1.308  1.3461 -1.8019  0.5129
  339MOL0     H44705   4.033   2.913   1.303  0.1774 -0.4311 -1.6406
  339MOL0     H44706   4.172   3.054   1.065  1.1798  0.4101  2.2038
  339MOL0     H44707   4.055   2.915   1.049  1.0062  1.0241 -0.9242
  339MOL0     H44708   3.947   3.096   0.997  3.0908 -0.7757 -0.9193
  339MOL0     H44709   4.021   3.201   1.103  1.3253 -0.7272  0.6463
  339MOL0     H44710   3.700   3.048   1.345 -0.7914  0.1269  0.0901
  339MOL0     H44711   3.481   3.169   1.366  0.9041  0.6468  0.5377
  339MOL0     H44712   3.122   3.339   1.056 -0.5876 -0.0344  2.1393
  339MOL0     H44713   2.906   3.474   1.048  0.1913 -1.0506  2.9744
  339MOL0     H44714   2.818   3.733   1.234  1.7571  1.5849 -1.1355
  339MOL0     H44715   2.753   3.607   1.115 -2.3441 -0.7414  2.1268
  339MOL0     H44716   2.677   3.814   0.978  1.3541  1.1885  0.3333
  339MOL0     H44717   2.688   3.901   1.135 -1.2654  0.1792  0.9198
  339MOL0     H44718   2.534   3.733   1.245 -3.4910  0.0031 -0.2989
  339MOL0     H44719   2.524   3.656   1.078 -1.5301  1.1341 -1.4545
  339MOL0     H44720   2.446   3.937   1.170  0.1485 -0.4036  0.0722
  339MOL0     H44721   2.421   3.853   1.002  2.8646 -2.5121 -0.2583
  339MOL0     H44722   2.292   3.671   1.103  1.6474  0.4621 -0.2727
  339MOL0     H44723   2.221   3.838   1.093 -1.6259 -0.4229  2.5934
  339MOL0     H44724   2.312   3.865   1.337  2.0702 -1.7528 -0.2361
  339MOL0     H44725   2.311   3.690   1.332 -1.3040 -0.9326 -0.2003
  339MOL0     H44726   2.057   3.832   1.267 -1.2060 -1.3869 -1.9079
  339MOL0     H44727   2.083   3.658   1.271  0.0540  0.8790 -0.2187
  339MOL0     H44728   2.123   3.853   1.499  3.0663 -0.3522  1.3776
  339MOL0     H44729   2.167   3.681   1.508 -1.0171 -1.5466 -1.0904
  339MOL0     H44730   3.130   3.837   1.093 -2.1652  0.8523 -1.7171
  339MOL0     H44731   3.341   3.698   1.122  0.5514 -1.2176 -1.2092
  339MOL0     H44732   3.595   3.416   1.041 -2.5265 -2.4443 -2.4393
  339MOL0     H44733   3.840   3.307   1.052 -0.2147  1.6456  0.6457
  339MOL0     H44734   5.348   2.732   1.368 -1.4620 -3.5912  2.3651
  339MOL0     H44735   5.502   2.533   1.359 -2.4780  0.3768  0.0299
  339MOL0     H44736   5.728   2.169   1.760  0.4997 -1.8001  2.2211
  339MOL0     H44737   5.939   2.033   1.787  0.0357  3.4882  3.1500
  339MOL0     H44738   6.276   2.079   1.510  0.8475 -0.2491 -0.1575
  339MOL0     H44739   6.333   1.967   1.627 -0.7362 -0.3383 -0.5791
  339MOL0     H44740   6.455   2.172   1.662 -1.1459 -0.3871  1.3296
  339MOL0     H44741   6.312   2.263   1.639 -1.2863 -0.9007 -0.1552
  339MOL0     H44742   6.231   2.216   1.865 -1.6377 -1.1275 -2.3598
  339MOL0     H44743   6.405   2.263   1.862  1.1427  0.2283 -3.7161
  339MOL0     H44744   6.340   2.062   2.013 -4.2246 -2.4682 -0.8942
  339MOL0     H44745   6.305   1.963   1.871 -0.7293  0.5506 -0.9796
  339MOL0     H44746   6.719   1.929   1.856  0.3261 -0.1116  1.5054
  339MOL0     H44747   6.134   2.276   1.502  2.5518  1.9375  5.7002
  339MOL0     H44748   5.932   2.409   1.474 -1.9290 -2.1244 -1.2771
  340MOL0     O44749  10.590   1.761   1.143 -0.2283  0.7299 -0.0878
  340MOL0     C44750  10.674   1.799   1.062 -0.3598 -0.3119 -0.2085
  340MOL0     O44751  10.697   1.931   1.039  0.6696  0.7689  0.0385
  340MOL0     C44752  10.606   2.031   1.088  0.9282  0.3776  0.3582
  340MOL0     C44753  10.658   2.148   1.141 -0.1472 -0.6714  0.8609
  340MOL0     C44754  10.580   2.256   1.171 -0.1771 -0.3152  0.2514
  340MOL0     C44755  10.439   2.241   1.155 -0.4775 -0.4418  0.4523
  340MOL0     O44756  10.356   2.348   1.198 -1.0056  0.1376  0.7408
  340MOL0     C44757  10.224   2.327   1.258 -0.2196  0.0046  0.0399
  340MOL0     C44758  10.229   2.241   1.380 -0.3410 -0.1618  0.4458
  340MOL0     C44759  10.108   2.265   1.467  0.3651 -0.0033 -0.9444
  340MOL0     C44760  10.099   2.170   1.585  0.5254 -0.9074  0.0835
  340MOL0     C44761   9.974   2.203   1.669 -0.9195  0.0371 -0.2229
  340MOL0     C44762  10.026   2.310   1.776 -0.2422 -0.4144 -0.1006
  340MOL0     C44763   9.911   2.368   1.870  0.0631  0.4795  0.3142
  340MOL0     C44764   9.955   2.420   2.009  1.3532 -1.5535 -0.0153
  340MOL0     N44765   9.848   2.505   2.075  0.3610  0.0831  0.0183
  340MOL0     C44766   9.711   2.496   2.054  0.0181  0.5006  0.1170
  340MOL0     C44767   9.655   2.617   2.093  0.8024 -0.6806 -0.4735
  340MOL0     C44768   9.502   2.639   2.079  0.3585 -0.0893 -1.2160
  340MOL0     C44769   9.446   2.534   2.179  0.4113  0.2025 -0.1885
  340MOL0     C44770   9.299   2.540   2.217 -0.4725  0.1851 -0.1926
  340MOL0     C44771   9.213   2.513   2.089 -0.8009  0.2301 -0.2038
  340MOL0     O44772   9.080   2.503   2.137  0.3452  0.2142  0.5511
  340MOL0     C44773   8.978   2.497   2.044  0.7732  0.0788 -0.3315
  340MOL0     C44774   8.989   2.480   1.907  0.4808  0.3921  0.5217
  340MOL0     C44775   8.873   2.444   1.833  0.4472 -0.2673 -0.7963
  340MOL0     C44776   8.745   2.445   1.899 -0.3548 -0.4174 -0.6940
  340MOL0     C44777   8.605   2.407   1.831 -0.4363 -0.4676 -0.3159
  340MOL0     O44778   8.490   2.471   1.874 -0.5457  0.0498  0.4170
  340MOL0     C44779   8.379   2.442   1.805  0.9451  0.8974  0.8799
  340MOL0     C44780   8.376   2.440   1.671  0.4150 -0.2143 -0.4928
  340MOL0     C44781   8.268   2.396   1.598  0.3872  0.7831  0.2675
  340MOL0     C44782   8.151   2.349   1.663  0.3171  0.7230 -0.3802
  340MOL0     O44783   8.042   2.300   1.597  0.2176 -0.1815  0.1575
  340MOL0     C44784   8.021   2.333   1.458  0.6653 -0.1678  0.4884
  340MOL0     C44785   7.961   2.220   1.374 -1.0891 -0.6650 -0.2944
  340MOL0     C44786   7.816   2.187   1.397 -0.8286  0.4041 -0.5352
  340MOL0     C44787   7.725   2.298   1.349  0.7238  0.2024 -0.2905
  340MOL0     C44788   7.573   2.262   1.379  0.2169  0.5445  0.1854
  340MOL0     C44789   7.487   2.381   1.407 -0.1548 -0.4431  0.5315
  340MOL0     C44790   7.427   2.430   1.272 -0.5162 -0.1363  0.6246
  340MOL0     C44791   7.319   2.519   1.297 -0.0305 -0.5911 -0.5685
  340MOL0    Cl44792   7.350   2.672   1.393 -0.3871  0.0302  0.3796
  340MOL0     C44793   8.149   2.355   1.806 -0.4385 -0.1134  0.0879
  340MOL0     C44794   8.264   2.405   1.878  1.1944 -0.6993  0.6879
  340MOL0     O44795   8.612   2.320   1.742  0.9752 -0.2826  0.6094
  340MOL0     C44796   8.741   2.481   2.027 -0.1756 -0.2164  0.0154
  340MOL0     C44797   8.851   2.499   2.099  0.0493 -0.5836 -0.5302
  340MOL0     N44798   9.758   2.702   2.115 -0.2643  0.5153 -0.7793
  340MOL0     N44799   9.866   2.630   2.118  0.0595  1.0908  0.2388
  340MOL0     C44800  10.391   2.127   1.104  0.2205  0.1744  0.3370
  340MOL0     C44801  10.460   2.016   1.072  0.3073 -0.6243 -0.1997
  340MOL0     C44802  10.765   1.705   1.000 -0.1878 -0.6825  0.4565
  340MOL0     C44803  10.745   1.567   1.028  0.0597  0.0458  0.5079
  340MOL0     C44804  10.826   1.471   0.961  0.1235  0.8718  0.5480
  340MOL0     C44805  10.928   1.515   0.872 -0.0703 -0.0731 -0.4068
  340MOL0     O44806  11.019   1.414   0.826  0.2865  0.0693 -0.4315
  340MOL0     C44807  11.154   1.450   0.788 -0.6491  0.4094  0.9911
  340MOL0     C44808  11.239   1.323   0.744  0.8258  0.1913  0.1099
  340MOL0     C44809  11.187   1.249   0.616 -0.3842 -0.6736 -0.4652
  340MOL0     C44810  11.314   1.164   0.579 -0.2193 -1.2287 -0.5130
  340MOL0     C44811  11.411   1.245   0.511 -0.5782 -0.1813  0.6151
  340MOL0     C44812  11.506   1.305   0.465  0.6963  1.1887 -0.5535
  340MOL0     C44813  10.945   1.646   0.847  0.0559 -1.1520  0.2832
  340MOL0     C44814  10.871   1.746   0.912  0.4046  0.0877  0.2698
  340MOL0     H44815  10.766   2.150   1.154 -0.2282  0.5333  1.4491
  340MOL0     H44816  10.621   2.347   1.214  2.3372 -0.6008 -1.3644
  340MOL0     H44817  10.148   2.280   1.195 -3.2603  1.7809  2.1373
  340MOL0     H44818  10.183   2.425   1.284 -1.5341 -0.7290  0.8412
  340MOL0     H44819  10.323   2.262   1.432  1.1318 -1.3626 -1.5886
  340MOL0     H44820  10.230   2.143   1.333 -2.1021 -1.1768  2.3226
  340MOL0     H44821  10.018   2.269   1.404  0.9328  0.7202 -1.7159
  340MOL0     H44822  10.113   2.364   1.514 -4.6444  0.3244 -0.5419
  340MOL0     H44823  10.087   2.066   1.553  2.5139 -1.3459  0.6529
  340MOL0     H44824  10.195   2.184   1.634  0.4682  4.1433 -0.7623
  340MOL0     H44825   9.935   2.116   1.721  1.1063 -1.9112 -1.7839
  340MOL0     H44826   9.886   2.242   1.617 -2.0959 -1.5364  0.5220
  340MOL0     H44827  10.060   2.397   1.720 -0.1476 -1.2688 -1.4103
  340MOL0     H44828  10.107   2.267   1.836  0.6344 -2.5705 -2.6598
  340MOL0     H44829   9.863   2.451   1.817 -0.2501 -0.1477 -0.3961
  340MOL0     H44830   9.840   2.285   1.877 -0.0820  0.6006  0.2946
  340MOL0     H44831  10.036   2.491   1.988 -1.5316  1.5072 -1.8420
  340MOL0     H44832   9.988   2.337   2.072 -0.9990 -1.7938  0.9990
  340MOL0     H44833   9.672   2.413   1.997 -0.2435 -0.0987  1.1421
  340MOL0     H44834   9.458   2.634   1.979 -0.1740 -2.9744 -0.9310
  340MOL0     H44835   9.471   2.731   2.129 -1.7048 -1.5493  0.4026
  340MOL0     H44836   9.497   2.515   2.274 -2.5127 -1.1030  1.2447
  340MOL0     H44837   9.456   2.433   2.137 -2.2986 -0.1999 -0.0669
  340MOL0     H44838   9.274   2.469   2.296  3.1080 -0.0252  0.9093
  340MOL0     H44839   9.269   2.633   2.266 -0.0871 -0.9347  2.3188
  340MOL0     H44840   9.230   2.415   2.043 -0.6657  1.3672 -2.7663
  340MOL0     H44841   9.223   2.591   2.013  0.3070 -0.1257 -0.4430
  340MOL0     H44842   9.084   2.469   1.856 -1.2986  0.5855 -3.2032
  340MOL0     H44843   8.869   2.418   1.728  1.3276 -4.6804  0.0528
  340MOL0     H44844   8.463   2.473   1.616  2.2518 -1.2716  1.5756
  340MOL0     H44845   8.277   2.399   1.490 -4.6172 -0.8808 -0.4528
  340MOL0     H44846   8.119   2.344   1.412  0.2846 -1.1477 -0.6053
  340MOL0     H44847   7.961   2.424   1.456 -0.1057 -0.6161 -3.1282
  340MOL0     H44848   8.030   2.136   1.389  1.4140  1.6678  2.5082
  340MOL0     H44849   7.982   2.256   1.273  0.4450 -1.3908 -0.2646
  340MOL0     H44850   7.803   2.154   1.501  0.3727 -1.3957 -0.9130
  340MOL0     H44851   7.807   2.098   1.335 -0.5891 -1.4580  1.9409
  340MOL0     H44852   7.746   2.387   1.409 -4.0892 -0.3662  2.7609
  340MOL0     H44853   7.746   2.315   1.243 -1.6763 -0.0466 -0.8614
  340MOL0     H44854   7.589   2.213   1.476  2.5074  1.3599  0.2892
  340MOL0     H44855   7.532   2.190   1.309 -2.1998  0.3452  1.6755
  340MOL0     H44856   7.545   2.455   1.463 -0.4515  0.3495 -0.1767
  340MOL0     H44857   7.402   2.350   1.469 -1.4241  1.1093 -0.3412
  340MOL0     H44858   7.510   2.482   1.222  1.3444 -3.1867  0.3381
  340MOL0     H44859   7.391   2.343   1.217 -1.4904  1.0512 -0.7101
  340MOL0     H44860   7.231   2.472   1.342  0.6395 -0.2137  1.2321
  340MOL0     H44861   7.289   2.551   1.196  1.0802  1.0104 -0.4350
  340MOL0     H44862   8.065   2.324   1.867 -0.0321  0.7674  1.1236
  340MOL0     H44863   8.259   2.400   1.986  1.5788 -1.1474  0.6847
  340MOL0     H44864   8.649   2.486   2.085  0.5910  1.6693  1.1380
  340MOL0     H44865   8.834   2.515   2.205 -0.3871 -1.9220 -0.3816
  340MOL0     H44866  10.284   2.122   1.088 -0.0262  0.6176  1.7155
  340MOL0     H44867  10.412   1.926   1.036 -1.3408 -1.1595  2.9488
  340MOL0     H44868  10.665   1.540   1.097 -0.2548 -2.2678 -0.6656
  340MOL0     H44869  10.820   1.364   0.979 -0.4981  0.0246 -3.6139
  340MOL0     H44870  11.207   1.519   0.853  0.1033  1.1223 -0.3332
  340MOL0     H44871  11.143   1.505   0.694  2.7655 -0.2587  0.0446
  340MOL0     H44872  11.341   1.357   0.730  0.3339  1.9688  0.5989
  340MOL0     H44873  11.226   1.251   0.826 -0.1270 -2.7876 -2.4385
  340MOL0     H44874  11.151   1.320   0.541  0.2303  3.3063  2.6452
  340MOL0     H44875  11.099   1.187   0.636 -1.1408 -0.0221 -1.6222
  340MOL0     H44876  11.356   1.111   0.665  0.0064 -0.5789 -0.2192
  340MOL0     H44877  11.281   1.093   0.503 -3.3066  0.5995 -1.0425
  340MOL0     H44878  11.600   1.341   0.430 -0.4894  1.6323 -3.5405
  340MOL0     H44879  11.033   1.683   0.796  0.7553 -0.0393  2.1702
  340MOL0     H44880  10.894   1.850   0.892  1.1064 -0.2467 -0.7021
  341MOL0     O44881   6.813  10.332   6.790 -0.3975  0.4907 -0.0792
  341MOL0     C44882   6.861  10.405   6.879  0.5184  0.2004 -0.0509
  341MOL0     O44883   6.805  10.421   7.001 -0.6040  0.9817  0.2607
  341MOL0     C44884   6.679  10.386   7.023  0.7225  0.0757  0.1313
  341MOL0     C44885   6.650  10.279   7.114 -0.1483  0.2016 -0.3032
  341MOL0     C44886   6.513  10.223   7.123  0.6786  0.1791  0.3635
  341MOL0     C44887   6.422  10.278   7.030  0.3330  0.5898 -0.2913
  341MOL0     O44888   6.299  10.228   7.016  0.4143  0.5593  1.0673
  341MOL0     C44889   6.261  10.101   7.067  0.5875  0.8898  0.3446
  341MOL0     C44890   6.119  10.083   7.035  1.0994 -0.0321  0.7649
  341MOL0     C44891   6.036  10.191   7.102  0.0515 -0.0914 -0.0849
  341MOL0     C44892   5.887  10.168   7.081 -0.4307 -0.2775 -0.8149
  341MOL0     C44893   5.838  10.296   7.022 -0.1654  0.5979 -0.1951
  341MOL0     C44894   5.678  10.303   7.016  0.3688 -0.3328 -0.5128
  341MOL0     C44895   5.609  10.345   7.149  0.5516  0.8517  0.9216
  341MOL0     C44896   5.634  10.493   7.201  0.1334 -0.9142 -0.1397
  341MOL0     N44897   5.560  10.513   7.324 -0.2421  1.1012  0.6218
  341MOL0     C44898   5.449  10.593   7.329  0.1341 -0.1680  1.0241
  341MOL0     C44899   5.436  10.632   7.460  0.3163 -0.2749 -0.2888
  341MOL0     C44900   5.327  10.704   7.528 -0.7062  0.2216  0.3236
  341MOL0     C44901   5.345  10.858   7.526  0.1001 -0.1516 -0.7330
  341MOL0     C44902   5.452  10.911   7.613 -0.0492 -0.6086 -0.5420
  341MOL0     C44903   5.482  11.060   7.597  0.0680 -1.0523 -0.0438
  341MOL0     O44904   5.580  11.098   7.686 -0.1602 -0.0933 -0.0909
  341MOL0     C44905   5.554  11.204   7.765 -0.5871 -0.1271  0.8144
  341MOL0     C44906   5.579  11.339   7.734  0.1772 -0.5339 -0.2862
  341MOL0     C44907   5.525  11.445   7.822  0.2778  0.1738  0.7285
  341MOL0     C44908   5.436  11.416   7.925 -0.1022 -0.2772 -0.6574
  341MOL0     C44909   5.365  11.523   7.998  0.2480  0.1828  0.2868
  341MOL0     O44910   5.398  11.656   7.974  0.2828  0.1635 -0.7791
  341MOL0     C44911   5.329  11.749   8.046 -0.4104 -0.2559  0.8658
  341MOL0     C44912   5.245  11.835   7.971  0.2501 -0.0988  0.0107
  341MOL0     C44913   5.169  11.932   8.030  0.1121 -0.0817 -0.6663
  341MOL0     C44914   5.183  11.953   8.167  0.2616 -0.9364 -0.5206
  341MOL0     O44915   5.113  12.060   8.220  0.0163  0.1303 -0.3029
  341MOL0     C44916   5.114  12.083   8.362  0.4977  0.8589  0.1697
  341MOL0     C44917   5.015  12.197   8.393  0.2325  0.8469  0.0278
  341MOL0     C44918   5.072  12.331   8.354 -0.2566 -0.0951 -0.7871
  341MOL0     C44919   4.968  12.448   8.403  0.0433  0.8072  0.3346
  341MOL0     C44920   5.027  12.591   8.400 -0.1035 -0.1438  0.7165
  341MOL0     C44921   5.077  12.637   8.261 -0.5818 -0.8571 -0.2898
  341MOL0     C44922   4.983  12.640   8.142 -0.0540  0.0767  0.4877
  341MOL0     C44923   5.018  12.719   8.026  0.4761  0.9096 -0.9144
  341MOL0    Cl44924   4.994  12.888   8.046 -0.1320 -0.3889  0.2909
  341MOL0     C44925   5.274  11.879   8.239 -0.3008 -0.0382 -0.0584
  341MOL0     C44926   5.344  11.780   8.181 -0.0898  0.8883  0.4009
  341MOL0     O44927   5.297  11.487   8.091  0.1747 -0.4835  0.2957
  341MOL0     C44928   5.425  11.279   7.968 -0.0310  0.2045  0.2419
  341MOL0     C44929   5.477  11.175   7.884  0.3303 -0.4574 -0.2292
  341MOL0     N44930   5.537  10.562   7.531  0.3166 -0.1827 -0.5158
  341MOL0     N44931   5.607  10.496   7.448  0.2078 -0.5148 -0.0296
  341MOL0     C44932   6.451  10.376   6.940  0.9649 -0.7420  0.2131
  341MOL0     C44933   6.574  10.436   6.951 -1.0561 -0.5194  0.9423
  341MOL0     C44934   6.987  10.477   6.861 -0.5256  0.1159 -0.3365
  341MOL0     C44935   7.074  10.463   6.755 -0.6450  0.5827  0.5989
  341MOL0     C44936   7.196  10.536   6.749 -0.1388 -1.4986 -1.1717
  341MOL0     C44937   7.235  10.632   6.842 -0.3198 -0.8035  0.7638
  341MOL0     O44938   7.366  10.673   6.841  0.2322 -0.5740 -0.1150
  341MOL0     C44939   7.397  10.783   6.910  0.0943 -1.0286  0.0517
  341MOL0     C44940   7.514  10.845   6.827  0.0545 -1.4061  0.5395
  341MOL0     C44941   7.520  10.995   6.848 -0.2452 -0.3809 -0.1206
  341MOL0     C44942   7.627  11.062   6.765 -0.2448  0.2698  0.9582
  341MOL0     C44943   7.619  11.033   6.620  0.7969  0.4124  0.8844
  341MOL0     C44944   7.643  11.008   6.502  0.6694 -0.1462 -0.9420
  341MOL0     C44945   7.150  10.647   6.947  0.0384 -0.8883 -0.7230
  341MOL0     C44946   7.026  10.575   6.959  0.8616  0.4874  0.0298
  341MOL0     H44947   6.724  10.227   7.174 -4.1526 -1.7081  3.5906
  341MOL0     H44948   6.493  10.135   7.183  0.2915  0.0316  0.0237
  341MOL0     H44949   6.261  10.107   7.176 -0.0313  1.2752  0.3230
  341MOL0     H44950   6.321  10.016   7.034 -2.1858 -1.6308  1.3581
  341MOL0     H44951   6.083   9.981   7.053  0.6403 -0.1943 -0.8814
  341MOL0     H44952   6.102  10.095   6.927 -0.9193  0.6302  1.1090
  341MOL0     H44953   6.065  10.293   7.075  3.2587 -0.8822 -0.0124
  341MOL0     H44954   6.054  10.190   7.210  1.4164  2.3157 -0.2356
  341MOL0     H44955   5.870  10.083   7.014  1.1282 -1.6378  0.4052
  341MOL0     H44956   5.848  10.150   7.182  0.9149  0.8214 -0.0672
  341MOL0     H44957   5.888  10.304   6.925  1.1012 -0.0227  0.3830
  341MOL0     H44958   5.879  10.372   7.089  2.0790 -0.7031  0.0152
  341MOL0     H44959   5.635  10.205   6.990  2.1494 -1.4050  0.3639
  341MOL0     H44960   5.656  10.376   6.938 -2.5505 -2.5135 -1.9439
  341MOL0     H44961   5.500  10.334   7.150  0.7157 -4.4154 -1.8874
  341MOL0     H44962   5.642  10.270   7.221  0.5825 -0.3094 -0.2587
  341MOL0     H44963   5.617  10.566   7.121  4.1590 -1.4099 -1.6787
  341MOL0     H44964   5.740  10.498   7.225 -0.0951  0.1360  0.7206
  341MOL0     H44965   5.383  10.627   7.250 -0.8459  0.0883  1.9278
  341MOL0     H44966   5.307  10.677   7.633 -0.8003 -0.0431  0.2389
  341MOL0     H44967   5.237  10.680   7.470 -1.0071 -1.2532  1.3395
  341MOL0     H44968   5.249  10.897   7.561  0.1055 -2.1888  1.8758
  341MOL0     H44969   5.371  10.889   7.424 -1.0538 -3.7993 -2.3286
  341MOL0     H44970   5.425  10.880   7.715  1.3316 -0.4519 -0.0982
  341MOL0     H44971   5.541  10.852   7.587 -1.6327 -2.7034 -1.5152
  341MOL0     H44972   5.399  11.129   7.617 -0.4121 -1.3077 -1.0842
  341MOL0     H44973   5.518  11.077   7.496 -1.6145  3.0143 -0.1493
  341MOL0     H44974   5.650  11.367   7.656 -1.3276 -1.0121 -1.8823
  341MOL0     H44975   5.549  11.549   7.806  2.4221  0.2249  3.5270
  341MOL0     H44976   5.226  11.813   7.866  0.0156  0.4338 -0.0627
  341MOL0     H44977   5.110  12.001   7.970 -1.0215  1.5615  2.1188
  341MOL0     H44978   5.214  12.109   8.400 -0.1351  2.3091  0.8947
  341MOL0     H44979   5.079  11.996   8.419 -1.8062 -0.6153 -3.1896
  341MOL0     H44980   5.001  12.196   8.502 -0.4487 -0.4134 -0.0511
  341MOL0     H44981   4.919  12.189   8.341 -0.2849  2.4242  0.6851
  341MOL0     H44982   5.090  12.338   8.246  3.5074 -1.9070 -0.4238
  341MOL0     H44983   5.171  12.357   8.391 -0.0326  0.0838 -1.4993
  341MOL0     H44984   4.882  12.431   8.338  1.0421  3.3385 -1.8491
  341MOL0     H44985   4.934  12.424   8.504 -1.9453 -0.2740 -0.5297
  341MOL0     H44986   5.112  12.600   8.468  2.3503 -1.2829 -2.0198
  341MOL0     H44987   4.946  12.662   8.423  0.1755  1.7781 -3.3728
  341MOL0     H44988   5.165  12.580   8.230  0.3248 -0.8056  2.0030
  341MOL0     H44989   5.097  12.742   8.282 -0.8514 -0.9420  0.4085
  341MOL0     H44990   4.977  12.537   8.106 -1.4887 -0.2215  1.5271
  341MOL0     H44991   4.881  12.663   8.174 -0.7174 -0.5284 -1.0849
  341MOL0     H44992   4.951  12.687   7.945  0.5239  0.6478 -0.8523
  341MOL0     H44993   5.118  12.691   7.990  0.5742  0.1785 -0.1042
  341MOL0     H44994   5.289  11.886   8.346 -0.4896 -0.6882  0.0131
  341MOL0     H44995   5.400  11.714   8.247  0.8524 -0.3144 -1.5012
  341MOL0     H44996   5.361  11.251   8.051 -1.5179  0.8856 -0.6508
  341MOL0     H44997   5.444  11.075   7.907 -1.0243  0.1618  0.6162
  341MOL0     H44998   6.379  10.414   6.869 -0.2564 -0.5385  1.5189
  341MOL0     H44999   6.592  10.509   6.872  2.1586 -2.5552 -0.4317
  341MOL0     H45000   7.055  10.393   6.675 -0.4463  1.7097 -0.4569
  341MOL0     H45001   7.270  10.506   6.675  0.5377 -1.3790 -0.5567
  341MOL0     H45002   7.431  10.755   7.010  1.7412  0.0749 -0.1436
  341MOL0     H45003   7.310  10.849   6.909  0.1441 -0.6760  3.9953
  341MOL0     H45004   7.602  10.795   6.868 -0.2398 -1.0765  1.6024
  341MOL0     H45005   7.487  10.825   6.723 -1.5805  0.0902  0.6241
  341MOL0     H45006   7.536  11.022   6.953 -1.8552  1.9221 -0.3836
  341MOL0     H45007   7.430  11.049   6.817  0.0849 -0.7665 -1.8243
  341MOL0     H45008   7.611  11.170   6.775 -3.2480 -0.0862  1.0895
  341MOL0     H45009   7.726  11.039   6.804  0.4269  1.0301 -0.2530
  341MOL0     H45010   7.668  10.982   6.401  0.3351 -3.1278 -0.3693
  341MOL0     H45011   7.179  10.711   7.031  4.0961 -1.3233 -1.5679
  341MOL0     H45012   6.966  10.577   7.049 -1.3019 -1.5720 -1.2591
  342MOL0     O45013   8.831   2.870   8.692  0.1202  0.4903 -0.8071
  342MOL0     C45014   8.840   2.893   8.817 -0.9020  0.0495  0.0786
  342MOL0     O45015   8.745   2.919   8.898 -1.1153  0.7612 -0.3031
  342MOL0     C45016   8.620   2.948   8.847 -0.3979  0.0487  0.0966
  342MOL0     C45017   8.539   2.862   8.769 -0.6436 -0.2843 -1.0310
  342MOL0     C45018   8.415   2.900   8.720  0.2043  0.1377 -0.3567
  342MOL0     C45019   8.364   3.029   8.755  1.1952  0.2968 -1.1512
  342MOL0     O45020   8.230   3.068   8.729 -0.4534  0.4890 -0.2585
  342MOL0     C45021   8.138   2.960   8.744  0.6430  0.8379 -0.9412
  342MOL0     C45022   7.985   3.011   8.726  0.0344 -0.2648  0.2080
  342MOL0     C45023   7.922   3.091   8.838  0.6590 -0.7429 -0.1348
  342MOL0     C45024   7.808   3.170   8.781 -0.2406  0.0012 -0.2860
  342MOL0     C45025   7.764   3.266   8.891  1.0115  0.5269 -0.5287
  342MOL0     C45026   7.656   3.363   8.846  0.0340 -0.2909 -0.1471
  342MOL0     C45027   7.723   3.484   8.765 -0.9478 -0.0016  0.5898
  342MOL0     C45028   7.625   3.570   8.692 -0.2557  0.2874  0.2061
  342MOL0     N45029   7.538   3.650   8.781 -0.3634 -0.0544  0.8420
  342MOL0     C45030   7.442   3.588   8.856 -0.9820 -0.4618  0.2298
  342MOL0     C45031   7.414   3.682   8.946  0.3039  0.3400 -0.2444
  342MOL0     C45032   7.302   3.669   9.057  0.0992 -0.4931  0.3802
  342MOL0     C45033   7.156   3.707   9.018  0.0390 -0.8523 -0.3615
  342MOL0     C45034   7.122   3.853   9.052  0.2177 -0.3707  0.3265
  342MOL0     C45035   7.007   3.909   8.974  0.3291 -0.0316  0.6011
  342MOL0     O45036   6.897   3.816   8.966  0.0534 -0.1610 -0.7701
  342MOL0     C45037   6.771   3.866   8.940  0.1061 -0.5913  0.2340
  342MOL0     C45038   6.728   3.994   8.910  0.5520 -0.5615 -0.0618
  342MOL0     C45039   6.593   4.018   8.879 -0.3962 -0.2878  0.1551
  342MOL0     C45040   6.507   3.909   8.875  0.0587 -0.3500 -0.2735
  342MOL0     C45041   6.365   3.930   8.850 -0.5576  0.8048 -0.8680
  342MOL0     O45042   6.312   4.047   8.896  0.2877 -0.0590  0.2270
  342MOL0     C45043   6.184   4.088   8.850 -0.2936  0.6102  0.1788
  342MOL0     C45044   6.182   4.202   8.784  0.5786 -0.3734  0.1368
  342MOL0     C45045   6.056   4.261   8.755  0.6889  0.5145 -0.0061
  342MOL0     C45046   5.936   4.188   8.772 -0.5515  0.1725 -1.1882
  342MOL0     O45047   5.839   4.263   8.726  1.4636 -0.0193 -0.4060
  342MOL0     C45048   5.709   4.200   8.737 -0.1871 -0.8781  0.4614
  342MOL0     C45049   5.591   4.294   8.689 -0.0576  0.2835 -0.4650
  342MOL0     C45050   5.605   4.348   8.554 -0.3527  0.1386  0.2884
  342MOL0     C45051   5.552   4.486   8.526  0.0286  0.2158 -0.6008
  342MOL0     C45052   5.516   4.528   8.381 -0.0106  1.0843  0.4223
  342MOL0     C45053   5.640   4.533   8.289 -0.2163 -0.5696 -0.2354
  342MOL0     C45054   5.616   4.590   8.151 -0.4170 -1.1374 -0.0338
  342MOL0     C45055   5.745   4.641   8.081  0.1710 -0.3025 -0.0952
  342MOL0    Cl45056   5.722   4.694   7.919  0.2218  0.6352  0.1729
  342MOL0     C45057   5.944   4.055   8.828 -0.4598 -0.1119  0.3617
  342MOL0     C45058   6.072   4.001   8.876 -0.3125 -0.2917  0.5740
  342MOL0     O45059   6.307   3.841   8.796 -0.4785 -0.7016 -0.0183
  342MOL0     C45060   6.550   3.789   8.915 -0.0280 -0.7902  0.6921
  342MOL0     C45061   6.677   3.767   8.942  0.0183 -0.6624  0.2904
  342MOL0     N45062   7.477   3.800   8.915 -0.0321 -0.7094 -0.6772
  342MOL0     N45063   7.560   3.773   8.819 -0.1640  0.7813  0.8169
  342MOL0     C45064   8.441   3.108   8.845  0.1976  0.6018 -0.7542
  342MOL0     C45065   8.567   3.069   8.894 -0.2594  0.0925 -0.3607
  342MOL0     C45066   8.980   2.869   8.864 -0.1770 -0.4188 -0.1117
  342MOL0     C45067   9.001   2.812   8.996  0.2223  0.5942  0.6970
  342MOL0     C45068   9.128   2.796   9.044 -0.4621 -0.7091 -0.1829
  342MOL0     C45069   9.243   2.832   8.978  1.3952 -0.1440  0.0980
  342MOL0     O45070   9.365   2.855   9.039 -0.0479  0.0597 -0.6876
  342MOL0     C45071   9.494   2.874   8.964 -0.7193 -0.1926 -0.3676
  342MOL0     C45072   9.627   2.895   9.049  0.1870  0.0562 -1.0698
  342MOL0     C45073   9.607   3.030   9.134  0.4093  0.1793  0.2537
  342MOL0     C45074   9.654   3.030   9.277 -0.3708 -0.7031 -0.2117
  342MOL0     C45075   9.787   2.974   9.295 -0.2376  0.7973  0.3702
  342MOL0     C45076   9.886   2.905   9.296 -0.2758 -0.3146 -0.1137
  342MOL0     C45077   9.220   2.865   8.843 -0.0102  0.1877  0.1063
  342MOL0     C45078   9.096   2.891   8.790 -0.3537 -0.2006 -0.0083
  342MOL0     H45079   8.566   2.766   8.725 -1.1737 -0.8981 -0.0593
  342MOL0     H45080   8.364   2.829   8.656 -1.1628  1.5275 -0.8950
  342MOL0     H45081   8.140   2.913   8.843  1.2209  2.6555 -0.0430
  342MOL0     H45082   8.161   2.869   8.688  0.8318 -0.6987  1.4822
  342MOL0     H45083   7.917   2.927   8.706 -0.4879  0.0917  0.4588
  342MOL0     H45084   7.981   3.070   8.633 -4.5254 -1.9270 -0.9499
  342MOL0     H45085   8.004   3.156   8.870  0.3489  0.9876 -2.6054
  342MOL0     H45086   7.891   3.024   8.919  1.4121 -1.8113 -0.6858
  342MOL0     H45087   7.846   3.230   8.698 -0.1186 -1.9724 -1.6995
  342MOL0     H45088   7.721   3.123   8.735 -2.2598  3.6543 -0.5690
  342MOL0     H45089   7.842   3.318   8.948 -0.1514 -0.2281  1.8913
  342MOL0     H45090   7.722   3.203   8.969  3.9881 -1.6098 -0.5077
  342MOL0     H45091   7.606   3.401   8.936 -4.2102  0.0079 -2.3770
  342MOL0     H45092   7.583   3.318   8.778  0.8699 -2.4271  0.3056
  342MOL0     H45093   7.777   3.546   8.837  0.5717 -1.7259  1.0344
  342MOL0     H45094   7.810   3.455   8.704 -0.9476  0.1009  0.5413
  342MOL0     H45095   7.556   3.525   8.619 -0.1825  1.6969 -0.7619
  342MOL0     H45096   7.682   3.632   8.623 -1.3810  1.2497  0.1102
  342MOL0     H45097   7.403   3.487   8.850  2.1943 -1.8805  1.6703
  342MOL0     H45098   7.340   3.733   9.138  0.4826 -1.0185  0.6225
  342MOL0     H45099   7.300   3.563   9.085 -1.0132 -1.3417 -2.5453
  342MOL0     H45100   7.094   3.633   9.069  1.1180 -2.6378 -1.4851
  342MOL0     H45101   7.134   3.705   8.911  2.2187  1.3467 -0.9428
  342MOL0     H45102   7.110   3.864   9.160  4.4561 -0.4977  0.9889
  342MOL0     H45103   7.206   3.920   9.029  0.0043 -0.1131  0.2874
  342MOL0     H45104   7.047   3.941   8.877  2.4792 -2.3364  0.6267
  342MOL0     H45105   6.972   3.996   9.031  0.4524 -0.4413  1.3095
  342MOL0     H45106   6.797   4.076   8.894 -1.6022  0.8590 -2.8710
  342MOL0     H45107   6.558   4.114   8.843  1.3398  0.0429 -0.8019
  342MOL0     H45108   6.280   4.233   8.750  0.3192 -1.6003 -1.8817
  342MOL0     H45109   6.060   4.350   8.693  1.1958 -0.3064 -1.2061
  342MOL0     H45110   5.685   4.174   8.840  0.9001 -1.8256  0.4843
  342MOL0     H45111   5.700   4.106   8.682 -0.6229 -1.7961  2.0643
  342MOL0     H45112   5.590   4.376   8.762  0.4827 -0.8438  0.8613
  342MOL0     H45113   5.492   4.248   8.699 -0.1086  0.2920 -0.9060
  342MOL0     H45114   5.558   4.279   8.483 -1.5854 -2.3569  3.2928
  342MOL0     H45115   5.710   4.370   8.533 -0.0098  3.1977  4.0778
  342MOL0     H45116   5.467   4.514   8.589 -0.2555  0.4147 -1.0682
  342MOL0     H45117   5.632   4.555   8.554 -1.1922  1.1400  0.7705
  342MOL0     H45118   5.457   4.619   8.373 -1.4476  0.2141  0.7296
  342MOL0     H45119   5.455   4.450   8.335 -0.6229  3.1882 -2.6323
  342MOL0     H45120   5.674   4.429   8.284 -1.2322 -1.0933  2.0509
  342MOL0     H45121   5.711   4.593   8.346 -2.1780  0.1393  1.6456
  342MOL0     H45122   5.571   4.510   8.092  2.0091 -3.6930  1.3121
  342MOL0     H45123   5.539   4.668   8.150  1.0938  0.4017 -0.7201
  342MOL0     H45124   5.821   4.564   8.067  1.1194  1.1218 -4.3938
  342MOL0     H45125   5.803   4.722   8.127  0.2776 -0.6066  0.3095
  342MOL0     H45126   5.850   4.002   8.838  0.0784 -1.5116 -1.4261
  342MOL0     H45127   6.071   3.905   8.926  1.3969 -0.4455  0.3801
  342MOL0     H45128   6.477   3.710   8.924 -0.2880 -0.5057  1.1006
  342MOL0     H45129   6.707   3.665   8.965  0.3986 -0.5147  0.4582
  342MOL0     H45130   8.395   3.203   8.872 -0.8491  0.0074 -0.3633
  342MOL0     H45131   8.624   3.136   8.957 -2.0645  0.1696  1.2639
  342MOL0     H45132   8.915   2.800   9.061  0.5035  0.0436  0.9710
  342MOL0     H45133   9.141   2.774   9.149  1.5432  0.6056 -0.0887
  342MOL0     H45134   9.495   2.966   8.905  2.1960  0.4193  0.4542
  342MOL0     H45135   9.519   2.786   8.905  0.3628 -0.9539  1.1386
  342MOL0     H45136   9.634   2.807   9.114 -2.0599 -0.6529 -1.7129
  342MOL0     H45137   9.712   2.907   8.981  0.0846  2.2134 -0.8883
  342MOL0     H45138   9.500   3.056   9.131  0.2828 -0.3925 -1.7652
  342MOL0     H45139   9.654   3.112   9.079 -2.5902 -0.3206 -3.5326
  342MOL0     H45140   9.664   3.137   9.298  1.4632 -0.8693 -0.0969
  342MOL0     H45141   9.585   2.985   9.350 -0.8185  2.8805  1.7899
  342MOL0     H45142   9.975   2.845   9.288 -1.1168 -1.7498  0.7685
  342MOL0     H45143   9.300   2.906   8.783  0.0348 -1.0604 -0.7106
  342MOL0     H45144   9.069   2.939   8.697 -3.4277 -0.3007  0.7209
  343MOL0     O45145   9.582   4.693   1.299  0.3278  0.5464  0.0002
  343MOL0     C45146   9.674   4.624   1.355  0.5808  0.2930  0.3666
  343MOL0     O45147   9.670   4.486   1.381  0.8718  0.0952 -0.4901
  343MOL0     C45148   9.551   4.428   1.357  0.5666 -0.6391 -0.2438
  343MOL0     C45149   9.530   4.349   1.239 -0.3160  1.3030  0.4904
  343MOL0     C45150   9.410   4.292   1.204 -0.3289 -0.5212 -0.3870
  343MOL0     C45151   9.302   4.311   1.289  0.1656  0.2825  0.9006
  343MOL0     O45152   9.177   4.253   1.260  0.4493  0.1679 -0.3967
  343MOL0     C45153   9.076   4.349   1.218  0.0184  0.0384  0.6495
  343MOL0     C45154   9.078   4.357   1.067  0.6184 -0.3327  0.0024
  343MOL0     C45155   9.017   4.231   1.000 -0.4037 -0.4682  0.5772
  343MOL0     C45156   9.023   4.258   0.845  0.1923  0.2299  0.0572
  343MOL0     C45157   8.977   4.131   0.777  0.1521 -0.4485 -0.6685
  343MOL0     C45158   8.941   4.169   0.631 -0.0984  0.4140 -0.0216
  343MOL0     C45159   8.851   4.064   0.564 -0.1155  0.0170  0.1785
  343MOL0     C45160   8.703   4.084   0.601 -0.5856  0.2515 -0.6617
  343MOL0     N45161   8.602   3.987   0.540 -0.5158 -0.3230  0.5881
  343MOL0     C45162   8.597   3.977   0.402 -0.2481  0.5318 -0.2285
  343MOL0     C45163   8.515   3.870   0.376  0.7342  0.5914 -1.2970
  343MOL0     C45164   8.482   3.818   0.245 -0.4827 -0.5169  0.4459
  343MOL0     C45165   8.602   3.771   0.156 -0.1881  0.8269 -0.3057
  343MOL0     C45166   8.643   3.641   0.210 -0.2608 -0.1912  0.3934
  343MOL0     C45167   8.770   3.580   0.146  1.1342 -0.0491  0.6521
  343MOL0     O45168   8.884   3.668   0.163 -0.1802 -0.4604  0.0739
  343MOL0     C45169   9.004   3.610   0.137 -0.4555  0.4349 -0.1303
  343MOL0     C45170   9.117   3.678   0.184  0.2875 -0.4880  0.1200
  343MOL0     C45171   9.245   3.631   0.171  0.1756 -0.3592  0.0370
  343MOL0     C45172   9.265   3.518   0.084  0.4456 -0.3984  0.0083
  343MOL0     C45173   9.401   3.475   0.053 -0.8413  0.3036  0.0166
  343MOL0     O45174   9.414   3.363  -0.034  0.3052  0.0429  0.4567
  343MOL0     C45175   9.528   3.341  -0.096 -0.8383 -0.0497  0.0021
  343MOL0     C45176   9.617   3.238  -0.065 -0.4065  0.7825  0.1468
  343MOL0     C45177   9.723   3.213  -0.152  0.2124 -0.1270  0.1268
  343MOL0     C45178   9.751   3.299  -0.260  0.2630 -0.6944  0.5617
  343MOL0     O45179   9.872   3.296  -0.327 -1.0489 -0.5587  0.2190
  343MOL0     C45180   9.997   3.261  -0.263 -0.1426  0.3647 -0.2498
  343MOL0     C45181  10.120   3.328  -0.317 -0.0585  0.5576  0.2016
  343MOL0     C45182  10.249   3.277  -0.256  0.0280  0.1378 -0.1363
  343MOL0     C45183  10.363   3.356  -0.321 -0.1361 -0.0139  0.3940
  343MOL0     C45184  10.484   3.325  -0.233 -1.1214 -0.7419  0.2321
  343MOL0     C45185  10.605   3.385  -0.300  0.2867 -0.5662 -0.1890
  343MOL0     C45186  10.729   3.397  -0.209 -0.4521  0.2193 -1.2595
  343MOL0     C45187  10.710   3.466  -0.071 -0.2284  1.0287 -0.0017
  343MOL0    Cl45188  10.692   3.638  -0.087 -0.3043 -0.2494  0.3937
  343MOL0     C45189   9.661   3.407  -0.285 -1.2360 -0.5397 -0.5456
  343MOL0     C45190   9.546   3.428  -0.207 -0.2998 -0.5850 -0.0940
  343MOL0     O45191   9.494   3.540   0.099  0.4802  0.3124  0.3550
  343MOL0     C45192   9.154   3.456   0.027  0.0128 -0.1215  0.3198
  343MOL0     C45193   9.024   3.498   0.057 -0.3985 -0.5981 -0.1640
  343MOL0     N45194   8.484   3.822   0.501 -0.0212 -1.2492 -0.9597
  343MOL0     N45195   8.543   3.885   0.595 -0.8672 -0.3143 -0.2927
  343MOL0     C45196   9.311   4.383   1.407 -0.0522 -0.1613 -0.4259
  343MOL0     C45197   9.437   4.444   1.445 -0.7548  0.0228 -0.2393
  343MOL0     C45198   9.792   4.694   1.409  1.1162 -0.7143  0.3530
  343MOL0     C45199   9.859   4.642   1.518 -1.1590 -0.2945  0.8148
  343MOL0     C45200   9.982   4.699   1.561  0.6513 -0.1050 -0.3848
  343MOL0     C45201  10.030   4.820   1.510  0.3670  0.4416 -0.0295
  343MOL0     O45202  10.142   4.883   1.551 -0.1774 -0.8548  0.1113
  343MOL0     C45203  10.210   4.818   1.653 -0.4984  1.3160 -0.3573
  343MOL0     C45204  10.340   4.890   1.671 -0.2275 -0.6817 -0.3983
  343MOL0     C45205  10.449   4.848   1.573  1.2373  0.8896 -0.3469
  343MOL0     C45206  10.581   4.932   1.596 -0.5822  0.1293 -0.4958
  343MOL0     C45207  10.641   4.913   1.726  0.4150 -0.5362  0.2170
  343MOL0     C45208  10.693   4.914   1.836 -0.0821  1.0542 -0.4176
  343MOL0     C45209   9.966   4.868   1.398  1.1322  0.0638 -0.3788
  343MOL0     C45210   9.845   4.812   1.353 -0.5787  0.0414  0.0559
  343MOL0     H45211   9.607   4.336   1.163 -0.0179 -1.0147  1.0959
  343MOL0     H45212   9.386   4.241   1.111 -2.9854  0.2559 -0.2084
  343MOL0     H45213   9.099   4.445   1.266  1.7004 -0.2030  0.4098
  343MOL0     H45214   8.980   4.312   1.253 -0.5170  0.1051 -0.6932
  343MOL0     H45215   9.180   4.369   1.030  0.3206 -1.9496 -1.5268
  343MOL0     H45216   9.021   4.442   1.028  1.7492  0.8679  0.8993
  343MOL0     H45217   8.914   4.205   1.027  0.2903 -4.4909 -0.0191
  343MOL0     H45218   9.078   4.142   1.021 -0.8101 -0.6661  0.9164
  343MOL0     H45219   8.957   4.344   0.830  1.5215  1.1576 -0.6557
  343MOL0     H45220   9.124   4.276   0.809  0.5965 -1.3315  0.3128
  343MOL0     H45221   8.884   4.103   0.828  0.7419  0.1396  0.7764
  343MOL0     H45222   9.058   4.057   0.775  1.4943  0.9767 -0.2626
  343MOL0     H45223   9.035   4.177   0.575  1.8772 -2.2959  2.5847
  343MOL0     H45224   8.887   4.263   0.636 -0.1295  0.3854  0.1973
  343MOL0     H45225   8.859   4.087   0.457  0.1925 -0.9876 -0.0299
  343MOL0     H45226   8.874   3.959   0.581 -0.4314  0.0522  0.8890
  343MOL0     H45227   8.671   4.188   0.591 -2.5517 -0.0681  1.5088
  343MOL0     H45228   8.697   4.046   0.703 -0.6233  0.2617 -0.6603
  343MOL0     H45229   8.634   4.040   0.322  0.0570 -0.6904 -1.0666
  343MOL0     H45230   8.427   3.892   0.186  1.4330  0.5017 -0.1902
  343MOL0     H45231   8.421   3.729   0.262 -0.2713 -0.3672  2.0986
  343MOL0     H45232   8.687   3.839   0.165  1.7465 -1.6065  1.4504
  343MOL0     H45233   8.567   3.783   0.054  1.1004  0.8453 -0.7636
  343MOL0     H45234   8.670   3.663   0.314  0.7487  2.9187 -0.4234
  343MOL0     H45235   8.559   3.571   0.198 -1.3409  0.9750  0.8428
  343MOL0     H45236   8.742   3.557   0.043 -0.1699  0.6557  0.8251
  343MOL0     H45237   8.790   3.479   0.182 -1.3228 -2.0153 -2.8404
  343MOL0     H45238   9.093   3.758   0.254 -1.7878  0.1469 -1.2059
  343MOL0     H45239   9.329   3.676   0.223 -0.5961  0.4747  0.5887
  343MOL0     H45240   9.582   3.189   0.026 -0.0811 -3.7582 -1.9187
  343MOL0     H45241   9.788   3.125  -0.151 -0.6120 -0.7628 -0.7334
  343MOL0     H45242  10.009   3.153  -0.274 -0.5895  0.5450 -3.8163
  343MOL0     H45243   9.993   3.276  -0.155 -1.5182 -3.7919  0.4421
  343MOL0     H45244  10.121   3.436  -0.299  1.2919  0.4126  1.1470
  343MOL0     H45245  10.132   3.298  -0.421  1.3693 -0.9665  0.7674
  343MOL0     H45246  10.268   3.171  -0.274  0.9644  0.0185  1.3878
  343MOL0     H45247  10.244   3.288  -0.147 -1.8814  1.8882 -0.3207
  343MOL0     H45248  10.377   3.320  -0.423  0.0788  2.2113 -0.4264
  343MOL0     H45249  10.339   3.463  -0.318 -1.7628 -0.3593  0.6659
  343MOL0     H45250  10.496   3.220  -0.206  2.8540  0.0576  2.3716
  343MOL0     H45251  10.453   3.382  -0.145 -0.3861  0.1401 -0.0646
  343MOL0     H45252  10.573   3.482  -0.340 -1.2068  0.2980  2.8068
  343MOL0     H45253  10.641   3.329  -0.386 -1.5161 -2.7397  0.3574
  343MOL0     H45254  10.765   3.294  -0.196 -0.0470  0.7689  4.2677
  343MOL0     H45255  10.806   3.455  -0.262  0.2977  0.7934  0.4084
  343MOL0     H45256  10.804   3.454  -0.017  1.4739 -1.0487 -3.1268
  343MOL0     H45257  10.641   3.424   0.003  0.0181  1.6556  0.5919
  343MOL0     H45258   9.679   3.483  -0.360  0.6880  0.4640  0.8237
  343MOL0     H45259   9.476   3.510  -0.220  1.0330  0.8779  1.4402
  343MOL0     H45260   9.167   3.373  -0.041  2.5809  0.3356  0.1660
  343MOL0     H45261   8.946   3.455  -0.006 -1.9113  0.9171  0.6230
  343MOL0     H45262   9.231   4.387   1.480 -0.5367 -0.3331 -0.9362
  343MOL0     H45263   9.453   4.494   1.540  0.6323 -1.6423  0.4480
  343MOL0     H45264   9.835   4.545   1.561 -0.2799 -2.0469 -2.3245
  343MOL0     H45265  10.034   4.646   1.639  0.2789 -0.5548 -0.4388
  343MOL0     H45266  10.234   4.716   1.624 -1.6407  1.6212 -2.6015
  343MOL0     H45267  10.153   4.828   1.746  2.1332  2.3185  1.2602
  343MOL0     H45268  10.307   4.994   1.673  2.1746  0.1534  1.5322
  343MOL0     H45269  10.372   4.866   1.773 -0.2386  1.5000  0.1678
  343MOL0     H45270  10.419   4.853   1.468  3.1379  1.5010 -0.8900
  343MOL0     H45271  10.462   4.741   1.586 -1.9048  0.6532  2.2623
  343MOL0     H45272  10.655   4.892   1.526 -2.0847 -2.0783 -0.9296
  343MOL0     H45273  10.561   5.038   1.580  0.8444  0.2634 -1.5962
  343MOL0     H45274  10.755   4.931   1.922  0.0634  1.7107 -0.6439
  343MOL0     H45275  10.023   4.951   1.358  0.4379  0.9928  0.5227
  343MOL0     H45276   9.793   4.860   1.270 -4.3605 -1.2241  1.4940
  344MOL0     O45277   8.725   3.020   4.119 -0.4878 -0.2136 -0.2094
  344MOL0     C45278   8.789   2.911   4.099 -0.6773 -0.7198 -0.1538
  344MOL0     O45279   8.739   2.801   4.037  1.0414  0.2630 -0.3200
  344MOL0     C45280   8.612   2.799   3.987 -0.2989 -0.6254  1.1172
  344MOL0     C45281   8.502   2.859   4.044  0.7965 -0.3663  0.1085
  344MOL0     C45282   8.371   2.849   3.992  0.1071  0.2366  0.1713
  344MOL0     C45283   8.350   2.778   3.873 -0.2663 -1.0436  0.3950
  344MOL0     O45284   8.233   2.765   3.813 -0.4780 -0.0727 -0.4541
  344MOL0     C45285   8.114   2.795   3.885 -0.1812  0.2329 -1.0214
  344MOL0     C45286   8.094   2.685   4.000  1.1553  0.2298 -0.5205
  344MOL0     C45287   7.959   2.692   4.074  0.3173 -0.1048 -0.1544
  344MOL0     C45288   7.868   2.808   4.039  0.3939 -0.6326  0.1568
  344MOL0     C45289   7.741   2.812   4.117 -0.2958 -0.0152 -0.3838
  344MOL0     C45290   7.640   2.712   4.065  0.7457 -0.3386 -0.4383
  344MOL0     C45291   7.508   2.757   4.122 -0.3595  0.1612 -0.6851
  344MOL0     C45292   7.428   2.841   4.014 -0.1208  0.6443  0.4358
  344MOL0     N45293   7.289   2.791   4.022 -0.0972 -0.1779  0.1196
  344MOL0     C45294   7.193   2.829   4.111  0.6285 -0.1061 -0.7213
  344MOL0     C45295   7.094   2.748   4.069 -0.3428 -0.2651  0.0940
  344MOL0     C45296   6.951   2.748   4.122  0.7638  0.8588  0.5307
  344MOL0     C45297   6.926   2.611   4.176 -0.1493  1.0175  1.2358
  344MOL0     C45298   7.022   2.566   4.290  0.2017  0.0252 -0.0276
  344MOL0     C45299   7.115   2.460   4.238 -1.4997 -0.0164 -0.1074
  344MOL0     O45300   7.073   2.335   4.283 -1.0180  0.2906  0.1431
  344MOL0     C45301   7.162   2.229   4.284 -0.4846  1.3017  0.0692
  344MOL0     C45302   7.287   2.233   4.212  0.7057  1.1554  0.1557
  344MOL0     C45303   7.368   2.120   4.220  0.0261 -0.0291 -0.1128
  344MOL0     C45304   7.330   1.999   4.260  0.1076 -0.4787  0.4210
  344MOL0     C45305   7.424   1.872   4.270 -0.0879  0.3369  0.0767
  344MOL0     O45306   7.357   1.752   4.295  0.4872  0.4330  0.5954
  344MOL0     C45307   7.436   1.640   4.280 -0.3942  0.6478  0.3415
  344MOL0     C45308   7.414   1.536   4.373 -0.4687 -0.0405 -0.8049
  344MOL0     C45309   7.490   1.414   4.361 -0.5951 -0.0402  1.0033
  344MOL0     C45310   7.577   1.389   4.257 -0.3953 -0.1438  1.1147
  344MOL0     O45311   7.663   1.282   4.240  0.2585  0.4025  0.0254
  344MOL0     C45312   7.728   1.234   4.359  0.0463 -0.1403  0.0822
  344MOL0     C45313   7.847   1.143   4.318 -0.0801  0.5922 -0.2917
  344MOL0     C45314   7.960   1.220   4.246 -0.3672 -0.2652 -0.5494
  344MOL0     C45315   8.065   1.117   4.182  0.1154  0.4476  0.3681
  344MOL0     C45316   8.195   1.190   4.153 -0.1143 -0.2536 -0.6895
  344MOL0     C45317   8.283   1.193   4.281  1.0703  0.6659 -0.9372
  344MOL0     C45318   8.425   1.247   4.260  0.1614 -0.7703 -0.4615
  344MOL0     C45319   8.529   1.151   4.206 -0.4046  0.0698 -0.1147
  344MOL0    Cl45320   8.598   1.058   4.343 -0.1288 -0.1745 -0.9141
  344MOL0     C45321   7.589   1.481   4.150 -0.5758 -0.6805  0.3743
  344MOL0     C45322   7.522   1.603   4.163 -0.4890  0.9581 -0.6340
  344MOL0     O45323   7.546   1.899   4.252  0.6505  0.0037 -0.0597
  344MOL0     C45324   7.201   1.987   4.303  0.7030  0.3161 -0.3293
  344MOL0     C45325   7.116   2.101   4.314  0.0946  0.1099  0.2213
  344MOL0     N45326   7.127   2.670   3.964  0.1101 -0.0606  0.1674
  344MOL0     N45327   7.236   2.707   3.934  0.1530 -0.8272  0.4167
  344MOL0     C45328   8.457   2.722   3.822 -0.4307  1.1676 -0.0249
  344MOL0     C45329   8.589   2.728   3.880 -1.2250 -0.3050  0.5742
  344MOL0     C45330   8.934   2.914   4.134  0.4331  1.0576 -0.5292
  344MOL0     C45331   9.007   2.799   4.109 -0.4291  0.2978 -0.3042
  344MOL0     C45332   9.138   2.784   4.154  0.3684  0.7720 -0.7633
  344MOL0     C45333   9.199   2.893   4.220  0.2414  0.0962 -0.1071
  344MOL0     O45334   9.329   2.879   4.273  0.5927 -0.4321  0.3832
  344MOL0     C45335   9.413   2.990   4.313  0.0140 -0.3935 -0.1033
  344MOL0     C45336   9.399   3.032   4.450  0.4813 -1.1562 -0.8832
  344MOL0     C45337   9.455   2.921   4.534  0.3111  0.8654 -0.7269
  344MOL0     C45338   9.451   2.958   4.684 -0.0740  0.0528  0.7448
  344MOL0     C45339   9.520   2.866   4.777  0.1464 -0.0214 -0.5595
  344MOL0     C45340   9.576   2.771   4.827  0.1635  0.0225 -0.2651
  344MOL0     C45341   9.136   3.015   4.236 -1.0182  0.2330  0.4427
  344MOL0     C45342   8.999   3.027   4.194  0.8095  0.3290  0.2111
  344MOL0     H45343   8.520   2.917   4.133  0.6662  0.6457 -0.5091
  344MOL0     H45344   8.291   2.897   4.048 -1.5135 -2.9814  0.8663
  344MOL0     H45345   8.033   2.795   3.812  0.8390 -0.8315 -2.1978
  344MOL0     H45346   8.126   2.896   3.926 -1.5316 -0.4288  1.2402
  344MOL0     H45347   8.184   2.693   4.062  1.0284 -1.2248 -0.1140
  344MOL0     H45348   8.098   2.582   3.962 -3.4555 -0.5014  0.3705
  344MOL0     H45349   7.971   2.696   4.183  0.9002 -0.3771 -0.2039
  344MOL0     H45350   7.913   2.596   4.049 -0.4102 -0.0941  1.0699
  344MOL0     H45351   7.921   2.895   4.079  2.2415 -0.7236 -1.8891
  344MOL0     H45352   7.853   2.818   3.931 -0.8861  3.1998  0.5401
  344MOL0     H45353   7.682   2.904   4.110 -0.6195 -0.1865  0.0139
  344MOL0     H45354   7.772   2.783   4.218  3.6975 -1.3172 -1.7793
  344MOL0     H45355   7.663   2.614   4.109  2.1740  0.1033 -0.1567
  344MOL0     H45356   7.633   2.714   3.956 -0.3709  0.2541 -0.3711
  344MOL0     H45357   7.450   2.666   4.136 -0.1530  0.1482  0.1250
  344MOL0     H45358   7.521   2.805   4.220  3.5145  0.1921 -1.0671
  344MOL0     H45359   7.470   2.821   3.914  1.8583  2.8793  0.7434
  344MOL0     H45360   7.440   2.948   4.032  3.5751  0.6724 -1.2872
  344MOL0     H45361   7.202   2.904   4.189 -2.7917 -2.6639  2.4711
  344MOL0     H45362   6.889   2.762   4.033 -1.2897 -1.2836  1.4974
  344MOL0     H45363   6.936   2.829   4.193  0.7455  1.2205  0.1132
  344MOL0     H45364   6.932   2.550   4.085 -1.7781  4.3434 -1.3180
  344MOL0     H45365   6.826   2.597   4.217 -0.1307  1.6181  1.4957
  344MOL0     H45366   7.070   2.659   4.322  3.4606 -0.1081 -3.8002
  344MOL0     H45367   6.961   2.527   4.372 -0.3463  0.3773 -0.2614
  344MOL0     H45368   7.220   2.471   4.267 -1.3860 -1.4370  0.0680
  344MOL0     H45369   7.114   2.447   4.130  1.8052  4.1626 -0.9372
  344MOL0     H45370   7.332   2.318   4.162  1.4410  0.1908 -0.8517
  344MOL0     H45371   7.466   2.131   4.176  1.1119 -0.9582  1.9576
  344MOL0     H45372   7.337   1.530   4.449  1.9001 -2.7354  1.6555
  344MOL0     H45373   7.473   1.339   4.438 -0.7771 -0.7813  0.2657
  344MOL0     H45374   7.663   1.191   4.436  0.7231 -1.2901  0.0339
  344MOL0     H45375   7.766   1.322   4.411 -0.3107  0.9250 -1.3839
  344MOL0     H45376   7.801   1.070   4.251  2.3771 -0.1249 -1.3059
  344MOL0     H45377   7.890   1.091   4.404  2.6652 -0.1166 -1.9714
  344MOL0     H45378   8.017   1.283   4.314  0.0009  0.4971 -1.5483
  344MOL0     H45379   7.923   1.286   4.167 -0.0352  0.2819 -0.2497
  344MOL0     H45380   8.079   1.032   4.249  0.7395  0.3448  0.1168
  344MOL0     H45381   8.025   1.083   4.086  1.5051 -0.9529  0.2575
  344MOL0     H45382   8.179   1.286   4.102 -1.7194  0.1472  0.4746
  344MOL0     H45383   8.248   1.125   4.083  0.3820  1.0691 -1.5715
  344MOL0     H45384   8.284   1.097   4.332  0.8340  0.7610 -0.7466
  344MOL0     H45385   8.237   1.261   4.354 -0.3246 -0.8611 -0.3162
  344MOL0     H45386   8.420   1.323   4.182  0.5500  1.9479  1.9723
  344MOL0     H45387   8.474   1.286   4.350 -0.8107 -2.0728  0.6671
  344MOL0     H45388   8.606   1.206   4.151 -1.9504  1.9035 -0.5490
  344MOL0     H45389   8.475   1.083   4.140 -2.1814 -1.1293  2.4067
  344MOL0     H45390   7.654   1.464   4.064  0.8169 -2.7758  1.7554
  344MOL0     H45391   7.536   1.681   4.089  1.5413  2.1726  0.9272
  344MOL0     H45392   7.151   1.894   4.325  0.4674  1.0208  2.4743
  344MOL0     H45393   7.018   2.088   4.358  0.8822  0.0884  2.0814
  344MOL0     H45394   8.446   2.669   3.728 -2.4783  2.1572 -0.4000
  344MOL0     H45395   8.677   2.672   3.850 -1.0385 -0.7543  1.9015
  344MOL0     H45396   8.957   2.715   4.062 -1.2196  1.2543 -1.2162
  344MOL0     H45397   9.195   2.692   4.147 -0.6302 -0.0434  1.0241
  344MOL0     H45398   9.391   3.071   4.243 -3.4831 -2.1918 -1.3380
  344MOL0     H45399   9.513   2.948   4.299  0.3459 -1.0936  3.4173
  344MOL0     H45400   9.461   3.118   4.476  0.8564 -1.8119  0.5074
  344MOL0     H45401   9.298   3.058   4.483 -1.7196 -3.7537 -4.7332
  344MOL0     H45402   9.554   2.886   4.502 -0.2394  0.4364 -2.0566
  344MOL0     H45403   9.383   2.840   4.522 -0.2833  1.4215 -0.9666
  344MOL0     H45404   9.484   3.061   4.697 -1.2252  0.7723 -1.4889
  344MOL0     H45405   9.344   2.947   4.706 -0.9033  1.3003 -2.1589
  344MOL0     H45406   9.636   2.693   4.869  0.9219 -0.0756 -1.4716
  344MOL0     H45407   9.173   3.100   4.293 -4.1641  1.1124  1.3788
  344MOL0     H45408   8.938   3.110   4.229 -0.2881 -0.1429 -0.5059
  345MOL0     O45409   4.455  10.932   7.167 -0.0833 -0.5733 -0.1691
  345MOL0     C45410   4.441  10.941   7.043 -0.4684  0.8227 -0.1975
  345MOL0     O45411   4.332  10.902   6.969  0.1050 -0.6976 -0.1603
  345MOL0     C45412   4.212  10.869   7.021  0.5926 -0.0179 -0.0532
  345MOL0     C45413   4.111  10.889   6.926 -0.4655  0.4132  0.6457
  345MOL0     C45414   3.975  10.858   6.961 -0.4334 -0.2618 -0.0348
  345MOL0     C45415   3.940  10.823   7.090  0.3379  0.1750  0.3007
  345MOL0     O45416   3.812  10.803   7.138 -0.3359 -0.3581  0.3081
  345MOL0     C45417   3.717  10.738   7.047 -0.1836  0.6305 -0.8350
  345MOL0     C45418   3.583  10.716   7.108  0.3417  0.8441 -0.5783
  345MOL0     C45419   3.509  10.609   7.031  0.2201  0.2918 -0.1704
  345MOL0     C45420   3.369  10.574   7.093 -0.9059  0.0225  0.0662
  345MOL0     C45421   3.267  10.505   7.004 -0.3873 -0.2159  0.3626
  345MOL0     C45422   3.158  10.442   7.092  0.1450  0.9406 -0.0947
  345MOL0     C45423   3.058  10.359   7.005  1.0059 -0.1863 -0.0512
  345MOL0     C45424   2.925  10.432   6.982 -0.1595 -0.3944 -0.2443
  345MOL0     N45425   2.851  10.417   7.110  0.7472 -0.7104  0.3025
  345MOL0     C45426   2.787  10.306   7.155 -0.2477 -0.1982  0.4226
  345MOL0     C45427   2.748  10.328   7.283  1.0314  1.0303  0.3999
  345MOL0     C45428   2.665  10.240   7.374 -0.3100  1.2184  0.3434
  345MOL0     C45429   2.527  10.281   7.364  0.0009  0.6011  0.1170
  345MOL0     C45430   2.452  10.253   7.227 -0.2701  0.1397  0.6041
  345MOL0     C45431   2.304  10.283   7.232 -0.1601 -0.9903  0.0384
  345MOL0     O45432   2.240  10.216   7.120 -0.0281  0.0641 -0.4625
  345MOL0     C45433   2.102  10.239   7.103 -0.1401  0.0905  0.4349
  345MOL0     C45434   2.017  10.132   7.061 -0.2725 -1.0940 -0.8206
  345MOL0     C45435   1.883  10.156   7.035  0.1541  0.2321  0.5853
  345MOL0     C45436   1.821  10.277   7.067  0.3066 -0.3059 -0.9431
  345MOL0     C45437   1.673  10.296   7.052 -0.3434  0.0629 -0.0719
  345MOL0     O45438   1.628  10.426   7.069 -0.2691 -0.1006 -0.4661
  345MOL0     C45439   1.525  10.471   6.998  0.4327 -1.0748  1.4754
  345MOL0     C45440   1.396  10.426   7.014 -1.1045  0.3168 -0.6544
  345MOL0     C45441   1.291  10.478   6.941  0.3169 -0.0868 -0.2035
  345MOL0     C45442   1.311  10.601   6.877  0.0790  0.8436  0.4063
  345MOL0     O45443   1.210  10.676   6.817 -0.9224  0.7968  0.1033
  345MOL0     C45444   1.118  10.727   6.915  0.3840 -0.3559 -0.7141
  345MOL0     C45445   0.975  10.721   6.865 -0.1443 -0.2733  0.8998
  345MOL0     C45446   0.951  10.746   6.715  1.0148  0.7404 -0.3999
  345MOL0     C45447   0.799  10.737   6.700  0.7965  0.7071 -0.5448
  345MOL0     C45448   0.747  10.748   6.557  1.1624  0.1390  0.0760
  345MOL0     C45449   0.611  10.820   6.532 -0.6051 -0.0965 -0.3276
  345MOL0     C45450   0.585  10.833   6.376  0.6399 -0.5725 -0.0665
  345MOL0     C45451   0.456  10.906   6.350 -0.5235 -0.0707  0.4621
  345MOL0    Cl45452   0.385  10.865   6.189 -0.1024  0.3514  0.1720
  345MOL0     C45453   1.440  10.656   6.864 -0.3317 -0.2874 -0.2741
  345MOL0     C45454   1.546  10.577   6.916  0.3356 -0.6593  0.0179
  345MOL0     O45455   1.604  10.197   7.011 -0.6163 -0.8905  0.0173
  345MOL0     C45456   1.909  10.375   7.129  0.2391 -0.2491 -0.2324
  345MOL0     C45457   2.043  10.358   7.144 -0.4740 -0.4364  0.3376
  345MOL0     N45458   2.804  10.445   7.325 -0.3957  0.1963  0.4637
  345MOL0     N45459   2.864  10.498   7.231  0.0610  0.1745  0.7321
  345MOL0     C45460   4.049  10.794   7.180  0.6640 -0.6276  0.1588
  345MOL0     C45461   4.177  10.830   7.147 -0.1068 -0.4941  0.0090
  345MOL0     C45462   4.558  10.981   6.968  0.5755  0.1040 -0.2633
  345MOL0     C45463   4.572  10.957   6.836  0.1971 -0.2900  0.2429
  345MOL0     C45464   4.688  10.994   6.768 -0.4781 -1.1126  0.1862
  345MOL0     C45465   4.802  11.039   6.830 -0.8783  0.1955  0.4961
  345MOL0     O45466   4.922  11.055   6.779 -0.3782 -0.1838  0.1802
  345MOL0     C45467   5.005  10.944   6.775 -1.0211  0.0108 -0.4322
  345MOL0     C45468   5.139  10.963   6.702  0.3441 -1.0327 -0.0794
  345MOL0     C45469   5.117  11.002   6.551 -0.6036  1.1479  0.8177
  345MOL0     C45470   5.243  11.003   6.474  0.4041 -0.6173  0.0405
  345MOL0     C45471   5.269  10.873   6.422 -0.2490 -0.5673  0.8057
  345MOL0     C45472   5.281  10.762   6.383 -1.3242 -0.1445  0.8800
  345MOL0     C45473   4.793  11.076   6.966  0.7231 -0.4144  0.5765
  345MOL0     C45474   4.670  11.038   7.030 -0.2194  0.0240 -0.0100
  345MOL0     H45475   4.140  10.918   6.826  1.7379 -0.8673  0.8533
  345MOL0     H45476   3.892  10.863   6.891 -1.0194  2.0546  0.7305
  345MOL0     H45477   3.759  10.642   7.013 -0.6275 -0.4082  1.3715
  345MOL0     H45478   3.695  10.804   6.963  1.9156  3.1579  0.4418
  345MOL0     H45479   3.525  10.808   7.100  0.5004  0.7985 -4.2999
  345MOL0     H45480   3.596  10.680   7.210 -0.0323 -2.5845 -1.5966
  345MOL0     H45481   3.557  10.511   7.023 -0.8935 -0.1690 -1.8286
  345MOL0     H45482   3.505  10.632   6.924 -1.1097 -0.1988 -0.2553
  345MOL0     H45483   3.386  10.521   7.188 -2.6302  1.7560  1.4212
  345MOL0     H45484   3.324  10.671   7.115 -2.0101 -0.5015  0.1665
  345MOL0     H45485   3.319  10.426   6.950  2.1084  1.2311  0.4779
  345MOL0     H45486   3.213  10.573   6.938  1.3461  0.7755 -0.1043
  345MOL0     H45487   3.108  10.515   7.156 -2.0178 -2.1915  2.1040
  345MOL0     H45488   3.202  10.367   7.158 -4.1413 -0.8391  1.1141
  345MOL0     H45489   3.106  10.358   6.907 -0.2128  1.0065 -0.6929
  345MOL0     H45490   3.040  10.259   7.046  2.4786  0.2460  1.8170
  345MOL0     H45491   2.867  10.390   6.899 -2.5690  3.1290 -0.5686
  345MOL0     H45492   2.941  10.534   6.946  0.7375 -0.2718  0.4686
  345MOL0     H45493   2.778  10.215   7.097  2.6534 -0.5059  0.3168
  345MOL0     H45494   2.700  10.265   7.474 -2.0658  1.2164  1.0074
  345MOL0     H45495   2.682  10.138   7.339 -0.8708  1.7461 -1.5541
  345MOL0     H45496   2.518  10.385   7.396  1.1593  1.0231 -0.8878
  345MOL0     H45497   2.476  10.222   7.441 -0.3565  1.0410  0.2206
  345MOL0     H45498   2.503  10.321   7.158  1.7426 -3.6852 -2.0939
  345MOL0     H45499   2.463  10.148   7.197  0.8032 -0.3195  2.4554
  345MOL0     H45500   2.293  10.391   7.221 -2.5666 -1.2904 -1.2778
  345MOL0     H45501   2.273  10.252   7.332  0.2601 -1.5915 -0.0145
  345MOL0     H45502   2.061  10.037   7.033 -2.9313 -3.4016  2.0168
  345MOL0     H45503   1.823  10.082   6.983 -0.0305  1.4694 -1.0596
  345MOL0     H45504   1.382  10.345   7.085  4.8832  0.9613  1.8999
  345MOL0     H45505   1.191  10.437   6.951  0.7261 -0.5968  6.0293
  345MOL0     H45506   1.148  10.831   6.932  0.4448  0.3995 -4.5055
  345MOL0     H45507   1.121  10.668   7.007  1.9088 -1.6366 -1.5452
  345MOL0     H45508   0.908  10.786   6.923 -0.0373  0.2004  0.5025
  345MOL0     H45509   0.936  10.620   6.882  0.2259 -0.1339  2.8119
  345MOL0     H45510   1.001  10.666   6.660  0.0755  0.5603 -1.0166
  345MOL0     H45511   0.987  10.847   6.693 -0.1971  2.0072  2.7578
  345MOL0     H45512   0.768  10.636   6.729 -0.7322  1.4285  0.4171
  345MOL0     H45513   0.754  10.813   6.764  0.7359 -0.5722  1.0088
  345MOL0     H45514   0.736  10.651   6.507  0.9363 -0.3495  1.0461
  345MOL0     H45515   0.825  10.799   6.500  0.8825 -0.2383 -0.6543
  345MOL0     H45516   0.618  10.914   6.586 -0.6865  0.7028 -1.6709
  345MOL0     H45517   0.523  10.770   6.574 -0.6582  0.0280 -0.2915
  345MOL0     H45518   0.661  10.895   6.327  1.5892 -1.4444  0.2630
  345MOL0     H45519   0.585  10.734   6.329  1.1969 -0.6183  0.0181
  345MOL0     H45520   0.478  11.013   6.355 -2.0537  0.3901 -1.3783
  345MOL0     H45521   0.380  10.870   6.420 -1.3293 -1.8909 -1.2344
  345MOL0     H45522   1.459  10.744   6.804  0.1064  1.1173  1.8052
  345MOL0     H45523   1.648  10.612   6.919 -0.2816  1.2680  0.2148
  345MOL0     H45524   1.865  10.467   7.166  3.7792  1.3127  0.5267
  345MOL0     H45525   2.102  10.443   7.176 -2.8953  0.1070  3.8743
  345MOL0     H45526   4.034  10.777   7.286 -1.9669 -1.4986 -0.2877
  345MOL0     H45527   4.254  10.811   7.221  0.4081  0.0023 -0.3906
  345MOL0     H45528   4.485  10.937   6.774 -0.1262  0.7740  0.3280
  345MOL0     H45529   4.686  10.980   6.661 -2.2040 -0.0301  0.0406
  345MOL0     H45530   4.948  10.867   6.722 -0.4755 -1.1048  0.5338
  345MOL0     H45531   5.021  10.913   6.879  0.3270 -0.3992 -0.7390
  345MOL0     H45532   5.189  11.055   6.733  2.8145 -2.3999  0.2206
  345MOL0     H45533   5.196  10.872   6.722 -0.7811 -1.4263  1.5802
  345MOL0     H45534   5.068  11.100   6.551 -2.7879  0.1394  2.7673
  345MOL0     H45535   5.046  10.930   6.511  0.1684  0.0699  1.3378
  345MOL0     H45536   5.223  11.070   6.390  0.3477 -0.0096  0.5291
  345MOL0     H45537   5.330  11.051   6.521  0.7367  0.2304 -1.3881
  345MOL0     H45538   5.282  10.662   6.346  2.0791  0.0005  0.2296
  345MOL0     H45539   4.880  11.114   7.018  0.5508  1.4370 -0.4212
  345MOL0     H45540   4.667  11.055   7.137 -1.3671  0.1886 -0.0483
  346MOL0     O45541   3.348   9.317   5.130  0.1292 -0.4995 -0.7844
  346MOL0     C45542   3.374   9.198   5.160  0.3312 -0.1592  0.1524
  346MOL0     O45543   3.274   9.101   5.172  0.0542  0.7647 -0.2497
  346MOL0     C45544   3.138   9.140   5.163  0.0523 -0.2981  0.9707
  346MOL0     C45545   3.088   9.162   5.036  0.2257  0.6070  0.5434
  346MOL0     C45546   2.949   9.166   5.025 -0.0011 -0.9617 -0.8243
  346MOL0     C45547   2.857   9.168   5.136  0.2761 -0.2112  0.5641
  346MOL0     O45548   2.724   9.182   5.135  0.2042  0.4049 -0.3244
  346MOL0     C45549   2.659   9.186   5.009  0.4613 -0.7001  0.3570
  346MOL0     C45550   2.513   9.235   5.028  0.6600 -0.6112  0.3012
  346MOL0     C45551   2.424   9.111   5.077 -0.6561 -0.7964 -0.8283
  346MOL0     C45552   2.272   9.132   5.064 -0.2487  0.0951  0.7578
  346MOL0     C45553   2.197   9.076   5.187  0.3613  1.8719  0.0472
  346MOL0     C45554   2.159   8.924   5.181  0.5055 -0.2802  0.9798
  346MOL0     C45555   2.057   8.885   5.062 -0.1345 -0.1117  0.2751
  346MOL0     C45556   1.910   8.925   5.086  0.0457 -0.0743  0.1226
  346MOL0     N45557   1.826   8.906   4.964 -0.6703 -0.4367 -0.4300
  346MOL0     C45558   1.693   8.870   4.972 -0.2977  0.3993 -0.8003
  346MOL0     C45559   1.641   8.900   4.850  0.2391 -0.2301 -0.3193
  346MOL0     C45560   1.500   8.861   4.799 -0.7596 -0.4463 -0.3352
  346MOL0     C45561   1.407   8.794   4.904 -0.3798  0.2294  0.5594
  346MOL0     C45562   1.259   8.793   4.851  0.3415 -0.2775  0.4281
  346MOL0     C45563   1.171   8.708   4.937 -0.6184 -0.3134 -0.4425
  346MOL0     O45564   1.035   8.735   4.908 -0.0451  0.0930  0.3211
  346MOL0     C45565   0.938   8.649   4.935 -0.4470  0.3262  0.0787
  346MOL0     C45566   0.811   8.678   4.891 -0.4994 -0.6608 -0.0307
  346MOL0     C45567   0.698   8.598   4.921 -0.4153  0.3652  0.6297
  346MOL0     C45568   0.713   8.499   5.014  0.1065 -0.6576  0.0937
  346MOL0     C45569   0.606   8.419   5.062 -0.1265  0.1135 -0.3121
  346MOL0     O45570   0.478   8.454   5.032 -0.2666 -0.1399 -1.0462
  346MOL0     C45571   0.377   8.366   5.065  0.1501 -0.4565 -0.3765
  346MOL0     C45572   0.269   8.426   5.141 -1.3993 -0.1964 -0.3687
  346MOL0     C45573   0.163   8.341   5.174 -0.6359  1.3494  0.2314
  346MOL0     C45574   0.165   8.207   5.133 -0.1990  0.6719 -1.2909
  346MOL0     O45575   0.051   8.142   5.187 -0.1513 -0.1051  0.5550
  346MOL0     C45576   0.007   8.017   5.127 -0.0110 -0.2178 -0.1456
  346MOL0     C45577  -0.138   8.026   5.097  0.0935  0.7447 -1.0447
  346MOL0     C45578  -0.167   8.119   4.980  1.0031 -0.0273 -0.6873
  346MOL0     C45579  -0.310   8.099   4.929  0.7824  0.2690  0.1799
  346MOL0     C45580  -0.362   8.212   4.843  0.5352  0.4296  0.7373
  346MOL0     C45581  -0.486   8.175   4.761  0.8338 -0.0764  0.7129
  346MOL0     C45582  -0.606   8.250   4.827  0.4940 -0.5177 -0.6555
  346MOL0     C45583  -0.745   8.240   4.757  0.2670  1.5331 -0.9005
  346MOL0    Cl45584  -0.805   8.082   4.750 -0.5842 -0.3949 -0.1847
  346MOL0     C45585   0.263   8.151   5.054 -0.1725 -0.3398  0.2389
  346MOL0     C45586   0.371   8.231   5.027  0.8877 -0.1187  0.0640
  346MOL0     O45587   0.638   8.330   5.136 -0.2720  0.3079  0.3767
  346MOL0     C45588   0.845   8.473   5.056 -0.4240  0.2016  0.8352
  346MOL0     C45589   0.961   8.536   5.009 -0.5523 -0.0970 -0.6532
  346MOL0     N45590   1.748   8.950   4.777  0.0782  0.0733  0.7309
  346MOL0     N45591   1.853   8.951   4.845 -0.1657 -0.2425  0.0520
  346MOL0     C45592   2.923   9.148   5.259 -0.1096 -0.0356  0.5745
  346MOL0     C45593   3.060   9.132   5.278 -0.5383 -0.1569 -0.5737
  346MOL0     C45594   3.514   9.149   5.151  0.0383  0.3139 -0.4700
  346MOL0     C45595   3.620   9.236   5.103  0.3530 -0.0927  0.5679
  346MOL0     C45596   3.756   9.210   5.126 -0.1994  0.1358  0.4406
  346MOL0     C45597   3.795   9.088   5.189  0.9239  0.0949 -0.2348
  346MOL0     O45598   3.921   9.058   5.217 -0.2746  0.1075 -0.0483
  346MOL0     C45599   4.030   9.118   5.148  0.9268  0.6179 -0.0584
  346MOL0     C45600   4.154   9.026   5.171  0.5446  0.8104 -0.5287
  346MOL0     C45601   4.258   9.036   5.049 -0.1320  0.0452  1.7029
  346MOL0     C45602   4.315   9.173   5.063  0.6562  0.0102 -0.0114
  346MOL0     C45603   4.384   9.205   4.947  0.2151 -0.7055 -0.2401
  346MOL0     C45604   4.449   9.224   4.840 -0.0240 -0.5011 -0.0203
  346MOL0     C45605   3.695   9.007   5.241  1.0274 -0.2082 -1.0997
  346MOL0     C45606   3.555   9.038   5.221 -0.3438 -0.1849  0.2116
  346MOL0     H45607   3.151   9.168   4.948 -1.6920 -1.0701 -1.0886
  346MOL0     H45608   2.899   9.174   4.929 -0.5685 -1.7890 -0.6111
  346MOL0     H45609   2.673   9.091   4.956  0.9468 -1.2266  1.3869
  346MOL0     H45610   2.715   9.263   4.956  1.0107 -0.4368  1.2951
  346MOL0     H45611   2.477   9.272   4.931 -0.0524  0.8886  1.0980
  346MOL0     H45612   2.502   9.323   5.093 -1.6780  0.3924 -1.3143
  346MOL0     H45613   2.441   9.094   5.184 -0.0474 -3.9397 -1.2955
  346MOL0     H45614   2.456   9.020   5.024 -0.9012 -0.9877 -0.6506
  346MOL0     H45615   2.259   9.241   5.069  3.6877  0.7258  0.3958
  346MOL0     H45616   2.233   9.087   4.972 -1.3646  2.0149  0.2228
  346MOL0     H45617   2.096   9.117   5.192 -2.1726 -2.8941 -3.6325
  346MOL0     H45618   2.232   9.115   5.283  2.3708 -0.6170  0.4325
  346MOL0     H45619   2.107   8.896   5.273 -3.1337  0.2603 -0.7662
  346MOL0     H45620   2.255   8.873   5.165  2.0571  2.4764  0.8620
  346MOL0     H45621   2.087   8.914   4.962 -0.9420 -1.6083 -0.4398
  346MOL0     H45622   2.051   8.775   5.058  0.6636 -0.1895  0.8125
  346MOL0     H45623   1.903   9.033   5.100  2.1494  0.4649 -2.2301
  346MOL0     H45624   1.868   8.869   5.170 -2.2730 -3.0815 -2.7710
  346MOL0     H45625   1.644   8.818   5.053  0.2225 -0.5881 -1.0898
  346MOL0     H45626   1.505   8.804   4.706  1.0683  0.4803 -0.8477
  346MOL0     H45627   1.448   8.950   4.764  0.2443 -0.8933 -3.2117
  346MOL0     H45628   1.419   8.848   4.998  0.5825 -0.4365  0.8313
  346MOL0     H45629   1.433   8.688   4.911 -3.3848 -0.7130 -0.6028
  346MOL0     H45630   1.222   8.896   4.853 -1.7550 -0.9745  0.2892
  346MOL0     H45631   1.264   8.763   4.746  0.3626  5.0555 -1.3960
  346MOL0     H45632   1.185   8.737   5.041 -5.2561  0.9423  0.0574
  346MOL0     H45633   1.201   8.604   4.919 -0.7733 -0.2126 -1.3616
  346MOL0     H45634   0.799   8.765   4.826 -2.6592  1.0614  2.4836
  346MOL0     H45635   0.601   8.623   4.881 -0.4997 -2.5177 -1.1888
  346MOL0     H45636   0.287   8.529   5.166 -0.6919 -0.6483  1.0390
  346MOL0     H45637   0.088   8.376   5.245  0.4803 -0.6086  2.5368
  346MOL0     H45638   0.026   7.941   5.204 -1.3891  0.5532  0.9949
  346MOL0     H45639   0.060   7.992   5.034  1.9225 -1.2923  1.1546
  346MOL0     H45640  -0.191   8.054   5.188  3.0361  0.8325  0.7566
  346MOL0     H45641  -0.170   7.924   5.072 -1.1702  0.3957  1.7024
  346MOL0     H45642  -0.097   8.098   4.898 -0.4145 -0.7353 -1.7573
  346MOL0     H45643  -0.145   8.223   5.004  1.8016 -0.4903  0.7552
  346MOL0     H45644  -0.318   8.015   4.859 -2.9711  0.9341 -0.3981
  346MOL0     H45645  -0.381   8.087   5.011  0.4175  3.0782  0.3643
  346MOL0     H45646  -0.287   8.242   4.769  0.4831 -1.9820 -0.3700
  346MOL0     H45647  -0.375   8.302   4.904  1.9564  3.0753 -2.5017
  346MOL0     H45648  -0.493   8.067   4.745  0.7689  0.1579 -1.0962
  346MOL0     H45649  -0.476   8.214   4.659 -0.4404 -1.3676  0.0375
  346MOL0     H45650  -0.632   8.206   4.924 -0.6174 -0.1950 -0.7886
  346MOL0     H45651  -0.577   8.355   4.841  0.5656 -0.5447 -0.6071
  346MOL0     H45652  -0.733   8.292   4.661 -2.7611  2.1751 -1.0298
  346MOL0     H45653  -0.823   8.304   4.799 -1.8412  0.1457 -2.4789
  346MOL0     H45654   0.264   8.046   5.030  2.9627 -0.2499 -0.4292
  346MOL0     H45655   0.454   8.193   4.969  1.8048 -0.8752  1.7781
  346MOL0     H45656   0.853   8.391   5.127 -0.9595  1.3294  2.2388
  346MOL0     H45657   1.060   8.505   5.043  0.3988  1.1014 -2.2127
  346MOL0     H45658   2.857   9.145   5.345  0.0839  2.9995  0.9396
  346MOL0     H45659   3.104   9.089   5.367 -0.8031 -1.3069 -0.9880
  346MOL0     H45660   3.578   9.316   5.044  2.9751  2.0069  1.3354
  346MOL0     H45661   3.837   9.275   5.095  0.8570 -0.5566  1.6402
  346MOL0     H45662   4.047   9.221   5.183 -2.6131  0.9110  1.1490
  346MOL0     H45663   4.005   9.125   5.042 -0.3257 -0.2836  0.1607
  346MOL0     H45664   4.211   9.041   5.263  0.4959  0.1395 -0.3860
  346MOL0     H45665   4.119   8.923   5.181 -2.2770  1.7012 -0.4107
  346MOL0     H45666   4.203   9.013   4.958 -1.9957  1.5500  2.3773
  346MOL0     H45667   4.334   8.958   5.063  1.9293  1.8029  0.8227
  346MOL0     H45668   4.243   9.249   5.096  1.2538  0.8603 -0.6225
  346MOL0     H45669   4.384   9.157   5.146  1.1856  0.9791 -0.2446
  346MOL0     H45670   4.502   9.235   4.747  1.6668  3.1247  1.1905
  346MOL0     H45671   3.718   8.923   5.306  3.2255  2.3516  1.7108
  346MOL0     H45672   3.475   8.977   5.262 -1.5998 -0.5950 -2.5762
  347MOL0     O45673   6.537   9.510   8.839  0.4036  0.4620 -0.6096
  347MOL0     C45674   6.573   9.595   8.757  0.5823  0.0316 -0.0487
  347MOL0     O45675   6.489   9.684   8.700 -0.1698 -0.2667 -0.2294
  347MOL0     C45676   6.369   9.698   8.764 -0.4748 -0.2266  0.3130
  347MOL0     C45677   6.265   9.608   8.754  0.3474 -0.5092  0.1139
  347MOL0     C45678   6.140   9.637   8.815 -0.8065  0.2815  0.1597
  347MOL0     C45679   6.118   9.768   8.858  1.2407 -0.1070 -0.1322
  347MOL0     O45680   5.986   9.795   8.900 -0.5734 -0.4288  1.1433
  347MOL0     C45681   5.973   9.924   8.968  0.0856  0.5515 -0.1749
  347MOL0     C45682   5.830   9.932   9.028  0.3950 -0.9562 -1.0213
  347MOL0     C45683   5.806  10.058   9.113  0.6702  0.6332 -0.1412
  347MOL0     C45684   5.681  10.036   9.204  0.3397  1.0503 -0.0360
  347MOL0     C45685   5.634  10.159   9.285  0.3294 -0.8133 -0.5846
  347MOL0     C45686   5.516  10.118   9.381 -0.4042 -0.3171  0.5915
  347MOL0     C45687   5.415  10.010   9.328 -0.0672  0.0919  0.0783
  347MOL0     C45688   5.340  10.084   9.211  0.2192 -0.4002  0.0124
  347MOL0     N45689   5.211  10.027   9.186 -0.1721 -0.1505  0.9753
  347MOL0     C45690   5.101  10.070   9.253 -0.9217  0.0799 -0.4078
  347MOL0     C45691   5.002   9.990   9.209  0.1600 -0.1151  0.7880
  347MOL0     C45692   4.863   9.984   9.267  0.3506  0.2308 -0.0855
  347MOL0     C45693   4.796   9.850   9.301 -0.3126 -1.1377 -0.5192
  347MOL0     C45694   4.645   9.867   9.282  0.5248 -0.7513 -0.5265
  347MOL0     C45695   4.580   9.737   9.344 -1.0177  0.5232 -1.0057
  347MOL0     O45696   4.609   9.719   9.481 -0.0821  0.5159 -0.6996
  347MOL0     C45697   4.518   9.707   9.573 -0.7228 -0.2114 -0.0013
  347MOL0     C45698   4.385   9.747   9.570  0.1977  0.6028  0.1120
  347MOL0     C45699   4.301   9.711   9.681 -0.1195 -0.1241  0.1868
  347MOL0     C45700   4.357   9.637   9.787 -0.0909  0.8584  0.0814
  347MOL0     C45701   4.271   9.591   9.900 -0.4401  0.6549  0.4429
  347MOL0     O45702   4.144   9.642   9.906  0.2068 -0.0123 -0.2084
  347MOL0     C45703   4.070   9.614  10.020  0.7464  0.1940  0.3488
  347MOL0     C45704   3.974   9.519  10.008 -0.7763 -0.3421 -0.0213
  347MOL0     C45705   3.886   9.489  10.111  0.0954  0.4706 -0.2423
  347MOL0     C45706   3.911   9.554  10.240  0.7943  1.4321 -0.7458
  347MOL0     O45707   3.821   9.541  10.338  0.1139  0.3810 -0.0146
  347MOL0     C45708   3.696   9.486  10.312  1.5096  0.3396  0.6188
  347MOL0     C45709   3.625   9.467  10.447  0.6813  0.4379 -0.0225
  347MOL0     C45710   3.566   9.595  10.508  0.6762  0.0636  0.1357
  347MOL0     C45711   3.477   9.573  10.627  1.2063  0.3379 -0.1637
  347MOL0     C45712   3.447   9.701  10.709 -0.3536  0.1069  0.3798
  347MOL0     C45713   3.390   9.655  10.846 -0.4396  0.2718  0.2375
  347MOL0     C45714   3.238   9.633  10.818 -0.2624 -0.2835  0.0714
  347MOL0     C45715   3.153   9.751  10.858 -0.5246 -0.7873  0.5380
  347MOL0    Cl45716   2.976   9.715  10.867  0.0430 -0.5276  0.2003
  347MOL0     C45717   4.011   9.649  10.254  0.2326  0.8954  0.2113
  347MOL0     C45718   4.092   9.680  10.142  0.5394  0.0706  0.2701
  347MOL0     O45719   4.319   9.516   9.985 -0.3101  0.0361  0.3037
  347MOL0     C45720   4.487   9.600   9.787  0.8648 -0.0130 -0.1110
  347MOL0     C45721   4.565   9.632   9.677 -0.5284 -1.4354  0.1367
  347MOL0     N45722   5.060   9.905   9.116  0.0878  0.5579 -0.2989
  347MOL0     N45723   5.174   9.928   9.106  0.3536  0.5798  0.3990
  347MOL0     C45724   6.222   9.860   8.857 -1.1392  0.6409  0.7723
  347MOL0     C45725   6.346   9.824   8.803 -0.8183  0.3436 -0.4907
  347MOL0     C45726   6.712   9.592   8.694 -0.8117  0.6312 -0.2513
  347MOL0     C45727   6.800   9.510   8.758 -0.5219 -0.3441  0.5342
  347MOL0     C45728   6.926   9.489   8.698  0.5233  0.0895  0.0656
  347MOL0     C45729   6.961   9.536   8.576 -0.8886 -0.1380  0.0818
  347MOL0     O45730   7.096   9.510   8.539  0.6820 -1.4099 -0.0321
  347MOL0     C45731   7.148   9.571   8.418  0.2207 -0.2233  0.1884
  347MOL0     C45732   7.302   9.576   8.439  0.2696 -0.5191  0.3139
  347MOL0     C45733   7.369   9.634   8.308  0.1586  0.0499  0.2544
  347MOL0     C45734   7.526   9.626   8.319  0.3381 -0.0467  0.7730
  347MOL0     C45735   7.572   9.483   8.305 -0.7250 -1.0942 -0.0885
  347MOL0     C45736   7.609   9.366   8.317 -0.2084  0.4297 -0.2135
  347MOL0     C45737   6.873   9.616   8.507 -0.6815 -0.2042 -0.5975
  347MOL0     C45738   6.744   9.643   8.565 -0.0646 -1.1932  0.3242
  347MOL0     H45739   6.260   9.515   8.697 -1.1145 -1.1646  1.2332
  347MOL0     H45740   6.066   9.557   8.812  0.5230 -0.9824 -1.2458
  347MOL0     H45741   5.974   9.997   8.888 -0.9714 -1.1963 -1.8745
  347MOL0     H45742   6.052   9.950   9.039 -0.8200  0.1057  1.0545
  347MOL0     H45743   5.815   9.854   9.103 -1.4667  0.5679  0.2954
  347MOL0     H45744   5.751   9.922   8.952 -0.2123 -0.2186 -0.5019
  347MOL0     H45745   5.798  10.144   9.046 -1.3767  0.6381  0.0534
  347MOL0     H45746   5.899  10.084   9.166  0.9364  2.9375 -1.5707
  347MOL0     H45747   5.604   9.989   9.142  2.4575 -3.3769  0.3022
  347MOL0     H45748   5.705   9.962   9.281 -0.1110  3.6190  2.7624
  347MOL0     H45749   5.613  10.247   9.223 -0.0396  0.3284  1.1035
  347MOL0     H45750   5.717  10.199   9.344  0.0782  0.9266 -1.3306
  347MOL0     H45751   5.464  10.204   9.423  0.2417  1.2827 -1.7435
  347MOL0     H45752   5.565  10.067   9.465 -1.8134 -3.9387 -0.5881
  347MOL0     H45753   5.458   9.915   9.295  1.1381  1.4179 -2.4404
  347MOL0     H45754   5.344   9.981   9.406  0.5246 -2.2819 -0.1840
  347MOL0     H45755   5.408  10.072   9.126 -0.1430 -1.7937 -0.0972
  347MOL0     H45756   5.323  10.191   9.229 -1.0597 -0.7840  1.2289
  347MOL0     H45757   5.102  10.132   9.342 -0.1063 -3.2055  2.0718
  347MOL0     H45758   4.806  10.041   9.192 -1.4941  0.6552  1.5614
  347MOL0     H45759   4.853  10.047   9.355  1.6006 -2.7011  2.3205
  347MOL0     H45760   4.815   9.809   9.400 -0.2364 -2.2741 -0.9819
  347MOL0     H45761   4.832   9.775   9.230  1.3055  1.0677 -2.1878
  347MOL0     H45762   4.600   9.954   9.333 -0.2655 -0.5110 -1.6014
  347MOL0     H45763   4.627   9.882   9.175  1.1886  0.1716 -0.5204
  347MOL0     H45764   4.630   9.649   9.304  1.7083  0.1349  2.7130
  347MOL0     H45765   4.475   9.737   9.314 -3.1519  3.6517  4.7995
  347MOL0     H45766   4.341   9.785   9.478  0.7725 -0.0432 -0.4335
  347MOL0     H45767   4.197   9.741   9.671 -0.1323 -0.6794 -1.7928
  347MOL0     H45768   3.955   9.471   9.912 -8.0986 -0.8870  1.1341
  347MOL0     H45769   3.804   9.418  10.107 -0.3287  0.5222  3.5700
  347MOL0     H45770   3.696   9.385  10.270 -0.3186  0.1145  1.0812
  347MOL0     H45771   3.653   9.559  10.244  1.2703 -1.5928 -1.4342
  347MOL0     H45772   3.691   9.415  10.516  1.6441  0.3407 -0.9855
  347MOL0     H45773   3.540   9.399  10.437  0.9654 -0.5927  3.3993
  347MOL0     H45774   3.512   9.648  10.429 -0.1065  1.1906  1.3989
  347MOL0     H45775   3.650   9.660  10.535  0.6910 -0.1466  0.6031
  347MOL0     H45776   3.390   9.518  10.589 -2.0400  4.5232  0.3462
  347MOL0     H45777   3.535   9.515  10.699 -0.0747 -1.2523 -0.3573
  347MOL0     H45778   3.371   9.764  10.662 -2.2806  0.6929  3.8925
  347MOL0     H45779   3.532   9.769  10.722  0.6932 -1.3337  1.3132
  347MOL0     H45780   3.408   9.724  10.929 -1.6137  0.6889  0.1643
  347MOL0     H45781   3.436   9.560  10.873 -1.9456 -1.3949 -2.5881
  347MOL0     H45782   3.205   9.610  10.716  0.6052 -1.0048 -0.0580
  347MOL0     H45783   3.216   9.542  10.874  4.7244 -1.3893  0.6483
  347MOL0     H45784   3.152   9.836  10.790  1.2052 -0.6612  0.6134
  347MOL0     H45785   3.195   9.781  10.955 -0.3251 -0.5082  0.3655
  347MOL0     H45786   4.021   9.697  10.351 -1.2057  0.2360  0.7207
  347MOL0     H45787   4.164   9.761  10.142  1.4068 -0.6436 -1.1467
  347MOL0     H45788   4.530   9.527   9.855 -0.9607 -1.0852 -0.0446
  347MOL0     H45789   4.667   9.594   9.676 -0.2298 -0.6350 -0.9260
  347MOL0     H45790   6.213   9.964   8.887  1.2999  1.1160  0.0651
  347MOL0     H45791   6.429   9.893   8.799  0.7820 -1.2345  2.4575
  347MOL0     H45792   6.775   9.452   8.846  1.6017  0.8971  2.0593
  347MOL0     H45793   6.996   9.417   8.739 -0.5803  0.6804  3.2126
  347MOL0     H45794   7.117   9.673   8.391 -3.6841 -2.0525 -3.4983
  347MOL0     H45795   7.138   9.501   8.335  4.9304 -1.1412  0.1675
  347MOL0     H45796   7.328   9.640   8.524  0.5681  2.8203 -2.0916
  347MOL0     H45797   7.335   9.473   8.454 -0.0137 -1.6113 -4.7853
  347MOL0     H45798   7.337   9.737   8.291 -1.9556 -0.3765  1.3758
  347MOL0     H45799   7.336   9.585   8.216 -0.4222  2.4686 -0.9054
  347MOL0     H45800   7.577   9.681   8.239 -0.0226 -1.8198 -0.7493
  347MOL0     H45801   7.563   9.665   8.414  1.2454 -2.4541  1.4879
  347MOL0     H45802   7.641   9.264   8.323 -0.2514  0.5022  2.2936
  347MOL0     H45803   6.889   9.652   8.406 -0.2444 -0.1158 -0.4966
  347MOL0     H45804   6.669   9.709   8.523  1.3037 -0.2118 -0.6734
  348MOL0     O45805   2.831   5.025   4.553 -0.1952  0.0902 -0.3590
  348MOL0     C45806   2.800   5.142   4.583  0.0804 -0.4065  0.0204
  348MOL0     O45807   2.887   5.253   4.582 -0.4491  0.2822 -0.1818
  348MOL0     C45808   3.025   5.240   4.576  0.3275 -0.1488  0.0997
  348MOL0     C45809   3.101   5.124   4.591 -0.7604  0.4070  0.4107
  348MOL0     C45810   3.240   5.128   4.580  0.1399  0.5815 -0.3476
  348MOL0     C45811   3.310   5.248   4.564 -0.0992 -0.5049 -0.0426
  348MOL0     O45812   3.448   5.247   4.557 -0.5390  0.0176 -0.1416
  348MOL0     C45813   3.514   5.368   4.608 -0.7063  0.4724 -0.5562
  348MOL0     C45814   3.664   5.352   4.646 -0.4294  0.2026 -0.4899
  348MOL0     C45815   3.759   5.333   4.527 -0.0218 -0.9059 -1.0200
  348MOL0     C45816   3.896   5.327   4.582 -0.1763 -0.3632 -0.4077
  348MOL0     C45817   3.994   5.304   4.475 -0.4921  0.0911 -0.2998
  348MOL0     C45818   4.109   5.214   4.533 -0.5810  0.2342  0.7526
  348MOL0     C45819   4.207   5.187   4.419  0.3999 -0.4133  0.4017
  348MOL0     C45820   4.358   5.181   4.470  0.6395 -0.4208  0.4737
  348MOL0     N45821   4.409   5.318   4.465  0.7320 -0.6808  0.6888
  348MOL0     C45822   4.380   5.419   4.549  0.1268  0.3853  0.2859
  348MOL0     C45823   4.446   5.529   4.504 -0.1012 -0.7033 -1.4815
  348MOL0     C45824   4.411   5.666   4.546 -0.7864  0.4365 -0.4389
  348MOL0     C45825   4.273   5.694   4.490  0.2959 -0.7305  0.4044
  348MOL0     C45826   4.231   5.830   4.533  0.8761  0.3072  0.2697
  348MOL0     C45827   4.087   5.865   4.497  0.0319  0.0194 -0.6033
  348MOL0     O45828   4.000   5.778   4.569 -0.0047  0.4035 -0.0970
  348MOL0     C45829   3.865   5.774   4.534  0.7546 -0.3355 -0.0434
  348MOL0     C45830   3.783   5.706   4.625 -0.4645  0.6445 -0.6976
  348MOL0     C45831   3.646   5.686   4.597 -0.9253 -0.0220  0.7450
  348MOL0     C45832   3.597   5.717   4.462 -0.4339 -0.9801  0.7800
  348MOL0     C45833   3.461   5.692   4.421  0.1444 -0.1839  0.3707
  348MOL0     O45834   3.439   5.651   4.290  0.2497  0.0777 -0.0053
  348MOL0     C45835   3.309   5.628   4.261  0.7683 -0.2630 -0.2384
  348MOL0     C45836   3.260   5.500   4.249 -0.2184  0.6331 -0.0257
  348MOL0     C45837   3.124   5.487   4.225 -0.2578 -1.0958  0.7671
  348MOL0     C45838   3.033   5.592   4.208 -0.0611 -0.1979  0.1282
  348MOL0     O45839   2.896   5.585   4.186 -0.0557  0.0395 -0.4214
  348MOL0     C45840   2.828   5.462   4.212 -0.0478 -0.6743  0.1039
  348MOL0     C45841   2.682   5.486   4.252  0.4140 -0.0268  1.3759
  348MOL0     C45842   2.640   5.388   4.366 -0.1473 -0.5988 -0.0675
  348MOL0     C45843   2.490   5.399   4.407 -0.3344 -0.1310  0.8046
  348MOL0     C45844   2.458   5.543   4.463 -0.2682 -0.0244 -0.0682
  348MOL0     C45845   2.318   5.528   4.521 -0.7095  0.0039  0.5182
  348MOL0     C45846   2.281   5.640   4.621  1.0081 -0.0707  0.1402
  348MOL0     C45847   2.132   5.620   4.659 -0.3430 -0.1402  0.4854
  348MOL0    Cl45848   2.088   5.675   4.825 -0.2546 -0.2079  0.2170
  348MOL0     C45849   3.088   5.723   4.208  0.4419  0.4949  0.0643
  348MOL0     C45850   3.223   5.738   4.231 -0.3424 -0.5357 -0.4487
  348MOL0     O45851   3.371   5.705   4.503 -0.2727 -0.6293  0.9511
  348MOL0     C45852   3.691   5.757   4.366  0.2696 -0.1021  0.2064
  348MOL0     C45853   3.819   5.783   4.403 -0.3270 -0.3788  0.6309
  348MOL0     N45854   4.532   5.495   4.405  0.2572 -0.1389 -0.0090
  348MOL0     N45855   4.494   5.374   4.377  0.1052 -0.0938  0.0761
  348MOL0     C45856   3.233   5.367   4.558  0.7791  0.6586 -0.0545
  348MOL0     C45857   3.100   5.361   4.560 -0.1295  0.5281  0.1313
  348MOL0     C45858   2.671   5.175   4.639  0.4997 -0.9265  0.4500
  348MOL0     C45859   2.567   5.087   4.641  0.7493 -0.8887  0.7916
  348MOL0     C45860   2.443   5.119   4.688  0.5471 -0.3222 -0.2800
  348MOL0     C45861   2.418   5.235   4.748 -0.2019 -0.6491 -0.2470
  348MOL0     O45862   2.295   5.262   4.811  0.4923 -0.4509 -0.7388
  348MOL0     C45863   2.292   5.362   4.910 -0.2567 -0.5123 -0.1605
  348MOL0     C45864   2.151   5.362   4.981  0.2051 -1.4859 -0.3335
  348MOL0     C45865   2.109   5.239   5.043 -0.2926  0.3420 -0.1407
  348MOL0     C45866   1.974   5.251   5.098 -0.1191  0.7436  1.1152
  348MOL0     C45867   1.971   5.338   5.219  0.1254  0.8563  0.9201
  348MOL0     C45868   1.978   5.389   5.325  0.2840  0.0056 -0.7862
  348MOL0     C45869   2.527   5.314   4.772  0.1387 -0.8236  0.3280
  348MOL0     C45870   2.651   5.292   4.715 -0.1512 -0.0641  0.0505
  348MOL0     H45871   3.058   5.028   4.617  1.6716 -1.0446 -0.6202
  348MOL0     H45872   3.296   5.038   4.603 -1.2603 -1.1267 -3.0818
  348MOL0     H45873   3.466   5.409   4.697 -0.6549 -0.1837 -0.2240
  348MOL0     H45874   3.502   5.446   4.532  2.0853  2.5395  0.9797
  348MOL0     H45875   3.692   5.264   4.704  2.3603 -0.8090 -3.1323
  348MOL0     H45876   3.705   5.442   4.692 -0.2705 -0.2583  0.2906
  348MOL0     H45877   3.735   5.413   4.457  0.2775 -0.5330 -0.6946
  348MOL0     H45878   3.748   5.237   4.474 -0.9398 -1.0186 -0.6444
  348MOL0     H45879   3.922   5.416   4.640  0.7897 -0.1641 -1.1300
  348MOL0     H45880   3.900   5.243   4.653 -0.4328  1.5141  1.9692
  348MOL0     H45881   4.034   5.401   4.444 -2.0431  1.2669  1.2002
  348MOL0     H45882   3.953   5.244   4.393 -1.6310  0.9199 -0.3513
  348MOL0     H45883   4.066   5.116   4.559  0.1631  0.1970  1.9157
  348MOL0     H45884   4.160   5.247   4.624  3.6129 -4.3280  0.4878
  348MOL0     H45885   4.179   5.097   4.364  2.3445 -0.8996  0.1439
  348MOL0     H45886   4.198   5.268   4.345 -1.9189 -0.9843 -0.0283
  348MOL0     H45887   4.408   5.130   4.387  0.8801  3.6385 -2.1561
  348MOL0     H45888   4.363   5.126   4.564 -0.1024 -0.0745  0.7242
  348MOL0     H45889   4.314   5.403   4.633  0.7176 -1.5302  0.4321
  348MOL0     H45890   4.489   5.727   4.500  0.3178 -1.8280 -1.7024
  348MOL0     H45891   4.417   5.681   4.655  1.9265 -0.2425 -0.4283
  348MOL0     H45892   4.200   5.638   4.548 -4.5334  3.5422 -0.8247
  348MOL0     H45893   4.259   5.685   4.382 -1.0577  0.7158  0.4285
  348MOL0     H45894   4.239   5.838   4.642 -2.8632 -1.0912  0.7900
  348MOL0     H45895   4.292   5.907   4.484 -1.7326  2.8899  0.8214
  348MOL0     H45896   4.080   5.859   4.388  3.4960 -0.7958 -0.9102
  348MOL0     H45897   4.069   5.968   4.530  2.9371  0.8654 -1.3064
  348MOL0     H45898   3.823   5.670   4.719  1.5874 -2.5190 -2.5950
  348MOL0     H45899   3.563   5.663   4.664 -2.0131  0.1840 -0.4939
  348MOL0     H45900   3.330   5.420   4.269 -1.3319  0.2493  2.6343
  348MOL0     H45901   3.088   5.386   4.211 -0.7447 -0.7989 -0.2767
  348MOL0     H45902   2.877   5.408   4.293 -1.6663 -0.5009  1.2314
  348MOL0     H45903   2.833   5.401   4.120  0.8515  2.4674 -2.0840
  348MOL0     H45904   2.625   5.472   4.159 -0.4556 -0.5802  1.9810
  348MOL0     H45905   2.675   5.590   4.284 -0.1368  0.4658 -0.2506
  348MOL0     H45906   2.711   5.388   4.449 -1.0791  1.7087  0.8152
  348MOL0     H45907   2.658   5.291   4.319 -0.4442 -1.1884  0.9856
  348MOL0     H45908   2.440   5.371   4.314  0.4023 -0.0088  0.3616
  348MOL0     H45909   2.455   5.321   4.476 -0.4829  1.1231  2.1958
  348MOL0     H45910   2.445   5.623   4.390 -2.2303  1.3487  1.6702
  348MOL0     H45911   2.520   5.572   4.548 -1.0550  1.1591  0.1238
  348MOL0     H45912   2.306   5.436   4.578  3.0791 -1.4860 -0.8091
  348MOL0     H45913   2.237   5.538   4.448  0.0435 -2.1312 -0.6768
  348MOL0     H45914   2.334   5.626   4.716  0.0813  1.8299  0.9855
  348MOL0     H45915   2.297   5.738   4.576 -0.3529 -0.9933 -2.6340
  348MOL0     H45916   2.106   5.514   4.662  1.2668 -0.5601  0.5293
  348MOL0     H45917   2.070   5.673   4.587  0.7190 -0.2047 -0.5025
  348MOL0     H45918   3.033   5.815   4.195 -1.7195 -0.2622  2.9663
  348MOL0     H45919   3.266   5.838   4.244 -2.9023  0.5258  0.4460
  348MOL0     H45920   3.653   5.791   4.270 -1.6625 -0.4820  0.7974
  348MOL0     H45921   3.877   5.838   4.329  0.2382  1.1929  2.1559
  348MOL0     H45922   3.271   5.469   4.549  2.6746  0.2787  2.6636
  348MOL0     H45923   3.060   5.461   4.548  1.3102  1.0704 -0.4234
  348MOL0     H45924   2.568   4.987   4.598 -1.2189 -0.5611 -0.1144
  348MOL0     H45925   2.367   5.043   4.669 -0.1845  0.1469  0.6972
  348MOL0     H45926   2.309   5.462   4.868  1.2444 -0.5058  0.4045
  348MOL0     H45927   2.368   5.351   4.988  2.5819  1.5080 -2.4354
  348MOL0     H45928   2.159   5.435   5.062  0.9111 -0.4009 -1.3512
  348MOL0     H45929   2.070   5.392   4.914 -1.2555 -1.7141  1.2470
  348MOL0     H45930   2.187   5.209   5.114  0.0552  1.9574  0.2058
  348MOL0     H45931   2.105   5.161   4.966 -0.9010  0.5697 -0.3446
  348MOL0     H45932   1.907   5.282   5.018  0.0430 -3.8150 -1.0717
  348MOL0     H45933   1.938   5.157   5.139 -0.3694  0.2075 -0.2818
  348MOL0     H45934   1.968   5.428   5.424  1.1682  0.2018 -0.7655
  348MOL0     H45935   2.515   5.411   4.819 -0.9883 -0.2915 -1.0029
  348MOL0     H45936   2.726   5.369   4.726  1.0517 -1.2144  0.2182
  349MOL0     O45937   3.018   7.018   9.994  0.1415  0.3814 -0.0301
  349MOL0     C45938   2.917   7.081   9.983  0.7329  0.5746  0.2253
  349MOL0     O45939   2.822   7.059   9.887  0.4923 -0.1181 -0.1383
  349MOL0     C45940   2.829   6.947   9.807 -0.2952  0.5707 -1.0346
  349MOL0     C45941   2.869   6.967   9.678 -0.8175 -1.2421  0.2501
  349MOL0     C45942   2.894   6.879   9.578  0.4468  0.3593  0.6412
  349MOL0     C45943   2.884   6.748   9.623 -0.3113  0.1356  0.6430
  349MOL0     O45944   2.907   6.637   9.537  0.3339 -0.3610  0.3149
  349MOL0     C45945   2.852   6.655   9.405 -0.4550  0.5725 -0.3690
  349MOL0     C45946   2.699   6.671   9.401 -0.7237 -0.9153  0.2044
  349MOL0     C45947   2.624   6.535   9.427 -0.2715  0.3974 -0.0647
  349MOL0     C45948   2.529   6.506   9.312  1.2064  0.4691 -0.3064
  349MOL0     C45949   2.421   6.388   9.346  0.2512 -0.0281 -0.5289
  349MOL0     C45950   2.474   6.279   9.439  0.0055 -0.7313 -0.2216
  349MOL0     C45951   2.370   6.166   9.433 -0.1866 -0.0243 -0.0071
  349MOL0     C45952   2.401   6.066   9.538 -0.6064 -0.7678 -0.3833
  349MOL0     N45953   2.294   5.969   9.578  0.6056 -0.0559  0.2969
  349MOL0     C45954   2.165   5.997   9.636  1.2280 -0.0797 -0.0983
  349MOL0     C45955   2.111   5.870   9.643  0.1113  0.0161  0.6533
  349MOL0     C45956   1.965   5.843   9.686 -1.2466 -0.2114 -0.0839
  349MOL0     C45957   1.878   5.829   9.567 -0.2120  0.0429 -0.9632
  349MOL0     C45958   1.746   5.777   9.611  1.0292  0.1584  0.7662
  349MOL0     C45959   1.664   5.863   9.715  0.6244 -0.1946  0.1054
  349MOL0     O45960   1.527   5.836   9.698  0.0132  0.1504  0.1150
  349MOL0     C45961   1.479   5.725   9.764  0.0271 -0.4918 -0.1531
  349MOL0     C45962   1.545   5.632   9.842 -0.2515  0.4666 -0.3566
  349MOL0     C45963   1.478   5.537   9.922  0.4817  0.2807  0.7104
  349MOL0     C45964   1.334   5.523   9.909 -1.1770 -0.9647  1.0922
  349MOL0     C45965   1.258   5.419   9.976  0.5117 -0.5335 -0.4983
  349MOL0     O45966   1.322   5.329  10.047 -0.2863  0.0051  0.4939
  349MOL0     C45967   1.268   5.273  10.158  0.5725 -0.5042 -0.0593
  349MOL0     C45968   1.323   5.149  10.198 -0.1272  0.1930 -0.8968
  349MOL0     C45969   1.251   5.074  10.293 -1.2805  0.9304  0.8719
  349MOL0     C45970   1.144   5.127  10.367  0.1325 -0.2640  0.7349
  349MOL0     O45971   1.069   5.052  10.456 -0.1355 -0.0106  0.1335
  349MOL0     C45972   1.091   5.087  10.596 -0.2970  0.6411  0.8195
  349MOL0     C45973   1.239   5.053  10.637 -1.0728 -0.2095  0.0642
  349MOL0     C45974   1.255   4.986  10.772  0.3606 -0.2857 -0.1565
  349MOL0     C45975   1.224   5.083  10.887 -0.3211 -0.3834 -0.1699
  349MOL0     C45976   1.222   5.014  11.030  0.4824  0.0512  0.8789
  349MOL0     C45977   1.096   4.930  11.046 -0.2883  0.3063 -0.6591
  349MOL0     C45978   1.058   4.903  11.200 -0.6465  0.3295  0.0252
  349MOL0     C45979   1.038   5.025  11.286  0.2853 -0.3617  0.4323
  349MOL0    Cl45980   0.955   5.006  11.432  0.0663 -0.2157  0.3769
  349MOL0     C45981   1.104   5.264  10.338 -1.1585  0.1613  0.0112
  349MOL0     C45982   1.163   5.340  10.235  0.0605  0.6059 -0.0625
  349MOL0     O45983   1.136   5.413   9.961  0.5434 -0.2882 -0.1955
  349MOL0     C45984   1.268   5.618   9.826 -0.6811  0.2658  0.5319
  349MOL0     C45985   1.337   5.719   9.759  0.1844 -0.1792 -0.2095
  349MOL0     N45986   2.205   5.781   9.609  0.9324 -0.2054 -0.3515
  349MOL0     N45987   2.306   5.837   9.553 -0.4028  0.7097 -0.5845
  349MOL0     C45988   2.863   6.718   9.755 -0.0536  0.1191 -1.1219
  349MOL0     C45989   2.826   6.814   9.850 -0.5400  0.0528  0.6207
  349MOL0     C45990   2.897   7.204  10.072 -0.7271 -0.1814 -0.6024
  349MOL0     C45991   3.007   7.281  10.126 -0.4553  0.0203  0.4321
  349MOL0     C45992   2.983   7.409  10.189 -0.0320  0.4738  0.8479
  349MOL0     C45993   2.854   7.466  10.181  0.4734  0.3672 -0.5156
  349MOL0     O45994   2.829   7.587  10.239  0.1181 -0.5614 -0.5088
  349MOL0     C45995   2.760   7.696  10.169  0.8031 -0.8480 -0.2369
  349MOL0     C45996   2.842   7.752  10.059 -0.1557 -0.6151  0.4563
  349MOL0     C45997   2.976   7.819  10.109  0.1752  0.0452 -0.1895
  349MOL0     C45998   3.029   7.926  10.010 -0.3261  0.2320  1.1495
  349MOL0     C45999   3.039   7.862   9.877  0.2256  0.7639  0.2650
  349MOL0     C46000   3.040   7.781   9.788 -0.2262  0.2451 -0.0596
  349MOL0     C46001   2.748   7.389  10.127 -0.2313 -0.3941 -0.4474
  349MOL0     C46002   2.774   7.260  10.074  0.0630  0.3385  0.2828
  349MOL0     H46003   2.874   7.065   9.632 -0.7342 -0.5834  1.6168
  349MOL0     H46004   2.926   6.905   9.478 -1.9643 -2.4678 -1.0531
  349MOL0     H46005   2.869   6.563   9.348  0.3250  0.0413  0.6793
  349MOL0     H46006   2.906   6.734   9.353 -1.7551  2.7033  1.3551
  349MOL0     H46007   2.689   6.699   9.296  0.0908 -2.2940 -0.2713
  349MOL0     H46008   2.666   6.753   9.466  3.7594  0.4586  1.0874
  349MOL0     H46009   2.566   6.551   9.519 -0.6068  0.8438 -0.3532
  349MOL0     H46010   2.698   6.456   9.445  2.3236  2.8735  0.8094
  349MOL0     H46011   2.470   6.595   9.289  2.2548  0.6172 -2.6481
  349MOL0     H46012   2.585   6.471   9.225  1.7942  0.3662  0.1055
  349MOL0     H46013   2.382   6.339   9.256  2.6346  0.0604 -1.6997
  349MOL0     H46014   2.338   6.431   9.402  1.8099 -0.5041  2.3444
  349MOL0     H46015   2.484   6.318   9.540  2.3119 -2.2500  0.2168
  349MOL0     H46016   2.572   6.241   9.410  0.5281  1.2791 -1.2602
  349MOL0     H46017   2.281   6.225   9.454 -0.3895 -0.0190 -0.8355
  349MOL0     H46018   2.353   6.132   9.330  0.4059  0.3179 -0.2248
  349MOL0     H46019   2.428   6.111   9.634 -2.6465  0.7464 -0.4677
  349MOL0     H46020   2.492   6.014   9.505 -0.3540  0.4851 -1.7866
  349MOL0     H46021   2.108   6.087   9.656  1.3921  0.6043 -2.4085
  349MOL0     H46022   1.933   5.920   9.756  0.8554  0.8625 -0.1995
  349MOL0     H46023   1.968   5.751   9.745  1.9739  0.3314  0.7915
  349MOL0     H46024   1.933   5.767   9.495  0.1084  2.7722 -3.2788
  349MOL0     H46025   1.848   5.928   9.529 -0.6324  0.2453 -0.1213
  349MOL0     H46026   1.688   5.768   9.519  3.1372  1.9767 -0.8330
  349MOL0     H46027   1.768   5.676   9.647  2.5524 -0.4920 -1.7340
  349MOL0     H46028   1.689   5.966   9.689 -0.5490  0.1141  0.1266
  349MOL0     H46029   1.687   5.855   9.822  1.6357 -1.4318 -0.1803
  349MOL0     H46030   1.653   5.633   9.855 -0.1295  1.7460 -1.2067
  349MOL0     H46031   1.544   5.480   9.986  1.0622  2.3667  2.0746
  349MOL0     H46032   1.414   5.110  10.152  0.1504  0.8543 -0.9125
  349MOL0     H46033   1.288   4.977  10.326  0.8443  1.6569  0.7606
  349MOL0     H46034   1.016   5.031  10.652  0.2074 -0.0157  0.8473
  349MOL0     H46035   1.075   5.195  10.607  1.0093  0.9477 -0.1104
  349MOL0     H46036   1.305   5.136  10.612  0.1869 -1.2437 -0.1219
  349MOL0     H46037   1.265   4.970  10.571 -0.3892  0.5128 -0.5860
  349MOL0     H46038   1.354   4.941  10.774  0.3238 -0.5207 -1.8581
  349MOL0     H46039   1.185   4.902  10.770  1.8915 -1.6638  1.4510
  349MOL0     H46040   1.307   5.154  10.888  1.7037 -2.6311  0.6925
  349MOL0     H46041   1.126   5.128  10.866 -0.2582 -0.1183  0.0956
  349MOL0     H46042   1.243   5.078  11.117 -1.9489  1.6279  0.4344
  349MOL0     H46043   1.297   4.935  11.022  0.1835 -0.0900 -0.9833
  349MOL0     H46044   1.115   4.835  10.996  0.9502  0.2793 -0.1637
  349MOL0     H46045   1.006   4.974  11.001 -0.0149 -0.3521 -1.9121
  349MOL0     H46046   0.964   4.849  11.219  0.0470 -0.0283  2.8513
  349MOL0     H46047   1.134   4.834  11.236 -0.7772 -0.0161 -0.3464
  349MOL0     H46048   0.986   5.104  11.230  0.5173 -0.5517 -0.0605
  349MOL0     H46049   1.134   5.070  11.313  0.0731 -0.5373  1.5189
  349MOL0     H46050   1.020   5.297  10.398 -1.0867 -2.1254  1.4713
  349MOL0     H46051   1.143   5.445  10.217 -2.3582 -0.4302 -5.0241
  349MOL0     H46052   1.160   5.612   9.827 -0.7357 -1.2601  4.3169
  349MOL0     H46053   1.275   5.793   9.710  0.0385 -1.4430 -2.0519
  349MOL0     H46054   2.865   6.613   9.785  1.5209 -0.7396 -3.9072
  349MOL0     H46055   2.810   6.789   9.955  1.2514  1.5748  1.3360
  349MOL0     H46056   3.101   7.228  10.128 -0.1911  0.4358 -0.3739
  349MOL0     H46057   3.066   7.469  10.225  0.6583 -0.9917  1.8003
  349MOL0     H46058   2.747   7.774  10.244 -0.2104  0.0366 -1.3056
  349MOL0     H46059   2.659   7.663  10.144  1.4803 -1.6627 -2.0088
  349MOL0     H46060   2.862   7.674   9.986 -3.0296  1.9173 -3.4623
  349MOL0     H46061   2.772   7.817  10.005  1.8913  1.1162 -0.3008
  349MOL0     H46062   3.055   7.743  10.106  0.3982  0.2643 -3.5344
  349MOL0     H46063   2.957   7.861  10.208 -2.2950 -2.4247  0.5174
  349MOL0     H46064   2.963   8.013  10.008 -0.3386  0.2132 -0.5617
  349MOL0     H46065   3.132   7.958  10.027  1.6828 -1.4899 -5.1226
  349MOL0     H46066   3.042   7.704   9.713 -3.1972 -0.7987  0.8154
  349MOL0     H46067   2.648   7.432  10.128 -0.1996 -0.3087  0.6224
  349MOL0     H46068   2.696   7.221  10.008  0.2042  1.4341 -0.5625
  350MOL0     O46069   1.532   4.145   0.427 -0.6406 -0.0509 -0.1221
  350MOL0     C46070   1.494   4.259   0.447 -0.0660  0.0471  0.4392
  350MOL0     O46071   1.373   4.296   0.493 -0.3144 -1.0017  0.3758
  350MOL0     C46072   1.277   4.204   0.540  0.0178 -0.2351 -0.0120
  350MOL0     C46073   1.189   4.246   0.643  0.6229  0.1413  0.2148
  350MOL0     C46074   1.068   4.163   0.676 -0.3150  0.5703  0.5473
  350MOL0     C46075   1.049   4.041   0.607 -0.6129 -0.0509 -0.1519
  350MOL0     O46076   0.941   3.963   0.635 -0.2953  0.0296 -0.5366
  350MOL0     C46077   0.802   4.016   0.634 -0.6669 -0.1678  0.2200
  350MOL0     C46078   0.739   4.018   0.771 -0.2969  0.1534  0.7525
  350MOL0     C46079   0.593   4.060   0.768 -0.1030 -0.2459 -0.0873
  350MOL0     C46080   0.538   4.028   0.906  0.0510  0.1600 -0.4797
  350MOL0     C46081   0.393   4.075   0.918  0.5370 -1.0081 -0.8834
  350MOL0     C46082   0.330   4.066   1.064  0.1967 -0.6663  1.1279
  350MOL0     C46083   0.185   4.133   1.071 -0.8285  0.4374 -0.4535
  350MOL0     C46084   0.150   4.130   1.215  0.9148  0.2921  0.4104
  350MOL0     N46085   0.008   4.159   1.237  0.0335 -0.2410  0.4347
  350MOL0     C46086  -0.100   4.087   1.195  0.4864  0.9180 -0.1306
  350MOL0     C46087  -0.205   4.153   1.239  0.7515  0.1447  0.6908
  350MOL0     C46088  -0.351   4.116   1.244 -0.1985  0.3298 -0.4665
  350MOL0     C46089  -0.390   4.083   1.384  0.6252 -0.3561 -0.5848
  350MOL0     C46090  -0.535   4.015   1.395 -1.6876 -0.6920 -0.1875
  350MOL0     C46091  -0.660   4.094   1.359  0.1357  0.4082  0.1852
  350MOL0     O46092  -0.770   4.030   1.422  0.0680  1.1921 -0.5379
  350MOL0     C46093  -0.893   4.060   1.378 -0.6451 -0.4417 -0.5662
  350MOL0     C46094  -0.992   4.000   1.445 -0.3658 -1.0796 -1.1363
  350MOL0     C46095  -1.128   3.999   1.395  0.0972  0.5838  0.3964
  350MOL0     C46096  -1.166   4.084   1.294 -0.1287  0.3939 -0.8100
  350MOL0     C46097  -1.315   4.092   1.256 -0.4602 -0.2171  0.5857
  350MOL0     O46098  -1.397   3.991   1.293 -0.4981  0.1569  0.4810
  350MOL0     C46099  -1.530   3.975   1.246 -0.6746  0.7880  0.2001
  350MOL0     C46100  -1.571   4.024   1.124 -0.2962  0.0573  0.7468
  350MOL0     C46101  -1.698   3.995   1.078 -0.8767 -0.5082 -0.5734
  350MOL0     C46102  -1.781   3.910   1.147  0.0617  0.3411 -0.2874
  350MOL0     O46103  -1.898   3.864   1.091 -0.0573 -0.7293 -0.0521
  350MOL0     C46104  -1.998   3.970   1.113  0.9963  1.0152 -0.9786
  350MOL0     C46105  -2.146   3.906   1.143  0.4079  0.1494  0.4437
  350MOL0     C46106  -2.201   3.806   1.037  0.0832 -0.0417 -0.8883
  350MOL0     C46107  -2.350   3.826   1.033  0.7212 -0.1760  0.4825
  350MOL0     C46108  -2.418   3.721   0.955 -0.5320 -0.2950  0.8745
  350MOL0     C46109  -2.569   3.766   0.928 -0.1728 -0.2774 -0.7618
  350MOL0     C46110  -2.643   3.663   0.849 -0.3250 -0.1298  0.6846
  350MOL0     C46111  -2.631   3.519   0.904  0.0446  0.4106 -0.2685
  350MOL0    Cl46112  -2.697   3.526   1.065 -0.1961  0.1586  0.0744
  350MOL0     C46113  -1.739   3.856   1.273  0.1872  0.4841 -0.5159
  350MOL0     C46114  -1.613   3.891   1.327  0.6513  0.2494  0.1421
  350MOL0     O46115  -1.357   4.197   1.199 -0.3728 -0.1786 -0.9790
  350MOL0     C46116  -1.064   4.150   1.219 -0.2126  0.6275 -1.1209
  350MOL0     C46117  -0.929   4.133   1.263  0.1080 -0.3223 -0.1009
  350MOL0     N46118  -0.160   4.263   1.311 -0.3553 -0.3153  0.4780
  350MOL0     N46119  -0.034   4.265   1.312 -0.0581 -0.5462  0.0942
  350MOL0     C46120   1.148   4.003   0.507 -0.0875  0.0346 -0.2950
  350MOL0     C46121   1.253   4.092   0.473 -0.1866  1.0370 -0.7594
  350MOL0     C46122   1.588   4.370   0.410  0.3100  0.0889  0.7094
  350MOL0     C46123   1.722   4.338   0.391 -0.2612  0.4491  0.1012
  350MOL0     C46124   1.813   4.444   0.363 -0.5633 -0.0570  0.6240
  350MOL0     C46125   1.775   4.578   0.366 -0.3493 -0.2944  0.4172
  350MOL0     O46126   1.844   4.690   0.329  0.3255 -0.0783  0.1386
  350MOL0     C46127   1.936   4.670   0.232 -0.4735 -0.2669 -0.2366
  350MOL0     C46128   1.917   4.766   0.120 -0.6446 -0.6006  0.0899
  350MOL0     C46129   1.944   4.909   0.175  0.2433  1.3146  1.0531
  350MOL0     C46130   1.900   5.012   0.073 -0.0022  0.4880 -0.2460
  350MOL0     C46131   1.970   5.011  -0.054  0.4176 -0.0123  0.3296
  350MOL0     C46132   2.024   5.025  -0.160  0.4209  0.0897 -0.4626
  350MOL0     C46133   1.647   4.602   0.408  0.5727 -0.5469 -0.5824
  350MOL0     C46134   1.552   4.502   0.428 -0.3387  0.0844 -0.3205
  350MOL0     H46135   1.210   4.344   0.685  0.7701  0.2286 -0.0571
  350MOL0     H46136   1.001   4.199   0.753 -0.0565  2.2949  0.0160
  350MOL0     H46137   0.734   3.956   0.572  0.6429 -2.2592  0.7164
  350MOL0     H46138   0.799   4.121   0.605 -1.0926  0.1880  1.4565
  350MOL0     H46139   0.799   4.080   0.839 -0.7809 -1.5100  2.7918
  350MOL0     H46140   0.742   3.919   0.818 -1.8848  0.1938  0.9836
  350MOL0     H46141   0.535   4.012   0.688  1.0265 -1.3762 -0.2623
  350MOL0     H46142   0.600   4.168   0.752 -4.0509 -0.0707 -1.7528
  350MOL0     H46143   0.540   3.922   0.933  0.7278  0.0346 -1.0035
  350MOL0     H46144   0.600   4.087   0.975  2.0425 -1.6328 -0.6099
  350MOL0     H46145   0.339   4.017   0.843  3.1647 -1.9329 -2.1675
  350MOL0     H46146   0.390   4.179   0.884  0.1932 -0.6453  0.2187
  350MOL0     H46147   0.386   4.123   1.139 -4.4437  4.0143  1.5970
  350MOL0     H46148   0.328   3.957   1.077  0.4802 -0.5586  2.1039
  350MOL0     H46149   0.188   4.239   1.043 -2.6449  0.5942 -0.1858
  350MOL0     H46150   0.107   4.082   1.015  3.0511 -2.2018 -4.1504
  350MOL0     H46151   0.222   4.198   1.261 -1.8243  2.4634  1.8217
  350MOL0     H46152   0.149   4.030   1.258 -2.0385  0.5677  1.2170
  350MOL0     H46153  -0.087   3.993   1.143  0.5802  0.8798 -0.0389
  350MOL0     H46154  -0.367   4.022   1.190 -1.3158 -0.4923  1.2125
  350MOL0     H46155  -0.414   4.202   1.220 -0.0511  0.7569  0.6170
  350MOL0     H46156  -0.379   4.168   1.452  1.2529 -1.2405  0.4676
  350MOL0     H46157  -0.319   4.005   1.414 -0.2652 -1.3754 -1.0262
  350MOL0     H46158  -0.534   3.925   1.333 -0.7913  1.0446 -2.8530
  350MOL0     H46159  -0.552   3.985   1.499 -1.3796  0.4606  0.2185
  350MOL0     H46160  -0.673   4.089   1.251 -3.0830  1.1383  0.4494
  350MOL0     H46161  -0.654   4.196   1.398  3.5860 -0.5577  2.6874
  350MOL0     H46162  -0.968   3.955   1.540  2.9453  0.9866 -0.8319
  350MOL0     H46163  -1.210   3.947   1.444  0.6657 -1.2088 -0.4632
  350MOL0     H46164  -1.508   4.078   1.055 -1.8372  1.3683  0.3070
  350MOL0     H46165  -1.728   4.040   0.984 -1.6504  1.7413  0.6690
  350MOL0     H46166  -2.001   4.042   1.031  1.3426  1.5591 -0.5270
  350MOL0     H46167  -1.984   4.029   1.204  2.7728 -2.2398  1.0728
  350MOL0     H46168  -2.208   3.996   1.158 -0.5667 -0.6676  1.4831
  350MOL0     H46169  -2.146   3.849   1.236 -2.7110 -1.2508 -0.3010
  350MOL0     H46170  -2.180   3.701   1.057  3.2308  0.2217 -2.2164
  350MOL0     H46171  -2.155   3.836   0.942 -0.0115  0.8216 -0.6718
  350MOL0     H46172  -2.395   3.819   1.133  0.5621 -3.2523  0.2973
  350MOL0     H46173  -2.360   3.926   0.992  0.3476 -0.9721 -1.4839
  350MOL0     H46174  -2.419   3.635   1.023  1.0915 -1.6570 -0.7069
  350MOL0     H46175  -2.360   3.696   0.865  1.0739 -0.6352  1.9518
  350MOL0     H46176  -2.574   3.865   0.883  0.2647  0.3550  0.5234
  350MOL0     H46177  -2.619   3.785   1.023 -1.0671 -0.7578 -1.1302
  350MOL0     H46178  -2.744   3.704   0.845  0.9071  3.0499 -2.0115
  350MOL0     H46179  -2.615   3.667   0.743 -3.1713  0.7636 -0.1099
  350MOL0     H46180  -2.525   3.495   0.904 -0.0126 -0.2183 -3.2569
  350MOL0     H46181  -2.677   3.438   0.846  0.2420 -0.2790  0.5166
  350MOL0     H46182  -1.800   3.779   1.320  0.1224 -1.6384 -3.6959
  350MOL0     H46183  -1.590   3.851   1.425 -0.1627 -0.2339  0.1522
  350MOL0     H46184  -1.090   4.216   1.137 -3.5590 -0.2869 -0.9563
  350MOL0     H46185  -0.842   4.181   1.218 -0.9657  1.6350 -0.1971
  350MOL0     H46186   1.127   3.910   0.455 -0.5343 -0.6183  1.0127
  350MOL0     H46187   1.325   4.067   0.395  0.5235  3.3148 -0.9097
  350MOL0     H46188   1.766   4.239   0.397  3.0750  1.6506 -1.8255
  350MOL0     H46189   1.911   4.417   0.327 -0.9211 -1.6795  0.7847
  350MOL0     H46190   1.956   4.565   0.209 -0.4301 -0.6081  1.2352
  350MOL0     H46191   2.024   4.698   0.291 -2.8351  0.4884  3.2963
  350MOL0     H46192   1.979   4.749   0.032 -3.4671  1.0922 -2.4123
  350MOL0     H46193   1.817   4.757   0.078  0.3094  0.0110 -2.5575
  350MOL0     H46194   2.047   4.929   0.208  1.1917  0.0936 -0.9457
  350MOL0     H46195   1.886   4.917   0.266  2.1080  3.9668  2.1468
  350MOL0     H46196   1.792   5.006   0.052  0.1079  0.8437 -0.9177
  350MOL0     H46197   1.918   5.103   0.132  0.9183 -0.4249  0.9353
  350MOL0     H46198   2.047   5.034  -0.264  0.8902  1.2356 -0.2741
  350MOL0     H46199   1.597   4.698   0.410  2.3155  0.4024 -0.6705
  350MOL0     H46200   1.452   4.537   0.452  1.2487  2.6580  3.4880
  351MOL0     O46201   0.511  10.115   5.491 -0.5214  0.4081  0.6983
  351MOL0     C46202   0.589  10.210   5.475 -0.4444 -0.3256 -0.5623
  351MOL0     O46203   0.554  10.341   5.466 -0.6974 -0.4941  0.5764
  351MOL0     C46204   0.429  10.388   5.463 -0.5008 -0.5802  0.1483
  351MOL0     C46205   0.417  10.530   5.485  0.1248  0.7076  0.4210
  351MOL0     C46206   0.290  10.585   5.479  0.7685  0.2193 -0.5307
  351MOL0     C46207   0.181  10.512   5.436 -0.8349  0.1195 -0.0318
  351MOL0     O46208   0.050  10.548   5.411  1.6544 -0.7785  0.5099
  351MOL0     C46209   0.040  10.644   5.302 -0.2373  0.1185 -0.3907
  351MOL0     C46210  -0.107  10.671   5.277  0.0974 -0.0410 -0.5057
  351MOL0     C46211  -0.123  10.792   5.179 -0.7074 -0.3131 -0.2668
  351MOL0     C46212  -0.265  10.807   5.133 -0.2614  0.0739  0.3281
  351MOL0     C46213  -0.300  10.758   4.995 -0.7779 -0.3120 -0.5841
  351MOL0     C46214  -0.440  10.714   4.980 -0.0732  0.8727 -0.2046
  351MOL0     C46215  -0.501  10.702   4.839 -0.1291 -0.3994 -0.3622
  351MOL0     C46216  -0.427  10.607   4.751  0.6790  0.2169  0.9465
  351MOL0     N46217  -0.482  10.613   4.618 -0.0856 -0.2688  0.8094
  351MOL0     C46218  -0.595  10.554   4.567 -0.5132  0.5172 -0.7599
  351MOL0     C46219  -0.598  10.583   4.437 -0.4339 -0.5127 -0.2786
  351MOL0     C46220  -0.689  10.548   4.323 -0.1826 -0.0695 -0.1149
  351MOL0     C46221  -0.714  10.396   4.321  0.2677  0.3998  0.0627
  351MOL0     C46222  -0.826  10.368   4.217 -0.0153 -0.1850 -0.6233
  351MOL0     C46223  -0.964  10.397   4.262 -0.2130 -0.3062 -0.2214
  351MOL0     O46224  -1.026  10.489   4.160  0.0448  0.3127  1.0812
  351MOL0     C46225  -1.145  10.448   4.121 -0.1642 -0.1314 -0.8771
  351MOL0     C46226  -1.173  10.332   4.048 -0.3679  0.1573  0.6908
  351MOL0     C46227  -1.289  10.300   4.004  0.8018 -0.5553 -0.0083
  351MOL0     C46228  -1.400  10.390   4.025  0.1120 -0.0757  0.4184
  351MOL0     C46229  -1.530  10.349   3.967  0.6081 -0.1791  0.2430
  351MOL0     O46230  -1.557  10.213   3.926 -0.8179 -0.2106 -0.2882
  351MOL0     C46231  -1.680  10.192   3.882 -0.7616 -0.4437  0.1257
  351MOL0     C46232  -1.768  10.115   3.951  0.2883 -0.0639 -0.1834
  351MOL0     C46233  -1.883  10.069   3.905 -0.7747 -0.7421  0.2338
  351MOL0     C46234  -1.911  10.095   3.769  0.1127  0.5043 -1.2736
  351MOL0     O46235  -2.033  10.046   3.724 -0.0803 -0.2026  0.9788
  351MOL0     C46236  -2.055  10.034   3.585  0.4852  0.2149  0.3448
  351MOL0     C46237  -2.172   9.943   3.543  0.3503 -0.2569 -0.1735
  351MOL0     C46238  -2.297   9.996   3.619 -0.3013  0.7171  0.4520
  351MOL0     C46239  -2.414   9.897   3.604 -0.1903 -0.7387 -1.0521
  351MOL0     C46240  -2.533   9.931   3.695  0.2470  0.1392  0.4714
  351MOL0     C46241  -2.609   9.810   3.760 -0.1216 -0.0161 -0.4222
  351MOL0     C46242  -2.539   9.757   3.887  0.6186  0.2491  0.0939
  351MOL0     C46243  -2.640   9.659   3.960  0.0956 -1.0962  0.0490
  351MOL0    Cl46244  -2.671   9.501   3.874  0.3323 -0.1052  0.4189
  351MOL0     C46245  -1.815  10.164   3.697 -0.9896 -0.2776  0.3550
  351MOL0     C46246  -1.705  10.225   3.753  0.0443  0.3358 -0.2387
  351MOL0     O46247  -1.618  10.440   3.951 -0.3539  0.1290 -0.0031
  351MOL0     C46248  -1.385  10.502   4.098 -0.4724 -0.5878  0.1312
  351MOL0     C46249  -1.257  10.536   4.143 -0.0059  0.2594 -0.6710
  351MOL0     N46250  -0.485  10.665   4.415  0.4745  0.2712 -0.2540
  351MOL0     N46251  -0.409  10.664   4.517  0.3178 -0.6486 -0.0949
  351MOL0     C46252   0.199  10.376   5.410  1.3276  0.4358 -0.0937
  351MOL0     C46253   0.314  10.308   5.425  0.1743 -0.4049  0.0974
  351MOL0     C46254   0.739  10.179   5.480 -0.0874 -0.3917 -0.0090
  351MOL0     C46255   0.830  10.278   5.474  0.2134 -0.4406  0.3854
  351MOL0     C46256   0.966  10.266   5.459 -0.6706 -0.1456  0.0486
  351MOL0     C46257   1.021  10.144   5.456 -0.0640 -0.6631 -0.3932
  351MOL0     O46258   1.153  10.123   5.430  0.2981  0.8691  0.8170
  351MOL0     C46259   1.171  10.084   5.292  0.6511 -0.5786  0.3893
  351MOL0     C46260   1.307  10.154   5.251 -0.0743  0.1970  0.0106
  351MOL0     C46261   1.352  10.116   5.108 -0.2323  0.5577  0.1181
  351MOL0     C46262   1.443  10.220   5.031  0.3825  0.2934  0.8924
  351MOL0     C46263   1.570  10.249   5.091  0.3516  0.4574 -0.3309
  351MOL0     C46264   1.672  10.286   5.134  0.0198 -0.1513  0.3226
  351MOL0     C46265   0.931  10.035   5.466 -0.2892  0.4109 -0.8273
  351MOL0     C46266   0.790  10.054   5.480  0.5687  0.1439 -0.8941
  351MOL0     H46267   0.501  10.592   5.517  0.4511  0.2139  0.5425
  351MOL0     H46268   0.281  10.691   5.502  2.4553  0.2701 -0.0119
  351MOL0     H46269   0.092  10.611   5.211 -0.0242  3.3772 -1.5935
  351MOL0     H46270   0.081  10.740   5.336 -1.3552  1.2221 -1.9639
  351MOL0     H46271  -0.145  10.684   5.378  1.5784 -0.3714  0.1210
  351MOL0     H46272  -0.151  10.586   5.224 -0.0994 -2.5892  3.3299
  351MOL0     H46273  -0.052  10.784   5.097  0.2422  0.0272  0.4928
  351MOL0     H46274  -0.104  10.883   5.237 -2.0598 -0.9466  1.2638
  351MOL0     H46275  -0.332  10.765   5.209 -0.2817  0.2309  0.3982
  351MOL0     H46276  -0.305  10.909   5.124 -0.4381 -0.0626 -0.5495
  351MOL0     H46277  -0.236  10.670   4.985  1.7430  1.5155 -1.8786
  351MOL0     H46278  -0.272  10.834   4.921 -0.0422  0.2804  0.2715
  351MOL0     H46279  -0.505  10.784   5.034 -0.1623 -1.2364  2.6699
  351MOL0     H46280  -0.457  10.616   5.027  0.2794  2.5265  3.7401
  351MOL0     H46281  -0.606  10.676   4.855 -0.1299  0.1413  0.5925
  351MOL0     H46282  -0.498  10.802   4.795 -3.8413 -0.7636 -1.7172
  351MOL0     H46283  -0.442  10.502   4.778  1.3692 -0.9929 -2.8574
  351MOL0     H46284  -0.323  10.638   4.740  1.1935 -1.8405 -0.5335
  351MOL0     H46285  -0.668  10.497   4.624  2.6986 -3.5404 -0.1555
  351MOL0     H46286  -0.640  10.588   4.233  1.1932  1.7423  1.3339
  351MOL0     H46287  -0.787  10.596   4.332  0.4484  1.1053  0.8798
  351MOL0     H46288  -0.735  10.375   4.426  1.2748  1.8649  0.5824
  351MOL0     H46289  -0.628  10.339   4.285 -0.6347 -1.2349  0.3762
  351MOL0     H46290  -0.813  10.407   4.116 -1.1206  2.6384  0.2313
  351MOL0     H46291  -0.825  10.258   4.214  0.2737 -0.3307  1.9719
  351MOL0     H46292  -0.965  10.448   4.359 -2.4566  1.1956 -0.9434
  351MOL0     H46293  -1.017  10.301   4.263  1.9849 -1.5852 -0.6438
  351MOL0     H46294  -1.093  10.263   4.023  0.1644 -0.5756  3.9321
  351MOL0     H46295  -1.305  10.212   3.943 -2.5209 -0.0005 -0.0976
  351MOL0     H46296  -1.741  10.097   4.055  2.7730  2.2883 -0.3082
  351MOL0     H46297  -1.952  10.013   3.967 -0.3028  0.5795  2.0142
  351MOL0     H46298  -1.964   9.986   3.547 -0.6107 -3.0633  1.5247
  351MOL0     H46299  -2.065  10.132   3.538 -1.3239 -0.9874 -1.9421
  351MOL0     H46300  -2.157   9.837   3.566  0.8343 -0.1368  0.0734
  351MOL0     H46301  -2.179   9.959   3.435  1.3640  0.2811 -0.1685
  351MOL0     H46302  -2.325  10.092   3.573  0.3775 -0.8750 -3.7279
  351MOL0     H46303  -2.263  10.005   3.722 -0.2404  1.4764  0.3773
  351MOL0     H46304  -2.437   9.906   3.497  2.4583  2.8318 -1.4718
  351MOL0     H46305  -2.383   9.795   3.629  0.1670  0.0301  2.0881
  351MOL0     H46306  -2.598   9.989   3.628 -0.3218 -0.4775  0.4803
  351MOL0     H46307  -2.503  10.005   3.770  1.2039 -2.4228  2.7784
  351MOL0     H46308  -2.620   9.725   3.692 -1.7349 -2.1865  2.3393
  351MOL0     H46309  -2.713   9.839   3.778 -0.0153  2.4223 -3.0757
  351MOL0     H46310  -2.456   9.696   3.848 -1.1338 -1.0885 -1.7671
  351MOL0     H46311  -2.506   9.841   3.948 -2.2123  1.6660 -0.1567
  351MOL0     H46312  -2.741   9.701   3.962 -0.5445 -2.6102  0.8497
  351MOL0     H46313  -2.616   9.644   4.065  3.3267  0.3215 -0.3661
  351MOL0     H46314  -1.839  10.186   3.594 -3.1238  0.4051  0.9526
  351MOL0     H46315  -1.632  10.287   3.703  1.2586  0.5243  1.6661
  351MOL0     H46316  -1.464  10.572   4.121  1.5769  0.6968  4.3225
  351MOL0     H46317  -1.249  10.624   4.205  1.9559 -0.7059  0.5524
  351MOL0     H46318   0.113  10.315   5.384  1.0514 -1.1055  3.6620
  351MOL0     H46319   0.317  10.204   5.395 -1.0058 -0.5367  0.4115
  351MOL0     H46320   0.796  10.381   5.469 -3.3621 -1.4943  0.3827
  351MOL0     H46321   1.027  10.354   5.441 -2.5785  1.5465  1.3493
  351MOL0     H46322   1.093  10.098   5.217  1.0138  0.0321  0.1195
  351MOL0     H46323   1.188   9.977   5.305  1.5437 -0.4368  0.4646
  351MOL0     H46324   1.285  10.260   5.267  2.9133  0.7222  1.3608
  351MOL0     H46325   1.385  10.114   5.317  1.6440  1.2300 -1.3118
  351MOL0     H46326   1.259  10.089   5.058 -0.3228  0.0652  0.5391
  351MOL0     H46327   1.391  10.014   5.118 -0.4928  0.6264  2.5140
  351MOL0     H46328   1.460  10.182   4.930 -0.9965 -2.8744  1.7585
  351MOL0     H46329   1.399  10.321   5.028  1.6641  0.9299 -2.8576
  351MOL0     H46330   1.769  10.315   5.170 -0.3540  2.6515 -0.6806
  351MOL0     H46331   0.984   9.941   5.455  0.3222  0.6497  0.0405
  351MOL0     H46332   0.723   9.971   5.459  1.2841 -0.6101 -0.2546
  352MOL0     O46333   0.199   5.738   4.362 -0.0954 -1.1867 -0.6353
  352MOL0     C46334   0.251   5.853   4.397 -0.0888  1.1924  0.6800
  352MOL0     O46335   0.184   5.978   4.413  0.1269 -0.5897  0.3703
  352MOL0     C46336   0.050   5.993   4.380  0.1358 -0.7296  0.2025
  352MOL0     C46337  -0.005   5.936   4.260  0.9562 -0.4309  0.4117
  352MOL0     C46338  -0.142   5.942   4.233  0.2390 -0.4403 -0.8380
  352MOL0     C46339  -0.234   5.994   4.323  0.5433 -0.7659  0.4742
  352MOL0     O46340  -0.367   6.006   4.296 -0.4627 -0.2756  0.9093
  352MOL0     C46341  -0.397   6.146   4.273  0.1326 -0.8954  0.3131
  352MOL0     C46342  -0.545   6.164   4.247  0.0251 -0.9598  1.0044
  352MOL0     C46343  -0.636   6.106   4.358 -0.4999  1.3275 -0.7011
  352MOL0     C46344  -0.786   6.123   4.321 -0.1698  0.1243  0.1895
  352MOL0     C46345  -0.862   6.122   4.458  0.1785  0.2886 -0.1149
  352MOL0     C46346  -1.014   6.166   4.435 -0.7885  0.7387 -0.2413
  352MOL0     C46347  -1.032   6.313   4.406 -0.0426 -0.3318 -0.0679
  352MOL0     C46348  -1.184   6.345   4.430 -0.5673  1.2445 -0.4610
  352MOL0     N46349  -1.283   6.250   4.367 -0.4053 -0.6858 -0.8763
  352MOL0     C46350  -1.368   6.276   4.265 -0.8086 -0.2844  0.6543
  352MOL0     C46351  -1.464   6.182   4.272  0.4177 -0.3259 -0.2118
  352MOL0     C46352  -1.589   6.170   4.185  0.5397 -0.7310  0.0835
  352MOL0     C46353  -1.704   6.255   4.259 -0.8857  0.2364 -0.5611
  352MOL0     C46354  -1.809   6.331   4.168  0.0101 -0.2898 -0.5080
  352MOL0     C46355  -1.913   6.233   4.100 -0.3976  0.1116  0.9333
  352MOL0     O46356  -1.968   6.155   4.206 -0.4626 -0.5022 -0.7816
  352MOL0     C46357  -2.070   6.215   4.275 -0.0473  0.4145  0.8933
  352MOL0     C46358  -2.128   6.131   4.372  0.2589  0.0324 -0.2303
  352MOL0     C46359  -2.233   6.172   4.453 -0.0420 -0.3319  0.3601
  352MOL0     C46360  -2.292   6.298   4.433 -0.4159 -0.9022 -0.3790
  352MOL0     C46361  -2.413   6.343   4.511 -0.8059 -0.6951  0.0739
  352MOL0     O46362  -2.449   6.279   4.633  0.0747 -0.0912  0.5893
  352MOL0     C46363  -2.555   6.325   4.706 -0.1154 -0.1892 -0.7497
  352MOL0     C46364  -2.547   6.343   4.844  1.1050  0.1088  0.4559
  352MOL0     C46365  -2.663   6.395   4.915  0.9605 -0.5358 -0.9231
  352MOL0     C46366  -2.782   6.419   4.849 -0.8959  0.1329 -0.3484
  352MOL0     O46367  -2.891   6.454   4.927 -0.4609 -0.2962 -0.3485
  352MOL0     C46368  -3.007   6.365   4.934  0.7092  0.8370  0.0116
  352MOL0     C46369  -2.978   6.247   5.036  0.1989  0.2298  0.3939
  352MOL0     C46370  -3.111   6.176   5.064 -0.4212  0.3463  0.2136
  352MOL0     C46371  -3.162   6.084   4.961  0.2546  0.9977 -0.3870
  352MOL0     C46372  -3.266   5.989   5.022 -0.0341 -0.2074  0.5615
  352MOL0     C46373  -3.400   6.083   5.047 -0.4318  0.0655 -0.0884
  352MOL0     C46374  -3.511   5.993   5.101 -0.4769  0.3443  0.0954
  352MOL0     C46375  -3.642   6.072   5.114  0.4745 -0.1000 -0.1358
  352MOL0    Cl46376  -3.692   6.121   4.954  0.7711  0.2154 -0.3151
  352MOL0     C46377  -2.786   6.400   4.706  1.6313 -0.0140  0.7602
  352MOL0     C46378  -2.672   6.355   4.639 -0.0138 -0.7656 -0.0673
  352MOL0     O46379  -2.465   6.441   4.466 -0.1596  0.3276 -0.1379
  352MOL0     C46380  -2.236   6.378   4.331  0.1230 -0.3600  0.9284
  352MOL0     C46381  -2.127   6.340   4.251 -0.1853  0.5899  0.0717
  352MOL0     N46382  -1.445   6.098   4.382 -0.3665 -0.6736  0.9182
  352MOL0     N46383  -1.331   6.139   4.428  0.3766 -0.0885  0.6535
  352MOL0     C46384  -0.173   6.048   4.439 -0.6790  0.5242  0.9056
  352MOL0     C46385  -0.038   6.052   4.470  0.2414  1.0473 -0.0077
  352MOL0     C46386   0.402   5.859   4.410 -0.3642 -0.1559  0.2295
  352MOL0     C46387   0.480   5.747   4.395 -0.4569  0.5301 -0.1211
  352MOL0     C46388   0.618   5.745   4.407 -0.7055  0.0437 -0.1792
  352MOL0     C46389   0.679   5.868   4.437  0.6588  0.2840 -0.5539
  352MOL0     O46390   0.818   5.863   4.445 -0.4629 -0.4893  0.4028
  352MOL0     C46391   0.902   5.972   4.464 -1.3711  0.8136  0.4653
  352MOL0     C46392   0.943   6.041   4.328  0.2378  0.2745 -1.7368
  352MOL0     C46393   1.052   6.134   4.364  0.1237 -0.1381 -0.7807
  352MOL0     C46394   1.181   6.089   4.421 -0.4353  0.4880 -0.5967
  352MOL0     C46395   1.252   5.962   4.385 -0.1379  0.1277  0.3409
  352MOL0     C46396   1.290   5.843   4.354  0.4615  0.7931  0.1591
  352MOL0     C46397   0.606   5.986   4.452  0.1152 -0.4254  0.2347
  352MOL0     C46398   0.464   5.983   4.432 -0.3121  0.8181  0.1492
  352MOL0     H46399   0.054   5.884   4.185 -3.2685 -3.5928 -1.1082
  352MOL0     H46400  -0.167   5.891   4.141  1.7600 -0.3150 -1.3597
  352MOL0     H46401  -0.332   6.185   4.194 -1.7880  2.0836  0.0300
  352MOL0     H46402  -0.379   6.197   4.368 -0.5121 -0.0304 -0.0171
  352MOL0     H46403  -0.559   6.121   4.147  1.0231 -0.5557  0.6791
  352MOL0     H46404  -0.565   6.269   4.222 -0.7109 -1.8190 -2.6711
  352MOL0     H46405  -0.619   6.159   4.452 -1.4648  1.6371 -0.6883
  352MOL0     H46406  -0.624   5.997   4.357 -3.1533  0.9292  0.4409
  352MOL0     H46407  -0.800   6.222   4.275 -0.8252  0.3070  0.7640
  352MOL0     H46408  -0.821   6.041   4.258 -0.9893  0.0585  0.7101
  352MOL0     H46409  -0.821   6.177   4.542  0.5091 -2.8869  1.9633
  352MOL0     H46410  -0.850   6.018   4.488 -2.9546  0.0830  0.7693
  352MOL0     H46411  -1.067   6.149   4.529  0.4630  2.2426  0.7936
  352MOL0     H46412  -1.055   6.098   4.360 -1.3191  2.2609 -1.3945
  352MOL0     H46413  -0.982   6.357   4.493 -0.6880  1.1563 -0.4136
  352MOL0     H46414  -0.990   6.353   4.314  0.1662 -0.2985  0.0408
  352MOL0     H46415  -1.198   6.448   4.398 -0.9013  0.8026 -1.8009
  352MOL0     H46416  -1.226   6.349   4.531 -1.6145 -4.1141 -0.3883
  352MOL0     H46417  -1.364   6.347   4.182 -0.2022 -0.9158  0.1357
  352MOL0     H46418  -1.609   6.064   4.163 -2.6559 -0.6238  1.8889
  352MOL0     H46419  -1.561   6.232   4.100 -1.5411 -1.5322 -1.2585
  352MOL0     H46420  -1.670   6.323   4.338  0.2625 -0.1385 -0.7202
  352MOL0     H46421  -1.751   6.172   4.313  1.6674 -1.3412 -0.5904
  352MOL0     H46422  -1.863   6.406   4.226 -1.5047 -1.7281  0.0368
  352MOL0     H46423  -1.748   6.390   4.099  3.3076 -0.8039  1.7522
  352MOL0     H46424  -1.861   6.171   4.027  2.3764  0.7102  2.2441
  352MOL0     H46425  -1.994   6.270   4.036 -0.7959 -2.4530 -0.1838
  352MOL0     H46426  -2.075   6.039   4.393  0.5263 -0.3093 -2.2263
  352MOL0     H46427  -2.281   6.108   4.527 -0.5364 -2.7117 -1.8726
  352MOL0     H46428  -2.457   6.296   4.883  1.3573  0.2518  0.0457
  352MOL0     H46429  -2.663   6.403   5.023 -0.2980 -2.2390 -0.7654
  352MOL0     H46430  -3.024   6.324   4.834  0.8319  1.5911 -0.3276
  352MOL0     H46431  -3.100   6.417   4.959  0.6702  1.2916 -1.0292
  352MOL0     H46432  -2.931   6.286   5.127 -1.4875 -1.4463  2.0896
  352MOL0     H46433  -2.909   6.182   4.984  2.1730  3.1265 -0.8755
  352MOL0     H46434  -3.184   6.249   5.100 -0.6661 -1.2061  3.2344
  352MOL0     H46435  -3.075   6.122   5.152 -0.3956  2.3019  1.4643
  352MOL0     H46436  -3.194   6.124   4.864  2.8010 -0.5596 -1.9912
  352MOL0     H46437  -3.074   6.022   4.939 -1.1542 -1.8578  1.4752
  352MOL0     H46438  -3.226   5.950   5.116 -2.0982 -2.9191  0.4322
  352MOL0     H46439  -3.296   5.904   4.960 -1.1193 -0.9652  2.0842
  352MOL0     H46440  -3.424   6.143   4.959  1.1802 -0.6786 -1.0881
  352MOL0     H46441  -3.368   6.162   5.116  2.4658  2.7876 -4.0318
  352MOL0     H46442  -3.515   5.920   5.020  3.7206  1.7535 -1.6661
  352MOL0     H46443  -3.492   5.943   5.197 -1.1792  0.9459  0.5574
  352MOL0     H46444  -3.633   6.159   5.178 -0.0697 -1.1093  1.3761
  352MOL0     H46445  -3.727   6.022   5.162 -0.6191  1.3411 -0.4990
  352MOL0     H46446  -2.886   6.417   4.667  1.4640 -2.6063 -0.1389
  352MOL0     H46447  -2.672   6.337   4.532  2.3837  0.0207 -0.2726
  352MOL0     H46448  -2.284   6.473   4.309 -0.8972 -1.3738 -1.5390
  352MOL0     H46449  -2.083   6.414   4.185  3.6519 -0.1574  1.5467
  352MOL0     H46450  -0.244   6.081   4.513 -1.1279  1.4492  0.0917
  352MOL0     H46451  -0.001   6.106   4.556 -2.9383  2.8548  0.3749
  352MOL0     H46452   0.431   5.653   4.373 -2.7420  1.8028 -0.7518
  352MOL0     H46453   0.668   5.650   4.389  1.8509  1.5629 -1.7973
  352MOL0     H46454   0.990   5.931   4.513 -0.7576  0.7132 -0.6943
  352MOL0     H46455   0.852   6.037   4.537 -3.9263 -2.0769  1.5292
  352MOL0     H46456   0.976   5.964   4.258  1.3211 -0.0501 -0.8933
  352MOL0     H46457   0.859   6.092   4.279 -1.2681  3.1310  3.1507
  352MOL0     H46458   1.019   6.203   4.443 -2.1639 -1.7990 -0.1574
  352MOL0     H46459   1.079   6.187   4.273 -0.2630 -1.3523 -1.6238
  352MOL0     H46460   1.245   6.178   4.421  0.5408 -0.1798  0.8873
  352MOL0     H46461   1.167   6.082   4.529  1.2541 -0.9288 -0.4319
  352MOL0     H46462   1.329   5.747   4.325 -1.5982 -0.1916  0.4568
  352MOL0     H46463   0.659   6.079   4.466 -0.0550 -0.1293 -0.9583
  352MOL0     H46464   0.424   6.083   4.419  3.7589  2.9889  2.4069
  353MOL0     O46465   3.351   9.262   7.483 -0.3735  0.2285 -0.3059
  353MOL0     C46466   3.433   9.211   7.558 -0.4158  0.0391 -1.2446
  353MOL0     O46467   3.409   9.104   7.636 -0.4549  1.0037 -0.8132
  353MOL0     C46468   3.276   9.070   7.663 -0.7062  0.1572 -0.5985
  353MOL0     C46469   3.255   8.938   7.682  0.0495  0.4731 -0.1966
  353MOL0     C46470   3.131   8.892   7.722 -0.1536  0.4851  0.7771
  353MOL0     C46471   3.021   8.978   7.724 -0.3411 -0.9210  0.5048
  353MOL0     O46472   2.898   8.922   7.742  0.7169  0.1781  0.4648
  353MOL0     C46473   2.842   8.959   7.869 -0.3256  0.1209  0.0890
  353MOL0     C46474   2.692   8.949   7.861  0.0421 -0.2897 -0.0804
  353MOL0     C46475   2.650   8.803   7.889  0.8787  0.9031  0.3689
  353MOL0     C46476   2.507   8.777   7.844  0.4426 -0.3503 -0.1804
  353MOL0     C46477   2.462   8.626   7.847  0.7055  0.1057 -0.0557
  353MOL0     C46478   2.489   8.570   7.981  0.0389 -0.0680 -1.1635
  353MOL0     C46479   2.409   8.439   8.002 -0.5032 -0.3337  0.7874
  353MOL0     C46480   2.489   8.318   7.952  0.2567  1.3318 -0.7522
  353MOL0     N46481   2.409   8.199   7.983 -0.6277 -0.0173  0.1657
  353MOL0     C46482   2.379   8.148   8.110 -0.8438  0.6324 -1.7226
  353MOL0     C46483   2.320   8.034   8.095  0.0284  0.4054  0.1600
  353MOL0     C46484   2.258   7.949   8.211 -0.4522 -0.3863  0.4907
  353MOL0     C46485   2.109   7.968   8.221  0.1134 -0.5420  0.9954
  353MOL0     C46486   2.061   7.893   8.346  0.1894  0.0514  0.5947
  353MOL0     C46487   1.905   7.874   8.356 -0.6591 -0.4066  1.3244
  353MOL0     O46488   1.877   7.797   8.469  0.0485 -0.0542 -0.0790
  353MOL0     C46489   1.892   7.654   8.458 -0.4848 -0.2931 -0.3706
  353MOL0     C46490   1.868   7.581   8.577  0.2887 -0.6245 -0.2689
  353MOL0     C46491   1.851   7.443   8.566  1.0625  0.5213 -0.3075
  353MOL0     C46492   1.885   7.369   8.450  0.0580 -0.0646 -0.2945
  353MOL0     C46493   1.867   7.222   8.442 -0.3297 -0.7744  0.8086
  353MOL0     O46494   1.897   7.166   8.315 -0.0536 -0.0404 -0.3470
  353MOL0     C46495   1.841   7.047   8.287  0.2058 -0.3644  0.8974
  353MOL0     C46496   1.912   6.951   8.217 -0.6537 -0.1306  0.0838
  353MOL0     C46497   1.847   6.827   8.189 -0.6436 -0.1949  0.6067
  353MOL0     C46498   1.719   6.802   8.227  0.2670 -0.5367  0.2637
  353MOL0     O46499   1.649   6.684   8.215  1.4221 -1.0519 -0.8269
  353MOL0     C46500   1.722   6.564   8.232 -0.3640 -0.5667 -0.0674
  353MOL0     C46501   1.623   6.442   8.225 -0.0819  0.3254 -0.3009
  353MOL0     C46502   1.517   6.422   8.340 -0.3333 -0.7799 -0.9908
  353MOL0     C46503   1.463   6.275   8.340 -0.9884  0.9504  0.0748
  353MOL0     C46504   1.342   6.246   8.436 -0.3724 -0.2387 -0.4216
  353MOL0     C46505   1.246   6.139   8.380  0.1633 -0.2195  0.4586
  353MOL0     C46506   1.117   6.131   8.458 -0.5716 -0.1922  0.3657
  353MOL0     C46507   1.004   6.020   8.430 -0.7161  0.9978  0.0066
  353MOL0    Cl46508   0.926   6.076   8.288  0.1231  0.1071 -0.6198
  353MOL0     C46509   1.642   6.903   8.278 -0.2069 -0.0351  0.9004
  353MOL0     C46510   1.701   7.027   8.311 -0.4843 -0.4489  0.3550
  353MOL0     O46511   1.832   7.158   8.546 -0.1992 -0.9570 -0.3625
  353MOL0     C46512   1.940   7.442   8.341 -0.4605 -0.4349  0.4404
  353MOL0     C46513   1.942   7.579   8.347  0.1739 -0.6705 -0.2840
  353MOL0     N46514   2.320   8.011   7.960 -0.4791  0.1520 -0.9553
  353MOL0     N46515   2.370   8.109   7.888 -0.4314 -0.0106 -0.3616
  353MOL0     C46516   3.045   9.113   7.695 -0.2504  0.0109 -0.4715
  353MOL0     C46517   3.173   9.156   7.685 -0.4703 -0.3506 -0.5554
  353MOL0     C46518   3.572   9.254   7.549  0.9095 -0.4906  0.2576
  353MOL0     C46519   3.662   9.210   7.643  0.0932  0.1780  0.1438
  353MOL0     C46520   3.798   9.243   7.642 -0.8760 -0.4307  0.3574
  353MOL0     C46521   3.842   9.341   7.554 -0.5894  0.5670  0.8552
  353MOL0     O46522   3.962   9.395   7.566 -0.7698 -0.2913  0.1035
  353MOL0     C46523   4.058   9.334   7.646 -0.6573  0.3677 -0.3400
  353MOL0     C46524   4.177   9.423   7.639 -0.1823  0.2407 -0.5658
  353MOL0     C46525   4.291   9.381   7.726  0.5353 -1.3822 -0.2321
  353MOL0     C46526   4.381   9.274   7.666  0.9199  0.3647  0.1880
  353MOL0     C46527   4.475   9.346   7.580  0.1347 -0.9993  0.3374
  353MOL0     C46528   4.554   9.416   7.519 -0.1298  0.4681 -0.6225
  353MOL0     C46529   3.751   9.396   7.459  0.5914  0.3060  0.5738
  353MOL0     C46530   3.622   9.351   7.454  0.3486  0.9321 -0.2069
  353MOL0     H46531   3.339   8.871   7.665  0.3981 -0.1301  3.2053
  353MOL0     H46532   3.125   8.784   7.732  1.9041  0.1516 -0.8734
  353MOL0     H46533   2.862   9.065   7.889  1.3228  0.2357 -1.8515
  353MOL0     H46534   2.897   8.905   7.946  1.2220 -0.7505 -1.5559
  353MOL0     H46535   2.644   8.984   7.769 -0.0505 -2.4904 -0.9318
  353MOL0     H46536   2.648   9.010   7.940 -1.5313  0.1828 -1.2748
  353MOL0     H46537   2.667   8.785   7.996  0.0583  3.5327  1.0217
  353MOL0     H46538   2.721   8.742   7.832 -1.2678  1.0085 -2.6393
  353MOL0     H46539   2.442   8.838   7.907  1.0051 -0.6687  0.7227
  353MOL0     H46540   2.486   8.818   7.745 -0.3613 -0.4281 -0.0505
  353MOL0     H46541   2.514   8.565   7.772 -0.2472  0.1215 -0.7464
  353MOL0     H46542   2.357   8.610   7.821  0.1097  1.7708  1.1791
  353MOL0     H46543   2.467   8.641   8.061  3.3652  0.2779 -0.4072
  353MOL0     H46544   2.597   8.559   7.986  0.1206  0.0371 -2.4388
  353MOL0     H46545   2.378   8.435   8.107 -0.1460 -2.9191  0.8638
  353MOL0     H46546   2.320   8.440   7.939 -1.5361  0.9362  2.1889
  353MOL0     H46547   2.587   8.299   7.998  0.0063  1.5264 -0.1350
  353MOL0     H46548   2.501   8.326   7.844  5.8169  1.1118 -0.4600
  353MOL0     H46549   2.408   8.189   8.206 -2.7003 -0.7057 -0.5315
  353MOL0     H46550   2.301   7.985   8.305  1.1639  1.3252 -0.8323
  353MOL0     H46551   2.273   7.842   8.192 -0.6477 -0.4293  0.5733
  353MOL0     H46552   2.052   7.934   8.134  2.7877 -1.5937 -0.4654
  353MOL0     H46553   2.085   8.074   8.235  1.1708 -0.5750  3.6199
  353MOL0     H46554   2.115   7.798   8.349  0.9597  0.4686  3.9856
  353MOL0     H46555   2.096   7.949   8.433  1.4195  1.6809 -0.8590
  353MOL0     H46556   1.865   7.839   8.260  1.0202  1.4677 -0.1441
  353MOL0     H46557   1.867   7.977   8.361 -0.3575  0.2826 -4.4094
  353MOL0     H46558   1.857   7.640   8.668 -1.8186 -1.4051  0.0517
  353MOL0     H46559   1.826   7.396   8.661  4.2808 -0.5111  0.1431
  353MOL0     H46560   2.017   6.968   8.197  0.1796 -2.0088  2.4731
  353MOL0     H46561   1.912   6.753   8.143  1.4683  2.1860 -0.4592
  353MOL0     H46562   1.776   6.568   8.326 -1.9424 -0.4410  0.8766
  353MOL0     H46563   1.799   6.565   8.155 -0.6157 -0.7994 -0.3239
  353MOL0     H46564   1.679   6.348   8.221 -1.4712 -0.6574  1.5400
  353MOL0     H46565   1.570   6.454   8.130 -0.9964  1.4154  0.3245
  353MOL0     H46566   1.431   6.490   8.334  1.4213  2.3696  3.7543
  353MOL0     H46567   1.562   6.446   8.436  1.0076  2.2355 -2.2165
  353MOL0     H46568   1.430   6.252   8.238  1.0169  0.9510 -0.6007
  353MOL0     H46569   1.548   6.214   8.372 -1.2006  0.0589 -0.9872
  353MOL0     H46570   1.291   6.338   8.464 -0.4119 -0.6924  1.0888
  353MOL0     H46571   1.382   6.203   8.528  3.3545  1.2645 -1.1658
  353MOL0     H46572   1.313   6.052   8.386  1.8027  1.1020  2.8917
  353MOL0     H46573   1.221   6.175   8.280  1.4783  1.4015  0.6777
  353MOL0     H46574   1.150   6.096   8.556 -1.0233  0.0557  0.6114
  353MOL0     H46575   1.068   6.228   8.464 -1.1914 -0.3431 -1.6068
  353MOL0     H46576   0.920   6.009   8.498 -2.5253 -0.8667 -2.3494
  353MOL0     H46577   1.046   5.919   8.426  1.1635  1.7423 -2.7133
  353MOL0     H46578   1.534   6.894   8.275 -0.0891 -1.8060  1.1826
  353MOL0     H46579   1.639   7.106   8.352  0.1425  1.0648 -1.5132
  353MOL0     H46580   1.974   7.385   8.254  2.6775 -1.8989  2.4287
  353MOL0     H46581   1.986   7.646   8.274  0.3421 -0.1887  0.2579
  353MOL0     H46582   2.962   9.183   7.694 -0.0137  0.2951 -0.3773
  353MOL0     H46583   3.189   9.263   7.678 -1.8614  0.0139  1.0021
  353MOL0     H46584   3.640   9.150   7.730 -1.0648  0.0828 -0.1952
  353MOL0     H46585   3.848   9.202   7.729 -2.9175 -4.2395 -0.0406
  353MOL0     H46586   4.085   9.235   7.608 -0.9646  1.5518 -4.0101
  353MOL0     H46587   4.039   9.326   7.754  2.2066 -0.5703  0.1757
  353MOL0     H46588   4.221   9.416   7.539  2.2171 -2.9949  0.5267
  353MOL0     H46589   4.154   9.528   7.657 -0.0283  0.4359 -1.4964
  353MOL0     H46590   4.249   9.331   7.814  3.7212  0.1251  2.3618
  353MOL0     H46591   4.348   9.469   7.759 -1.4905 -0.2543  0.4347
  353MOL0     H46592   4.430   9.216   7.745 -1.4087  0.0307  1.5019
  353MOL0     H46593   4.323   9.201   7.607 -2.0649  3.1778 -0.6649
  353MOL0     H46594   4.621   9.462   7.448  1.1760  0.3576  0.4880
  353MOL0     H46595   3.781   9.467   7.383  2.0298  0.8922  1.6433
  353MOL0     H46596   3.551   9.392   7.382  0.5497  0.7590 -0.5049
  354MOL0     O46597   1.474   9.054   7.628  0.1140 -0.7616 -0.3119
  354MOL0     C46598   1.513   9.001   7.522  0.2347  0.2525 -0.3805
  354MOL0     O46599   1.443   8.903   7.462  1.1740 -0.0851 -0.6287
  354MOL0     C46600   1.357   8.825   7.535 -0.0488  0.9536  0.1737
  354MOL0     C46601   1.397   8.723   7.622  0.0897  0.1880 -0.1966
  354MOL0     C46602   1.295   8.650   7.691 -0.1126 -0.0825  0.0704
  354MOL0     C46603   1.158   8.684   7.683  0.2255  0.0991 -0.0978
  354MOL0     O46604   1.063   8.625   7.762  0.6979  0.1031  0.5501
  354MOL0     C46605   1.112   8.530   7.858  0.3868 -0.3203  0.2406
  354MOL0     C46606   0.990   8.504   7.967  0.1151 -0.2407 -0.1673
  354MOL0     C46607   0.985   8.611   8.076  0.8374 -0.4575 -0.6531
  354MOL0     C46608   0.860   8.615   8.150  0.1888 -0.2268 -0.1043
  354MOL0     C46609   0.872   8.693   8.279  0.2293 -0.1580  0.2065
  354MOL0     C46610   0.958   8.618   8.385  0.1919  0.0770 -0.2042
  354MOL0     C46611   0.891   8.490   8.439 -0.7004  1.0764  0.1284
  354MOL0     C46612   0.980   8.412   8.542 -0.2146 -0.3051  0.5893
  354MOL0     N46613   0.879   8.332   8.619 -0.1012  0.6672 -0.8942
  354MOL0     C46614   0.814   8.212   8.579  0.1013 -0.0412 -0.3635
  354MOL0     C46615   0.736   8.173   8.686  0.8059 -0.8901 -0.0872
  354MOL0     C46616   0.640   8.064   8.701 -1.4354  0.0638 -0.0891
  354MOL0     C46617   0.502   8.102   8.638 -0.9276 -0.3278  0.0602
  354MOL0     C46618   0.489   8.081   8.484  0.0878  0.8031 -0.8093
  354MOL0     C46619   0.344   8.069   8.439 -0.3933  0.3212 -0.4465
  354MOL0     O46620   0.282   7.956   8.504 -0.0365 -0.0808  0.0795
  354MOL0     C46621   0.181   7.903   8.442  0.4829  0.5808  0.5532
  354MOL0     C46622   0.093   7.955   8.350  0.9309 -0.0744  0.2620
  354MOL0     C46623  -0.019   7.890   8.305  0.2070 -0.1299 -0.4429
  354MOL0     C46624  -0.045   7.753   8.354 -0.8398  0.5229 -0.6146
  354MOL0     C46625  -0.170   7.673   8.318  0.3887  0.5498 -0.6811
  354MOL0     O46626  -0.198   7.549   8.379  0.2294  0.4049  0.3812
  354MOL0     C46627  -0.313   7.470   8.361  0.2551  0.8949 -0.8357
  354MOL0     C46628  -0.411   7.481   8.263  0.2945 -0.0135  1.3270
  354MOL0     C46629  -0.519   7.387   8.241 -0.4863  0.0893 -0.2068
  354MOL0     C46630  -0.555   7.299   8.348 -0.0353 -0.5958 -0.3725
  354MOL0     O46631  -0.672   7.223   8.355 -0.7123  0.1761  0.1685
  354MOL0     C46632  -0.762   7.271   8.457  1.2618 -0.1272  0.1799
  354MOL0     C46633  -0.908   7.290   8.411 -0.1921 -0.1711  0.3455
  354MOL0     C46634  -0.993   7.321   8.541  0.6436 -0.0593 -0.1195
  354MOL0     C46635  -0.983   7.472   8.581  0.8230 -0.4685 -0.1208
  354MOL0     C46636  -1.090   7.506   8.677 -0.0252 -0.9278 -0.7853
  354MOL0     C46637  -1.053   7.628   8.762  0.2839  0.2186  0.5614
  354MOL0     C46638  -1.185   7.691   8.820 -0.1655 -0.1231  0.2057
  354MOL0     C46639  -1.260   7.590   8.912  0.0375 -0.7520  0.2046
  354MOL0    Cl46640  -1.155   7.547   9.048 -0.1138 -0.1910  0.3527
  354MOL0     C46641  -0.465   7.298   8.458  0.2948 -0.1841  0.2576
  354MOL0     C46642  -0.342   7.368   8.446  0.1204  0.7647  0.2772
  354MOL0     O46643  -0.237   7.728   8.234 -0.2083 -0.3134 -0.2801
  354MOL0     C46644   0.044   7.696   8.456 -0.0171 -0.9538 -0.4412
  354MOL0     C46645   0.164   7.773   8.489  0.4492 -0.1236  0.9493
  354MOL0     N46646   0.765   8.267   8.791 -0.0209 -0.3055 -0.1255
  354MOL0     N46647   0.848   8.359   8.748 -0.6520  0.5806  0.0438
  354MOL0     C46648   1.118   8.781   7.596  0.5604 -0.1761  0.4615
  354MOL0     C46649   1.218   8.841   7.514 -0.9185 -0.2796 -0.6114
  354MOL0     C46650   1.616   9.081   7.458 -0.4435 -0.1426 -1.1618
  354MOL0     C46651   1.652   9.209   7.503 -0.1595 -0.5090  0.0482
  354MOL0     C46652   1.744   9.282   7.431  0.7942 -0.2816  0.3714
  354MOL0     C46653   1.821   9.223   7.329 -0.0447  0.6167  0.9403
  354MOL0     O46654   1.922   9.285   7.265 -0.5521 -0.1003 -0.2666
  354MOL0     C46655   1.996   9.384   7.334  0.2250 -0.4242  0.2966
  354MOL0     C46656   2.099   9.426   7.224 -0.0904 -0.1029  0.6718
  354MOL0     C46657   2.185   9.539   7.281 -0.0812 -0.2562 -0.6272
  354MOL0     C46658   2.282   9.592   7.166 -0.1859 -0.7447  0.9075
  354MOL0     C46659   2.360   9.712   7.210 -0.3416 -0.6347  0.4286
  354MOL0     C46660   2.433   9.811   7.228 -0.4044  0.0358 -0.5505
  354MOL0     C46661   1.786   9.098   7.290 -0.7409 -0.9356 -0.3154
  354MOL0     C46662   1.684   9.027   7.351  0.6540  0.5663  0.3126
  354MOL0     H46663   1.501   8.699   7.638  0.1051  0.3206 -0.0928
  354MOL0     H46664   1.341   8.570   7.747  3.9949  3.3736  2.2209
  354MOL0     H46665   1.201   8.575   7.902  0.2751 -1.7470  2.0605
  354MOL0     H46666   1.146   8.445   7.799 -2.0334  0.5126 -2.6323
  354MOL0     H46667   0.996   8.403   8.007  0.9546 -0.0633  0.1808
  354MOL0     H46668   0.901   8.505   7.904  2.7390 -1.9226 -4.3550
  354MOL0     H46669   1.001   8.707   8.026  1.6540 -0.5806 -0.6485
  354MOL0     H46670   1.075   8.596   8.137  2.9757 -1.7124 -3.8476
  354MOL0     H46671   0.789   8.662   8.082  0.9247 -1.3905 -1.7202
  354MOL0     H46672   0.818   8.518   8.176 -1.4737  0.2004 -1.0881
  354MOL0     H46673   0.780   8.711   8.336 -1.4467 -2.7583 -1.4425
  354MOL0     H46674   0.914   8.793   8.265  0.6154 -0.1187  1.5260
  354MOL0     H46675   0.973   8.688   8.468  1.0837 -0.6083  0.2313
  354MOL0     H46676   1.056   8.583   8.350  0.0015  0.5894 -1.2782
  354MOL0     H46677   0.805   8.522   8.498 -1.6395 -0.2635 -0.4638
  354MOL0     H46678   0.853   8.423   8.362 -0.8120 -1.7028  2.3900
  354MOL0     H46679   1.036   8.482   8.606  0.3701  0.4980 -0.7437
  354MOL0     H46680   1.056   8.353   8.490  0.1979 -2.3713  3.3435
  354MOL0     H46681   0.829   8.156   8.487 -1.6762  0.3935 -0.9455
  354MOL0     H46682   0.617   8.055   8.807  0.2032 -1.3312  0.1986
  354MOL0     H46683   0.688   7.973   8.663 -1.5253 -0.7152  1.5761
  354MOL0     H46684   0.475   8.204   8.667 -1.0999  0.1379 -1.6175
  354MOL0     H46685   0.433   8.037   8.692  0.6033 -1.2699  0.9573
  354MOL0     H46686   0.524   8.159   8.416 -1.4656  0.9740 -1.4594
  354MOL0     H46687   0.539   7.986   8.463 -1.5679 -0.0745 -1.0224
  354MOL0     H46688   0.338   8.040   8.334  2.8309 -3.1929  0.1134
  354MOL0     H46689   0.283   8.157   8.457 -0.8652 -0.3005  1.1491
  354MOL0     H46690   0.099   8.056   8.309 -1.3094  0.3341  0.7837
  354MOL0     H46691  -0.090   7.942   8.241  0.9065  2.0713  0.4876
  354MOL0     H46692  -0.420   7.561   8.190 -3.7558 -0.0073  1.6522
  354MOL0     H46693  -0.575   7.392   8.148  2.3324  1.5815 -1.9748
  354MOL0     H46694  -0.729   7.369   8.492 -0.4377  1.2303 -1.7386
  354MOL0     H46695  -0.770   7.200   8.540  1.1496  0.2945  0.5315
  354MOL0     H46696  -0.941   7.195   8.369 -1.8845 -0.7456  2.7095
  354MOL0     H46697  -0.920   7.366   8.333 -1.1386 -0.3210  0.3389
  354MOL0     H46698  -0.976   7.258   8.628 -2.3718  2.2461  2.3881
  354MOL0     H46699  -1.099   7.306   8.519  0.1198  3.4948 -0.7685
  354MOL0     H46700  -0.884   7.497   8.621  1.3458 -2.0641 -0.3595
  354MOL0     H46701  -0.988   7.540   8.495 -0.0287  1.9869  1.7429
  354MOL0     H46702  -1.106   7.422   8.746 -2.3040  0.8200  0.9679
  354MOL0     H46703  -1.181   7.520   8.619 -1.9710 -0.3149  2.2250
  354MOL0     H46704  -0.997   7.711   8.716 -1.3570 -0.6662 -3.5030
  354MOL0     H46705  -1.000   7.593   8.851 -1.7701  0.9653  2.1658
  354MOL0     H46706  -1.161   7.768   8.893 -1.8815 -0.3979  1.0914
  354MOL0     H46707  -1.248   7.736   8.744 -2.5972  0.4636  2.4490
  354MOL0     H46708  -1.276   7.497   8.857 -0.6996  1.2364 -3.2127
  354MOL0     H46709  -1.359   7.615   8.952 -0.0426 -2.1136  0.9157
  354MOL0     H46710  -0.491   7.233   8.541 -0.3313  2.1295  1.9789
  354MOL0     H46711  -0.277   7.353   8.531 -1.6218  1.8966  1.8639
  354MOL0     H46712   0.032   7.597   8.498  0.3989 -1.8060 -2.2182
  354MOL0     H46713   0.228   7.723   8.562  2.6115 -2.4623 -2.2304
  354MOL0     H46714   1.015   8.802   7.571  0.4502  1.0087  1.7846
  354MOL0     H46715   1.185   8.914   7.441 -1.7486  0.4595  0.4588
  354MOL0     H46716   1.610   9.260   7.589 -0.1256  1.0382 -0.8284
  354MOL0     H46717   1.766   9.386   7.451  1.8851 -0.3226 -0.5131
  354MOL0     H46718   2.046   9.346   7.423  1.3327  1.2296  0.4355
  354MOL0     H46719   1.935   9.468   7.371 -0.6496 -0.9320  0.0212
  354MOL0     H46720   2.173   9.347   7.209  1.1620  1.3937 -1.8131
  354MOL0     H46721   2.052   9.439   7.126  0.9064 -0.8933  0.0758
  354MOL0     H46722   2.251   9.504   7.361  0.0187  0.3292 -0.4471
  354MOL0     H46723   2.127   9.619   7.328  2.5317  0.9614  0.7549
  354MOL0     H46724   2.357   9.522   7.127 -0.0181  0.5299 -1.2165
  354MOL0     H46725   2.220   9.628   7.083  1.0790  1.4190  0.8336
  354MOL0     H46726   2.487   9.903   7.228 -1.3270  0.9120 -5.5497
  354MOL0     H46727   1.847   9.053   7.212 -1.4840 -1.2933 -0.7033
  354MOL0     H46728   1.662   8.927   7.315  0.4241  1.4938 -2.4138
  355MOL0     O46729  10.580   7.017  10.386  0.1952  0.3583  0.1984
  355MOL0     C46730  10.683   7.079  10.427  0.6839  1.5902  0.0347
  355MOL0     O46731  10.679   7.207  10.465  0.1999  0.1829  0.4395
  355MOL0     C46732  10.578   7.286  10.403  0.0924  0.8019  0.4981
  355MOL0     C46733  10.517   7.260  10.274  0.2018  0.3827 -0.5856
  355MOL0     C46734  10.408   7.349  10.236  0.0226  0.0825  0.4072
  355MOL0     C46735  10.359   7.461  10.306  0.9311 -0.1985 -0.2210
  355MOL0     O46736  10.259   7.545  10.253  0.4796  0.7993 -0.1791
  355MOL0     C46737  10.132   7.527  10.318  0.1183 -0.7101  0.2180
  355MOL0     C46738  10.041   7.639  10.261 -0.2890 -0.3685  0.2425
  355MOL0     C46739   9.936   7.675  10.362 -0.4604  0.5032 -0.1075
  355MOL0     C46740   9.844   7.554  10.406  0.1453  0.2776  1.4233
  355MOL0     C46741   9.721   7.598  10.471  0.7775  0.1241 -0.1318
  355MOL0     C46742   9.636   7.471  10.499 -0.1657 -0.7274 -0.3164
  355MOL0     C46743   9.510   7.516  10.589 -0.2444 -0.1128 -0.1193
  355MOL0     C46744   9.396   7.423  10.567 -0.7081 -0.8498 -0.0612
  355MOL0     N46745   9.271   7.464  10.638  0.5375 -0.1896  0.3481
  355MOL0     C46746   9.265   7.526  10.759  0.2496  0.0178 -0.6578
  355MOL0     C46747   9.134   7.546  10.777 -0.0512 -0.0354  0.4034
  355MOL0     C46748   9.074   7.611  10.898 -0.1834  0.5683 -0.0948
  355MOL0     C46749   8.965   7.714  10.863 -0.0992 -0.3420 -0.3281
  355MOL0     C46750   8.860   7.733  10.975 -0.6513  1.4144  0.4552
  355MOL0     C46751   8.752   7.819  10.921 -0.4241  0.4738 -0.5502
  355MOL0     O46752   8.796   7.931  10.843 -0.1029 -0.5814 -0.7180
  355MOL0     C46753   8.720   8.045  10.821 -0.2289  0.2975 -0.7594
  355MOL0     C46754   8.790   8.156  10.766  0.2992 -0.2653 -0.6892
  355MOL0     C46755   8.726   8.282  10.766  0.3351 -0.0312 -0.5546
  355MOL0     C46756   8.589   8.296  10.811  0.5197 -1.2885  0.4013
  355MOL0     C46757   8.523   8.426  10.803 -1.4332 -0.5106  0.8785
  355MOL0     O46758   8.396   8.423  10.751 -0.2000 -0.3868  0.3363
  355MOL0     C46759   8.320   8.531  10.728 -0.4220 -0.9332  0.0297
  355MOL0     C46760   8.182   8.516  10.707 -0.0186  0.2603 -0.3589
  355MOL0     C46761   8.096   8.627  10.691  0.2978 -0.2283  0.1793
  355MOL0     C46762   8.143   8.756  10.672 -0.2014  0.0067  0.2707
  355MOL0     O46763   8.054   8.857  10.650 -0.0620  0.2329  0.5711
  355MOL0     C46764   8.059   8.978  10.721 -0.0538 -0.0176 -0.5732
  355MOL0     C46765   7.924   9.042  10.723  1.0817  0.5263 -0.0664
  355MOL0     C46766   7.833   8.989  10.832  0.3260  0.1693 -0.1731
  355MOL0     C46767   7.684   9.025  10.806 -0.0272 -0.1540  0.0088
  355MOL0     C46768   7.605   8.975  10.922  0.3695 -0.0520  0.3893
  355MOL0     C46769   7.458   9.002  10.866 -0.7808 -0.3587 -0.3773
  355MOL0     C46770   7.357   8.937  10.971 -0.4616 -0.3467 -0.3340
  355MOL0     C46771   7.356   8.786  10.936  0.6796 -0.0977  0.6545
  355MOL0    Cl46772   7.233   8.712  11.037  0.0359  0.6396 -0.6463
  355MOL0     C46773   8.283   8.771  10.692 -0.2731 -0.1397  0.5285
  355MOL0     C46774   8.363   8.664  10.723 -0.0997 -0.1063 -0.4160
  355MOL0     O46775   8.591   8.532  10.814 -0.4691 -0.2423  0.1236
  355MOL0     C46776   8.528   8.187  10.864  0.5859 -0.4739 -0.1540
  355MOL0     C46777   8.587   8.061  10.864 -0.2457  0.0865 -0.5353
  355MOL0     N46778   9.064   7.499  10.674 -0.6216  0.0828  0.3743
  355MOL0     N46779   9.147   7.456  10.576  0.1574 -0.7302  0.0539
  355MOL0     C46780  10.433   7.493  10.419  0.5257 -0.5106 -0.0812
  355MOL0     C46781  10.534   7.405  10.465 -0.0135 -0.0966  0.0847
  355MOL0     C46782  10.814   7.004  10.428  0.1176 -0.3508 -0.2731
  355MOL0     C46783  10.931   7.080  10.467  0.8075 -0.1993  0.5185
  355MOL0     C46784  11.055   7.008  10.483 -1.4641  0.6906  0.0102
  355MOL0     C46785  11.064   6.878  10.443 -0.5509 -0.2411 -0.3310
  355MOL0     O46786  11.177   6.804  10.455  0.2330 -0.4440  0.8875
  355MOL0     C46787  11.305   6.867  10.495 -0.9394  0.0283 -0.5279
  355MOL0     C46788  11.375   6.948  10.375 -0.4042 -0.1430 -0.0432
  355MOL0     C46789  11.449   7.066  10.434  0.0532  0.1354 -0.1291
  355MOL0     C46790  11.561   7.024  10.539  0.0775 -0.5167 -0.5421
  355MOL0     C46791  11.639   7.145  10.585 -0.8787  0.2475 -0.0937
  355MOL0     C46792  11.684   7.251  10.624 -0.4097 -0.2818  0.2839
  355MOL0     C46793  10.953   6.812  10.398 -0.3261  0.7622  0.8116
  355MOL0     C46794  10.823   6.869  10.392  0.0391  0.1336  0.3279
  355MOL0     H46795  10.543   7.173  10.216  2.5993 -0.2688  1.2797
  355MOL0     H46796  10.346   7.319  10.153 -0.3477 -0.1598  0.7633
  355MOL0     H46797  10.147   7.557  10.423 -1.9991  0.4035  0.2610
  355MOL0     H46798  10.085   7.429  10.318  0.5778 -0.9763 -1.8308
  355MOL0     H46799   9.993   7.602  10.170  0.5715 -0.1796 -0.3001
  355MOL0     H46800  10.101   7.725  10.230  2.2335 -1.2738  2.2427
  355MOL0     H46801   9.873   7.754  10.322 -0.3448  1.2144  1.0475
  355MOL0     H46802   9.985   7.720  10.450 -2.4272  1.1575  0.7017
  355MOL0     H46803   9.816   7.504  10.312  1.7633  1.5118  0.2365
  355MOL0     H46804   9.892   7.478  10.469 -0.1750 -0.8125  0.3865
  355MOL0     H46805   9.667   7.679  10.422 -0.7693  0.6242  2.2362
  355MOL0     H46806   9.743   7.637  10.571 -2.1024  0.2162  0.5660
  355MOL0     H46807   9.686   7.402  10.567  0.1365  1.0858  1.3899
  355MOL0     H46808   9.601   7.416  10.411 -1.7557 -0.8278  0.3428
  355MOL0     H46809   9.536   7.509  10.695 -2.2759  0.9591  0.5151
  355MOL0     H46810   9.483   7.619  10.563  1.0325  0.4643  0.7640
  355MOL0     H46811   9.430   7.320  10.585 -2.3230 -1.0908  2.0478
  355MOL0     H46812   9.371   7.430  10.461  0.5004 -0.3599 -0.3298
  355MOL0     H46813   9.346   7.544  10.828  1.8194 -0.5171 -2.2843
  355MOL0     H46814   9.147   7.662  10.961  1.4959 -0.1834 -1.3627
  355MOL0     H46815   9.019   7.532  10.952 -1.5439  0.0392 -2.1279
  355MOL0     H46816   8.918   7.687  10.767 -1.0891  3.8134 -1.2472
  355MOL0     H46817   9.012   7.811  10.846  1.9449 -1.2593 -0.1381
  355MOL0     H46818   8.817   7.635  10.998 -3.0195  2.7695  2.3314
  355MOL0     H46819   8.921   7.765  11.060 -2.4627 -2.2230  3.3850
  355MOL0     H46820   8.693   7.847  11.009  2.0819  1.0811  1.0319
  355MOL0     H46821   8.692   7.762  10.850  1.6289  2.1428 -3.8881
  355MOL0     H46822   8.885   8.146  10.715 -0.9807 -0.4008 -3.2453
  355MOL0     H46823   8.781   8.357  10.709  0.1030  1.2503  0.8556
  355MOL0     H46824   8.145   8.414  10.714 -0.2687  0.2555 -1.4884
  355MOL0     H46825   7.990   8.604  10.685  0.4337 -1.5338  1.9469
  355MOL0     H46826   8.137   9.035  10.670 -1.8592  0.1697 -3.4008
  355MOL0     H46827   8.091   8.969  10.825 -1.6971  3.0301  0.3257
  355MOL0     H46828   7.860   9.027  10.636  0.2990 -0.2165  0.6194
  355MOL0     H46829   7.943   9.149  10.736  0.5208  0.6227 -0.0222
  355MOL0     H46830   7.862   9.037  10.925  1.5047  0.8345 -0.8580
  355MOL0     H46831   7.847   8.881  10.842 -0.9251  0.0344  0.2409
  355MOL0     H46832   7.658   9.131  10.800 -3.4265 -0.6521  2.9323
  355MOL0     H46833   7.656   8.979  10.711  1.3846 -2.2025  0.5336
  355MOL0     H46834   7.627   9.042  11.005 -0.1153  1.9643 -1.0300
  355MOL0     H46835   7.622   8.871  10.950  1.7735 -0.1562 -0.7104
  355MOL0     H46836   7.433   8.960  10.768  0.1365  0.3663 -0.9398
  355MOL0     H46837   7.434   9.108  10.877 -2.0391 -0.8938  3.7772
  355MOL0     H46838   7.384   8.953  11.076  1.8263 -1.5084 -0.6796
  355MOL0     H46839   7.262   8.987  10.952  0.7050  2.0329 -0.3152
  355MOL0     H46840   7.453   8.736  10.949  1.3482  0.5840 -1.2749
  355MOL0     H46841   7.347   8.770  10.828  1.6943  1.2762  0.3331
  355MOL0     H46842   8.317   8.875  10.694 -0.9765  0.0813  1.4345
  355MOL0     H46843   8.467   8.693  10.735 -0.2209 -0.0626  0.6351
  355MOL0     H46844   8.435   8.184  10.919  0.9441 -4.6209  0.5381
  355MOL0     H46845   8.533   7.977  10.906 -2.2176  2.0914  1.2193
  355MOL0     H46846  10.388   7.582  10.462 -0.0220  0.8966 -3.2680
  355MOL0     H46847  10.563   7.443  10.563  0.7463  1.8865 -0.8656
  355MOL0     H46848  10.917   7.187  10.476  1.6638 -0.2131  2.5448
  355MOL0     H46849  11.143   7.065  10.511  0.9850 -2.1158 -1.2826
  355MOL0     H46850  11.383   6.797  10.528 -1.4929  0.5301  2.0868
  355MOL0     H46851  11.297   6.940  10.576  0.8956 -0.2472 -0.0462
  355MOL0     H46852  11.452   6.896  10.318  1.1526  1.4525  0.5117
  355MOL0     H46853  11.292   6.983  10.312 -0.6227 -3.3992 -1.7538
  355MOL0     H46854  11.372   7.129  10.479 -0.4190 -0.0924 -0.6035
  355MOL0     H46855  11.488   7.123  10.349  0.8476  2.9870  1.9836
  355MOL0     H46856  11.520   6.983  10.631 -0.0014 -1.0427 -0.8078
  355MOL0     H46857  11.620   6.943  10.496 -4.0109 -2.3005 -3.4781
  355MOL0     H46858  11.720   7.348  10.654 -0.2279 -0.9232  2.2828
  355MOL0     H46859  10.957   6.710  10.362 -1.0672  1.4832 -1.4852
  355MOL0     H46860  10.730   6.818  10.368  0.2879  0.3905 -1.3268
  356MOL0     O46861   1.224   7.998  11.008  0.1405 -0.0085  0.4640
  356MOL0     C46862   1.231   8.001  11.129 -0.3632  0.4796 -0.5174
  356MOL0     O46863   1.123   7.989  11.213  0.6836  0.6989  0.3627
  356MOL0     C46864   1.000   7.991  11.155  0.6607 -0.6412  0.3226
  356MOL0     C46865   0.904   7.893  11.164 -0.3670  0.6909 -0.6220
  356MOL0     C46866   0.768   7.905  11.129  0.6577 -0.5207 -0.7932
  356MOL0     C46867   0.728   8.037  11.077 -0.6748 -0.0615 -0.5985
  356MOL0     O46868   0.603   8.067  11.045 -0.0073  0.1397  0.1934
  356MOL0     C46869   0.501   7.977  11.074  0.1420  0.8940  0.2320
  356MOL0     C46870   0.370   8.046  11.038 -0.3533 -1.1385  0.5726
  356MOL0     C46871   0.264   7.945  11.013  0.9680  0.4237 -0.7440
  356MOL0     C46872   0.139   8.007  10.971  1.2598 -0.6549 -0.1427
  356MOL0     C46873   0.022   7.914  10.944  0.5261 -1.4336  0.2275
  356MOL0     C46874  -0.076   7.945  10.826 -0.1550 -0.3166  0.8140
  356MOL0     C46875  -0.009   7.924  10.692  0.7549 -0.7083 -0.3390
  356MOL0     C46876  -0.094   7.967  10.577  0.1333  0.0145  0.5763
  356MOL0     N46877  -0.207   7.867  10.551  0.2770  0.4033  0.2427
  356MOL0     C46878  -0.237   7.810  10.429 -0.4769 -0.1410 -0.8728
  356MOL0     C46879  -0.362   7.759  10.443  0.1492 -0.1757  0.7582
  356MOL0     C46880  -0.435   7.695  10.324  0.4010 -0.1477 -0.3872
  356MOL0     C46881  -0.531   7.795  10.253  0.4073  0.5945  0.4733
  356MOL0     C46882  -0.651   7.851  10.338  0.2037  0.3426 -0.0502
  356MOL0     C46883  -0.791   7.805  10.285 -1.0816 -0.7090  0.0673
  356MOL0     O46884  -0.811   7.897  10.168 -0.6787 -0.1026 -0.4849
  356MOL0     C46885  -0.936   7.928  10.121 -0.4243  1.2868  0.5227
  356MOL0     C46886  -0.942   7.974   9.993  0.1617  0.0945  0.3753
  356MOL0     C46887  -1.061   8.016   9.933 -0.1318  1.2035 -0.0714
  356MOL0     C46888  -1.184   8.015  10.001 -0.1892  0.7355 -0.3950
  356MOL0     C46889  -1.311   8.051   9.939  0.6312 -0.5011 -1.2386
  356MOL0     O46890  -1.411   8.106  10.023 -1.1568  0.4080  0.4278
  356MOL0     C46891  -1.519   8.158   9.966 -0.2909 -0.2311 -0.4480
  356MOL0     C46892  -1.577   8.270  10.018  0.2125 -0.8526  0.2277
  356MOL0     C46893  -1.696   8.319   9.968 -0.3079  0.5954 -0.7337
  356MOL0     C46894  -1.766   8.256   9.867 -0.4508 -0.0676  1.1360
  356MOL0     O46895  -1.871   8.313   9.808 -0.3739  0.0518  0.3807
  356MOL0     C46896  -1.976   8.237   9.748  0.0568 -1.0202  0.1939
  356MOL0     C46897  -2.111   8.308   9.746 -0.1352  0.0589 -0.4077
  356MOL0     C46898  -2.223   8.206   9.742 -0.4975 -1.3789 -0.5440
  356MOL0     C46899  -2.344   8.287   9.697 -0.7363  0.2996 -0.0989
  356MOL0     C46900  -2.450   8.189   9.647  0.3367 -0.3866  0.1561
  356MOL0     C46901  -2.577   8.263   9.610 -0.0602 -0.3721 -0.1283
  356MOL0     C46902  -2.689   8.156   9.586  0.7238 -0.3566 -0.3055
  356MOL0     C46903  -2.778   8.221   9.468 -0.6558  1.6964 -0.3519
  356MOL0    Cl46904  -2.839   8.365   9.536 -0.4469 -0.4649 -0.3095
  356MOL0     C46905  -1.712   8.137   9.827 -0.2280  0.5793  1.0734
  356MOL0     C46906  -1.596   8.087   9.874  0.0463 -0.3496  0.1489
  356MOL0     O46907  -1.310   8.058   9.813  0.3035  0.0183  0.3323
  356MOL0     C46908  -1.179   7.981  10.138  1.1199 -0.1695  0.7096
  356MOL0     C46909  -1.060   7.933  10.201  0.1368 -0.2446 -1.1030
  356MOL0     N46910  -0.410   7.790  10.567 -0.0991  0.3313 -0.1786
  356MOL0     N46911  -0.315   7.850  10.632  0.0160 -0.0690 -0.7810
  356MOL0     C46912   0.828   8.132  11.052 -1.1504 -0.9989 -0.7220
  356MOL0     C46913   0.956   8.115  11.088 -1.5589 -0.2205  0.3051
  356MOL0     C46914   1.367   8.034  11.187 -0.5134  0.1476  0.0017
  356MOL0     C46915   1.384   8.049  11.321 -0.0062 -0.1315  0.3700
  356MOL0     C46916   1.504   8.086  11.378  0.3891 -0.2682  1.1515
  356MOL0     C46917   1.613   8.121  11.298  0.1378 -0.3151 -0.3407
  356MOL0     O46918   1.711   8.169  11.374 -0.8063  0.0664 -0.0640
  356MOL0     C46919   1.845   8.170  11.331 -0.0871  0.5419 -0.1795
  356MOL0     C46920   1.929   8.233  11.444  0.2117  0.2987  0.7307
  356MOL0     C46921   2.080   8.254  11.404  0.6552 -0.6308  1.0994
  356MOL0     C46922   2.163   8.311  11.527  0.6696  0.2799  0.1673
  356MOL0     C46923   2.304   8.285  11.496  0.1924  0.6616 -1.1126
  356MOL0     C46924   2.422   8.280  11.470  0.6405 -0.7484  1.0119
  356MOL0     C46925   1.609   8.109  11.158  0.2978  0.0613 -0.3467
  356MOL0     C46926   1.487   8.060  11.100 -0.6692 -0.5320 -0.2620
  356MOL0     H46927   0.939   7.801  11.209  2.7650  0.9578 -2.2845
  356MOL0     H46928   0.706   7.820  11.156  1.0318 -1.2214 -2.0569
  356MOL0     H46929   0.492   7.950  11.179 -0.3260 -1.4341 -0.3466
  356MOL0     H46930   0.514   7.898  11.000  0.0646  1.5071 -0.4514
  356MOL0     H46931   0.381   8.102  10.945  0.3038  2.4065  2.5829
  356MOL0     H46932   0.342   8.119  11.115  0.1321 -0.1389 -0.1751
  356MOL0     H46933   0.239   7.892  11.106  0.5382  2.8989  0.6279
  356MOL0     H46934   0.301   7.876  10.936  1.4476  0.7759 -0.8330
  356MOL0     H46935   0.101   8.063  11.057  0.2370 -2.1854  0.4591
  356MOL0     H46936   0.167   8.064  10.882  2.0263  3.9293  2.6857
  356MOL0     H46937  -0.033   7.909  11.039 -1.3166  2.3118 -0.4601
  356MOL0     H46938   0.071   7.819  10.923  1.4810 -0.5030 -2.0460
  356MOL0     H46939  -0.102   8.051  10.825 -2.2795 -0.7250 -3.0165
  356MOL0     H46940  -0.159   7.875  10.837  0.3654 -0.7059  2.5529
  356MOL0     H46941   0.083   7.982  10.683  0.0849  0.0801 -3.1791
  356MOL0     H46942   0.023   7.821  10.678 -1.8294 -1.2572 -3.8022
  356MOL0     H46943  -0.033   7.961  10.486  0.3690  2.5977  0.4973
  356MOL0     H46944  -0.139   8.066  10.586 -0.3750 -0.2249  0.7132
  356MOL0     H46945  -0.178   7.802  10.338  2.0279  0.4080  0.5785
  356MOL0     H46946  -0.487   7.607  10.362  2.5951 -1.7070 -0.8539
  356MOL0     H46947  -0.357   7.675  10.250  0.4467  0.2244 -0.4445
  356MOL0     H46948  -0.571   7.747  10.164  1.3618  1.3982 -0.4076
  356MOL0     H46949  -0.474   7.878  10.211 -0.4681  1.4180  0.8626
  356MOL0     H46950  -0.647   7.814  10.441 -4.2292 -3.2458 -0.7923
  356MOL0     H46951  -0.661   7.960  10.340  0.4277  0.3715  2.4622
  356MOL0     H46952  -0.866   7.823  10.363 -1.0784  0.1866 -0.1160
  356MOL0     H46953  -0.797   7.697  10.274 -2.2522 -0.5801 -0.7079
  356MOL0     H46954  -0.850   7.982   9.936  1.1691 -0.4986  1.8534
  356MOL0     H46955  -1.066   8.050   9.830 -0.3832  0.7230 -0.2210
  356MOL0     H46956  -1.526   8.337  10.086 -0.5521  1.0613 -0.9967
  356MOL0     H46957  -1.732   8.416  10.000 -0.6250  0.8950 -1.9424
  356MOL0     H46958  -1.990   8.142   9.801  0.2614 -1.2271 -0.1190
  356MOL0     H46959  -1.950   8.203   9.648  2.1215 -0.5840  0.5204
  356MOL0     H46960  -2.113   8.377   9.661 -2.2307  0.6387  0.0742
  356MOL0     H46961  -2.122   8.376   9.831 -0.6072 -1.2551  0.6129
  356MOL0     H46962  -2.235   8.152   9.836  1.6285  0.5922  0.9704
  356MOL0     H46963  -2.207   8.127   9.668  2.4282 -0.8662 -0.5710
  356MOL0     H46964  -2.377   8.341   9.785  0.2386 -0.2227  0.6004
  356MOL0     H46965  -2.331   8.357   9.613 -0.1379 -0.2383 -0.4652
  356MOL0     H46966  -2.471   8.119   9.728  2.3671 -2.6753 -1.1474
  356MOL0     H46967  -2.409   8.129   9.565  0.9629 -1.0440  0.9332
  356MOL0     H46968  -2.564   8.319   9.517  0.1951 -2.1359 -1.2108
  356MOL0     H46969  -2.613   8.334   9.685 -1.6495 -1.3077  0.0571
  356MOL0     H46970  -2.644   8.059   9.562 -1.4418 -0.5866 -4.1103
  356MOL0     H46971  -2.754   8.144   9.673 -3.2426 -1.6154 -3.1431
  356MOL0     H46972  -2.862   8.154   9.445  0.7320 -0.3719  0.3563
  356MOL0     H46973  -2.716   8.237   9.379  3.0170 -0.3863  1.5808
  356MOL0     H46974  -1.769   8.076   9.757  1.2002  2.0697 -1.5504
  356MOL0     H46975  -1.563   7.995   9.827  1.2504 -1.4811  2.9845
  356MOL0     H46976  -1.271   7.979  10.196  1.3897  0.3080  1.1688
  356MOL0     H46977  -1.053   7.909  10.307 -0.2683 -1.0695 -1.2581
  356MOL0     H46978   0.789   8.219  10.999 -1.2894  1.5356  3.1580
  356MOL0     H46979   1.030   8.192  11.072  1.5458 -1.7966  5.0436
  356MOL0     H46980   1.304   8.034  11.393  1.2021 -1.2317  1.5349
  356MOL0     H46981   1.517   8.093  11.485  1.3248 -1.9283  1.1643
  356MOL0     H46982   1.857   8.219  11.233 -0.7499 -1.4319 -1.3112
  356MOL0     H46983   1.887   8.074  11.301  0.9940  1.3898 -1.5637
  356MOL0     H46984   1.893   8.335  11.465 -0.9199  0.8619 -3.2176
  356MOL0     H46985   1.908   8.166  11.528 -0.4545 -1.0926 -0.5217
  356MOL0     H46986   2.092   8.327  11.323  0.8461 -1.8746 -0.0345
  356MOL0     H46987   2.118   8.160  11.362  2.9676 -0.0719  1.8238
  356MOL0     H46988   2.141   8.417  11.543 -0.6732 -0.1228  1.1974
  356MOL0     H46989   2.135   8.261  11.621 -1.1036  0.7592 -0.0702
  356MOL0     H46990   2.528   8.287  11.454  0.6921  2.8846  1.9613
  356MOL0     H46991   1.693   8.120  11.091 -0.2869 -4.1084 -2.0297
  356MOL0     H46992   1.474   8.058  10.993 -2.2013  0.4924 -0.1331
  357MOL0     O46993   0.966   6.242   1.237 -0.0419  0.6708  0.8494
  357MOL0     C46994   1.051   6.155   1.226 -0.2313  0.0790  0.4862
  357MOL0     O46995   1.024   6.031   1.196 -0.3633 -0.2184  0.1727
  357MOL0     C46996   0.897   5.988   1.185 -0.0734  0.7550  0.2352
  357MOL0     C46997   0.843   5.949   1.059 -0.2508 -0.6861  0.9207
  357MOL0     C46998   0.713   5.908   1.039  0.6195  0.2171  0.3758
  357MOL0     C46999   0.633   5.881   1.148  0.2883  0.4289  0.3649
  357MOL0     O47000   0.508   5.813   1.118  0.1171  0.3282 -0.3671
  357MOL0     C47001   0.457   5.722   1.216  0.0009 -0.2677  0.0623
  357MOL0     C47002   0.353   5.628   1.149 -0.1809 -0.1910 -0.7256
  357MOL0     C47003   0.258   5.559   1.256  0.0446 -0.1402 -0.6721
  357MOL0     C47004   0.203   5.425   1.216 -0.2889  0.8395 -0.3196
  357MOL0     C47005   0.104   5.435   1.091  0.0897 -0.2734 -0.5232
  357MOL0     C47006   0.059   5.293   1.050  0.3839 -0.1877 -0.0735
  357MOL0     C47007  -0.013   5.300   0.918 -0.3534 -1.0307 -0.7286
  357MOL0     C47008  -0.087   5.177   0.882  0.9906  0.9966  0.5414
  357MOL0     N47009  -0.198   5.201   0.792  0.1930 -0.0251 -1.0154
  357MOL0     C47010  -0.330   5.224   0.834  0.5017 -0.5800  0.6417
  357MOL0     C47011  -0.385   5.268   0.718  0.2813  0.4765  0.5569
  357MOL0     C47012  -0.511   5.349   0.699  0.1952  0.2363  0.7961
  357MOL0     C47013  -0.642   5.254   0.705 -0.8819  0.7584  0.6184
  357MOL0     C47014  -0.639   5.132   0.623  0.3379 -0.1277 -0.4255
  357MOL0     C47015  -0.663   5.167   0.479 -0.4430 -0.5407 -0.2253
  357MOL0     O47016  -0.667   5.049   0.407  0.3567 -0.0887  0.3230
  357MOL0     C47017  -0.557   4.961   0.378  0.1302 -0.8491 -0.2252
  357MOL0     C47018  -0.419   4.990   0.399  0.0948 -1.0684 -0.4392
  357MOL0     C47019  -0.315   4.908   0.354 -0.4550 -0.3881  1.2231
  357MOL0     C47020  -0.350   4.785   0.296 -0.3322  0.3819 -0.0748
  357MOL0     C47021  -0.232   4.695   0.267 -0.4484  0.3759  0.7766
  357MOL0     O47022  -0.262   4.583   0.175 -0.1723  0.7486 -0.4573
  357MOL0     C47023  -0.149   4.518   0.131  0.4942 -0.0685  0.8936
  357MOL0     C47024  -0.044   4.590   0.065 -0.0006  0.4514 -0.5857
  357MOL0     C47025   0.066   4.522   0.010  0.6353 -0.5700  0.0995
  357MOL0     C47026   0.058   4.381   0.005 -0.8498  0.3422  0.3537
  357MOL0     O47027   0.151   4.297  -0.056  0.6364 -0.1697  0.3135
  357MOL0     C47028   0.289   4.331  -0.048  0.3809 -0.6491  0.3877
  357MOL0     C47029   0.381   4.208  -0.057 -0.2841 -0.8032 -0.6488
  357MOL0     C47030   0.368   4.135  -0.192  0.3205 -0.0780 -0.4499
  357MOL0     C47031   0.484   4.041  -0.215 -0.0424  0.0341  0.6743
  357MOL0     C47032   0.456   3.905  -0.156  1.1465 -0.1299 -0.3744
  357MOL0     C47033   0.571   3.816  -0.169  0.2141 -0.1477 -0.7449
  357MOL0     C47034   0.632   3.800  -0.312 -0.3411 -0.1283 -0.0526
  357MOL0     C47035   0.721   3.675  -0.317  0.4092  0.5186  0.5163
  357MOL0    Cl47036   0.613   3.544  -0.339 -0.1856  0.0277 -0.0012
  357MOL0     C47037  -0.041   4.314   0.069  0.7338  0.1266  0.0719
  357MOL0     C47038  -0.152   4.380   0.133 -0.9464 -0.1982 -0.8452
  357MOL0     O47039  -0.129   4.719   0.319 -0.2673 -1.1528 -0.2694
  357MOL0     C47040  -0.486   4.745   0.280 -0.2221  0.0929  0.3719
  357MOL0     C47041  -0.583   4.845   0.306 -0.5682 -0.4825 -0.3416
  357MOL0     N47042  -0.296   5.251   0.613  0.0135 -0.3190 -0.5752
  357MOL0     N47043  -0.192   5.192   0.658 -0.7129  0.9308 -0.0368
  357MOL0     C47044   0.677   5.919   1.279  0.3590  0.2364  0.2525
  357MOL0     C47045   0.807   5.973   1.298 -0.2165  0.9027  0.2027
  357MOL0     C47046   1.190   6.200   1.220  0.7078 -0.0605 -0.1529
  357MOL0     C47047   1.307   6.113   1.231 -0.2393 -0.0609  0.0912
  357MOL0     C47048   1.439   6.165   1.237  0.4515  0.2207 -0.1163
  357MOL0     C47049   1.469   6.301   1.213  0.0915 -1.0644 -0.1161
  357MOL0     O47050   1.589   6.359   1.215  0.1423 -0.5610 -0.3523
  357MOL0     C47051   1.713   6.299   1.183  0.1625  0.0044  0.4875
  357MOL0     C47052   1.825   6.350   1.263 -0.4280  0.1915  0.7970
  357MOL0     C47053   1.947   6.301   1.190  0.3287 -1.0647 -0.8981
  357MOL0     C47054   2.077   6.333   1.275  0.1363  1.0861  0.0621
  357MOL0     C47055   2.180   6.288   1.184 -1.1259  0.3914 -1.0572
  357MOL0     C47056   2.278   6.238   1.126 -0.5044 -0.1432 -0.4987
  357MOL0     C47057   1.354   6.384   1.212  0.2872  0.0435 -0.8308
  357MOL0     C47058   1.219   6.333   1.217 -0.8206  0.6028  0.6410
  357MOL0     H47059   0.912   5.954   0.976 -1.7408 -0.2982 -0.3332
  357MOL0     H47060   0.681   5.869   0.943  0.4546  2.3703 -0.5029
  357MOL0     H47061   0.421   5.775   1.305 -1.8762 -0.8281 -0.3110
  357MOL0     H47062   0.528   5.643   1.243 -2.1192 -2.8596 -1.3933
  357MOL0     H47063   0.420   5.559   1.095  0.0030  0.5001 -1.3983
  357MOL0     H47064   0.296   5.690   1.079 -0.3068 -0.5655 -0.9568
  357MOL0     H47065   0.181   5.627   1.295  2.1248  0.4033  2.9759
  357MOL0     H47066   0.327   5.546   1.340  2.0646  0.3864 -2.1687
  357MOL0     H47067   0.286   5.358   1.195 -2.0302 -0.8990 -2.0460
  357MOL0     H47068   0.141   5.389   1.298 -0.3736 -0.9857 -1.1473
  357MOL0     H47069   0.166   5.469   1.007  1.4312  0.5058  0.7341
  357MOL0     H47070   0.019   5.498   1.118  0.4679  1.0404 -2.2670
  357MOL0     H47071  -0.014   5.260   1.125 -1.0542  1.8993 -0.4406
  357MOL0     H47072   0.139   5.218   1.048 -1.8366 -2.7312 -1.5969
  357MOL0     H47073  -0.080   5.387   0.912  0.2223 -0.6220 -1.4241
  357MOL0     H47074   0.058   5.318   0.838 -1.2271  1.4255 -1.0463
  357MOL0     H47075  -0.144   5.143   0.969  0.9949  2.8413  1.3123
  357MOL0     H47076  -0.022   5.095   0.849 -0.5531  0.0323 -0.2534
  357MOL0     H47077  -0.368   5.225   0.936 -2.8961  1.9770 -0.4328
  357MOL0     H47078  -0.510   5.396   0.600  0.9185  0.4392  0.8977
  357MOL0     H47079  -0.514   5.420   0.781  0.8267  1.9986 -0.6494
  357MOL0     H47080  -0.724   5.313   0.664 -1.3724  0.9481  1.8230
  357MOL0     H47081  -0.668   5.227   0.808 -2.1416  2.6117  0.8409
  357MOL0     H47082  -0.547   5.075   0.633  0.4021 -0.1898 -1.3031
  357MOL0     H47083  -0.715   5.061   0.656 -0.2229  0.2758 -0.8077
  357MOL0     H47084  -0.591   5.246   0.454 -0.2489 -0.4499  0.5777
  357MOL0     H47085  -0.755   5.223   0.464  0.3457  0.4356 -1.7002
  357MOL0     H47086  -0.384   5.070   0.463 -2.4466 -0.8139  0.7566
  357MOL0     H47087  -0.215   4.940   0.380 -0.8880  0.2746  2.1009
  357MOL0     H47088  -0.040   4.698   0.057  3.3099  0.6981  2.0616
  357MOL0     H47089   0.139   4.573  -0.052 -1.1564  1.7217 -0.3098
  357MOL0     H47090   0.316   4.395   0.036 -1.6336  0.4887  0.2532
  357MOL0     H47091   0.317   4.379  -0.142 -0.7178  2.8606  1.6677
  357MOL0     H47092   0.351   4.137   0.021  0.0869 -0.2993 -0.0371
  357MOL0     H47093   0.481   4.248  -0.041  0.5162 -2.3260 -1.5892
  357MOL0     H47094   0.373   4.199  -0.280  4.5104  0.6411  0.1299
  357MOL0     H47095   0.277   4.074  -0.192  1.0301 -1.1666 -1.5194
  357MOL0     H47096   0.495   4.027  -0.323  1.0001 -0.9163  0.8841
  357MOL0     H47097   0.576   4.078  -0.168 -1.2198 -0.8659  3.9762
  357MOL0     H47098   0.365   3.872  -0.207  0.3529  0.2969  0.7370
  357MOL0     H47099   0.436   3.916  -0.049  0.0154 -1.2337 -0.4465
  357MOL0     H47100   0.557   3.716  -0.127  3.6981  0.5382  2.5855
  357MOL0     H47101   0.655   3.859  -0.113  1.3767 -3.1075 -0.0388
  357MOL0     H47102   0.551   3.783  -0.382 -2.1483 -0.1230  1.9268
  357MOL0     H47103   0.689   3.889  -0.341 -1.2856  1.1303  1.7684
  357MOL0     H47104   0.782   3.657  -0.229 -2.3739 -0.3177  2.4129
  357MOL0     H47105   0.789   3.685  -0.402 -2.0473 -0.1710 -1.7037
  357MOL0     H47106  -0.055   4.206   0.076  1.2186  0.1444  2.0331
  357MOL0     H47107  -0.235   4.324   0.174 -0.0134 -0.9945  0.0299
  357MOL0     H47108  -0.513   4.652   0.232  0.0149  0.0821  0.2584
  357MOL0     H47109  -0.686   4.821   0.281 -0.1410 -1.1144 -1.5653
  357MOL0     H47110   0.602   5.908   1.357 -0.6294  2.7479 -0.2614
  357MOL0     H47111   0.844   6.010   1.393  0.3858 -0.8626  0.6858
  357MOL0     H47112   1.295   6.007   1.251 -0.4615 -0.0594 -0.0267
  357MOL0     H47113   1.515   6.093   1.265  2.0233  1.7149 -0.3542
  357MOL0     H47114   1.730   6.308   1.075  0.7551  1.5762  0.6763
  357MOL0     H47115   1.711   6.190   1.188  3.5257 -0.2721 -1.2131
  357MOL0     H47116   1.816   6.459   1.271 -0.1559  0.5315 -2.2464
  357MOL0     H47117   1.799   6.309   1.361 -4.6986  1.9124  0.6319
  357MOL0     H47118   1.959   6.374   1.109 -0.0463  1.6580  1.3314
  357MOL0     H47119   1.942   6.195   1.167  0.7634 -0.9555 -1.5098
  357MOL0     H47120   2.084   6.438   1.304 -2.3083  0.5359  3.2539
  357MOL0     H47121   2.091   6.277   1.369  0.6811  2.5492  0.8891
  357MOL0     H47122   2.371   6.218   1.077 -1.3627  1.5712 -3.0501
  357MOL0     H47123   1.377   6.490   1.211  1.4452 -0.1284  1.5579
  357MOL0     H47124   1.139   6.405   1.224  0.2489  1.6764  4.9275
  358MOL0     O47125   8.900   1.903   3.516  0.3610  0.8376 -1.1611
  358MOL0     C47126   8.942   1.921   3.406  0.0641  0.4316 -0.5306
  358MOL0     O47127   8.870   1.917   3.294  0.6959  0.6978 -0.2678
  358MOL0     C47128   8.735   1.896   3.311  0.6724  0.1499 -1.0487
  358MOL0     C47129   8.648   1.986   3.376  0.6583 -0.7894 -0.0011
  358MOL0     C47130   8.509   1.954   3.381 -0.7070  0.1419  0.5565
  358MOL0     C47131   8.451   1.845   3.315  0.1868 -1.9044 -0.5778
  358MOL0     O47132   8.317   1.840   3.316  0.6327 -0.6677  0.2661
  358MOL0     C47133   8.259   1.790   3.196  1.1570  0.0823 -0.1824
  358MOL0     C47134   8.130   1.863   3.166  0.1608  0.3021 -0.0657
  358MOL0     C47135   8.028   1.788   3.079 -0.9214 -0.1936 -0.6575
  358MOL0     C47136   7.995   1.647   3.127  0.1247 -0.9184 -0.8444
  358MOL0     C47137   7.874   1.578   3.082  1.3453  0.4004  0.6422
  358MOL0     C47138   7.858   1.576   2.926 -0.1472  0.0640 -0.6278
  358MOL0     C47139   7.728   1.532   2.870 -0.1761  0.6949  0.1577
  358MOL0     C47140   7.728   1.479   2.725  1.4682 -0.1972 -0.0434
  358MOL0     N47141   7.759   1.334   2.703  0.1317  0.1627 -0.4939
  358MOL0     C47142   7.870   1.291   2.632 -0.0475 -0.7936 -0.9498
  358MOL0     C47143   7.865   1.154   2.637  0.1044  0.5318  0.2645
  358MOL0     C47144   7.964   1.049   2.593 -0.4078  0.4340 -0.1697
  358MOL0     C47145   8.093   1.044   2.677 -0.2754  0.4900  0.3070
  358MOL0     C47146   8.083   1.035   2.833 -0.2515  0.4807  0.4106
  358MOL0     C47147   7.984   0.927   2.864  0.3374  1.0182 -0.0987
  358MOL0     O47148   7.997   0.887   2.998  0.5869 -0.1987  0.1304
  358MOL0     C47149   8.109   0.807   3.016  0.0010  0.4657  0.3045
  358MOL0     C47150   8.131   0.675   2.965  0.3518  0.3098 -0.3249
  358MOL0     C47151   8.245   0.599   2.990  0.3282  0.6415 -0.7531
  358MOL0     C47152   8.350   0.649   3.073 -0.4932 -0.1712  0.0312
  358MOL0     C47153   8.469   0.575   3.089  0.3947 -0.2282  0.4509
  358MOL0     O47154   8.562   0.619   3.183  0.6408 -0.1338  0.3568
  358MOL0     C47155   8.660   0.522   3.215 -0.2740 -0.1965 -0.7555
  358MOL0     C47156   8.778   0.502   3.154 -0.2084 -0.1999  0.4991
  358MOL0     C47157   8.881   0.412   3.190  0.0144  0.3951 -0.2219
  358MOL0     C47158   8.856   0.333   3.305  0.3540 -0.0195 -0.2941
  358MOL0     O47159   8.950   0.238   3.353  0.6844 -0.3160 -0.2349
  358MOL0     C47160   9.086   0.232   3.307 -0.6797  0.0062 -0.6605
  358MOL0     C47161   9.156   0.107   3.379  0.6944  0.0330 -0.1049
  358MOL0     C47162   9.107   0.098   3.521 -0.2579 -0.4899  1.1159
  358MOL0     C47163   9.181  -0.000   3.599  0.1182  0.0322 -0.5789
  358MOL0     C47164   9.117  -0.004   3.737  0.1441 -1.2202 -1.0432
  358MOL0     C47165   9.177  -0.110   3.823  0.2592 -0.6523 -0.2883
  358MOL0     C47166   9.095  -0.129   3.955  0.1861 -0.0996  0.0127
  358MOL0     C47167   9.131  -0.247   4.039  1.0809  0.8211 -1.0483
  358MOL0    Cl47168   9.073  -0.229   4.208  0.0039 -0.1103  0.4589
  358MOL0     C47169   8.731   0.356   3.373 -0.2548  0.2378  0.4492
  358MOL0     C47170   8.636   0.442   3.327  0.2748 -0.0914  0.3256
  358MOL0     O47171   8.482   0.473   3.020 -0.2504  0.8840  0.3121
  358MOL0     C47172   8.324   0.767   3.141 -0.2489  0.5249 -0.2156
  358MOL0     C47173   8.212   0.842   3.104 -0.4519  1.2193 -1.1548
  358MOL0     N47174   7.750   1.119   2.710 -0.3098  0.5843  0.0967
  358MOL0     N47175   7.680   1.229   2.735 -0.5586  0.4632  0.2563
  358MOL0     C47176   8.541   1.757   3.262 -1.2749 -0.3154  0.3942
  358MOL0     C47177   8.680   1.779   3.262 -0.3114 -0.2474 -0.2846
  358MOL0     C47178   9.084   1.969   3.402  0.3639  0.2429 -0.4155
  358MOL0     C47179   9.150   2.010   3.285 -0.2651 -0.0892 -0.7371
  358MOL0     C47180   9.284   2.050   3.292 -0.6288 -0.3056 -0.6005
  358MOL0     C47181   9.350   2.066   3.421 -0.7555 -0.3412 -0.4205
  358MOL0     O47182   9.484   2.107   3.433 -0.3840  0.7401  1.1360
  358MOL0     C47183   9.550   2.161   3.311  0.3716  0.6014  0.8102
  358MOL0     C47184   9.666   2.251   3.332  1.2379 -0.2647 -0.0531
  358MOL0     C47185   9.622   2.372   3.420  0.6751  0.3052  0.4131
  358MOL0     C47186   9.713   2.483   3.379  0.4663  0.0991  0.2692
  358MOL0     C47187   9.686   2.598   3.464  0.1443  0.2839  0.2532
  358MOL0     C47188   9.662   2.691   3.541 -0.7842  0.1641  0.2491
  358MOL0     C47189   9.281   2.029   3.533  0.3594  0.3541 -0.5079
  358MOL0     C47190   9.151   1.978   3.525 -0.3998  0.0274  0.1917
  358MOL0     H47191   8.682   2.080   3.417  2.0334 -2.4560  2.9838
  358MOL0     H47192   8.432   2.015   3.427 -1.0292  1.1535 -1.2569
  358MOL0     H47193   8.238   1.685   3.217 -0.8035  0.6762  1.0120
  358MOL0     H47194   8.329   1.804   3.113  1.3977  3.5962  0.4420
  358MOL0     H47195   8.153   1.958   3.116 -1.3095  0.6032 -0.2248
  358MOL0     H47196   8.088   1.887   3.264  0.6596 -1.7189  0.6958
  358MOL0     H47197   8.071   1.788   2.979  1.6417 -0.5036  0.3842
  358MOL0     H47198   7.938   1.852   3.079  0.0602  1.5964  4.0312
  358MOL0     H47199   8.084   1.587   3.108  1.0482 -0.2684  1.1371
  358MOL0     H47200   7.989   1.645   3.236  1.8608 -2.6377 -0.7408
  358MOL0     H47201   7.792   1.636   3.124  2.8719  2.4742  0.9256
  358MOL0     H47202   7.873   1.477   3.123 -2.2090  0.1085  0.1832
  358MOL0     H47203   7.941   1.517   2.887 -1.6133 -3.3776  1.0558
  358MOL0     H47204   7.875   1.676   2.885  2.9518 -1.0748 -2.4424
  358MOL0     H47205   7.689   1.462   2.945 -1.1123  1.5979  0.5532
  358MOL0     H47206   7.662   1.620   2.869 -0.7529  0.2703 -0.4988
  358MOL0     H47207   7.796   1.536   2.661 -1.5270  2.0227 -1.4864
  358MOL0     H47208   7.628   1.507   2.691  1.5015  1.9467  1.4569
  358MOL0     H47209   7.940   1.363   2.592 -2.2426  2.9141  1.2692
  358MOL0     H47210   8.000   1.090   2.498 -0.5637  2.6650  0.6552
  358MOL0     H47211   7.914   0.953   2.588 -1.2759  0.5230  3.7587
  358MOL0     H47212   8.141   1.140   2.652 -0.6944 -0.1281 -3.2608
  358MOL0     H47213   8.163   0.973   2.631 -2.5237 -0.3206 -2.0708
  358MOL0     H47214   8.180   0.989   2.856  1.1543  2.9391 -0.3335
  358MOL0     H47215   8.067   1.127   2.889  0.2957  0.9196 -0.1399
  358MOL0     H47216   7.999   0.847   2.790 -1.2802  2.3663 -1.9994
  358MOL0     H47217   7.877   0.948   2.851  0.7598  2.7248 -1.1035
  358MOL0     H47218   8.050   0.640   2.901  0.9718 -0.4938 -0.6951
  358MOL0     H47219   8.248   0.506   2.934 -0.3031  1.2254 -1.7900
  358MOL0     H47220   8.791   0.577   3.077 -2.5930  0.3920  0.6184
  358MOL0     H47221   8.977   0.402   3.141  0.7798 -2.9868  1.6184
  358MOL0     H47222   9.129   0.331   3.327 -2.3650  1.7909 -4.6203
  358MOL0     H47223   9.097   0.222   3.198  2.7190  1.2544 -0.5457
  358MOL0     H47224   9.261   0.137   3.380  1.1536 -1.5168  1.1111
  358MOL0     H47225   9.135   0.015   3.324  2.8013 -0.2225 -0.5560
  358MOL0     H47226   9.002   0.066   3.518 -1.8957  4.1690 -1.2290
  358MOL0     H47227   9.123   0.200   3.556 -0.1123  1.0930 -2.9770
  358MOL0     H47228   9.180  -0.102   3.559 -0.1263  0.0315 -0.5756
  358MOL0     H47229   9.286   0.032   3.600 -0.4699  2.3661  2.7384
  358MOL0     H47230   9.016  -0.044   3.725 -0.7096 -0.4750  2.5017
  358MOL0     H47231   9.125   0.099   3.775 -2.1838  0.4386 -4.5151
  358MOL0     H47232   9.281  -0.086   3.846  0.1276  0.6176 -0.9091
  358MOL0     H47233   9.184  -0.204   3.768  0.9026 -2.0107  1.9638
  358MOL0     H47234   9.107  -0.031   4.003 -1.2687  0.2993 -0.3831
  358MOL0     H47235   8.988  -0.140   3.932  0.3303 -2.8282  0.3494
  358MOL0     H47236   9.239  -0.263   4.029  1.3048  0.8260  0.9743
  358MOL0     H47237   9.091  -0.344   4.009 -0.2165  0.9170  0.2526
  358MOL0     H47238   8.706   0.299   3.462  0.8771  0.6199  1.0472
  358MOL0     H47239   8.538   0.446   3.374 -0.3109 -1.0490 -0.7593
  358MOL0     H47240   8.387   0.800   3.223  1.4405 -3.6308  0.4522
  358MOL0     H47241   8.200   0.941   3.145  2.2589  1.3122 -0.4389
  358MOL0     H47242   8.503   1.668   3.212 -3.7763 -0.2794  2.0357
  358MOL0     H47243   8.728   1.700   3.206  1.4024  1.5074 -1.4134
  358MOL0     H47244   9.094   2.013   3.192 -1.2239  2.0497 -0.1622
  358MOL0     H47245   9.337   2.064   3.198  1.1814 -2.1356  0.0754
  358MOL0     H47246   9.479   2.213   3.247  0.6102 -1.7151 -1.5332
  358MOL0     H47247   9.579   2.075   3.249  2.1741 -0.2447  2.7127
  358MOL0     H47248   9.745   2.193   3.382  2.3124  1.1445 -0.0503
  358MOL0     H47249   9.695   2.280   3.231  0.1982 -0.2902 -0.3676
  358MOL0     H47250   9.635   2.343   3.525 -3.2326 -3.5020  0.1558
  358MOL0     H47251   9.520   2.407   3.401  0.0651 -0.7390  1.5732
  358MOL0     H47252   9.816   2.452   3.403  0.0007 -0.9696  0.9591
  358MOL0     H47253   9.698   2.508   3.274 -0.0298 -1.9925 -0.2086
  358MOL0     H47254   9.638   2.770   3.610  0.3695  1.0773 -0.3639
  358MOL0     H47255   9.334   2.045   3.626  2.3953 -0.7761 -1.4071
  358MOL0     H47256   9.118   1.944   3.622  2.6342 -2.5968  0.4628
  359MOL0     O47257  10.053   5.089  10.195 -0.2753  0.0467 -0.0458
  359MOL0     C47258  10.059   5.084  10.320 -0.4719 -0.4518  0.4819
  359MOL0     O47259   9.966   5.036  10.409 -0.2868 -0.3598  0.2587
  359MOL0     C47260   9.851   4.988  10.355  0.3826  0.6266  0.0538
  359MOL0     C47261   9.833   4.855  10.344  0.0166  0.8694 -0.8552
  359MOL0     C47262   9.718   4.800  10.284  0.4834 -0.4997  0.1257
  359MOL0     C47263   9.617   4.886  10.248 -0.8726 -0.0616  0.0600
  359MOL0     O47264   9.498   4.843  10.192 -0.6442  0.0466 -0.4216
  359MOL0     C47265   9.511   4.763  10.075 -0.5710 -0.3704 -0.0322
  359MOL0     C47266   9.581   4.839   9.957  0.8164 -0.5985 -0.5644
  359MOL0     C47267   9.603   4.739   9.837  0.7643 -0.4244 -0.8725
  359MOL0     C47268   9.689   4.811   9.742 -0.3523 -0.0685  0.1860
  359MOL0     C47269   9.698   4.734   9.618 -0.3101  0.2066 -0.2927
  359MOL0     C47270   9.763   4.832   9.515  0.9389  0.5382  0.1246
  359MOL0     C47271   9.774   4.748   9.390 -1.1220  0.1021 -0.3510
  359MOL0     C47272   9.641   4.717   9.310 -1.0507  0.7798  0.1324
  359MOL0     N47273   9.666   4.627   9.192  0.7030  0.2437 -0.0707
  359MOL0     C47274   9.707   4.499   9.171  0.0511 -0.1681 -0.9375
  359MOL0     C47275   9.715   4.482   9.041  0.2007 -0.3332 -0.4603
  359MOL0     C47276   9.760   4.355   8.972  0.1966 -0.3019 -0.8752
  359MOL0     C47277   9.896   4.358   8.898  0.4545 -0.8601  0.7005
  359MOL0     C47278   9.895   4.464   8.783  0.3628  0.1089  0.3344
  359MOL0     C47279  10.014   4.466   8.683  0.0649  0.4333  0.6476
  359MOL0     O47280   9.983   4.551   8.567 -0.0036  0.6244 -0.4823
  359MOL0     C47281  10.087   4.580   8.482  0.8073 -0.3913  0.0731
  359MOL0     C47282  10.047   4.610   8.352  0.3182 -0.0491  0.8125
  359MOL0     C47283  10.149   4.632   8.255 -0.5325 -0.1798 -0.2793
  359MOL0     C47284  10.285   4.625   8.286  0.3390  0.3708 -0.2659
  359MOL0     C47285  10.391   4.652   8.180 -0.5877 -0.7473 -1.1046
  359MOL0     O47286  10.515   4.619   8.218  0.4842 -0.5816 -0.5324
  359MOL0     C47287  10.619   4.645   8.151 -0.5495 -0.3627 -0.4789
  359MOL0     C47288  10.731   4.663   8.236  0.0998 -0.4887 -0.3100
  359MOL0     C47289  10.848   4.675   8.178  0.1506  0.6194  0.3367
  359MOL0     C47290  10.871   4.669   8.040  0.1682  0.3938  0.3955
  359MOL0     O47291  10.991   4.672   7.981 -0.2140 -0.2836  0.2545
  359MOL0     C47292  11.104   4.669   8.064 -0.7891 -0.9082 -0.0545
  359MOL0     C47293  11.216   4.624   7.972  0.6948 -0.8765  0.6856
  359MOL0     C47294  11.340   4.578   8.053 -0.2210 -0.0906  0.0241
  359MOL0     C47295  11.452   4.676   8.045  0.3957  0.4907 -0.1374
  359MOL0     C47296  11.558   4.653   8.155 -0.0504 -0.0184  0.2452
  359MOL0     C47297  11.661   4.540   8.123 -0.2690 -0.0879  0.7233
  359MOL0     C47298  11.764   4.535   8.234 -0.3369 -0.4957 -0.0898
  359MOL0     C47299  11.886   4.465   8.174 -1.5681 -0.0477 -0.2630
  359MOL0    Cl47300  12.020   4.564   8.124 -0.0783 -0.0095 -0.2656
  359MOL0     C47301  10.756   4.643   7.965 -0.0491 -0.5450 -0.4792
  359MOL0     C47302  10.637   4.621   8.019  0.9952  0.5677  0.1674
  359MOL0     O47303  10.364   4.701   8.071 -0.0153  0.5628  0.1445
  359MOL0     C47304  10.319   4.582   8.417  1.6784  0.2472 -0.1866
  359MOL0     C47305  10.219   4.561   8.516 -0.0120  1.0361  0.2331
  359MOL0     N47306   9.672   4.590   8.972  0.0934  0.4489  0.9301
  359MOL0     N47307   9.640   4.670   9.064 -0.4207  0.2314 -0.8968
  359MOL0     C47308   9.638   5.025  10.259 -0.0360  0.4282  0.3515
  359MOL0     C47309   9.750   5.082  10.307 -0.8810  0.5819  0.7135
  359MOL0     C47310  10.191   5.144  10.374  0.4987 -0.6896 -0.2010
  359MOL0     C47311  10.222   5.140  10.510  0.6334 -0.4675 -0.3368
  359MOL0     C47312  10.330   5.220  10.559  0.7579 -0.0952 -1.0343
  359MOL0     C47313  10.415   5.301  10.472  0.8240  0.9962  0.1530
  359MOL0     O47314  10.517   5.383  10.515 -0.5395  0.2641  0.0965
  359MOL0     C47315  10.548   5.383  10.650  0.1595 -0.2823  0.2800
  359MOL0     C47316  10.684   5.440  10.676  0.1503 -0.1333 -0.6224
  359MOL0     C47317  10.803   5.338  10.662  0.0830  1.0538  0.1347
  359MOL0     C47318  10.798   5.277  10.516  0.2502  0.3052 -0.5317
  359MOL0     C47319  10.910   5.204  10.475  0.2204  0.0682 -0.0392
  359MOL0     C47320  10.991   5.123  10.431  0.0282 -0.5928 -0.2075
  359MOL0     C47321  10.370   5.303  10.336 -0.7672  0.8320 -0.6840
  359MOL0     C47322  10.265   5.226  10.293 -0.0438  0.3368 -0.6790
  359MOL0     H47323   9.903   4.785  10.386 -0.5351  2.6718  3.6045
  359MOL0     H47324   9.689   4.695  10.284  1.8819 -0.9089 -0.5029
  359MOL0     H47325   9.407   4.739  10.050 -0.5767 -1.3212  0.8321
  359MOL0     H47326   9.565   4.673  10.106  1.3139  0.2365 -1.3952
  359MOL0     H47327   9.683   4.866   9.987  1.5618 -1.4940 -2.1926
  359MOL0     H47328   9.531   4.931   9.927  0.0823 -0.7919  0.0267
  359MOL0     H47329   9.500   4.716   9.807  0.8335  0.5992 -1.9377
  359MOL0     H47330   9.650   4.645   9.869  1.7597 -0.6185 -2.7555
  359MOL0     H47331   9.647   4.909   9.721  0.3105  0.2086  0.1241
  359MOL0     H47332   9.791   4.812   9.783 -0.7400 -1.0784  1.2468
  359MOL0     H47333   9.601   4.700   9.580 -1.4484  2.3822  0.4835
  359MOL0     H47334   9.765   4.657   9.657  0.1183  2.4234  3.9727
  359MOL0     H47335   9.854   4.876   9.557  0.4451 -0.5148  2.4623
  359MOL0     H47336   9.701   4.919   9.491  0.9601  0.6374  0.4178
  359MOL0     H47337   9.842   4.810   9.330 -1.4795 -0.6576 -1.5936
  359MOL0     H47338   9.818   4.652   9.416 -1.9139  0.2274  1.6071
  359MOL0     H47339   9.612   4.813   9.267 -1.5765 -0.0815 -1.5245
  359MOL0     H47340   9.562   4.687   9.380 -0.4182  4.1028  2.4726
  359MOL0     H47341   9.717   4.430   9.254 -1.6613  0.1163 -0.4635
  359MOL0     H47342   9.677   4.317   8.911 -0.9508 -0.0946  0.5064
  359MOL0     H47343   9.769   4.276   9.047  0.7757  1.7483  1.3324
  359MOL0     H47344   9.920   4.260   8.857  1.4323 -1.3043  2.2339
  359MOL0     H47345   9.966   4.393   8.975  1.6439  3.0222 -1.8428
  359MOL0     H47346   9.801   4.456   8.728  0.9006 -1.0041 -0.4510
  359MOL0     H47347   9.898   4.565   8.824 -1.4103 -1.1839  4.1030
  359MOL0     H47348  10.035   4.364   8.650 -0.5363  0.0975  1.2733
  359MOL0     H47349  10.103   4.512   8.728  0.2416  1.5206 -0.7177
  359MOL0     H47350   9.941   4.626   8.335  1.1102  2.7454 -2.7710
  359MOL0     H47351  10.116   4.657   8.154 -0.0092  0.7180 -0.2388
  359MOL0     H47352  10.714   4.662   8.343 -1.8439 -2.8255 -0.5478
  359MOL0     H47353  10.932   4.691   8.244  1.8295 -1.8688 -1.0189
  359MOL0     H47354  11.083   4.598   8.145  1.4185  2.4773  3.8714
  359MOL0     H47355  11.122   4.766   8.111 -1.9526 -0.2329 -0.9496
  359MOL0     H47356  11.242   4.711   7.912 -0.2774  0.6357  2.3720
  359MOL0     H47357  11.179   4.546   7.904 -1.8299  3.1569 -3.1679
  359MOL0     H47358  11.383   4.489   8.006 -0.8856 -0.8684  0.8283
  359MOL0     H47359  11.318   4.548   8.156  0.7411 -1.8899 -0.2521
  359MOL0     H47360  11.501   4.678   7.948 -3.2566 -3.9795 -2.4590
  359MOL0     H47361  11.412   4.777   8.050  2.4774  1.6568 -3.7111
  359MOL0     H47362  11.500   4.633   8.246 -3.7172  0.3266 -1.8163
  359MOL0     H47363  11.604   4.751   8.170  2.3549 -0.9318 -0.7519
  359MOL0     H47364  11.706   4.565   8.026 -1.3052 -0.9507  0.0037
  359MOL0     H47365  11.617   4.441   8.112  1.2242 -0.6586 -0.4028
  359MOL0     H47366  11.805   4.629   8.272  2.4587 -2.0441  0.9920
  359MOL0     H47367  11.723   4.478   8.318 -0.2356  0.6104  0.7322
  359MOL0     H47368  11.851   4.411   8.086 -0.4238  0.1918 -0.8827
  359MOL0     H47369  11.931   4.402   8.252  0.2281  2.6329  1.0284
  359MOL0     H47370  10.776   4.622   7.860  0.6419  1.9261 -0.8944
  359MOL0     H47371  10.545   4.606   7.963 -1.3954  2.1557  3.3691
  359MOL0     H47372  10.421   4.565   8.448  1.0531 -3.3627  0.3896
  359MOL0     H47373  10.253   4.511   8.605 -1.3824 -1.1228 -0.3561
  359MOL0     H47374   9.555   5.091  10.238 -0.8021 -0.6292  0.0246
  359MOL0     H47375   9.750   5.189  10.321 -0.9156  0.4791  1.5413
  359MOL0     H47376  10.162   5.072  10.570  2.5748 -2.2031 -0.2416
  359MOL0     H47377  10.337   5.214  10.667  1.4310  0.1336 -1.0562
  359MOL0     H47378  10.541   5.278  10.683 -2.0593 -0.7566 -1.4813
  359MOL0     H47379  10.474   5.444  10.703 -0.3968  0.2646 -1.0986
  359MOL0     H47380  10.710   5.516  10.602  0.9829 -0.1495 -0.3546
  359MOL0     H47381  10.698   5.488  10.773  1.7538  1.9675 -1.8159
  359MOL0     H47382  10.793   5.260  10.737 -0.2336  1.2198  0.2662
  359MOL0     H47383  10.899   5.382  10.689  0.0138  0.8573  0.6970
  359MOL0     H47384  10.705   5.220  10.512 -0.4773  1.5238 -1.7630
  359MOL0     H47385  10.781   5.364  10.453 -0.9895  1.8851  1.8086
  359MOL0     H47386  11.073   5.061  10.402  1.3752  0.5970  0.8799
  359MOL0     H47387  10.419   5.357  10.257  2.9813 -0.4407  0.5823
  359MOL0     H47388  10.238   5.221  10.188  1.2156 -2.1076 -0.9584
  360MOL0     O47389   4.647   7.268   6.137  0.5495 -0.1502  0.3433
  360MOL0     C47390   4.741   7.297   6.062 -0.7849  0.3206  0.0433
  360MOL0     O47391   4.750   7.271   5.922  0.4195 -0.1579  0.2241
  360MOL0     C47392   4.653   7.207   5.857  0.1615  0.8124 -0.2777
  360MOL0     C47393   4.517   7.236   5.854  0.4265 -0.1280 -0.2545
  360MOL0     C47394   4.419   7.150   5.802 -0.0611 -0.5863  0.4264
  360MOL0     C47395   4.459   7.028   5.747  1.2225 -0.2274 -0.2467
  360MOL0     O47396   4.347   6.948   5.701 -0.1066 -0.5170 -0.2062
  360MOL0     C47397   4.382   6.876   5.582 -0.8797  0.1038 -0.1520
  360MOL0     C47398   4.257   6.834   5.510  0.2530 -1.1239  0.2030
  360MOL0     C47399   4.168   6.738   5.591  0.2978  0.3372  1.0183
  360MOL0     C47400   4.110   6.637   5.488 -0.7433 -0.4993 -0.5500
  360MOL0     C47401   4.040   6.510   5.549 -0.0384 -0.0559 -0.4256
  360MOL0     C47402   3.928   6.528   5.658 -0.4639 -0.8173 -0.6490
  360MOL0     C47403   3.879   6.394   5.722 -0.5695 -0.2165 -0.3359
  360MOL0     C47404   3.796   6.309   5.624  0.4138  0.7407  0.0609
  360MOL0     N47405   3.656   6.363   5.630  0.0828  0.5456  0.0464
  360MOL0     C47406   3.563   6.377   5.732 -0.2621 -0.6243  0.1146
  360MOL0     C47407   3.470   6.463   5.685  0.7472 -0.3527 -0.2625
  360MOL0     C47408   3.347   6.514   5.750  0.1705  0.7297 -0.6126
  360MOL0     C47409   3.222   6.445   5.686  0.2523 -0.7079 -0.3062
  360MOL0     C47410   3.086   6.504   5.715 -0.0983 -0.3294 -0.8363
  360MOL0     C47411   2.972   6.431   5.645 -0.1365  0.5094 -0.4199
  360MOL0     O47412   2.970   6.300   5.698 -0.4935  0.4657 -0.9537
  360MOL0     C47413   2.871   6.213   5.663  0.1847  0.2857 -0.0090
  360MOL0     C47414   2.884   6.076   5.704 -0.5356 -0.2117 -0.7949
  360MOL0     C47415   2.789   5.988   5.658 -1.0502 -1.5142  1.1382
  360MOL0     C47416   2.676   6.027   5.580 -0.0321 -0.4383  1.0830
  360MOL0     C47417   2.576   5.933   5.524 -0.2377 -0.4834 -1.0003
  360MOL0     O47418   2.456   5.985   5.497 -0.8129 -0.3207  0.3565
  360MOL0     C47419   2.367   5.910   5.419 -0.3266 -0.4286 -0.0960
  360MOL0     C47420   2.309   5.971   5.313  0.0390  0.8228  0.1874
  360MOL0     C47421   2.216   5.901   5.237  0.1887  1.1333  0.1481
  360MOL0     C47422   2.168   5.772   5.283  0.9979 -0.5881 -0.4937
  360MOL0     O47423   2.067   5.707   5.208 -0.3016  0.2581 -0.5653
  360MOL0     C47424   1.952   5.783   5.184 -0.0508 -0.1342  0.5293
  360MOL0     C47425   1.824   5.700   5.163  0.2235 -0.4714 -0.3806
  360MOL0     C47426   1.710   5.776   5.100 -0.0201 -0.7539 -0.2578
  360MOL0     C47427   1.720   5.802   4.945  0.3175 -0.5367 -0.3668
  360MOL0     C47428   1.587   5.819   4.873  0.6678 -0.1111  0.5158
  360MOL0     C47429   1.530   5.683   4.834  0.2335 -0.6023 -0.0806
  360MOL0     C47430   1.379   5.685   4.809 -0.1467 -0.2063 -0.7525
  360MOL0     C47431   1.334   5.779   4.702  1.0238 -0.1260  0.8344
  360MOL0    Cl47432   1.156   5.769   4.698 -0.1441 -0.1786 -0.3731
  360MOL0     C47433   2.202   5.727   5.412  0.1984  0.1912  0.0395
  360MOL0     C47434   2.311   5.794   5.475  0.3529 -1.1707  0.1191
  360MOL0     O47435   2.608   5.816   5.508  0.2674 -0.6525 -0.3217
  360MOL0     C47436   2.660   6.171   5.559 -0.2316  0.4338  0.6198
  360MOL0     C47437   2.770   6.255   5.579 -0.1770  0.3499 -0.4101
  360MOL0     N47438   3.491   6.478   5.549 -1.1575  0.5612 -0.1766
  360MOL0     N47439   3.603   6.426   5.521 -0.3116 -0.5714 -0.4358
  360MOL0     C47440   4.593   7.000   5.736 -0.1301 -0.6514  0.3064
  360MOL0     C47441   4.688   7.086   5.787 -0.2764  0.2537  0.2625
  360MOL0     C47442   4.872   7.345   6.126  0.1187  0.5136 -0.3019
  360MOL0     C47443   4.871   7.388   6.253 -0.3352 -0.0089  0.5432
  360MOL0     C47444   4.990   7.426   6.319 -0.4238 -0.9307 -0.1345
  360MOL0     C47445   5.113   7.427   6.253  0.1564  0.4192  0.1486
  360MOL0     O47446   5.218   7.481   6.319  0.4095  0.1247  0.3508
  360MOL0     C47447   5.343   7.492   6.257  0.5994 -0.2253 -0.0085
  360MOL0     C47448   5.446   7.509   6.367 -0.0364 -1.1062 -0.1050
  360MOL0     C47449   5.588   7.464   6.336 -0.0914  0.7459  0.7408
  360MOL0     C47450   5.688   7.535   6.428 -0.3237  1.1069 -0.5555
  360MOL0     C47451   5.681   7.472   6.567 -0.6445  0.1947  0.3689
  360MOL0     C47452   5.689   7.416   6.672  0.1497 -0.0584 -0.1952
  360MOL0     C47453   5.110   7.387   6.119 -0.5251 -0.3837 -0.1049
  360MOL0     C47454   4.993   7.343   6.056  0.7440 -0.3130 -0.0556
  360MOL0     H47455   4.485   7.327   5.904  0.7797 -0.3969  0.4769
  360MOL0     H47456   4.313   7.172   5.809 -0.1715 -0.8262 -0.3339
  360MOL0     H47457   4.444   6.788   5.601  0.2704  1.0300  0.5945
  360MOL0     H47458   4.441   6.947   5.523 -1.7348  1.7593  0.8986
  360MOL0     H47459   4.281   6.788   5.414 -0.6838  0.2539 -0.7337
  360MOL0     H47460   4.198   6.921   5.479 -1.2257 -2.2591 -0.3350
  360MOL0     H47461   4.101   6.781   5.666  2.1192 -2.4737  4.5362
  360MOL0     H47462   4.228   6.678   5.660  0.5549  0.1602  0.6429
  360MOL0     H47463   4.032   6.683   5.427 -0.2122 -0.3742 -1.1449
  360MOL0     H47464   4.193   6.611   5.422  1.5537  2.3801  0.9101
  360MOL0     H47465   4.111   6.432   5.579 -0.1844 -1.7517 -3.9116
  360MOL0     H47466   3.990   6.462   5.464 -1.0983  2.5381 -1.3633
  360MOL0     H47467   3.844   6.586   5.619 -0.0384  1.0792  1.0211
  360MOL0     H47468   3.971   6.594   5.735 -2.9832  0.9300 -0.6189
  360MOL0     H47469   3.966   6.333   5.750 -0.0747  0.6661  0.1090
  360MOL0     H47470   3.835   6.405   5.822  0.4721 -1.7359  0.3361
  360MOL0     H47471   3.791   6.202   5.645  1.5666  0.2633 -1.8338
  360MOL0     H47472   3.833   6.319   5.522  0.5009  4.9965  0.3264
  360MOL0     H47473   3.556   6.330   5.830  1.2187 -0.4115  0.3388
  360MOL0     H47474   3.344   6.622   5.731  0.1672  1.4425  2.8321
  360MOL0     H47475   3.341   6.496   5.857  0.5177 -0.8280 -0.8318
  360MOL0     H47476   3.216   6.349   5.737  2.0045  0.2342  1.8432
  360MOL0     H47477   3.241   6.437   5.579 -0.4928 -6.4785 -0.3096
  360MOL0     H47478   3.072   6.511   5.824  3.0868  0.3846 -0.3779
  360MOL0     H47479   3.081   6.609   5.685  0.1709 -0.6416 -1.9956
  360MOL0     H47480   2.987   6.423   5.537  0.3179  1.4118 -0.4313
  360MOL0     H47481   2.881   6.487   5.671  1.7665  2.4241  2.6857
  360MOL0     H47482   2.974   6.052   5.760 -0.2971 -0.1234 -1.1376
  360MOL0     H47483   2.791   5.879   5.660 -4.3698 -1.6732  0.5482
  360MOL0     H47484   2.350   6.063   5.274 -1.3048  2.6874  2.8908
  360MOL0     H47485   2.170   5.947   5.151 -2.3945 -1.0789  0.2098
  360MOL0     H47486   1.974   5.854   5.104  0.8503 -0.4940  0.4452
  360MOL0     H47487   1.945   5.841   5.277  0.7422  0.0493  0.4841
  360MOL0     H47488   1.789   5.646   5.251  1.6929 -0.5069  0.2085
  360MOL0     H47489   1.860   5.631   5.086  2.6314  1.1408 -0.8240
  360MOL0     H47490   1.691   5.866   5.159  1.7550 -1.9292  2.2751
  360MOL0     H47491   1.624   5.709   5.110  0.8737 -2.3038 -2.2490
  360MOL0     H47492   1.775   5.893   4.917 -0.7483 -0.1261 -1.2020
  360MOL0     H47493   1.773   5.716   4.901  0.3516 -0.9111  0.3906
  360MOL0     H47494   1.609   5.877   4.783  2.1442  0.5996  1.2987
  360MOL0     H47495   1.515   5.872   4.936 -0.9826 -4.0258  2.2773
  360MOL0     H47496   1.557   5.608   4.909  1.0846  1.3341  1.6541
  360MOL0     H47497   1.587   5.651   4.746  0.8333 -0.2668  0.1779
  360MOL0     H47498   1.352   5.581   4.788  1.6779 -0.7084 -0.7406
  360MOL0     H47499   1.323   5.709   4.900 -0.4959 -2.1160 -0.4241
  360MOL0     H47500   1.379   5.746   4.607  2.0676 -0.4092  1.4095
  360MOL0     H47501   1.361   5.880   4.731  0.8136  0.0582  0.4064
  360MOL0     H47502   2.159   5.640   5.461  0.6165  0.2985  0.6055
  360MOL0     H47503   2.349   5.759   5.571  0.6158  1.3206  1.0106
  360MOL0     H47504   2.567   6.200   5.510 -1.7979 -0.6918  2.7354
  360MOL0     H47505   2.771   6.359   5.548 -0.2071  0.5425  0.2374
  360MOL0     H47506   4.615   6.902   5.694 -0.4395 -0.9127  0.7366
  360MOL0     H47507   4.793   7.060   5.777  0.0588  0.3563  2.8266
  360MOL0     H47508   4.779   7.386   6.309  0.3870 -2.4972  1.7732
  360MOL0     H47509   4.994   7.464   6.420 -2.3248 -1.1079  0.0505
  360MOL0     H47510   5.353   7.578   6.190  0.1681 -0.1974 -0.0402
  360MOL0     H47511   5.379   7.399   6.213  1.2341 -1.0003  2.0514
  360MOL0     H47512   5.439   7.609   6.411  1.3478 -0.7359 -0.6995
  360MOL0     H47513   5.425   7.441   6.450  1.6083  0.3210  1.5766
  360MOL0     H47514   5.619   7.500   6.238 -0.5136  3.5923  1.5528
  360MOL0     H47515   5.605   7.356   6.335  3.5753  1.0144 -4.7496
  360MOL0     H47516   5.789   7.542   6.388  0.4904 -0.3169  1.0644
  360MOL0     H47517   5.672   7.643   6.436  2.5447  1.5792  0.2436
  360MOL0     H47518   5.707   7.374   6.769  0.6898 -0.7101 -0.5740
  360MOL0     H47519   5.203   7.394   6.063  0.4549  0.5675  1.5739
  360MOL0     H47520   5.014   7.310   5.955 -0.8186 -2.2629  0.2059
  361MOL0     O47521   6.818  10.557   5.278  0.0429 -0.0663 -0.1552
  361MOL0     C47522   6.882  10.552   5.384  0.2185 -0.8112 -0.1563
  361MOL0     O47523   6.858  10.491   5.504 -1.2055 -0.8887  0.2674
  361MOL0     C47524   6.752  10.417   5.510 -0.5258 -0.0604 -0.1676
  361MOL0     C47525   6.732  10.317   5.428  0.6856  0.5986 -0.0650
  361MOL0     C47526   6.621  10.218   5.441  1.3862  0.5410  0.4776
  361MOL0     C47527   6.531  10.242   5.544  0.6651  0.2418  1.1886
  361MOL0     O47528   6.439  10.144   5.561 -0.1548  0.5223  0.3893
  361MOL0     C47529   6.444  10.071   5.689 -0.6166  0.3241  0.1540
  361MOL0     C47530   6.337  10.113   5.778  0.1212 -0.6516 -0.9412
  361MOL0     C47531   6.365  10.037   5.910  0.3628 -0.0439 -0.1372
  361MOL0     C47532   6.271  10.096   6.021 -0.4824  1.1564  0.1638
  361MOL0     C47533   6.288  10.029   6.153 -0.2048 -0.0588 -0.3793
  361MOL0     C47534   6.202  10.101   6.269  0.0945 -0.6551  0.3984
  361MOL0     C47535   6.044  10.098   6.249  0.0971  0.1316 -0.2309
  361MOL0     C47536   5.971  10.089   6.378 -0.3535 -0.3530  0.8054
  361MOL0     N47537   5.975  10.210   6.464  0.1365  0.0055 -0.2644
  361MOL0     C47538   6.088  10.253   6.538  0.2054  0.4413 -0.6178
  361MOL0     C47539   6.068  10.389   6.540 -0.3654  0.1620  0.1715
  361MOL0     C47540   6.171  10.479   6.605 -0.5385 -0.0888 -0.2974
  361MOL0     C47541   6.102  10.626   6.621 -0.5412  0.9736 -0.1042
  361MOL0     C47542   6.177  10.700   6.738 -0.8250  0.1216 -0.4030
  361MOL0     C47543   6.312  10.752   6.708 -0.4482 -0.0492  0.3029
  361MOL0     O47544   6.400  10.635   6.688 -0.1355  0.0023  0.2151
  361MOL0     C47545   6.527  10.652   6.642 -0.0768  0.3644  0.3771
  361MOL0     C47546   6.604  10.541   6.623  0.2005  0.8262 -0.2730
  361MOL0     C47547   6.736  10.555   6.581  0.1270 -0.0461  0.2302
  361MOL0     C47548   6.794  10.675   6.536  0.4196 -0.1633 -0.3384
  361MOL0     C47549   6.925  10.663   6.473  0.8066 -1.0033 -0.4387
  361MOL0     O47550   7.009  10.776   6.493 -0.0149  0.6846  0.1546
  361MOL0     C47551   7.117  10.795   6.408  0.4949  0.4561 -1.0443
  361MOL0     C47552   7.254  10.778   6.444  0.0087  0.5361  0.2476
  361MOL0     C47553   7.350  10.802   6.343  0.2948  0.2152  0.6712
  361MOL0     C47554   7.317  10.849   6.215 -0.5286 -0.1266  0.0542
  361MOL0     O47555   7.417  10.875   6.123  0.0795 -0.1462 -0.0060
  361MOL0     C47556   7.407  10.990   6.037 -0.2988 -0.6330  0.4036
  361MOL0     C47557   7.554  11.018   5.994 -0.1438  0.8116  0.2625
  361MOL0     C47558   7.638  11.085   6.099  0.9496  0.3141  0.2024
  361MOL0     C47559   7.779  11.039   6.101  0.2960  0.6044  0.2303
  361MOL0     C47560   7.859  11.103   5.982 -1.1721  0.2097  0.2946
  361MOL0     C47561   8.006  11.049   5.965  0.7051  0.6049  0.2642
  361MOL0     C47562   8.075  11.118   5.841  0.5457  0.2547 -0.5280
  361MOL0     C47563   8.224  11.101   5.829 -0.6144 -0.1773 -0.0040
  361MOL0    Cl47564   8.264  11.174   5.666  0.0887  0.5873 -0.5501
  361MOL0     C47565   7.178  10.870   6.187 -0.6894  0.8540  0.3841
  361MOL0     C47566   7.082  10.854   6.282  0.4968  0.9913 -0.9919
  361MOL0     O47567   6.940  10.573   6.391 -0.9592 -0.0624 -0.1830
  361MOL0     C47568   6.719  10.791   6.554 -0.6872 -0.0104  0.0817
  361MOL0     C47569   6.587  10.780   6.603  0.6602  0.3533 -0.1253
  361MOL0     N47570   5.946  10.424   6.481 -0.3833 -0.5061 -1.0161
  361MOL0     N47571   5.896  10.322   6.433 -0.3693  0.6931 -0.6457
  361MOL0     C47572   6.544  10.349   5.630 -0.3367 -0.0688  0.6454
  361MOL0     C47573   6.663  10.434   5.617 -0.3144 -0.2149 -0.6443
  361MOL0     C47574   7.012  10.626   5.375  0.4685  0.2438 -0.0735
  361MOL0     C47575   7.008  10.737   5.281 -1.0086  0.3033 -0.8082
  361MOL0     C47576   7.118  10.821   5.268  0.1061 -0.7308  0.3099
  361MOL0     C47577   7.232  10.784   5.335  0.1825  0.8488 -0.7969
  361MOL0     O47578   7.340  10.863   5.315  0.3089  0.1108  0.1725
  361MOL0     C47579   7.470  10.806   5.310 -0.2431 -0.0606  0.0799
  361MOL0     C47580   7.493  10.732   5.176 -0.3810  0.3836  0.4019
  361MOL0     C47581   7.487  10.834   5.065  0.6799 -0.8011 -0.2939
  361MOL0     C47582   7.508  10.786   4.924  0.7708  0.6352 -0.2176
  361MOL0     C47583   7.649  10.748   4.887  0.0482 -0.8097 -0.1084
  361MOL0     C47584   7.768  10.716   4.868  0.2095 -0.4506  0.0158
  361MOL0     C47585   7.236  10.679   5.426  0.0310  0.6372  0.7046
  361MOL0     C47586   7.122  10.608   5.460  0.2912  1.0258  0.1889
  361MOL0     H47587   6.805  10.306   5.348  1.2559 -0.5198  0.5847
  361MOL0     H47588   6.600  10.128   5.384  0.4144  0.6995  0.5591
  361MOL0     H47589   6.538  10.097   5.738 -1.3070  0.1051  1.6360
  361MOL0     H47590   6.443   9.965   5.664 -2.7582  0.4227 -0.3633
  361MOL0     H47591   6.240  10.091   5.733  1.1130 -3.4671 -1.9255
  361MOL0     H47592   6.341  10.219   5.802 -1.7179 -0.7655  0.0822
  361MOL0     H47593   6.467  10.020   5.945  0.4373 -2.5982 -1.3999
  361MOL0     H47594   6.322   9.936   5.910 -0.8467  0.4457  0.5131
  361MOL0     H47595   6.296  10.202   6.032  2.4517  0.3223  3.5173
  361MOL0     H47596   6.168  10.088   5.986 -0.7193  0.8905  0.8913
  361MOL0     H47597   6.392  10.024   6.188 -0.6590  0.2998  1.1319
  361MOL0     H47598   6.263   9.923   6.158  0.5532 -0.1971  0.7849
  361MOL0     H47599   6.231  10.206   6.266 -2.3074  0.0671  0.4601
  361MOL0     H47600   6.236  10.053   6.361  0.0487  0.4207  0.9886
  361MOL0     H47601   6.014  10.182   6.186  0.2798  1.5652  1.5159
  361MOL0     H47602   6.018  10.006   6.196 -0.0081  1.2790 -2.2676
  361MOL0     H47603   6.006  10.006   6.440 -0.2781  0.3263  1.6971
  361MOL0     H47604   5.868  10.063   6.352 -0.4039 -0.2818  0.9309
  361MOL0     H47605   6.170  10.194   6.578 -0.6206 -0.0637  0.3788
  361MOL0     H47606   6.260  10.501   6.544 -1.1717  5.2954  0.2208
  361MOL0     H47607   6.209  10.437   6.698  2.7185  0.4607 -1.2420
  361MOL0     H47608   5.996  10.623   6.647 -0.4950  3.5211  0.5747
  361MOL0     H47609   6.119  10.684   6.530  2.3955 -0.3863 -0.5616
  361MOL0     H47610   6.115  10.790   6.735 -1.0564 -0.0578 -1.2227
  361MOL0     H47611   6.179  10.633   6.824  0.8550  0.6818  0.0285
  361MOL0     H47612   6.351  10.820   6.784  0.3422  2.1396 -1.9195
  361MOL0     H47613   6.306  10.804   6.612  0.9780 -1.0332 -0.3608
  361MOL0     H47614   6.554  10.448   6.644 -1.1892  1.7934  0.9000
  361MOL0     H47615   6.794  10.464   6.579  0.8235  0.4056 -0.4865
  361MOL0     H47616   7.288  10.757   6.544  3.1478 -0.8306 -0.9546
  361MOL0     H47617   7.455  10.799   6.368  0.0420  1.9459  2.2403
  361MOL0     H47618   7.372  11.078   6.092 -0.8821  0.5654 -1.7988
  361MOL0     H47619   7.337  10.964   5.957  0.2623  1.5720 -0.8731
  361MOL0     H47620   7.552  11.067   5.896 -2.7302  1.3951  0.5218
  361MOL0     H47621   7.596  10.919   5.976  3.9377  2.1447  1.4172
  361MOL0     H47622   7.598  11.052   6.195 -0.5270 -4.4998 -1.7760
  361MOL0     H47623   7.623  11.193   6.099 -2.3250  0.0168 -2.6221
  361MOL0     H47624   7.827  11.072   6.194 -0.4136 -2.2375  1.7170
  361MOL0     H47625   7.771  10.930   6.094 -0.6990  0.7627 -2.0236
  361MOL0     H47626   7.886  11.208   6.001 -0.1733 -0.2387  1.4853
  361MOL0     H47627   7.800  11.091   5.890 -1.7615  1.2704  0.5193
  361MOL0     H47628   7.998  10.944   5.937  1.5671  0.9578 -1.4587
  361MOL0     H47629   8.061  11.063   6.058 -0.4146 -1.6869  1.3548
  361MOL0     H47630   8.033  11.072   5.750 -0.4383  2.2418 -1.1207
  361MOL0     H47631   8.038  11.219   5.824 -2.0220 -0.7029 -1.0433
  361MOL0     H47632   8.256  10.997   5.817 -0.4015 -0.5167  2.8679
  361MOL0     H47633   8.279  11.153   5.908 -2.3859 -1.4446  2.1443
  361MOL0     H47634   7.152  10.921   6.096 -2.3583 -0.5232  0.0327
  361MOL0     H47635   6.977  10.878   6.269  1.0793  4.6855 -0.1639
  361MOL0     H47636   6.754  10.892   6.536 -1.0052  0.2028  0.6359
  361MOL0     H47637   6.522  10.867   6.611 -0.3334 -0.3955  0.2283
  361MOL0     H47638   6.473  10.376   5.708 -1.6431 -0.2966 -0.4389
  361MOL0     H47639   6.658  10.527   5.672 -1.9634 -1.8329  2.1271
  361MOL0     H47640   6.919  10.759   5.223 -0.3478  0.6460 -1.7201
  361MOL0     H47641   7.109  10.911   5.209 -0.8912 -0.1936  1.2527
  361MOL0     H47642   7.494  10.741   5.395 -2.3833 -0.0712  0.7198
  361MOL0     H47643   7.536  10.892   5.326 -0.6458 -0.0102  1.6338
  361MOL0     H47644   7.596  10.695   5.171  0.7516  3.1227  1.7105
  361MOL0     H47645   7.424  10.647   5.173 -1.2873  1.1173 -1.6361
  361MOL0     H47646   7.571  10.901   5.080 -0.2697  0.8421 -1.8654
  361MOL0     H47647   7.392  10.889   5.066  1.7222  1.1867 -2.1744
  361MOL0     H47648   7.450  10.694   4.913  4.9036 -2.1486 -1.0573
  361MOL0     H47649   7.480  10.867   4.855  0.3179  1.5370  0.9921
  361MOL0     H47650   7.868  10.707   4.830 -0.7000 -2.0412 -2.1945
  361MOL0     H47651   7.327  10.648   5.476  0.0364 -1.5449 -0.5662
  361MOL0     H47652   7.114  10.540   5.544 -0.6485  1.0745  0.1468
  362MOL0     O47653   1.009   4.851   7.190  0.2309  0.7800  0.2647
  362MOL0     C47654   1.040   4.733   7.158 -0.1362 -0.2425 -0.6029
  362MOL0     O47655   0.947   4.635   7.147 -0.4211  0.5997 -1.0413
  362MOL0     C47656   0.819   4.673   7.178 -0.8757 -0.1215 -0.2031
  362MOL0     C47657   0.741   4.709   7.067  0.8040 -0.3857 -0.0366
  362MOL0     C47658   0.609   4.752   7.088 -0.4478 -0.2415  0.1065
  362MOL0     C47659   0.550   4.749   7.214  0.4113  0.8026  0.1128
  362MOL0     O47660   0.423   4.763   7.242  0.4165  0.1866 -0.3199
  362MOL0     C47661   0.397   4.895   7.292 -0.3312  0.0799  0.2974
  362MOL0     C47662   0.248   4.909   7.277  0.6123  0.2737 -0.2575
  362MOL0     C47663   0.198   5.057   7.249 -0.1665  0.8914 -0.6874
  362MOL0     C47664   0.046   5.074   7.268 -0.0700  0.5125  0.1812
  362MOL0     C47665   0.012   5.224   7.254  0.1352  0.5227 -0.0380
  362MOL0     C47666  -0.131   5.241   7.214  0.6407 -1.1372  0.9400
  362MOL0     C47667  -0.236   5.197   7.320 -0.1020  0.0648 -0.5454
  362MOL0     C47668  -0.370   5.266   7.292 -1.0517  0.0029 -0.5460
  362MOL0     N47669  -0.438   5.208   7.175 -0.2157 -0.0171 -0.0342
  362MOL0     C47670  -0.461   5.079   7.142 -0.7440  0.0932 -0.8424
  362MOL0     C47671  -0.537   5.090   7.023 -0.1885 -0.0679  0.1765
  362MOL0     C47672  -0.593   4.983   6.931 -0.0879 -0.3706 -0.6762
  362MOL0     C47673  -0.497   4.861   6.922  0.8360  0.1186 -0.0487
  362MOL0     C47674  -0.547   4.756   6.828 -0.1326  1.4866  0.9868
  362MOL0     C47675  -0.439   4.642   6.803  0.7468 -1.2583  0.3913
  362MOL0     O47676  -0.314   4.692   6.763 -0.0983  0.3311  0.9977
  362MOL0     C47677  -0.210   4.603   6.738 -0.1123 -0.1781  0.2109
  362MOL0     C47678  -0.197   4.468   6.775  0.8922 -0.1093  0.6263
  362MOL0     C47679  -0.087   4.382   6.745  0.5903  0.0734 -0.1545
  362MOL0     C47680   0.021   4.436   6.684 -0.7159 -0.8156  0.6190
  362MOL0     C47681   0.145   4.356   6.656 -0.3712  0.3095  0.4194
  362MOL0     O47682   0.259   4.430   6.642  0.4901  0.5933  1.0762
  362MOL0     C47683   0.385   4.384   6.603 -0.1669 -0.5246 -0.0763
  362MOL0     C47684   0.460   4.285   6.673  0.2243  0.0072 -0.1434
  362MOL0     C47685   0.576   4.228   6.629 -0.4204 -0.0883  1.0398
  362MOL0     C47686   0.636   4.263   6.500  1.0006  0.1408  0.8725
  362MOL0     O47687   0.748   4.195   6.443 -0.3043 -0.1536 -0.4667
  362MOL0     C47688   0.759   4.058   6.483 -0.6846  0.3853 -0.1449
  362MOL0     C47689   0.870   3.996   6.402 -0.0950  0.2002  0.6756
  362MOL0     C47690   1.013   4.061   6.415  0.8724 -0.1509  0.3478
  362MOL0     C47691   1.110   3.959   6.349 -1.0592  0.0713  0.3428
  362MOL0     C47692   1.262   3.986   6.399  0.6447  1.0207  0.0145
  362MOL0     C47693   1.363   3.885   6.353  0.2611  0.2741 -0.4208
  362MOL0     C47694   1.501   3.893   6.434  0.2617 -0.4826 -0.0314
  362MOL0     C47695   1.593   4.009   6.392 -0.3127  0.4627 -0.7936
  362MOL0    Cl47696   1.608   3.997   6.211  0.3323  0.1166 -0.4959
  362MOL0     C47697   0.564   4.369   6.435  0.4887 -0.1075 -0.1461
  362MOL0     C47698   0.438   4.419   6.482 -1.0254  0.1245 -0.3841
  362MOL0     O47699   0.146   4.234   6.657  0.1667  0.0373 -0.1500
  362MOL0     C47700   0.017   4.574   6.652 -0.4627  0.9840 -0.7641
  362MOL0     C47701  -0.089   4.652   6.675 -0.2251 -0.0147  0.0531
  362MOL0     N47702  -0.544   5.224   6.989 -0.2674 -0.0928 -0.4386
  362MOL0     N47703  -0.492   5.297   7.089  0.2252  0.1907  0.1644
  362MOL0     C47704   0.629   4.719   7.323  0.5173 -1.0100  0.4053
  362MOL0     C47705   0.771   4.682   7.310  0.0480 -0.5168 -0.4295
  362MOL0     C47706   1.183   4.706   7.159 -0.1714 -0.5490  0.0103
  362MOL0     C47707   1.278   4.806   7.149  0.2673  0.1311  0.9884
  362MOL0     C47708   1.412   4.774   7.146  0.5137  0.6269  0.0077
  362MOL0     C47709   1.456   4.641   7.146 -0.4344 -0.7769 -0.0894
  362MOL0     O47710   1.584   4.628   7.138  1.1110  1.2856  0.0536
  362MOL0     C47711   1.647   4.510   7.193 -0.3072  0.5770 -0.3154
  362MOL0     C47712   1.795   4.542   7.222  0.0102 -0.7923 -0.5593
  362MOL0     C47713   1.878   4.561   7.093 -0.1149 -0.2439 -0.1512
  362MOL0     C47714   2.017   4.590   7.121  0.0356  0.0893  0.6549
  362MOL0     C47715   2.100   4.573   7.003 -0.0031  0.3013 -0.1178
  362MOL0     C47716   2.168   4.553   6.898  0.3780 -0.1162 -0.4703
  362MOL0     C47717   1.361   4.538   7.151 -0.5575  0.4112  0.0330
  362MOL0     C47718   1.223   4.572   7.165 -0.4685  0.3154 -0.1615
  362MOL0     H47719   0.776   4.699   6.965 -3.8450  1.6044 -2.1268
  362MOL0     H47720   0.531   4.774   7.015 -3.0453 -4.5970  1.2245
  362MOL0     H47721   0.446   4.985   7.253  0.4617 -0.5240 -0.1336
  362MOL0     H47722   0.417   4.906   7.399  1.4652  0.0747 -0.0069
  362MOL0     H47723   0.194   4.882   7.369 -0.8163  2.2210 -0.4586
  362MOL0     H47724   0.200   4.848   7.200 -3.6655  2.3303  0.4487
  362MOL0     H47725   0.224   5.080   7.146  1.1353 -0.2285 -0.6261
  362MOL0     H47726   0.262   5.126   7.306  2.5309 -0.7924 -1.5269
  362MOL0     H47727  -0.002   5.008   7.194 -0.9867  2.0824 -0.6647
  362MOL0     H47728   0.005   5.045   7.365 -0.3085  0.8172  0.1712
  362MOL0     H47729   0.083   5.278   7.189  1.6048  1.4348  2.1960
  362MOL0     H47730   0.023   5.271   7.352  1.7244 -1.4523  0.7898
  362MOL0     H47731  -0.147   5.185   7.121 -1.2876  1.2459 -0.2864
  362MOL0     H47732  -0.143   5.349   7.199 -2.7384 -1.2087  2.2243
  362MOL0     H47733  -0.251   5.089   7.313 -1.4620  0.2097  0.0013
  362MOL0     H47734  -0.210   5.238   7.418  1.1094  0.4816 -1.0153
  362MOL0     H47735  -0.347   5.373   7.287  1.7528 -0.3556  1.7740
  362MOL0     H47736  -0.436   5.257   7.379  1.0282 -1.1454  1.0270
  362MOL0     H47737  -0.449   4.989   7.201 -1.4824 -0.6864 -1.8402
  362MOL0     H47738  -0.612   5.030   6.835 -1.9889  2.2593  0.8527
  362MOL0     H47739  -0.693   4.948   6.960 -0.4060 -0.9138 -2.3492
  362MOL0     H47740  -0.485   4.830   7.026  0.1242 -0.0104  0.0034
  362MOL0     H47741  -0.401   4.893   6.881  0.4022 -2.9715 -4.0415
  362MOL0     H47742  -0.639   4.713   6.869  0.2087 -0.8771 -0.5660
  362MOL0     H47743  -0.575   4.801   6.732 -0.0862 -1.0447 -0.2965
  362MOL0     H47744  -0.478   4.575   6.726  0.0474  1.4436 -1.7757
  362MOL0     H47745  -0.425   4.593   6.900  0.1181 -0.9260  0.6550
  362MOL0     H47746  -0.274   4.414   6.829  3.4027 -2.8073  1.7437
  362MOL0     H47747  -0.079   4.279   6.779  0.2111  0.9089  2.7598
  362MOL0     H47748   0.415   4.235   6.759 -0.6665  1.1811  0.0910
  362MOL0     H47749   0.624   4.158   6.696  0.9688  1.9522  2.3041
  362MOL0     H47750   0.669   3.996   6.477  0.0385 -0.7825  0.6400
  362MOL0     H47751   0.784   4.041   6.588  3.1821 -1.8596 -1.1904
  362MOL0     H47752   0.853   3.984   6.294  1.5548 -0.5433  0.4666
  362MOL0     H47753   0.887   3.896   6.444  1.0379 -0.0883 -0.4101
  362MOL0     H47754   1.034   4.074   6.522 -0.9425 -1.3806  0.9055
  362MOL0     H47755   1.012   4.154   6.359  2.0903 -0.0860  0.4091
  362MOL0     H47756   1.086   3.860   6.389 -0.8117 -0.3812 -0.6036
  362MOL0     H47757   1.104   3.956   6.240  1.4799 -0.5557  0.1684
  362MOL0     H47758   1.259   3.987   6.508  0.1482  0.4265  0.0120
  362MOL0     H47759   1.293   4.089   6.377  0.4204  1.4198  1.4521
  362MOL0     H47760   1.382   3.882   6.245  0.1575  0.9552 -0.4633
  362MOL0     H47761   1.323   3.785   6.371  1.0923  0.3526  2.2590
  362MOL0     H47762   1.485   3.898   6.542 -0.5000 -0.7344 -0.1236
  362MOL0     H47763   1.547   3.796   6.410 -2.7855 -1.4420 -2.6811
  362MOL0     H47764   1.693   4.006   6.436 -1.4548 -0.8139  1.9386
  362MOL0     H47765   1.547   4.104   6.420 -1.3371 -0.7353  1.9409
  362MOL0     H47766   0.601   4.399   6.337  0.7395 -1.7230 -0.5870
  362MOL0     H47767   0.385   4.490   6.419  0.5534  0.0249 -1.9106
  362MOL0     H47768   0.096   4.623   6.597 -0.9376  1.5494 -0.9500
  362MOL0     H47769  -0.093   4.760   6.661 -0.5801  1.1648  6.2948
  362MOL0     H47770   0.595   4.721   7.426  0.3754  1.1919  0.3557
  362MOL0     H47771   0.838   4.676   7.396  3.5087  3.1207 -2.4972
  362MOL0     H47772   1.258   4.913   7.145 -0.2131 -0.0061 -1.2805
  362MOL0     H47773   1.480   4.859   7.153 -0.4552  1.3650  0.7091
  362MOL0     H47774   1.644   4.428   7.121 -2.0832 -1.0429  1.4713
  362MOL0     H47775   1.592   4.487   7.285  0.5970  1.2249  0.4042
  362MOL0     H47776   1.809   4.634   7.279  0.3772 -0.8520 -0.5504
  362MOL0     H47777   1.837   4.455   7.274  2.2456 -0.0821 -1.0392
  362MOL0     H47778   1.838   4.653   7.049 -0.0234  0.0007  0.2759
  362MOL0     H47779   1.865   4.479   7.022  0.1417 -1.3618  1.0691
  362MOL0     H47780   2.020   4.689   7.165  0.3230  0.8871 -1.0593
  362MOL0     H47781   2.057   4.534   7.207  1.6285 -2.4533 -1.5480
  362MOL0     H47782   2.229   4.531   6.813 -1.6487 -0.4517 -1.9007
  362MOL0     H47783   1.390   4.434   7.143  0.0008  0.5736 -0.1043
  362MOL0     H47784   1.149   4.493   7.173 -1.3662  0.7695 -2.8387
  363MOL0     O47785   4.258  10.013   1.915 -0.0359 -0.0463 -0.3930
  363MOL0     C47786   4.346  10.101   1.915 -0.6448  1.3502 -0.0687
  363MOL0     O47787   4.329  10.229   1.947 -0.3694 -0.2737 -0.3259
  363MOL0     C47788   4.200  10.270   1.950 -0.1781 -0.2443 -0.4941
  363MOL0     C47789   4.154  10.341   2.067  0.4153  0.8064 -0.3608
  363MOL0     C47790   4.033  10.410   2.063 -0.2412  0.3091 -0.3128
  363MOL0     C47791   3.943  10.389   1.953 -0.4297 -0.3467  1.5731
  363MOL0     O47792   3.817  10.448   1.962  0.1270 -0.3313 -0.3402
  363MOL0     C47793   3.713  10.424   1.877  0.5283 -0.0644  1.3112
  363MOL0     C47794   3.576  10.470   1.922  0.2535 -1.1531 -0.2751
  363MOL0     C47795   3.519  10.380   2.031 -0.3574  0.0153 -0.3109
  363MOL0     C47796   3.375  10.407   2.070  0.2459  0.0652  0.1262
  363MOL0     C47797   3.333  10.315   2.180  0.5230  0.3938 -0.7641
  363MOL0     C47798   3.194  10.356   2.231  0.8999  0.8465 -0.3157
  363MOL0     C47799   3.152  10.283   2.360  0.1882 -0.2644 -0.5951
  363MOL0     C47800   3.187  10.137   2.366 -0.2141 -0.9469  0.3796
  363MOL0     N47801   3.124  10.069   2.478 -0.0696  0.9657 -0.9060
  363MOL0     C47802   3.000  10.006   2.494 -0.2542  0.0905 -1.0628
  363MOL0     C47803   2.991   9.999   2.632 -0.1436 -0.6998 -0.9531
  363MOL0     C47804   2.882   9.937   2.712 -0.2054  0.4785  0.5041
  363MOL0     C47805   2.739   9.980   2.653 -0.0812 -0.1801 -0.7446
  363MOL0     C47806   2.624   9.961   2.749 -0.0508  0.1022 -0.1583
  363MOL0     C47807   2.499  10.021   2.712  0.2994  0.3957 -0.4940
  363MOL0     O47808   2.408  10.015   2.828  0.0934 -0.0067  1.6604
  363MOL0     C47809   2.272  10.032   2.797  0.2153 -1.0351 -0.4597
  363MOL0     C47810   2.238  10.087   2.672  0.9431 -0.0885  0.3907
  363MOL0     C47811   2.106  10.121   2.645  0.4006  0.3780  0.5546
  363MOL0     C47812   2.005  10.082   2.733  0.4016 -0.1972  1.0820
  363MOL0     C47813   1.861  10.100   2.693 -0.3440 -0.3664 -0.4563
  363MOL0     O47814   1.827  10.191   2.607  0.1157  0.2113  0.6995
  363MOL0     C47815   1.693  10.207   2.598 -0.6105 -1.0745 -0.1237
  363MOL0     C47816   1.623  10.169   2.493  0.1861  0.0835  0.1177
  363MOL0     C47817   1.486  10.205   2.466 -0.7815 -0.0159  1.3845
  363MOL0     C47818   1.429  10.299   2.556  0.8970  0.5102 -0.1317
  363MOL0     O47819   1.299  10.338   2.542 -0.4173 -0.3962 -0.4783
  363MOL0     C47820   1.200  10.254   2.480 -0.5872  0.3983 -1.0725
  363MOL0     C47821   1.065  10.319   2.472 -0.8321 -0.0311 -0.7801
  363MOL0     C47822   1.062  10.421   2.369 -0.2546 -0.2358  0.0557
  363MOL0     C47823   0.912  10.458   2.333  0.1304 -0.4068 -0.0525
  363MOL0     C47824   0.896  10.549   2.210 -0.4338 -0.5523 -0.0150
  363MOL0     C47825   0.796  10.503   2.104  0.8898 -0.2795 -0.3578
  363MOL0     C47826   0.783  10.587   1.982  0.2667 -0.1969  0.6148
  363MOL0     C47827   0.680  10.518   1.891 -0.8681 -0.3787  0.2177
  363MOL0    Cl47828   0.725  10.597   1.745  0.1453 -0.4128  0.2052
  363MOL0     C47829   1.499  10.338   2.673  0.2958  0.9023 -1.1627
  363MOL0     C47830   1.628  10.283   2.696  0.1026  0.2309 -0.1091
  363MOL0     O47831   1.787  10.039   2.770 -0.3009  0.7550  0.2729
  363MOL0     C47832   2.044  10.018   2.849  0.2884 -0.4012  0.0266
  363MOL0     C47833   2.174   9.991   2.877 -0.2718  0.4593 -0.7644
  363MOL0     N47834   3.109  10.047   2.696 -0.3370 -0.9477 -0.0051
  363MOL0     N47835   3.191  10.088   2.600 -0.1478 -0.6991 -0.1531
  363MOL0     C47836   3.983  10.309   1.839  0.2668 -0.5548  0.5977
  363MOL0     C47837   4.115  10.263   1.834  0.1809  0.3120  0.2022
  363MOL0     C47838   4.492  10.068   1.894 -0.8466  0.4266 -0.6794
  363MOL0     C47839   4.604  10.149   1.929 -0.0863  0.7358  0.1935
  363MOL0     C47840   4.735  10.106   1.890  0.4135 -0.8914 -0.6222
  363MOL0     C47841   4.758   9.998   1.823  0.4844  0.0688 -0.4421
  363MOL0     O47842   4.887   9.967   1.790  0.0208  0.6613 -0.3473
  363MOL0     C47843   4.997  10.063   1.794  0.4729  0.7193  0.5208
  363MOL0     C47844   5.115   9.980   1.739 -0.2796 -0.1008 -0.2455
  363MOL0     C47845   5.246  10.048   1.768 -0.7700  0.4014 -0.3963
  363MOL0     C47846   5.354   9.998   1.674 -0.4035 -0.3068 -1.1421
  363MOL0     C47847   5.321  10.038   1.537 -0.3861  0.6705  0.2432
  363MOL0     C47848   5.313  10.062   1.416 -0.6823 -0.1331 -0.9529
  363MOL0     C47849   4.651   9.908   1.786 -0.4465 -0.6032  0.1882
  363MOL0     C47850   4.525   9.953   1.814  0.6230 -0.8037 -0.4742
  363MOL0     H47851   4.211  10.339   2.159 -0.2983 -0.9375  0.0978
  363MOL0     H47852   4.007  10.470   2.150  1.3068 -2.6123  2.4248
  363MOL0     H47853   3.723  10.320   1.843  0.4596  0.3487 -0.0377
  363MOL0     H47854   3.738  10.484   1.789  0.7532  0.9458  2.0541
  363MOL0     H47855   3.514  10.475   1.833  3.6044  1.9954 -2.7073
  363MOL0     H47856   3.571  10.571   1.963  1.0389 -1.3788  0.4279
  363MOL0     H47857   3.584  10.395   2.118  0.8281  1.0606 -1.3329
  363MOL0     H47858   3.525  10.275   2.001 -0.0284  0.1268 -0.6395
  363MOL0     H47859   3.380  10.508   2.111 -0.7470 -0.4861  1.7059
  363MOL0     H47860   3.322  10.389   1.975  1.4714 -1.3163 -0.3358
  363MOL0     H47861   3.413  10.320   2.254 -1.8201  0.5922  1.9150
  363MOL0     H47862   3.324  10.214   2.140 -0.2272  0.5270 -0.9458
  363MOL0     H47863   3.129  10.333   2.146 -1.0591 -0.3095  1.3817
  363MOL0     H47864   3.178  10.463   2.248 -5.4935  0.1984  0.4128
  363MOL0     H47865   3.212  10.337   2.434  1.2177 -1.4477 -0.5538
  363MOL0     H47866   3.044  10.302   2.372  0.2580 -0.5388  0.5910
  363MOL0     H47867   3.294  10.118   2.356  0.1006  0.4190  0.8603
  363MOL0     H47868   3.150  10.098   2.271 -0.9299  3.7443 -1.5831
  363MOL0     H47869   2.930   9.962   2.424 -2.9399 -1.0817  2.0797
  363MOL0     H47870   2.899   9.968   2.815  3.5136  0.9580 -0.1163
  363MOL0     H47871   2.897   9.828   2.707  1.4439  0.7230 -0.5582
  363MOL0     H47872   2.724   9.923   2.561  0.5206  0.3510 -1.1781
  363MOL0     H47873   2.730  10.088   2.640  2.0914  0.7897  3.7530
  363MOL0     H47874   2.607   9.854   2.763  0.5727  0.2192  1.9608
  363MOL0     H47875   2.656  10.014   2.840 -0.1732  1.3667 -0.8234
  363MOL0     H47876   2.455   9.964   2.630  0.8969  1.9600 -1.9786
  363MOL0     H47877   2.499  10.129   2.690  1.4023  0.8909  1.6864
  363MOL0     H47878   2.299  10.129   2.593 -2.4209  0.4419 -2.1164
  363MOL0     H47879   2.079  10.150   2.544 -1.0682 -1.3262  0.3892
  363MOL0     H47880   1.675  10.100   2.427  0.4117  0.4950 -0.1331
  363MOL0     H47881   1.425  10.172   2.383 -2.9169  0.7382  2.5661
  363MOL0     H47882   1.180  10.170   2.548 -0.3569  3.0929  2.6286
  363MOL0     H47883   1.232  10.220   2.381  0.1250 -0.8582 -0.4521
  363MOL0     H47884   1.051  10.364   2.571  2.3401  1.0068 -0.6696
  363MOL0     H47885   0.982  10.250   2.458  1.0011 -1.6522 -5.7120
  363MOL0     H47886   1.108  10.384   2.277  2.3085  0.5605  0.9526
  363MOL0     H47887   1.116  10.506   2.412 -1.6588 -0.1947  1.8661
  363MOL0     H47888   0.855  10.366   2.317 -1.6354  1.2991 -6.9582
  363MOL0     H47889   0.866  10.509   2.419  0.0312 -0.6763  0.0552
  363MOL0     H47890   0.982  10.545   2.142 -0.8892  0.1533 -0.6432
  363MOL0     H47891   0.883  10.655   2.233 -2.0649  0.2078 -3.7013
  363MOL0     H47892   0.695  10.489   2.144 -0.0813  1.0474 -2.1904
  363MOL0     H47893   0.826  10.404   2.068  0.0299  0.4602 -3.4240
  363MOL0     H47894   0.750  10.689   2.006  0.5113 -0.6623  3.1628
  363MOL0     H47895   0.885  10.593   1.942 -0.2204 -0.1050 -0.6409
  363MOL0     H47896   0.578  10.537   1.926 -1.0523  1.3329 -1.1103
  363MOL0     H47897   0.713  10.414   1.882  4.4553  0.8349  1.8857
  363MOL0     H47898   1.451  10.408   2.741  0.0581  1.9431 -2.3512
  363MOL0     H47899   1.684  10.315   2.783  2.5975  3.4585 -2.6196
  363MOL0     H47900   1.979   9.969   2.921  0.9231  0.8578  1.5359
  363MOL0     H47901   2.200   9.944   2.971  0.6223  3.3812  0.5465
  363MOL0     H47902   3.914  10.292   1.757  0.0697 -0.4977  0.7526
  363MOL0     H47903   4.142  10.227   1.735 -0.2304 -1.3297  0.6670
  363MOL0     H47904   4.601  10.234   1.996 -0.1771  1.2333 -0.4353
  363MOL0     H47905   4.817  10.171   1.916  2.5261 -3.0424 -1.5353
  363MOL0     H47906   5.014  10.107   1.892 -0.0235  2.0419  0.0345
  363MOL0     H47907   4.971  10.143   1.723  1.3720  0.8974  0.3780
  363MOL0     H47908   5.113   9.876   1.775  1.9272  0.7323  2.7497
  363MOL0     H47909   5.105   9.973   1.630  6.7900  2.3757 -1.6169
  363MOL0     H47910   5.278  10.047   1.873 -1.4037  2.1749 -0.1540
  363MOL0     H47911   5.238  10.154   1.740  3.1326 -0.2691 -5.7406
  363MOL0     H47912   5.445  10.045   1.713 -1.4926  0.4644  0.5958
  363MOL0     H47913   5.368   9.890   1.687 -0.6708 -0.5492 -2.7057
  363MOL0     H47914   5.313  10.085   1.312 -0.6891 -0.4004 -1.0112
  363MOL0     H47915   4.666   9.814   1.733 -0.9339  0.2189 -1.4878
  363MOL0     H47916   4.447   9.894   1.766  1.6256 -2.1615 -0.4967
  364MOL0     O47917   8.909   1.389  10.327  0.7064 -0.1393  0.1351
  364MOL0     C47918   8.926   1.493  10.267 -0.2398  0.6853  0.5138
  364MOL0     O47919   8.847   1.609  10.275  0.4946  1.1525  0.1634
  364MOL0     C47920   8.736   1.618  10.353 -0.5729 -0.5789 -0.7900
  364MOL0     C47921   8.655   1.515  10.399 -1.0722 -0.4838  0.8668
  364MOL0     C47922   8.550   1.540  10.484  0.0025  0.2132 -0.3216
  364MOL0     C47923   8.526   1.673  10.531 -0.3211 -0.2444  0.3341
  364MOL0     O47924   8.414   1.690  10.612  0.2323 -0.5073  0.0527
  364MOL0     C47925   8.393   1.814  10.667  0.1690 -0.1875 -0.5762
  364MOL0     C47926   8.254   1.818  10.732 -0.7352  0.2510  0.3408
  364MOL0     C47927   8.133   1.806  10.642 -0.0374  0.6945 -0.0831
  364MOL0     C47928   8.000   1.772  10.711  0.0066 -0.9552  0.0528
  364MOL0     C47929   7.884   1.755  10.619 -0.3826  0.3955 -0.0111
  364MOL0     C47930   7.861   1.881  10.540  0.1370  0.6937 -0.1038
  364MOL0     C47931   7.720   1.887  10.478 -0.8389 -0.3251  0.1756
  364MOL0     C47932   7.689   2.013  10.398  0.4755 -0.6093  0.3038
  364MOL0     N47933   7.745   2.130  10.466 -0.1872 -0.9380 -0.7070
  364MOL0     C47934   7.700   2.171  10.592  0.8436 -0.2638  0.1143
  364MOL0     C47935   7.788   2.260  10.632 -0.3078 -0.0178  0.3170
  364MOL0     C47936   7.791   2.327  10.761  0.1130 -0.5970 -0.6506
  364MOL0     C47937   7.875   2.256  10.870  0.3779 -0.3487 -0.5419
  364MOL0     C47938   7.899   2.348  10.996 -0.0389 -0.1116  0.0317
  364MOL0     C47939   7.995   2.290  11.098  0.3103  0.5114  0.3767
  364MOL0     O47940   7.961   2.154  11.120 -0.0862  0.5270 -0.2883
  364MOL0     C47941   8.067   2.065  11.140  0.5008  0.2805 -0.0801
  364MOL0     C47942   8.033   1.931  11.125  0.3191  1.1256 -0.3742
  364MOL0     C47943   8.135   1.827  11.141  0.4399  0.7372 -0.1142
  364MOL0     C47944   8.268   1.860  11.153 -0.1952 -1.6309  0.3847
  364MOL0     C47945   8.368   1.754  11.172 -0.0694 -0.1409 -0.6616
  364MOL0     O47946   8.324   1.625  11.166 -0.3102 -0.0328  0.6247
  364MOL0     C47947   8.397   1.521  11.209  0.7627 -0.5760  0.8836
  364MOL0     C47948   8.518   1.499  11.153 -0.1141 -0.4263  0.3799
  364MOL0     C47949   8.595   1.397  11.210  0.1642  1.4146 -0.1143
  364MOL0     C47950   8.544   1.321  11.308  0.0921  1.4304 -0.2250
  364MOL0     O47951   8.621   1.226  11.367 -0.0971  0.0971  0.0295
  364MOL0     C47952   8.750   1.267  11.409 -0.3696 -0.4139 -0.8455
  364MOL0     C47953   8.791   1.180  11.533  0.0526  0.5326  0.5985
  364MOL0     C47954   8.927   1.223  11.590 -0.7136 -0.1701 -1.5792
  364MOL0     C47955   8.907   1.339  11.680 -0.0051 -0.1580 -0.1285
  364MOL0     C47956   9.019   1.379  11.777  0.0719  0.0252  0.5032
  364MOL0     C47957   9.146   1.403  11.706 -0.8976  0.2278 -0.8860
  364MOL0     C47958   9.244   1.425  11.821 -0.8451 -0.9850  1.0640
  364MOL0     C47959   9.384   1.430  11.764  0.6473 -0.3858 -0.0162
  364MOL0    Cl47960   9.405   1.536  11.625 -0.2176 -0.3091  0.1617
  364MOL0     C47961   8.417   1.339  11.356 -0.3406 -0.9827 -0.2919
  364MOL0     C47962   8.333   1.442  11.309 -0.9347 -0.2085  0.1844
  364MOL0     O47963   8.484   1.783  11.175 -0.7559 -0.3775 -0.4059
  364MOL0     C47964   8.300   1.997  11.178  0.3068 -0.4456 -0.4931
  364MOL0     C47965   8.196   2.095  11.163 -0.6523  0.4124 -0.1499
  364MOL0     N47966   7.886   2.285  10.537  0.3810  0.7531 -0.1198
  364MOL0     N47967   7.862   2.197  10.443  0.0733 -0.2762 -0.3205
  364MOL0     C47968   8.608   1.779  10.479  0.6049 -0.0867  0.3463
  364MOL0     C47969   8.711   1.750  10.394 -0.5936 -0.5269  0.7435
  364MOL0     C47970   9.030   1.491  10.169  0.3501 -0.0920 -1.1968
  364MOL0     C47971   9.045   1.603  10.079 -0.9871  0.1721  0.0574
  364MOL0     C47972   9.157   1.610  10.002  0.4857  0.2097  0.4709
  364MOL0     C47973   9.239   1.495   9.984  0.1628  0.0876  0.3756
  364MOL0     O47974   9.350   1.485   9.899 -0.2954  0.0548  0.5895
  364MOL0     C47975   9.383   1.605   9.829 -0.3766 -0.2926 -0.4081
  364MOL0     C47976   9.479   1.576   9.714 -0.5079 -0.3967 -0.4153
  364MOL0     C47977   9.622   1.531   9.759  0.1502 -0.3266  0.3083
  364MOL0     C47978   9.717   1.532   9.646  0.8136 -0.6129  0.4950
  364MOL0     C47979   9.834   1.447   9.668  0.6069 -1.0100 -0.2952
  364MOL0     C47980   9.921   1.379   9.713  0.4230  0.2999  0.1272
  364MOL0     C47981   9.216   1.388  10.068 -0.0857  0.1203  0.5057
  364MOL0     C47982   9.114   1.387  10.162  0.6207  0.7438 -0.4972
  364MOL0     H47983   8.660   1.410  10.370  0.3276 -0.2751  0.2821
  364MOL0     H47984   8.488   1.459  10.522  1.3401 -2.3102 -3.0739
  364MOL0     H47985   8.409   1.892  10.592 -1.3921  0.7249  0.0152
  364MOL0     H47986   8.465   1.824  10.750  0.3995 -1.0584 -0.6640
  364MOL0     H47987   8.246   1.912  10.787 -3.3078  1.4722 -1.8732
  364MOL0     H47988   8.271   1.736  10.802  3.4153 -1.1780 -1.9612
  364MOL0     H47989   8.150   1.728  10.568 -2.8986 -1.1046  0.9763
  364MOL0     H47990   8.131   1.900  10.586  0.6964 -0.2064 -1.6951
  364MOL0     H47991   8.021   1.672  10.750  0.4181 -1.0260 -0.3383
  364MOL0     H47992   7.971   1.836  10.795  2.2885  1.6208 -0.9621
  364MOL0     H47993   7.790   1.734  10.672 -1.2323 -1.6263 -2.1224
  364MOL0     H47994   7.898   1.671  10.550 -1.6007  1.0000 -1.0322
  364MOL0     H47995   7.934   1.888  10.459  3.1058 -0.0816  2.3388
  364MOL0     H47996   7.889   1.964  10.606  2.9219  0.9794 -1.5299
  364MOL0     H47997   7.705   1.795  10.422 -0.8206 -0.8705  1.0364
  364MOL0     H47998   7.651   1.879  10.563 -0.8074  2.1354  0.4993
  364MOL0     H47999   7.583   2.022  10.371  0.3544 -0.9116  0.6735
  364MOL0     H48000   7.741   2.012  10.302 -2.4611 -1.4233 -1.3794
  364MOL0     H48001   7.616   2.130  10.646  0.5020  3.1806  2.5480
  364MOL0     H48002   7.692   2.349  10.801  0.2026  4.0128 -2.4267
  364MOL0     H48003   7.849   2.417  10.740  3.7018 -2.9673 -2.0991
  364MOL0     H48004   7.978   2.256  10.833  0.8197  1.9821  0.5546
  364MOL0     H48005   7.842   2.155  10.896 -0.7544  0.3829  0.9910
  364MOL0     H48006   7.933   2.446  10.963  1.3388 -0.5370  0.1234
  364MOL0     H48007   7.807   2.374  11.049  2.1510  0.7475  3.7552
  364MOL0     H48008   7.993   2.354  11.187 -0.0777 -1.4768  1.8467
  364MOL0     H48009   8.094   2.295  11.051  2.0206 -1.6198  3.4430
  364MOL0     H48010   7.931   1.897  11.113  0.6977  0.5985 -2.7127
  364MOL0     H48011   8.098   1.725  11.136  3.6997 -0.5804  0.6294
  364MOL0     H48012   8.550   1.562  11.071 -0.1366  2.2002  2.2660
  364MOL0     H48013   8.698   1.385  11.177  0.6499  4.5695 -0.1123
  364MOL0     H48014   8.741   1.375  11.418  1.9368 -0.2084 -0.4067
  364MOL0     H48015   8.821   1.248  11.328  1.9369 -1.0080  1.1710
  364MOL0     H48016   8.793   1.079  11.490  1.6020  0.2727  1.2319
  364MOL0     H48017   8.711   1.186  11.607  0.2613  1.1660  0.7739
  364MOL0     H48018   9.002   1.240  11.514 -2.2129 -1.6997 -3.5158
  364MOL0     H48019   8.951   1.138  11.656  2.3561  1.2352 -0.7313
  364MOL0     H48020   8.865   1.422  11.622 -2.1645 -1.4777 -0.5714
  364MOL0     H48021   8.826   1.316  11.750  0.1251  3.5162  1.4960
  364MOL0     H48022   9.023   1.296  11.847 -4.1881  0.2303  1.2484
  364MOL0     H48023   8.977   1.462  11.834  0.9218 -0.4578  1.8761
  364MOL0     H48024   9.147   1.489  11.638  0.5078  0.9446 -0.0113
  364MOL0     H48025   9.183   1.310  11.662 -1.9621 -1.7769  2.1083
  364MOL0     H48026   9.224   1.521  11.869  0.9031 -0.3256  0.5601
  364MOL0     H48027   9.228   1.346  11.895 -1.2652 -0.6911  1.2874
  364MOL0     H48028   9.411   1.329  11.734  1.4027 -0.3495  0.5101
  364MOL0     H48029   9.456   1.460  11.841 -0.7496  2.3358  0.3663
  364MOL0     H48030   8.390   1.290  11.449 -1.3843 -3.7790 -1.9377
  364MOL0     H48031   8.233   1.470  11.340 -0.9828  1.0151 -0.9947
  364MOL0     H48032   8.404   2.019  11.203 -0.2121  0.8823  0.6125
  364MOL0     H48033   8.215   2.201  11.176 -2.6486  0.6314  1.7126
  364MOL0     H48034   8.601   1.882  10.513 -1.7870 -1.1000  3.4509
  364MOL0     H48035   8.772   1.834  10.363  1.4269 -0.3041  4.6463
  364MOL0     H48036   8.983   1.692  10.081  3.2376  3.4114  1.1916
  364MOL0     H48037   9.165   1.701   9.943  2.5177 -0.2220 -0.0130
  364MOL0     H48038   9.422   1.682   9.897 -3.1590 -1.1342  2.4139
  364MOL0     H48039   9.291   1.652   9.791 -0.3343 -0.0071 -0.1605
  364MOL0     H48040   9.448   1.490   9.655  0.4431 -1.0525  0.0171
  364MOL0     H48041   9.476   1.667   9.652 -2.6901 -0.5986 -0.6987
  364MOL0     H48042   9.616   1.429   9.797 -1.5542 -0.7147 -0.9354
  364MOL0     H48043   9.670   1.596   9.833  0.8531 -0.4813  0.0030
  364MOL0     H48044   9.672   1.480   9.560  0.5975 -0.8555  0.7552
  364MOL0     H48045   9.749   1.635   9.625  1.8743 -1.1837 -0.8495
  364MOL0     H48046   9.993   1.316   9.761  0.9554  0.4418 -0.4703
  364MOL0     H48047   9.285   1.308  10.044 -1.3345 -0.8023 -0.1287
  364MOL0     H48048   9.102   1.301  10.227 -0.9764  2.3925  1.5421
  365MOL0     O48049   1.311   5.629   0.538  0.0388  0.1779 -0.0277
  365MOL0     C48050   1.361   5.738   0.509  0.3348 -0.3795  0.4287
  365MOL0     O48051   1.294   5.850   0.466  0.3576  0.1451 -0.4310
  365MOL0     C48052   1.151   5.864   0.482  0.0811  0.7312 -0.0385
  365MOL0     C48053   1.074   5.757   0.428 -0.4766  0.4204  0.7438
  365MOL0     C48054   0.935   5.766   0.415 -0.7907 -0.1540 -0.3949
  365MOL0     C48055   0.871   5.884   0.460  0.9151  0.9490 -0.9929
  365MOL0     O48056   0.734   5.894   0.453 -0.2141 -0.0037 -0.1967
  365MOL0     C48057   0.656   5.936   0.568  0.0484 -0.2989 -0.2799
  365MOL0     C48058   0.515   5.892   0.558  0.4008  0.3679 -0.0268
  365MOL0     C48059   0.454   5.942   0.429 -0.0323 -0.3939  0.4804
  365MOL0     C48060   0.304   5.901   0.433 -0.1038  0.9458  0.9187
  365MOL0     C48061   0.224   5.969   0.319  1.0960  0.1990  0.8125
  365MOL0     C48062   0.084   5.903   0.291  0.1754  0.1032  0.6622
  365MOL0     C48063   0.006   5.976   0.176 -0.0154 -0.9194 -0.3043
  365MOL0     C48064   0.067   5.969   0.038  0.1486 -0.4107 -0.1969
  365MOL0     N48065  -0.012   6.049  -0.063  0.6606 -0.2328  0.3323
  365MOL0     C48066  -0.148   6.031  -0.085  1.0667  0.0913  0.7108
  365MOL0     C48067  -0.187   6.115  -0.183 -0.5151 -0.5715  0.0049
  365MOL0     C48068  -0.317   6.164  -0.238  0.4659 -0.8972 -0.1396
  365MOL0     C48069  -0.395   6.239  -0.128 -0.3024 -0.4231 -0.1143
  365MOL0     C48070  -0.541   6.201  -0.144  0.3838  0.0200  0.8850
  365MOL0     C48071  -0.620   6.285  -0.046 -0.1849  1.1318 -0.9471
  365MOL0     O48072  -0.749   6.217  -0.009 -0.1915  0.1738  0.5170
  365MOL0     C48073  -0.858   6.251  -0.084  0.3086  0.8615  0.0019
  365MOL0     C48074  -0.863   6.340  -0.193  0.0687  0.1476  0.0377
  365MOL0     C48075  -0.987   6.376  -0.254  0.5605  0.3229 -0.3996
  365MOL0     C48076  -1.105   6.322  -0.202  0.6973  0.2229 -0.0074
  365MOL0     C48077  -1.238   6.362  -0.263 -0.1282  0.3861 -0.1380
  365MOL0     O48078  -1.365   6.308  -0.217  0.0217 -0.4279  0.1219
  365MOL0     C48079  -1.489   6.354  -0.280 -0.5705 -0.2167  0.1936
  365MOL0     C48080  -1.503   6.370  -0.412 -0.5113 -0.5907  0.4644
  365MOL0     C48081  -1.619   6.436  -0.461  0.3821  0.8681 -0.5524
  365MOL0     C48082  -1.726   6.468  -0.378  0.3691  0.4950 -0.8049
  365MOL0     O48083  -1.834   6.525  -0.432 -0.2975 -0.3488  0.6696
  365MOL0     C48084  -1.953   6.543  -0.361  0.1674  0.5323 -0.0207
  365MOL0     C48085  -2.049   6.639  -0.439 -0.3126  0.3737  0.1290
  365MOL0     C48086  -2.162   6.704  -0.352  1.4520  0.0503  0.1371
  365MOL0     C48087  -2.293   6.622  -0.318  0.7190  0.4474  0.3971
  365MOL0     C48088  -2.261   6.486  -0.250  0.7819 -0.0942  0.6738
  365MOL0     C48089  -2.190   6.517  -0.113  0.3881 -0.2684  0.3725
  365MOL0     C48090  -2.202   6.400  -0.021 -0.0284  0.4057  0.5078
  365MOL0     C48091  -2.159   6.411   0.122 -1.0580  0.6584 -0.0171
  365MOL0    Cl48092  -1.970   6.447   0.125 -0.2229 -0.0101  0.0285
  365MOL0     C48093  -1.716   6.423  -0.246  0.7671 -0.6244 -0.8190
  365MOL0     C48094  -1.597   6.376  -0.198 -0.1488  0.8579 -0.2182
  365MOL0     O48095  -1.219   6.431  -0.362 -0.5918  0.6439  0.2049
  365MOL0     C48096  -1.103   6.228  -0.106 -0.4394  0.1859 -0.0616
  365MOL0     C48097  -0.976   6.198  -0.047 -0.8959  1.4704  0.7345
  365MOL0     N48098  -0.077   6.178  -0.225  0.2442 -0.3277  0.0836
  365MOL0     N48099   0.028   6.143  -0.152 -0.2666 -0.1102  0.6655
  365MOL0     C48100   0.953   5.983   0.520 -0.4307 -0.3664 -0.3947
  365MOL0     C48101   1.090   5.976   0.531 -0.3652  0.7846  0.0977
  365MOL0     C48102   1.499   5.732   0.478 -0.1684  0.4573 -0.6722
  365MOL0     C48103   1.569   5.607   0.487  0.4654  0.2709  0.2195
  365MOL0     C48104   1.701   5.611   0.456  0.2181  0.8202  0.0700
  365MOL0     C48105   1.771   5.734   0.439  0.0003 -0.0901 -0.1821
  365MOL0     O48106   1.908   5.748   0.426  0.3465  0.0141  0.3233
  365MOL0     C48107   1.990   5.634   0.397  0.1009 -0.1978  0.6559
  365MOL0     C48108   2.143   5.658   0.389 -0.0745  0.8892  0.2201
  365MOL0     C48109   2.191   5.760   0.288  0.0264 -0.3992 -0.5668
  365MOL0     C48110   2.346   5.755   0.282 -0.5875 -0.1709  0.0285
  365MOL0     C48111   2.390   5.852   0.175  0.2473  0.1635  0.5425
  365MOL0     C48112   2.405   5.930   0.082 -0.4149 -0.0689 -0.3401
  365MOL0     C48113   1.703   5.856   0.436 -0.5596 -0.3940 -0.2350
  365MOL0     C48114   1.569   5.851   0.447  0.8742  0.6446  0.4600
  365MOL0     H48115   1.119   5.665   0.392  0.9746  1.4411 -0.1739
  365MOL0     H48116   0.879   5.691   0.359  0.0003 -0.6873 -0.4933
  365MOL0     H48117   0.662   6.046   0.567 -1.0882 -0.2144  0.2071
  365MOL0     H48118   0.693   5.896   0.663 -0.6402 -1.2074 -0.3773
  365MOL0     H48119   0.458   5.924   0.646 -0.3555 -4.1227  1.3747
  365MOL0     H48120   0.515   5.783   0.560 -1.0398  0.2904 -1.8408
  365MOL0     H48121   0.506   5.893   0.347  2.1473  0.3459  1.3666
  365MOL0     H48122   0.462   6.051   0.421 -2.1603 -0.2409 -0.2833
  365MOL0     H48123   0.306   5.794   0.411  2.2419  1.1669 -0.1943
  365MOL0     H48124   0.250   5.922   0.526 -1.9078  2.6370 -0.4318
  365MOL0     H48125   0.279   5.953   0.225 -1.5612  3.5238 -1.5798
  365MOL0     H48126   0.202   6.073   0.342  3.1396  0.6241  1.0720
  365MOL0     H48127   0.032   5.899   0.387  4.8906 -2.0185  3.4587
  365MOL0     H48128   0.087   5.795   0.274 -0.8463 -0.2422  2.4250
  365MOL0     H48129  -0.096   5.939   0.173  0.9117 -3.9952  1.3860
  365MOL0     H48130  -0.009   6.082   0.200  0.8297 -0.6874 -0.7297
  365MOL0     H48131   0.072   5.865   0.004  0.0957 -0.8848  1.1976
  365MOL0     H48132   0.172   5.995   0.051  0.4627 -0.3225 -2.5164
  365MOL0     H48133  -0.211   5.961  -0.030  0.4843 -0.6463 -0.8363
  365MOL0     H48134  -0.379   6.085  -0.281  0.0875 -0.3580 -0.5857
  365MOL0     H48135  -0.291   6.234  -0.318 -0.4328  1.3343  1.4281
  365MOL0     H48136  -0.376   6.346  -0.140  2.3228 -0.6419  1.3139
  365MOL0     H48137  -0.352   6.208  -0.032  0.4832  0.5052 -0.1477
  365MOL0     H48138  -0.579   6.212  -0.247  1.1745 -2.8360  0.2093
  365MOL0     H48139  -0.554   6.096  -0.117  2.8121 -0.4226  0.5265
  365MOL0     H48140  -0.637   6.392  -0.062 -0.3240  1.2024 -0.3374
  365MOL0     H48141  -0.569   6.292   0.051 -0.3932  1.2272 -0.8423
  365MOL0     H48142  -0.770   6.390  -0.220 -0.5399  2.4424  1.8388
  365MOL0     H48143  -0.996   6.453  -0.330 -2.0106 -1.5487 -2.1722
  365MOL0     H48144  -1.419   6.361  -0.480  0.4149  1.4433  1.2487
  365MOL0     H48145  -1.610   6.458  -0.567  1.3779  1.9155 -0.2769
  365MOL0     H48146  -1.928   6.572  -0.259 -1.4909  1.0002  0.2912
  365MOL0     H48147  -2.006   6.447  -0.358 -2.0226  1.6242 -1.1984
  365MOL0     H48148  -2.084   6.581  -0.525  3.3484 -0.7680 -0.8057
  365MOL0     H48149  -1.987   6.719  -0.482 -0.3621 -1.3387 -3.5214
  365MOL0     H48150  -2.197   6.797  -0.400 -0.4153 -2.3723 -3.6915
  365MOL0     H48151  -2.112   6.731  -0.259  1.6133 -0.5644  0.2276
  365MOL0     H48152  -2.366   6.685  -0.267 -0.8255 -1.2010  0.3123
  365MOL0     H48153  -2.336   6.605  -0.417 -0.5659  1.8150  0.6904
  365MOL0     H48154  -2.207   6.425  -0.323  0.5407 -1.1028  1.3308
  365MOL0     H48155  -2.357   6.437  -0.235  0.1289  1.1615  0.7174
  365MOL0     H48156  -2.246   6.595  -0.061 -3.4971 -2.8997  0.5648
  365MOL0     H48157  -2.082   6.535  -0.117  0.1733  0.8696 -1.9503
  365MOL0     H48158  -2.302   6.356  -0.025  0.5392 -1.1308  1.9942
  365MOL0     H48159  -2.144   6.316  -0.059 -4.8140 -1.5201 -3.5313
  365MOL0     H48160  -2.179   6.316   0.173 -1.4219  1.0371  0.5559
  365MOL0     H48161  -2.215   6.490   0.172 -3.3112 -0.2336 -1.0134
  365MOL0     H48162  -1.800   6.412  -0.177  0.3788 -2.2236 -1.5011
  365MOL0     H48163  -1.605   6.343  -0.095  0.7411  1.3890  0.0274
  365MOL0     H48164  -1.192   6.176  -0.071  1.2112 -2.3542  0.6723
  365MOL0     H48165  -0.965   6.132   0.039 -1.1660 -0.9309 -0.9769
  365MOL0     H48166   0.903   6.068   0.566 -0.3689 -0.1998 -0.6332
  365MOL0     H48167   1.151   6.050   0.581  0.3958 -0.8868  1.7632
  365MOL0     H48168   1.530   5.511   0.518 -0.0689  0.8583  1.4226
  365MOL0     H48169   1.764   5.523   0.466 -0.4114  0.3395 -0.1347
  365MOL0     H48170   1.952   5.587   0.305 -0.9209  2.3283 -0.2820
  365MOL0     H48171   1.988   5.556   0.475  4.5603 -1.1653  0.0932
  365MOL0     H48172   2.180   5.689   0.487 -0.0696 -2.3156  1.3527
  365MOL0     H48173   2.178   5.556   0.371 -1.8808  0.1512  0.6652
  365MOL0     H48174   2.158   5.857   0.326 -0.4514 -0.6031 -0.4542
  365MOL0     H48175   2.144   5.743   0.190  1.1997 -3.2581 -0.7278
  365MOL0     H48176   2.391   5.796   0.373  0.2745  0.3807 -0.6322
  365MOL0     H48177   2.391   5.657   0.262  2.4759  1.2961 -0.9766
  365MOL0     H48178   2.407   6.011   0.013 -2.4699  0.0938 -0.2489
  365MOL0     H48179   1.750   5.952   0.419  1.3843 -0.5756  3.1306
  365MOL0     H48180   1.526   5.949   0.431 -0.1900  0.3480  1.3800
  366MOL0     O48181   7.086   3.868   5.213 -0.4219 -0.0505 -0.2042
  366MOL0     C48182   7.095   3.780   5.132 -0.2841  0.3321  0.5514
  366MOL0     O48183   6.998   3.720   5.062  0.1616  0.1509 -0.2133
  366MOL0     C48184   6.871   3.760   5.082  0.1116  0.0080  0.3166
  366MOL0     C48185   6.785   3.774   4.967 -0.1588 -0.6886  0.5045
  366MOL0     C48186   6.653   3.822   4.989  0.3312 -0.8789  0.2163
  366MOL0     C48187   6.601   3.826   5.122  0.0386 -0.7441 -0.1170
  366MOL0     O48188   6.469   3.869   5.143 -0.5625 -0.4002 -0.3250
  366MOL0     C48189   6.403   3.829   5.260 -0.2528  0.3475  0.5890
  366MOL0     C48190   6.258   3.850   5.219 -0.2844  0.5527 -0.7090
  366MOL0     C48191   6.166   3.845   5.346 -0.1832 -0.7520 -0.5409
  366MOL0     C48192   6.017   3.836   5.311 -0.0917  1.2609  0.0974
  366MOL0     C48193   5.944   3.868   5.448 -0.3430  0.0402  0.4557
  366MOL0     C48194   5.798   3.893   5.431  1.0529 -0.4341  0.5561
  366MOL0     C48195   5.734   3.929   5.558  0.3136 -0.5607 -0.3219
  366MOL0     C48196   5.586   3.973   5.531  0.2386 -0.2767 -0.5666
  366MOL0     N48197   5.524   4.013   5.660  0.0967  0.3910  0.4807
  366MOL0     C48198   5.543   4.142   5.718 -0.1918  0.1136  0.3370
  366MOL0     C48199   5.510   4.133   5.848 -0.3607  0.7597 -0.0513
  366MOL0     C48200   5.513   4.241   5.949 -0.5391  0.0268 -0.0556
  366MOL0     C48201   5.370   4.297   5.985  0.2103 -0.5142 -0.4024
  366MOL0     C48202   5.293   4.342   5.851 -0.5610  0.8413 -0.2866
  366MOL0     C48203   5.147   4.370   5.883  0.1910 -0.6033 -0.2756
  366MOL0     O48204   5.131   4.474   5.980 -0.0794 -0.4471  0.2771
  366MOL0     C48205   5.000   4.522   6.009  0.0396  0.3729 -0.8074
  366MOL0     C48206   4.900   4.549   5.913 -0.0500  0.1816  1.2375
  366MOL0     C48207   4.771   4.583   5.941  0.3682 -0.3136  0.0152
  366MOL0     C48208   4.735   4.603   6.068  0.8195  0.1137  0.5073
  366MOL0     C48209   4.597   4.653   6.111  0.3371 -0.8723  0.3282
  366MOL0     O48210   4.578   4.692   6.243  0.4635  0.0465 -0.3595
  366MOL0     C48211   4.448   4.729   6.274 -0.0179 -0.3635 -0.3852
  366MOL0     C48212   4.402   4.865   6.273 -0.3643  0.7899  1.3703
  366MOL0     C48213   4.268   4.897   6.288  0.4638 -0.5182 -0.0573
  366MOL0     C48214   4.176   4.797   6.324 -0.2365  0.2132 -0.4707
  366MOL0     O48215   4.046   4.825   6.348 -0.3378  0.4069  0.0014
  366MOL0     C48216   3.945   4.746   6.293  0.5642 -0.4295 -0.2803
  366MOL0     C48217   3.817   4.735   6.378  0.2378  0.5694  0.2255
  366MOL0     C48218   3.805   4.834   6.492  0.6706  0.3383  1.0932
  366MOL0     C48219   3.775   4.980   6.451 -0.0797 -0.2253 -0.0247
  366MOL0     C48220   3.868   5.090   6.496 -0.4666 -0.5091 -0.1711
  366MOL0     C48221   3.879   5.100   6.651 -0.1958 -0.2393  0.8498
  366MOL0     C48222   4.000   5.176   6.690  0.9487 -0.5938 -0.4825
  366MOL0     C48223   4.010   5.198   6.839  0.0306  0.5871 -0.4228
  366MOL0    Cl48224   3.909   5.333   6.897 -0.0869  0.4131 -0.5701
  366MOL0     C48225   4.224   4.666   6.336 -0.5266  0.8333  0.4118
  366MOL0     C48226   4.359   4.635   6.310 -0.1972  0.1114  1.2794
  366MOL0     O48227   4.506   4.644   6.030 -0.6536  0.0882  0.4845
  366MOL0     C48228   4.833   4.584   6.164  0.2453  0.7040  0.2687
  366MOL0     C48229   4.965   4.551   6.142 -0.4186  0.0960 -0.0810
  366MOL0     N48230   5.478   4.000   5.878  0.3454 -0.4687  0.3805
  366MOL0     N48231   5.495   3.933   5.767  0.5505  0.5927 -0.8529
  366MOL0     C48232   6.690   3.811   5.230  0.3717  0.1191  0.1164
  366MOL0     C48233   6.822   3.784   5.214 -0.1858 -0.2909 -0.1410
  366MOL0     C48234   7.234   3.746   5.099  0.4243  0.1322  0.6866
  366MOL0     C48235   7.342   3.789   5.181  0.2475 -0.1828  0.2057
  366MOL0     C48236   7.476   3.749   5.155 -0.1874 -0.0968 -0.7714
  366MOL0     C48237   7.499   3.658   5.055  0.3366 -0.7005 -1.2309
  366MOL0     O48238   7.625   3.613   5.065 -0.2691  0.9407 -0.0098
  366MOL0     C48239   7.653   3.496   4.982 -1.2119 -0.2147 -0.4124
  366MOL0     C48240   7.802   3.466   4.977 -0.0188 -0.2161 -0.5344
  366MOL0     C48241   7.844   3.425   5.119  0.1479  0.4308 -0.6047
  366MOL0     C48242   7.981   3.350   5.137  0.7092 -0.5119  0.7660
  366MOL0     C48243   8.046   3.369   5.273  0.2397 -0.7221  0.0545
  366MOL0     C48244   8.110   3.381   5.380  0.7753  0.5477  0.2476
  366MOL0     C48245   7.403   3.620   4.957  0.6569  0.7520 -0.4197
  366MOL0     C48246   7.271   3.671   4.982  0.0903  0.2108 -0.5487
  366MOL0     H48247   6.813   3.742   4.868 -0.4392 -0.8518  0.4755
  366MOL0     H48248   6.581   3.844   4.911 -0.0582 -1.6886  0.3408
  366MOL0     H48249   6.432   3.882   5.352  3.4262 -6.6729  4.2706
  366MOL0     H48250   6.431   3.725   5.277  0.4652  0.0586 -1.9737
  366MOL0     H48251   6.221   3.779   5.144  0.3349  0.9927 -1.4393
  366MOL0     H48252   6.247   3.948   5.171 -2.3855  0.6712 -0.0970
  366MOL0     H48253   6.175   3.931   5.412 -2.7244 -2.4119  2.1881
  366MOL0     H48254   6.202   3.755   5.398  1.2780 -1.1067 -2.0463
  366MOL0     H48255   5.998   3.916   5.238 -3.0199  0.7465  0.1512
  366MOL0     H48256   5.974   3.748   5.262 -1.8077  2.9307 -1.5942
  366MOL0     H48257   5.987   3.959   5.491 -1.2576 -0.7092  3.1924
  366MOL0     H48258   5.961   3.792   5.526  0.7158 -0.4784 -0.2535
  366MOL0     H48259   5.752   3.800   5.398 -3.9790  3.0039 -3.8976
  366MOL0     H48260   5.776   3.965   5.351  1.9591 -0.7437  0.0097
  366MOL0     H48261   5.748   3.862   5.644 -4.1648 -0.0961  1.0323
  366MOL0     H48262   5.785   4.021   5.587 -1.1312 -0.1323  1.0232
  366MOL0     H48263   5.532   3.887   5.491  1.1998 -2.0177  1.6613
  366MOL0     H48264   5.571   4.050   5.455 -0.9967 -1.7011 -1.8099
  366MOL0     H48265   5.583   4.231   5.672 -0.1777  0.3508  0.8032
  366MOL0     H48266   5.580   4.317   5.910  0.2521 -0.6649 -0.0780
  366MOL0     H48267   5.545   4.202   6.046  1.3028 -0.7989 -0.9379
  366MOL0     H48268   5.378   4.387   6.047 -1.5953  1.0801 -2.3344
  366MOL0     H48269   5.314   4.218   6.035  0.1810 -2.0264 -2.6683
  366MOL0     H48270   5.355   4.426   5.820  1.6203  0.2161  2.0207
  366MOL0     H48271   5.295   4.260   5.779 -0.9190 -0.0436  0.6794
  366MOL0     H48272   5.081   4.296   5.928 -0.9789  3.1577  5.1395
  366MOL0     H48273   5.104   4.405   5.788 -0.1681 -0.9665 -0.2478
  366MOL0     H48274   4.921   4.530   5.808 -2.0901 -4.2591  1.4303
  366MOL0     H48275   4.692   4.593   5.867 -0.6704  0.6608  1.2065
  366MOL0     H48276   4.473   4.942   6.245 -1.0568  1.3009  0.9930
  366MOL0     H48277   4.234   5.001   6.288  1.2775 -0.1162  3.3228
  366MOL0     H48278   3.983   4.645   6.280  3.0177  0.3748  0.1010
  366MOL0     H48279   3.910   4.792   6.200 -0.4486  2.4778  1.4020
  366MOL0     H48280   3.810   4.633   6.417  0.2507 -0.7752 -3.0043
  366MOL0     H48281   3.728   4.744   6.315  1.8500  2.0694 -1.9382
  366MOL0     H48282   3.892   4.827   6.559 -0.4184 -1.0955  2.4315
  366MOL0     H48283   3.720   4.811   6.556 -1.6768 -1.9325 -2.5164
  366MOL0     H48284   3.760   4.990   6.343  0.1752  2.0989  0.1005
  366MOL0     H48285   3.677   5.001   6.495  0.5974  2.3158  0.4031
  366MOL0     H48286   3.837   5.180   6.443 -1.3741 -0.3849  0.5429
  366MOL0     H48287   3.964   5.060   6.452 -0.7714 -0.8032 -0.6481
  366MOL0     H48288   3.900   5.000   6.689 -0.5220 -1.0208 -0.9157
  366MOL0     H48289   3.790   5.145   6.698 -0.0219 -0.7303  1.6686
  366MOL0     H48290   4.088   5.123   6.654  0.6870 -3.5869  2.7701
  366MOL0     H48291   3.998   5.272   6.638 -0.4617 -1.1397 -1.5266
  366MOL0     H48292   4.115   5.220   6.862 -0.1288  1.1601 -0.2249
  366MOL0     H48293   3.980   5.106   6.890 -2.2725  1.7990  0.4923
  366MOL0     H48294   4.164   4.580   6.366  1.2788 -1.8368 -3.0008
  366MOL0     H48295   4.382   4.529   6.311  1.1912  0.1931 -3.0791
  366MOL0     H48296   4.810   4.593   6.270  1.8436  0.1851  0.6957
  366MOL0     H48297   5.035   4.542   6.224 -0.6550  0.5860  0.1810
  366MOL0     H48298   6.653   3.835   5.328  0.9792  0.8969  0.1651
  366MOL0     H48299   6.881   3.762   5.302  2.2543  1.9820 -1.0503
  366MOL0     H48300   7.315   3.853   5.264  1.5302 -1.2863  1.5211
  366MOL0     H48301   7.551   3.777   5.227 -1.0084  1.5309 -0.5039
  366MOL0     H48302   7.622   3.512   4.878  0.8992 -1.1803 -1.2394
  366MOL0     H48303   7.590   3.418   5.025 -0.4555 -0.5215  0.1499
  366MOL0     H48304   7.820   3.378   4.914 -1.0571 -1.9132  1.4191
  366MOL0     H48305   7.858   3.554   4.947 -0.9539  0.4384 -0.4024
  366MOL0     H48306   7.765   3.367   5.168  2.1537 -0.4082  1.8595
  366MOL0     H48307   7.849   3.514   5.182 -1.6488 -0.1541  0.4406
  366MOL0     H48308   7.954   3.246   5.120 -0.2244 -0.3788  1.3733
  366MOL0     H48309   8.049   3.397   5.064 -0.8423  0.9208  0.1611
  366MOL0     H48310   8.158   3.412   5.470  0.8813  1.9518 -0.2693
  366MOL0     H48311   7.432   3.549   4.881  2.3002  0.6948  0.2059
  366MOL0     H48312   7.199   3.648   4.904 -0.0031  1.9625 -1.0179
  367MOL0     O48313   6.535   1.766   2.993  0.4005 -0.4969 -1.3033
  367MOL0     C48314   6.607   1.867   2.998  0.1800 -0.8506 -0.6477
  367MOL0     O48315   6.567   1.996   2.977  0.8278 -0.2176 -0.7943
  367MOL0     C48316   6.435   2.021   3.018  0.2063 -0.1706  0.1625
  367MOL0     C48317   6.424   2.089   3.139  0.6742 -0.1495  0.0957
  367MOL0     C48318   6.299   2.114   3.196  0.1778  0.9322  0.5436
  367MOL0     C48319   6.187   2.083   3.122  0.1046  0.9947 -0.2411
  367MOL0     O48320   6.066   2.126   3.166  0.0700  1.0684 -0.0375
  367MOL0     C48321   6.050   2.267   3.181 -0.6678  0.1346 -0.4969
  367MOL0     C48322   5.910   2.319   3.145  0.2915  0.3212  0.7681
  367MOL0     C48323   5.894   2.470   3.141  0.3567 -0.6975 -0.0359
  367MOL0     C48324   5.746   2.516   3.113 -0.0284  0.1677 -0.0689
  367MOL0     C48325   5.660   2.526   3.246 -0.1969  0.2706  0.1207
  367MOL0     C48326   5.516   2.550   3.216  0.5751  0.7670  0.0381
  367MOL0     C48327   5.430   2.536   3.346 -0.7360  0.1245  0.7915
  367MOL0     C48328   5.280   2.515   3.316  0.3986 -1.1216  0.3901
  367MOL0     N48329   5.206   2.526   3.438  0.4273  0.5692  0.7117
  367MOL0     C48330   5.147   2.641   3.484  0.0301  0.5397 -0.3203
  367MOL0     C48331   5.074   2.596   3.593 -0.0114  0.4052  0.2554
  367MOL0     C48332   4.965   2.661   3.672 -0.8745  0.3858 -0.4029
  367MOL0     C48333   4.833   2.645   3.598 -0.6684 -0.0820 -1.0231
  367MOL0     C48334   4.724   2.709   3.684 -0.6083 -0.6863 -0.5004
  367MOL0     C48335   4.584   2.700   3.620 -0.0598 -0.0199  0.6030
  367MOL0     O48336   4.473   2.726   3.714  0.1990  0.0067  0.2201
  367MOL0     C48337   4.354   2.758   3.661 -1.5574 -0.2852  0.5563
  367MOL0     C48338   4.319   2.757   3.525 -0.2553  0.3919 -0.2590
  367MOL0     C48339   4.187   2.777   3.489 -0.0904 -0.8450 -0.1022
  367MOL0     C48340   4.091   2.811   3.584 -0.1809 -0.7487 -0.5722
  367MOL0     C48341   3.951   2.812   3.551 -0.5378 -0.4329  0.4863
  367MOL0     O48342   3.860   2.742   3.630 -0.2515  0.8712 -0.0255
  367MOL0     C48343   3.725   2.760   3.613  0.0233  0.7938  1.5173
  367MOL0     C48344   3.665   2.884   3.597  0.3132  0.7251 -0.3819
  367MOL0     C48345   3.527   2.893   3.584 -0.0688 -0.4293 -0.3490
  367MOL0     C48346   3.447   2.780   3.564  0.4391  0.4315  0.2932
  367MOL0     O48347   3.308   2.790   3.544 -0.5349 -0.3309 -0.6342
  367MOL0     C48348   3.262   2.679   3.484  0.0046 -0.4154  0.3883
  367MOL0     C48349   3.124   2.709   3.422 -1.0530  0.5686 -0.0394
  367MOL0     C48350   3.017   2.736   3.531  0.7117  0.3711  0.6310
  367MOL0     C48351   2.876   2.714   3.485  0.6171  0.7832  0.4696
  367MOL0     C48352   2.768   2.811   3.536  0.5369  0.5993  1.0564
  367MOL0     C48353   2.633   2.752   3.492 -0.2235  0.2384  0.1468
  367MOL0     C48354   2.515   2.856   3.518  0.0480  0.2702  0.6705
  367MOL0     C48355   2.513   2.925   3.654  0.4373 -0.1371  0.1289
  367MOL0    Cl48356   2.465   2.799   3.779  0.5263 -0.2333  0.0671
  367MOL0     C48357   3.507   2.654   3.570 -0.6405  0.1777  0.1865
  367MOL0     C48358   3.645   2.643   3.608 -0.3094  0.3429  0.3549
  367MOL0     O48359   3.920   2.864   3.444  0.0177  0.4115 -0.3954
  367MOL0     C48360   4.125   2.821   3.719  0.1062  0.1013  1.2682
  367MOL0     C48361   4.254   2.795   3.752 -0.3758 -0.1864  0.5724
  367MOL0     N48362   5.099   2.464   3.618  0.0022 -0.1259 -0.2777
  367MOL0     N48363   5.177   2.426   3.525  0.0144 -0.0588 -0.8932
  367MOL0     C48364   6.201   2.024   2.999  0.4684 -0.7826  0.1519
  367MOL0     C48365   6.325   1.990   2.938 -0.6009 -0.6059  0.1330
  367MOL0     C48366   6.748   1.840   3.004 -0.5875  0.5809  0.3423
  367MOL0     C48367   6.841   1.946   3.005 -0.3807  0.4344  0.4747
  367MOL0     C48368   6.980   1.917   2.997  0.2289 -0.1730 -0.6501
  367MOL0     C48369   7.029   1.789   3.021 -1.0309 -0.2689  0.1045
  367MOL0     O48370   7.165   1.762   3.028 -0.5487 -0.2881  0.2254
  367MOL0     C48371   7.215   1.640   3.089 -0.2246  0.2007  0.5996
  367MOL0     C48372   7.346   1.660   3.170 -0.0480  0.4639  0.0573
  367MOL0     C48373   7.393   1.517   3.223 -0.1789  0.5825  0.8353
  367MOL0     C48374   7.500   1.529   3.325 -0.4214 -0.0623 -0.1698
  367MOL0     C48375   7.439   1.591   3.444  0.5842 -0.3273  0.6094
  367MOL0     C48376   7.379   1.634   3.543 -0.5407 -0.6235 -0.8475
  367MOL0     C48377   6.929   1.685   3.033 -1.0588 -0.1323 -0.6536
  367MOL0     C48378   6.791   1.722   3.034 -0.2083  0.0294  0.4355
  367MOL0     H48379   6.512   2.095   3.201  0.5237 -0.8758  0.3907
  367MOL0     H48380   6.298   2.150   3.299 -0.3968 -3.7869  2.4561
  367MOL0     H48381   6.119   2.319   3.115 -1.7066  0.2041 -1.5651
  367MOL0     H48382   6.074   2.307   3.280  0.4146  2.1104 -1.5186
  367MOL0     H48383   5.838   2.272   3.213  0.2009  3.2365  2.8227
  367MOL0     H48384   5.896   2.276   3.045 -0.1420  0.9102  0.5737
  367MOL0     H48385   5.957   2.510   3.061 -1.2513 -0.0977 -1.0408
  367MOL0     H48386   5.927   2.511   3.236 -1.2533 -0.8103  0.6020
  367MOL0     H48387   5.752   2.617   3.070  0.2009 -0.4450 -1.5432
  367MOL0     H48388   5.692   2.451   3.044 -1.0141  1.4857 -0.5803
  367MOL0     H48389   5.692   2.617   3.298 -1.0590  0.0880  0.9815
  367MOL0     H48390   5.675   2.448   3.321 -1.5932  1.8799  2.1610
  367MOL0     H48391   5.474   2.478   3.145 -0.6174  1.6036 -0.1411
  367MOL0     H48392   5.497   2.640   3.157 -2.2505 -0.8900 -1.8413
  367MOL0     H48393   5.461   2.446   3.400 -0.2840 -1.4751 -1.9215
  367MOL0     H48394   5.452   2.629   3.398  3.5314 -1.1700  1.7191
  367MOL0     H48395   5.276   2.417   3.267  3.5289  0.4820 -3.6264
  367MOL0     H48396   5.238   2.581   3.241  3.4468 -0.4494 -0.8856
  367MOL0     H48397   5.151   2.741   3.442  0.2105 -0.3713 -2.6224
  367MOL0     H48398   4.992   2.767   3.678  0.9898  0.1308 -2.7734
  367MOL0     H48399   4.970   2.612   3.770 -2.0013 -0.7360 -0.8905
  367MOL0     H48400   4.807   2.539   3.597 -0.7293 -0.0628 -1.6079
  367MOL0     H48401   4.841   2.671   3.492  0.4841 -1.8570 -1.4077
  367MOL0     H48402   4.720   2.669   3.785  0.8391  2.1149  0.7657
  367MOL0     H48403   4.753   2.814   3.680  1.6085 -1.2484 -0.6240
  367MOL0     H48404   4.571   2.599   3.580  1.4753 -0.6190  1.4942
  367MOL0     H48405   4.578   2.758   3.528 -0.0046 -3.8774 -2.0345
  367MOL0     H48406   4.378   2.728   3.439 -0.2876  2.3205 -0.9826
  367MOL0     H48407   4.167   2.756   3.385  0.3671 -1.1858 -0.1212
  367MOL0     H48408   3.721   2.977   3.607  1.4049 -0.1298  2.2724
  367MOL0     H48409   3.479   2.989   3.569  1.7288  0.5697  0.0161
  367MOL0     H48410   3.250   2.589   3.545 -2.7463 -2.0053 -2.2381
  367MOL0     H48411   3.306   2.640   3.392 -2.5720  0.6554 -1.4252
  367MOL0     H48412   3.100   2.617   3.368 -0.6183  1.3123 -1.5641
  367MOL0     H48413   3.118   2.792   3.351 -1.8405  0.3469 -0.2509
  367MOL0     H48414   3.029   2.841   3.559  1.5548 -0.2093  2.5827
  367MOL0     H48415   3.042   2.678   3.620  3.4601  0.5541  0.0526
  367MOL0     H48416   2.870   2.704   3.376 -3.3799 -2.3936  0.7322
  367MOL0     H48417   2.842   2.616   3.522  2.7098  0.2346  1.0789
  367MOL0     H48418   2.782   2.907   3.485  2.6829  0.2849  0.9403
  367MOL0     H48419   2.777   2.830   3.643 -2.1981  0.9656  1.2962
  367MOL0     H48420   2.617   2.662   3.552  1.9930  0.4620  1.1775
  367MOL0     H48421   2.641   2.725   3.386  0.2977 -0.0345  0.2490
  367MOL0     H48422   2.528   2.927   3.435 -4.8534 -0.8983 -1.4522
  367MOL0     H48423   2.418   2.807   3.507  1.2553 -2.9940  2.9150
  367MOL0     H48424   2.445   3.011   3.648 -1.2009 -1.3981 -0.0892
  367MOL0     H48425   2.607   2.959   3.700 -1.1920  1.3752  2.6305
  367MOL0     H48426   3.460   2.557   3.566 -1.3271  0.4502  1.0744
  367MOL0     H48427   3.707   2.556   3.629  2.0801  2.1711  1.3305
  367MOL0     H48428   4.050   2.853   3.791 -4.1208  1.0914 -3.0586
  367MOL0     H48429   4.294   2.805   3.852 -1.0228 -3.6864  1.3250
  367MOL0     H48430   6.113   2.009   2.938 -0.4184 -0.4737  1.3157
  367MOL0     H48431   6.321   1.936   2.844  0.0845  0.3263 -0.4485
  367MOL0     H48432   6.809   2.048   2.992 -1.8163 -0.2519 -1.9499
  367MOL0     H48433   7.045   2.003   3.012 -0.7332  1.3680 -4.3815
  367MOL0     H48434   7.228   1.571   3.005 -0.6155 -1.5126  1.8968
  367MOL0     H48435   7.140   1.588   3.150 -1.3140 -0.8248 -1.4814
  367MOL0     H48436   7.423   1.717   3.117  1.6139 -1.6466  0.0351
  367MOL0     H48437   7.320   1.718   3.259  2.0676  0.0646  0.9998
  367MOL0     H48438   7.420   1.462   3.133  0.5513  3.0128 -0.5450
  367MOL0     H48439   7.311   1.465   3.273 -0.2348 -0.3778 -0.2073
  367MOL0     H48440   7.536   1.430   3.356 -1.5171 -0.0557  1.2383
  367MOL0     H48441   7.583   1.596   3.301 -0.2256 -0.3469 -0.2876
  367MOL0     H48442   7.317   1.658   3.627  0.5114 -1.7802  0.3050
  367MOL0     H48443   6.962   1.583   3.046 -2.4575 -0.4801  0.3014
  367MOL0     H48444   6.721   1.642   3.057 -0.6850  1.5787  5.5234
  368MOL0     O48445   6.791   8.183   9.619  0.0996 -0.6356  0.1960
  368MOL0     C48446   6.822   8.303   9.648  0.8655 -0.3445 -0.5823
  368MOL0     O48447   6.849   8.404   9.560  0.0006 -0.0780  0.5922
  368MOL0     C48448   6.860   8.369   9.426  0.5921 -0.3276  0.0785
  368MOL0     C48449   6.750   8.341   9.346  0.4956 -0.3252  0.4020
  368MOL0     C48450   6.782   8.327   9.208 -0.6251  0.0244  0.9357
  368MOL0     C48451   6.915   8.333   9.158 -0.1007 -0.2673 -1.0041
  368MOL0     O48452   6.947   8.341   9.024  0.8779  0.1391  0.4770
  368MOL0     C48453   6.991   8.214   8.975 -0.1807  0.1114  0.8444
  368MOL0     C48454   7.045   8.241   8.832 -1.0132 -0.9744  0.2451
  368MOL0     C48455   6.933   8.301   8.735  0.6193  0.4207 -0.4714
  368MOL0     C48456   6.990   8.351   8.605  0.0438 -0.5178  0.0036
  368MOL0     C48457   6.884   8.388   8.499  0.7255  0.4308  0.4347
  368MOL0     C48458   6.754   8.447   8.561  0.1455  0.8642 -0.8039
  368MOL0     C48459   6.675   8.498   8.437  0.7951 -0.7216 -0.3964
  368MOL0     C48460   6.740   8.613   8.348 -0.1108  0.4225  0.4917
  368MOL0     N48461   6.768   8.739   8.426  0.7842  0.1062  0.3792
  368MOL0     C48462   6.677   8.843   8.427 -0.0423  0.1947 -0.7434
  368MOL0     C48463   6.736   8.946   8.483  0.4611  0.2742  0.0727
  368MOL0     C48464   6.681   9.087   8.488 -1.1432 -0.1297 -0.5589
  368MOL0     C48465   6.704   9.153   8.633 -0.0613  0.6369 -0.6570
  368MOL0     C48466   6.596   9.092   8.718 -0.0235 -0.1749  0.4153
  368MOL0     C48467   6.610   9.137   8.860  0.3447 -0.2804 -0.0629
  368MOL0     O48468   6.541   9.065   8.959 -0.8519  0.2742 -0.0907
  368MOL0     C48469   6.421   9.099   9.011 -0.0847 -1.0207  0.4790
  368MOL0     C48470   6.378   9.229   8.995  1.1243 -0.8142  0.0833
  368MOL0     C48471   6.264   9.273   9.065 -0.5589 -0.1748  0.1218
  368MOL0     C48472   6.195   9.191   9.147  0.2202  0.6429 -0.6902
  368MOL0     C48473   6.083   9.239   9.225 -0.1590 -0.4159 -0.0948
  368MOL0     O48474   5.994   9.151   9.263  0.5641  0.2556  0.9593
  368MOL0     C48475   5.880   9.195   9.324 -0.0440 -0.9688  0.0691
  368MOL0     C48476   5.770   9.134   9.291 -0.3150 -0.5384 -0.1981
  368MOL0     C48477   5.654   9.153   9.367  0.4410  0.0028  0.1156
  368MOL0     C48478   5.652   9.253   9.465  0.9303 -0.9732  0.1929
  368MOL0     O48479   5.536   9.298   9.535 -0.0687  0.0110 -0.7141
  368MOL0     C48480   5.468   9.189   9.607 -0.3345 -0.0643 -0.0713
  368MOL0     C48481   5.336   9.249   9.646 -0.8254 -0.7588 -0.1048
  368MOL0     C48482   5.259   9.140   9.720 -0.4083 -0.9001 -0.9885
  368MOL0     C48483   5.121   9.176   9.771  0.4067 -0.9567  0.0531
  368MOL0     C48484   5.031   9.069   9.825 -0.8544 -0.4483  0.9619
  368MOL0     C48485   4.893   9.113   9.871  1.6714 -0.2698  0.8647
  368MOL0     C48486   4.800   8.999   9.925 -0.1539 -1.7220 -1.0609
  368MOL0     C48487   4.662   9.046   9.972 -0.2668 -0.2301 -0.0861
  368MOL0    Cl48488   4.586   9.187   9.894  0.4447  0.1375 -0.0343
  368MOL0     C48489   5.772   9.326   9.500  0.9916 -0.0852 -0.2166
  368MOL0     C48490   5.885   9.295   9.428  0.8511  0.1286  0.6208
  368MOL0     O48491   6.063   9.354   9.230  0.0097 -0.6208 -0.0006
  368MOL0     C48492   6.236   9.054   9.160 -0.3591 -0.2540  1.2258
  368MOL0     C48493   6.353   9.004   9.087 -0.1776  0.4239  0.5835
  368MOL0     N48494   6.861   8.904   8.526 -0.7025  0.7729 -0.4216
  368MOL0     N48495   6.882   8.780   8.495 -0.2145 -0.1657  0.2134
  368MOL0     C48496   7.015   8.343   9.246  0.9335  0.1828  0.2055
  368MOL0     C48497   6.990   8.366   9.380 -0.4967 -0.6060 -0.4283
  368MOL0     C48498   6.802   8.361   9.783 -0.5523  0.6849  0.4776
  368MOL0     C48499   6.715   8.464   9.797  0.5010  0.0722  0.1989
  368MOL0     C48500   6.704   8.512   9.923  0.6102 -0.4735  0.0461
  368MOL0     C48501   6.787   8.474  10.029 -0.6937  0.3566 -0.2259
  368MOL0     O48502   6.786   8.544  10.140 -0.5284 -0.5678  0.2589
  368MOL0     C48503   6.723   8.665  10.154 -0.2388 -0.3821 -0.2844
  368MOL0     C48504   6.581   8.650  10.210 -0.7709 -0.6601 -0.0818
  368MOL0     C48505   6.524   8.792  10.236  0.0448 -0.1960  0.0748
  368MOL0     C48506   6.376   8.816  10.200  0.2031  0.4022 -0.8257
  368MOL0     C48507   6.359   8.814  10.053  0.4576  0.2278 -0.3644
  368MOL0     C48508   6.363   8.800   9.931  0.1989  0.5937 -1.1116
  368MOL0     C48509   6.874   8.373  10.006 -0.5879  0.0529  0.0628
  368MOL0     C48510   6.889   8.321   9.880 -0.1484  0.8816 -0.5428
  368MOL0     H48511   6.652   8.338   9.391  0.7156 -2.1266  0.8192
  368MOL0     H48512   6.706   8.317   9.131  0.6656 -1.3911 -0.2180
  368MOL0     H48513   6.918   8.133   8.971 -0.1998  0.1540  0.1419
  368MOL0     H48514   7.072   8.184   9.042  1.0431  2.1092  0.3590
  368MOL0     H48515   7.087   8.151   8.786  3.7889  0.1886  1.7308
  368MOL0     H48516   7.131   8.307   8.845 -0.4912 -1.6272  0.1653
  368MOL0     H48517   6.884   8.381   8.791  3.7530  1.7460  0.5976
  368MOL0     H48518   6.862   8.220   8.717  0.6347 -0.5590  3.0266
  368MOL0     H48519   7.040   8.440   8.643  1.1669 -2.2378  2.8554
  368MOL0     H48520   7.062   8.276   8.570 -2.1333 -2.6333 -0.2066
  368MOL0     H48521   6.856   8.305   8.434 -0.3515 -1.6019  3.2688
  368MOL0     H48522   6.926   8.475   8.447  0.9502  0.7560  1.1486
  368MOL0     H48523   6.765   8.534   8.626  1.5430  0.6908 -0.7680
  368MOL0     H48524   6.706   8.365   8.614  1.3288 -0.2065 -1.3237
  368MOL0     H48525   6.661   8.413   8.370  0.7343 -0.7164 -0.3903
  368MOL0     H48526   6.578   8.538   8.467  0.7724 -0.6233 -0.5975
  368MOL0     H48527   6.677   8.629   8.260  1.3000 -1.0300 -0.8525
  368MOL0     H48528   6.839   8.595   8.306  0.3135  1.4461  1.0306
  368MOL0     H48529   6.587   8.848   8.366 -1.1933  2.3344  0.9970
  368MOL0     H48530   6.576   9.094   8.459 -1.1393 -1.0715 -0.8286
  368MOL0     H48531   6.747   9.132   8.412  0.2335  2.1996  1.8151
  368MOL0     H48532   6.683   9.260   8.627  2.2587  1.0563 -3.2005
  368MOL0     H48533   6.804   9.141   8.675 -0.9182  0.2813  1.4008
  368MOL0     H48534   6.499   9.134   8.693  1.0574  1.0597 -1.9691
  368MOL0     H48535   6.596   8.982   8.713  0.5187 -0.1196 -1.1815
  368MOL0     H48536   6.596   9.245   8.865  3.1510  0.1616  0.2324
  368MOL0     H48537   6.716   9.131   8.888  0.0248 -0.2330  1.2016
  368MOL0     H48538   6.417   9.307   8.930 -0.3166 -2.0083 -2.3299
  368MOL0     H48539   6.237   9.377   9.057 -0.5630 -0.1567  0.3700
  368MOL0     H48540   5.778   9.061   9.211  1.2571 -1.7310  0.9897
  368MOL0     H48541   5.569   9.096   9.332  1.2513 -0.8974 -0.4184
  368MOL0     H48542   5.527   9.169   9.697 -2.4454  0.5801  1.5472
  368MOL0     H48543   5.448   9.103   9.542 -1.9835 -0.9995  1.5532
  368MOL0     H48544   5.280   9.277   9.556 -4.2683 -1.5699  1.5949
  368MOL0     H48545   5.340   9.346   9.697 -1.7382  0.1566 -1.6816
  368MOL0     H48546   5.328   9.124   9.803 -0.0409  2.1148 -0.6305
  368MOL0     H48547   5.254   9.050   9.657  1.1114 -2.3967  0.8954
  368MOL0     H48548   5.122   9.253   9.848  0.1709  0.0610 -0.9436
  368MOL0     H48549   5.061   9.224   9.693 -1.1468 -1.1405  1.0757
  368MOL0     H48550   5.082   9.024   9.910  0.1306 -0.8163  0.1801
  368MOL0     H48551   5.026   8.999   9.742  0.6179 -0.6459  1.0204
  368MOL0     H48552   4.837   9.151   9.785 -0.1753  0.0878  2.1551
  368MOL0     H48553   4.904   9.189   9.949  1.7014 -2.6291  3.3252
  368MOL0     H48554   4.799   8.937   9.835  0.9191 -0.8250 -1.7247
  368MOL0     H48555   4.847   8.952  10.012  0.2720 -1.8514 -1.3604
  368MOL0     H48556   4.667   9.071  10.079 -0.0806 -0.2396 -0.0938
  368MOL0     H48557   4.597   8.963   9.945 -1.5617  0.7094  0.0472
  368MOL0     H48558   5.766   9.399   9.580  1.2553 -2.4460  2.0966
  368MOL0     H48559   5.971   9.357   9.453 -0.4096  1.6514  1.3696
  368MOL0     H48560   6.191   8.978   9.224  3.6208 -2.3207  1.8887
  368MOL0     H48561   6.395   8.904   9.089 -1.0983 -0.0128  3.4171
  368MOL0     H48562   7.115   8.341   9.203 -0.3394 -0.9936 -3.0218
  368MOL0     H48563   7.059   8.389   9.461 -1.6027 -0.2400  0.4381
  368MOL0     H48564   6.656   8.506   9.716  1.0292  2.3940  0.9537
  368MOL0     H48565   6.634   8.595   9.928  0.5034 -0.5859  0.3908
  368MOL0     H48566   6.726   8.732  10.067  1.9173  0.8847  0.6976
  368MOL0     H48567   6.782   8.720  10.228 -2.8073  0.5684  1.2333
  368MOL0     H48568   6.530   8.600  10.127 -1.7497 -3.0373  1.8453
  368MOL0     H48569   6.578   8.584  10.297  1.8904 -0.4844  0.2465
  368MOL0     H48570   6.583   8.870  10.187 -0.2228 -1.0902 -1.7579
  368MOL0     H48571   6.532   8.806  10.344  0.8328 -0.3225  0.0400
  368MOL0     H48572   6.311   8.748  10.256  1.0735  0.8865  0.8639
  368MOL0     H48573   6.344   8.915  10.233 -0.3545  0.7313 -2.2789
  368MOL0     H48574   6.361   8.796   9.824 -1.9696 -0.8224 -1.0825
  368MOL0     H48575   6.951   8.369  10.082 -1.6694  1.8551  1.3418
  368MOL0     H48576   6.959   8.238   9.881  0.2281  1.1345  2.1232
  369MOL0     O48577   4.773   6.355   6.575 -0.1771  0.0087 -0.6607
  369MOL0     C48578   4.830   6.457   6.608  0.2378  0.1938  0.3726
  369MOL0     O48579   4.789   6.546   6.698 -0.2375  0.5521  0.3422
  369MOL0     C48580   4.664   6.550   6.752  0.5708  0.7529  0.0455
  369MOL0     C48581   4.552   6.469   6.711  0.0461 -0.1849  0.1927
  369MOL0     C48582   4.421   6.509   6.764 -0.8072 -0.3055  0.8968
  369MOL0     C48583   4.408   6.615   6.855 -0.2629 -0.3953  0.3281
  369MOL0     O48584   4.282   6.642   6.901  0.6840 -1.0136 -0.4783
  369MOL0     C48585   4.253   6.782   6.935  0.1300  0.5835  0.7234
  369MOL0     C48586   4.108   6.803   6.977 -0.6162  0.8654  0.0936
  369MOL0     C48587   4.013   6.771   6.869  0.1275 -0.2365  0.2592
  369MOL0     C48588   3.871   6.776   6.921 -0.3241  0.0908  0.2787
  369MOL0     C48589   3.770   6.730   6.817 -0.7751 -0.0052  0.6582
  369MOL0     C48590   3.782   6.816   6.681  0.4871  0.3412  0.6274
  369MOL0     C48591   3.667   6.796   6.581 -0.2560  0.5331 -0.5471
  369MOL0     C48592   3.685   6.848   6.431 -0.1364  1.5634 -0.2945
  369MOL0     N48593   3.665   6.991   6.437  0.2724 -0.4471  0.3711
  369MOL0     C48594   3.545   7.056   6.459 -0.1107 -0.1417  1.0620
  369MOL0     C48595   3.579   7.188   6.447 -1.0086 -0.5191 -0.7830
  369MOL0     C48596   3.498   7.315   6.464 -0.1710 -0.2141  0.1548
  369MOL0     C48597   3.556   7.409   6.572  0.3470  0.1848  0.4262
  369MOL0     C48598   3.439   7.477   6.638 -0.4352 -0.2599 -0.6121
  369MOL0     C48599   3.477   7.526   6.784 -0.5682  0.0134  0.2678
  369MOL0     O48600   3.450   7.670   6.801 -0.4853  0.2460  0.2384
  369MOL0     C48601   3.316   7.715   6.810 -0.2718 -0.1914 -0.2540
  369MOL0     C48602   3.312   7.857   6.787  0.3558 -0.4615 -0.2080
  369MOL0     C48603   3.186   7.917   6.795  0.3221 -0.3517 -0.2618
  369MOL0     C48604   3.072   7.843   6.840  0.1819 -0.0259  0.7116
  369MOL0     C48605   2.930   7.899   6.841 -0.1039  0.4293  0.6045
  369MOL0     O48606   2.839   7.847   6.925 -0.3616  0.7145  0.6788
  369MOL0     C48607   2.702   7.851   6.908 -0.1160  0.7802  0.6059
  369MOL0     C48608   2.636   7.857   6.787  0.0221 -0.7875  0.4830
  369MOL0     C48609   2.495   7.854   6.791 -0.2417  0.3552  0.3949
  369MOL0     C48610   2.425   7.844   6.909  0.8383  1.3960  0.0276
  369MOL0     O48611   2.283   7.841   6.899  0.0316 -0.6647 -0.0516
  369MOL0     C48612   2.221   7.857   7.027  0.6610  0.2079 -0.2937
  369MOL0     C48613   2.080   7.896   6.997  0.5206  0.4498 -1.0353
  369MOL0     C48614   2.006   7.781   6.919 -0.2114 -0.3950  0.0481
  369MOL0     C48615   1.882   7.837   6.866  0.2756  0.0558 -0.0140
  369MOL0     C48616   1.821   7.733   6.775 -0.3941  0.3343 -0.2653
  369MOL0     C48617   1.690   7.797   6.721 -0.3181  0.3716 -0.6055
  369MOL0     C48618   1.626   7.706   6.613  0.8468  0.3432 -0.3741
  369MOL0     C48619   1.583   7.574   6.657  0.4542  0.1146  0.0351
  369MOL0    Cl48620   1.438   7.511   6.561  0.2486  0.1331  0.0338
  369MOL0     C48621   2.495   7.839   7.027 -0.4573  0.2569  0.1446
  369MOL0     C48622   2.628   7.843   7.025 -0.4019  0.6426 -0.0539
  369MOL0     O48623   2.907   7.987   6.761 -0.0387  0.2282 -0.7771
  369MOL0     C48624   3.086   7.703   6.870  0.6585  0.1351 -0.3883
  369MOL0     C48625   3.207   7.639   6.857 -0.3958 -0.7568  0.7497
  369MOL0     N48626   3.708   7.195   6.414 -0.4090  0.0929  0.3228
  369MOL0     N48627   3.760   7.074   6.409 -0.1099 -0.0637 -0.3247
  369MOL0     C48628   4.524   6.682   6.888  0.0036 -1.1395  0.9216
  369MOL0     C48629   4.650   6.657   6.844  0.1752  1.0540  0.0273
  369MOL0     C48630   4.964   6.491   6.531 -0.3324  0.3008  0.4668
  369MOL0     C48631   5.005   6.411   6.431 -0.8897 -0.2403 -1.1346
  369MOL0     C48632   5.119   6.427   6.358  0.4183 -0.0316  0.1181
  369MOL0     C48633   5.207   6.524   6.388  0.2508  0.4322 -0.1353
  369MOL0     O48634   5.310   6.536   6.306 -0.2380  1.0002 -0.5629
  369MOL0     C48635   5.423   6.625   6.343  0.8448  0.8528  0.4441
  369MOL0     C48636   5.506   6.631   6.210 -0.5105 -0.0468 -0.5143
  369MOL0     C48637   5.618   6.722   6.222 -0.1139  0.2416  0.2292
  369MOL0     C48638   5.675   6.752   6.084  0.0346 -0.2650  0.2631
  369MOL0     C48639   5.804   6.816   6.092 -0.0387  0.4872 -0.2205
  369MOL0     C48640   5.917   6.866   6.104  0.4226  0.4803  0.9133
  369MOL0     C48641   5.179   6.619   6.489  0.6336  0.2586 -0.3331
  369MOL0     C48642   5.057   6.598   6.562  0.0168 -0.1258  0.2332
  369MOL0     H48643   4.566   6.407   6.623 -0.2864 -2.3178  1.5945
  369MOL0     H48644   4.331   6.452   6.744  0.2448 -0.9658 -2.9968
  369MOL0     H48645   4.279   6.845   6.849 -1.3321  1.0827  0.6114
  369MOL0     H48646   4.320   6.809   7.016  0.3737  1.2608  0.3030
  369MOL0     H48647   4.103   6.910   7.000 -0.1006  0.4841  2.1583
  369MOL0     H48648   4.091   6.748   7.070  0.6249 -2.5694 -1.5384
  369MOL0     H48649   4.035   6.671   6.832 -0.0300 -0.4657  0.7679
  369MOL0     H48650   4.031   6.850   6.795  0.0972 -1.0706 -0.6645
  369MOL0     H48651   3.852   6.715   7.010  0.7832  0.7048  0.9646
  369MOL0     H48652   3.851   6.883   6.934 -2.8730 -0.4760  1.8105
  369MOL0     H48653   3.669   6.735   6.860 -1.5185  1.4769 -1.0999
  369MOL0     H48654   3.792   6.626   6.793 -0.2823  0.4197 -0.8090
  369MOL0     H48655   3.878   6.793   6.634  0.4897 -1.5843  1.4627
  369MOL0     H48656   3.781   6.922   6.707  0.1325  0.5792 -0.3311
  369MOL0     H48657   3.664   6.689   6.557  0.8752  1.0381 -3.1974
  369MOL0     H48658   3.572   6.820   6.631 -0.4545  0.6712 -0.9924
  369MOL0     H48659   3.613   6.799   6.365  0.1322  1.4069 -0.4757
  369MOL0     H48660   3.784   6.811   6.403 -1.3657 -2.4128 -0.0230
  369MOL0     H48661   3.450   7.006   6.472 -0.5306 -0.4796 -2.4971
  369MOL0     H48662   3.392   7.292   6.481 -0.6634  2.1651  0.6179
  369MOL0     H48663   3.504   7.371   6.371  0.5120  0.1479  0.4158
  369MOL0     H48664   3.632   7.467   6.519  0.8367 -0.6020  0.2348
  369MOL0     H48665   3.602   7.345   6.649  0.7615  0.2430  0.2317
  369MOL0     H48666   3.398   7.563   6.584 -0.6810  0.6938  1.0197
  369MOL0     H48667   3.354   7.410   6.652  0.3784 -1.1279  0.3011
  369MOL0     H48668   3.585   7.510   6.786 -1.0411 -4.0744  1.3360
  369MOL0     H48669   3.449   7.459   6.865 -1.6163 -0.1025 -0.1742
  369MOL0     H48670   3.401   7.916   6.767 -1.1496  1.4646 -1.6104
  369MOL0     H48671   3.178   8.023   6.772 -1.9586  0.1395  2.2456
  369MOL0     H48672   2.688   7.856   6.692  0.8162 -0.6743  0.9067
  369MOL0     H48673   2.442   7.860   6.696 -0.3841 -0.4041  0.4176
  369MOL0     H48674   2.262   7.946   7.076 -0.2795  1.9323 -2.4591
  369MOL0     H48675   2.231   7.771   7.094 -1.2545 -0.5557 -0.9442
  369MOL0     H48676   2.087   7.979   6.927 -1.9309 -0.1642 -2.0964
  369MOL0     H48677   2.032   7.936   7.087 -0.3775 -0.5253 -1.0626
  369MOL0     H48678   1.987   7.691   6.978 -0.6738 -0.3058  0.0360
  369MOL0     H48679   2.064   7.750   6.831 -2.1739  1.1143 -1.8986
  369MOL0     H48680   1.805   7.851   6.942 -0.7876  0.0092 -1.0545
  369MOL0     H48681   1.906   7.932   6.819 -0.6060  0.4254  0.2669
  369MOL0     H48682   1.786   7.642   6.823 -2.3224  0.8377 -0.6323
  369MOL0     H48683   1.876   7.698   6.687 -2.6182  0.0677 -1.6331
  369MOL0     H48684   1.716   7.887   6.664 -2.0769  1.2156 -0.1308
  369MOL0     H48685   1.615   7.823   6.796  1.5720  1.4282  1.0092
  369MOL0     H48686   1.539   7.761   6.578  0.4836 -0.3952 -0.6393
  369MOL0     H48687   1.694   7.687   6.530 -2.0370 -2.2439 -2.3640
  369MOL0     H48688   1.561   7.578   6.764 -0.3802  1.6704 -0.1666
  369MOL0     H48689   1.666   7.504   6.643 -0.1349 -0.3984 -1.0271
  369MOL0     H48690   2.444   7.834   7.123  2.8805 -1.8648  2.0284
  369MOL0     H48691   2.680   7.837   7.120 -3.5172 -2.0149  1.6868
  369MOL0     H48692   3.006   7.640   6.907  0.5078 -0.3043 -1.4225
  369MOL0     H48693   3.222   7.543   6.905 -0.2545  0.8015  4.1295
  369MOL0     H48694   4.526   6.779   6.937  2.1764  0.1152 -1.4176
  369MOL0     H48695   4.735   6.716   6.879  1.0125  0.4926 -1.0142
  369MOL0     H48696   4.938   6.327   6.415 -0.3566 -1.4333  2.1127
  369MOL0     H48697   5.129   6.356   6.276 -2.3885  1.7318 -1.9524
  369MOL0     H48698   5.467   6.582   6.433  0.3794 -2.0315 -0.5714
  369MOL0     H48699   5.396   6.725   6.376  1.1959  1.1080 -0.0343
  369MOL0     H48700   5.553   6.536   6.182  1.3620  0.7488 -0.2279
  369MOL0     H48701   5.437   6.667   6.133  0.7305  1.6305 -0.9098
  369MOL0     H48702   5.687   6.693   6.302 -0.9956  0.7670  1.2174
  369MOL0     H48703   5.587   6.820   6.258  3.6748  0.5395  3.3478
  369MOL0     H48704   5.679   6.652   6.041 -3.3277 -1.3218  2.0391
  369MOL0     H48705   5.611   6.814   6.021  0.6613  0.0279 -0.0926
  369MOL0     H48706   6.019   6.897   6.094  1.1617 -1.6333  1.3962
  369MOL0     H48707   5.243   6.704   6.512  0.7601  0.0782 -0.0153
  369MOL0     H48708   5.024   6.649   6.652 -0.3081  0.0263  0.0295
  370MOL0     O48709   1.449   3.964   4.143 -0.5656 -0.0583 -1.0808
  370MOL0     C48710   1.516   3.945   4.040 -0.0756 -0.1129  0.4096
  370MOL0     O48711   1.479   3.874   3.927  0.0347  0.9045 -0.2854
  370MOL0     C48712   1.372   3.794   3.926  0.7641  0.3140  0.1150
  370MOL0     C48713   1.243   3.847   3.949 -0.5169  1.0444  1.0523
  370MOL0     C48714   1.136   3.758   3.913 -1.1291  0.9824 -0.6713
  370MOL0     C48715   1.156   3.619   3.888 -0.3285  0.5408  1.2426
  370MOL0     O48716   1.051   3.529   3.889 -0.3910  0.0451 -0.0886
  370MOL0     C48717   0.983   3.548   4.009  1.0166  0.2593 -0.2412
  370MOL0     C48718   0.904   3.420   4.032 -0.7926  0.6834  0.5324
  370MOL0     C48719   0.793   3.397   3.925 -0.0545 -0.0902 -0.0950
  370MOL0     C48720   0.715   3.272   3.958  0.3324  0.4303 -0.8411
  370MOL0     C48721   0.620   3.235   3.839  0.1970 -0.5482 -0.7975
  370MOL0     C48722   0.540   3.107   3.882 -0.4292 -0.8833 -0.6384
  370MOL0     C48723   0.480   3.022   3.763  0.4561 -0.3987 -0.3220
  370MOL0     C48724   0.344   3.090   3.717 -0.9602 -1.2395 -0.1699
  370MOL0     N48725   0.257   3.006   3.640  1.1856  0.0408  0.7275
  370MOL0     C48726   0.175   2.908   3.691 -0.0216 -0.3672 -0.4574
  370MOL0     C48727   0.083   2.872   3.602  0.4868 -0.2523 -0.4474
  370MOL0     C48728  -0.019   2.761   3.637  0.1473  0.2780  0.0468
  370MOL0     C48729  -0.164   2.819   3.629 -0.3207 -0.6895  0.6483
  370MOL0     C48730  -0.266   2.699   3.612  0.9435  0.1283 -0.8113
  370MOL0     C48731  -0.409   2.732   3.589 -0.2855 -0.4908  0.5549
  370MOL0     O48732  -0.445   2.679   3.462 -0.3773  0.5493 -0.6279
  370MOL0     C48733  -0.538   2.745   3.393 -0.3549 -0.6393  1.2003
  370MOL0     C48734  -0.655   2.793   3.452  0.1324  0.0068  0.4640
  370MOL0     C48735  -0.755   2.861   3.375 -0.0119  1.4507  0.3004
  370MOL0     C48736  -0.746   2.869   3.238 -0.4258  0.7585  1.2804
  370MOL0     C48737  -0.859   2.907   3.155  0.4345  0.1666 -0.1805
  370MOL0     O48738  -0.976   2.955   3.213 -0.2102  0.2974 -0.4336
  370MOL0     C48739  -1.078   3.003   3.141  0.4060 -0.7541  0.3998
  370MOL0     C48740  -1.135   2.948   3.027  0.5996 -0.0850 -0.0868
  370MOL0     C48741  -1.251   3.008   2.974 -0.0773  1.6062  0.1644
  370MOL0     C48742  -1.304   3.128   3.022  0.2628 -0.2325 -0.7234
  370MOL0     O48743  -1.422   3.189   2.972 -0.5458 -0.3404 -0.5773
  370MOL0     C48744  -1.504   3.129   2.865  0.0880 -0.6957 -0.4691
  370MOL0     C48745  -1.645   3.170   2.896 -0.0863 -0.4121 -0.1679
  370MOL0     C48746  -1.748   3.117   2.791  0.4431  0.7030  0.1880
  370MOL0     C48747  -1.900   3.121   2.828  0.4184  0.4340  0.0616
  370MOL0     C48748  -1.991   3.070   2.716 -0.3005  0.1848 -0.4408
  370MOL0     C48749  -2.140   3.019   2.763 -0.5425 -0.4567  1.2185
  370MOL0     C48750  -2.218   3.126   2.836  0.7184 -0.3727 -0.3680
  370MOL0     C48751  -2.284   3.236   2.745  0.2287 -0.9683 -0.0733
  370MOL0    Cl48752  -2.380   3.157   2.606 -0.3948  0.4245 -0.1432
  370MOL0     C48753  -1.234   3.190   3.127 -0.4580 -0.6971  0.2768
  370MOL0     C48754  -1.130   3.122   3.182 -0.5671 -1.0156 -0.0038
  370MOL0     O48755  -0.836   2.896   3.036  0.0755  0.0108 -0.0032
  370MOL0     C48756  -0.629   2.822   3.179 -0.1655 -0.2769 -0.3524
  370MOL0     C48757  -0.531   2.758   3.257  0.4798 -0.4908  0.7466
  370MOL0     N48758   0.100   2.953   3.493 -0.2229  0.0693 -0.9707
  370MOL0     N48759   0.201   3.039   3.517  0.0840  0.7924 -0.6529
  370MOL0     C48760   1.285   3.572   3.880 -0.2558 -0.5128  0.5639
  370MOL0     C48761   1.395   3.663   3.904 -1.0533  1.0875 -0.2661
  370MOL0     C48762   1.648   4.004   4.024 -0.6193  0.8641  0.4008
  370MOL0     C48763   1.690   4.111   4.099  0.6817  0.1192  0.2924
  370MOL0     C48764   1.813   4.167   4.086  0.0527  0.1942  0.8484
  370MOL0     C48765   1.905   4.119   3.985  0.5155 -0.3143  0.0821
  370MOL0     O48766   2.026   4.192   3.971 -0.1089  0.2775 -0.3648
  370MOL0     C48767   2.079   4.193   3.835  0.1960 -0.5617 -0.5866
  370MOL0     C48768   2.216   4.265   3.832  0.4886 -0.0551  0.4943
  370MOL0     C48769   2.340   4.178   3.878  1.0307  0.0428 -0.8040
  370MOL0     C48770   2.468   4.254   3.895 -0.6472 -0.0252 -0.4078
  370MOL0     C48771   2.529   4.255   3.755 -0.0717 -0.4258  0.3635
  370MOL0     C48772   2.560   4.261   3.634  0.0075 -0.0918  0.1437
  370MOL0     C48773   1.871   4.004   3.905 -0.4110  0.8549  0.4916
  370MOL0     C48774   1.742   3.952   3.923 -1.1550  0.3799  0.8946
  370MOL0     H48775   1.227   3.948   3.984 -1.1785  1.3837 -0.1661
  370MOL0     H48776   1.037   3.793   3.939 -1.0425  1.7890 -1.3911
  370MOL0     H48777   0.911   3.630   4.023  0.6847 -0.1620  0.6096
  370MOL0     H48778   1.043   3.554   4.101  0.5519  3.4190 -0.0432
  370MOL0     H48779   0.870   3.414   4.136  0.8551  0.4304  1.0759
  370MOL0     H48780   0.971   3.334   4.024 -0.9612  0.7025 -1.7815
  370MOL0     H48781   0.848   3.383   3.831  0.7674 -1.7306  0.5991
  370MOL0     H48782   0.725   3.481   3.905  1.7385  1.2514 -0.9112
  370MOL0     H48783   0.781   3.189   3.985  0.5548  0.4337 -1.3512
  370MOL0     H48784   0.664   3.301   4.050  0.4507  3.1644 -1.5496
  370MOL0     H48785   0.675   3.221   3.746  1.3149 -1.2842 -0.0553
  370MOL0     H48786   0.548   3.317   3.837 -1.3602 -1.7544  1.1492
  370MOL0     H48787   0.455   3.142   3.942  0.8518  0.8082  0.2696
  370MOL0     H48788   0.591   3.039   3.951  0.6618  1.3101  0.8457
  370MOL0     H48789   0.544   3.027   3.674  0.6987  0.4496 -0.1143
  370MOL0     H48790   0.460   2.922   3.801  0.3582  0.7923  3.1096
  370MOL0     H48791   0.384   3.167   3.651 -0.5700 -0.3904  1.0274
  370MOL0     H48792   0.283   3.137   3.795 -0.2973  0.6793 -0.7687
  370MOL0     H48793   0.199   2.867   3.789 -1.2500 -0.4361 -0.1746
  370MOL0     H48794  -0.018   2.719   3.738 -5.0141 -1.2338 -0.2264
  370MOL0     H48795  -0.015   2.673   3.571 -1.0972 -0.0829  0.4133
  370MOL0     H48796  -0.176   2.883   3.541  2.6778  1.6988  1.7659
  370MOL0     H48797  -0.179   2.886   3.714 -1.8136  1.2196 -1.0092
  370MOL0     H48798  -0.232   2.640   3.526  0.7398  0.9422 -1.4653
  370MOL0     H48799  -0.265   2.628   3.695 -2.5123  0.3064 -0.4565
  370MOL0     H48800  -0.432   2.838   3.599  0.8292 -0.2649  0.8206
  370MOL0     H48801  -0.476   2.678   3.656  1.5767 -0.8505  2.2383
  370MOL0     H48802  -0.661   2.794   3.561  3.6546  1.2982  0.7761
  370MOL0     H48803  -0.843   2.899   3.424 -0.9739  0.6709 -0.7773
  370MOL0     H48804  -1.097   2.853   2.988  0.9529 -0.8341  1.9747
  370MOL0     H48805  -1.298   2.955   2.892  0.3580  3.4501 -1.3555
  370MOL0     H48806  -1.499   3.020   2.874 -2.3030 -0.6481  4.3299
  370MOL0     H48807  -1.470   3.158   2.765  0.0019 -0.8010 -0.5311
  370MOL0     H48808  -1.649   3.279   2.903  0.0388 -0.4991  3.5243
  370MOL0     H48809  -1.674   3.123   2.991 -0.2117 -0.7221 -0.3593
  370MOL0     H48810  -1.728   3.011   2.772 -4.8699 -0.8414  1.3711
  370MOL0     H48811  -1.731   3.167   2.696 -0.7959 -1.2846 -1.1699
  370MOL0     H48812  -1.911   3.054   2.914 -2.1276 -0.1839 -0.6558
  370MOL0     H48813  -1.930   3.221   2.861 -2.6469  0.1291 -1.4737
  370MOL0     H48814  -1.946   2.982   2.671 -0.4211 -0.7216  1.1479
  370MOL0     H48815  -2.012   3.148   2.642 -2.0360 -0.2008 -0.4081
  370MOL0     H48816  -2.129   2.929   2.824 -3.4604 -0.3306  2.1229
  370MOL0     H48817  -2.194   2.990   2.672 -0.2304  0.9613  0.5417
  370MOL0     H48818  -2.291   3.076   2.900  0.9634 -0.7628 -0.3887
  370MOL0     H48819  -2.158   3.181   2.909 -0.7236 -0.0043  0.5986
  370MOL0     H48820  -2.200   3.296   2.708  0.6174 -2.2699 -1.3871
  370MOL0     H48821  -2.349   3.292   2.814  1.0384  1.6024 -1.2798
  370MOL0     H48822  -1.261   3.289   3.162  1.4851 -0.8416  2.3602
  370MOL0     H48823  -1.076   3.164   3.267  1.3364 -1.8331 -0.7490
  370MOL0     H48824  -0.610   2.826   3.072 -0.9945 -1.7085 -0.5777
  370MOL0     H48825  -0.444   2.711   3.213 -0.0008 -1.6684  1.0159
  370MOL0     H48826   1.305   3.467   3.866 -1.5914 -0.3786 -4.0833
  370MOL0     H48827   1.497   3.631   3.884 -1.4285  0.4388 -1.2490
  370MOL0     H48828   1.639   4.140   4.190  0.6991 -1.1969  0.7485
  370MOL0     H48829   1.846   4.253   4.143 -0.5110  1.6261 -0.8842
  370MOL0     H48830   2.008   4.251   3.776 -0.0687  0.5692  0.7996
  370MOL0     H48831   2.090   4.088   3.805 -2.3921 -1.4499  1.2054
  370MOL0     H48832   2.230   4.308   3.732 -0.5649  0.3600  0.5166
  370MOL0     H48833   2.210   4.359   3.889 -0.4833  0.2022 -0.0186
  370MOL0     H48834   2.350   4.083   3.826  2.9076 -1.5630  2.2178
  370MOL0     H48835   2.313   4.143   3.979  1.8092 -0.0147 -0.6104
  370MOL0     H48836   2.461   4.352   3.942 -0.2076 -0.4613  0.6140
  370MOL0     H48837   2.530   4.196   3.965 -4.4942 -1.9122  1.8047
  370MOL0     H48838   2.578   4.279   3.530 -0.8577  0.0967  0.0183
  370MOL0     H48839   1.935   3.957   3.831  2.5561  1.4270  2.4976
  370MOL0     H48840   1.712   3.871   3.856  1.2679 -2.0793  2.5359
  371MOL0     O48841   7.466   5.741  11.236  0.2806 -0.0040  0.3640
  371MOL0     C48842   7.514   5.848  11.267 -0.5133  1.1567  0.2524
  371MOL0     O48843   7.446   5.934  11.340  0.1334 -0.2694  0.2596
  371MOL0     C48844   7.322   5.902  11.385  0.5289  0.1908 -0.1660
  371MOL0     C48845   7.265   5.779  11.407 -0.4948  1.1490 -0.5010
  371MOL0     C48846   7.136   5.766  11.454 -0.2751  0.3779 -0.7539
  371MOL0     C48847   7.063   5.875  11.505 -0.6057 -0.6671  0.6527
  371MOL0     O48848   6.955   5.852  11.576 -0.1632  0.8514  0.0368
  371MOL0     C48849   6.930   5.925  11.696 -0.2065 -0.2033  0.0323
  371MOL0     C48850   6.802   5.864  11.757 -0.0686 -0.9696  0.0883
  371MOL0     C48851   6.665   5.912  11.700 -0.1671  0.6554 -0.6448
  371MOL0     C48852   6.556   5.881  11.815 -0.3217  0.5081  0.1641
  371MOL0     C48853   6.415   5.896  11.772  0.4603  0.0306 -0.2667
  371MOL0     C48854   6.309   5.872  11.887 -0.4875 -0.9008  0.4690
  371MOL0     C48855   6.158   5.897  11.847  0.0435 -0.1550 -0.3937
  371MOL0     C48856   6.067   5.857  11.969 -0.2766  0.3865  0.2143
  371MOL0     N48857   5.928   5.873  11.940 -0.5449 -0.4702  0.2737
  371MOL0     C48858   5.868   5.842  11.822 -0.0717  0.3294  0.4293
  371MOL0     C48859   5.735   5.866  11.842 -0.4961  0.1060  1.1191
  371MOL0     C48860   5.631   5.820  11.752 -0.8625  0.4646  0.1462
  371MOL0     C48861   5.493   5.881  11.795 -0.7580 -0.2274 -0.5033
  371MOL0     C48862   5.382   5.840  11.700  0.6187 -0.0202  0.5749
  371MOL0     C48863   5.253   5.930  11.704  0.5390  0.0381  0.4454
  371MOL0     O48864   5.201   5.900  11.837  0.0939  0.4429 -0.8903
  371MOL0     C48865   5.068   5.916  11.862 -0.8663 -0.7565  0.1914
  371MOL0     C48866   4.985   5.990  11.775 -0.0093  0.8481 -0.3351
  371MOL0     C48867   4.853   6.010  11.808  0.3655  0.9869  0.5416
  371MOL0     C48868   4.797   5.946  11.925 -0.2797 -0.4143  0.3300
  371MOL0     C48869   4.658   5.974  11.975 -0.0598 -0.0560  0.7207
  371MOL0     O48870   4.572   6.039  11.896 -0.6828  0.1533 -0.6042
  371MOL0     C48871   4.442   6.049  11.924  0.2217 -0.7844 -0.1281
  371MOL0     C48872   4.386   6.181  11.944 -0.2665  0.1509  0.8787
  371MOL0     C48873   4.250   6.199  11.938  0.6526  1.0111  0.2280
  371MOL0     C48874   4.163   6.091  11.923  0.2297  0.1214  0.1177
  371MOL0     O48875   4.025   6.100  11.919  0.1894 -0.0850 -0.2366
  371MOL0     C48876   3.973   6.222  11.868 -0.0372  0.0279  0.1467
  371MOL0     C48877   3.828   6.204  11.827  0.5362 -0.1012  1.3274
  371MOL0     C48878   3.803   6.114  11.702 -0.0689 -0.4645  0.9192
  371MOL0     C48879   3.656   6.082  11.678 -0.4277  0.5679  0.0629
  371MOL0     C48880   3.568   6.200  11.649  0.3765 -0.0731  0.7408
  371MOL0     C48881   3.429   6.155  11.586 -0.5872 -0.5044 -0.5484
  371MOL0     C48882   3.339   6.274  11.550 -0.4050  0.8859  0.1418
  371MOL0     C48883   3.286   6.259  11.407  0.8349  0.2709 -0.3716
  371MOL0    Cl48884   3.213   6.420  11.373 -0.3753 -0.1795  0.4387
  371MOL0     C48885   4.217   5.962  11.912  0.6494  0.0258 -0.1952
  371MOL0     C48886   4.361   5.940  11.909  0.2174  0.2483  0.0246
  371MOL0     O48887   4.633   5.911  12.071  0.3608  0.1812 -0.0981
  371MOL0     C48888   4.881   5.860  11.994 -0.1640  0.7988 -0.1157
  371MOL0     C48889   5.017   5.846  11.967 -0.7580  0.3533 -0.1802
  371MOL0     N48890   5.715   5.902  11.976  0.1019 -0.2374 -0.8124
  371MOL0     N48891   5.828   5.896  12.035  0.3154 -0.0634  0.7647
  371MOL0     C48892   7.117   6.002  11.486  0.2195 -0.7446  0.1331
  371MOL0     C48893   7.246   6.018  11.426  0.8763 -0.1999 -0.2963
  371MOL0     C48894   7.660   5.880  11.230  0.6467 -0.1070 -0.5238
  371MOL0     C48895   7.740   5.798  11.154  1.1249  0.0419 -0.4008
  371MOL0     C48896   7.875   5.819  11.156 -0.0941  0.0638  0.6421
  371MOL0     C48897   7.933   5.912  11.237  0.0343  0.3033 -0.9621
  371MOL0     O48898   8.070   5.912  11.236  0.3459  0.1774  0.0095
  371MOL0     C48899   8.132   6.036  11.261 -0.0030  0.6545 -0.5105
  371MOL0     C48900   8.282   6.008  11.235 -0.5860 -0.3850 -1.2003
  371MOL0     C48901   8.375   6.123  11.268 -0.0749 -0.0603 -0.3391
  371MOL0     C48902   8.525   6.090  11.246  0.2676 -0.4875  0.8527
  371MOL0     C48903   8.548   6.109  11.104 -0.7112 -0.5884  0.0160
  371MOL0     C48904   8.557   6.127  10.982 -0.5454 -0.5564 -0.2483
  371MOL0     C48905   7.857   6.006  11.302  1.1625 -0.3494  0.2945
  371MOL0     C48906   7.720   5.985  11.298  0.2830 -0.0833 -0.7263
  371MOL0     H48907   7.308   5.682  11.384  0.6411  0.4567  3.6770
  371MOL0     H48908   7.090   5.668  11.465  1.0571 -0.2928 -1.0535
  371MOL0     H48909   6.914   6.031  11.675 -0.3155  0.4912  3.1444
  371MOL0     H48910   7.013   5.920  11.767 -0.0888  0.6740 -0.0312
  371MOL0     H48911   6.792   5.888  11.863  1.5028 -0.4373  0.1416
  371MOL0     H48912   6.805   5.756  11.741  0.8773 -0.8173 -0.8791
  371MOL0     H48913   6.624   5.875  11.605 -0.4784  4.4661 -2.1476
  371MOL0     H48914   6.676   6.020  11.689 -0.1386  0.5253 -2.2353
  371MOL0     H48915   6.569   5.784  11.863  0.5283  0.5303 -0.0070
  371MOL0     H48916   6.574   5.956  11.892 -0.1758  1.3979 -0.7034
  371MOL0     H48917   6.400   5.825  11.690 -1.9368 -1.7172  1.5172
  371MOL0     H48918   6.396   6.002  11.752 -1.7577  0.5892  3.6381
  371MOL0     H48919   6.333   5.944  11.966 -0.3130 -2.4486  1.8914
  371MOL0     H48920   6.332   5.768  11.914  2.5921 -0.2846  0.6528
  371MOL0     H48921   6.143   6.003  11.824 -1.3304 -0.4628 -1.0240
  371MOL0     H48922   6.135   5.841  11.755 -2.8196  2.0645 -1.1757
  371MOL0     H48923   6.092   5.924  12.051 -0.5752  1.3126 -0.4387
  371MOL0     H48924   6.085   5.756  12.006 -0.2936  0.5660  0.7127
  371MOL0     H48925   5.908   5.794  11.733 -3.6700  1.6183 -2.1438
  371MOL0     H48926   5.629   5.710  11.750 -2.1191  0.4386  1.3502
  371MOL0     H48927   5.647   5.851  11.649  1.5500 -2.4854 -0.5269
  371MOL0     H48928   5.491   5.990  11.804 -3.0034 -0.4032  5.1779
  371MOL0     H48929   5.468   5.847  11.896  0.4300 -0.2746 -0.2178
  371MOL0     H48930   5.424   5.840  11.599 -1.0058  4.5900 -0.3384
  371MOL0     H48931   5.344   5.741  11.729 -1.3285  1.1075  2.0804
  371MOL0     H48932   5.195   5.901  11.616  0.1058 -0.5192  0.9100
  371MOL0     H48933   5.284   6.032  11.679  3.0943 -0.9816 -0.9223
  371MOL0     H48934   5.017   6.047  11.688  3.4405 -0.3995 -0.0035
  371MOL0     H48935   4.787   6.066  11.742 -0.9340 -0.4420  0.5782
  371MOL0     H48936   4.457   6.262  11.957 -0.8991  0.8736 -0.0418
  371MOL0     H48937   4.199   6.293  11.955  2.8151  2.8328 -2.4976
  371MOL0     H48938   4.022   6.254  11.775 -2.1608 -2.3300 -1.9132
  371MOL0     H48939   3.988   6.299  11.944 -1.7143 -2.1102  2.8154
  371MOL0     H48940   3.794   6.307  11.811  0.0738 -0.0564  2.5074
  371MOL0     H48941   3.769   6.157  11.906 -1.4180  0.0549  0.0392
  371MOL0     H48942   3.869   6.027  11.708  2.2427  0.9618 -1.4819
  371MOL0     H48943   3.846   6.165  11.615 -1.7407 -0.3036  0.1556
  371MOL0     H48944   3.641   6.015  11.593  1.3299  1.0577 -0.6708
  371MOL0     H48945   3.618   6.026  11.764 -0.6499 -0.0388 -0.4241
  371MOL0     H48946   3.625   6.260  11.578  0.6993 -1.0545  0.1433
  371MOL0     H48947   3.548   6.265  11.735  0.5518  2.6823 -1.1670
  371MOL0     H48948   3.375   6.089  11.653  1.4611 -0.5546  1.1501
  371MOL0     H48949   3.457   6.101  11.495  0.5024 -3.4263  1.3734
  371MOL0     H48950   3.266   6.274  11.632 -1.5521 -1.2022 -0.7980
  371MOL0     H48951   3.396   6.367  11.558 -0.4548  0.9478 -0.1907
  371MOL0     H48952   3.219   6.173  11.398  0.5644  0.4953 -0.5395
  371MOL0     H48953   3.369   6.246  11.338  0.8311  1.2620 -0.5771
  371MOL0     H48954   4.140   5.886  11.902  1.4012 -1.0831  1.8431
  371MOL0     H48955   4.398   5.838  11.909 -0.0366 -0.0334 -4.3433
  371MOL0     H48956   4.857   5.804  12.084 -1.9869  2.7326  0.7020
  371MOL0     H48957   5.091   5.806  12.036  0.6806 -1.0789 -2.4169
  371MOL0     H48958   7.059   6.090  11.513  1.6458  2.3922 -5.4930
  371MOL0     H48959   7.275   6.122  11.418  0.9483 -0.3562 -2.8381
  371MOL0     H48960   7.689   5.718  11.101 -0.4361  0.8548 -0.1969
  371MOL0     H48961   7.948   5.756  11.106  2.2364  1.7068  1.7675
  371MOL0     H48962   8.119   6.077  11.362  1.2545  0.5312 -0.2860
  371MOL0     H48963   8.099   6.109  11.186  1.9972  0.4465 -1.6559
  371MOL0     H48964   8.316   5.920  11.291  0.6513  0.8914  0.1710
  371MOL0     H48965   8.298   5.984  11.130 -0.9470 -2.7572 -0.7721
  371MOL0     H48966   8.368   6.172  11.366  2.4502  2.6946 -1.3617
  371MOL0     H48967   8.340   6.204  11.203 -0.4807 -0.1051 -0.1797
  371MOL0     H48968   8.601   6.149  11.298  2.6054 -3.7577  1.5445
  371MOL0     H48969   8.543   5.990  11.288  3.7224  0.7279  2.7009
  371MOL0     H48970   8.567   6.140  10.876 -2.0199 -0.5534 -0.3995
  371MOL0     H48971   7.884   6.100  11.350 -1.4795  0.2102  0.8645
  371MOL0     H48972   7.653   6.052  11.350  2.5179  1.6027  0.1619
  372MOL0     O48973   8.628   7.287   1.069 -0.2793  0.4623  0.1804
  372MOL0     C48974   8.518   7.280   1.010 -0.0406 -0.1315 -0.8727
  372MOL0     O48975   8.398   7.290   1.068 -0.2566 -0.5401  0.7530
  372MOL0     C48976   8.375   7.312   1.203 -1.0602 -0.7683  0.7857
  372MOL0     C48977   8.287   7.231   1.258  1.2261  0.3241  0.8498
  372MOL0     C48978   8.247   7.244   1.391 -0.2738  0.0444 -0.7465
  372MOL0     C48979   8.293   7.356   1.477  0.0739  0.4505 -0.0428
  372MOL0     O48980   8.256   7.375   1.603 -0.7930 -0.1214  0.0687
  372MOL0     C48981   8.188   7.273   1.674 -0.6834 -0.1761 -0.9118
  372MOL0     C48982   8.167   7.301   1.820 -0.0808  0.1192 -0.1271
  372MOL0     C48983   8.052   7.398   1.852  0.0141 -0.5458  1.3686
  372MOL0     C48984   8.042   7.418   2.009 -0.7359 -0.3257  0.3249
  372MOL0     C48985   7.908   7.496   2.033  0.9706  0.5532  0.2468
  372MOL0     C48986   7.898   7.522   2.179 -0.4208 -0.3361  0.3381
  372MOL0     C48987   7.756   7.556   2.220  0.3473 -0.4389  0.7083
  372MOL0     C48988   7.733   7.566   2.375  0.9645  0.4431 -0.9022
  372MOL0     N48989   7.592   7.583   2.403  0.7752 -0.3493  0.1907
  372MOL0     C48990   7.498   7.499   2.351 -0.5219 -0.7619 -1.2080
  372MOL0     C48991   7.379   7.564   2.379  0.1423 -0.1277 -0.0192
  372MOL0     C48992   7.248   7.505   2.375 -0.4560 -0.0622  0.3544
  372MOL0     C48993   7.127   7.586   2.321 -0.1733  0.1891 -0.4235
  372MOL0     C48994   7.002   7.498   2.323  0.5481  0.6659 -1.1595
  372MOL0     C48995   6.913   7.535   2.450 -1.0293  0.0912 -0.0977
  372MOL0     O48996   6.778   7.482   2.432 -0.1487 -0.0292  0.3850
  372MOL0     C48997   6.692   7.522   2.523  0.4130 -0.3515 -0.2150
  372MOL0     C48998   6.713   7.499   2.663  0.1031  0.2204  1.5766
  372MOL0     C48999   6.613   7.531   2.758  0.3122 -0.2012 -0.8444
  372MOL0     C49000   6.481   7.574   2.717 -0.1538 -0.2214  0.8097
  372MOL0     C49001   6.377   7.599   2.815 -0.2114  0.5991 -0.3676
  372MOL0     O49002   6.403   7.623   2.955 -0.1763 -0.2938  0.3324
  372MOL0     C49003   6.310   7.661   3.047  0.3903  0.2882 -0.6422
  372MOL0     C49004   6.177   7.702   3.026 -0.8072 -0.4659  0.0676
  372MOL0     C49005   6.087   7.739   3.126  1.2568  1.4836  1.1703
  372MOL0     C49006   6.130   7.742   3.260 -0.7810 -0.1065  0.5617
  372MOL0     O49007   6.042   7.772   3.358  0.4410 -0.2710  0.1666
  372MOL0     C49008   6.080   7.826   3.484  0.3533 -0.6273 -0.3701
  372MOL0     C49009   5.950   7.867   3.553 -0.0116  0.4453  0.3879
  372MOL0     C49010   5.843   7.748   3.553  0.3648 -0.6308 -0.6388
  372MOL0     C49011   5.713   7.794   3.599 -0.6698  0.6740  1.1391
  372MOL0     C49012   5.616   7.677   3.644 -0.7377  0.0930 -0.4011
  372MOL0     C49013   5.484   7.742   3.697 -0.1205  0.7451  0.0260
  372MOL0     C49014   5.404   7.666   3.793 -0.8773 -0.1186 -0.1132
  372MOL0     C49015   5.486   7.645   3.928 -0.3583  0.0118 -0.3525
  372MOL0    Cl49016   5.405   7.580   4.062 -0.5508  0.1582 -0.1113
  372MOL0     C49017   6.263   7.699   3.287 -0.2604 -0.4278  0.7514
  372MOL0     C49018   6.353   7.663   3.182 -0.3594 -0.2547  0.2084
  372MOL0     O49019   6.267   7.592   2.768 -0.4316 -0.6676  0.1658
  372MOL0     C49020   6.464   7.586   2.579 -0.3648 -0.4852  0.2353
  372MOL0     C49021   6.569   7.568   2.484 -0.0082 -0.1055  0.1895
  372MOL0     N49022   7.405   7.678   2.453 -0.3004  0.7211  0.4648
  372MOL0     N49023   7.537   7.701   2.448 -0.7168 -0.3969 -0.5823
  372MOL0     C49024   8.384   7.441   1.416 -0.3164  0.5209  0.3780
  372MOL0     C49025   8.434   7.416   1.280  1.2717 -0.2329  0.0322
  372MOL0     C49026   8.514   7.249   0.868  0.3058 -0.5794 -0.1535
  372MOL0     C49027   8.635   7.241   0.799  0.1729 -0.0294  0.0753
  372MOL0     C49028   8.625   7.200   0.668 -0.4915  0.1970 -0.3414
  372MOL0     C49029   8.508   7.170   0.610  0.2331  0.0346  0.0268
  372MOL0     O49030   8.482   7.114   0.486  0.5814  0.0318 -0.3531
  372MOL0     C49031   8.581   7.096   0.384  0.8219  0.8605  0.5234
  372MOL0     C49032   8.625   7.224   0.316  0.6947  0.4641  0.6509
  372MOL0     C49033   8.530   7.285   0.223  0.0215 -0.9165  0.3701
  372MOL0     C49034   8.590   7.404   0.145  0.0158  0.6629  0.1368
  372MOL0     C49035   8.610   7.525   0.219  0.0968  0.5724  0.0537
  372MOL0     C49036   8.638   7.623   0.285 -0.6966 -1.1802  0.5337
  372MOL0     C49037   8.387   7.188   0.677 -0.3546  0.4368 -0.0421
  372MOL0     C49038   8.390   7.228   0.806 -0.2918 -0.4883 -0.0566
  372MOL0     H49039   8.237   7.152   1.202  0.5821  0.1457  1.6581
  372MOL0     H49040   8.180   7.175   1.442  1.1917 -0.8391  0.0745
  372MOL0     H49041   8.249   7.183   1.667  1.6032  1.3985 -3.4945
  372MOL0     H49042   8.091   7.255   1.626  0.1324 -2.7815 -1.7159
  372MOL0     H49043   8.265   7.341   1.850  0.3015  1.2116 -2.6342
  372MOL0     H49044   8.137   7.213   1.878 -0.2559  0.9510  1.0953
  372MOL0     H49045   7.957   7.358   1.816 -0.4703  1.4867  0.2162
  372MOL0     H49046   8.066   7.496   1.805 -0.8279 -0.0982  2.0432
  372MOL0     H49047   8.058   7.319   2.053  3.6570 -0.4292 -1.0457
  372MOL0     H49048   8.129   7.476   2.041 -1.6031  0.0373  2.1858
  372MOL0     H49049   7.826   7.433   1.996  1.6314 -0.2572  0.1306
  372MOL0     H49050   7.910   7.585   1.969 -1.3247 -1.0417 -2.2537
  372MOL0     H49051   7.967   7.606   2.192  1.3522 -1.8967  1.4360
  372MOL0     H49052   7.938   7.439   2.237 -1.3802 -1.8862 -1.1337
  372MOL0     H49053   7.728   7.650   2.171 -1.5068 -3.2630 -4.4469
  372MOL0     H49054   7.688   7.485   2.171  0.0468  0.1085  0.3152
  372MOL0     H49055   7.798   7.646   2.412  1.4133  0.3934 -1.5712
  372MOL0     H49056   7.765   7.473   2.422  0.8428 -0.3029 -2.2529
  372MOL0     H49057   7.515   7.410   2.291  1.4963 -1.5752  0.4155
  372MOL0     H49058   7.210   7.472   2.472 -1.8667  2.6379  0.8152
  372MOL0     H49059   7.261   7.418   2.310 -0.5163 -1.2152  1.8381
  372MOL0     H49060   7.137   7.638   2.225  1.1574 -0.1737 -0.5046
  372MOL0     H49061   7.116   7.664   2.396  1.3970 -0.3117  0.3694
  372MOL0     H49062   6.953   7.516   2.227  0.6908 -1.3728 -1.6434
  372MOL0     H49063   7.025   7.392   2.329 -0.5775  0.2841 -2.7554
  372MOL0     H49064   6.910   7.644   2.458 -0.8125  0.0131  1.4748
  372MOL0     H49065   6.952   7.497   2.545 -2.8025 -2.1862 -0.1849
  372MOL0     H49066   6.805   7.455   2.698  0.4653 -1.0008 -0.6799
  372MOL0     H49067   6.637   7.511   2.862 -1.7941  0.2664 -0.2222
  372MOL0     H49068   6.141   7.715   2.925 -1.0086 -0.2378  0.1670
  372MOL0     H49069   5.992   7.786   3.101  1.6617  1.9832  0.5310
  372MOL0     H49070   6.148   7.912   3.477  1.0098 -1.2352 -1.7938
  372MOL0     H49071   6.132   7.746   3.537  1.9595  1.6582  1.7280
  372MOL0     H49072   5.918   7.959   3.503  1.2971  1.5369  1.4608
  372MOL0     H49073   5.972   7.897   3.656  1.7052 -0.0925  0.2179
  372MOL0     H49074   5.878   7.666   3.617  1.9653  0.2077 -0.3765
  372MOL0     H49075   5.824   7.694   3.460  0.9560 -3.1142  0.5775
  372MOL0     H49076   5.730   7.855   3.689 -1.9256 -0.2467  2.0443
  372MOL0     H49077   5.672   7.866   3.527 -0.4541  2.7660  2.9842
  372MOL0     H49078   5.666   7.604   3.708  1.6326  2.2797  0.4460
  372MOL0     H49079   5.595   7.612   3.559 -2.7248 -2.6157  1.9581
  372MOL0     H49080   5.415   7.744   3.612 -0.8211 -3.4617  0.2849
  372MOL0     H49081   5.500   7.843   3.736  3.0862  0.2554  0.2021
  372MOL0     H49082   5.314   7.725   3.816 -0.5514  1.0543 -1.6872
  372MOL0     H49083   5.374   7.570   3.751 -0.5642 -0.8082  1.1975
  372MOL0     H49084   5.514   7.747   3.957  0.7180  1.2468 -4.8288
  372MOL0     H49085   5.582   7.601   3.900 -0.2396  0.0189  0.0349
  372MOL0     H49086   6.297   7.694   3.390  0.0844 -1.5427  0.6030
  372MOL0     H49087   6.454   7.631   3.207  1.8203  6.0141  1.3603
  372MOL0     H49088   6.371   7.620   2.534 -0.8457  0.6559  2.0370
  372MOL0     H49089   6.543   7.562   2.379  2.2770  0.2497 -0.4487
  372MOL0     H49090   8.436   7.526   1.458  1.8746 -0.1400 -0.8551
  372MOL0     H49091   8.503   7.478   1.223  1.7311 -0.1717  0.6481
  372MOL0     H49092   8.724   7.244   0.861  0.3123  0.6769 -0.1533
  372MOL0     H49093   8.717   7.182   0.611  0.9487  1.1840  1.5563
  372MOL0     H49094   8.545   7.024   0.309  2.6200  0.2682  0.1777
  372MOL0     H49095   8.675   7.053   0.419 -0.4179 -3.6077 -0.8878
  372MOL0     H49096   8.642   7.295   0.398 -0.3066  3.4327 -1.5549
  372MOL0     H49097   8.716   7.195   0.263  1.9730 -0.6603  3.2504
  372MOL0     H49098   8.437   7.311   0.275 -2.9414 -0.9033 -4.3714
  372MOL0     H49099   8.497   7.203   0.158 -3.0920 -1.4882  2.4610
  372MOL0     H49100   8.682   7.384   0.089 -0.0005  0.3087  0.2370
  372MOL0     H49101   8.519   7.428   0.066 -1.5811  0.1147  1.3455
  372MOL0     H49102   8.647   7.725   0.313 -2.4047 -0.3613 -1.5440
  372MOL0     H49103   8.293   7.153   0.635 -0.3478 -1.8351  1.6774
  372MOL0     H49104   8.298   7.230   0.863 -1.0604  0.1819 -1.2824
  373MOL0     O49105   7.945   8.544   8.435  0.2210  0.0081 -0.0955
  373MOL0     C49106   8.049   8.587   8.476  0.0418 -0.3666 -0.9012
  373MOL0     O49107   8.077   8.718   8.512 -0.4125 -0.6022 -0.1068
  373MOL0     C49108   7.972   8.808   8.507  0.0269  0.6110 -0.3271
  373MOL0     C49109   7.941   8.891   8.397 -0.6024 -0.3899 -0.6844
  373MOL0     C49110   7.818   8.964   8.400  0.3222  0.9361  0.7286
  373MOL0     C49111   7.734   8.976   8.509  0.4073 -0.3809 -1.2204
  373MOL0     O49112   7.644   9.082   8.510 -0.0458  0.3701  0.7493
  373MOL0     C49113   7.532   9.074   8.600  0.6319  0.4835  0.2154
  373MOL0     C49114   7.427   9.161   8.545 -0.1411  0.5104 -0.0443
  373MOL0     C49115   7.280   9.126   8.581  0.6044  0.3707 -0.0035
  373MOL0     C49116   7.272   9.105   8.730 -0.5524  0.0861  0.4458
  373MOL0     C49117   7.131   9.087   8.785  0.4819  0.2926  0.0231
  373MOL0     C49118   7.131   9.066   8.939  1.1703 -0.4124 -0.4533
  373MOL0     C49119   7.188   9.177   9.025  1.1871 -0.3253 -0.2904
  373MOL0     C49120   7.101   9.196   9.157 -0.3370  0.4500  0.5983
  373MOL0     N49121   6.968   9.265   9.137  0.4979  0.5708  0.4940
  373MOL0     C49122   6.940   9.397   9.161  0.9530 -0.2715 -0.3215
  373MOL0     C49123   6.810   9.420   9.133  0.1540  0.1240 -0.4085
  373MOL0     C49124   6.731   9.548   9.155 -0.7101 -0.0609 -0.2299
  373MOL0     C49125   6.590   9.519   9.189  0.3920 -0.2617 -0.2723
  373MOL0     C49126   6.528   9.661   9.187 -0.0408  0.6742 -0.4487
  373MOL0     C49127   6.377   9.648   9.209  0.6545  0.0023 -0.4046
  373MOL0     O49128   6.318   9.779   9.221  0.8134  0.0285 -0.1296
  373MOL0     C49129   6.191   9.791   9.284 -1.1194  0.4757 -0.1223
  373MOL0     C49130   6.155   9.909   9.348 -0.8737 -1.2528  0.0122
  373MOL0     C49131   6.031   9.921   9.412 -0.3461  0.4293  0.4210
  373MOL0     C49132   5.940   9.813   9.418 -0.3299 -0.5081 -0.4521
  373MOL0     C49133   5.821   9.806   9.498 -0.4166  0.3222  0.2798
  373MOL0     O49134   5.779   9.682   9.530  0.0600  0.5597 -1.2582
  373MOL0     C49135   5.658   9.687   9.595  0.3082 -0.8717 -0.4061
  373MOL0     C49136   5.542   9.626   9.548 -0.1149 -1.3774  0.7580
  373MOL0     C49137   5.418   9.648   9.611 -0.1319  0.7088 -0.1591
  373MOL0     C49138   5.407   9.714   9.730 -0.3552  0.7207  1.1148
  373MOL0     O49139   5.294   9.743   9.802 -0.2460 -0.4954 -0.3692
  373MOL0     C49140   5.166   9.725   9.747  0.4601 -0.8206 -0.0737
  373MOL0     C49141   5.071   9.722   9.880 -0.3428 -0.2339 -2.0991
  373MOL0     C49142   4.964   9.609   9.883 -0.1181 -0.1666 -0.2667
  373MOL0     C49143   4.886   9.609  10.022  0.5037  0.0847 -0.4920
  373MOL0     C49144   4.772   9.500  10.034 -0.0687  0.0192  0.0683
  373MOL0     C49145   4.731   9.464  10.176 -0.2395  0.6682 -0.3256
  373MOL0     C49146   4.589   9.397  10.196  0.6787  0.5640 -0.3822
  373MOL0     C49147   4.549   9.386  10.350 -0.7366  0.1460 -0.0046
  373MOL0    Cl49148   4.665   9.273  10.441 -0.1166 -0.1228  0.0557
  373MOL0     C49149   5.525   9.742   9.797 -0.8280 -0.6130  0.3154
  373MOL0     C49150   5.653   9.731   9.731  0.0295 -0.3044  0.6195
  373MOL0     O49151   5.783   9.906   9.550  0.0990  0.7717 -0.7325
  373MOL0     C49152   5.984   9.690   9.358  0.6110 -0.1200  0.2623
  373MOL0     C49153   6.106   9.684   9.292  0.9161 -0.0738  0.0698
  373MOL0     N49154   6.766   9.303   9.091 -0.2596  0.3825  0.2737
  373MOL0     N49155   6.852   9.207   9.101  0.2096 -0.1162 -0.6897
  373MOL0     C49156   7.765   8.892   8.619 -0.4866  0.7817 -0.0258
  373MOL0     C49157   7.880   8.806   8.618 -0.7980  0.0227  0.7079
  373MOL0     C49158   8.171   8.500   8.453  0.4472 -0.0257 -0.0809
  373MOL0     C49159   8.172   8.401   8.353 -0.5768  0.6448  0.2781
  373MOL0     C49160   8.290   8.325   8.328  1.1105 -0.7792 -0.9426
  373MOL0     C49161   8.406   8.353   8.401  0.5292  1.4595 -1.0927
  373MOL0     O49162   8.531   8.302   8.388 -0.3500  0.2515  0.2257
  373MOL0     C49163   8.573   8.206   8.282  0.4627 -0.4198 -0.2166
  373MOL0     C49164   8.716   8.173   8.307 -0.5604 -1.7121 -0.5135
  373MOL0     C49165   8.813   8.291   8.323  0.0173 -0.1457  0.0583
  373MOL0     C49166   8.953   8.249   8.339 -0.6150 -0.1412 -0.5399
  373MOL0     C49167   9.045   8.364   8.344  0.5779  0.6098 -0.3199
  373MOL0     C49168   9.119   8.452   8.330 -0.0338 -1.2045 -0.2787
  373MOL0     C49169   8.393   8.438   8.505 -0.3031  0.6896  0.3908
  373MOL0     C49170   8.279   8.508   8.534  0.1575  0.0294 -1.2935
  373MOL0     H49171   8.011   8.887   8.314 -1.4496 -1.0422 -1.3919
  373MOL0     H49172   7.783   9.019   8.313 -1.6448  0.9844  1.4882
  373MOL0     H49173   7.547   9.104   8.704  0.2310 -0.2658  0.4993
  373MOL0     H49174   7.499   8.970   8.594  0.2381  0.6249 -0.0848
  373MOL0     H49175   7.425   9.152   8.436 -3.5636 -3.1564  0.0994
  373MOL0     H49176   7.452   9.263   8.576  2.0307  0.3887 -1.2460
  373MOL0     H49177   7.243   9.042   8.521 -1.1770  1.3814 -0.3709
  373MOL0     H49178   7.220   9.215   8.563  0.6372  0.5958  0.9666
  373MOL0     H49179   7.328   9.013   8.752 -1.8837 -1.7775 -3.1096
  373MOL0     H49180   7.318   9.194   8.773 -2.5119  0.9421  0.8833
  373MOL0     H49181   7.075   9.011   8.729 -0.1438 -0.5808  1.7723
  373MOL0     H49182   7.085   9.186   8.780 -0.6993 -0.1071  2.0338
  373MOL0     H49183   7.180   8.973   8.968 -0.0483  0.2744  4.8296
  373MOL0     H49184   7.028   9.052   8.973  1.2553 -2.2434 -0.8477
  373MOL0     H49185   7.287   9.145   9.058  1.6862  1.2274 -0.2032
  373MOL0     H49186   7.196   9.267   8.963 -0.4343  0.3989  0.4637
  373MOL0     H49187   7.156   9.276   9.208  1.2945 -1.6241  2.2907
  373MOL0     H49188   7.089   9.103   9.215 -2.6404 -0.6025 -1.3747
  373MOL0     H49189   6.996   9.482   9.198 -0.5961  1.5422 -1.9248
  373MOL0     H49190   6.744   9.601   9.061  1.1927  1.4681  0.8231
  373MOL0     H49191   6.772   9.596   9.244  1.9679 -1.2372 -0.7328
  373MOL0     H49192   6.591   9.467   9.285 -0.9340  2.4070  1.2952
  373MOL0     H49193   6.549   9.456   9.110  1.8260 -0.3496 -0.9754
  373MOL0     H49194   6.574   9.716   9.269  3.1915  0.5577 -2.0547
  373MOL0     H49195   6.544   9.723   9.098  1.4254  1.4541  0.3374
  373MOL0     H49196   6.367   9.597   9.306 -2.6550  2.9932  1.0475
  373MOL0     H49197   6.334   9.586   9.129  0.8233  2.5160 -2.5699
  373MOL0     H49198   6.231   9.987   9.349 -0.1585 -1.9165 -0.5934
  373MOL0     H49199   6.015  10.009   9.474 -0.0121  0.2696  0.7399
  373MOL0     H49200   5.545   9.552   9.468  0.1136 -0.2580 -0.2995
  373MOL0     H49201   5.333   9.613   9.553 -1.6315  2.0342  1.1512
  373MOL0     H49202   5.167   9.630   9.694  3.7008 -0.1643 -1.4671
  373MOL0     H49203   5.134   9.804   9.678 -1.6016 -1.0691  0.5428
  373MOL0     H49204   5.012   9.813   9.868 -0.5924  0.0283  0.6445
  373MOL0     H49205   5.112   9.739   9.980 -1.9538 -0.7910 -1.3106
  373MOL0     H49206   5.017   9.513   9.886  0.4226  0.1228  2.9054
  373MOL0     H49207   4.895   9.622   9.799 -0.1062 -1.1581 -0.4491
  373MOL0     H49208   4.958   9.592  10.102 -2.1853  0.5545  2.2166
  373MOL0     H49209   4.837   9.705  10.038 -0.1229 -0.0915 -1.2915
  373MOL0     H49210   4.808   9.402  10.000  1.5087  0.5558  0.1154
  373MOL0     H49211   4.689   9.538   9.973  1.4295  1.8016 -0.9950
  373MOL0     H49212   4.738   9.550  10.243 -1.4516  1.6495 -1.4092
  373MOL0     H49213   4.805   9.397  10.221  0.1164  1.8274  0.8571
  373MOL0     H49214   4.509   9.452  10.146  1.2332  1.5593 -0.2002
  373MOL0     H49215   4.588   9.296  10.156  3.5577 -0.7488  2.3856
  373MOL0     H49216   4.451   9.341  10.368  0.2244 -1.7654  0.7138
  373MOL0     H49217   4.560   9.487  10.390  0.7822 -0.5556  1.4987
  373MOL0     H49218   5.536   9.770   9.901  0.1747 -1.3210  0.4180
  373MOL0     H49219   5.740   9.756   9.792  0.8842  0.2611 -0.7855
  373MOL0     H49220   5.919   9.603   9.362 -4.1152  2.9967  0.2753
  373MOL0     H49221   6.149   9.589   9.260 -0.1744 -0.0941 -1.4531
  373MOL0     H49222   7.697   8.888   8.704 -0.3827  1.3259  0.0885
  373MOL0     H49223   7.892   8.731   8.696  0.1117 -4.0140 -2.9137
  373MOL0     H49224   8.084   8.374   8.296 -0.3946 -0.3073  0.4319
  373MOL0     H49225   8.283   8.248   8.252 -0.8025 -0.5648 -1.0314
  373MOL0     H49226   8.565   8.262   8.188 -4.4736  1.1277  0.8186
  373MOL0     H49227   8.505   8.121   8.274 -0.0949 -0.0049  0.0124
  373MOL0     H49228   8.714   8.114   8.399 -4.3547 -0.8140  0.1263
  373MOL0     H49229   8.756   8.112   8.225  1.5628  0.1849 -0.9816
  373MOL0     H49230   8.776   8.335   8.416 -3.8288 -1.1259 -0.8226
  373MOL0     H49231   8.798   8.347   8.230  1.9537  2.2838  1.0729
  373MOL0     H49232   8.950   8.187   8.429 -1.7467 -0.0026 -0.4709
  373MOL0     H49233   8.970   8.188   8.250 -2.0618 -0.6242 -0.5150
  373MOL0     H49234   9.194   8.527   8.318 -2.4087  1.0929 -1.9500
  373MOL0     H49235   8.476   8.461   8.572 -1.3013 -0.5979  2.1491
  373MOL0     H49236   8.281   8.578   8.617  2.0678 -0.2136 -1.1050
  374MOL0     O49237   1.970  10.268   4.984 -0.1191 -0.2590  0.5027
  374MOL0     C49238   2.027  10.272   4.873  0.2544  0.7385 -0.1416
  374MOL0     O49239   1.962  10.304   4.759 -0.7839  0.5043  0.2173
  374MOL0     C49240   1.827  10.312   4.741  0.0318 -0.4254 -0.7206
  374MOL0     C49241   1.769  10.231   4.640 -0.7285 -0.3962  0.2616
  374MOL0     C49242   1.630  10.240   4.632 -0.3796  0.0218 -0.4134
  374MOL0     C49243   1.551  10.329   4.712  0.0742 -0.6811 -0.5915
  374MOL0     O49244   1.412  10.326   4.700 -0.5038  0.1066  0.7287
  374MOL0     C49245   1.336  10.456   4.705  0.8933  0.5570  0.3610
  374MOL0     C49246   1.192  10.424   4.653  0.3012  0.2042 -0.2921
  374MOL0     C49247   1.112  10.548   4.612 -0.1836 -0.3715 -0.0899
  374MOL0     C49248   1.104  10.650   4.719  0.5170 -0.4945 -0.5456
  374MOL0     C49249   1.008  10.772   4.698 -0.6212  0.7382 -0.7229
  374MOL0     C49250   0.863  10.730   4.684  0.3463  0.5331 -1.0179
  374MOL0     C49251   0.764  10.852   4.688  0.2566 -0.8118 -0.2325
  374MOL0     C49252   0.765  10.936   4.814  0.3647  0.6173 -0.1680
  374MOL0     N49253   0.680  11.044   4.791  0.6625  0.2779  0.2108
  374MOL0     C49254   0.577  11.080   4.871  0.4340  0.2399  0.7042
  374MOL0     C49255   0.537  11.201   4.820  0.2145 -0.1939 -0.4084
  374MOL0     C49256   0.431  11.297   4.863  0.4004  0.8196  0.0631
  374MOL0     C49257   0.327  11.333   4.755  0.0632  0.1665 -0.2954
  374MOL0     C49258   0.220  11.423   4.812  0.3358 -0.4609 -0.2001
  374MOL0     C49259   0.120  11.471   4.701  0.3858 -0.2355 -0.3356
  374MOL0     O49260   0.009  11.546   4.757  0.0666  1.1099 -0.2996
  374MOL0     C49261  -0.102  11.584   4.683 -0.7286  0.1061  0.2282
  374MOL0     C49262  -0.217  11.621   4.741  0.7221 -0.4930  0.2763
  374MOL0     C49263  -0.337  11.650   4.672 -0.9080 -0.8689  0.3631
  374MOL0     C49264  -0.349  11.628   4.533  0.5109  0.6318  1.0119
  374MOL0     C49265  -0.481  11.642   4.466  0.3587 -0.1325 -0.6251
  374MOL0     O49266  -0.581  11.683   4.548  1.1909 -0.5509  0.1599
  374MOL0     C49267  -0.709  11.711   4.501 -0.3398 -1.0543 -0.5804
  374MOL0     C49268  -0.731  11.771   4.382  0.4083 -1.2116 -0.3085
  374MOL0     C49269  -0.865  11.774   4.324 -0.3471 -0.2140  0.4307
  374MOL0     C49270  -0.967  11.720   4.398  0.1542  0.4137 -0.7339
  374MOL0     O49271  -1.095  11.708   4.350  0.0674 -0.5284 -0.5189
  374MOL0     C49272  -1.129  11.748   4.223  1.0244 -1.0063  0.9834
  374MOL0     C49273  -1.272  11.714   4.197 -1.0763  0.3288 -0.2798
  374MOL0     C49274  -1.324  11.774   4.059 -0.0345  0.2558  0.3488
  374MOL0     C49275  -1.465  11.741   4.044  0.1529  0.4233  0.5831
  374MOL0     C49276  -1.541  11.799   3.928 -0.5330  0.0001  0.2705
  374MOL0     C49277  -1.685  11.742   3.938  0.6525 -0.0899 -0.3475
  374MOL0     C49278  -1.792  11.801   3.838 -0.2289 -0.1576  0.1717
  374MOL0     C49279  -1.763  11.746   3.699  0.3846  1.2064 -0.4222
  374MOL0    Cl49280  -1.830  11.853   3.568  0.2637 -0.4633 -0.3538
  374MOL0     C49281  -0.947  11.674   4.533  0.4887  0.4537 -0.0245
  374MOL0     C49282  -0.813  11.665   4.576 -0.0426  0.8110  0.0476
  374MOL0     O49283  -0.489  11.626   4.342  0.6102 -0.0429 -0.6159
  374MOL0     C49284  -0.226  11.593   4.470  0.3807  0.6170 -0.5453
  374MOL0     C49285  -0.107  11.580   4.545 -0.0062 -0.0755  0.0658
  374MOL0     N49286   0.621  11.226   4.713  0.3150  0.6694 -0.4002
  374MOL0     N49287   0.700  11.130   4.692  0.3557 -0.1191 -0.0785
  374MOL0     C49288   1.622  10.422   4.789 -0.4184  0.4003 -1.0307
  374MOL0     C49289   1.757  10.412   4.815 -0.5000 -0.0296  0.0668
  374MOL0     C49290   2.175  10.269   4.854 -0.4683  0.5912  0.4045
  374MOL0     C49291   2.251  10.229   4.970  0.0922  0.9768  0.9374
  374MOL0     C49292   2.392  10.235   4.972 -0.7134 -0.1303 -0.7433
  374MOL0     C49293   2.458  10.262   4.846  0.1878 -0.9521  0.5781
  374MOL0     O49294   2.589  10.271   4.830  0.2045 -0.1815  0.2917
  374MOL0     C49295   2.676  10.244   4.937 -0.9124 -0.9020 -0.1401
  374MOL0     C49296   2.688  10.357   5.039 -0.3349 -0.2765 -0.2799
  374MOL0     C49297   2.819  10.346   5.114  0.2726 -0.0901  0.0918
  374MOL0     C49298   2.885  10.477   5.148 -0.0272 -0.1875 -0.3524
  374MOL0     C49299   2.943  10.539   5.033 -0.4229  0.5581 -0.0187
  374MOL0     C49300   2.975  10.571   4.918  0.1137  0.7829 -0.0198
  374MOL0     C49301   2.383  10.275   4.725 -0.1576  0.3085  0.1769
  374MOL0     C49302   2.247  10.281   4.733  1.5115 -0.3095 -0.2972
  374MOL0     H49303   1.832  10.182   4.567  2.4374  2.1500  1.0577
  374MOL0     H49304   1.580  10.165   4.570 -1.3205 -1.1048  1.6062
  374MOL0     H49305   1.379  10.515   4.623 -1.2023  1.3976 -0.1865
  374MOL0     H49306   1.336  10.502   4.804  1.4066 -0.1705  0.7112
  374MOL0     H49307   1.139  10.370   4.732  2.7319  0.9028  1.9590
  374MOL0     H49308   1.197  10.361   4.564 -2.2995 -0.6564  0.0939
  374MOL0     H49309   1.014  10.511   4.581  0.6826  0.0591 -3.8512
  374MOL0     H49310   1.153  10.597   4.523 -0.9070  0.6080  0.0922
  374MOL0     H49311   1.079  10.603   4.815  0.4588 -0.9714 -0.7941
  374MOL0     H49312   1.205  10.684   4.744 -0.4273  1.8537  0.3461
  374MOL0     H49313   1.043  10.823   4.608 -0.9626 -0.8733 -1.8083
  374MOL0     H49314   1.007  10.847   4.778 -4.6555  0.6832 -0.5220
  374MOL0     H49315   0.843  10.672   4.775  0.4679  1.6374 -0.2766
  374MOL0     H49316   0.835  10.685   4.588  0.1529  2.4951 -1.9191
  374MOL0     H49317   0.799  10.914   4.604  0.7613 -0.0503  0.5145
  374MOL0     H49318   0.665  10.811   4.666 -0.2633  1.1816 -1.9690
  374MOL0     H49319   0.864  10.975   4.838  1.3230 -0.1202 -2.6318
  374MOL0     H49320   0.719  10.887   4.900  2.2543  0.8289  1.0162
  374MOL0     H49321   0.533  11.032   4.958  1.7322 -3.7097 -0.6171
  374MOL0     H49322   0.495  11.377   4.902  1.1298  1.9103 -3.1150
  374MOL0     H49323   0.379  11.244   4.944 -3.0176  0.8478 -1.9379
  374MOL0     H49324   0.281  11.240   4.722  0.6356 -0.9865  1.9698
  374MOL0     H49325   0.367  11.384   4.666  1.0970 -1.8351 -1.0339
  374MOL0     H49326   0.158  11.371   4.886 -1.5329 -1.0107 -2.0452
  374MOL0     H49327   0.263  11.506   4.870  0.9056 -1.1798  0.4146
  374MOL0     H49328   0.071  11.386   4.652 -1.6705 -1.1563  2.9848
  374MOL0     H49329   0.169  11.540   4.631  0.3136  0.1886  0.0309
  374MOL0     H49330  -0.235  11.640   4.846 -0.9270  1.8047 -0.3334
  374MOL0     H49331  -0.426  11.680   4.725  0.8263  2.9250  1.5075
  374MOL0     H49332  -0.645  11.808   4.327 -0.8224 -2.0969 -2.9796
  374MOL0     H49333  -0.874  11.816   4.225 -2.2546  1.3273  1.1851
  374MOL0     H49334  -1.067  11.697   4.148 -2.4951 -1.3116 -1.9818
  374MOL0     H49335  -1.127  11.857   4.223 -1.9726 -0.8164 -1.5215
  374MOL0     H49336  -1.334  11.749   4.280  0.5219  2.0543  0.2505
  374MOL0     H49337  -1.273  11.604   4.199  1.9073  0.2285 -0.5734
  374MOL0     H49338  -1.263  11.748   3.972  0.8861  0.8109  0.8266
  374MOL0     H49339  -1.325  11.882   4.071 -0.2793  0.2505  0.3852
  374MOL0     H49340  -1.482  11.633   4.034  0.1695  0.3869  0.9183
  374MOL0     H49341  -1.518  11.754   4.139  1.0512  1.5054  0.9586
  374MOL0     H49342  -1.499  11.777   3.830  2.1439 -2.8765  1.8960
  374MOL0     H49343  -1.531  11.907   3.944 -0.0104 -0.2956  2.2055
  374MOL0     H49344  -1.723  11.779   4.034 -0.0882  3.7726 -1.9853
  374MOL0     H49345  -1.703  11.634   3.949 -3.2333  0.6122  2.0232
  374MOL0     H49346  -1.895  11.778   3.867 -0.1226 -2.0981 -0.8487
  374MOL0     H49347  -1.766  11.907   3.832  1.2547 -0.4615  0.8134
  374MOL0     H49348  -1.796  11.645   3.671  0.8899  0.6726  0.8134
  374MOL0     H49349  -1.654  11.748   3.686  0.2020 -0.0858 -2.6562
  374MOL0     H49350  -1.030  11.644   4.597  0.4054 -2.8359 -1.4346
  374MOL0     H49351  -0.791  11.628   4.676 -2.1273 -3.0368 -0.7323
  374MOL0     H49352  -0.237  11.555   4.369 -1.6555 -0.4179 -0.0036
  374MOL0     H49353  -0.016  11.573   4.486  0.8283 -0.5789  1.3610
  374MOL0     H49354   1.570  10.491   4.855  1.9578  0.0506  1.3451
  374MOL0     H49355   1.806  10.472   4.891 -0.4944  1.3227 -0.9832
  374MOL0     H49356   2.209  10.198   5.065  0.0750 -1.6379  0.1499
  374MOL0     H49357   2.433  10.207   5.068  0.8417 -2.1902 -1.9181
  374MOL0     H49358   2.775  10.234   4.891  0.0924  1.0939  1.4239
  374MOL0     H49359   2.647  10.149   4.984 -0.1969 -1.2497 -0.3760
  374MOL0     H49360   2.689  10.450   4.980 -0.0262 -0.1004  0.0010
  374MOL0     H49361   2.607  10.359   5.112  1.6013 -0.3762  1.9858
  374MOL0     H49362   2.893  10.283   5.065  0.9410 -0.3549  1.3871
  374MOL0     H49363   2.789  10.296   5.207  3.2399 -1.7867  0.2456
  374MOL0     H49364   2.822  10.544   5.208 -1.3526 -0.6657 -1.1744
  374MOL0     H49365   2.963  10.440   5.216 -0.1498 -0.0727 -0.1455
  374MOL0     H49366   3.011  10.610   4.824 -1.1329 -0.1075 -0.9118
  374MOL0     H49367   2.430  10.281   4.627 -0.6368 -0.6192 -0.1276
  374MOL0     H49368   2.192  10.314   4.645  3.2676 -0.0274 -1.3472
  375MOL0     O49369   5.522   8.001   0.387  0.0676 -0.0989  0.9801
  375MOL0     C49370   5.609   8.041   0.455 -0.3033 -0.0342 -0.6306
  375MOL0     O49371   5.583   8.108   0.570 -0.3565  0.1591 -0.5886
  375MOL0     C49372   5.458   8.148   0.618 -0.0753  0.5249  0.1161
  375MOL0     C49373   5.431   8.280   0.620  0.1536 -0.3971  1.2542
  375MOL0     C49374   5.328   8.335   0.688  0.1837 -0.1115  0.7526
  375MOL0     C49375   5.233   8.251   0.753 -0.4159  0.3878 -0.4370
  375MOL0     O49376   5.140   8.322   0.830  0.6700 -0.5130 -0.3117
  375MOL0     C49377   5.072   8.250   0.931 -0.8658 -0.1195 -0.0697
  375MOL0     C49378   4.957   8.338   0.991 -0.0431  0.7538  0.0310
  375MOL0     C49379   4.993   8.462   1.075  0.7982  0.4077  0.7439
  375MOL0     C49380   4.881   8.522   1.155 -0.2769  0.3679 -0.0312
  375MOL0     C49381   4.905   8.656   1.225 -0.7229  0.1825 -0.0721
  375MOL0     C49382   5.043   8.663   1.300  0.3380  0.3679  0.0336
  375MOL0     C49383   5.050   8.558   1.406 -0.0034  0.4496  0.2956
  375MOL0     C49384   5.131   8.602   1.529  0.8063  0.2701  0.6551
  375MOL0     N49385   5.269   8.659   1.502  0.4854 -0.2686  0.1719
  375MOL0     C49386   5.386   8.592   1.520 -0.4916  0.2612 -0.4624
  375MOL0     C49387   5.489   8.675   1.475  0.5576  0.4930 -0.1099
  375MOL0     C49388   5.631   8.636   1.475  0.4758 -0.5761  0.2931
  375MOL0     C49389   5.709   8.710   1.581  0.7508 -1.4014 -0.1829
  375MOL0     C49390   5.864   8.716   1.578 -0.8435  0.1239  0.0213
  375MOL0     C49391   5.916   8.586   1.519  0.0874 -0.0426 -0.5213
  375MOL0     O49392   6.055   8.577   1.538  0.2198 -0.3078 -0.0163
  375MOL0     C49393   6.144   8.599   1.439  0.7570 -0.2219  1.5320
  375MOL0     C49394   6.123   8.697   1.338 -0.5846 -0.0905  1.0629
  375MOL0     C49395   6.232   8.739   1.247  0.8888  0.1906  0.7216
  375MOL0     C49396   6.354   8.671   1.262 -0.3528 -0.5266  0.9438
  375MOL0     C49397   6.461   8.695   1.160 -0.4001  0.1599  0.6177
  375MOL0     O49398   6.451   8.788   1.061  0.3451  0.2845  0.6644
  375MOL0     C49399   6.559   8.809   0.977 -0.0494 -0.1237 -0.0839
  375MOL0     C49400   6.576   8.725   0.870 -0.1340  0.2893 -0.1598
  375MOL0     C49401   6.684   8.750   0.785  0.1899  1.4552  0.3111
  375MOL0     C49402   6.787   8.840   0.802  0.4508  0.7418 -0.6966
  375MOL0     O49403   6.885   8.862   0.708  1.2198  0.3359  0.8654
  375MOL0     C49404   7.016   8.894   0.757  0.0645 -0.2064  0.2859
  375MOL0     C49405   7.128   8.843   0.660 -0.2096  0.1153  0.0447
  375MOL0     C49406   7.192   8.946   0.553  0.7639  0.8889 -0.8509
  375MOL0     C49407   7.081   8.985   0.450 -0.4083  0.1804  0.2977
  375MOL0     C49408   7.143   9.075   0.338 -0.8452  0.2441  0.2857
  375MOL0     C49409   7.257   9.019   0.248 -0.2130  0.5587  0.3524
  375MOL0     C49410   7.304   9.116   0.136  0.0877  0.3044 -0.4265
  375MOL0     C49411   7.406   9.049   0.048  0.6877 -0.4125  0.1438
  375MOL0    Cl49412   7.564   9.017   0.134  0.2571 -0.5769 -0.4014
  375MOL0     C49413   6.780   8.921   0.911  0.0775 -0.2486 -0.8289
  375MOL0     C49414   6.668   8.897   1.003 -0.8498 -0.0756 -0.3323
  375MOL0     O49415   6.560   8.615   1.163 -1.0133 -0.3982 -0.6104
  375MOL0     C49416   6.373   8.574   1.363 -0.2700  0.2491 -0.3282
  375MOL0     C49417   6.269   8.537   1.456  0.9795  0.1394 -0.0973
  375MOL0     N49418   5.432   8.793   1.430  0.8901  0.8419 -0.8371
  375MOL0     N49419   5.298   8.782   1.451  0.1140  0.7058 -0.0999
  375MOL0     C49420   5.260   8.112   0.749  0.2873 -0.5588 -0.7922
  375MOL0     C49421   5.374   8.063   0.686 -0.0928  0.6209  0.0663
  375MOL0     C49422   5.751   8.011   0.414 -0.7142  0.3129 -0.2842
  375MOL0     C49423   5.780   7.924   0.307 -0.2247 -0.0868 -0.3235
  375MOL0     C49424   5.910   7.900   0.261  0.1897 -0.2170  0.1143
  375MOL0     C49425   6.018   7.976   0.311 -0.4625  0.3704 -0.5978
  375MOL0     O49426   6.149   7.975   0.269  0.4701  0.4821  0.3580
  375MOL0     C49427   6.246   7.905   0.358 -0.9799  0.6263  0.0819
  375MOL0     C49428   6.391   7.924   0.285 -1.2071 -0.1995  0.0817
  375MOL0     C49429   6.488   7.810   0.313 -0.3262  0.4866  0.5023
  375MOL0     C49430   6.558   7.800   0.452  1.1858 -0.0644 -0.1569
  375MOL0     C49431   6.675   7.891   0.467 -1.1269 -0.6366 -0.1936
  375MOL0     C49432   6.756   7.977   0.483  0.0031  0.9389  0.1113
  375MOL0     C49433   5.991   8.069   0.411  1.4581  0.0121  0.8310
  375MOL0     C49434   5.862   8.086   0.469 -0.0119 -0.1602 -0.0351
  375MOL0     H49435   5.511   8.352   0.599 -0.8886  0.8395  1.3828
  375MOL0     H49436   5.328   8.444   0.693  0.4119 -0.1168  0.8982
  375MOL0     H49437   5.148   8.220   1.005 -0.4753  0.5026 -0.2146
  375MOL0     H49438   5.025   8.160   0.890 -0.6723  0.1879 -0.9687
  375MOL0     H49439   4.905   8.263   1.052  2.4993 -1.7257 -0.6025
  375MOL0     H49440   4.885   8.367   0.914  0.6467  2.1071 -0.1275
  375MOL0     H49441   5.024   8.535   0.999  2.0963  0.4161  1.2429
  375MOL0     H49442   5.087   8.442   1.128 -0.0028 -0.3902  1.9168
  375MOL0     H49443   4.800   8.533   1.083 -0.0448 -0.8918 -0.5139
  375MOL0     H49444   4.843   8.452   1.230  1.0818  0.2138  0.5451
  375MOL0     H49445   4.818   8.678   1.286 -0.9347  2.0068 -0.9545
  375MOL0     H49446   4.898   8.733   1.147 -0.6875  1.7497  1.4145
  375MOL0     H49447   5.056   8.759   1.350  0.9320  0.1241  0.3458
  375MOL0     H49448   5.126   8.655   1.229 -1.6062  0.9786 -2.4956
  375MOL0     H49449   4.951   8.540   1.449  0.3386  0.6279  1.1714
  375MOL0     H49450   5.091   8.466   1.365  1.2162  0.5460  1.2686
  375MOL0     H49451   5.149   8.515   1.592  0.2591 -0.9438 -0.7847
  375MOL0     H49452   5.070   8.674   1.584 -2.6339  0.1797 -2.6137
  375MOL0     H49453   5.400   8.496   1.570 -2.1171  1.0809  1.6880
  375MOL0     H49454   5.666   8.649   1.372 -2.1503  3.3137 -0.3289
  375MOL0     H49455   5.625   8.531   1.505  1.3938 -1.1285 -1.3667
  375MOL0     H49456   5.682   8.668   1.678 -2.7217 -0.1895 -0.4753
  375MOL0     H49457   5.671   8.813   1.573  0.5775 -1.5400 -1.3032
  375MOL0     H49458   5.907   8.795   1.516  4.0036 -2.0194  0.1673
  375MOL0     H49459   5.898   8.716   1.682 -2.8181 -1.9832  0.7547
  375MOL0     H49460   5.882   8.563   1.418  0.6056 -1.8390 -0.3174
  375MOL0     H49461   5.879   8.503   1.579  1.2132  0.2509  0.6366
  375MOL0     H49462   6.027   8.746   1.331 -0.6710 -0.3495  0.3997
  375MOL0     H49463   6.212   8.814   1.171  2.2672 -0.3567 -0.2341
  375MOL0     H49464   6.507   8.643   0.853 -0.3771  0.2409  1.0056
  375MOL0     H49465   6.697   8.686   0.698 -1.4600  3.0111 -1.1679
  375MOL0     H49466   7.038   8.860   0.858 -1.5352  0.3268  0.8535
  375MOL0     H49467   7.017   9.004   0.762 -0.3784 -0.1196 -0.9502
  375MOL0     H49468   7.098   8.747   0.616  2.6472 -0.5301 -0.7029
  375MOL0     H49469   7.216   8.815   0.719 -0.3764  5.0179  3.2054
  375MOL0     H49470   7.280   8.901   0.507  0.5431 -0.9837  0.4460
  375MOL0     H49471   7.224   9.044   0.591 -3.9719  2.4044 -0.1614
  375MOL0     H49472   7.052   8.892   0.399  1.3716 -0.1616 -0.1532
  375MOL0     H49473   6.999   9.033   0.505  0.2758  3.5669 -1.3601
  375MOL0     H49474   7.178   9.170   0.381 -1.4353  1.4498 -1.7597
  375MOL0     H49475   7.065   9.099   0.266  0.1177  0.9209 -0.5575
  375MOL0     H49476   7.235   8.918   0.210  2.1640  0.6446 -1.4540
  375MOL0     H49477   7.344   9.006   0.313 -0.4404  0.4870  0.6463
  375MOL0     H49478   7.214   9.159   0.091 -1.8727 -1.7899  1.1914
  375MOL0     H49479   7.356   9.189   0.198  0.6461 -1.2490  1.0301
  375MOL0     H49480   7.431   9.117  -0.033 -3.1810  1.6747  0.4306
  375MOL0     H49481   7.367   8.954   0.010 -3.2179  1.2656 -0.5009
  375MOL0     H49482   6.858   8.987   0.948 -1.5700  0.1360  2.3074
  375MOL0     H49483   6.667   8.934   1.106 -1.1761 -1.1786  0.0756
  375MOL0     H49484   6.472   8.532   1.378  1.0350  2.1378 -2.7991
  375MOL0     H49485   6.276   8.492   1.554 -1.1202 -2.6846 -1.1192
  375MOL0     H49486   5.197   8.045   0.806  0.7770 -1.8356 -1.7163
  375MOL0     H49487   5.418   7.964   0.687 -0.1657  0.5824 -0.4029
  375MOL0     H49488   5.703   7.870   0.253  0.4098 -1.9637  0.5584
  375MOL0     H49489   5.926   7.821   0.189  2.3820 -0.0844  0.3915
  375MOL0     H49490   6.222   7.799   0.366  1.8512  0.0330  2.2557
  375MOL0     H49491   6.224   7.943   0.458 -1.3135 -2.5554  1.3215
  375MOL0     H49492   6.381   7.927   0.176 -3.1160  0.2873  0.2241
  375MOL0     H49493   6.421   8.026   0.310 -1.9521 -0.1795  0.9444
  375MOL0     H49494   6.574   7.810   0.246  0.5298 -1.3799  1.5216
  375MOL0     H49495   6.439   7.714   0.295 -0.9599  0.4249  2.3502
  375MOL0     H49496   6.491   7.821   0.535  2.9814 -1.3591  1.7229
  375MOL0     H49497   6.600   7.701   0.471  0.2079 -0.6721 -1.0826
  375MOL0     H49498   6.832   8.050   0.508  1.2113 -0.7536  1.6433
  375MOL0     H49499   6.070   8.141   0.426  1.7507 -0.6974  3.0207
  375MOL0     H49500   5.851   8.164   0.544  0.5212 -0.6717  0.5949
  376MOL0     O49501   2.315   8.267   1.074 -0.9881  0.0765  1.2619
  376MOL0     C49502   2.280   8.156   1.114 -0.1503 -0.0101 -0.0196
  376MOL0     O49503   2.158   8.101   1.091 -0.4590 -0.4721  0.7892
  376MOL0     C49504   2.058   8.190   1.050 -0.7655  0.4278 -0.1600
  376MOL0     C49505   1.990   8.156   0.932  0.2495  0.7514 -0.4674
  376MOL0     C49506   1.894   8.242   0.881  0.5697  0.1193 -0.4460
  376MOL0     C49507   1.850   8.356   0.951  0.3714  0.0847 -0.5746
  376MOL0     O49508   1.750   8.444   0.921 -0.3131 -0.1789  1.0530
  376MOL0     C49509   1.701   8.460   0.787 -1.1292 -1.1699  0.8457
  376MOL0     C49510   1.555   8.527   0.772  0.1014  0.3658  0.6750
  376MOL0     C49511   1.453   8.468   0.874  0.8310  0.1384 -0.2982
  376MOL0     C49512   1.307   8.507   0.845 -0.0156 -0.2881  0.4897
  376MOL0     C49513   1.209   8.444   0.948 -0.4224  0.1004  0.3727
  376MOL0     C49514   1.073   8.503   0.912 -0.3740 -0.0762 -0.5936
  376MOL0     C49515   0.957   8.450   0.997  0.0040  0.1999 -1.1195
  376MOL0     C49516   0.926   8.297   0.979  0.3602 -0.8463  0.5548
  376MOL0     N49517   0.910   8.258   0.841  0.5050 -0.5957  0.4365
  376MOL0     C49518   0.836   8.327   0.741 -0.7734  0.1077 -0.7941
  376MOL0     C49519   0.833   8.256   0.632  0.3673 -0.0531 -0.7389
  376MOL0     C49520   0.753   8.291   0.509  0.4700  0.0996  0.0747
  376MOL0     C49521   0.691   8.172   0.450 -0.0113  0.1380 -0.3171
  376MOL0     C49522   0.655   8.203   0.298  0.2077  0.0926 -1.0519
  376MOL0     C49523   0.581   8.082   0.241 -0.8820 -1.3809 -0.5235
  376MOL0     O49524   0.445   8.086   0.275 -0.1794 -0.1336 -0.3347
  376MOL0     C49525   0.364   8.022   0.190  0.2374 -0.1252 -0.0976
  376MOL0     C49526   0.232   8.062   0.197 -0.5151 -1.0983  0.2050
  376MOL0     C49527   0.127   8.010   0.125 -0.8414 -0.5417  0.3918
  376MOL0     C49528   0.146   7.885   0.062  0.9336 -0.2086 -0.5655
  376MOL0     C49529   0.040   7.806  -0.009 -0.2003  0.3150 -0.0655
  376MOL0     O49530  -0.085   7.869   0.004  0.0553 -0.1080  0.1601
  376MOL0     C49531  -0.186   7.818  -0.069  0.2728  0.4365  0.5562
  376MOL0     C49532  -0.222   7.685  -0.092  0.0174  1.1315 -0.2423
  376MOL0     C49533  -0.341   7.651  -0.162 -0.1832  0.1979  0.6384
  376MOL0     C49534  -0.418   7.750  -0.210  0.0035  0.6657 -0.7509
  376MOL0     O49535  -0.532   7.710  -0.273 -0.5251  0.3875 -0.2459
  376MOL0     C49536  -0.572   7.771  -0.403  0.2247 -0.5514  0.2928
  376MOL0     C49537  -0.696   7.692  -0.448 -0.1426 -0.3508 -0.4168
  376MOL0     C49538  -0.807   7.679  -0.353  0.2280 -0.2184 -0.8476
  376MOL0     C49539  -0.917   7.579  -0.399 -0.6717 -0.7808 -0.6867
  376MOL0     C49540  -1.024   7.549  -0.288  0.5359 -0.5636  0.5984
  376MOL0     C49541  -0.992   7.430  -0.190 -0.4898 -0.6368 -0.8153
  376MOL0     C49542  -1.084   7.437  -0.071  0.6452 -0.1646  0.5587
  376MOL0     C49543  -1.035   7.324   0.016 -1.0450 -0.3506  0.7289
  376MOL0    Cl49544  -1.181   7.283   0.115 -0.2801 -0.5233 -0.4771
  376MOL0     C49545  -0.385   7.881  -0.184 -0.3689 -0.4746 -0.1746
  376MOL0     C49546  -0.265   7.921  -0.117  0.0490 -0.6302 -0.9287
  376MOL0     O49547   0.063   7.692  -0.055  0.0703 -0.5589 -0.8344
  376MOL0     C49548   0.276   7.829   0.076 -0.5871  0.1853 -1.1554
  376MOL0     C49549   0.380   7.898   0.137 -0.4428  0.2931 -0.0937
  376MOL0     N49550   0.903   8.141   0.661  0.0778  0.6378 -0.4223
  376MOL0     N49551   0.954   8.150   0.782 -0.4855 -0.2276  0.6786
  376MOL0     C49552   1.918   8.389   1.070  0.4838 -0.1969  0.2463
  376MOL0     C49553   2.021   8.306   1.114  0.1541  0.1229  0.1036
  376MOL0     C49554   2.376   8.057   1.172  1.0702 -0.4799 -0.2046
  376MOL0     C49555   2.513   8.096   1.159  0.3530 -0.5501 -0.8294
  376MOL0     C49556   2.610   8.020   1.224  0.7609 -0.3376  0.5403
  376MOL0     C49557   2.580   7.917   1.315  0.3366 -0.2143 -0.3135
  376MOL0     O49558   2.682   7.862   1.383 -0.1839 -0.6155 -0.0935
  376MOL0     C49559   2.656   7.735   1.448  0.0043 -1.0130  0.3137
  376MOL0     C49560   2.776   7.680   1.517 -0.4204  0.5996 -0.0520
  376MOL0     C49561   2.886   7.643   1.420 -0.3699 -1.0188 -0.0400
  376MOL0     C49562   3.010   7.587   1.497  0.2846 -0.0584  0.9426
  376MOL0     C49563   3.024   7.444   1.508 -0.2097 -0.2850 -0.3379
  376MOL0     C49564   3.029   7.322   1.514 -0.0446  0.3966 -0.2928
  376MOL0     C49565   2.443   7.883   1.325 -0.7128  0.1904  1.2396
  376MOL0     C49566   2.340   7.947   1.257  0.4313 -0.0571 -0.1660
  376MOL0     H49567   2.014   8.066   0.875 -0.9159  0.9455 -1.3094
  376MOL0     H49568   1.843   8.210   0.791 -1.5942 -0.0995  0.7816
  376MOL0     H49569   1.682   8.361   0.745  0.0758 -0.4613 -1.5604
  376MOL0     H49570   1.776   8.504   0.722  0.8560  0.4777  3.9907
  376MOL0     H49571   1.516   8.517   0.670 -1.1205  0.7897  1.0775
  376MOL0     H49572   1.556   8.633   0.801 -1.8066  0.6376 -0.1311
  376MOL0     H49573   1.477   8.510   0.972  0.1905  2.4930 -1.0822
  376MOL0     H49574   1.454   8.359   0.886  0.0908  0.3849  2.5009
  376MOL0     H49575   1.288   8.614   0.854 -0.6694 -0.5386  2.9884
  376MOL0     H49576   1.278   8.457   0.752  3.9203  1.8404 -2.1577
  376MOL0     H49577   1.220   8.471   1.054 -0.7742 -2.7798  1.2344
  376MOL0     H49578   1.209   8.336   0.959 -1.4905  0.0581  0.0661
  376MOL0     H49579   1.052   8.483   0.807  1.1577  2.3482 -1.4577
  376MOL0     H49580   1.069   8.611   0.930 -1.9374 -0.3070  0.6396
  376MOL0     H49581   0.980   8.473   1.101 -1.5384  5.2549 -1.6115
  376MOL0     H49582   0.867   8.506   0.970 -0.1261  0.3895 -0.3202
  376MOL0     H49583   0.829   8.267   1.019  0.7037  0.8354  2.8840
  376MOL0     H49584   1.001   8.233   1.027  3.1754 -0.4742 -2.9301
  376MOL0     H49585   0.779   8.416   0.765 -1.2516 -0.4938  0.3715
  376MOL0     H49586   0.814   8.334   0.429 -1.1706  0.3952 -1.0859
  376MOL0     H49587   0.673   8.362   0.536  1.9181  1.3666  1.2603
  376MOL0     H49588   0.603   8.142   0.507  1.7171  0.3946  2.7113
  376MOL0     H49589   0.765   8.093   0.467  0.4386  0.4035 -1.0076
  376MOL0     H49590   0.591   8.291   0.295  0.4102  0.2245 -1.5396
  376MOL0     H49591   0.751   8.221   0.249  1.7032 -0.7390  1.3830
  376MOL0     H49592   0.620   7.988   0.283  1.4301  0.3738  1.5987
  376MOL0     H49593   0.591   8.088   0.132  1.7687  2.7024 -0.2941
  376MOL0     H49594   0.181   8.141   0.252  0.5647 -0.6974  0.6627
  376MOL0     H49595   0.029   8.047   0.151 -1.3416 -0.7315 -1.1458
  376MOL0     H49596  -0.158   7.612  -0.045 -1.0760  0.0028 -0.4531
  376MOL0     H49597  -0.373   7.548  -0.172  0.7071  0.0438 -1.1895
  376MOL0     H49598  -0.504   7.774  -0.488 -2.5631  0.3740 -2.0728
  376MOL0     H49599  -0.603   7.874  -0.385 -3.6833 -1.3952 -0.5196
  376MOL0     H49600  -0.674   7.594  -0.492 -0.2784 -0.2691 -0.6706
  376MOL0     H49601  -0.744   7.748  -0.529 -2.2531 -1.2027  0.1821
  376MOL0     H49602  -0.849   7.775  -0.324  0.1336 -0.4781 -0.1077
  376MOL0     H49603  -0.775   7.636  -0.257  1.3315  2.3730  0.0219
  376MOL0     H49604  -0.971   7.633  -0.478  0.4657 -0.1905 -1.0747
  376MOL0     H49605  -0.865   7.488  -0.431  2.6178  1.1014 -1.0296
  376MOL0     H49606  -1.124   7.523  -0.324  0.1474 -0.2097  1.4024
  376MOL0     H49607  -1.041   7.639  -0.228  1.1917  1.6444 -2.2585
  376MOL0     H49608  -0.891   7.442  -0.149 -1.3019 -2.6099  2.0869
  376MOL0     H49609  -0.991   7.334  -0.244  1.2169 -0.9479 -0.2858
  376MOL0     H49610  -1.090   7.526  -0.007 -0.1532 -1.5593  2.5334
  376MOL0     H49611  -1.183   7.413  -0.111  0.4754 -1.5414  1.7112
  376MOL0     H49612  -0.954   7.366   0.076 -0.7026 -0.4215  0.3222
  376MOL0     H49613  -0.996   7.237  -0.037 -1.1724 -0.0785  0.1827
  376MOL0     H49614  -0.460   7.957  -0.207  0.0416  0.4158  1.2526
  376MOL0     H49615  -0.248   8.028  -0.106 -2.7879 -0.2652  0.8735
  376MOL0     H49616   0.284   7.726   0.042  0.0909  0.4542 -1.8392
  376MOL0     H49617   0.481   7.862   0.152  1.4249  4.3061 -1.6922
  376MOL0     H49618   1.890   8.475   1.131  2.5166 -0.0379  1.0332
  376MOL0     H49619   2.059   8.331   1.212  0.4529  1.1182 -0.2597
  376MOL0     H49620   2.534   8.185   1.101  0.2905 -0.3878 -0.6042
  376MOL0     H49621   2.716   8.044   1.215  1.4241 -2.3695  1.9617
  376MOL0     H49622   2.625   7.661   1.374  0.8262 -2.1401  1.0636
  376MOL0     H49623   2.581   7.759   1.524 -0.4410  1.3515 -0.8018
  376MOL0     H49624   2.813   7.758   1.585 -0.6599  0.5688  0.1155
  376MOL0     H49625   2.760   7.591   1.577  2.2674  0.5518  0.7515
  376MOL0     H49626   2.907   7.726   1.353  2.9141 -0.9368  0.8834
  376MOL0     H49627   2.841   7.562   1.363 -3.7279 -0.5851  1.7446
  376MOL0     H49628   3.092   7.619   1.432 -1.4885 -0.3648 -1.5974
  376MOL0     H49629   3.017   7.639   1.593 -1.2008  0.9142  0.5541
  376MOL0     H49630   3.015   7.216   1.518 -0.6876  0.5093  1.5260
  376MOL0     H49631   2.410   7.802   1.390 -0.2149  0.5033  1.9002
  376MOL0     H49632   2.233   7.935   1.254  0.6108 -1.7104 -1.1451
  377MOL0     O49633   0.629   5.559   5.011 -0.0354  0.7060  0.1290
  377MOL0     C49634   0.701   5.497   4.936 -0.3435 -0.0672 -0.2315
  377MOL0     O49635   0.657   5.450   4.818  0.6343  0.1639  0.8446
  377MOL0     C49636   0.529   5.443   4.792 -0.4045 -0.6893  0.6195
  377MOL0     C49637   0.486   5.527   4.702  0.0925  0.5169 -0.0335
  377MOL0     C49638   0.346   5.537   4.671  0.4982  0.3960  0.4072
  377MOL0     C49639   0.245   5.453   4.723  0.4624 -0.6570 -0.5512
  377MOL0     O49640   0.109   5.445   4.690  0.1081 -0.0213  0.2347
  377MOL0     C49641   0.062   5.557   4.610 -0.1445 -0.3936  0.7009
  377MOL0     C49642  -0.086   5.551   4.599 -1.3155  0.2507  1.4279
  377MOL0     C49643  -0.135   5.677   4.530  0.0584  0.1220 -0.0522
  377MOL0     C49644  -0.286   5.687   4.520  0.1245 -0.1183 -1.3071
  377MOL0     C49645  -0.353   5.599   4.419  0.1063  0.1692 -0.1022
  377MOL0     C49646  -0.510   5.604   4.425 -0.6390 -0.0464  0.8038
  377MOL0     C49647  -0.562   5.536   4.296  0.3780 -0.7930  0.3758
  377MOL0     C49648  -0.711   5.543   4.271  0.4546  0.1161  0.3319
  377MOL0     N49649  -0.794   5.659   4.303  0.0253 -1.3878 -0.2798
  377MOL0     C49650  -0.835   5.679   4.435 -0.0071  0.3834  0.1991
  377MOL0     C49651  -0.958   5.747   4.422  0.5487 -0.0334  0.3956
  377MOL0     C49652  -1.058   5.779   4.536 -0.2259  0.4375 -0.3151
  377MOL0     C49653  -1.211   5.733   4.515 -0.5004 -0.4150  0.7309
  377MOL0     C49654  -1.300   5.783   4.623 -0.7670 -0.3983  0.9189
  377MOL0     C49655  -1.421   5.690   4.621  0.1477  0.3605 -0.1998
  377MOL0     O49656  -1.495   5.711   4.746  0.4823  0.2756  0.5857
  377MOL0     C49657  -1.628   5.749   4.725  0.8366  0.1781 -0.7644
  377MOL0     C49658  -1.712   5.698   4.833  0.0560 -0.4712  1.2665
  377MOL0     C49659  -1.853   5.715   4.837 -0.3940  0.1931  0.7538
  377MOL0     C49660  -1.910   5.810   4.756 -0.0651 -0.0553 -0.0401
  377MOL0     C49661  -2.049   5.863   4.782  0.0335  1.2463 -0.1004
  377MOL0     O49662  -2.079   5.871   4.918  0.0548  1.1900  0.3719
  377MOL0     C49663  -2.195   5.933   4.962 -0.0746 -0.1006  0.1289
  377MOL0     C49664  -2.318   5.949   4.892  0.1010 -1.0099  0.4976
  377MOL0     C49665  -2.426   5.999   4.964  0.1574 -0.1998 -0.0481
  377MOL0     C49666  -2.418   6.038   5.100 -0.1414 -0.2334  0.3107
  377MOL0     O49667  -2.521   6.114   5.140  0.6227  0.0716  0.5123
  377MOL0     C49668  -2.533   6.141   5.275 -0.0663 -1.1215 -0.8081
  377MOL0     C49669  -2.677   6.205   5.309  0.0794  0.3039  0.5725
  377MOL0     C49670  -2.705   6.204   5.461 -0.9616  1.2245  0.3655
  377MOL0     C49671  -2.851   6.258   5.494  0.0846 -0.6273 -0.2264
  377MOL0     C49672  -2.916   6.191   5.609  0.1733  0.5744 -0.4773
  377MOL0     C49673  -3.066   6.248   5.624  0.1396  0.4323 -0.1900
  377MOL0     C49674  -3.173   6.195   5.530 -0.2004  0.5187  0.3214
  377MOL0     C49675  -3.311   6.231   5.577  0.1431 -0.7814  0.6033
  377MOL0    Cl49676  -3.438   6.149   5.472  0.3026  0.4304 -0.4815
  377MOL0     C49677  -2.298   6.025   5.167  0.5306  0.5862 -0.0274
  377MOL0     C49678  -2.186   5.969   5.100  0.8437  0.9562 -0.4759
  377MOL0     O49679  -2.111   5.915   4.690 -0.2998 -0.0884 -0.1716
  377MOL0     C49680  -1.832   5.858   4.649  0.0421  0.5434 -0.2599
  377MOL0     C49681  -1.699   5.828   4.629 -0.4597  0.3488  0.1225
  377MOL0     N49682  -0.973   5.787   4.287 -0.4989 -0.8832  0.3255
  377MOL0     N49683  -0.875   5.738   4.221 -0.1680  0.1225 -0.3564
  377MOL0     C49684   0.299   5.363   4.813  0.1430  0.8156  0.2989
  377MOL0     C49685   0.436   5.364   4.854 -0.1124 -0.2593  0.1478
  377MOL0     C49686   0.847   5.496   4.957  0.2817 -0.1938 -0.1951
  377MOL0     C49687   0.933   5.445   4.862 -0.4494 -0.2093  0.2062
  377MOL0     C49688   1.068   5.447   4.893  0.7145  0.5043 -0.2097
  377MOL0     C49689   1.124   5.486   5.014 -0.1745 -0.4529  0.4927
  377MOL0     O49690   1.267   5.493   5.024  0.3825 -0.2781  0.5141
  377MOL0     C49691   1.331   5.544   5.136 -0.3859 -1.1754 -0.0267
  377MOL0     C49692   1.379   5.429   5.218  0.9957 -0.2661 -0.3557
  377MOL0     C49693   1.479   5.332   5.133  0.9480 -0.5036 -0.2797
  377MOL0     C49694   1.551   5.222   5.205  0.1866  0.4913  0.7330
  377MOL0     C49695   1.630   5.138   5.120 -0.1274 -0.2626 -0.0417
  377MOL0     C49696   1.702   5.058   5.057 -0.5978  0.3622 -0.0263
  377MOL0     C49697   1.037   5.537   5.108  0.5157  0.8780 -1.0330
  377MOL0     C49698   0.900   5.552   5.081 -0.9109  0.6398  0.0699
  377MOL0     H49699   0.555   5.602   4.664 -1.1506  2.5268  1.4844
  377MOL0     H49700   0.312   5.618   4.607 -1.0215 -0.0584  0.6146
  377MOL0     H49701   0.104   5.558   4.509  0.9798  1.6969  1.1441
  377MOL0     H49702   0.085   5.651   4.661 -0.9075  0.1710  0.0380
  377MOL0     H49703  -0.128   5.544   4.700 -1.7946  3.1534  1.5176
  377MOL0     H49704  -0.099   5.465   4.532 -1.7833  1.6594 -0.3680
  377MOL0     H49705  -0.098   5.689   4.428 -0.0400  0.4935 -0.0458
  377MOL0     H49706  -0.092   5.761   4.587  2.1694  0.2215 -1.6733
  377MOL0     H49707  -0.325   5.658   4.618  0.3425  1.4447 -0.7308
  377MOL0     H49708  -0.306   5.794   4.513  2.3786  0.2750 -3.1770
  377MOL0     H49709  -0.314   5.501   4.448 -0.0453  0.5641  1.5610
  377MOL0     H49710  -0.313   5.641   4.326  0.9341 -1.6410 -0.5962
  377MOL0     H49711  -0.541   5.708   4.418 -3.5820 -0.9408 -2.3250
  377MOL0     H49712  -0.550   5.557   4.515  0.7036  1.5533  2.3026
  377MOL0     H49713  -0.520   5.591   4.211 -1.6858 -0.3036 -0.3814
  377MOL0     H49714  -0.528   5.433   4.283 -0.0271 -0.9878  0.8394
  377MOL0     H49715  -0.757   5.469   4.336  2.6660 -0.7428  1.0184
  377MOL0     H49716  -0.723   5.512   4.166  5.5732 -2.2841  0.1454
  377MOL0     H49717  -0.800   5.619   4.518  1.2749 -0.2818 -0.7774
  377MOL0     H49718  -1.043   5.884   4.565  2.0925  0.3231 -0.8514
  377MOL0     H49719  -1.025   5.723   4.624 -3.7908 -0.1541  0.7748
  377MOL0     H49720  -1.222   5.624   4.508  0.6878 -0.5296  0.2696
  377MOL0     H49721  -1.237   5.760   4.412 -0.8518 -0.7581  0.7282
  377MOL0     H49722  -1.238   5.786   4.712 -0.3229  0.4703  0.5957
  377MOL0     H49723  -1.332   5.886   4.602  0.7700 -0.1291 -0.2750
  377MOL0     H49724  -1.386   5.587   4.634  2.0300  0.4841 -3.3369
  377MOL0     H49725  -1.479   5.684   4.529  0.0240  1.4305 -0.2050
  377MOL0     H49726  -1.664   5.636   4.909  1.8071 -1.3009 -0.4044
  377MOL0     H49727  -1.920   5.676   4.914 -1.6839  2.4058  0.8421
  377MOL0     H49728  -2.331   5.921   4.788  0.2690  0.7273 -0.0225
  377MOL0     H49729  -2.522   6.021   4.919 -0.3226  2.3416  1.9467
  377MOL0     H49730  -2.454   6.216   5.287  1.1262 -1.7007 -4.0934
  377MOL0     H49731  -2.515   6.049   5.331  5.4398  0.1818  0.1161
  377MOL0     H49732  -2.747   6.139   5.257  2.3018 -0.4172 -1.6529
  377MOL0     H49733  -2.686   6.302   5.259  2.6134 -1.6008 -4.1689
  377MOL0     H49734  -2.641   6.280   5.508  0.8388  2.4901 -3.6694
  377MOL0     H49735  -2.685   6.100   5.489  1.4208  1.0315 -1.7197
  377MOL0     H49736  -2.852   6.367   5.502 -1.6718 -0.6963  1.0600
  377MOL0     H49737  -2.902   6.243   5.398 -1.4464  0.6385  0.3419
  377MOL0     H49738  -2.864   6.217   5.702 -0.9164 -1.0229  0.6081
  377MOL0     H49739  -2.905   6.083   5.609 -1.2249  0.4124 -0.9087
  377MOL0     H49740  -3.060   6.357   5.615 -1.9647  0.5051 -1.2433
  377MOL0     H49741  -3.100   6.240   5.728  1.4451 -1.5214  0.1301
  377MOL0     H49742  -3.154   6.232   5.429  1.4866  3.1859  1.5090
  377MOL0     H49743  -3.172   6.085   5.532  2.9058  0.4294 -1.3400
  377MOL0     H49744  -3.323   6.340   5.575  3.5101 -0.2136 -3.5954
  377MOL0     H49745  -3.329   6.195   5.678  2.5939 -4.4997 -0.1221
  377MOL0     H49746  -2.292   6.067   5.267  4.4688  1.8771 -0.6370
  377MOL0     H49747  -2.089   5.953   5.145  0.5029 -1.5523 -0.4740
  377MOL0     H49748  -1.889   5.913   4.575 -5.0271 -2.2116  1.1022
  377MOL0     H49749  -1.646   5.856   4.539 -3.0254 -1.7457 -2.2369
  377MOL0     H49750   0.217   5.300   4.846  0.0004  0.4850 -0.6432
  377MOL0     H49751   0.464   5.292   4.930  3.2991 -0.1549 -0.8408
  377MOL0     H49752   0.885   5.411   4.771 -0.5544  1.2363 -0.3041
  377MOL0     H49753   1.149   5.417   4.826  0.2102  1.5779 -1.3604
  377MOL0     H49754   1.276   5.610   5.205 -0.4547 -0.3528 -0.8540
  377MOL0     H49755   1.413   5.604   5.097  0.2847  0.2104  3.1726
  377MOL0     H49756   1.434   5.461   5.307  1.5534 -2.0100 -0.0334
  377MOL0     H49757   1.293   5.371   5.253 -1.9825  3.8796 -0.1432
  377MOL0     H49758   1.558   5.395   5.091  0.7589 -0.4602 -0.5744
  377MOL0     H49759   1.421   5.289   5.051 -0.8155 -2.0244  1.6713
  377MOL0     H49760   1.610   5.275   5.280 -2.6795  0.1886  3.3873
  377MOL0     H49761   1.476   5.156   5.250 -0.1819 -0.2680 -0.9165
  377MOL0     H49762   1.761   4.988   5.002  1.7650  1.1027  1.4137
  377MOL0     H49763   1.071   5.587   5.198 -3.3205  0.0716  1.0767
  377MOL0     H49764   0.830   5.590   5.154  0.2227 -2.4201  3.0177
  378MOL0     O49765   2.974   2.483   4.106  0.0370 -0.4149 -0.0555
  378MOL0     C49766   3.038   2.529   4.006  0.2230  0.6009  0.0946
  378MOL0     O49767   2.988   2.545   3.881  0.7058 -0.5336  0.0440
  378MOL0     C49768   2.866   2.496   3.851 -0.4505 -0.2631 -0.3368
  378MOL0     C49769   2.748   2.533   3.917  0.4449 -0.5123  1.4265
  378MOL0     C49770   2.623   2.489   3.856  0.7985  0.2690 -1.0103
  378MOL0     C49771   2.616   2.398   3.747  0.4519  0.1192 -0.6891
  378MOL0     O49772   2.498   2.358   3.691  0.3091  0.7726  0.5850
  378MOL0     C49773   2.400   2.453   3.656 -0.2369 -0.9550 -0.1733
  378MOL0     C49774   2.251   2.396   3.660 -0.1953 -0.5579  0.5001
  378MOL0     C49775   2.211   2.355   3.799  0.6320  0.0108  0.9677
  378MOL0     C49776   2.071   2.304   3.796  0.0951  0.3199  1.4097
  378MOL0     C49777   2.007   2.300   3.936  0.3730  0.5541  0.1783
  378MOL0     C49778   1.881   2.216   3.930 -0.2126  0.3965  0.6704
  378MOL0     C49779   1.775   2.229   4.044 -0.3910 -0.5022 -0.0497
  378MOL0     C49780   1.662   2.134   4.008 -0.0918  0.4637  0.0191
  378MOL0     N49781   1.544   2.143   4.102 -0.3595  0.2335 -0.2641
  378MOL0     C49782   1.545   2.127   4.242  0.1026  0.9163 -0.4121
  378MOL0     C49783   1.417   2.162   4.274 -0.4033 -0.4857  1.0882
  378MOL0     C49784   1.363   2.169   4.411  0.4416  0.3542 -0.2723
  378MOL0     C49785   1.205   2.177   4.426 -0.1605  0.2625 -0.5466
  378MOL0     C49786   1.137   2.038   4.407  0.5095  0.5694 -0.1173
  378MOL0     C49787   0.992   2.041   4.441  0.2058  0.5211 -0.6123
  378MOL0     O49788   0.931   2.170   4.409 -0.3228 -1.0394 -0.1783
  378MOL0     C49789   0.797   2.190   4.435 -1.0626 -0.0925  1.2006
  378MOL0     C49790   0.759   2.314   4.412 -1.0985 -0.7464 -0.5465
  378MOL0     C49791   0.625   2.362   4.430 -0.2520 -0.5241  0.5006
  378MOL0     C49792   0.529   2.267   4.452  0.1594 -1.1689  0.4303
  378MOL0     C49793   0.383   2.303   4.457  0.7274 -0.5426  0.5292
  378MOL0     O49794   0.289   2.204   4.470 -0.9145 -0.6405 -0.1827
  378MOL0     C49795   0.152   2.239   4.467 -0.7580 -0.5163 -0.2402
  378MOL0     C49796   0.057   2.134   4.450 -0.5617  0.2041  0.0089
  378MOL0     C49797  -0.084   2.146   4.465 -0.3975 -0.1122  0.5811
  378MOL0     C49798  -0.140   2.258   4.513 -0.2251 -0.0045  0.1584
  378MOL0     O49799  -0.269   2.280   4.532 -0.1716  0.4195 -0.0896
  378MOL0     C49800  -0.376   2.180   4.505 -0.9883  0.1994  0.5009
  378MOL0     C49801  -0.505   2.224   4.569 -0.3716  1.3210  0.8839
  378MOL0     C49802  -0.491   2.297   4.704 -0.1129 -0.0630  0.3303
  378MOL0     C49803  -0.627   2.320   4.768 -0.1572 -0.3896  0.1485
  378MOL0     C49804  -0.726   2.404   4.693 -0.1674 -0.5795  0.5725
  378MOL0     C49805  -0.846   2.421   4.788  0.4751 -0.4943  0.3070
  378MOL0     C49806  -0.937   2.529   4.727  0.1139 -1.0426  0.4741
  378MOL0     C49807  -0.995   2.475   4.595 -0.1434 -0.4322  0.0536
  378MOL0    Cl49808  -1.109   2.600   4.523  0.3323  0.2080 -0.4733
  378MOL0     C49809  -0.050   2.371   4.533  0.0376 -0.1666 -0.0547
  378MOL0     C49810   0.088   2.357   4.515 -0.0034  0.7969 -0.5571
  378MOL0     O49811   0.353   2.417   4.423  0.5931 -0.6863 -0.3412
  378MOL0     C49812   0.569   2.133   4.475 -0.0363 -1.0119  0.5808
  378MOL0     C49813   0.705   2.094   4.465  0.7735 -0.2632  0.1036
  378MOL0     N49814   1.344   2.189   4.157  0.0033  0.2168  0.9443
  378MOL0     N49815   1.427   2.181   4.053  0.6640  0.0097  0.0147
  378MOL0     C49816   2.738   2.367   3.687 -0.6976 -0.2257  0.3735
  378MOL0     C49817   2.858   2.412   3.742  0.7201  0.3866  0.1241
  378MOL0     C49818   3.177   2.569   4.025  0.4506  1.0501 -0.1325
  378MOL0     C49819   3.242   2.641   3.917 -0.3680 -0.2169 -0.0460
  378MOL0     C49820   3.375   2.689   3.930  0.2463  0.3731  0.6039
  378MOL0     C49821   3.443   2.676   4.052  0.4006 -0.3511 -0.5034
  378MOL0     O49822   3.575   2.709   4.075  0.5452 -0.6592 -0.1174
  378MOL0     C49823   3.653   2.768   3.967 -0.6940  0.8394 -0.2107
  378MOL0     C49824   3.792   2.709   3.977 -0.3125  0.4042 -0.0123
  378MOL0     C49825   3.795   2.547   3.956 -0.3130 -0.8733  0.3762
  378MOL0     C49826   3.912   2.471   4.019  0.5122 -0.0539 -0.1969
  378MOL0     C49827   4.039   2.508   3.961 -0.1202  0.2437 -0.2296
  378MOL0     C49828   4.156   2.519   3.925 -0.4193 -0.5309  0.9589
  378MOL0     C49829   3.380   2.625   4.157  0.1626 -0.2415  0.2614
  378MOL0     C49830   3.251   2.579   4.143 -0.3993  0.2219  0.0147
  378MOL0     H49831   2.754   2.602   4.001  1.0202  0.1326  0.8616
  378MOL0     H49832   2.533   2.513   3.912  1.4532 -1.7794  1.0551
  378MOL0     H49833   2.425   2.496   3.558  3.8721  0.2206  1.1754
  378MOL0     H49834   2.397   2.537   3.726  1.1253  1.3018 -2.6512
  378MOL0     H49835   2.238   2.303   3.604  4.1364 -2.1262  1.6924
  378MOL0     H49836   2.183   2.476   3.626 -1.3095 -1.3008  0.9221
  378MOL0     H49837   2.220   2.444   3.862 -1.5502  0.0163  1.3421
  378MOL0     H49838   2.272   2.273   3.836 -1.5735 -3.5863 -2.5471
  378MOL0     H49839   2.011   2.373   3.736 -0.3465 -0.7959  0.5140
  378MOL0     H49840   2.066   2.207   3.744  3.3729 -0.2057  1.8890
  378MOL0     H49841   1.984   2.403   3.966 -1.8027  0.0632  0.3995
  378MOL0     H49842   2.092   2.256   3.988  2.3544 -0.4660 -3.5568
  378MOL0     H49843   1.913   2.112   3.924  1.1504  0.8167  0.1301
  378MOL0     H49844   1.828   2.237   3.837 -2.0873 -1.3055  1.2890
  378MOL0     H49845   1.824   2.191   4.134  0.0502  0.4925  0.1350
  378MOL0     H49846   1.738   2.331   4.053 -0.2564 -0.5883  2.0112
  378MOL0     H49847   1.707   2.034   4.002  3.0289  1.7686  0.4366
  378MOL0     H49848   1.627   2.163   3.908  1.0799  1.7995 -0.0214
  378MOL0     H49849   1.628   2.098   4.306  1.1657  1.7506 -1.3716
  378MOL0     H49850   1.397   2.265   4.450 -1.2096  0.3829  1.2214
  378MOL0     H49851   1.415   2.092   4.468  1.3681 -0.4137 -2.0758
  378MOL0     H49852   1.160   2.234   4.345 -0.8633 -1.9867 -1.8189
  378MOL0     H49853   1.174   2.220   4.522 -0.2688 -0.6839 -0.1478
  378MOL0     H49854   1.142   1.995   4.307  0.4714 -1.2840  0.6416
  378MOL0     H49855   1.177   1.957   4.468 -2.2167 -1.4779 -0.8489
  378MOL0     H49856   0.985   2.015   4.547 -2.5484 -2.1637 -1.3198
  378MOL0     H49857   0.936   1.965   4.386  1.2582 -1.6440  1.1381
  378MOL0     H49858   0.833   2.393   4.400 -0.3013 -0.7753  2.8906
  378MOL0     H49859   0.606   2.468   4.423  1.2832 -0.3035 -0.8032
  378MOL0     H49860   0.105   2.038   4.432  0.3100  0.1183  2.5074
  378MOL0     H49861  -0.132   2.050   4.455  2.6729 -1.5971 -1.6505
  378MOL0     H49862  -0.349   2.086   4.553  3.2487  0.1547 -1.5314
  378MOL0     H49863  -0.391   2.160   4.398 -2.7057  0.7095  0.6212
  378MOL0     H49864  -0.569   2.137   4.587  3.3644 -1.3338  2.7030
  378MOL0     H49865  -0.554   2.292   4.498  0.8036 -2.7939 -4.6223
  378MOL0     H49866  -0.447   2.396   4.690 -1.7295  0.4736 -1.3551
  378MOL0     H49867  -0.426   2.246   4.775  1.3089  1.9465  0.5525
  378MOL0     H49868  -0.667   2.219   4.778 -1.3712 -0.1073 -1.5874
  378MOL0     H49869  -0.598   2.368   4.862  4.0735 -1.6688 -0.3012
  378MOL0     H49870  -0.744   2.372   4.590  4.3687 -2.3823  0.0999
  378MOL0     H49871  -0.673   2.499   4.679  2.7360 -2.1597  0.0074
  378MOL0     H49872  -0.808   2.442   4.889  0.7425 -1.0113  0.3176
  378MOL0     H49873  -0.907   2.330   4.787 -3.2347  1.6476 -3.7577
  378MOL0     H49874  -1.021   2.547   4.795 -0.5458 -0.9838 -0.3400
  378MOL0     H49875  -0.879   2.619   4.709 -3.0755  1.2026  0.4904
  378MOL0     H49876  -1.059   2.391   4.624 -4.0252  2.4586  0.6957
  378MOL0     H49877  -0.920   2.432   4.529 -0.2840 -0.9056  0.1975
  378MOL0     H49878  -0.081   2.470   4.562  4.0498  0.8151  1.5672
  378MOL0     H49879   0.144   2.443   4.550  2.1457 -0.7945  0.1216
  378MOL0     H49880   0.489   2.061   4.491 -1.4244  0.9270  3.0588
  378MOL0     H49881   0.730   1.995   4.501  1.3464  0.1734  0.9301
  378MOL0     H49882   2.745   2.314   3.592  1.4062 -0.2819  0.5225
  378MOL0     H49883   2.956   2.384   3.705  0.7873  1.2228 -0.3620
  378MOL0     H49884   3.185   2.645   3.824 -0.4081 -2.2722 -0.1501
  378MOL0     H49885   3.415   2.733   3.839 -0.4443 -2.1615 -1.0346
  378MOL0     H49886   3.654   2.877   3.975 -0.5373  1.1838 -3.5321
  378MOL0     H49887   3.610   2.736   3.872  2.2587  1.0490 -1.7266
  378MOL0     H49888   3.852   2.751   3.897 -0.2724 -0.0371 -0.2137
  378MOL0     H49889   3.835   2.742   4.072 -0.7218  1.8913 -0.3245
  378MOL0     H49890   3.788   2.523   3.850 -1.1788  2.0828 -0.3139
  378MOL0     H49891   3.707   2.500   4.001 -0.1548 -1.1781  0.3694
  378MOL0     H49892   3.901   2.485   4.127  2.3577 -1.0524  0.1517
  378MOL0     H49893   3.897   2.365   3.999  0.8335  0.5967 -4.9273
  378MOL0     H49894   4.253   2.538   3.883 -2.3139  5.4018 -1.8306
  378MOL0     H49895   3.432   2.631   4.252 -2.1048  2.1406  1.5196
  378MOL0     H49896   3.198   2.541   4.229 -0.4903  0.4487  0.0608
  379MOL0     O49897   6.014   9.637   2.211 -0.1678 -0.0521 -0.2152
  379MOL0     C49898   6.078   9.566   2.128  0.7700  0.7009  0.2723
  379MOL0     O49899   6.030   9.507   2.019  0.2823  0.5255 -0.2338
  379MOL0     C49900   5.893   9.530   1.989 -0.5056 -0.0664  0.7013
  379MOL0     C49901   5.813   9.419   1.954 -0.7135 -0.3050 -0.4162
  379MOL0     C49902   5.675   9.428   1.940 -1.7333  0.1901 -0.2189
  379MOL0     C49903   5.615   9.546   1.971  0.8217  0.2133 -0.9953
  379MOL0     O49904   5.479   9.549   1.961  0.2786  0.1604  0.4346
  379MOL0     C49905   5.407   9.660   2.030 -0.3529 -0.0005 -0.6400
  379MOL0     C49906   5.261   9.647   1.989  0.2657 -0.6041  0.6909
  379MOL0     C49907   5.174   9.744   2.080 -0.1581 -0.2224 -0.1319
  379MOL0     C49908   5.021   9.707   2.076 -0.0273  0.1678  0.4718
  379MOL0     C49909   4.943   9.810   2.151 -0.4648  0.4974 -0.2303
  379MOL0     C49910   4.798   9.759   2.184  0.0877  0.1689 -0.7513
  379MOL0     C49911   4.700   9.849   2.244 -0.0280 -0.9267  0.2050
  379MOL0     C49912   4.561   9.784   2.251 -0.3608 -0.3135  0.4365
  379MOL0     N49913   4.447   9.874   2.282 -0.4597 -0.1800 -0.2612
  379MOL0     C49914   4.321   9.875   2.235  0.1118  0.1604 -0.6937
  379MOL0     C49915   4.245   9.962   2.307  0.0132  0.0670  0.9643
  379MOL0     C49916   4.102  10.004   2.271  1.0987 -0.2436 -0.5605
  379MOL0     C49917   4.008   9.994   2.392 -0.0492 -0.4151  0.1318
  379MOL0     C49918   4.008  10.126   2.471 -0.0169  0.7128  0.0454
  379MOL0     C49919   3.922  10.235   2.413  0.6568 -0.2478  0.4961
  379MOL0     O49920   3.955  10.354   2.489 -0.3595 -0.0188  0.2098
  379MOL0     C49921   3.911  10.471   2.421 -0.7116 -0.0562 -1.2079
  379MOL0     C49922   3.812  10.484   2.331  0.1177  1.0838  0.2441
  379MOL0     C49923   3.781  10.602   2.271  0.0278 -0.7653 -1.6312
  379MOL0     C49924   3.837  10.722   2.321  0.0085  0.7248  0.5586
  379MOL0     C49925   3.787  10.849   2.270  0.2505 -0.3648 -0.2255
  379MOL0     O49926   3.656  10.833   2.223  0.0909  0.3691 -0.5906
  379MOL0     C49927   3.594  10.945   2.181  0.9084 -0.2135  0.9604
  379MOL0     C49928   3.604  11.078   2.231  0.6134 -0.2717  0.4508
  379MOL0     C49929   3.535  11.184   2.167  0.2827 -0.2793 -0.4638
  379MOL0     C49930   3.443  11.168   2.069  0.6123 -0.0029 -0.3317
  379MOL0     O49931   3.377  11.270   2.005 -0.1169  0.2025  0.0277
  379MOL0     C49932   3.338  11.374   2.097  0.0873 -0.1372  0.4946
  379MOL0     C49933   3.247  11.470   2.021  0.6121 -0.1820 -0.4394
  379MOL0     C49934   3.329  11.543   1.911 -0.2804 -0.3785 -0.7637
  379MOL0     C49935   3.244  11.658   1.868  0.2979  0.0055 -0.7699
  379MOL0     C49936   3.292  11.740   1.755 -0.1762 -0.2059  0.5827
  379MOL0     C49937   3.196  11.852   1.725  0.1659 -0.0174 -0.9003
  379MOL0     C49938   3.241  11.933   1.602  0.4886 -0.0693  0.1574
  379MOL0     C49939   3.137  12.047   1.572  0.1605 -0.0163  0.2435
  379MOL0    Cl49940   2.978  11.971   1.540  0.0517  0.0069 -0.0770
  379MOL0     C49941   3.423  11.038   2.021  0.9990  0.1927 -0.1618
  379MOL0     C49942   3.498  10.927   2.071  0.0268 -0.3477 -0.0935
  379MOL0     O49943   3.850  10.953   2.289  0.2774 -0.1452  0.0013
  379MOL0     C49944   3.931  10.716   2.415 -0.2073 -0.4335  1.1092
  379MOL0     C49945   3.981  10.594   2.459  0.2986 -0.0290 -0.6803
  379MOL0     N49946   4.324  10.022   2.398  0.2331 -0.1804 -1.0168
  379MOL0     N49947   4.436   9.974   2.383  0.1752  0.6277 -0.4469
  379MOL0     C49948   5.693   9.668   1.990  0.2584 -0.2984  0.7330
  379MOL0     C49949   5.834   9.655   1.991  0.3804  0.0584  0.2797
  379MOL0     C49950   6.217   9.541   2.152 -0.2891  1.4295 -0.1675
  379MOL0     C49951   6.287   9.601   2.260 -0.0721  0.0184  0.1754
  379MOL0     C49952   6.415   9.561   2.296  0.7221  0.1522 -0.3603
  379MOL0     C49953   6.478   9.453   2.232 -0.1208 -0.6970 -0.2422
  379MOL0     O49954   6.602   9.411   2.277  0.6835 -0.1151 -0.2194
  379MOL0     C49955   6.659   9.281   2.244  0.0155  0.2029 -0.9869
  379MOL0     C49956   6.599   9.163   2.300  0.1546  0.6719  1.1341
  379MOL0     C49957   6.636   9.132   2.440  0.0994 -0.0177 -0.8961
  379MOL0     C49958   6.601   8.991   2.465 -0.6292 -0.4190 -0.0710
  379MOL0     C49959   6.615   8.956   2.611  0.2142 -0.1061 -0.2791
  379MOL0     C49960   6.611   8.936   2.726 -0.8400  0.0442 -0.8932
  379MOL0     C49961   6.410   9.402   2.125  0.3662 -0.8154  0.1391
  379MOL0     C49962   6.286   9.442   2.081 -0.5047  0.2752 -0.3846
  379MOL0     H49963   5.838   9.314   1.963 -1.5832 -0.5575 -0.7910
  379MOL0     H49964   5.621   9.338   1.912 -0.4753  0.0919 -2.5707
  379MOL0     H49965   5.444   9.759   2.003 -2.0012  0.9516  0.4058
  379MOL0     H49966   5.417   9.648   2.139  0.5889 -0.4065 -0.7644
  379MOL0     H49967   5.224   9.544   1.985 -4.1006  0.7546  0.7992
  379MOL0     H49968   5.252   9.672   1.883  0.8373  1.9311  1.1983
  379MOL0     H49969   5.197   9.848   2.055  3.4247 -0.5149  1.3632
  379MOL0     H49970   5.210   9.741   2.183  3.2445  1.4492 -1.0921
  379MOL0     H49971   4.986   9.715   1.973  0.7991  4.4725  0.3423
  379MOL0     H49972   4.989   9.607   2.108  0.5516 -0.8225 -1.7760
  379MOL0     H49973   4.934   9.902   2.092  0.2066  0.9203  0.3143
  379MOL0     H49974   4.990   9.830   2.247 -2.2962 -1.1993  1.0965
  379MOL0     H49975   4.810   9.671   2.248  1.7742  1.4880  0.8525
  379MOL0     H49976   4.768   9.715   2.088  0.0194 -0.0670 -0.6250
  379MOL0     H49977   4.729   9.895   2.339 -3.3486  3.0684 -0.4638
  379MOL0     H49978   4.695   9.938   2.181  0.5182  0.3766  1.9251
  379MOL0     H49979   4.568   9.709   2.331  2.4412  0.1951  0.7822
  379MOL0     H49980   4.532   9.733   2.159  0.9649 -0.2390 -0.0399
  379MOL0     H49981   4.279   9.837   2.142  0.6540 -0.3010 -0.7576
  379MOL0     H49982   4.066   9.944   2.187  2.7755  0.9432 -2.1945
  379MOL0     H49983   4.119  10.108   2.242  1.5326  0.5415  2.1690
  379MOL0     H49984   4.042   9.914   2.458  1.6181  0.2323  0.1128
  379MOL0     H49985   3.904   9.974   2.365  0.1377 -5.2477  2.0548
  379MOL0     H49986   3.973  10.111   2.573 -4.1124 -1.2139 -1.3684
  379MOL0     H49987   4.109  10.167   2.470 -0.5780  3.0991 -6.4507
  379MOL0     H49988   3.816  10.218   2.434  0.8087  1.0764  2.6750
  379MOL0     H49989   3.946  10.245   2.307 -0.0159  0.5479  0.4094
  379MOL0     H49990   3.758  10.393   2.305  3.6163 -1.1157  0.0108
  379MOL0     H49991   3.699  10.611   2.200 -0.3332 -0.0011 -1.1318
  379MOL0     H49992   3.673  11.109   2.308  1.9023 -3.9791  0.9888
  379MOL0     H49993   3.547  11.278   2.219  0.9542 -2.2715  3.4170
  379MOL0     H49994   3.422  11.432   2.138  1.1257 -1.0065 -0.3752
  379MOL0     H49995   3.300  11.319   2.184  1.2736 -0.2705  0.9388
  379MOL0     H49996   3.200  11.539   2.091 -2.4483 -1.2427 -1.2821
  379MOL0     H49997   3.161  11.414   1.985 -0.6637 -0.4705  2.7181
  379MOL0     H49998   3.348  11.480   1.824  2.0867  2.1661 -2.2285
  379MOL0     H49999   3.425  11.585   1.945 -1.2243  1.5305 -0.3266
  379MOL0     H50000   3.147  11.615   1.839 -0.7493  2.6097 -1.3722
  379MOL0     H50001   3.202  11.721   1.946 -4.3946 -1.3618 -1.8686
  379MOL0     H50002   3.295  11.670   1.672 -0.9062 -2.3734  2.2938
  379MOL0     H50003   3.388  11.787   1.777 -2.0329  3.1040  2.5240
  379MOL0     H50004   3.171  11.916   1.810 -1.4690 -1.0727 -0.5438
  379MOL0     H50005   3.101  11.806   1.696 -1.6454  3.0224 -0.2515
  379MOL0     H50006   3.341  11.971   1.626 -0.3589  2.0070  0.6437
  379MOL0     H50007   3.239  11.873   1.510 -3.0163 -0.0974  0.1095
  379MOL0     H50008   3.176  12.108   1.490  0.8744  2.0688  2.0531
  379MOL0     H50009   3.134  12.114   1.658  0.8558 -1.6931  1.6340
  379MOL0     H50010   3.353  11.018   1.941  1.6358  0.8880 -0.9165
  379MOL0     H50011   3.498  10.827   2.028  1.8679  0.6800 -2.7639
  379MOL0     H50012   3.980  10.809   2.440  1.1409 -0.5903 -0.7119
  379MOL0     H50013   4.071  10.580   2.517  0.6534 -0.0166 -1.2257
  379MOL0     H50014   5.647   9.765   2.007 -1.0636 -0.4478 -1.5302
  379MOL0     H50015   5.903   9.736   2.012  1.1976 -0.0527 -1.6926
  379MOL0     H50016   6.231   9.675   2.316 -1.7237 -1.0713  0.0402
  379MOL0     H50017   6.476   9.616   2.366  2.3577 -2.1956  0.1688
  379MOL0     H50018   6.758   9.291   2.290  0.0541  2.9796 -1.5137
  379MOL0     H50019   6.667   9.274   2.135  0.5728  1.1870 -1.0145
  379MOL0     H50020   6.492   9.185   2.309  0.6526  3.9375  0.4988
  379MOL0     H50021   6.608   9.074   2.237  1.2259  1.7772 -0.3159
  379MOL0     H50022   6.586   9.192   2.517  4.7965  3.5247 -0.1765
  379MOL0     H50023   6.741   9.146   2.468  1.1487 -1.5520 -3.7138
  379MOL0     H50024   6.494   8.974   2.449 -1.9924  3.4175  3.3671
  379MOL0     H50025   6.662   8.917   2.412 -1.6149 -0.2108 -1.5755
  379MOL0     H50026   6.602   8.920   2.832 -1.1574  0.4478 -0.8575
  379MOL0     H50027   6.454   9.327   2.060  0.1707  0.1103 -1.1096
  379MOL0     H50028   6.233   9.397   1.997 -2.7376 -0.8661  1.5195
  380MOL0     O50029   7.963   5.972   6.669 -0.0184 -0.2128 -0.0796
  380MOL0     C50030   7.970   5.911   6.564 -0.4666 -0.1585  0.2956
  380MOL0     O50031   7.871   5.867   6.481  0.2416  0.5700 -0.3419
  380MOL0     C50032   7.737   5.892   6.494  0.5535 -0.0310  0.3712
  380MOL0     C50033   7.658   5.855   6.380 -0.0606 -0.1543 -1.0271
  380MOL0     C50034   7.524   5.887   6.379 -1.0869 -0.1926 -0.0830
  380MOL0     C50035   7.457   5.948   6.482  0.3447 -0.0612 -0.4771
  380MOL0     O50036   7.323   5.972   6.465 -0.0637 -1.0103 -0.4495
  380MOL0     C50037   7.273   6.071   6.553  1.0315 -0.3341  0.3391
  380MOL0     C50038   7.136   6.119   6.512 -0.1936  0.7038 -0.7677
  380MOL0     C50039   7.028   6.007   6.476 -0.4627  0.5408  0.1541
  380MOL0     C50040   6.896   6.061   6.514  0.5908 -0.7731 -0.3984
  380MOL0     C50041   6.864   6.066   6.666  0.0949  0.2719 -0.3852
  380MOL0     C50042   6.745   6.153   6.693 -0.6317 -0.3244  0.2558
  380MOL0     C50043   6.610   6.076   6.687  0.2112 -0.2076  0.2531
  380MOL0     C50044   6.601   5.956   6.774  0.6966  1.2256  0.1050
  380MOL0     N50045   6.471   5.933   6.840  0.0397 -0.0293 -0.0408
  380MOL0     C50046   6.402   6.017   6.926 -0.3971  0.6652  0.4106
  380MOL0     C50047   6.273   5.964   6.939  0.4385  0.0408  1.1605
  380MOL0     C50048   6.172   6.029   7.027 -0.1039  0.0505  0.0415
  380MOL0     C50049   6.066   5.936   7.085 -0.0068 -0.2880 -0.6262
  380MOL0     C50050   6.131   5.846   7.187 -0.2325 -0.3600 -0.1215
  380MOL0     C50051   6.037   5.770   7.271 -0.1883 -0.3187 -1.0408
  380MOL0     O50052   5.932   5.857   7.323 -0.2390 -0.3230 -0.5869
  380MOL0     C50053   5.836   5.804   7.389  0.4418 -0.5509 -0.1638
  380MOL0     C50054   5.856   5.709   7.495 -0.7065  0.9741  0.3689
  380MOL0     C50055   5.741   5.667   7.570 -0.0343  0.0169  0.3075
  380MOL0     C50056   5.618   5.721   7.550  0.0074  1.2892 -0.1790
  380MOL0     C50057   5.497   5.697   7.641  0.6974 -0.1210 -0.4711
  380MOL0     O50058   5.379   5.751   7.595 -0.2718 -0.1220 -0.4303
  380MOL0     C50059   5.264   5.754   7.670 -0.3980  0.0264  0.3752
  380MOL0     C50060   5.205   5.869   7.712  0.3714 -0.0282 -1.3510
  380MOL0     C50061   5.083   5.864   7.782  0.0271  0.1610  0.7105
  380MOL0     C50062   5.019   5.737   7.797  0.0512 -0.2259 -1.1763
  380MOL0     O50063   4.897   5.758   7.867 -1.2001 -0.1568  0.5514
  380MOL0     C50064   4.821   5.642   7.898  0.1839  0.1221 -0.0274
  380MOL0     C50065   4.687   5.698   7.948  0.6508  0.8473 -0.1327
  380MOL0     C50066   4.591   5.594   8.009 -0.2088  0.3416 -1.1722
  380MOL0     C50067   4.480   5.660   8.086  0.2705  0.3306  0.3578
  380MOL0     C50068   4.358   5.568   8.119  0.2883  0.1285  0.6215
  380MOL0     C50069   4.389   5.481   8.245  0.1839  0.4327 -0.2279
  380MOL0     C50070   4.266   5.423   8.323 -0.5609 -0.8129 -0.1089
  380MOL0     C50071   4.312   5.323   8.426 -0.8154  0.0137 -0.7218
  380MOL0    Cl50072   4.180   5.240   8.523  0.3893 -0.0148  0.6398
  380MOL0     C50073   5.071   5.627   7.728 -0.3613 -0.8235  0.7143
  380MOL0     C50074   5.191   5.637   7.667  0.6745 -0.2094  0.2257
  380MOL0     O50075   5.504   5.626   7.739 -0.1929  0.7725  0.7318
  380MOL0     C50076   5.610   5.803   7.436 -0.2592 -0.1291 -0.0994
  380MOL0     C50077   5.706   5.844   7.351  0.0239  0.5191 -0.5672
  380MOL0     N50078   6.272   5.842   6.872 -0.7166  0.2608  0.7575
  380MOL0     N50079   6.388   5.828   6.812 -0.6176 -0.8605 -0.0732
  380MOL0     C50080   7.535   5.969   6.599 -0.5282 -0.8329  0.5618
  380MOL0     C50081   7.679   5.950   6.601  1.3025 -0.2613 -0.7392
  380MOL0     C50082   8.101   5.915   6.505  0.0940  0.4250 -0.5615
  380MOL0     C50083   8.132   5.831   6.396 -0.5240 -0.0509  0.9866
  380MOL0     C50084   8.265   5.828   6.338  0.9948  0.7237 -1.1126
  380MOL0     C50085   8.361   5.921   6.383 -0.7646 -0.8300 -0.0156
  380MOL0     O50086   8.491   5.932   6.339  0.1210  0.5214  0.5406
  380MOL0     C50087   8.514   5.853   6.222  0.1116 -0.2984  0.6141
  380MOL0     C50088   8.664   5.861   6.199  0.4787  0.0431  0.4529
  380MOL0     C50089   8.709   6.010   6.166  0.4081  1.4538 -1.0080
  380MOL0     C50090   8.865   6.029   6.174 -0.2112 -1.0374  0.7594
  380MOL0     C50091   8.878   6.179   6.141 -0.9428  0.1030  0.6256
  380MOL0     C50092   8.909   6.298   6.132  0.1063  0.0634 -0.2868
  380MOL0     C50093   8.335   6.000   6.497 -0.5265 -0.5235 -0.8772
  380MOL0     C50094   8.211   5.989   6.567  1.6137 -0.4327  0.6852
  380MOL0     H50095   7.698   5.793   6.300 -0.6996 -3.3459  0.9332
  380MOL0     H50096   7.465   5.867   6.290  0.9071 -0.7365 -1.3528
  380MOL0     H50097   7.337   6.159   6.551  1.0903 -0.3821  0.1198
  380MOL0     H50098   7.269   6.038   6.658  1.8442  1.0386  0.8237
  380MOL0     H50099   7.153   6.174   6.419  2.9135  2.4582  0.6589
  380MOL0     H50100   7.116   6.199   6.584  2.6315  0.4683  0.4118
  380MOL0     H50101   7.057   5.912   6.523 -0.5133 -0.2252 -1.3048
  380MOL0     H50102   7.035   5.991   6.368 -2.2940  0.6239 -0.0100
  380MOL0     H50103   6.885   6.164   6.480  2.0514 -0.8192 -1.0706
  380MOL0     H50104   6.822   6.006   6.454 -1.9005  1.3045  0.5412
  380MOL0     H50105   6.953   6.107   6.714  1.0069  1.0204 -2.5518
  380MOL0     H50106   6.847   5.961   6.693  1.6236  0.2302  0.4957
  380MOL0     H50107   6.749   6.229   6.614 -1.5471  1.7676  2.1105
  380MOL0     H50108   6.751   6.205   6.789 -0.2939 -2.1253  1.2450
  380MOL0     H50109   6.544   6.146   6.738  0.8258 -1.7874  3.4556
  380MOL0     H50110   6.577   6.061   6.584 -0.5813 -1.0266  0.6165
  380MOL0     H50111   6.677   5.959   6.853 -0.9018 -1.0272  1.8438
  380MOL0     H50112   6.626   5.868   6.714 -0.4855  1.2510 -0.4462
  380MOL0     H50113   6.453   6.107   6.957 -2.5433  2.7925 -1.7269
  380MOL0     H50114   6.118   6.108   6.974  1.6903  0.9702 -0.4950
  380MOL0     H50115   6.220   6.089   7.105 -0.9039  2.0928 -0.9472
  380MOL0     H50116   6.011   5.885   7.006 -2.5213 -0.9722  1.4344
  380MOL0     H50117   5.995   5.995   7.144 -2.3236 -0.5365 -3.0042
  380MOL0     H50118   6.205   5.782   7.139 -0.6156 -1.4590  0.7376
  380MOL0     H50119   6.184   5.924   7.243 -3.3095  2.0942 -0.3325
  380MOL0     H50120   6.083   5.719   7.356 -3.8279 -0.0245  1.3461
  380MOL0     H50121   5.989   5.695   7.208 -1.2027 -0.1243 -0.5139
  380MOL0     H50122   5.957   5.670   7.500 -0.6671  0.9798 -0.3353
  380MOL0     H50123   5.753   5.602   7.656  0.1786 -2.2771 -1.3587
  380MOL0     H50124   5.247   5.968   7.696 -0.9005  0.6820 -0.4162
  380MOL0     H50125   5.038   5.960   7.806 -0.1951  0.5869 -1.2351
  380MOL0     H50126   4.872   5.585   7.976  0.7190  1.7219  0.8550
  380MOL0     H50127   4.789   5.580   7.815  2.7589  2.0139 -2.6463
  380MOL0     H50128   4.622   5.741   7.871  1.1858 -1.8480 -2.2590
  380MOL0     H50129   4.723   5.771   8.021  0.2194 -1.1949  2.2961
  380MOL0     H50130   4.649   5.534   8.080 -1.7722  0.7672  0.5410
  380MOL0     H50131   4.553   5.541   7.922  2.3703 -2.5605 -0.6971
  380MOL0     H50132   4.531   5.695   8.176  2.5417 -1.5459 -0.0968
  380MOL0     H50133   4.445   5.743   8.024  0.5227  2.8878  3.4155
  380MOL0     H50134   4.337   5.504   8.033  0.4957 -0.6828  1.1652
  380MOL0     H50135   4.282   5.643   8.144  1.4823  1.9956 -1.0223
  380MOL0     H50136   4.456   5.537   8.310  0.7083 -0.5443  0.0829
  380MOL0     H50137   4.445   5.395   8.209 -0.7381  0.2547 -1.3276
  380MOL0     H50138   4.197   5.497   8.365  0.0582 -0.1714 -0.1979
  380MOL0     H50139   4.214   5.369   8.244 -1.4623 -1.4803  0.8985
  380MOL0     H50140   4.385   5.363   8.498 -2.8803 -0.1053  1.5561
  380MOL0     H50141   4.362   5.246   8.367  2.6091  1.1520  0.4221
  380MOL0     H50142   5.021   5.530   7.726  1.7445 -1.9690  0.3516
  380MOL0     H50143   5.235   5.551   7.616 -0.6058 -0.9421  0.3299
  380MOL0     H50144   5.511   5.846   7.417  0.2938  2.7999  2.6846
  380MOL0     H50145   5.694   5.907   7.264  0.2901  0.5248 -0.6028
  380MOL0     H50146   7.496   6.004   6.694 -0.6306  1.4017 -0.2582
  380MOL0     H50147   7.732   5.978   6.691 -2.6848  1.8762  1.2066
  380MOL0     H50148   8.058   5.762   6.356  2.0980 -0.3788 -4.1681
  380MOL0     H50149   8.277   5.750   6.264 -2.3480  0.4688 -1.5540
  380MOL0     H50150   8.454   5.886   6.137  1.0798  0.7466  0.3034
  380MOL0     H50151   8.494   5.745   6.227  1.2303 -0.4988  1.1207
  380MOL0     H50152   8.712   5.827   6.291  0.5656  0.2081  0.4699
  380MOL0     H50153   8.687   5.793   6.117 -1.7268  2.4283 -2.4003
  380MOL0     H50154   8.666   6.063   6.252 -0.8260 -4.3117  2.4878
  380MOL0     H50155   8.667   6.043   6.070 -3.5442 -1.3716 -0.5042
  380MOL0     H50156   8.910   6.008   6.271  1.9997 -2.5079 -0.4809
  380MOL0     H50157   8.926   5.968   6.107  2.3143  0.5151  1.5083
  380MOL0     H50158   8.932   6.398   6.102 -0.7686  0.5053  0.4768
  380MOL0     H50159   8.422   6.053   6.534 -1.4348  1.3500 -1.3013
  380MOL0     H50160   8.211   6.056   6.653  1.6193  2.6810 -1.5432
  381MOL0     O50161   0.747   9.079  10.932 -0.4314 -0.2159  0.6439
  381MOL0     C50162   0.742   9.047  11.050  0.5776 -0.1091  1.1929
  381MOL0     O50163   0.639   8.989  11.112  0.7230 -0.4479 -0.0543
  381MOL0     C50164   0.509   8.966  11.045  0.6041  0.4008  0.5388
  381MOL0     C50165   0.423   8.888  11.110  0.5794  0.5724 -0.0818
  381MOL0     C50166   0.292   8.866  11.057  0.0071  0.0901  0.3634
  381MOL0     C50167   0.250   8.913  10.932 -0.5028 -0.2850  0.7141
  381MOL0     O50168   0.123   8.874  10.903  0.5313 -0.0382  0.1991
  381MOL0     C50169   0.087   8.886  10.759 -0.1185  0.4362  0.1335
  381MOL0     C50170  -0.055   8.829  10.735  0.1940  0.7612 -0.4851
  381MOL0     C50171  -0.162   8.937  10.732  0.6848  0.2979  0.0504
  381MOL0     C50172  -0.305   8.874  10.720  0.2185  0.0921  0.2570
  381MOL0     C50173  -0.347   8.797  10.846  0.5763  0.7005 -0.5256
  381MOL0     C50174  -0.491   8.766  10.849 -0.6558  0.1395  0.2338
  381MOL0     C50175  -0.529   8.646  10.756  0.2846  0.3910 -0.2771
  381MOL0     C50176  -0.676   8.637  10.735 -0.9318  0.1446  0.4337
  381MOL0     N50177  -0.723   8.757  10.672  0.1152 -0.8126 -0.1194
  381MOL0     C50178  -0.855   8.785  10.676  0.1096 -1.2793  0.3342
  381MOL0     C50179  -0.863   8.893  10.586 -0.2183  0.0528 -0.2577
  381MOL0     C50180  -0.979   8.999  10.566 -0.4030 -0.4114  0.1713
  381MOL0     C50181  -1.056   8.946  10.451 -0.4714 -0.0672 -0.0490
  381MOL0     C50182  -1.196   9.023  10.438 -0.0103  0.4423  0.0404
  381MOL0     C50183  -1.269   9.004  10.302  0.2877  0.3637 -0.1665
  381MOL0     O50184  -1.372   9.102  10.280 -0.4619  0.6955 -0.9172
  381MOL0     C50185  -1.459   9.086  10.173 -0.3738 -0.4496  0.7205
  381MOL0     C50186  -1.579   9.157  10.184 -0.1636 -0.1034  0.5022
  381MOL0     C50187  -1.670   9.160  10.074 -0.0665  0.0242 -0.5637
  381MOL0     C50188  -1.629   9.104   9.946  0.3628  0.9174 -0.8720
  381MOL0     C50189  -1.720   9.091   9.837 -0.5686 -0.5961  0.2772
  381MOL0     O50190  -1.814   9.188   9.832  0.5110 -0.1720 -0.1458
  381MOL0     C50191  -1.863   9.214   9.712  0.5125 -0.6000  1.0192
  381MOL0     C50192  -1.840   9.317   9.628  0.5121 -0.1663 -0.2661
  381MOL0     C50193  -1.916   9.352   9.510  1.0407  1.2538  0.2357
  381MOL0     C50194  -2.025   9.271   9.474 -0.2000  0.4400  0.1207
  381MOL0     O50195  -2.086   9.290   9.348  0.6914  0.4607  0.5649
  381MOL0     C50196  -2.228   9.302   9.368  0.4682 -1.0694  0.0497
  381MOL0     C50197  -2.293   9.338   9.235  0.1250  0.3459  0.2723
  381MOL0     C50198  -2.234   9.469   9.180  0.5186  0.2240 -0.0328
  381MOL0     C50199  -2.298   9.464   9.045  0.0254 -0.5875 -0.0738
  381MOL0     C50200  -2.258   9.592   8.968 -1.0533 -0.2917 -0.2934
  381MOL0     C50201  -2.339   9.715   9.021  0.1411 -0.4293  0.1179
  381MOL0     C50202  -2.353   9.826   8.911  0.7068 -1.4795  0.3792
  381MOL0     C50203  -2.208   9.879   8.858  0.4274  0.0191  0.0042
  381MOL0    Cl50204  -2.230  10.015   8.747  0.4785  0.2017  0.1984
  381MOL0     C50205  -2.051   9.169   9.559 -0.5001  0.2288  0.7779
  381MOL0     C50206  -1.977   9.145   9.670 -0.3226  0.5173 -0.2897
  381MOL0     O50207  -1.704   9.005   9.752 -0.2559 -0.1834  0.3065
  381MOL0     C50208  -1.502   9.038   9.949  0.8447 -0.1348 -0.3644
  381MOL0     C50209  -1.423   9.023  10.055 -0.9931 -0.2576  1.0007
  381MOL0     N50210  -0.741   8.908  10.523  0.6851  0.1675  0.2793
  381MOL0     N50211  -0.657   8.824  10.570  0.1699  0.5901  0.1731
  381MOL0     C50212   0.341   8.987  10.860 -1.4075 -0.6212  0.0210
  381MOL0     C50213   0.464   9.020  10.925 -0.8918 -1.1375 -0.0122
  381MOL0     C50214   0.860   9.085  11.123  0.3360  0.3042  0.6550
  381MOL0     C50215   0.841   9.102  11.260 -0.3294  0.0498  0.2094
  381MOL0     C50216   0.953   9.133  11.342 -0.5860 -0.1237  0.7963
  381MOL0     C50217   1.072   9.169  11.283  0.1823  0.9565 -0.7844
  381MOL0     O50218   1.166   9.196  11.385 -0.1773  0.3209  0.3396
  381MOL0     C50219   1.305   9.183  11.341  1.1279  0.6003  0.1426
  381MOL0     C50220   1.363   9.046  11.321 -0.4675  0.0066  0.5049
  381MOL0     C50221   1.508   9.070  11.271  0.9326 -0.4193 -0.5122
  381MOL0     C50222   1.590   8.936  11.273  0.5840 -0.7084 -0.5213
  381MOL0     C50223   1.552   8.843  11.172  0.3125  0.4154  0.0052
  381MOL0     C50224   1.527   8.755  11.089  0.3132  0.3900  0.0906
  381MOL0     C50225   1.089   9.152  11.142 -0.1318 -0.1039  0.0404
  381MOL0     C50226   0.979   9.123  11.062 -0.2481  0.1095  0.0425
  381MOL0     H50227   0.452   8.858  11.210 -0.2656 -3.6313 -0.9216
  381MOL0     H50228   0.225   8.807  11.118  1.9723 -0.7299  1.8505
  381MOL0     H50229   0.159   8.835  10.694 -1.1708  3.2259 -3.6212
  381MOL0     H50230   0.094   8.992  10.732  1.4973 -0.3119 -2.9623
  381MOL0     H50231  -0.075   8.766  10.823 -0.5236  0.0643 -1.1308
  381MOL0     H50232  -0.060   8.783  10.636  2.3613  1.1805 -0.8315
  381MOL0     H50233  -0.149   9.008  10.650  1.5464 -0.5670 -0.5873
  381MOL0     H50234  -0.157   8.994  10.825 -0.2022 -0.2133  0.4174
  381MOL0     H50235  -0.374   8.959  10.716 -1.5180 -1.2521  0.6285
  381MOL0     H50236  -0.303   8.809  10.632  1.5769 -0.3102  0.5576
  381MOL0     H50237  -0.331   8.855  10.938 -2.3829  0.9412 -0.0445
  381MOL0     H50238  -0.288   8.706  10.852 -0.6699 -0.2266 -1.7287
  381MOL0     H50239  -0.558   8.851  10.838 -2.5749 -1.4897 -1.3422
  381MOL0     H50240  -0.504   8.724  10.950 -2.1647 -1.4038 -0.5463
  381MOL0     H50241  -0.478   8.644  10.659 -0.7700 -1.9531 -0.8566
  381MOL0     H50242  -0.497   8.561  10.816 -2.9542  1.9379  4.1528
  381MOL0     H50243  -0.710   8.607  10.834 -2.0536 -2.5412 -0.6607
  381MOL0     H50244  -0.687   8.548  10.672 -1.2336 -0.6489  1.5723
  381MOL0     H50245  -0.932   8.736  10.734 -0.4570  0.4911  1.1698
  381MOL0     H50246  -0.939   9.100  10.552  0.7006 -0.2649  3.4947
  381MOL0     H50247  -1.042   9.000  10.656 -1.4027  1.2543 -0.4941
  381MOL0     H50248  -1.076   8.839  10.467  0.6582 -0.4717 -1.2115
  381MOL0     H50249  -0.997   8.948  10.359 -1.5069 -1.2448 -0.7799
  381MOL0     H50250  -1.261   8.999  10.522  1.3004  5.2783  2.8472
  381MOL0     H50251  -1.166   9.128  10.448 -0.7667  0.4632  3.0915
  381MOL0     H50252  -1.310   8.904  10.285 -2.9308  0.8546  3.3361
  381MOL0     H50253  -1.191   9.016  10.227 -0.6305 -0.5718 -1.2955
  381MOL0     H50254  -1.602   9.210  10.276 -2.3967 -0.1795  0.0528
  381MOL0     H50255  -1.768   9.203  10.092  0.4814  0.2349  2.4181
  381MOL0     H50256  -1.751   9.376   9.649  0.6813 -0.5058 -0.0148
  381MOL0     H50257  -1.893   9.436   9.445 -1.9911  0.9110 -1.4769
  381MOL0     H50258  -2.251   9.378   9.443 -1.2400  3.9814 -4.9786
  381MOL0     H50259  -2.275   9.208   9.401 -0.2966 -1.2500 -1.4803
  381MOL0     H50260  -2.401   9.353   9.247 -0.0584 -0.6179 -0.1559
  381MOL0     H50261  -2.278   9.255   9.165 -5.0012 -0.3480 -0.3905
  381MOL0     H50262  -2.125   9.469   9.171  0.7059 -1.1499  1.6976
  381MOL0     H50263  -2.275   9.556   9.231 -1.1452  0.0573 -0.9871
  381MOL0     H50264  -2.281   9.374   8.985  3.8296 -1.3205  1.7499
  381MOL0     H50265  -2.407   9.473   9.045  0.1352  1.3298 -1.4478
  381MOL0     H50266  -2.292   9.570   8.867 -0.3979 -0.7901 -0.4072
  381MOL0     H50267  -2.152   9.616   8.966 -1.1535  0.1320 -1.6596
  381MOL0     H50268  -2.277   9.751   9.104 -0.1053 -0.7290  0.4371
  381MOL0     H50269  -2.440   9.686   9.050  0.8738 -1.7610  1.5243
  381MOL0     H50270  -2.407   9.791   8.821 -1.4558  4.1170 -0.9078
  381MOL0     H50271  -2.419   9.906   8.944  0.2461 -0.2330 -3.1228
  381MOL0     H50272  -2.154   9.800   8.804 -0.9309  0.2494 -1.7531
  381MOL0     H50273  -2.153   9.920   8.943 -0.4738  2.1657 -0.4009
  381MOL0     H50274  -2.132   9.102   9.531  0.2923 -0.3860 -0.1229
  381MOL0     H50275  -2.019   9.069   9.736  2.5843 -1.7790 -0.8599
  381MOL0     H50276  -1.482   8.987   9.855 -0.5715 -0.3877 -0.5457
  381MOL0     H50277  -1.337   8.958  10.044 -2.1390 -1.9689  1.6399
  381MOL0     H50278   0.319   9.023  10.759  0.0505  1.1851  0.3106
  381MOL0     H50279   0.527   9.085  10.865  0.1269 -2.1899 -0.1175
  381MOL0     H50280   0.749   9.090  11.318  0.8552 -0.6339  2.0299
  381MOL0     H50281   0.936   9.153  11.447 -0.8188  2.3842  0.3567
  381MOL0     H50282   1.375   9.234  11.409  2.5119  0.6120 -1.2489
  381MOL0     H50283   1.313   9.240  11.248  0.2802 -2.2913 -1.8188
  381MOL0     H50284   1.380   9.004  11.420  0.6867  0.3605  0.4770
  381MOL0     H50285   1.310   8.982  11.250  1.9203  0.0352 -1.4565
  381MOL0     H50286   1.566   9.142  11.330 -0.5611  1.9028 -1.7036
  381MOL0     H50287   1.499   9.107  11.168 -3.7312 -2.5860 -1.1369
  381MOL0     H50288   1.695   8.960  11.252  0.5965  0.4520  0.7015
  381MOL0     H50289   1.587   8.885  11.370 -1.5196 -1.9186 -1.1693
  381MOL0     H50290   1.512   8.688  11.007  0.5670  1.2423 -0.6762
  381MOL0     H50291   1.186   9.178  11.100  1.6102 -3.4857  1.5940
  381MOL0     H50292   0.990   9.121  10.954  0.9937  1.0348  0.1294
  382MOL0     O50293   0.128   2.820  10.005 -0.8966  0.6482  0.4507
  382MOL0     C50294   0.182   2.928   9.977  0.6017  0.3645  0.8570
  382MOL0     O50295   0.126   3.042   9.957  0.3487  0.2328 -0.4277
  382MOL0     C50296  -0.002   3.075   9.995 -0.8591  0.4660 -0.5620
  382MOL0     C50297  -0.113   2.977   9.992  0.1098  0.0204  1.3116
  382MOL0     C50298  -0.246   3.017  10.035 -0.6597 -0.2144 -0.6523
  382MOL0     C50299  -0.268   3.143  10.096  0.3641 -0.2304 -1.3017
  382MOL0     O50300  -0.395   3.151  10.145 -0.6837 -0.6020 -1.2750
  382MOL0     C50301  -0.402   3.227  10.270  0.0221  0.2654 -0.2353
  382MOL0     C50302  -0.360   3.127  10.382 -0.9464  0.0821 -0.1782
  382MOL0     C50303  -0.436   2.979  10.355 -0.7783  0.2327  0.4684
  382MOL0     C50304  -0.432   2.870  10.466 -0.7443 -1.2595  0.3901
  382MOL0     C50305  -0.489   2.743  10.428  0.1970  0.2356  0.9277
  382MOL0     C50306  -0.387   2.656  10.360  0.2768 -0.3140  0.1568
  382MOL0     C50307  -0.441   2.511  10.323 -0.1429  0.6604  0.5786
  382MOL0     C50308  -0.468   2.421  10.447  0.2285  0.5728  0.5203
  382MOL0     N50309  -0.336   2.397  10.517 -0.7625  0.5450 -0.1409
  382MOL0     C50310  -0.248   2.293  10.484 -0.4288  0.8085 -0.2150
  382MOL0     C50311  -0.149   2.305  10.579  0.6422 -0.5326 -0.4907
  382MOL0     C50312  -0.030   2.212  10.590  0.3614 -0.1881 -0.9487
  382MOL0     C50313   0.103   2.278  10.540  0.1293 -0.6037  0.5712
  382MOL0     C50314   0.170   2.386  10.642 -0.2988  0.6153 -0.1323
  382MOL0     C50315   0.319   2.409  10.625  0.1419 -0.4958  0.0565
  382MOL0     O50316   0.329   2.506  10.516  0.4273  1.0029 -0.0233
  382MOL0     C50317   0.439   2.592  10.522 -0.2743 -1.5993  0.6576
  382MOL0     C50318   0.550   2.587  10.608 -0.0863  0.2098  0.3713
  382MOL0     C50319   0.641   2.684  10.622 -0.6223  0.4632 -0.2587
  382MOL0     C50320   0.633   2.789  10.532  0.0665  0.1224 -0.4779
  382MOL0     C50321   0.723   2.908  10.548  0.1576  0.2399  0.8434
  382MOL0     O50322   0.725   2.950  10.677 -0.5411 -0.5990 -0.1077
  382MOL0     C50323   0.812   3.055  10.721  0.3567  0.2288 -0.3732
  382MOL0     C50324   0.781   3.116  10.841 -0.3454  0.5170  1.1188
  382MOL0     C50325   0.860   3.212  10.896 -0.8165 -0.4634 -0.1359
  382MOL0     C50326   0.989   3.244  10.848  0.1917 -0.2286  0.1287
  382MOL0     O50327   1.079   3.328  10.909 -0.4778  0.2034 -0.3920
  382MOL0     C50328   1.047   3.392  11.031  0.7892  0.6683  0.5162
  382MOL0     C50329   1.147   3.513  11.043 -0.0040  1.0883  1.1998
  382MOL0     C50330   1.289   3.467  11.074 -0.6160  0.4275  0.7941
  382MOL0     C50331   1.386   3.580  11.046  0.7549  0.3636 -0.2436
  382MOL0     C50332   1.378   3.683  11.159 -1.3655 -0.4646  0.2350
  382MOL0     C50333   1.480   3.796  11.112  0.6081 -0.7355 -0.2100
  382MOL0     C50334   1.505   3.905  11.218  0.2219 -0.5405 -0.9774
  382MOL0     C50335   1.588   4.024  11.162  0.1433 -0.4991  0.4364
  382MOL0    Cl50336   1.483   4.111  11.043 -0.1565 -0.0424 -0.5573
  382MOL0     C50337   1.019   3.192  10.723 -0.2812  0.5756 -0.4610
  382MOL0     C50338   0.939   3.095  10.671  0.0831  0.8915 -0.4689
  382MOL0     O50339   0.769   2.961  10.455 -0.6409  0.4336  0.0600
  382MOL0     C50340   0.533   2.796  10.435 -0.9270 -0.5640  0.3578
  382MOL0     C50341   0.433   2.700  10.430 -0.8037 -0.5039  0.1170
  382MOL0     N50342  -0.172   2.415  10.665  0.0363 -0.5445  0.2762
  382MOL0     N50343  -0.288   2.454  10.637  0.6686  0.2635  0.8125
  382MOL0     C50344  -0.156   3.230  10.101  0.7103 -1.1217  0.8105
  382MOL0     C50345  -0.026   3.199  10.054 -0.3553  0.1501 -0.4012
  382MOL0     C50346   0.333   2.924   9.954 -0.0352 -0.4036  0.2968
  382MOL0     C50347   0.405   2.830  10.027  0.6870 -0.3025 -0.2823
  382MOL0     C50348   0.549   2.821  10.019  0.6760 -0.2663 -0.6326
  382MOL0     C50349   0.622   2.907   9.940  0.1368  0.1153  0.8549
  382MOL0     O50350   0.748   2.898   9.908 -0.4531 -0.2340  0.1734
  382MOL0     C50351   0.851   2.854   9.999 -0.2736  1.2194  0.0835
  382MOL0     C50352   0.856   2.933  10.133  0.0845 -0.4364  0.4861
  382MOL0     C50353   0.829   3.082  10.127 -0.2023  0.4659  0.3420
  382MOL0     C50354   0.903   3.159  10.021 -0.4144  0.3831 -0.2498
  382MOL0     C50355   1.054   3.154  10.030 -0.1464 -0.3466 -0.8367
  382MOL0     C50356   1.168   3.135  10.002 -0.3008  0.5484  0.2654
  382MOL0     C50357   0.550   3.003   9.877  1.1162  0.5534 -0.0398
  382MOL0     C50358   0.406   3.019   9.884  0.1508 -0.4023 -0.3872
  382MOL0     H50359  -0.097   2.884   9.939 -0.3000  0.2527  0.7713
  382MOL0     H50360  -0.323   2.941  10.022 -2.5155  1.3941  0.3780
  382MOL0     H50361  -0.508   3.245  10.289  0.3480  1.6700  0.3956
  382MOL0     H50362  -0.354   3.325  10.274  1.3228 -0.3479  3.2353
  382MOL0     H50363  -0.390   3.148  10.486  1.5954  0.4394  0.5406
  382MOL0     H50364  -0.251   3.128  10.390 -0.9727 -0.1510  0.2523
  382MOL0     H50365  -0.379   2.934  10.273 -0.6051  0.5299  0.4242
  382MOL0     H50366  -0.536   3.003  10.319 -0.1422  3.5386  0.4923
  382MOL0     H50367  -0.333   2.884  10.511 -0.4811  0.1168 -0.5588
  382MOL0     H50368  -0.491   2.909  10.550  0.3972  2.4849 -0.3515
  382MOL0     H50369  -0.575   2.756  10.362 -0.6278  2.3387  2.3198
  382MOL0     H50370  -0.516   2.686  10.518  1.9297  1.5362  2.3345
  382MOL0     H50371  -0.307   2.651  10.434  0.3617 -1.9842 -0.0160
  382MOL0     H50372  -0.351   2.696  10.265 -0.4139  1.8986  0.7505
  382MOL0     H50373  -0.535   2.519  10.267 -1.9356  2.4770  3.5711
  382MOL0     H50374  -0.364   2.472  10.256  1.3985  3.7336  0.4017
  382MOL0     H50375  -0.511   2.327  10.412  0.0229  0.6190  0.6473
  382MOL0     H50376  -0.526   2.474  10.523 -0.0527  1.1354 -0.0815
  382MOL0     H50377  -0.270   2.212  10.415  0.2104 -0.1607  0.6943
  382MOL0     H50378  -0.043   2.124  10.527  1.2525 -1.7410  0.9508
  382MOL0     H50379  -0.029   2.173  10.692 -1.7615 -1.7778 -1.4811
  382MOL0     H50380   0.087   2.321  10.441  1.6528 -1.7792 -0.2200
  382MOL0     H50381   0.174   2.196  10.526 -0.4489 -1.3191  1.6764
  382MOL0     H50382   0.116   2.481  10.641 -0.7262  0.4450  2.0030
  382MOL0     H50383   0.165   2.337  10.739  1.0694  0.2437 -0.2309
  382MOL0     H50384   0.359   2.312  10.593  1.4608  0.0736 -0.1141
  382MOL0     H50385   0.374   2.435  10.716  0.6648 -1.2108 -0.0441
  382MOL0     H50386   0.574   2.509  10.680 -2.0395  0.8271  1.7727
  382MOL0     H50387   0.718   2.677  10.698 -0.6010 -0.0321 -0.3229
  382MOL0     H50388   0.684   3.092  10.885  0.5931 -0.3686  2.8098
  382MOL0     H50389   0.817   3.253  10.987 -1.2177 -1.9061  0.3573
  382MOL0     H50390   1.064   3.321  11.113 -0.4167  0.6117  0.7390
  382MOL0     H50391   0.943   3.423  11.020  0.5741 -0.1304  0.1681
  382MOL0     H50392   1.108   3.580  11.121 -0.7137  1.0675  0.8673
  382MOL0     H50393   1.139   3.565  10.948  0.7571  1.1179  1.1439
  382MOL0     H50394   1.328   3.388  11.009  0.2210  0.7203  0.9233
  382MOL0     H50395   1.301   3.422  11.173  3.9892 -2.0027 -0.5725
  382MOL0     H50396   1.486   3.537  11.047  0.3730 -0.5578 -0.4451
  382MOL0     H50397   1.369   3.628  10.949 -0.5809 -2.3272 -1.4310
  382MOL0     H50398   1.404   3.639  11.256  0.1633  0.3846  0.2461
  382MOL0     H50399   1.285   3.740  11.166 -0.3105  1.2401  0.9672
  382MOL0     H50400   1.444   3.851  11.024  2.2477  1.4421  0.3722
  382MOL0     H50401   1.576   3.752  11.086  0.3073 -0.1731 -2.4461
  382MOL0     H50402   1.412   3.944  11.260  0.8157 -0.2599  0.1338
  382MOL0     H50403   1.565   3.863  11.300  0.7422 -0.6043 -1.3840
  382MOL0     H50404   1.672   3.972  11.115  1.3006 -1.2531  3.1433
  382MOL0     H50405   1.629   4.092  11.237  0.6146  1.1015 -1.1928
  382MOL0     H50406   1.121   3.195  10.688 -0.2747  0.8645 -0.4205
  382MOL0     H50407   0.966   3.041  10.581  3.6336  2.3930 -0.4637
  382MOL0     H50408   0.522   2.880  10.366 -1.5531  1.2853  2.5633
  382MOL0     H50409   0.354   2.700  10.356 -0.8113  3.0224 -0.0318
  382MOL0     H50410  -0.178   3.326  10.146 -2.7825 -0.9885 -0.8496
  382MOL0     H50411   0.064   3.255  10.080  1.2380 -1.5589 -1.9560
  382MOL0     H50412   0.352   2.762  10.093  0.8256  0.3823  0.5428
  382MOL0     H50413   0.600   2.747  10.080 -0.2911  0.2082  0.8069
  382MOL0     H50414   0.954   2.849   9.960 -0.2535  1.4422  0.1065
  382MOL0     H50415   0.839   2.748  10.020 -0.0498  1.2452  0.3557
  382MOL0     H50416   0.782   2.892  10.202  0.1926 -1.9931 -0.2691
  382MOL0     H50417   0.953   2.907  10.175  1.3536  2.9774  0.0394
  382MOL0     H50418   0.856   3.124  10.224 -1.1021 -0.0207  0.8203
  382MOL0     H50419   0.720   3.087  10.122 -0.3569  0.9321  2.8785
  382MOL0     H50420   0.881   3.114   9.924 -1.1186  0.2731 -0.0430
  382MOL0     H50421   0.858   3.259  10.030  1.3484  1.5014 -2.7860
  382MOL0     H50422   1.274   3.129   9.990 -0.5013  1.6318 -2.6436
  382MOL0     H50423   0.611   3.070   9.816 -2.0617  2.2665 -1.6010
  382MOL0     H50424   0.352   3.105   9.846 -3.7878 -0.6985  3.6117
  383MOL0     O50425   6.970   9.927   9.850  0.6669  0.7991  0.3316
  383MOL0     C50426   7.050  10.010   9.814 -0.0036 -0.3635 -0.5775
  383MOL0     O50427   7.037  10.144   9.815 -0.4292 -0.4639  0.3873
  383MOL0     C50428   6.928  10.193   9.876 -0.1578  0.0865 -0.2607
  383MOL0     C50429   6.814  10.220   9.795 -0.3017 -0.3879  1.0032
  383MOL0     C50430   6.693  10.273   9.845 -1.5004 -0.6475  0.1592
  383MOL0     C50431   6.690  10.310   9.981 -0.0442  0.8741 -0.2891
  383MOL0     O50432   6.584  10.350  10.060 -0.0354 -0.5123 -0.4280
  383MOL0     C50433   6.460  10.331   9.996 -0.1677  0.0543  1.0270
  383MOL0     C50434   6.415  10.468   9.934  0.3297 -0.5256  0.7003
  383MOL0     C50435   6.275  10.457   9.868 -0.0840 -0.8682  1.2465
  383MOL0     C50436   6.155  10.428   9.955 -0.3896  0.0690 -0.8463
  383MOL0     C50437   6.023  10.411   9.880  0.3995  0.1083 -0.0085
  383MOL0     C50438   5.912  10.436   9.978  0.5780  0.0646  0.0898
  383MOL0     C50439   5.775  10.412   9.906 -0.1988 -0.6176 -0.0379
  383MOL0     C50440   5.661  10.454  10.002 -0.0977  0.1918 -0.6640
  383MOL0     N50441   5.525  10.435   9.940  0.1014 -0.4577 -0.7046
  383MOL0     C50442   5.430  10.335   9.955  0.4716 -0.1380 -0.0011
  383MOL0     C50443   5.330  10.361   9.874  0.6820 -0.3769 -0.7013
  383MOL0     C50444   5.205  10.285   9.876  0.4787  0.2312 -0.4089
  383MOL0     C50445   5.193  10.208   9.741 -0.3523 -0.4067  0.0408
  383MOL0     C50446   5.104  10.087   9.752  0.4903 -0.1691 -0.5846
  383MOL0     C50447   4.952  10.138   9.773  0.2749  0.6818 -0.1933
  383MOL0     O50448   4.861  10.029   9.737 -0.2866  0.1956 -0.5154
  383MOL0     C50449   4.730  10.045   9.767  0.2751  0.6115  0.5386
  383MOL0     C50450   4.659   9.927   9.804 -0.1111 -0.7136 -0.6186
  383MOL0     C50451   4.524   9.935   9.845  0.3438  0.7448  0.1227
  383MOL0     C50452   4.453  10.057   9.843  0.0572  0.1582 -0.1443
  383MOL0     C50453   4.319  10.070   9.892  0.5536  0.0223 -0.0663
  383MOL0     O50454   4.259   9.960   9.942  0.2533 -0.6678  0.4276
  383MOL0     C50455   4.133   9.984   9.994 -0.2457 -1.4549  0.1956
  383MOL0     C50456   4.020   9.955   9.926 -0.0065 -0.1031 -1.2174
  383MOL0     C50457   3.889   9.963   9.977 -0.7575  1.2004 -0.4285
  383MOL0     C50458   3.871  10.013  10.108 -0.3399 -0.6110 -0.0659
  383MOL0     O50459   3.752  10.021  10.176 -0.0343 -0.3467 -0.5018
  383MOL0     C50460   3.649   9.949  10.122  0.0632  0.5020  0.0483
  383MOL0     C50461   3.530   9.962  10.216 -0.3547  0.7714 -0.1481
  383MOL0     C50462   3.406   9.879  10.191 -1.0269  1.2456  0.4366
  383MOL0     C50463   3.294   9.927  10.267  0.6013  0.0460 -0.2372
  383MOL0     C50464   3.168   9.838  10.253  1.0579  0.0062  0.1591
  383MOL0     C50465   3.035   9.893  10.318  0.3086 -0.1634 -0.4807
  383MOL0     C50466   3.045   9.947  10.463  0.2209  0.3237  0.3335
  383MOL0     C50467   2.914  10.004  10.518  0.1733  0.0179 -0.7367
  383MOL0    Cl50468   2.868  10.168  10.473  0.0037 -0.6803 -0.1059
  383MOL0     C50469   3.986  10.069  10.172 -0.4344 -0.4277  0.3301
  383MOL0     C50470   4.111  10.040  10.124 -0.2433  0.1983 -0.9147
  383MOL0     O50471   4.260  10.181   9.876  0.0577 -0.6483  0.4291
  383MOL0     C50472   4.524  10.174   9.804 -0.0170  0.4045 -0.5801
  383MOL0     C50473   4.661  10.165   9.771  0.2009 -0.8656  0.5294
  383MOL0     N50474   5.354  10.488   9.822 -0.5241  0.0451  0.0165
  383MOL0     N50475   5.467  10.528   9.865 -1.1567 -0.2805 -0.5797
  383MOL0     C50476   6.802  10.289  10.052 -0.6048 -0.2352 -0.5034
  383MOL0     C50477   6.922  10.232  10.006  0.2601  0.0035  0.3363
  383MOL0     C50478   7.179   9.961   9.759 -0.0171 -0.5075 -0.3914
  383MOL0     C50479   7.262  10.051   9.696 -0.1912  0.2818  0.5215
  383MOL0     C50480   7.382  10.012   9.624  0.5151 -0.1096 -1.0204
  383MOL0     C50481   7.422   9.881   9.617  0.7490 -0.2154  0.0645
  383MOL0     O50482   7.539   9.835   9.548 -0.4356 -0.2089 -0.3861
  383MOL0     C50483   7.637   9.941   9.517  0.3601 -0.8056  0.4122
  383MOL0     C50484   7.771   9.868   9.507 -0.1873  0.1066 -0.6604
  383MOL0     C50485   7.769   9.743   9.416  1.0717 -0.5205  0.0072
  383MOL0     C50486   7.912   9.703   9.373 -0.5333  0.3866 -0.3160
  383MOL0     C50487   7.991   9.664   9.490  0.3488  1.6334  0.9243
  383MOL0     C50488   8.060   9.637   9.585  0.2628  0.4096  0.3989
  383MOL0     C50489   7.332   9.782   9.669 -0.3992  0.2398  0.8161
  383MOL0     C50490   7.216   9.824   9.740  0.0086 -0.0845 -0.6313
  383MOL0     H50491   6.827  10.225   9.687  1.6673  0.3855  1.2269
  383MOL0     H50492   6.621  10.293   9.766 -0.5172  0.8643 -0.3886
  383MOL0     H50493   6.397  10.305  10.082 -0.4122  0.0207  0.8357
  383MOL0     H50494   6.470  10.244   9.931  0.1871  0.5614  0.3931
  383MOL0     H50495   6.474  10.492   9.846 -1.5959 -0.0031 -0.5163
  383MOL0     H50496   6.418  10.558   9.995 -0.7134  1.1391 -1.5615
  383MOL0     H50497   6.276  10.390   9.782  0.7396  1.8602 -1.0169
  383MOL0     H50498   6.243  10.555   9.831 -0.2362 -1.9859 -1.8241
  383MOL0     H50499   6.163  10.340  10.019 -2.1800 -1.4848 -2.6174
  383MOL0     H50500   6.148  10.516  10.019  2.0136  1.1103 -1.8538
  383MOL0     H50501   6.016  10.313   9.834 -2.9591 -0.3723  1.2612
  383MOL0     H50502   6.023  10.481   9.796  1.2901 -1.9878 -1.8283
  383MOL0     H50503   5.924  10.534  10.025 -3.2699  1.0990 -0.7338
  383MOL0     H50504   5.908  10.363  10.059 -4.2810 -0.4553 -0.3597
  383MOL0     H50505   5.772  10.480   9.820  1.1787 -1.2704 -0.6377
  383MOL0     H50506   5.767  10.312   9.862  0.1884  0.0218 -1.6373
  383MOL0     H50507   5.688  10.555  10.035  0.7902  0.3869 -1.9141
  383MOL0     H50508   5.665  10.406  10.100  1.0841  1.6914  0.0700
  383MOL0     H50509   5.429  10.260  10.034 -1.0261  1.4568  1.5725
  383MOL0     H50510   5.122  10.356   9.885  0.9632  0.7640 -0.0947
  383MOL0     H50511   5.201  10.208   9.954 -1.6058 -0.0885 -0.7737
  383MOL0     H50512   5.293  10.178   9.709  0.7127  0.8076  1.9888
  383MOL0     H50513   5.150  10.275   9.666 -0.7369  0.2462  0.8303
  383MOL0     H50514   5.120  10.035   9.657  0.0329 -0.5573 -0.4558
  383MOL0     H50515   5.127  10.031   9.843 -0.7245 -0.1925 -0.2747
  383MOL0     H50516   4.943  10.221   9.703 -0.8718 -0.6601 -1.7336
  383MOL0     H50517   4.930  10.163   9.877  2.6564  0.7891  0.3409
  383MOL0     H50518   4.713   9.832   9.811 -0.4341 -0.9159 -0.8641
  383MOL0     H50519   4.470   9.848   9.879  0.3502 -0.4380 -2.6265
  383MOL0     H50520   4.031   9.926   9.822  0.2291 -2.0890 -0.6714
  383MOL0     H50521   3.818   9.927   9.904  2.1572 -0.4505 -2.6921
  383MOL0     H50522   3.686   9.846  10.130  0.7432  0.7531  0.1765
  383MOL0     H50523   3.626   9.980  10.020  0.0224  0.8712  0.1687
  383MOL0     H50524   3.503  10.066  10.196 -2.8466  0.3353  0.5570
  383MOL0     H50525   3.561   9.937  10.317 -1.2800 -3.4447 -0.7260
  383MOL0     H50526   3.423   9.776  10.224 -2.4788  0.6126 -0.6750
  383MOL0     H50527   3.382   9.881  10.085 -1.7623  3.1587  0.5942
  383MOL0     H50528   3.330   9.917  10.371  0.0999 -0.8754 -0.1420
  383MOL0     H50529   3.264  10.031  10.257  2.7453  0.6155 -1.5893
  383MOL0     H50530   3.205   9.750  10.307 -0.6060 -1.4734 -0.9959
  383MOL0     H50531   3.146   9.802  10.152 -1.3724 -1.1800  1.0141
  383MOL0     H50532   2.959   9.815  10.314 -0.5658  0.7095 -1.2436
  383MOL0     H50533   2.991   9.977  10.265 -3.8492 -0.4641  2.0684
  383MOL0     H50534   3.066   9.854  10.517 -1.9748 -0.8327 -0.6542
  383MOL0     H50535   3.118  10.029  10.461 -0.5722  1.0579 -2.4013
  383MOL0     H50536   2.933   9.999  10.625  3.2683 -1.5509 -1.2331
  383MOL0     H50537   2.831   9.939  10.488  1.0106 -1.6384  0.3707
  383MOL0     H50538   3.965  10.111  10.270 -2.1723 -0.6151  0.0624
  383MOL0     H50539   4.195  10.046  10.192  0.3486  1.8269 -1.7322
  383MOL0     H50540   4.475  10.271   9.805 -1.2392 -0.1935  0.7460
  383MOL0     H50541   4.718  10.250   9.736  1.3852 -1.2072  1.5377
  383MOL0     H50542   6.799  10.305  10.159  2.9829 -0.2263 -0.3024
  383MOL0     H50543   6.991  10.191  10.079  1.9589  2.6192  0.3488
  383MOL0     H50544   7.235  10.155   9.688 -1.9878 -0.0313  1.9502
  383MOL0     H50545   7.444  10.092   9.584  1.1046  0.0457  0.1474
  383MOL0     H50546   7.643  10.016   9.597 -0.3335  2.1460 -2.1272
  383MOL0     H50547   7.613   9.994   9.425  2.4203  0.0579  0.3064
  383MOL0     H50548   7.848   9.937   9.470  1.1218 -0.9292  0.0446
  383MOL0     H50549   7.795   9.839   9.610 -3.7786 -1.1101 -0.0394
  383MOL0     H50550   7.704   9.773   9.333  1.2357  0.6865  0.3001
  383MOL0     H50551   7.732   9.663   9.480  1.3127 -1.4607 -0.9954
  383MOL0     H50552   7.915   9.627   9.295 -0.9661  0.1318 -0.0911
  383MOL0     H50553   7.967   9.786   9.329  0.8777 -0.7732 -0.8074
  383MOL0     H50554   8.110   9.599   9.672  1.7805  1.6313  0.0897
  383MOL0     H50555   7.356   9.679   9.646  1.7916  1.0153 -0.6358
  383MOL0     H50556   7.148   9.745   9.769  0.4063 -0.5365 -0.8956
  384MOL0     O50557   1.756  10.423   1.552  0.6619  0.1814 -0.1236
  384MOL0     C50558   1.780  10.459   1.668  0.1030  0.1196 -0.2773
  384MOL0     O50559   1.865  10.397   1.751  0.3186 -0.6821 -0.2789
  384MOL0     C50560   1.928  10.285   1.709 -0.2787 -0.8029  0.1793
  384MOL0     C50561   1.929  10.176   1.797 -0.6247 -0.3047  0.5488
  384MOL0     C50562   1.987  10.054   1.763  0.6105 -0.0856 -0.1972
  384MOL0     C50563   2.037  10.050   1.636 -0.6053  0.0759  0.3923
  384MOL0     O50564   2.095   9.931   1.614  0.6142  0.1167  0.3513
  384MOL0     C50565   2.208   9.914   1.521  0.2842  0.4952 -0.0007
  384MOL0     C50566   2.162   9.875   1.374 -0.2042  0.7340 -0.8438
  384MOL0     C50567   2.287   9.856   1.300  0.0021  0.2833 -0.5926
  384MOL0     C50568   2.254   9.811   1.167  0.2143 -0.2790 -0.1488
  384MOL0     C50569   2.370   9.824   1.076  0.3318  0.5945 -0.4385
  384MOL0     C50570   2.497   9.758   1.125  0.0848  0.2306 -0.3633
  384MOL0     C50571   2.602   9.779   1.011  0.3747  0.2556 -0.4002
  384MOL0     C50572   2.720   9.689   1.030 -0.5223  0.2502 -0.1841
  384MOL0     N50573   2.835   9.728   0.952 -0.4141 -1.1029 -0.0165
  384MOL0     C50574   2.922   9.825   0.998 -0.4846  0.0333 -0.9514
  384MOL0     C50575   3.016   9.828   0.900 -0.0554 -0.5288 -0.2110
  384MOL0     C50576   3.154   9.887   0.936 -0.0237 -0.2532 -0.3338
  384MOL0     C50577   3.170  10.009   0.857 -0.3696  0.0609  0.2959
  384MOL0     C50578   3.313  10.045   0.880 -0.5315  0.0091 -0.2032
  384MOL0     C50579   3.331  10.203   0.854 -0.0467  0.1455 -0.5089
  384MOL0     O50580   3.468  10.227   0.825  0.1690  0.0970  0.1506
  384MOL0     C50581   3.572  10.186   0.909  0.2637 -0.1337  0.4956
  384MOL0     C50582   3.580  10.213   1.047  0.5345 -0.4358 -0.6684
  384MOL0     C50583   3.696  10.163   1.122  0.0379  0.0045  0.1159
  384MOL0     C50584   3.798  10.080   1.067 -0.3924  0.0358 -0.2475
  384MOL0     C50585   3.915  10.041   1.148 -0.0478 -0.7453  0.1761
  384MOL0     O50586   4.028  10.026   1.090  0.3243  0.1540  0.2418
  384MOL0     C50587   4.151  10.034   1.156  0.3796  0.1539  0.2907
  384MOL0     C50588   4.255   9.956   1.104  0.0376 -0.1998 -0.6230
  384MOL0     C50589   4.386   9.970   1.152  0.2230  0.3327  0.1657
  384MOL0     C50590   4.426  10.059   1.251 -0.2170 -0.2570 -0.2370
  384MOL0     O50591   4.552  10.067   1.312 -0.6793 -0.2148 -0.0798
  384MOL0     C50592   4.642   9.969   1.278 -0.6786  0.1016 -0.6871
  384MOL0     C50593   4.766   9.991   1.372 -1.2516  0.3625 -0.4147
  384MOL0     C50594   4.880   9.879   1.368  0.8593  0.8434  1.1019
  384MOL0     C50595   4.944   9.894   1.225 -0.0301  0.2026 -0.1240
  384MOL0     C50596   5.072   9.808   1.211  0.4550 -0.3540  0.7620
  384MOL0     C50597   5.139   9.856   1.080 -0.6277 -0.4280 -0.2672
  384MOL0     C50598   5.275   9.786   1.042 -0.7956 -0.7777 -0.4655
  384MOL0     C50599   5.408   9.869   1.081  0.5660  0.1782 -0.7089
  384MOL0    Cl50600   5.429  10.014   0.988 -0.4551  0.1671  0.0044
  384MOL0     C50601   4.323  10.148   1.299  0.4607  0.4540 -0.8152
  384MOL0     C50602   4.194  10.140   1.250  0.0118  0.2252 -0.1591
  384MOL0     O50603   3.891  10.034   1.267  0.2646 -0.6424  0.5715
  384MOL0     C50604   3.791  10.060   0.930  0.6157 -0.1930  0.0659
  384MOL0     C50605   3.678  10.102   0.856  0.3324 -0.0902 -0.3732
  384MOL0     N50606   2.977   9.756   0.794  0.1056 -0.0298  0.4022
  384MOL0     N50607   2.867   9.701   0.823  0.0046  0.1354  0.2313
  384MOL0     C50608   2.049  10.158   1.547  0.1029 -0.6073 -0.3342
  384MOL0     C50609   1.991  10.276   1.576  0.5155 -0.4109 -0.1685
  384MOL0     C50610   1.698  10.557   1.720 -0.0281  0.4745 -0.9080
  384MOL0     C50611   1.598  10.626   1.649  0.4030  0.6922  0.3762
  384MOL0     C50612   1.534  10.742   1.707 -0.5225 -0.2289  0.1563
  384MOL0     C50613   1.569  10.794   1.837  0.5470  0.5332 -0.2227
  384MOL0     O50614   1.513  10.896   1.909 -0.0010  0.0578  0.1815
  384MOL0     C50615   1.443  10.990   1.825  0.4682 -0.6174 -0.4238
  384MOL0     C50616   1.296  10.954   1.797 -0.0727  0.2596  0.7776
  384MOL0     C50617   1.208  11.012   1.914 -0.3975  0.3001 -0.1251
  384MOL0     C50618   1.060  11.031   1.867  0.1733  0.4791  0.8746
  384MOL0     C50619   0.966  11.025   1.985  0.8430  0.7293  0.3621
  384MOL0     C50620   0.893  10.984   2.077  0.0633  0.3784 -0.1732
  384MOL0     C50621   1.665  10.713   1.907  0.4585  0.8268 -0.3861
  384MOL0     C50622   1.727  10.603   1.850  0.7616 -0.0407 -1.0759
  384MOL0     H50623   1.872  10.179   1.889 -0.1789 -0.4159  0.8324
  384MOL0     H50624   1.972   9.970   1.830  1.0592 -2.1377 -2.5555
  384MOL0     H50625   2.272   9.828   1.547  1.7328  1.0125 -1.6715
  384MOL0     H50626   2.283   9.994   1.522  1.3505 -0.4715  0.9013
  384MOL0     H50627   2.096   9.947   1.324 -1.0966  1.1413  0.8471
  384MOL0     H50628   2.099   9.786   1.387 -1.5863  2.0914  3.3866
  384MOL0     H50629   2.346   9.769   1.329 -1.3573 -1.5802 -2.9747
  384MOL0     H50630   2.340   9.952   1.297 -0.0641  0.3047 -2.9187
  384MOL0     H50631   2.215   9.708   1.170  2.1674 -1.1360 -1.8768
  384MOL0     H50632   2.174   9.875   1.129 -1.0900  0.7874  3.8372
  384MOL0     H50633   2.382   9.930   1.051 -2.6839  0.5173 -2.7042
  384MOL0     H50634   2.351   9.766   0.986 -0.4140 -1.8836  1.1999
  384MOL0     H50635   2.480   9.650   1.128 -0.0059  0.2411 -0.5155
  384MOL0     H50636   2.528   9.798   1.222  0.8730 -1.7995  0.2668
  384MOL0     H50637   2.552   9.762   0.915 -2.9933  1.3996  0.9897
  384MOL0     H50638   2.641   9.879   0.992 -0.6646  0.3016 -2.6130
  384MOL0     H50639   2.691   9.589   0.995 -0.1354  0.2436 -0.4900
  384MOL0     H50640   2.745   9.684   1.137  2.9575 -0.3923 -0.9126
  384MOL0     H50641   2.928   9.864   1.099 -0.4701 -1.9792 -0.1304
  384MOL0     H50642   3.231   9.815   0.907 -0.2711 -0.7682  0.2709
  384MOL0     H50643   3.163   9.897   1.044 -0.8725  2.6364 -0.4589
  384MOL0     H50644   3.107  10.088   0.899  0.8782  0.6329  1.1533
  384MOL0     H50645   3.155  10.004   0.749  0.6808  2.3892 -0.0340
  384MOL0     H50646   3.358  10.017   0.975 -1.9464 -0.7631  0.2797
  384MOL0     H50647   3.357   9.995   0.794 -0.8960  1.0324 -1.0138
  384MOL0     H50648   3.286  10.261   0.935  1.3558  1.2068 -0.4647
  384MOL0     H50649   3.277  10.222   0.761 -1.4247 -3.9532 -0.7428
  384MOL0     H50650   3.504  10.273   1.096 -1.4879 -4.6337  1.8933
  384MOL0     H50651   3.709  10.193   1.226 -0.7558 -0.5385  0.3891
  384MOL0     H50652   4.228   9.889   1.023 -2.3513  2.7274 -2.4687
  384MOL0     H50653   4.462   9.914   1.099 -1.6310 -2.0897 -0.0717
  384MOL0     H50654   4.680   9.992   1.178  3.1296  2.9433  1.1739
  384MOL0     H50655   4.612   9.865   1.293 -0.7730  0.3687  1.2907
  384MOL0     H50656   4.728  10.001   1.474  0.0689  2.0282 -0.0407
  384MOL0     H50657   4.807  10.092   1.363  1.0679 -0.1805  2.5283
  384MOL0     H50658   4.830   9.781   1.371  1.6712  0.4386  2.5644
  384MOL0     H50659   4.950   9.892   1.451  1.7917  2.8618  0.0439
  384MOL0     H50660   4.871   9.870   1.147  0.7401  1.2895 -1.2202
  384MOL0     H50661   4.968   9.999   1.205 -1.5365  0.1919 -2.4003
  384MOL0     H50662   5.045   9.703   1.194  0.3514 -0.3592  0.9534
  384MOL0     H50663   5.132   9.830   1.300  0.4263  1.4868  0.3480
  384MOL0     H50664   5.153   9.964   1.090  0.0599 -0.6349  1.3543
  384MOL0     H50665   5.076   9.844   0.992 -0.1264  0.7579 -0.8041
  384MOL0     H50666   5.292   9.692   1.095 -1.7092 -0.4185  0.4937
  384MOL0     H50667   5.281   9.777   0.933 -0.0061  1.8617 -0.7208
  384MOL0     H50668   5.493   9.804   1.059  0.5884  0.2953 -0.9682
  384MOL0     H50669   5.408   9.885   1.189 -1.6580  4.4784 -1.1279
  384MOL0     H50670   4.340  10.229   1.370 -0.7097 -0.6896  0.8680
  384MOL0     H50671   4.115  10.207   1.282  0.6534  0.5447  0.7860
  384MOL0     H50672   3.882  10.032   0.878  0.8783  1.5120 -0.4454
  384MOL0     H50673   3.674  10.091   0.748  0.3471 -1.5236 -0.2399
  384MOL0     H50674   2.089  10.148   1.446  0.9661  0.8252 -0.1574
  384MOL0     H50675   1.980  10.361   1.510  1.0998 -0.8418 -0.8306
  384MOL0     H50676   1.562  10.582   1.557  0.0920  1.0867  0.3053
  384MOL0     H50677   1.457  10.786   1.644 -0.2766  0.4798  0.3438
  384MOL0     H50678   1.502  11.007   1.734 -0.1941 -1.0057 -0.9350
  384MOL0     H50679   1.448  11.092   1.864  0.6262 -1.5666  2.2100
  384MOL0     H50680   1.268  10.988   1.697  1.7346 -1.7300 -0.4991
  384MOL0     H50681   1.275  10.847   1.787 -1.6538  0.4619  1.5638
  384MOL0     H50682   1.250  11.106   1.952 -0.5436  0.2848  0.0778
  384MOL0     H50683   1.202  10.945   2.001  0.3106  1.4012  0.8041
  384MOL0     H50684   1.054  11.125   1.812  0.5401  0.9567  1.6199
  384MOL0     H50685   1.034  10.958   1.791 -0.6403  3.0372 -1.4516
  384MOL0     H50686   0.832  10.953   2.160 -0.2701  0.3462 -0.4278
  384MOL0     H50687   1.676  10.745   2.010  0.3953 -1.5832  0.4339
  384MOL0     H50688   1.795  10.555   1.920  1.8809  0.3437 -1.8653
  385MOL0     O50689   7.074   7.399   9.915 -0.0989  0.1633 -0.0922
  385MOL0     C50690   7.180   7.423   9.973  0.6174 -0.1710  0.5001
  385MOL0     O50691   7.195   7.472  10.096 -0.0660  0.2543 -0.1226
  385MOL0     C50692   7.086   7.491  10.169 -0.9006 -0.2112 -0.0246
  385MOL0     C50693   7.089   7.436  10.293  0.0024  0.6969 -0.0395
  385MOL0     C50694   6.989   7.475  10.379 -1.0127  0.6980 -0.1516
  385MOL0     C50695   6.885   7.563  10.343 -0.8931  0.4643  0.0832
  385MOL0     O50696   6.794   7.599  10.438 -0.0039 -0.2152  0.1829
  385MOL0     C50697   6.793   7.528  10.559  0.1384 -0.3985  0.3868
  385MOL0     C50698   6.660   7.562  10.629 -0.3044 -0.1397  0.1861
  385MOL0     C50699   6.563   7.463  10.593  0.2221  0.6254  0.2717
  385MOL0     C50700   6.435   7.510  10.662  0.2531  0.5126 -0.2210
  385MOL0     C50701   6.307   7.433  10.614 -0.6028 -0.6126 -0.4038
  385MOL0     C50702   6.279   7.484  10.468  0.4159 -0.7047  0.5782
  385MOL0     C50703   6.252   7.634  10.447  0.8792  0.0881 -0.7090
  385MOL0     C50704   6.210   7.650  10.297  0.6077 -0.0450 -0.3884
  385MOL0     N50705   6.073   7.617  10.262  0.3289  0.2072 -0.1615
  385MOL0     C50706   6.037   7.487  10.220 -0.4413  0.1711 -0.1232
  385MOL0     C50707   5.905   7.483  10.233  0.4451 -1.2601 -0.1313
  385MOL0     C50708   5.828   7.357  10.184  0.1614  0.2447  0.7078
  385MOL0     C50709   5.865   7.223  10.261  0.2045 -0.1711  0.0135
  385MOL0     C50710   5.796   7.099  10.197 -0.4922  0.8550 -0.4589
  385MOL0     C50711   5.644   7.096  10.191  0.4417  0.1146  0.1577
  385MOL0     O50712   5.579   7.175  10.090  0.2912  1.0070 -0.0329
  385MOL0     C50713   5.444   7.178  10.081  0.5562  0.2163 -0.1753
  385MOL0     C50714   5.385   7.232   9.963  0.7267 -0.3067 -0.9310
  385MOL0     C50715   5.252   7.212   9.929  0.1321 -1.0187  0.5047
  385MOL0     C50716   5.167   7.159  10.028  0.0087 -0.1231 -0.1722
  385MOL0     C50717   5.017   7.168  10.020 -0.6153 -0.3760  0.4438
  385MOL0     O50718   4.967   7.197   9.893  0.0145  1.0189  0.2842
  385MOL0     C50719   4.838   7.175   9.871  0.9631 -0.4070 -0.3104
  385MOL0     C50720   4.770   7.271   9.790  0.4215  0.5829 -1.0599
  385MOL0     C50721   4.630   7.260   9.772 -0.0368 -0.9750  0.5163
  385MOL0     C50722   4.552   7.158   9.838 -0.4827 -0.8433 -0.4344
  385MOL0     O50723   4.421   7.138   9.819  0.2490  0.2486 -0.3594
  385MOL0     C50724   4.322   7.238   9.847  0.8105 -0.1021 -0.4874
  385MOL0     C50725   4.183   7.167   9.846 -1.2022 -0.5422  0.1458
  385MOL0     C50726   4.139   7.113   9.708  0.2265 -0.0732 -0.5432
  385MOL0     C50727   4.011   7.025   9.724  0.4358  0.3045  0.9228
  385MOL0     C50728   3.996   6.962   9.586  0.0256  1.0034  0.8676
  385MOL0     C50729   3.862   6.896   9.578  0.7596  0.0075  1.1599
  385MOL0     C50730   3.835   6.817   9.440  0.0338 -0.4381  0.0594
  385MOL0     C50731   3.811   6.903   9.319  0.0243  0.2963 -0.6363
  385MOL0    Cl50732   3.763   6.807   9.181 -0.3569 -0.2093 -0.0390
  385MOL0     C50733   4.623   7.060   9.901  0.9194 -0.3284 -0.3202
  385MOL0     C50734   4.764   7.070   9.919 -0.6116 -0.1301  0.0209
  385MOL0     O50735   4.954   7.133  10.120  0.0945  0.1682  0.8722
  385MOL0     C50736   5.231   7.098  10.140  1.2810 -0.0849 -0.2925
  385MOL0     C50737   5.368   7.102  10.166 -0.0038 -0.1569  0.3139
  385MOL0     N50738   5.865   7.605  10.284 -0.3592 -0.7722 -0.3976
  385MOL0     N50739   5.972   7.680  10.309  0.1878 -0.2535 -0.2179
  385MOL0     C50740   6.892   7.622  10.214  0.3001  0.2778 -0.4389
  385MOL0     C50741   6.989   7.583  10.129 -0.5260 -0.2813 -0.0410
  385MOL0     C50742   7.299   7.412   9.891 -0.3762 -0.2794  0.3472
  385MOL0     C50743   7.421   7.472   9.934  0.7166 -0.8647  0.6874
  385MOL0     C50744   7.534   7.468   9.857 -0.3915 -0.0154  0.7282
  385MOL0     C50745   7.539   7.403   9.727  0.0971 -1.1089 -0.6899
  385MOL0     O50746   7.660   7.400   9.677 -0.2219  0.0273  0.2690
  385MOL0     C50747   7.698   7.327   9.562 -0.1557 -0.3428 -0.6166
  385MOL0     C50748   7.696   7.179   9.586  0.4997  0.2575  0.3399
  385MOL0     C50749   7.768   7.124   9.707 -0.4439  0.1724 -0.5051
  385MOL0     C50750   7.788   6.966   9.704  0.0967 -0.5524  0.5105
  385MOL0     C50751   7.678   6.890   9.764  0.1827 -0.2697  0.5489
  385MOL0     C50752   7.586   6.834   9.823  0.1449 -1.0038 -0.8202
  385MOL0     C50753   7.414   7.351   9.678  0.2707  1.7011 -1.9165
  385MOL0     C50754   7.300   7.354   9.760 -0.0747 -0.1190 -0.9029
  385MOL0     H50755   7.170   7.364  10.301 -0.7617 -0.3740 -1.3723
  385MOL0     H50756   7.016   7.437  10.477  1.1580  2.8650  0.1870
  385MOL0     H50757   6.882   7.553  10.618  0.2221 -2.1302  1.0737
  385MOL0     H50758   6.801   7.421  10.538  3.7652 -0.2014  0.1433
  385MOL0     H50759   6.627   7.663  10.606 -0.6876 -0.9263 -3.2288
  385MOL0     H50760   6.676   7.554  10.737  0.9448  0.8481  0.0857
  385MOL0     H50761   6.598   7.366  10.628  1.8165  0.3780 -1.7795
  385MOL0     H50762   6.553   7.462  10.484 -3.6461 -2.7575  0.4320
  385MOL0     H50763   6.448   7.482  10.767  0.8389 -1.0019 -0.6661
  385MOL0     H50764   6.411   7.617  10.655  1.9070  1.1501  2.2291
  385MOL0     H50765   6.218   7.449  10.676 -0.1474 -1.9030  0.6303
  385MOL0     H50766   6.322   7.325  10.613 -1.6784 -0.8008  1.1172
  385MOL0     H50767   6.193   7.432  10.423 -0.6018  0.1793  1.4253
  385MOL0     H50768   6.362   7.454  10.404  0.2576 -1.3456  0.6663
  385MOL0     H50769   6.172   7.668  10.512  0.4440 -1.2004 -0.5649
  385MOL0     H50770   6.341   7.698  10.441 -0.6523  2.2637 -1.9930
  385MOL0     H50771   6.283   7.597  10.236  2.2513 -0.1462  1.5757
  385MOL0     H50772   6.216   7.757  10.275 -0.2085  0.0847 -0.0093
  385MOL0     H50773   6.099   7.409  10.175 -1.7367 -1.0346  0.1104
  385MOL0     H50774   5.854   7.343  10.079 -0.8230  0.3118  0.4481
  385MOL0     H50775   5.719   7.360  10.187 -0.0900 -3.7560  2.3663
  385MOL0     H50776   5.840   7.226  10.367  1.8797 -0.7266  0.4444
  385MOL0     H50777   5.972   7.202  10.254  0.3827  0.9372 -0.8281
  385MOL0     H50778   5.832   7.082  10.095 -0.5211  0.3548 -0.3863
  385MOL0     H50779   5.828   7.009  10.250  0.9212  0.4354 -1.9532
  385MOL0     H50780   5.609   7.141  10.285 -2.2594 -0.4040 -0.5259
  385MOL0     H50781   5.613   6.992  10.199 -0.0817  0.3943  3.0778
  385MOL0     H50782   5.454   7.291   9.904  0.3146  1.3560  0.1780
  385MOL0     H50783   5.229   7.261   9.835  4.3371 -2.4195 -1.5060
  385MOL0     H50784   4.834   7.343   9.740  4.2233 -1.3429  0.6406
  385MOL0     H50785   4.582   7.341   9.717  2.4847  1.2494  1.3606
  385MOL0     H50786   4.335   7.309   9.765  0.1915  1.7852  0.9628
  385MOL0     H50787   4.349   7.281   9.944 -0.1511 -0.5538 -0.0032
  385MOL0     H50788   4.106   7.222   9.902  0.5863  0.4052  1.8401
  385MOL0     H50789   4.202   7.080   9.909 -0.5690 -1.3640 -1.1469
  385MOL0     H50790   4.214   7.039   9.678  2.8118  0.7283  3.1361
  385MOL0     H50791   4.130   7.188   9.629 -1.5827 -0.0663 -0.3563
  385MOL0     H50792   4.016   6.950   9.804 -0.5352 -0.6066  0.1571
  385MOL0     H50793   3.921   7.083   9.744  0.7340  0.4647  1.8601
  385MOL0     H50794   4.077   6.899   9.548 -1.3073  0.4286 -1.1985
  385MOL0     H50795   3.998   7.042   9.511 -4.2968 -0.8603 -1.5796
  385MOL0     H50796   3.784   6.970   9.599 -0.3230 -1.2058  1.5604
  385MOL0     H50797   3.861   6.818   9.655  0.8117 -0.6572  0.5004
  385MOL0     H50798   3.922   6.753   9.421  1.0682  1.2784 -1.2669
  385MOL0     H50799   3.746   6.753   9.444  0.2613 -0.7349  3.4371
  385MOL0     H50800   3.903   6.959   9.300 -0.2795  0.7958 -0.6426
  385MOL0     H50801   3.727   6.972   9.333  0.3026  1.1484 -2.8424
  385MOL0     H50802   4.563   6.970   9.915 -0.6388  0.6391 -0.5623
  385MOL0     H50803   4.825   6.992   9.963  1.4975  2.2194  1.5273
  385MOL0     H50804   5.159   7.050  10.206 -0.9903 -0.7151 -3.0183
  385MOL0     H50805   5.402   7.059  10.259 -0.6021 -1.4088 -0.0314
  385MOL0     H50806   6.823   7.702  10.187 -2.0391 -1.4065  0.2082
  385MOL0     H50807   7.006   7.647  10.042  2.1296 -3.0454 -1.7463
  385MOL0     H50808   7.451   7.514  10.030 -1.1082 -0.7833  1.2645
  385MOL0     H50809   7.624   7.508   9.902 -0.4338 -0.4371  1.1968
  385MOL0     H50810   7.799   7.361   9.537  0.7679 -1.7618  0.9526
  385MOL0     H50811   7.631   7.358   9.481 -1.1240 -1.8277 -0.4169
  385MOL0     H50812   7.595   7.137   9.589  0.5364  0.0578 -0.9640
  385MOL0     H50813   7.739   7.129   9.499 -2.3804 -1.2963 -0.3273
  385MOL0     H50814   7.707   7.141   9.796 -1.5663  1.7625 -1.5213
  385MOL0     H50815   7.866   7.168   9.726 -0.3474  0.1888 -1.0204
  385MOL0     H50816   7.797   6.941   9.598  2.0547  0.3248  0.4255
  385MOL0     H50817   7.887   6.947   9.747 -0.5558 -0.9137  1.8914
  385MOL0     H50818   7.499   6.778   9.852  0.1713 -0.7535 -0.2492
  385MOL0     H50819   7.405   7.297   9.585 -3.1061 -1.4890 -0.0271
  385MOL0     H50820   7.208   7.317   9.716  1.1564 -1.7065 -2.2745
  386MOL0     O50821   0.206   4.922   5.022 -0.1724 -0.7671  0.4227
  386MOL0     C50822   0.286   4.842   5.064 -0.4345  0.2307 -0.0957
  386MOL0     O50823   0.258   4.731   5.139  0.3460 -0.4772 -0.1530
  386MOL0     C50824   0.126   4.692   5.171 -0.5659 -0.0418  0.2195
  386MOL0     C50825   0.020   4.780   5.192  0.8606  0.8866  0.7411
  386MOL0     C50826  -0.102   4.740   5.250  0.0533  0.1865  0.3014
  386MOL0     C50827  -0.123   4.608   5.275  0.6325  0.1335 -0.1982
  386MOL0     O50828  -0.243   4.582   5.331 -0.4275 -0.1509  0.0580
  386MOL0     C50829  -0.296   4.446   5.334 -0.4567 -0.8908  0.0882
  386MOL0     C50830  -0.440   4.462   5.389 -0.0088 -0.5304 -0.0921
  386MOL0     C50831  -0.546   4.519   5.295 -0.2669 -0.2467 -0.8702
  386MOL0     C50832  -0.678   4.511   5.364 -0.4024  0.2950  0.0331
  386MOL0     C50833  -0.789   4.577   5.289 -0.6856 -0.8128 -0.7471
  386MOL0     C50834  -0.929   4.546   5.348 -0.4495  1.1765  0.3115
  386MOL0     C50835  -1.045   4.587   5.261 -0.1416 -0.7272  0.1765
  386MOL0     C50836  -1.069   4.737   5.272 -0.1629  0.9068  0.0927
  386MOL0     N50837  -1.208   4.760   5.211 -0.0699  0.1829 -0.0027
  386MOL0     C50838  -1.313   4.733   5.290 -0.1640 -0.2940  0.6066
  386MOL0     C50839  -1.413   4.807   5.229 -0.6597  0.0565  0.0766
  386MOL0     C50840  -1.550   4.818   5.287  0.9482  0.6128  0.6891
  386MOL0     C50841  -1.616   4.689   5.299  0.1263 -0.1835  0.1662
  386MOL0     C50842  -1.737   4.698   5.392  0.2596 -0.3989  0.0228
  386MOL0     C50843  -1.838   4.581   5.378  0.1403 -0.3765 -0.2011
  386MOL0     O50844  -1.970   4.614   5.436 -1.2055 -0.2415  0.2946
  386MOL0     C50845  -2.038   4.724   5.384  0.0350  0.4775  0.5582
  386MOL0     C50846  -2.043   4.746   5.244 -1.3518 -0.5182  0.1309
  386MOL0     C50847  -2.117   4.852   5.192 -0.9140 -0.7245 -0.1386
  386MOL0     C50848  -2.183   4.952   5.268  0.3298 -0.9949  0.2350
  386MOL0     C50849  -2.238   5.080   5.209  1.0076  0.7720  0.5451
  386MOL0     O50850  -2.201   5.120   5.081 -0.7754  1.2127 -0.7917
  386MOL0     C50851  -2.256   5.230   5.024 -0.2982  0.7289  0.3339
  386MOL0     C50852  -2.332   5.223   4.905 -0.2558 -0.0326 -0.4569
  386MOL0     C50853  -2.381   5.339   4.840  0.5635  0.5550 -0.7741
  386MOL0     C50854  -2.370   5.465   4.915  1.5687 -1.2178  0.4147
  386MOL0     O50855  -2.424   5.576   4.858 -0.2770 -0.5117 -0.8110
  386MOL0     C50856  -2.499   5.669   4.934 -0.1183 -0.5830  0.2678
  386MOL0     C50857  -2.634   5.618   4.998 -0.4684  0.7846 -0.4628
  386MOL0     C50858  -2.710   5.729   5.062  0.4527 -0.0135 -0.4332
  386MOL0     C50859  -2.825   5.677   5.148 -0.1839  0.3318 -0.2991
  386MOL0     C50860  -2.860   5.771   5.253 -0.4316 -0.0042  0.0662
  386MOL0     C50861  -2.980   5.745   5.341  0.4158 -0.2983  0.7733
  386MOL0     C50862  -2.962   5.615   5.419  1.0839  0.5434 -0.3232
  386MOL0     C50863  -3.045   5.613   5.547 -0.5858  0.2590 -0.7557
  386MOL0    Cl50864  -3.214   5.660   5.514 -0.0172  0.3617 -0.6169
  386MOL0     C50865  -2.302   5.472   5.030 -0.2040  1.6066 -0.0421
  386MOL0     C50866  -2.240   5.350   5.083 -0.3400 -0.0505 -0.4273
  386MOL0     O50867  -2.320   5.140   5.276  0.0639 -0.4496 -0.5883
  386MOL0     C50868  -2.197   4.911   5.405  0.9177 -0.8489 -1.1314
  386MOL0     C50869  -2.129   4.804   5.458 -0.5353  0.8658 -0.4025
  386MOL0     N50870  -1.365   4.864   5.114  0.3869 -0.2411 -0.0431
  386MOL0     N50871  -1.238   4.841   5.104  0.6136 -0.5988  0.1520
  386MOL0     C50872  -0.019   4.519   5.266  0.4264 -1.2145  0.2356
  386MOL0     C50873   0.106   4.555   5.210  0.0610 -0.6598  1.1385
  386MOL0     C50874   0.435   4.877   5.031 -0.8884  0.5539  0.7191
  386MOL0     C50875   0.481   4.983   4.954 -0.8084  0.4330 -0.3090
  386MOL0     C50876   0.620   5.015   4.940  0.8656  0.1002  0.7378
  386MOL0     C50877   0.727   4.946   5.000  0.2646 -0.3878  0.2770
  386MOL0     O50878   0.850   4.986   5.009  0.0199 -0.1005 -0.5722
  386MOL0     C50879   0.898   5.066   4.903  0.4190 -0.6005 -0.2891
  386MOL0     C50880   1.042   5.085   4.929 -0.4879  0.1250 -0.0169
  386MOL0     C50881   1.112   4.959   4.969 -0.2865 -0.2757  0.3586
  386MOL0     C50882   1.257   4.973   4.950 -0.0049 -0.0695  0.1629
  386MOL0     C50883   1.291   4.929   4.813 -0.1242  0.6177  0.3155
  386MOL0     C50884   1.331   4.895   4.699  0.3711 -0.2331 -1.2161
  386MOL0     C50885   0.690   4.834   5.081 -0.2280 -0.8634  0.4758
  386MOL0     C50886   0.549   4.813   5.104 -0.7112  0.6807  0.4299
  386MOL0     H50887   0.031   4.886   5.172 -0.7384  1.2501  1.5828
  386MOL0     H50888  -0.184   4.812   5.260  0.5081  1.0390 -1.7259
  386MOL0     H50889  -0.239   4.374   5.394 -0.3327 -2.4677 -1.8292
  386MOL0     H50890  -0.297   4.406   5.232  1.0779 -3.6881  1.0667
  386MOL0     H50891  -0.433   4.517   5.484 -0.8676  4.4419 -2.5983
  386MOL0     H50892  -0.475   4.359   5.405  0.8053 -1.0371 -1.4346
  386MOL0     H50893  -0.547   4.480   5.193 -0.1893  1.6182 -1.6058
  386MOL0     H50894  -0.526   4.624   5.276 -0.1332  0.1949  1.4756
  386MOL0     H50895  -0.701   4.404   5.367  1.7036 -0.2353 -0.6172
  386MOL0     H50896  -0.664   4.564   5.459  2.8448 -0.9984  0.4192
  386MOL0     H50897  -0.785   4.549   5.183 -3.0183  0.4277 -1.2469
  386MOL0     H50898  -0.775   4.685   5.294  1.8057 -1.0672 -1.1449
  386MOL0     H50899  -0.934   4.596   5.445  0.2941  1.4406  0.2172
  386MOL0     H50900  -0.934   4.438   5.365  1.2349  0.4911 -2.8297
  386MOL0     H50901  -1.022   4.568   5.156  2.6801  0.8445  0.4112
  386MOL0     H50902  -1.135   4.535   5.296 -1.6697  2.4578  1.3282
  386MOL0     H50903  -0.997   4.799   5.217 -1.0107  1.8655  0.0225
  386MOL0     H50904  -1.069   4.777   5.373 -1.5148 -0.9287  0.8729
  386MOL0     H50905  -1.315   4.685   5.388  1.1827 -2.6222 -0.4235
  386MOL0     H50906  -1.603   4.881   5.215  1.7053  0.3041 -0.1666
  386MOL0     H50907  -1.544   4.862   5.387  0.0104  3.2830 -0.3227
  386MOL0     H50908  -1.553   4.610   5.338 -0.6787  0.0292  1.9756
  386MOL0     H50909  -1.642   4.647   5.201  2.3276 -1.9899  0.2867
  386MOL0     H50910  -1.710   4.683   5.497  2.5522 -0.5647 -0.5230
  386MOL0     H50911  -1.775   4.800   5.381  0.8343 -0.3214 -1.4070
  386MOL0     H50912  -1.796   4.493   5.428 -0.6360 -1.1263 -0.8412
  386MOL0     H50913  -1.844   4.537   5.278 -0.0144 -2.4665  0.6732
  386MOL0     H50914  -1.982   4.684   5.179  0.0957  3.0926 -2.3578
  386MOL0     H50915  -2.088   4.871   5.089  1.1148  1.4782  0.7461
  386MOL0     H50916  -2.334   5.130   4.849  1.1360 -0.3131 -0.0782
  386MOL0     H50917  -2.442   5.343   4.750  0.4116 -0.1708 -0.7063
  386MOL0     H50918  -2.521   5.761   4.878  1.7983  1.1920  2.2652
  386MOL0     H50919  -2.428   5.702   5.010  1.9014 -2.3083 -0.7720
  386MOL0     H50920  -2.611   5.539   5.070  1.1094  3.2457  1.9105
  386MOL0     H50921  -2.697   5.572   4.922 -4.3396  1.1857  2.2377
  386MOL0     H50922  -2.756   5.794   4.988  0.6867 -0.4840 -1.0022
  386MOL0     H50923  -2.643   5.790   5.124 -1.7542  2.1744 -0.0543
  386MOL0     H50924  -2.915   5.664   5.086 -1.0086  1.1600  0.6798
  386MOL0     H50925  -2.799   5.578   5.185  0.2975 -0.4481 -2.5794
  386MOL0     H50926  -2.872   5.863   5.196 -2.5598 -1.3380 -1.7854
  386MOL0     H50927  -2.779   5.780   5.326 -1.7076  2.4079  1.3074
  386MOL0     H50928  -3.073   5.739   5.283  1.3172 -1.4580 -0.6317
  386MOL0     H50929  -2.985   5.825   5.415  0.5077  0.4309  0.0128
  386MOL0     H50930  -2.992   5.534   5.353  0.6629  1.4545 -1.2778
  386MOL0     H50931  -2.857   5.596   5.445  0.6147 -1.4688  0.2460
  386MOL0     H50932  -3.006   5.682   5.623 -2.5597 -1.2679  1.8328
  386MOL0     H50933  -3.052   5.513   5.591  3.5846 -0.1846 -0.7357
  386MOL0     H50934  -2.290   5.565   5.085 -0.7591  0.6262  1.8194
  386MOL0     H50935  -2.176   5.345   5.171  0.6658 -0.5798 -1.1762
  386MOL0     H50936  -2.243   4.968   5.485  1.6519 -0.0535 -1.2615
  386MOL0     H50937  -2.133   4.800   5.566  2.4624  1.0206 -0.2047
  386MOL0     H50938  -0.021   4.421   5.313  7.7825 -2.6673 -1.2230
  386MOL0     H50939   0.186   4.482   5.202  1.5794  1.1016 -1.1753
  386MOL0     H50940   0.407   5.052   4.914  0.4028  2.2090  0.3358
  386MOL0     H50941   0.631   5.106   4.882  0.4968 -0.3096  0.0195
  386MOL0     H50942   0.845   5.161   4.908  1.0754 -0.2334 -0.1260
  386MOL0     H50943   0.887   5.012   4.809  0.5808 -0.2042 -0.5345
  386MOL0     H50944   1.081   5.115   4.832 -2.5221  2.4464 -0.2101
  386MOL0     H50945   1.080   5.156   5.003  2.9718 -1.0664 -0.4889
  386MOL0     H50946   1.075   4.874   4.910 -0.3549  0.2632 -0.3938
  386MOL0     H50947   1.087   4.956   5.075  1.5535 -1.3991  0.7926
  386MOL0     H50948   1.302   5.072   4.964  0.6146 -0.3199 -0.0322
  386MOL0     H50949   1.288   4.904   5.029 -0.0023  0.5685  0.7260
  386MOL0     H50950   1.339   4.867   4.596  1.5599 -2.1895 -0.6546
  386MOL0     H50951   0.762   4.779   5.140 -0.3102  1.1401  2.5979
  386MOL0     H50952   0.520   4.736   5.175 -1.8183  1.1034  0.4565
  387MOL0     O50953   4.962   7.558  10.280 -0.1015  0.0504  0.4865
  387MOL0     C50954   5.055   7.517  10.213 -1.1579 -0.6920 -0.5155
  387MOL0     O50955   5.057   7.513  10.078 -0.5201 -0.9125 -0.0083
  387MOL0     C50956   4.955   7.567  10.007 -0.9183  0.6889 -0.4517
  387MOL0     C50957   4.985   7.675   9.925  0.0655 -0.2516 -0.8585
  387MOL0     C50958   4.886   7.732   9.848  0.0914 -0.2643 -0.2862
  387MOL0     C50959   4.762   7.688   9.850  0.3791 -0.3674 -0.3627
  387MOL0     O50960   4.675   7.739   9.758 -0.0257  0.2346 -0.0181
  387MOL0     C50961   4.573   7.671   9.686 -0.5730 -0.7696 -0.6181
  387MOL0     C50962   4.540   7.736   9.552  0.4820 -0.3734  0.0676
  387MOL0     C50963   4.434   7.854   9.555 -0.6503 -0.5827 -0.1102
  387MOL0     C50964   4.384   7.886   9.412 -0.3367  0.3224  1.1532
  387MOL0     C50965   4.490   7.919   9.304  0.4281  0.4097  0.5389
  387MOL0     C50966   4.510   7.808   9.195 -0.4965  0.8082  0.1529
  387MOL0     C50967   4.589   7.862   9.073 -0.0734 -0.9603  0.2566
  387MOL0     C50968   4.746   7.861   9.096 -0.5198  0.6478  0.1023
  387MOL0     N50969   4.821   7.830   8.974 -0.4886  0.7129  0.2539
  387MOL0     C50970   4.827   7.901   8.856 -0.1538 -0.0045  0.5447
  387MOL0     C50971   4.882   7.825   8.760  0.1564 -0.9707  0.7566
  387MOL0     C50972   4.899   7.855   8.607 -0.2965 -0.3016 -0.6282
  387MOL0     C50973   4.829   7.785   8.489 -0.5259  1.1358 -0.0014
  387MOL0     C50974   4.681   7.813   8.482  0.0023 -0.7406  0.3976
  387MOL0     C50975   4.600   7.764   8.601  0.5218  0.0574 -1.0463
  387MOL0     O50976   4.466   7.722   8.573  0.4152  0.6477  0.0160
  387MOL0     C50977   4.392   7.661   8.669 -0.6015 -0.0844 -1.0597
  387MOL0     C50978   4.446   7.641   8.800 -0.8877  0.4033 -0.2703
  387MOL0     C50979   4.367   7.591   8.907  0.2039  0.1281 -0.0309
  387MOL0     C50980   4.228   7.562   8.888  0.5848  0.6153 -0.3221
  387MOL0     C50981   4.141   7.514   9.004 -1.7344  0.3040 -0.6915
  387MOL0     O50982   4.029   7.451   8.967  0.3968  0.5701 -0.0532
  387MOL0     C50983   3.930   7.458   9.063 -0.0037  0.0213  0.3154
  387MOL0     C50984   3.830   7.556   9.063 -0.3802 -0.0156 -0.5543
  387MOL0     C50985   3.723   7.548   9.148 -0.4370  0.5663 -0.0172
  387MOL0     C50986   3.714   7.440   9.242  0.1610 -0.5188  0.0339
  387MOL0     O50987   3.613   7.449   9.337  0.0832  0.7756  0.2600
  387MOL0     C50988   3.586   7.338   9.430 -0.0623 -0.5985  0.6817
  387MOL0     C50989   3.660   7.351   9.572  0.5766  0.2834  1.1904
  387MOL0     C50990   3.585   7.268   9.677  1.3772 -0.9826 -0.2521
  387MOL0     C50991   3.669   7.294   9.805 -0.7709  0.0271  0.3237
  387MOL0     C50992   3.590   7.308   9.929 -0.1229  0.3832  0.1071
  387MOL0     C50993   3.489   7.415   9.938 -0.3041  0.3164  0.5655
  387MOL0     C50994   3.537   7.561   9.912  1.1069 -1.3125 -0.8193
  387MOL0     C50995   3.427   7.679   9.920  0.7730  0.4757 -0.1757
  387MOL0    Cl50996   3.329   7.637  10.061  0.5801  0.1443  0.0559
  387MOL0     C50997   3.808   7.327   9.227  0.2188  0.1908  0.1245
  387MOL0     C50998   3.907   7.334   9.131 -0.2041 -0.1683  0.6961
  387MOL0     O50999   4.177   7.549   9.117  0.5196  0.7074  0.6385
  387MOL0     C51000   4.177   7.577   8.746 -0.4999 -0.5883 -0.2691
  387MOL0     C51001   4.262   7.632   8.646  0.7494  0.8006 -1.1172
  387MOL0     N51002   4.913   7.700   8.818  0.0017  0.0111 -0.0776
  387MOL0     N51003   4.869   7.707   8.943 -0.0565  1.2940  0.3074
  387MOL0     C51004   4.727   7.574   9.926 -0.3791 -0.0152  0.3836
  387MOL0     C51005   4.829   7.505  10.006  0.1934  0.0132 -0.8384
  387MOL0     C51006   5.173   7.472  10.297  0.5547  0.7929  0.4255
  387MOL0     C51007   5.293   7.439  10.231 -0.4059  0.2916  0.3288
  387MOL0     C51008   5.393   7.396  10.311  0.3627  0.1446  0.0487
  387MOL0     C51009   5.376   7.382  10.444 -0.5706  0.7257 -0.5903
  387MOL0     O51010   5.482   7.313  10.497 -0.7428 -0.1269  0.5164
  387MOL0     C51011   5.577   7.376  10.579 -0.3266 -0.6676 -0.1824
  387MOL0     C51012   5.682   7.291  10.619  0.9421  0.8068  0.4549
  387MOL0     C51013   5.806   7.386  10.656  0.0011 -0.6744 -0.8397
  387MOL0     C51014   5.902   7.313  10.756  0.3575 -0.0392  0.1476
  387MOL0     C51015   5.979   7.202  10.688  0.6234  1.2069 -0.4212
  387MOL0     C51016   6.037   7.132  10.613 -0.4492  0.5203 -0.1040
  387MOL0     C51017   5.261   7.418  10.512  0.3366  0.1513  0.1005
  387MOL0     C51018   5.152   7.458  10.434 -0.2737 -0.9504 -0.9654
  387MOL0     H51019   5.089   7.705   9.922  0.1364 -0.2243  1.0628
  387MOL0     H51020   4.905   7.821   9.788  0.4146  0.4070  0.7787
  387MOL0     H51021   4.481   7.668   9.746 -2.4438 -0.3569 -3.3098
  387MOL0     H51022   4.610   7.571   9.664  1.1546  0.0746 -1.8236
  387MOL0     H51023   4.483   7.661   9.497 -2.0795  0.1858  1.7996
  387MOL0     H51024   4.637   7.758   9.505  1.1736 -3.5226 -0.1851
  387MOL0     H51025   4.463   7.950   9.598 -1.9231  0.1256 -0.7748
  387MOL0     H51026   4.349   7.822   9.617 -0.0600  0.4868  1.3127
  387MOL0     H51027   4.323   7.798   9.387  1.9120 -1.1366  0.4250
  387MOL0     H51028   4.318   7.972   9.414 -0.8993 -0.1108  1.7882
  387MOL0     H51029   4.581   7.944   9.360  0.5560 -0.1252  0.5799
  387MOL0     H51030   4.454   8.011   9.257 -2.8962 -0.3115  1.4742
  387MOL0     H51031   4.408   7.779   9.168  0.0967 -1.0805 -0.2183
  387MOL0     H51032   4.556   7.723   9.247 -0.7025  0.7918  0.3074
  387MOL0     H51033   4.562   7.795   8.991  0.1138 -1.5892  0.6977
  387MOL0     H51034   4.550   7.962   9.051  0.0245 -0.7893  0.8199
  387MOL0     H51035   4.768   7.788   9.174 -3.9424 -0.5567  0.1333
  387MOL0     H51036   4.778   7.962   9.124 -1.3064  0.7424  0.6952
  387MOL0     H51037   4.797   8.003   8.833  0.8206 -0.6596 -5.1412
  387MOL0     H51038   5.004   7.828   8.588 -0.0816 -1.0273  1.3428
  387MOL0     H51039   4.883   7.962   8.599 -1.8201 -0.4604 -0.1349
  387MOL0     H51040   4.841   7.677   8.478 -0.3958  1.0479  0.8749
  387MOL0     H51041   4.876   7.825   8.399  1.5171 -1.3711 -0.1531
  387MOL0     H51042   4.678   7.922   8.479  0.1811 -0.7470 -0.0886
  387MOL0     H51043   4.645   7.768   8.389  2.5062 -1.3005 -0.3914
  387MOL0     H51044   4.581   7.840   8.677  1.1196  0.2604 -1.0998
  387MOL0     H51045   4.659   7.680   8.641 -0.7336  1.3724  4.5095
  387MOL0     H51046   4.551   7.659   8.822 -0.5934 -2.1964  0.7629
  387MOL0     H51047   4.406   7.562   9.004  2.7266 -2.0161 -1.5535
  387MOL0     H51048   3.838   7.638   8.992 -1.0088  1.4654  1.0284
  387MOL0     H51049   3.659   7.634   9.134  1.2772  1.4934 -3.2658
  387MOL0     H51050   3.619   7.248   9.377 -1.9210 -1.5155  1.0125
  387MOL0     H51051   3.480   7.335   9.454  0.0974 -0.1689  1.5001
  387MOL0     H51052   3.652   7.459   9.585 -0.4963  0.3467  0.1531
  387MOL0     H51053   3.765   7.322   9.556  0.5538  0.7681  0.0712
  387MOL0     H51054   3.590   7.164   9.644  4.0433 -0.8007 -0.5872
  387MOL0     H51055   3.479   7.296   9.684  1.4835 -0.2073 -1.4749
  387MOL0     H51056   3.733   7.207   9.822 -3.4698 -3.1135 -3.6193
  387MOL0     H51057   3.739   7.375   9.784 -1.2102  0.5316  0.7789
  387MOL0     H51058   3.660   7.324  10.012  2.5950 -2.4484 -1.4174
  387MOL0     H51059   3.528   7.219   9.941  0.1869 -0.1465 -1.8264
  387MOL0     H51060   3.439   7.403  10.034 -0.9038  0.4416  0.2752
  387MOL0     H51061   3.414   7.390   9.863 -1.2558 -0.4916  1.7634
  387MOL0     H51062   3.619   7.585   9.979  1.0338  0.3248 -1.2830
  387MOL0     H51063   3.573   7.561   9.808 -2.2805 -2.3016 -2.1397
  387MOL0     H51064   3.364   7.682   9.830  1.1473 -2.9016 -0.7044
  387MOL0     H51065   3.463   7.779   9.945  0.1398  0.0817  2.6185
  387MOL0     H51066   3.800   7.247   9.301  1.6387 -1.4432 -1.3979
  387MOL0     H51067   3.971   7.249   9.110 -2.1479 -1.0958 -2.1091
  387MOL0     H51068   4.071   7.559   8.727 -0.5638 -2.2086  1.2846
  387MOL0     H51069   4.230   7.653   8.544  1.6291  0.0562 -1.5698
  387MOL0     H51070   4.625   7.535   9.928 -0.5219 -0.2343 -3.5472
  387MOL0     H51071   4.837   7.421  10.073  3.3840 -0.2111 -1.3580
  387MOL0     H51072   5.316   7.431  10.125  0.3463  1.1060  0.4165
  387MOL0     H51073   5.485   7.366  10.261  0.5606  1.4950 -0.4590
  387MOL0     H51074   5.529   7.405  10.673 -0.9529  2.1117 -1.2573
  387MOL0     H51075   5.615   7.467  10.531 -3.8171 -0.5261 -3.1801
  387MOL0     H51076   5.655   7.227  10.703  1.5037  1.8614  1.4735
  387MOL0     H51077   5.701   7.232  10.529  4.3975  0.3391  1.3265
  387MOL0     H51078   5.771   7.476  10.706 -1.0385 -0.8374 -1.2541
  387MOL0     H51079   5.860   7.411  10.564  0.4352 -0.7203 -0.6006
  387MOL0     H51080   5.981   7.387  10.768 -0.0030  0.5223 -0.8131
  387MOL0     H51081   5.856   7.303  10.855  1.2210 -0.7739  0.4896
  387MOL0     H51082   6.092   7.072  10.544 -0.6610  0.8304 -0.5472
  387MOL0     H51083   5.256   7.403  10.619 -1.5804  0.9346  0.1681
  387MOL0     H51084   5.057   7.480  10.482  0.3395  1.4737 -0.7138
  388MOL0     O51085   3.313   1.073   2.576 -0.0230  0.0333  0.0979
  388MOL0     C51086   3.366   1.011   2.479 -0.3786 -0.9508  0.2158
  388MOL0     O51087   3.301   0.986   2.364 -0.1613  0.1875  0.1385
  388MOL0     C51088   3.185   1.057   2.341 -0.0178  0.7068  0.6578
  388MOL0     C51089   3.061   1.022   2.405  1.0041  1.0218 -0.0335
  388MOL0     C51090   2.953   1.112   2.370 -0.4904  0.4773  0.6378
  388MOL0     C51091   2.963   1.218   2.277  0.7230  0.3748 -0.3204
  388MOL0     O51092   2.850   1.286   2.238  0.1229  0.1008  0.5180
  388MOL0     C51093   2.864   1.423   2.205 -1.2604  0.1250  1.0010
  388MOL0     C51094   2.727   1.484   2.201  0.7503 -1.1611 -0.0917
  388MOL0     C51095   2.673   1.552   2.335  0.5983 -0.5498 -0.0192
  388MOL0     C51096   2.568   1.663   2.295  0.1792  0.6771 -0.7723
  388MOL0     C51097   2.501   1.732   2.410  0.2138 -0.8737 -0.7176
  388MOL0     C51098   2.386   1.654   2.464  0.0881 -0.0532 -0.3592
  388MOL0     C51099   2.325   1.743   2.579  0.0454 -0.2679 -0.3375
  388MOL0     C51100   2.245   1.869   2.529 -0.3144  0.5463 -0.0221
  388MOL0     N51101   2.114   1.887   2.581 -0.9551  0.0173  0.3292
  388MOL0     C51102   2.002   1.826   2.542 -1.5630 -0.0815 -0.2248
  388MOL0     C51103   1.904   1.900   2.592 -0.3101  0.3837  0.3569
  388MOL0     C51104   1.766   1.856   2.560  0.1094  0.1545  0.4712
  388MOL0     C51105   1.659   1.966   2.596  0.1364 -0.9560 -0.2982
  388MOL0     C51106   1.645   1.982   2.742  0.7196 -0.6626 -0.0033
  388MOL0     C51107   1.540   1.884   2.800 -0.1985  0.7303 -0.3408
  388MOL0     O51108   1.526   1.921   2.938  0.4614 -0.2231 -0.1075
  388MOL0     C51109   1.439   1.846   3.012 -0.2004 -1.0098  0.2655
  388MOL0     C51110   1.335   1.762   2.963  0.5383  0.1702  0.5916
  388MOL0     C51111   1.258   1.690   3.048  1.1205 -0.4713  0.1814
  388MOL0     C51112   1.276   1.703   3.187 -0.1358  0.3148  0.0684
  388MOL0     C51113   1.190   1.629   3.287 -0.2398  0.1378  0.0936
  388MOL0     O51114   1.082   1.551   3.220 -0.4546  0.1981 -0.3483
  388MOL0     C51115   0.972   1.504   3.291  0.4375  0.7606  0.2031
  388MOL0     C51116   0.970   1.475   3.427 -0.5764 -0.6430 -0.5890
  388MOL0     C51117   0.860   1.423   3.482 -0.1019 -0.6326 -0.0742
  388MOL0     C51118   0.754   1.382   3.409 -0.5646  0.4418  0.1790
  388MOL0     O51119   0.644   1.324   3.466  0.9558 -0.4156  0.8305
  388MOL0     C51120   0.657   1.240   3.575  0.0886  0.3745 -0.6161
  388MOL0     C51121   0.533   1.178   3.617  0.0449  0.4106 -0.1288
  388MOL0     C51122   0.474   1.076   3.519 -0.2183  0.3102 -0.7163
  388MOL0     C51123   0.329   1.031   3.582 -0.0981  0.9174 -0.6115
  388MOL0     C51124   0.287   0.901   3.525  0.4108  0.1984  0.5450
  388MOL0     C51125   0.173   0.828   3.588  1.2179 -0.1891  0.0992
  388MOL0     C51126   0.045   0.908   3.573  0.0312 -0.4896 -0.5177
  388MOL0     C51127  -0.062   0.851   3.659  0.0668  0.1009  0.2467
  388MOL0    Cl51128  -0.222   0.900   3.606  0.0241 -0.5944 -0.4361
  388MOL0     C51129   0.753   1.418   3.277  0.3548 -0.4552  0.4147
  388MOL0     C51130   0.862   1.473   3.210 -0.2729  0.6907  0.0388
  388MOL0     O51131   1.204   1.634   3.412  0.0500  0.1445  0.7971
  388MOL0     C51132   1.368   1.784   3.245 -0.8197  0.6420  0.2436
  388MOL0     C51133   1.442   1.859   3.155 -0.9479 -0.3288 -0.2090
  388MOL0     N51134   1.961   1.996   2.675  0.4346  0.2687 -0.3609
  388MOL0     N51135   2.087   1.988   2.677  0.9534 -0.0124  1.2699
  388MOL0     C51136   3.092   1.235   2.215 -0.4022  0.2876 -0.8310
  388MOL0     C51137   3.206   1.165   2.253  0.6152 -1.5020  0.4136
  388MOL0     C51138   3.496   0.940   2.498  0.0075 -0.1645  1.0339
  388MOL0     C51139   3.539   0.919   2.629 -0.5112 -0.3176  0.9376
  388MOL0     C51140   3.661   0.854   2.648  0.7801  0.3287  0.5517
  388MOL0     C51141   3.739   0.806   2.539  0.0635 -0.6249 -0.3043
  388MOL0     O51142   3.852   0.736   2.556  0.5244 -0.1638  0.4168
  388MOL0     C51143   3.978   0.792   2.516 -0.6081 -0.4083  0.6566
  388MOL0     C51144   4.080   0.685   2.472  0.3636 -0.1651 -0.9387
  388MOL0     C51145   4.231   0.738   2.457  0.6825  0.2528  0.0812
  388MOL0     C51146   4.329   0.657   2.384 -0.0945 -0.4133  0.8280
  388MOL0     C51147   4.463   0.707   2.386 -0.6238  0.3685 -0.5918
  388MOL0     C51148   4.574   0.748   2.352 -0.1279  0.3652 -0.0781
  388MOL0     C51149   3.706   0.847   2.408  0.1453  0.0486  0.1560
  388MOL0     C51150   3.583   0.916   2.384 -0.4746  0.0353  0.4013
  388MOL0     H51151   3.051   0.938   2.474  0.7408  0.8551 -0.2690
  388MOL0     H51152   2.854   1.084   2.406 -0.7716 -1.1094 -1.1772
  388MOL0     H51153   2.910   1.440   2.107  3.0199 -0.3718  2.6978
  388MOL0     H51154   2.917   1.481   2.281  0.0149  0.3746 -0.0570
  388MOL0     H51155   2.650   1.425   2.150 -0.2207  0.6210 -0.7721
  388MOL0     H51156   2.741   1.570   2.135 -2.9284  0.3269  0.8403
  388MOL0     H51157   2.756   1.600   2.387 -0.4566 -0.6545  1.8520
  388MOL0     H51158   2.617   1.477   2.392  1.0149 -0.6541  0.2521
  388MOL0     H51159   2.611   1.750   2.245 -0.1485  0.2604 -1.7998
  388MOL0     H51160   2.494   1.619   2.228 -1.9701  1.3471  1.0745
  388MOL0     H51161   2.461   1.827   2.373 -0.5494 -1.2186 -0.7959
  388MOL0     H51162   2.567   1.761   2.492 -2.0036  1.3056  0.4390
  388MOL0     H51163   2.404   1.552   2.496 -2.9223 -0.9780 -1.3093
  388MOL0     H51164   2.305   1.637   2.393 -0.1037 -2.4734  0.3693
  388MOL0     H51165   2.257   1.685   2.642  0.6270 -0.8480 -0.2407
  388MOL0     H51166   2.403   1.771   2.649  0.3518  0.1443 -0.8365
  388MOL0     H51167   2.250   1.853   2.421  5.2629  2.0750 -0.2949
  388MOL0     H51168   2.298   1.963   2.546  0.0361 -0.0696  2.7784
  388MOL0     H51169   2.008   1.743   2.473  1.8332  1.1556 -1.5964
  388MOL0     H51170   1.741   1.762   2.611 -2.7751  0.3612 -0.3813
  388MOL0     H51171   1.756   1.829   2.455  0.1354  0.8518  0.2873
  388MOL0     H51172   1.567   1.929   2.550  1.1562 -2.0529 -1.4829
  388MOL0     H51173   1.690   2.061   2.552  1.5243  0.5743  3.4942
  388MOL0     H51174   1.743   1.970   2.788  0.4203 -5.1004 -0.0425
  388MOL0     H51175   1.607   2.083   2.761 -1.1803 -1.8947  3.6227
  388MOL0     H51176   1.568   1.779   2.786  1.2470  0.8723  1.0926
  388MOL0     H51177   1.439   1.903   2.763 -1.6116 -1.1531  2.1978
  388MOL0     H51178   1.310   1.759   2.857 -0.3284 -3.0408  0.7729
  388MOL0     H51179   1.165   1.642   3.017 -0.5065  1.5624  1.6036
  388MOL0     H51180   1.046   1.500   3.501 -2.9979 -0.5546  2.0500
  388MOL0     H51181   0.853   1.419   3.591 -1.1749  1.4039 -0.0055
  388MOL0     H51182   0.699   1.307   3.651 -0.6186  0.6949 -0.5051
  388MOL0     H51183   0.728   1.160   3.552 -0.8900  0.2943 -3.7723
  388MOL0     H51184   0.454   1.253   3.627  0.9652  1.6355 -1.6037
  388MOL0     H51185   0.549   1.137   3.718 -1.0439  2.9295  1.1610
  388MOL0     H51186   0.539   0.988   3.516  0.5329  0.8506 -0.4788
  388MOL0     H51187   0.456   1.117   3.419 -2.7875  0.1385 -0.3952
  388MOL0     H51188   0.345   1.014   3.689  0.3400  3.6698 -0.1543
  388MOL0     H51189   0.245   1.099   3.562 -2.0816 -1.5078 -1.0940
  388MOL0     H51190   0.373   0.835   3.535  1.8541  2.2748  3.6100
  388MOL0     H51191   0.262   0.915   3.420  0.7214  2.3744  0.7184
  388MOL0     H51192   0.180   0.817   3.697 -0.4243  3.0009  0.6534
  388MOL0     H51193   0.154   0.724   3.558  2.6547 -1.0282  1.8738
  388MOL0     H51194   0.055   1.014   3.595  0.0781 -0.4629 -0.6681
  388MOL0     H51195   0.013   0.900   3.469 -0.4705  1.3658 -0.5367
  388MOL0     H51196  -0.053   0.860   3.768 -2.2243 -0.5955  0.5481
  388MOL0     H51197  -0.064   0.741   3.653  1.9412  0.0717 -0.4578
  388MOL0     H51198   0.659   1.412   3.224 -0.8319  1.0151  2.2238
  388MOL0     H51199   0.860   1.489   3.103 -0.6057 -0.1619 -0.0874
  388MOL0     H51200   1.382   1.804   3.351  0.3939 -0.1606  0.2496
  388MOL0     H51201   1.517   1.922   3.202  1.2500 -0.8813 -2.7971
  388MOL0     H51202   3.100   1.316   2.144  0.2779  1.2093  0.2613
  388MOL0     H51203   3.299   1.199   2.209  0.5493 -1.2523  0.4672
  388MOL0     H51204   3.477   0.952   2.712 -0.9690 -3.0802  1.8086
  388MOL0     H51205   3.689   0.832   2.751  0.4485  1.2643  0.8475
  388MOL0     H51206   4.023   0.855   2.594  2.7468  2.6475 -3.2522
  388MOL0     H51207   3.967   0.858   2.429  1.2974 -0.5902  0.2236
  388MOL0     H51208   4.070   0.601   2.542 -0.9041 -0.8625 -1.9066
  388MOL0     H51209   4.060   0.644   2.373  3.7841  0.2302 -1.8983
  388MOL0     H51210   4.263   0.754   2.560 -2.0463 -0.8688  1.1993
  388MOL0     H51211   4.228   0.834   2.405 -0.3393  0.4217  0.4314
  388MOL0     H51212   4.320   0.554   2.421 -0.2807 -0.9965 -0.7340
  388MOL0     H51213   4.301   0.648   2.278  0.9277  0.7212  0.4420
  388MOL0     H51214   4.667   0.796   2.327 -0.6490 -0.4955 -4.5878
  388MOL0     H51215   3.780   0.823   2.332  2.4854 -0.8031  2.5529
  388MOL0     H51216   3.542   0.934   2.285  0.9418 -2.7966 -0.8005
  389MOL0     O51217   5.900  10.257   5.431 -0.6072  0.3141  0.6461
  389MOL0     C51218   6.012  10.286   5.472 -0.7172  0.2263  0.1976
  389MOL0     O51219   6.059  10.258   5.598  0.3116  0.1439  0.7364
  389MOL0     C51220   5.961  10.227   5.691  0.4313 -0.3223 -0.8247
  389MOL0     C51221   5.904  10.321   5.772 -0.1788 -0.4639  0.3287
  389MOL0     C51222   5.801  10.289   5.862  0.2162  0.3839  0.2893
  389MOL0     C51223   5.744  10.158   5.857 -0.4598 -0.1176 -0.1247
  389MOL0     O51224   5.632  10.105   5.919 -0.6761  0.1872 -0.2421
  389MOL0     C51225   5.606  10.145   6.056 -0.1314 -1.5250 -0.8797
  389MOL0     C51226   5.687  10.082   6.161 -1.0381  0.0658 -1.0733
  389MOL0     C51227   5.685   9.926   6.164 -0.0413  1.1806  0.1015
  389MOL0     C51228   5.547   9.866   6.172 -0.1306  1.1325  0.0828
  389MOL0     C51229   5.472   9.899   6.302  0.8468 -0.7518 -0.6425
  389MOL0     C51230   5.340   9.808   6.308 -0.4629 -0.5132  0.2206
  389MOL0     C51231   5.246   9.861   6.425  0.6324 -0.1409  0.8901
  389MOL0     C51232   5.135   9.765   6.444  0.1377  0.5830  0.4914
  389MOL0     N51233   5.072   9.803   6.564  0.3445 -0.5853  0.3333
  389MOL0     C51234   5.086   9.748   6.692 -1.1808  1.0270  0.1525
  389MOL0     C51235   4.976   9.792   6.755  0.5431 -0.3138  0.3676
  389MOL0     C51236   4.958   9.767   6.904 -0.6559  0.6525 -0.9155
  389MOL0     C51237   5.030   9.870   6.991 -0.0887  0.6939  0.1554
  389MOL0     C51238   4.989   9.843   7.145 -0.0514  0.8835  0.7439
  389MOL0     C51239   5.052   9.928   7.252  0.3466  0.7667 -0.2740
  389MOL0     O51240   5.048   9.858   7.373 -0.0591 -0.1367 -0.2062
  389MOL0     C51241   4.935   9.874   7.446 -0.2505  0.1564  0.1225
  389MOL0     C51242   4.890   9.753   7.484 -0.0028 -0.7981 -0.4829
  389MOL0     C51243   4.774   9.745   7.558  0.0646  0.7088  0.0053
  389MOL0     C51244   4.694   9.859   7.599 -0.6898 -0.5429 -0.3945
  389MOL0     C51245   4.563   9.844   7.671 -0.3510 -0.1470 -0.2481
  389MOL0     O51246   4.513   9.961   7.726  0.8521 -0.1824  0.2187
  389MOL0     C51247   4.397   9.949   7.797  0.6916 -1.0114  0.1309
  389MOL0     C51248   4.362  10.057   7.876 -0.5004  0.3396  0.2798
  389MOL0     C51249   4.237  10.066   7.947  0.7030 -0.7402 -0.0658
  389MOL0     C51250   4.142   9.964   7.950 -1.2476  0.4875  0.3898
  389MOL0     O51251   4.015   9.963   8.005 -0.3315  0.1225 -0.2115
  389MOL0     C51252   4.004  10.034   8.134  0.3161  0.0929  0.2008
  389MOL0     C51253   3.860  10.025   8.193  0.1489 -0.5791 -0.0207
  389MOL0     C51254   3.808   9.886   8.196  0.1001  0.5624  0.2368
  389MOL0     C51255   3.678   9.878   8.275  0.0379  0.1962  0.2421
  389MOL0     C51256   3.636   9.731   8.294 -0.4474  0.6746  0.0821
  389MOL0     C51257   3.500   9.739   8.363  0.2408  0.7827 -0.1297
  389MOL0     C51258   3.444   9.603   8.369 -0.6240 -0.4612  0.4133
  389MOL0     C51259   3.339   9.573   8.480 -0.1146 -0.1710  0.5265
  389MOL0    Cl51260   3.200   9.688   8.461 -0.4289  0.3294  0.0841
  389MOL0     C51261   4.174   9.863   7.867  0.5210 -0.2945  0.4362
  389MOL0     C51262   4.293   9.850   7.792 -0.2367  0.2927 -0.4577
  389MOL0     O51263   4.509   9.732   7.676 -0.2746  0.1161  0.2252
  389MOL0     C51264   4.741   9.983   7.554 -0.3513  0.8582  0.6526
  389MOL0     C51265   4.867   9.997   7.482  0.4829  0.3534  0.0969
  389MOL0     N51266   4.906   9.875   6.670  0.2465 -0.2765 -0.4560
  389MOL0     N51267   4.967   9.885   6.556 -0.0107 -0.3358 -0.0546
  389MOL0     C51268   5.819  10.068   5.781 -0.2160 -0.3608 -0.0787
  389MOL0     C51269   5.906  10.104   5.680  0.3415  0.4200 -0.8622
  389MOL0     C51270   6.114  10.336   5.369  0.8238 -1.0456 -0.7270
  389MOL0     C51271   6.064  10.363   5.236 -0.4674 -0.3958  0.2760
  389MOL0     C51272   6.144  10.408   5.138  0.0758  0.4430  0.4563
  389MOL0     C51273   6.275  10.427   5.156  0.2210 -0.9099 -0.5364
  389MOL0     O51274   6.336  10.492   5.054  0.4524  0.7760  0.7353
  389MOL0     C51275   6.484  10.525   5.066 -0.0377  0.1018  0.2438
  389MOL0     C51276   6.560  10.397   5.033 -0.4415  0.3415 -0.3678
  389MOL0     C51277   6.692  10.419   4.966 -0.9812 -0.7343 -0.0380
  389MOL0     C51278   6.780  10.298   4.956 -0.0231 -0.1735  0.6431
  389MOL0     C51279   6.885  10.328   4.857  0.0696  0.3726 -0.3881
  389MOL0     C51280   6.968  10.350   4.772  0.2503 -0.5666  0.0574
  389MOL0     C51281   6.330  10.400   5.285 -0.5102  0.8812  0.9806
  389MOL0     C51282   6.243  10.360   5.389 -0.4360  0.9625  0.3616
  389MOL0     H51283   5.934  10.423   5.754  0.5685 -0.8901 -1.0379
  389MOL0     H51284   5.740  10.369   5.904 -0.8729  0.0074 -0.5403
  389MOL0     H51285   5.500  10.116   6.062 -0.6075  0.1208  4.1288
  389MOL0     H51286   5.611  10.253   6.073 -0.0230 -1.5877 -0.4884
  389MOL0     H51287   5.648  10.118   6.256  0.7117  2.2562 -1.0934
  389MOL0     H51288   5.786  10.126   6.145 -0.2632  0.1412  2.9558
  389MOL0     H51289   5.740   9.896   6.254  0.5676 -3.1622 -1.4941
  389MOL0     H51290   5.732   9.873   6.081 -1.6199 -3.5807  1.9289
  389MOL0     H51291   5.480   9.886   6.088 -0.2789 -1.9154 -0.6227
  389MOL0     H51292   5.568   9.759   6.174  1.2592  1.3893  1.9288
  389MOL0     H51293   5.454  10.006   6.312 -0.6172 -1.0351 -0.0248
  389MOL0     H51294   5.539   9.872   6.385 -0.0170  1.5962  0.9000
  389MOL0     H51295   5.355   9.700   6.317 -0.5966 -0.8995 -3.2287
  389MOL0     H51296   5.272   9.812   6.223  1.9708  0.5335 -1.8139
  389MOL0     H51297   5.303   9.857   6.518  0.4914  0.4012  1.0051
  389MOL0     H51298   5.222   9.964   6.396  1.3001 -0.1599  0.2375
  389MOL0     H51299   5.169   9.661   6.447 -2.9854 -0.5489  0.6397
  389MOL0     H51300   5.067   9.778   6.360  0.3018 -1.5801 -0.0159
  389MOL0     H51301   5.159   9.677   6.730 -1.4894  0.4008 -0.4210
  389MOL0     H51302   4.985   9.665   6.931 -1.9421  0.8185  1.2957
  389MOL0     H51303   4.851   9.769   6.927 -0.0355  0.2184  2.5586
  389MOL0     H51304   4.997   9.973   6.974  0.4252  1.4596  3.2222
  389MOL0     H51305   5.137   9.865   6.970  0.6515 -0.7883  3.6917
  389MOL0     H51306   4.884   9.871   7.152  0.1179  1.6443  0.4260
  389MOL0     H51307   5.024   9.742   7.168  1.2803  1.2440  0.4149
  389MOL0     H51308   4.997  10.023   7.248  2.8291  2.2571 -1.9935
  389MOL0     H51309   5.154   9.959   7.225 -0.0728  1.6750 -0.8971
  389MOL0     H51310   4.935   9.660   7.450 -0.7373 -1.8234  1.2102
  389MOL0     H51311   4.739   9.648   7.592  1.4535  0.5589  1.0950
  389MOL0     H51312   4.429  10.141   7.887 -1.3347  1.4196 -2.0829
  389MOL0     H51313   4.220  10.167   7.985  2.1715 -0.3874 -0.2451
  389MOL0     H51314   4.031  10.140   8.128  1.0518 -0.0415  0.9947
  389MOL0     H51315   4.068   9.986   8.208 -1.1868 -0.9927  0.8549
  389MOL0     H51316   3.791  10.086   8.134 -1.4654 -0.9648  1.4026
  389MOL0     H51317   3.854  10.071   8.292  1.0963  0.4796 -0.4241
  389MOL0     H51318   3.880   9.814   8.235  1.6531  3.0546  2.2780
  389MOL0     H51319   3.776   9.854   8.096 -1.5860  1.6120  0.4003
  389MOL0     H51320   3.709   9.921   8.371  2.9729 -1.4401  0.1573
  389MOL0     H51321   3.602   9.950   8.244 -1.5984  0.4568  4.1621
  389MOL0     H51322   3.704   9.663   8.347  0.0655 -0.1315 -1.5437
  389MOL0     H51323   3.627   9.685   8.195  2.7415  1.9978 -0.9344
  389MOL0     H51324   3.430   9.796   8.300 -0.3726 -0.8303 -0.9800
  389MOL0     H51325   3.515   9.781   8.462  3.3530 -2.4444  0.9742
  389MOL0     H51326   3.396   9.598   8.271 -0.8413  0.9487  0.4282
  389MOL0     H51327   3.528   9.536   8.390  0.0231  0.6788  1.5421
  389MOL0     H51328   3.386   9.571   8.579 -2.3585  0.5358  1.6925
  389MOL0     H51329   3.305   9.471   8.461 -2.0959  0.3479  1.0082
  389MOL0     H51330   4.097   9.789   7.848  1.1709 -0.7015 -0.7168
  389MOL0     H51331   4.294   9.755   7.740 -2.9648  1.6681 -3.3711
  389MOL0     H51332   4.687  10.077   7.563 -0.8891  0.5622  0.5527
  389MOL0     H51333   4.884  10.099   7.451 -2.9537  2.2106  3.4058
  389MOL0     H51334   5.778   9.968   5.788 -0.9239 -0.1723 -1.1700
  389MOL0     H51335   5.949  10.030   5.613  0.4817  0.1266 -0.4462
  389MOL0     H51336   5.961  10.351   5.203  0.2335 -1.3563 -1.7485
  389MOL0     H51337   6.099  10.423   5.040  0.7978  1.9446  0.3232
  389MOL0     H51338   6.514  10.544   5.170  1.5870 -3.3541  0.5484
  389MOL0     H51339   6.500  10.605   4.994  2.4522 -0.8667 -0.3807
  389MOL0     H51340   6.568  10.346   5.130 -0.4996  1.8490  0.4602
  389MOL0     H51341   6.502  10.326   4.974  0.4925 -1.3945  0.6937
  389MOL0     H51342   6.741  10.495   5.028  0.8270 -0.1247 -2.1150
  389MOL0     H51343   6.662  10.458   4.868  0.1980 -0.8303 -0.4526
  389MOL0     H51344   6.818  10.262   5.052  0.0443  1.5574  1.3078
  389MOL0     H51345   6.736  10.229   4.884 -1.2613  1.0432  0.1756
  389MOL0     H51346   7.044  10.380   4.703 -1.4937  0.8486 -1.3462
  389MOL0     H51347   6.435  10.400   5.310 -0.3855 -0.6330  0.5477
  389MOL0     H51348   6.291  10.349   5.486 -1.8871  0.9443  1.1067
  390MOL0     O51349  11.317   9.962   2.332 -0.0267  0.1585 -0.1074
  390MOL0     C51350  11.350   9.901   2.234 -0.1209 -0.0513  0.0418
  390MOL0     O51351  11.285   9.899   2.113  0.6921 -0.6544 -0.1454
  390MOL0     C51352  11.171   9.981   2.099  0.3261  0.4478  0.1348
  390MOL0     C51353  11.041   9.923   2.088 -0.4124 -0.2795  0.7716
  390MOL0     C51354  10.936  10.011   2.073  0.7000  0.9127 -1.8717
  390MOL0     C51355  10.951  10.147   2.069 -0.0293  0.0551  0.7427
  390MOL0     O51356  10.845  10.239   2.066  0.0551 -0.3712  1.1699
  390MOL0     C51357  10.716  10.187   2.023  0.1053  0.4171 -0.0202
  390MOL0     C51358  10.612  10.277   2.081  0.5399  0.4783  0.2566
  390MOL0     C51359  10.468  10.206   2.072 -0.1633 -0.5878 -0.1819
  390MOL0     C51360  10.438  10.094   2.175  0.5434  0.4199 -0.8856
  390MOL0     C51361  10.442  10.157   2.320  0.3846  0.1572 -0.1350
  390MOL0     C51362  10.430  10.047   2.435  0.0953  0.3465 -0.2338
  390MOL0     C51363  10.287  10.019   2.462 -0.0482  0.5843 -1.1493
  390MOL0     C51364  10.266   9.964   2.605  0.3140  0.0343 -0.8266
  390MOL0     N51365  10.302   9.824   2.634 -0.8383 -0.0714 -0.1442
  390MOL0     C51366  10.423   9.774   2.668 -0.5882 -0.8126  0.2618
  390MOL0     C51367  10.405   9.645   2.705  0.3731  0.7572 -0.2911
  390MOL0     C51368  10.514   9.562   2.771 -0.8840  0.4856 -0.0695
  390MOL0     C51369  10.488   9.537   2.926 -0.7097  0.7583  0.8234
  390MOL0     C51370  10.459   9.672   2.992  0.0961  0.9264 -0.6799
  390MOL0     C51371  10.469   9.669   3.139 -0.5083  0.2961  0.4335
  390MOL0     O51372  10.355   9.593   3.191  0.3993 -0.3103  0.9350
  390MOL0     C51373  10.307   9.602   3.322 -0.6149 -0.6508 -0.7513
  390MOL0     C51374  10.202   9.509   3.348  0.0909 -0.5619  0.1757
  390MOL0     C51375  10.117   9.536   3.457 -0.3352  0.1333 -0.0567
  390MOL0     C51376  10.154   9.620   3.560 -0.0269 -0.1041 -0.4050
  390MOL0     C51377  10.070   9.652   3.675  0.0272 -0.0012  0.4840
  390MOL0     O51378   9.972   9.558   3.700 -0.6390 -0.3885  0.4591
  390MOL0     C51379   9.877   9.580   3.794  0.6960 -0.1355  0.4500
  390MOL0     C51380   9.844   9.472   3.866  0.3866 -0.3059 -0.3737
  390MOL0     C51381   9.745   9.476   3.972 -0.4373  0.0637 -0.1884
  390MOL0     C51382   9.677   9.591   4.007 -0.7078  0.2297 -0.2431
  390MOL0     O51383   9.589   9.568   4.117  0.2792 -0.0175 -0.4789
  390MOL0     C51384   9.522   9.686   4.172  0.6662 -0.4821 -0.4960
  390MOL0     C51385   9.379   9.713   4.113 -0.0814  0.0624  0.0049
  390MOL0     C51386   9.278   9.601   4.145 -0.5439  0.4106  0.0819
  390MOL0     C51387   9.135   9.646   4.112 -0.1487  0.7660 -0.3881
  390MOL0     C51388   9.040   9.528   4.083  0.2999  0.3405  0.8092
  390MOL0     C51389   9.003   9.435   4.198 -0.3340 -0.1794 -0.0236
  390MOL0     C51390   8.948   9.511   4.325  0.9745  0.9234  0.1007
  390MOL0     C51391   8.878   9.421   4.422 -0.5629  0.3302  0.6640
  390MOL0    Cl51392   8.952   9.266   4.460  0.1030  0.0052 -0.4561
  390MOL0     C51393   9.700   9.707   3.934 -0.6767 -0.7180  0.2744
  390MOL0     C51394   9.805   9.704   3.835  0.1204 -0.4964  0.4981
  390MOL0     O51395  10.096   9.749   3.746 -0.1022  0.6100 -0.5299
  390MOL0     C51396  10.280   9.686   3.548 -0.5688 -0.7211  0.2725
  390MOL0     C51397  10.350   9.676   3.426 -0.5745 -0.5291 -0.3718
  390MOL0     N51398  10.272   9.614   2.691 -0.1077 -0.0792  0.3793
  390MOL0     N51399  10.209   9.724   2.650  0.4072  0.7067 -1.8473
  390MOL0     C51400  11.080  10.204   2.074  0.8686  0.1355  0.1060
  390MOL0     C51401  11.186  10.122   2.091 -0.1746 -0.4253  0.1125
  390MOL0     C51402  11.473   9.823   2.240 -0.0866 -0.8078 -0.1440
  390MOL0     C51403  11.572   9.842   2.349 -0.5844 -0.6084 -0.1669
  390MOL0     C51404  11.691   9.769   2.353 -0.7511  0.0343 -0.1399
  390MOL0     C51405  11.718   9.673   2.256  1.0616 -0.6868 -0.1195
  390MOL0     O51406  11.841   9.614   2.255  0.2801  0.4837 -1.1733
  390MOL0     C51407  11.867   9.485   2.200  0.3182  0.6742 -0.4764
  390MOL0     C51408  11.918   9.496   2.058 -0.1167  0.3383  0.5268
  390MOL0     C51409  12.049   9.572   2.051  0.8588 -0.6025  0.7218
  390MOL0     C51410  12.098   9.605   1.907  0.0565 -0.2077 -0.0113
  390MOL0     C51411  12.052   9.741   1.872 -0.5508  0.2393 -0.8476
  390MOL0     C51412  12.010   9.848   1.831  0.7092  0.3065  0.0801
  390MOL0     C51413  11.617   9.645   2.160 -0.5396 -0.0719 -0.1673
  390MOL0     C51414  11.499   9.717   2.157 -0.6191 -0.3028  0.2307
  390MOL0     H51415  11.030   9.816   2.087  5.0031 -1.1701 -1.6565
  390MOL0     H51416  10.843   9.955   2.075 -0.2074  2.3610 -1.8719
  390MOL0     H51417  10.689  10.096   2.077 -1.4253  0.8790  0.0420
  390MOL0     H51418  10.712  10.169   1.915  1.3925  0.6456 -0.1291
  390MOL0     H51419  10.612  10.373   2.028  0.3183  0.7407  0.7312
  390MOL0     H51420  10.642  10.287   2.185 -0.4187  0.0663  0.5860
  390MOL0     H51421  10.446  10.188   1.967 -0.2994 -2.0401  0.0746
  390MOL0     H51422  10.403  10.291   2.095  0.1644 -0.1279 -0.9147
  390MOL0     H51423  10.340  10.045   2.166  1.1134 -1.6934  2.6278
  390MOL0     H51424  10.509  10.011   2.173 -0.1544 -0.3471  1.5847
  390MOL0     H51425  10.366  10.234   2.337  0.0582 -0.2932  0.4979
  390MOL0     H51426  10.543  10.193   2.340  0.5579  0.8850 -2.1189
  390MOL0     H51427  10.473  10.079   2.530 -3.6058  0.0579  1.7530
  390MOL0     H51428  10.483   9.956   2.405 -2.3220 -1.2621  0.0696
  390MOL0     H51429  10.229  10.111   2.470  0.3042  0.6332  2.1326
  390MOL0     H51430  10.249   9.950   2.386  0.8501  0.3293 -1.3874
  390MOL0     H51431  10.157   9.967   2.622  0.2884  2.3364 -1.1184
  390MOL0     H51432  10.304  10.036   2.678  1.6792  1.3459 -2.7417
  390MOL0     H51433  10.519   9.826   2.664 -0.4578 -1.1196 -0.7936
  390MOL0     H51434  10.616   9.600   2.771 -1.3623  1.7965 -0.0955
  390MOL0     H51435  10.518   9.465   2.720  0.2400 -1.2712  3.0817
  390MOL0     H51436  10.582   9.505   2.972  0.9937  2.0326 -1.5643
  390MOL0     H51437  10.403   9.469   2.937  1.9236 -3.1261 -0.7345
  390MOL0     H51438  10.536   9.746   2.969  2.8060 -1.4365  0.1822
  390MOL0     H51439  10.367   9.716   2.952  0.2153 -0.4085 -2.5472
  390MOL0     H51440  10.470   9.776   3.164 -1.3619  0.4135 -0.0041
  390MOL0     H51441  10.566   9.628   3.170 -1.3205 -1.4826  0.7202
  390MOL0     H51442  10.165   9.449   3.266 -1.9964 -2.4564  2.3236
  390MOL0     H51443  10.021   9.484   3.457  0.8748 -2.2714 -0.0592
  390MOL0     H51444   9.891   9.374   3.863  0.0130 -0.4671 -3.2992
  390MOL0     H51445   9.721   9.400   4.046  3.6072  0.2722  1.5730
  390MOL0     H51446   9.589   9.771   4.163  1.2341 -1.0494 -1.8582
  390MOL0     H51447   9.498   9.681   4.279 -1.3649  1.6217 -0.7881
  390MOL0     H51448   9.385   9.723   4.004  2.9079 -0.6129  0.0242
  390MOL0     H51449   9.347   9.803   4.167  0.5628  0.1714  0.2111
  390MOL0     H51450   9.291   9.583   4.252  0.1680 -1.0497 -0.2230
  390MOL0     H51451   9.308   9.515   4.084 -3.3950  2.3961 -4.6439
  390MOL0     H51452   9.088   9.712   4.186 -2.5912  0.5386 -1.6299
  390MOL0     H51453   9.138   9.711   4.025  1.0796  0.4766 -0.5801
  390MOL0     H51454   9.074   9.468   3.998 -1.6528 -3.1246  2.2787
  390MOL0     H51455   8.944   9.567   4.047  2.1869  2.0995 -2.9068
  390MOL0     H51456   9.093   9.380   4.228 -0.1689 -1.4179 -2.5005
  390MOL0     H51457   8.939   9.355   4.159 -0.3598  0.2632 -0.9099
  390MOL0     H51458   9.039   9.543   4.376  1.7761 -1.4191  0.2452
  390MOL0     H51459   8.879   9.592   4.301  0.0601  0.8603  2.2562
  390MOL0     H51460   8.786   9.399   4.368 -0.6816 -0.7855  1.2997
  390MOL0     H51461   8.861   9.480   4.513 -0.6343 -1.1147  1.6096
  390MOL0     H51462   9.649   9.801   3.955  0.0644 -0.0662 -0.7251
  390MOL0     H51463   9.820   9.801   3.789 -2.1442 -0.1481  0.3781
  390MOL0     H51464  10.315   9.750   3.628  0.6907 -2.8634  1.5343
  390MOL0     H51465  10.444   9.727   3.408 -1.8311  1.0212 -3.1605
  390MOL0     H51466  11.090  10.312   2.065  4.1786 -0.1548 -1.2050
  390MOL0     H51467  11.288  10.158   2.100  0.3514 -0.4759 -3.7219
  390MOL0     H51468  11.559   9.918   2.426  0.6834 -1.3141  0.7802
  390MOL0     H51469  11.778   9.801   2.411 -2.3929 -0.2764  2.6710
  390MOL0     H51470  11.778   9.422   2.203  1.4070 -0.8673  0.9602
  390MOL0     H51471  11.955   9.442   2.249  1.7955  1.6311 -2.1347
  390MOL0     H51472  11.943   9.393   2.029 -3.1882 -0.6110  0.8731
  390MOL0     H51473  11.837   9.535   1.995  1.7113  1.9486 -0.9592
  390MOL0     H51474  12.128   9.504   2.085  2.0483  0.4761  0.2077
  390MOL0     H51475  12.060   9.662   2.112 -1.3216 -0.9495  1.7345
  390MOL0     H51476  12.203   9.578   1.896 -0.4442 -2.4028  0.2467
  390MOL0     H51477  12.042   9.546   1.834 -1.1581  1.9305 -0.8902
  390MOL0     H51478  11.990   9.933   1.769  0.4195  0.9718  1.0586
  390MOL0     H51479  11.636   9.565   2.089  1.5284  0.5542 -0.3945
  390MOL0     H51480  11.429   9.674   2.086  1.0827  0.4709 -2.0508
  391MOL0     O51481  10.242   3.619   1.201  0.4199  0.3187  0.2298
  391MOL0     C51482  10.266   3.544   1.108  0.5019  0.2145 -0.3755
  391MOL0     O51483  10.176   3.469   1.040  0.4542 -0.6043 -0.3236
  391MOL0     C51484  10.043   3.490   1.054  0.3564 -0.2707 -0.6944
  391MOL0     C51485   9.948   3.398   1.011 -0.9065  0.3580  0.8975
  391MOL0     C51486   9.813   3.435   0.980 -0.6626  0.4949  0.7470
  391MOL0     C51487   9.761   3.555   1.013 -0.5105 -0.6190  0.2637
  391MOL0     O51488   9.627   3.579   1.009  0.0519 -0.0152  0.7235
  391MOL0     C51489   9.567   3.522   1.127  0.3739 -0.4047  0.5450
  391MOL0     C51490   9.434   3.460   1.088  1.1064  0.1597 -0.6036
  391MOL0     C51491   9.339   3.465   1.207  0.9567  0.2324 -0.4975
  391MOL0     C51492   9.210   3.376   1.201 -0.3061  0.1552  0.8052
  391MOL0     C51493   9.124   3.381   1.326 -0.5365 -0.1975  0.5354
  391MOL0     C51494   8.999   3.293   1.325  0.1211 -0.1226  0.5196
  391MOL0     C51495   8.905   3.318   1.446 -0.9799 -0.2596 -0.2038
  391MOL0     C51496   8.759   3.262   1.422 -0.2784  1.0916 -0.3473
  391MOL0     N51497   8.662   3.283   1.528 -0.3055 -0.0465 -0.1527
  391MOL0     C51498   8.607   3.190   1.619  0.2498  0.1259  0.1083
  391MOL0     C51499   8.554   3.270   1.713  0.0301  0.1877  0.0444
  391MOL0     C51500   8.490   3.230   1.840 -0.4118 -0.4454 -0.4851
  391MOL0     C51501   8.337   3.228   1.816 -0.1328 -0.1000  0.2635
  391MOL0     C51502   8.266   3.226   1.948  0.4221 -0.4079 -0.2831
  391MOL0     C51503   8.305   3.352   2.036 -0.8583 -0.4256  0.1058
  391MOL0     O51504   8.204   3.375   2.135  0.5474  0.5221  0.0013
  391MOL0     C51505   8.085   3.435   2.106  0.0129  0.2490  0.1786
  391MOL0     C51506   7.996   3.447   2.210  0.2879 -0.4797 -0.2645
  391MOL0     C51507   7.882   3.526   2.199  0.5958  1.0216  0.2450
  391MOL0     C51508   7.862   3.591   2.069  0.2681 -0.7161 -1.8385
  391MOL0     C51509   7.755   3.684   2.052 -0.1521 -0.7333  0.6049
  391MOL0     O51510   7.640   3.658   2.118 -0.3892 -0.0275  0.3173
  391MOL0     C51511   7.544   3.750   2.138  0.3233 -0.4871  0.7574
  391MOL0     C51512   7.409   3.726   2.102 -1.2399 -0.0011  0.1639
  391MOL0     C51513   7.302   3.811   2.138  0.0481  0.4091 -0.0057
  391MOL0     C51514   7.331   3.938   2.191  0.2822 -0.1347  1.1536
  391MOL0     O51515   7.234   4.034   2.223 -0.7953  0.1078  0.2431
  391MOL0     C51516   7.102   3.993   2.245  0.6442  0.5762  0.7157
  391MOL0     C51517   7.009   4.113   2.262 -0.1151 -0.4720  0.6956
  391MOL0     C51518   6.871   4.059   2.309  0.5097  0.3106  0.7904
  391MOL0     C51519   6.764   4.174   2.305  0.8678  0.3344 -0.1111
  391MOL0     C51520   6.619   4.116   2.350 -0.5211 -0.3622 -0.2358
  391MOL0     C51521   6.531   4.061   2.237 -0.5774 -0.2317 -0.2207
  391MOL0     C51522   6.404   4.001   2.307  0.4271 -0.1236 -0.4558
  391MOL0     C51523   6.306   3.958   2.205 -0.9207 -0.2885  0.5469
  391MOL0    Cl51524   6.169   3.865   2.277  0.2329  0.2640 -0.5140
  391MOL0     C51525   7.467   3.969   2.215  0.6788  0.7195 -0.2275
  391MOL0     C51526   7.570   3.877   2.188  0.5466 -0.0530  0.1960
  391MOL0     O51527   7.779   3.789   1.990  0.5347  0.5999 -0.8620
  391MOL0     C51528   7.950   3.571   1.960 -0.1578  0.6429  0.1226
  391MOL0     C51529   8.059   3.492   1.977 -0.6486 -0.6617  0.0563
  391MOL0     N51530   8.569   3.401   1.672 -0.9856 -0.6307  0.7895
  391MOL0     N51531   8.642   3.408   1.567  0.1001 -0.5459 -0.8542
  391MOL0     C51532   9.855   3.652   1.065 -0.3281  1.2821  0.2348
  391MOL0     C51533   9.991   3.624   1.076  0.1079  0.8891  0.6430
  391MOL0     C51534  10.402   3.520   1.064  0.1095 -1.0054 -0.2953
  391MOL0     C51535  10.507   3.579   1.132 -0.1320  0.0570  0.0289
  391MOL0     C51536  10.639   3.574   1.087 -0.1953 -0.9748  0.6397
  391MOL0     C51537  10.670   3.511   0.955  0.8528  0.3365 -0.0650
  391MOL0     O51538  10.798   3.489   0.907 -0.6608  0.0486  0.4309
  391MOL0     C51539  10.825   3.401   0.808  0.0139 -0.4532  0.8923
  391MOL0     C51540  10.976   3.395   0.782  0.1552  0.4903 -0.1986
  391MOL0     C51541  11.040   3.537   0.759  1.1248 -0.0838 -0.0464
  391MOL0     C51542  11.182   3.539   0.704 -0.3148  0.7648  0.0778
  391MOL0     C51543  11.288   3.459   0.771 -0.6041  0.4439 -0.1045
  391MOL0     C51544  11.375   3.415   0.845  1.0035  0.1922 -0.1084
  391MOL0     C51545  10.560   3.452   0.893 -0.2879  0.0071  1.2270
  391MOL0     C51546  10.429   3.464   0.939  0.2024 -1.5008 -0.9447
  391MOL0     H51547   9.982   3.298   0.988  0.4310  0.3232  2.8686
  391MOL0     H51548   9.737   3.371   0.937 -0.4309  0.7806 -0.1119
  391MOL0     H51549   9.541   3.598   1.201 -2.8182 -3.0207  2.3938
  391MOL0     H51550   9.622   3.449   1.187  2.2057  0.3877 -0.1086
  391MOL0     H51551   9.442   3.356   1.056 -1.8670  0.0330 -1.2493
  391MOL0     H51552   9.380   3.501   1.002 -0.3513 -1.0388 -0.3050
  391MOL0     H51553   9.299   3.564   1.229 -0.2351 -0.7013  1.9330
  391MOL0     H51554   9.391   3.422   1.294 -1.9778 -0.4261  1.0881
  391MOL0     H51555   9.156   3.415   1.115  2.3685  3.9323  0.5919
  391MOL0     H51556   9.233   3.271   1.184 -0.9427 -0.0268  1.0405
  391MOL0     H51557   9.098   3.485   1.346  1.4452  0.2703  0.8511
  391MOL0     H51558   9.189   3.342   1.405  0.2952  2.2276  1.1186
  391MOL0     H51559   9.028   3.187   1.323 -1.2278 -0.5098 -1.7419
  391MOL0     H51560   8.940   3.319   1.237  1.1838 -2.2136 -0.8870
  391MOL0     H51561   8.953   3.269   1.532  1.9081  0.4531 -1.3007
  391MOL0     H51562   8.903   3.423   1.476  0.6668 -0.7645  1.9625
  391MOL0     H51563   8.767   3.157   1.394 -2.0062  1.4461 -2.3907
  391MOL0     H51564   8.723   3.310   1.331  0.5837 -1.4336 -2.1189
  391MOL0     H51565   8.617   3.082   1.624  0.8722  0.2427  2.5161
  391MOL0     H51566   8.521   3.315   1.903 -1.3036  0.3975 -1.1478
  391MOL0     H51567   8.525   3.139   1.888  0.1542  1.7435  3.7716
  391MOL0     H51568   8.315   3.134   1.764  0.6319  0.2351 -0.6980
  391MOL0     H51569   8.307   3.313   1.755  0.6521 -0.8235 -1.1905
  391MOL0     H51570   8.158   3.229   1.932  0.1962  0.5796  1.1988
  391MOL0     H51571   8.282   3.129   1.998  0.9023 -2.1541 -3.5442
  391MOL0     H51572   8.329   3.438   1.973 -0.2754  0.0955  1.0048
  391MOL0     H51573   8.396   3.357   2.096 -1.3201  3.2376  0.7549
  391MOL0     H51574   8.030   3.400   2.301  2.1458  2.0839  0.4917
  391MOL0     H51575   7.818   3.543   2.285  1.0882  1.0080  0.6180
  391MOL0     H51576   7.384   3.635   2.049  1.6402 -0.1517 -1.1182
  391MOL0     H51577   7.199   3.785   2.112  0.7460 -0.3377 -2.2510
  391MOL0     H51578   7.102   3.928   2.333  0.8108 -4.0563 -2.3911
  391MOL0     H51579   7.055   3.930   2.169 -0.6754  1.6623  0.5947
  391MOL0     H51580   7.000   4.173   2.171 -1.2182  0.3458  1.3183
  391MOL0     H51581   7.045   4.176   2.343 -0.2421 -0.4202  0.7109
  391MOL0     H51582   6.881   4.014   2.408  0.1669  0.7436  1.0296
  391MOL0     H51583   6.838   3.984   2.236  1.3987  2.2012 -1.7149
  391MOL0     H51584   6.808   4.240   2.381 -0.6829 -0.2376  1.3389
  391MOL0     H51585   6.748   4.228   2.211 -1.5804 -0.8261 -0.4312
  391MOL0     H51586   6.570   4.196   2.406  1.3899 -0.0198  1.0437
  391MOL0     H51587   6.622   4.042   2.430  1.7347 -0.1452 -0.0675
  391MOL0     H51588   6.588   3.988   2.180  0.4331 -0.2050  0.7333
  391MOL0     H51589   6.511   4.143   2.167  1.1338 -0.8650 -1.5051
  391MOL0     H51590   6.428   3.919   2.376 -2.4128  0.2857  1.1964
  391MOL0     H51591   6.356   4.076   2.370  2.2195 -0.7173  1.7805
  391MOL0     H51592   6.365   3.911   2.126 -1.7026  1.7445 -1.3353
  391MOL0     H51593   6.276   4.056   2.166  1.3731  0.5946  0.8053
  391MOL0     H51594   7.499   4.069   2.240 -1.1353  1.2469  0.1812
  391MOL0     H51595   7.671   3.909   2.207  0.6708 -0.1429 -0.3112
  391MOL0     H51596   7.940   3.620   1.863 -1.8432  0.9371  0.4139
  391MOL0     H51597   8.127   3.479   1.894 -3.5251  2.0819 -3.0630
  391MOL0     H51598   9.835   3.758   1.081 -0.4868  2.0241 -3.8049
  391MOL0     H51599  10.056   3.708   1.100  1.9140 -0.8231  2.1381
  391MOL0     H51600  10.488   3.620   1.231  0.5714 -0.8207  0.5421
  391MOL0     H51601  10.708   3.621   1.157  0.3316 -0.2091 -0.3602
  391MOL0     H51602  10.772   3.444   0.723 -1.0789  0.5248  2.0169
  391MOL0     H51603  10.784   3.301   0.826  0.6358 -0.7827  0.4932
  391MOL0     H51604  11.036   3.356   0.865  1.9983  3.0351 -0.2243
  391MOL0     H51605  10.978   3.335   0.691 -1.4294  0.2548 -0.1021
  391MOL0     H51606  11.031   3.602   0.846  1.3957  1.0767 -0.8595
  391MOL0     H51607  10.983   3.587   0.681  0.1620 -1.5722 -0.3388
  391MOL0     H51608  11.179   3.508   0.599 -1.1392 -0.5936  0.4766
  391MOL0     H51609  11.223   3.640   0.706 -0.4017  0.8308 -0.8826
  391MOL0     H51610  11.445   3.382   0.919  1.4131  0.5819 -0.3197
  391MOL0     H51611  10.568   3.391   0.804  0.8976  0.3945  1.0542
  391MOL0     H51612  10.356   3.418   0.873 -1.0064  1.4294 -1.7701
  392MOL0     O51613   9.999   3.706   3.629 -0.1026 -0.6447  0.0568
  392MOL0     C51614  10.021   3.598   3.689  0.1714  0.2731 -0.0538
  392MOL0     O51615   9.925   3.519   3.740  0.0534  0.1101 -0.5215
  392MOL0     C51616   9.796   3.539   3.702 -0.2912 -0.4971 -0.6186
  392MOL0     C51617   9.699   3.600   3.790 -0.4173  0.5490  0.1244
  392MOL0     C51618   9.564   3.604   3.748  0.1954  0.5478 -0.2100
  392MOL0     C51619   9.517   3.536   3.638  0.7495  0.2234  0.9118
  392MOL0     O51620   9.379   3.550   3.627 -0.3573 -0.3829  0.8561
  392MOL0     C51621   9.309   3.506   3.509 -1.0125 -0.1340 -0.4303
  392MOL0     C51622   9.155   3.496   3.522  0.4311  0.2598 -0.2939
  392MOL0     C51623   9.081   3.629   3.554 -0.5956 -0.1483  0.5038
  392MOL0     C51624   8.923   3.616   3.555  0.8080 -0.8244  0.3484
  392MOL0     C51625   8.850   3.601   3.422  0.2839 -0.6536  0.7503
  392MOL0     C51626   8.698   3.630   3.431 -0.4494 -0.1570  0.4187
  392MOL0     C51627   8.638   3.639   3.293 -0.0488  0.0598  0.7568
  392MOL0     C51628   8.552   3.520   3.238 -0.2339  0.8485 -0.4050
  392MOL0     N51629   8.431   3.482   3.318  0.6210  0.6316 -0.0026
  392MOL0     C51630   8.374   3.566   3.412 -0.7606 -0.7902  0.3453
  392MOL0     C51631   8.249   3.516   3.429 -0.4819  0.6948  0.7045
  392MOL0     C51632   8.159   3.554   3.530 -0.6596  0.6298 -0.2417
  392MOL0     C51633   8.007   3.551   3.472 -0.6743 -0.2250 -0.7513
  392MOL0     C51634   7.910   3.595   3.591  0.3880  0.5035 -0.7616
  392MOL0     C51635   7.784   3.509   3.586 -0.4335 -0.0863 -0.4541
  392MOL0     O51636   7.737   3.498   3.455  0.2592 -0.2033 -0.1418
  392MOL0     C51637   7.606   3.533   3.430 -0.1855  0.1939 -0.7335
  392MOL0     C51638   7.521   3.438   3.371 -0.0683 -0.5182  0.6017
  392MOL0     C51639   7.376   3.464   3.352  0.3192 -0.0283 -0.1226
  392MOL0     C51640   7.323   3.585   3.400 -0.4979  0.6952  0.2284
  392MOL0     C51641   7.172   3.608   3.379 -0.1865  0.1835  0.0883
  392MOL0     O51642   7.126   3.732   3.409 -0.3930 -1.1379 -0.0822
  392MOL0     C51643   6.995   3.746   3.439  0.4847  0.4429  0.1230
  392MOL0     C51644   6.908   3.715   3.342  0.4630  0.2928  0.3984
  392MOL0     C51645   6.767   3.730   3.352 -0.4404  0.6839 -0.6882
  392MOL0     C51646   6.722   3.800   3.468 -0.5063  0.3451 -0.4768
  392MOL0     O51647   6.594   3.826   3.506 -0.0845 -0.5741 -0.8776
  392MOL0     C51648   6.488   3.807   3.406 -1.5254 -1.0541  0.0726
  392MOL0     C51649   6.354   3.876   3.433  0.3776 -0.3840 -0.4020
  392MOL0     C51650   6.249   3.816   3.340  0.5390 -0.4850  0.2437
  392MOL0     C51651   6.112   3.861   3.379  0.6240  0.7699 -0.4306
  392MOL0     C51652   6.022   3.862   3.256  0.6841 -0.3023 -1.1603
  392MOL0     C51653   5.873   3.897   3.279 -1.0074 -0.0896  0.2611
  392MOL0     C51654   5.785   3.786   3.330 -0.3661  1.1152 -0.8776
  392MOL0     C51655   5.650   3.845   3.364  0.5559 -0.0537  0.4690
  392MOL0    Cl51656   5.559   3.929   3.244 -0.1973 -0.0200 -0.0974
  392MOL0     C51657   6.815   3.845   3.560 -0.5289  0.3106 -0.3001
  392MOL0     C51658   6.954   3.814   3.553  0.0697  0.1802  0.6183
  392MOL0     O51659   7.098   3.513   3.363 -0.1658  0.3280 -0.5298
  392MOL0     C51660   7.412   3.678   3.450  0.3652  0.2371  0.1183
  392MOL0     C51661   7.552   3.653   3.459 -0.2538 -0.3553  0.8614
  392MOL0     N51662   8.227   3.414   3.338 -0.0793 -0.0757 -0.4455
  392MOL0     N51663   8.341   3.378   3.284 -0.8835 -0.0095  0.5955
  392MOL0     C51664   9.612   3.477   3.546  0.0701  0.4735  0.3464
  392MOL0     C51665   9.750   3.480   3.585 -0.0013 -0.6749 -0.1998
  392MOL0     C51666  10.154   3.572   3.713  0.9135  0.4992 -0.8126
  392MOL0     C51667  10.193   3.520   3.841  0.3051  0.8458  0.1353
  392MOL0     C51668  10.328   3.511   3.875 -0.5848  0.5479 -0.4272
  392MOL0     C51669  10.429   3.535   3.786 -0.4320  0.3134  0.3187
  392MOL0     O51670  10.559   3.507   3.821 -0.1997 -0.2466  0.3433
  392MOL0     C51671  10.664   3.578   3.760  0.2711 -0.8117  0.1952
  392MOL0     C51672  10.788   3.551   3.851 -0.0999 -0.3399  0.3061
  392MOL0     C51673  10.910   3.629   3.794  1.0397  0.4225 -0.3784
  392MOL0     C51674  11.022   3.632   3.900 -0.7904 -0.1731 -0.0828
  392MOL0     C51675  11.146   3.695   3.848  0.5244 -0.0828 -0.0031
  392MOL0     C51676  11.228   3.765   3.796 -0.5967  0.6148  0.8607
  392MOL0     C51677  10.384   3.583   3.661 -0.6158 -1.1215 -0.6344
  392MOL0     C51678  10.252   3.601   3.625 -0.1679 -0.9711 -0.4864
  392MOL0     H51679   9.722   3.641   3.887  1.2794  0.4153 -0.1879
  392MOL0     H51680   9.481   3.653   3.797 -1.4949 -2.0717 -0.2902
  392MOL0     H51681   9.347   3.413   3.468 -1.7060 -1.0902  1.0089
  392MOL0     H51682   9.331   3.583   3.433  0.0852 -1.6765 -1.7457
  392MOL0     H51683   9.145   3.426   3.605 -1.1525 -1.1082 -1.5703
  392MOL0     H51684   9.119   3.461   3.425 -2.3262 -0.8044  1.0138
  392MOL0     H51685   9.108   3.684   3.463 -0.0029 -1.3677 -0.0772
  392MOL0     H51686   9.126   3.687   3.635  3.1012  0.0658 -1.4743
  392MOL0     H51687   8.910   3.526   3.615  0.2096  0.3849  2.1004
  392MOL0     H51688   8.882   3.699   3.613  0.7560 -0.3647 -0.3296
  392MOL0     H51689   8.873   3.507   3.371  1.4122  0.0660 -0.1053
  392MOL0     H51690   8.885   3.673   3.348  0.1675 -2.7972 -1.5047
  392MOL0     H51691   8.682   3.724   3.485 -1.1253  1.0879 -1.8324
  392MOL0     H51692   8.648   3.546   3.481 -0.7074 -0.7006 -0.7407
  392MOL0     H51693   8.576   3.729   3.295 -0.5530 -0.2992  1.5404
  392MOL0     H51694   8.715   3.676   3.224  0.0274  4.0248  2.7023
  392MOL0     H51695   8.615   3.430   3.244 -1.7156 -0.1037  2.7213
  392MOL0     H51696   8.530   3.525   3.131 -1.9005  1.1946 -0.0641
  392MOL0     H51697   8.421   3.646   3.468  0.3408  0.2285 -1.9010
  392MOL0     H51698   8.184   3.656   3.559  1.6687  0.2137 -0.6259
  392MOL0     H51699   8.178   3.490   3.617  0.0247 -2.5774 -2.5567
  392MOL0     H51700   7.982   3.450   3.438  0.7270 -1.6272  2.0269
  392MOL0     H51701   7.990   3.620   3.388  1.1522 -2.1851 -2.8661
  392MOL0     H51702   7.953   3.597   3.692 -1.4482  0.7283  0.0571
  392MOL0     H51703   7.879   3.697   3.566 -0.8344  0.4712  0.4589
  392MOL0     H51704   7.709   3.548   3.655 -2.2468 -0.4370 -2.1480
  392MOL0     H51705   7.810   3.411   3.627  0.2405 -0.5134 -1.8177
  392MOL0     H51706   7.570   3.346   3.341  0.5153  0.6792 -2.6122
  392MOL0     H51707   7.319   3.380   3.314  0.8302 -1.6788  2.5230
  392MOL0     H51708   6.950   3.687   3.246 -1.7873 -0.0055 -0.5752
  392MOL0     H51709   6.708   3.692   3.269  1.2876 -0.0788 -1.6181
  392MOL0     H51710   6.468   3.699   3.405 -1.4460 -1.1983 -3.8749
  392MOL0     H51711   6.530   3.815   3.305 -2.4627  0.2624 -0.2260
  392MOL0     H51712   6.368   3.983   3.417 -0.8338 -0.3081 -0.9943
  392MOL0     H51713   6.341   3.866   3.541  3.2372  2.1502  0.3249
  392MOL0     H51714   6.255   3.707   3.338 -1.6588 -0.6316 -0.3702
  392MOL0     H51715   6.267   3.870   3.246  0.0884  0.7038  0.8126
  392MOL0     H51716   6.064   3.794   3.451  1.1985  0.8805  0.0687
  392MOL0     H51717   6.124   3.949   3.443  0.5670 -0.1526  0.8968
  392MOL0     H51718   6.023   3.766   3.203  0.8977 -1.4416  0.8022
  392MOL0     H51719   6.060   3.946   3.196  0.7795 -0.1634 -0.9062
  392MOL0     H51720   5.830   3.927   3.183  0.9970  1.4912 -0.2149
  392MOL0     H51721   5.877   3.990   3.336  0.7291  0.9838 -1.4937
  392MOL0     H51722   5.771   3.715   3.247  1.9597  0.3016 -0.6416
  392MOL0     H51723   5.836   3.739   3.414  3.1245  1.7938 -2.4533
  392MOL0     H51724   5.663   3.912   3.450  2.2030  2.4606 -1.5582
  392MOL0     H51725   5.581   3.763   3.386  1.9854 -1.4142  0.0323
  392MOL0     H51726   6.771   3.903   3.640 -0.0834  0.5016 -0.1932
  392MOL0     H51727   7.020   3.845   3.634  0.9461 -0.8378  0.3066
  392MOL0     H51728   7.371   3.772   3.486  0.4082 -0.4551  2.1032
  392MOL0     H51729   7.630   3.726   3.481  0.5910 -0.6532 -1.0220
  392MOL0     H51730   9.589   3.429   3.452 -2.1885  1.0913  0.5286
  392MOL0     H51731   9.815   3.422   3.521  0.9139 -0.9713  0.9600
  392MOL0     H51732  10.116   3.496   3.913 -0.0671 -1.6618 -0.9643
  392MOL0     H51733  10.365   3.470   3.969  0.1997  0.2392 -0.8632
  392MOL0     H51734  10.641   3.684   3.772 -0.1356 -1.2271  4.9681
  392MOL0     H51735  10.692   3.555   3.657 -0.4590 -0.8949  0.0124
  392MOL0     H51736  10.757   3.591   3.948 -0.9271 -0.4787  0.1099
  392MOL0     H51737  10.803   3.443   3.858 -0.0044 -0.2895  0.9695
  392MOL0     H51738  10.872   3.728   3.768 -0.9849  0.2813  1.7737
  392MOL0     H51739  10.944   3.572   3.707 -0.5913 -2.0811  0.5044
  392MOL0     H51740  10.982   3.685   3.987 -1.6797  2.0589 -1.7489
  392MOL0     H51741  11.057   3.539   3.945  2.2699  0.5395 -0.7548
  392MOL0     H51742  11.314   3.825   3.773 -0.5937  0.4788  0.5198
  392MOL0     H51743  10.467   3.597   3.592 -1.1972  2.1127 -0.8790
  392MOL0     H51744  10.226   3.637   3.526 -1.0314  1.3518  0.5038
  393MOL0     O51745   7.113   0.221   5.122 -0.9458 -0.5770 -0.3311
  393MOL0     C51746   7.055   0.209   5.225  0.0643 -0.2253 -1.2265
  393MOL0     O51747   7.117   0.177   5.341  0.2582 -0.8809 -0.0800
  393MOL0     C51748   7.258   0.202   5.332 -0.3360 -0.5981  0.5711
  393MOL0     C51749   7.337   0.089   5.305  0.4037 -0.6721  0.1906
  393MOL0     C51750   7.476   0.095   5.307 -0.1056  0.0929  0.6047
  393MOL0     C51751   7.535   0.218   5.347  0.9878  0.5301 -0.0280
  393MOL0     O51752   7.669   0.239   5.353 -0.0353 -0.7648 -0.1707
  393MOL0     C51753   7.751   0.134   5.302  0.5201  0.9644  0.1425
  393MOL0     C51754   7.902   0.178   5.304 -1.2235 -0.0104 -0.4606
  393MOL0     C51755   7.962   0.236   5.431  0.9575 -0.1547  0.3487
  393MOL0     C51756   8.113   0.266   5.429 -0.5719 -0.6915 -0.4698
  393MOL0     C51757   8.173   0.292   5.561  0.1834  0.0131 -0.8196
  393MOL0     C51758   8.334   0.296   5.560  0.0311  0.4360 -0.3538
  393MOL0     C51759   8.404   0.309   5.695  0.3846  0.7999  0.6707
  393MOL0     C51760   8.397   0.172   5.777 -0.6292  0.8952  0.0779
  393MOL0     N51761   8.429   0.212   5.912 -0.9291 -0.6760  0.1377
  393MOL0     C51762   8.337   0.241   6.009  0.0002  0.2512 -0.4886
  393MOL0     C51763   8.408   0.294   6.105 -0.2747 -0.6918  1.1199
  393MOL0     C51764   8.355   0.360   6.232  0.1700  0.6519  0.2426
  393MOL0     C51765   8.442   0.358   6.354  0.9504 -0.0832  0.3415
  393MOL0     C51766   8.467   0.212   6.408  0.1439 -0.4807  0.0166
  393MOL0     C51767   8.559   0.203   6.527 -0.3605 -0.5347  0.4185
  393MOL0     O51768   8.517   0.102   6.613 -0.5825  0.4809 -0.0345
  393MOL0     C51769   8.399   0.108   6.685 -0.5091  0.5996 -0.0018
  393MOL0     C51770   8.367   0.006   6.774 -0.0799 -0.3932  0.8312
  393MOL0     C51771   8.245   0.006   6.849  0.4231  0.9152 -0.7620
  393MOL0     C51772   8.157   0.114   6.843  0.2082  1.2630  0.1452
  393MOL0     C51773   8.020   0.112   6.910  0.4309 -0.2679  0.4799
  393MOL0     O51774   7.982  -0.008   6.975 -0.4816 -0.0868 -0.0549
  393MOL0     C51775   7.864  -0.015   7.045 -0.7711  0.0010 -0.1878
  393MOL0     C51776   7.862  -0.015   7.189 -0.4444 -0.9468 -0.4940
  393MOL0     C51777   7.744  -0.012   7.258 -0.1931  0.7398 -0.0450
  393MOL0     C51778   7.626  -0.029   7.181 -0.5313  0.0537 -1.7215
  393MOL0     O51779   7.506  -0.030   7.247 -0.1856 -0.7417 -0.2188
  393MOL0     C51780   7.473   0.066   7.352 -0.0680 -0.3902  0.4435
  393MOL0     C51781   7.473   0.214   7.301 -0.3789  0.0144  0.1820
  393MOL0     C51782   7.439   0.318   7.414  0.5077 -0.0202 -0.7879
  393MOL0     C51783   7.293   0.305   7.469 -0.2229  0.3633  0.2682
  393MOL0     C51784   7.261   0.390   7.595  0.2256 -0.7312 -0.1617
  393MOL0     C51785   7.260   0.544   7.564 -0.4714  0.7307 -0.4052
  393MOL0     C51786   7.362   0.614   7.656  0.4821  0.1429 -0.3720
  393MOL0     C51787   7.386   0.761   7.607  0.8677 -0.2696 -0.6095
  393MOL0    Cl51788   7.234   0.854   7.604  0.2647  0.5138 -0.2812
  393MOL0     C51789   7.634  -0.037   7.046  0.4345 -1.0897 -0.1796
  393MOL0     C51790   7.747  -0.032   6.978  0.1573 -0.1631  0.4245
  393MOL0     O51791   7.941   0.206   6.878  0.2627 -0.5134  0.6360
  393MOL0     C51792   8.204   0.226   6.783 -0.6644 -0.4374  0.7729
  393MOL0     C51793   8.325   0.221   6.708  0.2091 -0.5539  0.6215
  393MOL0     N51794   8.541   0.295   6.070 -0.7934 -0.5625  0.3161
  393MOL0     N51795   8.552   0.238   5.957 -0.1706 -0.9123 -0.6348
  393MOL0     C51796   7.456   0.332   5.375 -0.2984 -0.2635  0.1817
  393MOL0     C51797   7.315   0.327   5.361 -0.5929 -0.5046 -0.8220
  393MOL0     C51798   6.907   0.201   5.237 -0.8121 -0.1077  0.4760
  393MOL0     C51799   6.831   0.256   5.131  0.5289 -0.1190 -0.1034
  393MOL0     C51800   6.686   0.257   5.137  0.2436 -0.9699  0.1058
  393MOL0     C51801   6.628   0.192   5.251 -0.0762 -0.3617  0.0586
  393MOL0     O51802   6.492   0.201   5.258  0.4500 -0.0689  0.1697
  393MOL0     C51803   6.425   0.086   5.206  0.6014  0.0812  0.4862
  393MOL0     C51804   6.291   0.117   5.139  0.4428 -0.2572 -0.4883
  393MOL0     C51805   6.196   0.174   5.244  0.8914 -0.0366  0.2980
  393MOL0     C51806   6.045   0.157   5.218 -1.0312 -0.7326  0.3464
  393MOL0     C51807   5.968   0.219   5.322 -0.7101 -0.3012 -0.3142
  393MOL0     C51808   5.917   0.258   5.417 -0.1987 -0.3698 -0.0594
  393MOL0     C51809   6.706   0.143   5.352  0.3474  0.0072  0.5537
  393MOL0     C51810   6.845   0.146   5.352  0.3318  0.4992  0.3961
  393MOL0     H51811   7.286  -0.001   5.273  2.7900 -0.7777 -4.1392
  393MOL0     H51812   7.538   0.012   5.274 -0.7607 -0.3841  0.5672
  393MOL0     H51813   7.710   0.100   5.207 -2.0239 -3.0103  2.4031
  393MOL0     H51814   7.729   0.061   5.380  1.3526  2.5871  2.0012
  393MOL0     H51815   7.897   0.257   5.229 -4.2536  2.3959  1.9950
  393MOL0     H51816   7.967   0.093   5.279  2.6302  1.5218  3.1642
  393MOL0     H51817   7.926   0.173   5.513 -0.9992  1.6350  0.9635
  393MOL0     H51818   7.918   0.336   5.437 -0.5558 -0.7069 -0.9629
  393MOL0     H51819   8.156   0.174   5.389  2.7207  1.1342 -1.5489
  393MOL0     H51820   8.141   0.349   5.363 -0.2012  0.2671  0.8497
  393MOL0     H51821   8.135   0.208   5.620 -3.5705  2.4888  0.6279
  393MOL0     H51822   8.132   0.383   5.606 -2.1841 -1.5771  0.4235
  393MOL0     H51823   8.346   0.392   5.509 -1.2413  1.4516  1.1629
  393MOL0     H51824   8.387   0.210   5.517 -1.9618 -2.5195  2.5899
  393MOL0     H51825   8.504   0.339   5.663  1.6501 -3.3234  0.0920
  393MOL0     H51826   8.357   0.382   5.761 -0.7385  1.1650 -0.4938
  393MOL0     H51827   8.479   0.110   5.741 -1.0127  0.1013  0.5668
  393MOL0     H51828   8.300   0.122   5.771 -0.0617 -0.0936 -2.6183
  393MOL0     H51829   8.229   0.232   6.005  0.0088  0.4333 -1.3261
  393MOL0     H51830   8.267   0.296   6.248  0.8051 -0.9270 -1.9748
  393MOL0     H51831   8.332   0.464   6.208  0.4163  0.8409  0.8290
  393MOL0     H51832   8.382   0.407   6.431  0.1704  1.3695 -1.1317
  393MOL0     H51833   8.532   0.413   6.326  0.2732  0.2767 -1.2451
  393MOL0     H51834   8.370   0.175   6.443  0.4743  0.5648  2.1933
  393MOL0     H51835   8.512   0.165   6.320  1.2627  1.8476 -0.7122
  393MOL0     H51836   8.572   0.302   6.571  0.8695 -0.6295  0.2925
  393MOL0     H51837   8.655   0.169   6.487 -0.4057  2.0945 -2.2364
  393MOL0     H51838   8.424  -0.086   6.780  1.3409  0.1630 -2.0193
  393MOL0     H51839   8.224  -0.080   6.911  0.4158  2.5829  1.6704
  393MOL0     H51840   7.947  -0.006   7.255 -2.7478 -0.8256  2.7065
  393MOL0     H51841   7.748   0.004   7.365  1.0198  0.5721 -0.0437
  393MOL0     H51842   7.528   0.047   7.444 -0.0892  0.5369  0.6626
  393MOL0     H51843   7.373   0.037   7.387  0.2592 -3.2781 -0.7592
  393MOL0     H51844   7.396   0.230   7.224 -1.2208 -2.5702  0.4075
  393MOL0     H51845   7.574   0.241   7.270  0.0106 -0.6792  0.8478
  393MOL0     H51846   7.441   0.424   7.386 -3.7872  0.6651  0.8161
  393MOL0     H51847   7.512   0.315   7.496  0.9157  1.5097 -1.0627
  393MOL0     H51848   7.225   0.342   7.393  0.2817  0.2591 -0.2373
  393MOL0     H51849   7.278   0.202   7.503 -0.0710  0.5809  1.0350
  393MOL0     H51850   7.335   0.364   7.672 -2.6130 -0.5459  2.8790
  393MOL0     H51851   7.160   0.372   7.631  0.9031 -1.0108  1.7776
  393MOL0     H51852   7.158   0.577   7.588 -0.4309 -0.2006  1.1690
  393MOL0     H51853   7.293   0.566   7.462  1.1388  0.5627  0.0637
  393MOL0     H51854   7.315   0.618   7.755  0.0016 -1.6054 -0.4852
  393MOL0     H51855   7.457   0.560   7.659  1.3950  1.7385  1.0623
  393MOL0     H51856   7.438   0.768   7.511  1.9863  2.7257  0.1140
  393MOL0     H51857   7.464   0.804   7.671  0.1962  3.0214 -1.8512
  393MOL0     H51858   7.546  -0.055   6.986  0.4305 -0.7185 -0.2902
  393MOL0     H51859   7.749  -0.030   6.869 -1.2693 -2.0813  0.3019
  393MOL0     H51860   8.150   0.320   6.794 -0.5499 -0.3533  0.6110
  393MOL0     H51861   8.335   0.315   6.655 -1.0753  0.8679  2.7440
  393MOL0     H51862   7.520   0.409   5.417  1.5007 -2.8862  2.6088
  393MOL0     H51863   7.255   0.411   5.392 -1.1337 -1.1733 -0.0204
  393MOL0     H51864   6.883   0.290   5.042  2.0779  0.5402  1.0052
  393MOL0     H51865   6.620   0.293   5.059  0.6283 -1.5486 -0.4906
  393MOL0     H51866   6.424   0.006   5.281 -0.3213 -1.8148 -1.4340
  393MOL0     H51867   6.480   0.031   5.128 -1.6953 -0.4520 -0.8492
  393MOL0     H51868   6.288   0.186   5.054 -2.8258 -1.3224 -1.3776
  393MOL0     H51869   6.257   0.021   5.099 -0.3775 -0.2514  0.1649
  393MOL0     H51870   6.207   0.282   5.233  0.7612 -0.0823 -0.3247
  393MOL0     H51871   6.221   0.132   5.342  2.3075 -0.0659 -0.0549
  393MOL0     H51872   6.009   0.198   5.124  2.0161  3.6458  0.7819
  393MOL0     H51873   6.017   0.052   5.204  0.0517 -1.0302  0.2647
  393MOL0     H51874   5.880   0.286   5.514  0.8170 -3.3301  1.2951
  393MOL0     H51875   6.649   0.099   5.434  0.8744  0.2555  1.0645
  393MOL0     H51876   6.906   0.121   5.439  3.1424  1.1798 -1.2470
  394MOL0     O51877   6.083   6.763   3.012  0.1223  0.3383  0.1018
  394MOL0     C51878   6.144   6.849   2.948  0.4986  0.5690  0.3156
  394MOL0     O51879   6.073   6.960   2.899 -0.5935  0.1168  0.5755
  394MOL0     C51880   5.944   6.987   2.938 -0.0966  0.1699 -0.3922
  394MOL0     C51881   5.906   7.006   3.073  0.0692 -0.0255  0.6837
  394MOL0     C51882   5.783   7.050   3.112  0.4327  0.7275  0.1458
  394MOL0     C51883   5.687   7.073   3.020  0.0183  0.5008 -0.1164
  394MOL0     O51884   5.564   7.107   3.063  0.5965 -0.5090 -0.5486
  394MOL0     C51885   5.458   7.144   2.971 -0.5583 -0.2231 -0.1349
  394MOL0     C51886   5.352   7.233   3.040 -0.1245 -0.6445 -0.1356
  394MOL0     C51887   5.244   7.275   2.940 -0.4836  0.6471 -0.7363
  394MOL0     C51888   5.135   7.370   2.998  0.5858  0.8520 -0.2182
  394MOL0     C51889   5.007   7.388   2.913 -0.3906  0.1155  0.3351
  394MOL0     C51890   4.902   7.478   2.985  0.9298 -0.6955 -0.0434
  394MOL0     C51891   4.835   7.416   3.110  0.6357 -0.0755  0.1652
  394MOL0     C51892   4.703   7.497   3.130  0.0625 -0.0551 -0.6020
  394MOL0     N51893   4.617   7.412   3.218 -0.4946  0.4371  0.2208
  394MOL0     C51894   4.546   7.306   3.169  0.4993  0.0930  0.0977
  394MOL0     C51895   4.457   7.271   3.267  0.0566  0.1845 -0.4953
  394MOL0     C51896   4.362   7.163   3.260  0.4586  0.3040  0.7876
  394MOL0     C51897   4.239   7.216   3.180 -0.0652  0.2628 -0.8384
  394MOL0     C51898   4.145   7.102   3.164  0.1810 -0.8014 -0.7336
  394MOL0     C51899   4.023   7.147   3.087  0.4729 -0.3543 -0.2347
  394MOL0     O51900   3.913   7.059   3.122  0.6677 -0.1614 -0.2786
  394MOL0     C51901   3.783   7.090   3.080 -0.2705  0.0250 -0.3438
  394MOL0     C51902   3.747   7.189   2.988  0.1333 -0.3355  0.3035
  394MOL0     C51903   3.616   7.207   2.943  0.0453  0.1596  0.5911
  394MOL0     C51904   3.515   7.120   2.988  0.3259 -0.4163  0.2536
  394MOL0     C51905   3.381   7.137   2.938 -0.0065 -0.4563  0.9895
  394MOL0     O51906   3.275   7.076   2.994  0.0337 -0.6947 -0.8878
  394MOL0     C51907   3.139   7.084   2.958  0.7775  0.6252 -0.6091
  394MOL0     C51908   3.079   7.184   2.886  0.1730  0.9000  0.4983
  394MOL0     C51909   2.954   7.173   2.826  0.2572  0.5342 -0.0841
  394MOL0     C51910   2.878   7.067   2.867 -0.2565  0.0236  0.0621
  394MOL0     O51911   2.756   7.056   2.802  0.9940 -1.1119 -0.2779
  394MOL0     C51912   2.657   7.149   2.855 -1.4882  0.0887 -1.2880
  394MOL0     C51913   2.560   7.175   2.743 -0.0714 -0.3945  0.7507
  394MOL0     C51914   2.453   7.274   2.775  0.2545 -0.2059  0.6361
  394MOL0     C51915   2.396   7.331   2.646 -0.3748  0.5368  0.0694
  394MOL0     C51916   2.274   7.412   2.673  0.1836  0.7004 -0.5108
  394MOL0     C51917   2.232   7.463   2.539  0.1400  0.1969 -0.0643
  394MOL0     C51918   2.124   7.569   2.530 -0.4568 -0.1353  0.9115
  394MOL0     C51919   2.169   7.700   2.582 -0.7741  0.6560  0.7159
  394MOL0    Cl51920   2.028   7.810   2.616  0.0282  0.1657  0.2622
  394MOL0     C51921   2.934   6.955   2.934  0.1219 -0.3821  0.1214
  394MOL0     C51922   3.058   6.979   2.981 -0.3565 -0.2042 -0.9521
  394MOL0     O51923   3.373   7.209   2.840  0.1767  0.6350  0.2642
  394MOL0     C51924   3.547   7.020   3.079 -0.3943 -0.0168 -0.1992
  394MOL0     C51925   3.675   7.014   3.129 -0.1839 -0.0625  0.5056
  394MOL0     N51926   4.486   7.347   3.379 -0.2654  0.4895 -0.0313
  394MOL0     N51927   4.583   7.426   3.351 -0.4387 -0.6148 -0.3292
  394MOL0     C51928   5.710   7.040   2.884 -0.3727  0.6577 -0.3656
  394MOL0     C51929   5.834   6.994   2.841 -0.4134 -0.2088 -0.9402
  394MOL0     C51930   6.284   6.815   2.914 -0.5569 -0.2462 -0.3427
  394MOL0     C51931   6.352   6.720   2.993 -0.3139  0.3954 -0.5607
  394MOL0     C51932   6.488   6.699   2.973 -0.6226 -0.6081  0.6584
  394MOL0     C51933   6.558   6.763   2.864 -0.3017 -0.3458 -0.5817
  394MOL0     O51934   6.692   6.773   2.844  0.2583  0.0089 -0.3715
  394MOL0     C51935   6.782   6.720   2.945 -0.6779 -1.0773 -0.7139
  394MOL0     C51936   6.914   6.696   2.883 -1.1233 -0.0229 -1.1914
  394MOL0     C51937   6.923   6.568   2.808 -0.4783 -0.3041 -0.2840
  394MOL0     C51938   7.057   6.532   2.756 -0.1159 -0.5339 -0.2204
  394MOL0     C51939   7.071   6.395   2.713 -0.0195  0.1187 -0.7982
  394MOL0     C51940   7.082   6.275   2.675 -0.2160  0.1396  0.9237
  394MOL0     C51941   6.485   6.857   2.786  0.3332 -0.1820 -0.5414
  394MOL0     C51942   6.353   6.890   2.816 -0.1390 -0.3753 -0.2630
  394MOL0     H51943   5.992   7.010   3.140  2.3575  1.2983 -2.1020
  394MOL0     H51944   5.762   7.072   3.216  0.3931  0.4892  0.1906
  394MOL0     H51945   5.414   7.054   2.926  0.5622 -0.5604 -0.5993
  394MOL0     H51946   5.497   7.201   2.886 -0.0475 -1.0439 -0.4688
  394MOL0     H51947   5.410   7.317   3.080  0.8087 -0.8910 -0.9573
  394MOL0     H51948   5.310   7.179   3.125  2.0845 -1.6613  0.3878
  394MOL0     H51949   5.194   7.182   2.910 -1.5982  1.6375 -2.1442
  394MOL0     H51950   5.275   7.316   2.843 -0.1592  0.6617 -0.6262
  394MOL0     H51951   5.103   7.322   3.091 -0.9462  1.9991 -0.1162
  394MOL0     H51952   5.194   7.456   3.028 -0.3407  0.0357  4.8765
  394MOL0     H51953   4.973   7.286   2.894  1.1745 -0.6429  1.3839
  394MOL0     H51954   5.038   7.420   2.813  1.9161  3.4247  1.9157
  394MOL0     H51955   4.819   7.492   2.915  0.9211 -0.8499 -0.0635
  394MOL0     H51956   4.947   7.575   3.010 -1.5189  1.0104 -1.7556
  394MOL0     H51957   4.820   7.307   3.111 -0.1760  0.0197 -0.5140
  394MOL0     H51958   4.904   7.434   3.192  0.3877  0.7914  0.1913
  394MOL0     H51959   4.651   7.529   3.040 -0.0334 -1.4974 -1.0847
  394MOL0     H51960   4.726   7.588   3.186  0.9979 -0.9786  0.5795
  394MOL0     H51961   4.550   7.269   3.068 -1.6807 -0.6164  0.2225
  394MOL0     H51962   4.334   7.133   3.361 -0.7547 -2.6968 -0.3026
  394MOL0     H51963   4.402   7.077   3.204 -3.1269 -0.2071 -1.3574
  394MOL0     H51964   4.265   7.261   3.084 -0.4264  2.1139 -0.1029
  394MOL0     H51965   4.189   7.296   3.235 -1.7107 -0.8308 -0.6686
  394MOL0     H51966   4.187   7.020   3.104 -0.7487 -2.5625  0.9263
  394MOL0     H51967   4.110   7.058   3.258 -0.6039  0.1985 -0.5395
  394MOL0     H51968   4.040   7.155   2.980 -0.0347  1.4078 -0.2212
  394MOL0     H51969   3.987   7.248   3.107 -3.3031 -1.4966 -0.3330
  394MOL0     H51970   3.821   7.250   2.937 -0.8490 -0.3669 -1.2176
  394MOL0     H51971   3.589   7.288   2.876  2.0837  0.6177  0.2651
  394MOL0     H51972   3.129   7.279   2.870 -0.3203  1.3595  1.5767
  394MOL0     H51973   2.910   7.249   2.762  1.2409  0.4962 -0.8400
  394MOL0     H51974   2.697   7.246   2.887  0.0696 -1.2651  1.1839
  394MOL0     H51975   2.614   7.107   2.946  1.2590  1.9945  1.0889
  394MOL0     H51976   2.512   7.081   2.713 -1.2465 -0.1873  1.9007
  394MOL0     H51977   2.609   7.203   2.649  1.6968  0.2804  1.8359
  394MOL0     H51978   2.480   7.351   2.848  1.2005 -1.2805  1.4544
  394MOL0     H51979   2.379   7.226   2.839  0.0876  1.0290  1.4159
  394MOL0     H51980   2.481   7.385   2.603  0.6935 -1.3332 -0.2825
  394MOL0     H51981   2.371   7.253   2.574  3.0380 -1.4250  0.8247
  394MOL0     H51982   2.313   7.485   2.746 -2.0840  3.0157 -1.4792
  394MOL0     H51983   2.193   7.355   2.719 -0.4710 -1.2616 -3.7636
  394MOL0     H51984   2.173   7.385   2.491  0.4927  1.5235 -2.8141
  394MOL0     H51985   2.317   7.489   2.476 -1.5726  0.9945 -2.1871
  394MOL0     H51986   2.085   7.586   2.429 -0.3708 -1.9161  0.5401
  394MOL0     H51987   2.040   7.536   2.592 -1.6000  0.1544 -0.4337
  394MOL0     H51988   2.242   7.748   2.516  0.4596  4.3712  4.3215
  394MOL0     H51989   2.227   7.690   2.675 -0.7858  1.8458  0.8724
  394MOL0     H51990   2.900   6.854   2.956  2.8240 -1.1117  1.4466
  394MOL0     H51991   3.102   6.892   3.029  3.8756  1.0420 -2.1796
  394MOL0     H51992   3.490   6.928   3.089 -0.6595  0.0264 -1.1901
  394MOL0     H51993   3.693   6.933   3.200 -1.2789 -0.6512  0.1366
  394MOL0     H51994   5.635   7.060   2.808  1.0042  1.5819 -1.5295
  394MOL0     H51995   5.850   6.974   2.736 -0.0014 -1.5248 -0.6334
  394MOL0     H51996   6.295   6.675   3.073 -0.6963 -0.2734 -1.2040
  394MOL0     H51997   6.546   6.648   3.049 -1.6188 -0.1473  1.7807
  394MOL0     H51998   6.738   6.620   2.955 -2.3406 -0.9348 -4.6954
  394MOL0     H51999   6.788   6.776   3.039 -0.0518 -1.8250 -0.2896
  394MOL0     H52000   6.919   6.791   2.828 -1.7432  3.3225  3.8261
  394MOL0     H52001   6.990   6.702   2.962 -1.7898  0.4348 -0.5626
  394MOL0     H52002   6.851   6.565   2.725  0.1997 -0.2002 -0.8817
  394MOL0     H52003   6.905   6.489   2.881 -0.2718  1.3940  1.6809
  394MOL0     H52004   7.085   6.604   2.678 -1.3098 -2.9769 -3.1110
  394MOL0     H52005   7.124   6.543   2.841 -3.0183  0.3820  2.1209
  394MOL0     H52006   7.079   6.171   2.650 -1.4342  0.8360 -2.3925
  394MOL0     H52007   6.529   6.927   2.715 -0.3575  0.5272 -0.2882
  394MOL0     H52008   6.307   6.972   2.763 -1.3744 -1.1661 -0.4575
  395MOL0     O52009   8.052   6.671   5.408  0.4489 -0.0552 -0.2450
  395MOL0     C52010   8.146   6.633   5.339 -0.1855 -0.5444 -0.6026
  395MOL0     O52011   8.136   6.582   5.214  0.5081 -0.6056  0.4515
  395MOL0     C52012   8.009   6.580   5.155 -0.0480 -0.1290 -0.9959
  395MOL0     C52013   7.960   6.699   5.103  1.0208 -0.6026  0.1412
  395MOL0     C52014   7.820   6.694   5.073  0.1959  0.0890  0.7161
  395MOL0     C52015   7.747   6.575   5.067 -0.8897  1.0777  0.2844
  395MOL0     O52016   7.617   6.582   5.011 -0.2849  0.4049  0.0141
  395MOL0     C52017   7.572   6.492   4.910  0.9338  0.2137 -0.1685
  395MOL0     C52018   7.583   6.556   4.780  0.5037  0.3188  0.3053
  395MOL0     C52019   7.457   6.645   4.729 -0.2306  0.7900 -0.0078
  395MOL0     C52020   7.392   6.727   4.836 -0.1701  0.4238 -0.5656
  395MOL0     C52021   7.281   6.820   4.787  0.6930  0.6152  0.1612
  395MOL0     C52022   7.142   6.742   4.765  0.7176 -0.1181  0.5452
  395MOL0     C52023   7.038   6.823   4.678 -0.5151 -0.4481  0.2956
  395MOL0     C52024   6.925   6.734   4.625  0.3056 -0.8895 -0.3177
  395MOL0     N52025   6.832   6.727   4.736  0.1113 -0.8978  0.3009
  395MOL0     C52026   6.736   6.824   4.761  0.7957  0.2475 -0.1448
  395MOL0     C52027   6.658   6.771   4.861 -0.2369  0.3363  0.0737
  395MOL0     C52028   6.536   6.829   4.913 -0.4891  0.6645 -0.1985
  395MOL0     C52029   6.424   6.839   4.817  0.4322  0.6436 -0.3246
  395MOL0     C52030   6.347   6.708   4.795 -0.2063 -0.1153 -0.6808
  395MOL0     C52031   6.224   6.730   4.708 -0.6655 -0.0516  0.1401
  395MOL0     O52032   6.118   6.801   4.782 -0.1570  0.3393 -0.0020
  395MOL0     C52033   5.996   6.803   4.714  0.4751 -0.5700  0.6340
  395MOL0     C52034   5.879   6.838   4.780  0.4273  1.0280  0.4933
  395MOL0     C52035   5.753   6.823   4.724 -0.8061 -0.2267  0.2546
  395MOL0     C52036   5.736   6.803   4.586  1.0394 -0.3244 -0.0029
  395MOL0     C52037   5.601   6.814   4.513 -0.2377  0.7957 -0.2495
  395MOL0     O52038   5.596   6.746   4.383 -0.6354 -0.5060 -0.4360
  395MOL0     C52039   5.472   6.732   4.325  1.3311 -0.1527  0.4259
  395MOL0     C52040   5.399   6.617   4.342  0.1850  0.4481 -0.1232
  395MOL0     C52041   5.281   6.606   4.287  0.1854 -0.3386 -0.1515
  395MOL0     C52042   5.228   6.697   4.211 -0.2348 -0.2422 -0.1102
  395MOL0     O52043   5.114   6.673   4.147  0.4025 -0.1194 -0.1908
  395MOL0     C52044   5.027   6.776   4.095 -0.2497  0.8415 -0.7813
  395MOL0     C52045   4.904   6.727   4.019  0.9840  0.9356  0.5320
  395MOL0     C52046   4.790   6.650   4.091 -0.9989 -0.8465 -0.3662
  395MOL0     C52047   4.685   6.596   3.989 -0.0862  0.0671 -0.4021
  395MOL0     C52048   4.557   6.549   4.059 -0.3586  0.1566  0.2998
  395MOL0     C52049   4.448   6.488   3.957 -0.5479  0.4950 -0.3581
  395MOL0     C52050   4.365   6.599   3.901  0.4961 -0.9923  0.2085
  395MOL0     C52051   4.243   6.536   3.837  1.0189  1.1364 -0.4958
  395MOL0    Cl52052   4.286   6.493   3.668  0.5246 -0.0967  0.0688
  395MOL0     C52053   5.296   6.819   4.189  0.1203 -0.3886  0.2466
  395MOL0     C52054   5.410   6.842   4.253 -0.2782 -1.2278 -0.0046
  395MOL0     O52055   5.504   6.847   4.573 -0.1653  0.1591 -0.1799
  395MOL0     C52056   5.857   6.785   4.513 -0.4294 -0.2597  0.3629
  395MOL0     C52057   5.985   6.784   4.575  0.7768  0.8083  0.0419
  395MOL0     N52058   6.696   6.642   4.895  0.0238 -0.1541  1.3450
  395MOL0     N52059   6.796   6.615   4.814 -1.1379  0.5760 -0.1214
  395MOL0     C52060   7.802   6.461   5.101 -1.1997  0.8644 -0.5246
  395MOL0     C52061   7.937   6.463   5.158  0.3556 -0.4289 -0.4426
  395MOL0     C52062   8.289   6.664   5.376  0.3006  0.5146 -0.4995
  395MOL0     C52063   8.314   6.703   5.499 -0.2475 -0.0276  0.1261
  395MOL0     C52064   8.448   6.747   5.524 -0.8729  0.0041  0.1340
  395MOL0     C52065   8.554   6.739   5.435 -0.8294  0.8750 -0.0541
  395MOL0     O52066   8.682   6.758   5.477 -0.4301 -0.6644 -0.5645
  395MOL0     C52067   8.799   6.722   5.396 -1.2829 -0.2300  1.3753
  395MOL0     C52068   8.824   6.567   5.409  0.0763 -0.0431 -0.4737
  395MOL0     C52069   8.965   6.516   5.353  0.1082 -0.4504  0.0482
  395MOL0     C52070   8.979   6.524   5.203 -0.1029 -0.7767  0.4956
  395MOL0     C52071   9.079   6.425   5.151  0.0589 -0.3720 -0.4474
  395MOL0     C52072   9.156   6.343   5.104 -0.1388  0.4804  0.0840
  395MOL0     C52073   8.519   6.696   5.308 -0.3421  1.1951 -0.0680
  395MOL0     C52074   8.391   6.665   5.277 -0.1355  0.4130  0.6234
  395MOL0     H52075   8.026   6.785   5.107  0.5092 -0.2528  2.1198
  395MOL0     H52076   7.779   6.784   5.028 -1.1487 -2.3753 -3.5606
  395MOL0     H52077   7.468   6.472   4.936  0.7221  1.5263  0.0300
  395MOL0     H52078   7.630   6.399   4.912  0.8313  0.1568  0.2391
  395MOL0     H52079   7.591   6.478   4.704 -1.2704 -2.1107  2.4195
  395MOL0     H52080   7.672   6.620   4.785  1.9788 -1.6503  0.7069
  395MOL0     H52081   7.385   6.579   4.680 -2.7423  2.8004  0.7411
  395MOL0     H52082   7.486   6.711   4.646  0.4918 -0.4649 -0.8028
  395MOL0     H52083   7.341   6.658   4.903 -0.0166  0.3208 -0.5530
  395MOL0     H52084   7.464   6.787   4.893  1.0116 -0.3602 -1.1983
  395MOL0     H52085   7.317   6.858   4.691 -0.6345  0.3905 -0.4448
  395MOL0     H52086   7.260   6.901   4.858 -0.0813  0.2148  0.4046
  395MOL0     H52087   7.101   6.734   4.866  1.3977  3.0006  1.1824
  395MOL0     H52088   7.157   6.641   4.726 -0.1676  0.3447 -1.1116
  395MOL0     H52089   6.994   6.905   4.736  0.8387 -0.6466  1.6341
  395MOL0     H52090   7.088   6.860   4.588  0.2092  0.2322  0.9578
  395MOL0     H52091   6.984   6.648   4.593  2.9736  1.3860 -1.9408
  395MOL0     H52092   6.878   6.780   4.537 -1.0254 -2.9299 -0.7502
  395MOL0     H52093   6.733   6.921   4.712  0.9963 -0.8862 -2.5768
  395MOL0     H52094   6.554   6.931   4.950 -0.9670  0.7472 -0.1884
  395MOL0     H52095   6.513   6.766   4.999  5.4459 -0.5170  0.9760
  395MOL0     H52096   6.458   6.872   4.718 -2.2326  0.9107 -1.2451
  395MOL0     H52097   6.361   6.919   4.857  0.0721  2.1144 -3.4908
  395MOL0     H52098   6.418   6.637   4.752  1.0666  1.6652 -1.6427
  395MOL0     H52099   6.318   6.652   4.884  2.9204 -1.1544 -0.2175
  395MOL0     H52100   6.186   6.632   4.678  0.0751 -0.5880  0.9258
  395MOL0     H52101   6.246   6.791   4.620  2.2456 -0.4675  0.4917
  395MOL0     H52102   5.891   6.866   4.884  2.3186  2.3137 -0.0097
  395MOL0     H52103   5.667   6.836   4.789 -0.0093  0.3096  1.2300
  395MOL0     H52104   5.441   6.528   4.390 -0.7507  0.6181  1.0508
  395MOL0     H52105   5.228   6.512   4.287  1.2473 -0.9686 -1.1928
  395MOL0     H52106   5.078   6.829   4.014  0.6394  2.3681  0.6965
  395MOL0     H52107   4.996   6.846   4.173  0.5418 -2.1788  2.4898
  395MOL0     H52108   4.941   6.651   3.950 -1.8132  0.1968 -0.2506
  395MOL0     H52109   4.860   6.799   3.950  0.0276  1.2361  1.4333
  395MOL0     H52110   4.752   6.726   4.160  0.4988  1.2492 -1.7146
  395MOL0     H52111   4.846   6.573   4.144 -1.2764 -0.8856 -0.1254
  395MOL0     H52112   4.661   6.662   3.905  2.3192  2.7981  0.8457
  395MOL0     H52113   4.726   6.511   3.933  0.6750  1.0869 -1.4541
  395MOL0     H52114   4.506   6.625   4.119 -2.3334  0.0545 -1.1498
  395MOL0     H52115   4.591   6.464   4.119  0.0167 -0.3292 -0.5785
  395MOL0     H52116   4.390   6.414   4.013  0.6889  0.5064  1.0150
  395MOL0     H52117   4.501   6.429   3.882  0.3573  0.8252  0.0040
  395MOL0     H52118   4.315   6.660   3.978  0.5110 -1.2114  0.3915
  395MOL0     H52119   4.418   6.673   3.840  2.9105 -2.9995 -0.2418
  395MOL0     H52120   4.164   6.611   3.824  0.2848  0.4656 -0.0023
  395MOL0     H52121   4.204   6.450   3.893  3.9810 -0.0831 -0.1447
  395MOL0     H52122   5.244   6.899   4.138 -1.8911 -1.7038  0.1361
  395MOL0     H52123   5.453   6.942   4.254 -1.0121 -0.8822  2.2664
  395MOL0     H52124   5.849   6.800   4.406  1.4367  1.5327  0.4005
  395MOL0     H52125   6.074   6.764   4.516 -0.6231  1.3102 -2.3948
  395MOL0     H52126   7.740   6.372   5.099 -1.0445  0.7713 -1.7030
  395MOL0     H52127   7.981   6.379   5.210  4.2886  1.9409  0.4774
  395MOL0     H52128   8.240   6.731   5.573  0.6860  1.3879  0.5780
  395MOL0     H52129   8.474   6.775   5.626 -2.6491 -2.2125  1.2735
  395MOL0     H52130   8.888   6.781   5.421 -2.9007  2.8072  0.3933
  395MOL0     H52131   8.792   6.731   5.288  0.8109 -0.4687  1.1777
  395MOL0     H52132   8.821   6.524   5.510 -1.2352 -0.7970 -0.8117
  395MOL0     H52133   8.750   6.510   5.352 -3.4659  2.7222  0.9860
  395MOL0     H52134   8.972   6.408   5.366 -1.3616 -0.7174 -1.0780
  395MOL0     H52135   9.052   6.556   5.407  1.2762 -2.2961 -0.3746
  395MOL0     H52136   8.880   6.513   5.156  0.0858 -0.4173  0.0000
  395MOL0     H52137   9.003   6.629   5.183 -1.0715 -0.1680  2.2951
  395MOL0     H52138   9.217   6.260   5.074 -0.0671  0.6580 -0.2717
  395MOL0     H52139   8.596   6.688   5.232 -0.5414 -2.4034 -0.0422
  395MOL0     H52140   8.361   6.633   5.178 -0.1015 -0.3575  0.8558
  396MOL0     O52141   7.580   3.427  10.065  0.5509 -0.1834 -0.1006
  396MOL0     C52142   7.574   3.444   9.942  0.5264  0.8299  0.6637
  396MOL0     O52143   7.456   3.447   9.870 -0.4268 -0.5306 -0.4469
  396MOL0     C52144   7.335   3.463   9.927  0.3251  0.0803 -0.2237
  396MOL0     C52145   7.253   3.564   9.884  0.3529 -0.4011  0.4177
  396MOL0     C52146   7.119   3.568   9.932 -0.0725 -0.8886  0.1319
  396MOL0     C52147   7.066   3.482  10.030 -0.4634  0.6949 -0.2547
  396MOL0     O52148   6.939   3.477  10.077  0.0381 -0.2744  0.2606
  396MOL0     C52149   6.848   3.547   9.987 -0.7029  0.6638  0.1379
  396MOL0     C52150   6.706   3.513  10.047 -0.0930 -0.5214 -0.1562
  396MOL0     C52151   6.604   3.557   9.940  0.7177  0.0527  0.3289
  396MOL0     C52152   6.462   3.576  10.016 -1.0083 -0.1424 -0.1669
  396MOL0     C52153   6.356   3.602   9.918  0.5101  0.6182  1.1518
  396MOL0     C52154   6.234   3.687   9.967 -0.2852  0.6587 -0.9090
  396MOL0     C52155   6.134   3.715   9.860 -0.3926  0.0491  0.0804
  396MOL0     C52156   6.033   3.820   9.911  0.7959  1.0682  0.0271
  396MOL0     N52157   5.936   3.862   9.812  1.0218  0.1966 -0.0724
  396MOL0     C52158   5.908   3.990   9.767  0.4383 -0.8020 -0.6822
  396MOL0     C52159   5.807   3.978   9.680 -0.4288  0.1812  0.5266
  396MOL0     C52160   5.758   4.089   9.594 -0.3409 -0.4857 -0.1261
  396MOL0     C52161   5.610   4.090   9.565 -0.6719 -0.1868  0.6877
  396MOL0     C52162   5.525   4.111   9.696 -0.0481  0.0202 -0.7617
  396MOL0     C52163   5.490   4.255   9.722 -0.1577 -0.5483 -1.2036
  396MOL0     O52164   5.373   4.266   9.795 -0.1591 -0.4673  0.2959
  396MOL0     C52165   5.248   4.283   9.743  0.0475 -0.3267 -0.6800
  396MOL0     C52166   5.144   4.304   9.835 -0.9375  0.4887 -0.5543
  396MOL0     C52167   5.007   4.323   9.792 -0.5094 -0.2654 -0.4813
  396MOL0     C52168   4.979   4.340   9.655 -0.4655  0.8575 -0.1309
  396MOL0     C52169   4.836   4.364   9.612  0.0180 -0.5324  0.1644
  396MOL0     O52170   4.753   4.422   9.707 -0.5084 -0.5155  0.3389
  396MOL0     C52171   4.623   4.445   9.679 -0.3418  0.3724  0.4574
  396MOL0     C52172   4.538   4.338   9.707 -0.0112 -0.5955  0.4015
  396MOL0     C52173   4.399   4.351   9.700  0.2226  0.2482  0.5049
  396MOL0     C52174   4.341   4.472   9.660  0.4255  0.9801 -0.0446
  396MOL0     O52175   4.210   4.504   9.669 -0.9973 -0.1668 -0.3856
  396MOL0     C52176   4.125   4.393   9.683  1.9513  0.2550 -0.3483
  396MOL0     C52177   3.987   4.458   9.706 -0.7948 -0.5231  0.1115
  396MOL0     C52178   3.890   4.363   9.763  0.5722  0.4710 -0.1516
  396MOL0     C52179   3.768   4.453   9.792  0.5197 -0.7502  0.6241
  396MOL0     C52180   3.647   4.350   9.787 -0.3350 -0.2065 -0.0417
  396MOL0     C52181   3.516   4.427   9.811  0.5475  0.1695 -0.5038
  396MOL0     C52182   3.401   4.336   9.843  0.4777  0.1646  0.0117
  396MOL0     C52183   3.273   4.423   9.832 -0.2946 -0.8008 -0.0045
  396MOL0    Cl52184   3.239   4.539   9.965 -0.1495 -0.0920  0.4399
  396MOL0     C52185   4.429   4.571   9.618 -0.6281 -0.5369  0.1377
  396MOL0     C52186   4.571   4.564   9.628 -0.5047  0.2469 -0.3385
  396MOL0     O52187   4.808   4.358   9.495 -0.1618 -0.2215  0.5489
  396MOL0     C52188   5.077   4.306   9.564  0.1437 -0.3822 -0.6838
  396MOL0     C52189   5.208   4.279   9.607 -1.2539 -0.7094 -0.1610
  396MOL0     N52190   5.758   3.849   9.686 -0.9282  0.3826  0.1869
  396MOL0     N52191   5.835   3.779   9.768 -0.0303  0.0642  0.0075
  396MOL0     C52192   7.147   3.376  10.061 -0.4528 -0.0179  0.1189
  396MOL0     C52193   7.284   3.374  10.019  0.6362 -0.4376 -0.2889
  396MOL0     C52194   7.698   3.416   9.862 -0.3421 -0.5359  0.4491
  396MOL0     C52195   7.697   3.404   9.723 -0.4095 -0.6251 -0.3958
  396MOL0     C52196   7.820   3.397   9.650 -0.1641  1.0338  0.4577
  396MOL0     C52197   7.944   3.384   9.717 -1.0249 -0.5281 -0.3995
  396MOL0     O52198   8.065   3.365   9.648 -1.4291 -0.9193 -0.3763
  396MOL0     C52199   8.055   3.366   9.502 -0.4601  0.7614  0.6125
  396MOL0     C52200   8.200   3.363   9.439  0.2159 -0.1114  0.3360
  396MOL0     C52201   8.268   3.230   9.465  0.0697  0.9881  1.0289
  396MOL0     C52202   8.401   3.213   9.392  0.4651 -0.8334  0.1980
  396MOL0     C52203   8.524   3.260   9.461  0.8402 -0.6358  0.4817
  396MOL0     C52204   8.624   3.292   9.527  0.1787  0.0043  0.7381
  396MOL0     C52205   7.947   3.390   9.856  0.8042  0.3447  0.1653
  396MOL0     C52206   7.824   3.403   9.925  0.2034 -0.2382 -0.4985
  396MOL0     H52207   7.300   3.633   9.815  0.0870 -2.0391 -1.5066
  396MOL0     H52208   7.061   3.645   9.881  1.5247 -0.6295 -1.4330
  396MOL0     H52209   6.851   3.508   9.885 -0.6250  2.5400 -0.6131
  396MOL0     H52210   6.881   3.650   9.970 -0.4095  0.2274 -2.4129
  396MOL0     H52211   6.690   3.566  10.141 -1.7249  1.6950 -1.5944
  396MOL0     H52212   6.704   3.405  10.065 -2.3515 -0.5638 -0.3642
  396MOL0     H52213   6.584   3.483   9.861 -1.9896  0.6651  0.3328
  396MOL0     H52214   6.626   3.656   9.899 -3.1832  1.8013  1.9481
  396MOL0     H52215   6.448   3.483  10.073  2.3951 -1.7480 -1.6159
  396MOL0     H52216   6.458   3.656  10.090  0.2619 -0.7211  0.5645
  396MOL0     H52217   6.318   3.511   9.871 -0.6719  2.2809 -1.3514
  396MOL0     H52218   6.395   3.666   9.838  0.6878 -0.6896  0.1472
  396MOL0     H52219   6.264   3.784  10.008 -0.2165 -0.2683  1.4320
  396MOL0     H52220   6.198   3.629  10.053  0.0340  2.2504  0.3313
  396MOL0     H52221   6.186   3.743   9.767 -1.2853 -3.4016 -1.6413
  396MOL0     H52222   6.061   3.637   9.833 -1.3704  1.3943 -1.3674
  396MOL0     H52223   6.089   3.908   9.942 -0.4994  2.6210 -1.7745
  396MOL0     H52224   5.981   3.795  10.005 -0.5517  1.1717 -0.6608
  396MOL0     H52225   5.971   4.077   9.782  1.9531 -2.1452  1.1878
  396MOL0     H52226   5.816   4.073   9.503  0.0458  1.1618 -0.2061
  396MOL0     H52227   5.791   4.182   9.641 -0.9941  0.0047 -0.6069
  396MOL0     H52228   5.585   3.989   9.530 -0.7560 -0.8746  2.5932
  396MOL0     H52229   5.591   4.165   9.488  0.7859  0.4861  0.9578
  396MOL0     H52230   5.429   4.062   9.676 -0.9369  0.5615  1.7878
  396MOL0     H52231   5.562   4.058   9.784  0.9452  0.6040 -0.8155
  396MOL0     H52232   5.490   4.305   9.625 -1.4636  1.5000 -0.2202
  396MOL0     H52233   5.567   4.293   9.791  1.4113 -1.9288 -2.1078
  396MOL0     H52234   5.166   4.298   9.941  2.0816  0.2701 -1.1175
  396MOL0     H52235   4.921   4.333   9.857 -1.8179  1.3590 -2.3383
  396MOL0     H52236   4.571   4.250   9.760 -0.2050 -1.2857 -0.6074
  396MOL0     H52237   4.348   4.258   9.724  1.6604 -0.2430  1.8746
  396MOL0     H52238   4.146   4.326   9.767  0.9703  2.0153  1.3828
  396MOL0     H52239   4.122   4.333   9.591  1.0286 -1.3224  0.6640
  396MOL0     H52240   3.964   4.494   9.605  0.9540 -2.0621 -0.8978
  396MOL0     H52241   4.008   4.541   9.774 -0.9943 -0.9224  0.6639
  396MOL0     H52242   3.926   4.316   9.855  0.1042 -0.4818 -0.4443
  396MOL0     H52243   3.865   4.280   9.697 -1.1236 -1.2174  2.4248
  396MOL0     H52244   3.777   4.519   9.879 -1.7555 -0.2836  0.5729
  396MOL0     H52245   3.755   4.516   9.704 -1.3455 -0.4544  1.0620
  396MOL0     H52246   3.666   4.272   9.862  0.0573  0.0031  0.0806
  396MOL0     H52247   3.648   4.300   9.690  2.0259  3.2317 -1.9914
  396MOL0     H52248   3.506   4.482   9.717  0.6764  0.8854 -0.1009
  396MOL0     H52249   3.525   4.501   9.890 -0.6745  0.7789 -0.9151
  396MOL0     H52250   3.403   4.259   9.765 -3.9375  0.3606 -0.5559
  396MOL0     H52251   3.411   4.295   9.943  1.0481  2.5079  0.9757
  396MOL0     H52252   3.182   4.363   9.823 -1.4237  1.0248 -1.4394
  396MOL0     H52253   3.283   4.481   9.740 -2.1282 -0.2780  0.0881
  396MOL0     H52254   4.390   4.669   9.591 -1.9143 -1.0975 -0.0645
  396MOL0     H52255   4.626   4.649   9.589 -0.2064  0.7879  1.1892
  396MOL0     H52256   5.052   4.301   9.459  2.9510 -0.1572 -1.4326
  396MOL0     H52257   5.287   4.255   9.536 -0.5984  0.2245  0.2388
  396MOL0     H52258   7.100   3.296  10.118 -0.0078  0.5256  1.2857
  396MOL0     H52259   7.354   3.297  10.050  0.6233 -2.1381 -3.9594
  396MOL0     H52260   7.598   3.403   9.678  0.1479  0.5771 -1.7271
  396MOL0     H52261   7.814   3.391   9.541  2.3993 -1.8604  0.3664
  396MOL0     H52262   8.004   3.459   9.474 -1.0937 -0.0136 -0.8996
  396MOL0     H52263   8.004   3.277   9.464 -0.3118  0.3920  1.2540
  396MOL0     H52264   8.193   3.386   9.332 -0.7563 -1.8607 -0.0197
  396MOL0     H52265   8.270   3.436   9.482  0.4120  1.7647 -2.7865
  396MOL0     H52266   8.204   3.144   9.442 -1.0181  2.2524 -0.9222
  396MOL0     H52267   8.280   3.228   9.574  1.0321 -0.3594  0.9258
  396MOL0     H52268   8.417   3.105   9.386 -2.0493 -1.3002  0.9720
  396MOL0     H52269   8.392   3.255   9.291 -1.9528 -3.1721 -0.6743
  396MOL0     H52270   8.698   3.306   9.603 -1.0610  0.5451  1.9062
  396MOL0     H52271   8.036   3.380   9.918 -1.0743 -2.7250  2.7299
  396MOL0     H52272   7.832   3.401  10.033  2.5824  1.4521 -0.5888
  397MOL0     O52273   1.398   8.823   0.731 -0.5067 -0.5834  0.6910
  397MOL0     C52274   1.396   8.851   0.610 -0.2985  0.6647  0.5848
  397MOL0     O52275   1.293   8.854   0.523  0.9414 -0.4723  0.1300
  397MOL0     C52276   1.178   8.800   0.568  0.1073 -0.3250 -0.4481
  397MOL0     C52277   1.127   8.680   0.523 -1.1032 -0.0704 -0.1025
  397MOL0     C52278   0.996   8.634   0.541 -0.2426  0.4091 -0.1392
  397MOL0     C52279   0.919   8.701   0.631 -0.6324  0.0856 -0.0488
  397MOL0     O52280   0.794   8.650   0.653 -0.3485  0.5571 -0.4906
  397MOL0     C52281   0.690   8.745   0.677 -0.3859  0.6341  0.0537
  397MOL0     C52282   0.627   8.744   0.816  0.0317  0.2168  0.4350
  397MOL0     C52283   0.524   8.630   0.810  1.2451 -0.0517  0.4061
  397MOL0     C52284   0.416   8.645   0.919 -0.3066 -1.0666  0.1805
  397MOL0     C52285   0.346   8.517   0.952 -0.9884  0.2457  0.2617
  397MOL0     C52286   0.261   8.533   1.074 -0.9326  0.2886 -0.8867
  397MOL0     C52287   0.165   8.412   1.120  0.4047 -0.1218  0.3995
  397MOL0     C52288   0.113   8.437   1.265 -0.5486  0.4075 -0.4155
  397MOL0     N52289   0.011   8.542   1.268 -0.7463  0.5336  0.4075
  397MOL0     C52290  -0.120   8.523   1.226  0.3905 -0.0055 -0.5309
  397MOL0     C52291  -0.187   8.635   1.257 -0.0827  0.1002  0.8264
  397MOL0     C52292  -0.329   8.663   1.223  0.1171 -0.9308 -0.4969
  397MOL0     C52293  -0.342   8.749   1.104  0.2359 -0.0353  0.5603
  397MOL0     C52294  -0.377   8.897   1.150  0.0336 -0.3647 -0.2839
  397MOL0     C52295  -0.374   8.988   1.028  1.0355  0.3324  0.4703
  397MOL0     O52296  -0.453   8.933   0.922 -0.1188 -0.0805  0.3236
  397MOL0     C52297  -0.584   8.971   0.919 -0.3483  0.7253  0.5537
  397MOL0     C52298  -0.622   9.087   0.862  0.9636 -0.7426  0.1568
  397MOL0     C52299  -0.762   9.120   0.860 -0.0938  0.1317 -0.4208
  397MOL0     C52300  -0.856   9.029   0.910  0.3096 -0.7868 -0.0591
  397MOL0     C52301  -0.997   9.064   0.887 -0.6265  1.0208  0.4148
  397MOL0     O52302  -1.087   8.976   0.942 -0.0931  0.0679  0.5017
  397MOL0     C52303  -1.224   8.982   0.927  0.5166 -0.5782  0.6014
  397MOL0     C52304  -1.295   9.076   0.857  0.0777 -0.0336 -0.3719
  397MOL0     C52305  -1.441   9.073   0.858 -0.4903  0.5095 -0.2566
  397MOL0     C52306  -1.510   8.963   0.919  0.0336 -0.3436 -0.3926
  397MOL0     O52307  -1.648   8.948   0.912  0.1443 -0.1713 -0.0902
  397MOL0     C52308  -1.730   9.037   0.845  0.1311 -0.3374  0.0215
  397MOL0     C52309  -1.871   9.029   0.896 -0.1252 -0.6936 -0.2054
  397MOL0     C52310  -1.943   8.890   0.883 -0.1705  0.4578  0.0562
  397MOL0     C52311  -2.059   8.876   0.980 -0.2476 -0.3763 -0.1801
  397MOL0     C52312  -2.191   8.912   0.907 -0.2688 -0.1166 -0.0629
  397MOL0     C52313  -2.282   8.993   1.004 -0.1071 -0.3168  0.1891
  397MOL0     C52314  -2.249   9.143   1.039  0.4732 -0.0033  0.3125
  397MOL0     C52315  -2.375   9.223   1.088  0.2466 -0.2323  1.0392
  397MOL0    Cl52316  -2.484   9.279   0.957  0.2968 -0.0536 -0.1952
  397MOL0     C52317  -1.440   8.865   0.977  0.3127  0.7091  0.6941
  397MOL0     C52318  -1.299   8.875   0.981  1.2290 -0.0389 -1.7006
  397MOL0     O52319  -1.027   9.164   0.820 -0.2151  0.2120  0.2738
  397MOL0     C52320  -0.818   8.911   0.972 -0.0316  0.5297  1.2349
  397MOL0     C52321  -0.677   8.883   0.975 -0.0875 -0.0382 -0.1850
  397MOL0     N52322  -0.095   8.735   1.304 -0.4085 -1.2879 -0.2453
  397MOL0     N52323   0.022   8.671   1.310  0.1865  0.6955 -0.1560
  397MOL0     C52324   0.973   8.820   0.689 -0.8174 -0.0327  1.8114
  397MOL0     C52325   1.099   8.878   0.657 -0.3599 -0.1091  0.3907
  397MOL0     C52326   1.529   8.875   0.548 -0.3738 -0.6398  0.6911
  397MOL0     C52327   1.537   8.856   0.403 -0.6493 -0.4599  0.3727
  397MOL0     C52328   1.668   8.889   0.347  0.1498 -1.4318 -0.1217
  397MOL0     C52329   1.776   8.933   0.422 -0.7782  0.0994  1.5616
  397MOL0     O52330   1.908   8.934   0.367  0.5787 -0.2835 -0.4278
  397MOL0     C52331   1.979   9.056   0.405 -0.3242 -0.0320 -0.0429
  397MOL0     C52332   2.063   9.112   0.296  0.3073 -1.1472  0.0522
  397MOL0     C52333   2.131   9.250   0.332 -0.5894 -0.6412 -0.0584
  397MOL0     C52334   2.205   9.321   0.215  0.1562 -1.0047 -1.3720
  397MOL0     C52335   2.346   9.283   0.222  0.2552 -0.5581 -0.1083
  397MOL0     C52336   2.457   9.242   0.220  0.6131 -0.3980 -0.0812
  397MOL0     C52337   1.760   8.946   0.558 -0.7961  0.5485  0.2417
  397MOL0     C52338   1.638   8.922   0.618 -0.5482 -0.2213 -1.1678
  397MOL0     H52339   1.200   8.624   0.465  0.3154 -1.4017  2.7635
  397MOL0     H52340   0.960   8.540   0.500  2.4018 -1.4209  1.4453
  397MOL0     H52341   0.617   8.735   0.595 -0.3616  1.9555 -0.1623
  397MOL0     H52342   0.726   8.847   0.658  4.3578 -1.0028 -1.0253
  397MOL0     H52343   0.579   8.842   0.821 -0.2756  0.2885 -2.1714
  397MOL0     H52344   0.703   8.736   0.894  0.2424  1.4693  0.3741
  397MOL0     H52345   0.574   8.535   0.828 -0.9536 -0.8522  2.9463
  397MOL0     H52346   0.486   8.629   0.708 -0.7640 -2.5612  1.0700
  397MOL0     H52347   0.467   8.684   1.007 -0.5796  0.7129 -0.3922
  397MOL0     H52348   0.335   8.715   0.895 -0.1296 -0.2377  1.8808
  397MOL0     H52349   0.427   8.445   0.968  1.2408  2.4543 -0.4181
  397MOL0     H52350   0.278   8.489   0.870 -1.3324 -0.7699  0.8801
  397MOL0     H52351   0.215   8.632   1.065  3.2195  2.3878 -1.3229
  397MOL0     H52352   0.337   8.544   1.152 -2.1597 -0.6826  0.5011
  397MOL0     H52353   0.077   8.400   1.056  1.4937 -0.9736 -1.0038
  397MOL0     H52354   0.216   8.315   1.111  0.8644  0.0762  0.7940
  397MOL0     H52355   0.194   8.479   1.326 -1.0814  3.0064 -1.3585
  397MOL0     H52356   0.067   8.353   1.317  1.3331 -0.8631 -0.6690
  397MOL0     H52357  -0.163   8.435   1.179 -0.1628  0.8259 -1.6192
  397MOL0     H52358  -0.371   8.712   1.311  1.1359  1.0417 -1.0384
  397MOL0     H52359  -0.383   8.570   1.205 -1.2367 -0.1401 -0.6221
  397MOL0     H52360  -0.427   8.702   1.054  2.5022 -5.3186  1.0046
  397MOL0     H52361  -0.259   8.737   1.034 -0.0904 -0.2048  0.2012
  397MOL0     H52362  -0.479   8.896   1.192 -1.4561  1.8186 -3.4867
  397MOL0     H52363  -0.309   8.930   1.229 -1.2940 -0.7137  1.0558
  397MOL0     H52364  -0.267   8.991   1.006  0.8321  1.3672 -0.4851
  397MOL0     H52365  -0.405   9.086   1.065 -0.4587 -0.2459  0.8114
  397MOL0     H52366  -0.555   9.162   0.822 -1.1250  1.8810  1.2436
  397MOL0     H52367  -0.778   9.221   0.823  0.1085  1.3539  2.5711
  397MOL0     H52368  -1.245   9.164   0.817  0.5144  1.0390  2.2808
  397MOL0     H52369  -1.488   9.155   0.805  0.8847  0.5480 -1.4923
  397MOL0     H52370  -1.727   9.011   0.739 -2.9040 -2.8292  0.3835
  397MOL0     H52371  -1.702   9.143   0.845 -1.4207  0.2023  2.7296
  397MOL0     H52372  -1.938   9.106   0.856  3.0838  2.7334  0.4346
  397MOL0     H52373  -1.872   9.058   1.001 -0.8447  4.4406 -1.3396
  397MOL0     H52374  -1.876   8.809   0.913  1.0570  1.8575  1.2683
  397MOL0     H52375  -1.972   8.870   0.779  2.2836  3.1478 -1.2798
  397MOL0     H52376  -2.072   8.775   1.021  0.7536 -0.9100 -1.1282
  397MOL0     H52377  -2.052   8.951   1.059 -2.4298  1.9695 -2.0616
  397MOL0     H52378  -2.238   8.818   0.877  0.1113 -0.0871 -0.7724
  397MOL0     H52379  -2.172   8.964   0.813 -0.3949 -1.4060 -0.8235
  397MOL0     H52380  -2.285   8.942   1.101  1.2494 -0.7519  0.0276
  397MOL0     H52381  -2.385   9.000   0.968 -0.6858  0.0724  1.8275
  397MOL0     H52382  -2.175   9.135   1.119  0.9349 -1.6196 -0.2413
  397MOL0     H52383  -2.199   9.197   0.958 -0.6657  1.0606  0.2806
  397MOL0     H52384  -2.323   9.307   1.135  2.6640 -0.2982 -1.3186
  397MOL0     H52385  -2.434   9.162   1.158 -2.3451  1.0093  0.0899
  397MOL0     H52386  -1.488   8.782   1.028  2.0838 -0.4304  0.5597
  397MOL0     H52387  -1.253   8.795   1.039 -1.8589  1.2174  3.0878
  397MOL0     H52388  -0.882   8.832   1.009 -0.2192 -0.8051 -1.6481
  397MOL0     H52389  -0.655   8.784   1.013  0.7406  1.2676  3.1339
  397MOL0     H52390   0.920   8.882   0.761  1.1517  2.6826  1.0822
  397MOL0     H52391   1.123   8.972   0.705 -2.3826 -0.1864  1.6925
  397MOL0     H52392   1.454   8.812   0.350 -0.5387  0.3287 -0.4878
  397MOL0     H52393   1.691   8.867   0.243  3.3687  1.4084 -0.2039
  397MOL0     H52394   2.047   9.026   0.485 -0.6668 -2.3860 -0.5499
  397MOL0     H52395   1.912   9.138   0.435  1.0117  0.0937  3.0534
  397MOL0     H52396   2.148   9.047   0.275  0.8746 -0.5035  0.3048
  397MOL0     H52397   1.998   9.123   0.209 -0.3581 -2.7167  0.3251
  397MOL0     H52398   2.193   9.245   0.422 -1.8780 -0.4996  0.8528
  397MOL0     H52399   2.056   9.324   0.363  1.5636  1.6374  0.1032
  397MOL0     H52400   2.157   9.302   0.119 -0.0462 -3.2122 -0.9010
  397MOL0     H52401   2.202   9.427   0.240 -0.0297 -1.2927 -0.0979
  397MOL0     H52402   2.561   9.216   0.208  1.0894  0.4085  1.8667
  397MOL0     H52403   1.840   8.980   0.623 -1.4539 -2.3189  2.7134
  397MOL0     H52404   1.638   8.937   0.726  3.3508 -0.3514 -1.0179
  398MOL0     O52405   3.287   5.452   7.234 -0.4777 -0.3686 -1.0554
  398MOL0     C52406   3.335   5.341   7.264  0.0622 -0.1140 -0.1950
  398MOL0     O52407   3.265   5.225   7.278  0.0175  0.0176  0.2332
  398MOL0     C52408   3.127   5.230   7.293  0.0739  0.3318  0.8483
  398MOL0     C52409   3.086   5.101   7.311  0.3341 -0.2967  0.1721
  398MOL0     C52410   2.955   5.071   7.324  0.6949 -0.1688  1.6672
  398MOL0     C52411   2.857   5.174   7.322  0.3869  0.1557 -1.2531
  398MOL0     O52412   2.725   5.153   7.330  0.3492  0.0995 -0.0667
  398MOL0     C52413   2.669   5.019   7.338 -0.1883  0.4799  0.3850
  398MOL0     C52414   2.524   5.017   7.282 -0.1040  0.3283 -0.5663
  398MOL0     C52415   2.434   5.134   7.314  0.1251 -0.5184  0.9646
  398MOL0     C52416   2.280   5.106   7.298  0.0187 -0.1357 -0.5412
  398MOL0     C52417   2.203   5.233   7.277  0.4156 -0.2598  0.3189
  398MOL0     C52418   2.055   5.210   7.247 -0.2461  0.3608 -0.1397
  398MOL0     C52419   1.973   5.209   7.375  0.7527  0.4255 -0.1010
  398MOL0     C52420   1.827   5.230   7.339  0.1505 -1.0958 -0.3600
  398MOL0     N52421   1.784   5.108   7.265 -0.5222  0.2279 -0.2796
  398MOL0     C52422   1.751   5.121   7.134  0.4503  0.7643  0.3605
  398MOL0     C52423   1.712   4.997   7.087  0.7141  0.9375 -0.4760
  398MOL0     C52424   1.660   4.946   6.951 -0.1442 -0.5595  0.4135
  398MOL0     C52425   1.576   5.050   6.893 -0.1706 -0.2489  0.3483
  398MOL0     C52426   1.450   5.087   6.973  0.7260  0.1151 -0.6846
  398MOL0     C52427   1.356   5.170   6.887  0.7006  0.7945 -0.1368
  398MOL0     O52428   1.232   5.166   6.959  0.1653  0.7235 -0.8496
  398MOL0     C52429   1.154   5.278   6.958  0.6697 -0.1102 -0.9578
  398MOL0     C52430   1.184   5.398   6.895 -0.5845  0.3822  0.1381
  398MOL0     C52431   1.117   5.517   6.922 -0.0934  0.3624 -0.3084
  398MOL0     C52432   1.013   5.522   7.014  0.1867  0.1654  0.1551
  398MOL0     C52433   0.958   5.650   7.063  0.6433 -0.2667 -0.3760
  398MOL0     O52434   0.845   5.641   7.143 -0.3185  0.0397  0.2486
  398MOL0     C52435   0.807   5.757   7.191  0.2807 -0.7878 -0.3989
  398MOL0     C52436   0.864   5.840   7.296  0.4223 -0.6224  0.0911
  398MOL0     C52437   0.807   5.972   7.316  0.0405  0.2227  0.4707
  398MOL0     C52438   0.704   6.017   7.239  0.1623 -0.4247  0.0136
  398MOL0     O52439   0.658   6.145   7.264  0.1846  0.6095 -0.1014
  398MOL0     C52440   0.556   6.194   7.173  0.3796 -0.3675 -0.0886
  398MOL0     C52441   0.564   6.352   7.180  0.3375  1.5441 -0.8940
  398MOL0     C52442   0.434   6.424   7.131 -0.6357  0.2579  0.5508
  398MOL0     C52443   0.421   6.445   6.983 -0.7768  0.0124 -0.3264
  398MOL0     C52444   0.297   6.526   6.931  0.2713  0.1347 -0.4405
  398MOL0     C52445   0.324   6.570   6.788  0.0874  0.3392 -0.4302
  398MOL0     C52446   0.203   6.653   6.721 -0.8871 -0.2831 -0.3164
  398MOL0     C52447   0.081   6.594   6.653 -1.1456  0.2292 -0.1298
  398MOL0    Cl52448   0.014   6.462   6.761  0.0271  0.1671 -0.6803
  398MOL0     C52449   0.638   5.927   7.147  0.4588 -0.2121 -0.5261
  398MOL0     C52450   0.692   5.799   7.127  0.0098 -0.1363  0.3980
  398MOL0     O52451   1.001   5.750   7.013 -0.2124  0.0166 -0.4868
  398MOL0     C52452   0.973   5.401   7.069 -0.8826  0.3892  0.6438
  398MOL0     C52453   1.042   5.279   7.050 -0.0353  0.1459 -0.1095
  398MOL0     N52454   1.715   4.913   7.201  0.5684  0.4080 -0.1294
  398MOL0     N52455   1.767   4.978   7.296 -0.1064 -0.2615  0.0908
  398MOL0     C52456   2.898   5.309   7.325 -0.4361  0.9716 -1.5641
  398MOL0     C52457   3.032   5.340   7.294 -1.0276 -0.7287 -0.3035
  398MOL0     C52458   3.482   5.339   7.271  0.8546 -0.6791  0.1093
  398MOL0     C52459   3.551   5.223   7.309 -0.5635 -0.5705 -0.3897
  398MOL0     C52460   3.684   5.217   7.307 -0.1143  0.1545 -0.0793
  398MOL0     C52461   3.767   5.317   7.245  0.3152 -1.1780  0.3667
  398MOL0     O52462   3.906   5.310   7.246  0.0899 -0.8157  0.8743
  398MOL0     C52463   3.963   5.183   7.207 -0.7734  0.5687 -0.6205
  398MOL0     C52464   3.999   5.097   7.330 -0.2771  0.1714  0.1095
  398MOL0     C52465   4.013   5.167   7.461  0.2857  0.4879  0.5243
  398MOL0     C52466   3.999   5.076   7.581 -0.1103  0.8974  0.0945
  398MOL0     C52467   3.867   5.074   7.649 -0.2036 -0.2468 -0.3467
  398MOL0     C52468   3.772   5.088   7.725  1.0512  0.7998 -0.8764
  398MOL0     C52469   3.708   5.436   7.210  0.1584 -1.0842  0.6055
  398MOL0     C52470   3.569   5.447   7.224 -0.1336 -0.6866 -0.4958
  398MOL0     H52471   3.159   5.021   7.309  0.7244  0.0332  0.8799
  398MOL0     H52472   2.925   4.967   7.329  3.1262 -1.0227 -0.0212
  398MOL0     H52473   2.679   4.987   7.442  0.8817  0.9645  0.4388
  398MOL0     H52474   2.729   4.945   7.284 -0.7777  0.1557  0.1582
  398MOL0     H52475   2.489   4.920   7.318 -0.0250  0.6012  0.2593
  398MOL0     H52476   2.539   5.009   7.173  0.0499  0.1673 -0.5336
  398MOL0     H52477   2.456   5.212   7.240 -0.2520  0.3449  1.7405
  398MOL0     H52478   2.456   5.179   7.411  2.2082 -0.5307  0.5518
  398MOL0     H52479   2.256   5.027   7.227 -5.9156  0.8687 -0.1146
  398MOL0     H52480   2.240   5.070   7.393 -0.4144  0.8400 -0.3452
  398MOL0     H52481   2.251   5.283   7.192  0.1515 -0.5684 -0.0118
  398MOL0     H52482   2.198   5.307   7.358 -1.1825  1.7375 -1.4689
  398MOL0     H52483   2.040   5.112   7.201 -1.5497  1.1315 -1.4338
  398MOL0     H52484   2.020   5.288   7.179  0.3954  0.2120 -0.6502
  398MOL0     H52485   1.978   5.109   7.418  0.9113  0.3233 -0.3577
  398MOL0     H52486   2.005   5.286   7.447  0.8932 -1.8550  2.4613
  398MOL0     H52487   1.810   5.320   7.279 -1.5687  0.3024  2.0267
  398MOL0     H52488   1.773   5.241   7.434  1.8661  0.9317  0.4737
  398MOL0     H52489   1.751   5.211   7.074  3.2472  0.5919 -0.0186
  398MOL0     H52490   1.591   4.863   6.969 -0.2637 -0.5924 -0.1793
  398MOL0     H52491   1.734   4.925   6.873 -1.0956 -0.1562 -0.6217
  398MOL0     H52492   1.558   5.014   6.792 -0.7639 -1.0016  0.7134
  398MOL0     H52493   1.645   5.135   6.904  0.8553 -0.8879 -0.8965
  398MOL0     H52494   1.393   4.995   6.987 -0.7711  1.2745  1.2816
  398MOL0     H52495   1.471   5.133   7.069 -0.7726 -1.0869  0.2639
  398MOL0     H52496   1.353   5.112   6.794  0.5040  1.7802 -0.7593
  398MOL0     H52497   1.398   5.270   6.877  3.8915 -0.1773  2.1622
  398MOL0     H52498   1.257   5.408   6.815  0.8223  1.3911  1.4765
  398MOL0     H52499   1.148   5.611   6.876  2.9372 -0.6700 -0.5874
  398MOL0     H52500   0.955   5.811   7.346  0.1009  0.3302  1.2790
  398MOL0     H52501   0.852   6.030   7.396 -0.4967 -0.1853  1.0753
  398MOL0     H52502   0.457   6.166   7.210  0.2725 -0.1601 -0.2163
  398MOL0     H52503   0.586   6.173   7.070  0.5995  2.5002 -0.6801
  398MOL0     H52504   0.645   6.393   7.120  0.0027 -0.2452 -2.6473
  398MOL0     H52505   0.583   6.380   7.284  1.1125  0.1196 -0.6146
  398MOL0     H52506   0.445   6.521   7.180 -0.1738  2.2243 -3.0943
  398MOL0     H52507   0.341   6.381   7.170  0.9352 -1.8275  2.2609
  398MOL0     H52508   0.509   6.498   6.947  0.3100 -0.4411  1.5052
  398MOL0     H52509   0.427   6.352   6.926 -0.3374  0.1374 -0.4846
  398MOL0     H52510   0.288   6.612   6.998 -0.7132  0.6776 -1.2359
  398MOL0     H52511   0.199   6.477   6.931 -0.7628  2.0672  0.1477
  398MOL0     H52512   0.359   6.493   6.720 -0.6566 -0.3265 -0.0750
  398MOL0     H52513   0.408   6.638   6.800  0.5442  0.6063 -3.9694
  398MOL0     H52514   0.154   6.724   6.788 -0.1441  0.6087 -0.6992
  398MOL0     H52515   0.253   6.716   6.647 -2.0320  1.4147  0.3171
  398MOL0     H52516   0.104   6.555   6.553  3.6531 -3.6641  2.0725
  398MOL0     H52517  -0.002   6.665   6.644 -1.1305  0.0919 -1.6350
  398MOL0     H52518   0.554   5.959   7.085 -0.8304 -2.0970  0.1462
  398MOL0     H52519   0.667   5.735   7.043  2.3240 -0.9908  0.3003
  398MOL0     H52520   0.885   5.384   7.130 -0.0099 -2.7585  1.2238
  398MOL0     H52521   1.020   5.191   7.110 -0.6806  1.2412  1.3353
  398MOL0     H52522   2.830   5.392   7.337  0.9699  1.9458  0.2077
  398MOL0     H52523   3.067   5.441   7.276 -1.1357 -1.0654 -2.8714
  398MOL0     H52524   3.493   5.142   7.351 -3.4899  1.2164 -0.6778
  398MOL0     H52525   3.743   5.139   7.353  1.9798  1.9860  0.5407
  398MOL0     H52526   4.053   5.194   7.146 -0.0095 -2.5461 -0.2525
  398MOL0     H52527   3.900   5.129   7.134  1.9979  0.5389 -3.1855
  398MOL0     H52528   3.919   5.022   7.335 -0.6044  0.2615 -2.4745
  398MOL0     H52529   4.093   5.046   7.306 -0.7749 -0.9871  0.5093
  398MOL0     H52530   3.944   5.252   7.472  0.5698  1.0151 -1.3749
  398MOL0     H52531   4.118   5.196   7.471  0.6344  0.7184 -2.6068
  398MOL0     H52532   4.035   4.974   7.564 -2.5219  0.0188 -0.0670
  398MOL0     H52533   4.078   5.118   7.644 -1.0007  4.2397 -0.8220
  398MOL0     H52534   3.687   5.103   7.789 -2.4879 -1.5188 -4.5247
  398MOL0     H52535   3.768   5.521   7.179 -2.3104  1.6187  2.6547
  398MOL0     H52536   3.512   5.535   7.196 -2.4451 -2.1847 -0.8101
  399MOL0     O52537   9.647   4.439  10.391  0.1087 -0.3891 -0.9486
  399MOL0     C52538   9.561   4.357  10.428 -0.0789 -0.2560  0.2102
  399MOL0     O52539   9.437   4.336  10.371 -0.3922 -0.1682 -0.2831
  399MOL0     C52540   9.428   4.386  10.247  0.9067 -0.1869  0.6748
  399MOL0     C52541   9.521   4.369  10.142 -0.4191  0.0514  0.3953
  399MOL0     C52542   9.495   4.415  10.011 -0.4389  0.4314 -0.0106
  399MOL0     C52543   9.372   4.473   9.969 -0.5053 -0.4204 -0.1588
  399MOL0     O52544   9.355   4.505   9.834  0.1841  0.2416 -0.4310
  399MOL0     C52545   9.228   4.549   9.792 -0.7842  0.0321  0.1328
  399MOL0     C52546   9.235   4.619   9.658  0.1800 -0.5170 -0.2901
  399MOL0     C52547   9.104   4.691   9.631  0.3360 -0.9928 -0.2596
  399MOL0     C52548   9.077   4.739   9.494  1.0562 -0.3558 -0.1079
  399MOL0     C52549   8.956   4.826   9.490 -0.6198 -0.4949 -0.5447
  399MOL0     C52550   8.952   4.924   9.371 -0.0787  1.1472 -1.3313
  399MOL0     C52551   8.838   5.017   9.379  0.6856 -0.0822 -0.1590
  399MOL0     C52552   8.851   5.109   9.500 -0.2294  0.1122  0.0186
  399MOL0     N52553   8.756   5.213   9.482  0.2625 -0.2118  0.2636
  399MOL0     C52554   8.640   5.227   9.541  0.5644  0.8029  0.5189
  399MOL0     C52555   8.593   5.349   9.513 -0.0558 -0.6226 -0.4003
  399MOL0     C52556   8.468   5.412   9.581 -0.8218 -0.1670 -0.7662
  399MOL0     C52557   8.355   5.450   9.477 -0.2079 -0.2933  0.0118
  399MOL0     C52558   8.293   5.320   9.432 -0.0768  0.7225 -0.8098
  399MOL0     C52559   8.173   5.356   9.343 -0.9302  0.1614 -0.8064
  399MOL0     O52560   8.104   5.236   9.301 -0.1311 -0.1032 -1.2943
  399MOL0     C52561   8.000   5.254   9.209  0.1872  0.5544  0.5038
  399MOL0     C52562   7.912   5.139   9.182 -0.6427 -1.0379 -0.0030
  399MOL0     C52563   7.806   5.153   9.091  1.0027 -0.4039 -0.2568
  399MOL0     C52564   7.781   5.278   9.029  0.2673  0.6556 -0.0873
  399MOL0     C52565   7.661   5.298   8.950  0.6048 -0.1016  0.2154
  399MOL0     O52566   7.548   5.214   8.981  0.0910 -0.8873 -0.1466
  399MOL0     C52567   7.423   5.235   8.926 -0.4817  0.6030  0.3998
  399MOL0     C52568   7.385   5.349   8.852 -0.3636  0.7673  0.0901
  399MOL0     C52569   7.258   5.356   8.806 -0.1226 -0.5812  0.4436
  399MOL0     C52570   7.159   5.259   8.827  0.5124 -0.7540  0.3805
  399MOL0     O52571   7.043   5.276   8.766 -0.0322  0.3933  0.1223
  399MOL0     C52572   6.955   5.372   8.831  1.0786 -0.2563 -0.7732
  399MOL0     C52573   6.799   5.331   8.815  0.0837 -0.0343 -0.0997
  399MOL0     C52574   6.715   5.459   8.841  0.3368  0.8929 -0.0799
  399MOL0     C52575   6.571   5.419   8.857  0.0394  0.2978 -0.2669
  399MOL0     C52576   6.487   5.531   8.923  0.2770 -0.0483  0.4251
  399MOL0     C52577   6.467   5.655   8.844  0.5959 -0.0030 -1.1735
  399MOL0     C52578   6.405   5.771   8.927 -0.6759 -0.3445 -0.1878
  399MOL0     C52579   6.345   5.883   8.855  0.1197  0.5035  0.4898
  399MOL0    Cl52580   6.452   5.996   8.780  0.6131 -0.3351  0.2054
  399MOL0     C52581   7.201   5.143   8.896  0.2516 -0.3193  0.0384
  399MOL0     C52582   7.326   5.140   8.958 -0.2711  1.0336  0.0300
  399MOL0     O52583   7.658   5.397   8.876  0.0761  0.2987 -0.9340
  399MOL0     C52584   7.872   5.385   9.041 -0.2573 -0.3529 -0.7649
  399MOL0     C52585   7.978   5.374   9.137  0.4796 -1.4586 -0.3563
  399MOL0     N52586   8.688   5.398   9.438  0.2403 -0.3052  0.1734
  399MOL0     N52587   8.785   5.320   9.414  0.6051 -0.3783 -0.2491
  399MOL0     C52588   9.274   4.479  10.066  0.0414 -0.6515 -0.0834
  399MOL0     C52589   9.303   4.444  10.207 -0.7719 -0.5379  0.4011
  399MOL0     C52590   9.586   4.273  10.546 -0.7114  0.3758 -0.2550
  399MOL0     C52591   9.479   4.219  10.624 -0.0948 -0.0390 -0.1348
  399MOL0     C52592   9.511   4.138  10.742  1.1401  0.8554 -0.3516
  399MOL0     C52593   9.641   4.103  10.765  0.2432 -0.1193 -0.7146
  399MOL0     O52594   9.688   4.028  10.872  0.3386  0.2223 -0.9168
  399MOL0     C52595   9.597   3.969  10.973  0.3972  0.6201  0.8645
  399MOL0     C52596   9.645   3.829  11.006  0.3218 -0.9031 -0.5299
  399MOL0     C52597   9.754   3.848  11.106 -0.1402  0.7855 -1.1165
  399MOL0     C52598   9.803   3.704  11.135 -0.6543 -1.2378 -0.9615
  399MOL0     C52599   9.941   3.707  11.198  0.4219 -0.6168 -0.0108
  399MOL0     C52600  10.060   3.704  11.237  0.7116 -0.4123  0.6423
  399MOL0     C52601   9.741   4.142  10.679  0.3348  0.7351 -0.2165
  399MOL0     C52602   9.714   4.229  10.571  0.5733  0.2331 -0.2512
  399MOL0     H52603   9.615   4.316  10.152  0.2499  0.7059 -1.8918
  399MOL0     H52604   9.577   4.422   9.940  1.2033 -1.7320  1.5454
  399MOL0     H52605   9.186   4.619   9.865 -1.5987 -1.8352  1.5417
  399MOL0     H52606   9.162   4.464   9.776 -2.9393  1.9664 -1.9939
  399MOL0     H52607   9.268   4.552   9.578  0.8589  2.2011 -2.4762
  399MOL0     H52608   9.304   4.704   9.651 -0.8995  0.7961  3.0903
  399MOL0     H52609   9.102   4.772   9.704 -1.7413 -0.3296 -0.9914
  399MOL0     H52610   9.021   4.625   9.660 -0.2020 -0.0811  0.3078
  399MOL0     H52611   9.162   4.804   9.471  1.7779  0.0238  3.1654
  399MOL0     H52612   9.067   4.655   9.424  0.6093 -0.2789 -0.1394
  399MOL0     H52613   8.972   4.879   9.585  2.9961  2.0109 -2.3302
  399MOL0     H52614   8.868   4.763   9.475  1.6671 -3.2248 -3.9680
  399MOL0     H52615   8.958   4.858   9.284  0.0790 -0.3303 -0.2313
  399MOL0     H52616   9.045   4.981   9.360 -0.3375  2.8850  3.2231
  399MOL0     H52617   8.823   5.067   9.283  0.9385 -0.2667 -0.2951
  399MOL0     H52618   8.754   4.949   9.397  0.5659 -0.6868 -2.6881
  399MOL0     H52619   8.951   5.153   9.502 -1.4358  3.1528  0.0843
  399MOL0     H52620   8.848   5.049   9.591  2.8751 -0.7042 -0.3233
  399MOL0     H52621   8.594   5.144   9.594  0.7475  1.4943  1.7928
  399MOL0     H52622   8.500   5.505   9.629  0.2245 -2.0348  2.3884
  399MOL0     H52623   8.427   5.346   9.658 -1.0860  1.5675  0.6526
  399MOL0     H52624   8.384   5.510   9.390 -0.5185  0.8841  0.7036
  399MOL0     H52625   8.278   5.516   9.517 -0.2239  1.7373 -3.0613
  399MOL0     H52626   8.365   5.259   9.377  1.9496  1.1713  1.1845
  399MOL0     H52627   8.265   5.270   9.526 -0.5340  2.5138  0.0462
  399MOL0     H52628   8.207   5.411   9.254  0.3341 -0.1551 -0.5371
  399MOL0     H52629   8.100   5.411   9.403 -2.6648 -1.0894 -1.6732
  399MOL0     H52630   7.941   5.054   9.243 -0.3529 -1.7957 -1.1577
  399MOL0     H52631   7.731   5.077   9.074  1.2479 -0.6376 -0.2990
  399MOL0     H52632   7.445   5.438   8.838  1.8114 -0.5405  0.6006
  399MOL0     H52633   7.228   5.450   8.760 -1.3804 -0.1385  2.0418
  399MOL0     H52634   6.958   5.473   8.788 -3.5255  0.2345 -0.4153
  399MOL0     H52635   6.980   5.382   8.938  2.3537  1.4097 -1.1738
  399MOL0     H52636   6.774   5.251   8.885 -3.0434  1.2655  0.4663
  399MOL0     H52637   6.773   5.301   8.713  0.3308 -1.3443  0.2069
  399MOL0     H52638   6.727   5.531   8.761 -0.7224  1.8786  0.6168
  399MOL0     H52639   6.749   5.512   8.930  0.5392 -1.7669  1.5652
  399MOL0     H52640   6.547   5.377   8.759  2.0047 -1.2111 -0.1576
  399MOL0     H52641   6.568   5.333   8.925 -0.0514 -1.9678 -2.9775
  399MOL0     H52642   6.529   5.561   9.020 -0.7123  1.0569  0.5341
  399MOL0     H52643   6.388   5.488   8.940 -0.8592  1.9645 -0.6632
  399MOL0     H52644   6.397   5.619   8.768  1.0180 -1.2858 -0.9853
  399MOL0     H52645   6.563   5.685   8.801 -1.2386  2.7046 -3.7820
  399MOL0     H52646   6.332   5.716   8.988 -2.3373 -0.2619 -2.0049
  399MOL0     H52647   6.480   5.810   8.996 -1.6038  0.9021  0.1648
  399MOL0     H52648   6.272   5.926   8.924  0.2462  0.3336  0.7348
  399MOL0     H52649   6.280   5.848   8.775 -0.1362  1.8890  0.0696
  399MOL0     H52650   7.136   5.060   8.919  0.8275 -0.1663  2.5561
  399MOL0     H52651   7.362   5.057   9.018  1.9140  1.4917 -0.5572
  399MOL0     H52652   7.858   5.484   8.999  2.0120  0.4725  0.2973
  399MOL0     H52653   8.036   5.465   9.155  1.6061 -1.4127 -3.5755
  399MOL0     H52654   9.175   4.523  10.057  0.4895  1.2949  2.8435
  399MOL0     H52655   9.223   4.454  10.280 -0.7860 -0.1685  0.3365
  399MOL0     H52656   9.374   4.235  10.605  0.3508  2.5540 -0.7538
  399MOL0     H52657   9.429   4.117  10.809  0.4630  0.4236 -1.2900
  399MOL0     H52658   9.497   3.959  10.932  0.5907  0.3147  0.4646
  399MOL0     H52659   9.587   4.036  11.059 -3.0528 -0.3527  1.3543
  399MOL0     H52660   9.563   3.767  11.044  0.4045 -0.3258  0.6176
  399MOL0     H52661   9.680   3.784  10.912 -0.6208 -0.1212 -1.2887
  399MOL0     H52662   9.721   3.889  11.203  0.2370  0.9991 -1.0758
  399MOL0     H52663   9.834   3.911  11.066  0.4266  0.8101  0.0018
  399MOL0     H52664   9.735   3.643  11.195 -1.6229  0.8491  0.1717
  399MOL0     H52665   9.815   3.656  11.037 -2.2990 -2.7699 -0.4593
  399MOL0     H52666  10.162   3.698  11.267 -0.2424 -0.6885  4.2456
  399MOL0     H52667   9.839   4.100  10.700 -0.9782 -1.8323  1.3597
  399MOL0     H52668   9.801   4.253  10.512  1.5290 -0.1424  0.9542
  400MOL0     O52669   5.229   9.484   4.918  0.9078  0.4512 -0.1921
  400MOL0     C52670   5.198   9.402   5.006  0.5880  0.0324 -0.4008
  400MOL0     O52671   5.085   9.326   5.011 -0.5013  0.3519 -0.2158
  400MOL0     C52672   5.007   9.340   4.896 -0.1803 -0.7645 -0.8601
  400MOL0     C52673   5.055   9.275   4.780  0.2516 -0.4881 -1.3319
  400MOL0     C52674   4.974   9.265   4.664 -0.4027 -0.6577  0.4561
  400MOL0     C52675   4.837   9.296   4.676 -0.4442 -0.2111 -0.3354
  400MOL0     O52676   4.751   9.259   4.580 -0.5739  0.3070 -0.2355
  400MOL0     C52677   4.797   9.169   4.473  0.0210 -0.4981  0.8958
  400MOL0     C52678   4.682   9.114   4.385 -0.5606 -0.7029  0.7271
  400MOL0     C52679   4.634   8.971   4.427  0.1580 -0.5662  0.5813
  400MOL0     C52680   4.543   8.981   4.555 -0.4794  0.9412 -0.9878
  400MOL0     C52681   4.443   8.865   4.581 -0.1061 -0.2410 -1.3750
  400MOL0     C52682   4.371   8.881   4.713 -0.5507 -0.1519 -0.2261
  400MOL0     C52683   4.305   8.754   4.768  0.5466  0.2682  0.5332
  400MOL0     C52684   4.194   8.701   4.687  0.1898 -0.4568 -1.4575
  400MOL0     N52685   4.071   8.776   4.721  0.9436 -0.3056 -0.5983
  400MOL0     C52686   3.981   8.735   4.819 -0.5686 -0.4786  0.2534
  400MOL0     C52687   3.882   8.825   4.817  0.1379  0.0034  0.6523
  400MOL0     C52688   3.778   8.828   4.921  0.0446 -0.8683 -0.2691
  400MOL0     C52689   3.666   8.918   4.878  0.5254 -0.7501  0.6550
  400MOL0     C52690   3.581   8.877   4.747 -0.4404 -1.0858 -1.0812
  400MOL0     C52691   3.463   8.977   4.737  0.0642 -0.4384 -0.5193
  400MOL0     O52692   3.376   8.932   4.626 -0.5135  0.2360  0.3463
  400MOL0     C52693   3.247   8.967   4.643 -0.4244  0.2189  0.6073
  400MOL0     C52694   3.215   9.102   4.655 -1.0303 -0.2562 -0.0950
  400MOL0     C52695   3.080   9.143   4.650  0.1168 -0.3838  0.6400
  400MOL0     C52696   2.975   9.055   4.639 -0.3231  0.9720  0.3131
  400MOL0     C52697   2.838   9.104   4.629  0.5769  0.0589 -0.8287
  400MOL0     O52698   2.735   9.009   4.601  0.2822 -0.0163  0.2896
  400MOL0     C52699   2.610   9.058   4.586 -0.1582  0.4340  0.6224
  400MOL0     C52700   2.522   9.038   4.686  0.6571 -0.4454 -0.4144
  400MOL0     C52701   2.382   9.054   4.667 -0.5583 -0.6261 -0.6790
  400MOL0     C52702   2.330   9.092   4.546  0.2114 -0.8561 -0.7346
  400MOL0     O52703   2.190   9.104   4.533 -0.6011 -0.0615  0.0315
  400MOL0     C52704   2.147   9.187   4.426  0.3928  0.0558 -0.8435
  400MOL0     C52705   1.997   9.207   4.457  1.5295  0.1963 -0.7077
  400MOL0     C52706   1.911   9.245   4.338 -0.8906 -0.0940  0.2383
  400MOL0     C52707   1.771   9.295   4.379  0.2082 -0.0902  0.3300
  400MOL0     C52708   1.708   9.394   4.287 -0.1425 -0.0945  0.1325
  400MOL0     C52709   1.802   9.511   4.250 -0.2841 -0.3552 -0.1204
  400MOL0     C52710   1.724   9.630   4.212 -0.1986 -0.2605 -0.3195
  400MOL0     C52711   1.671   9.618   4.063 -0.2954  0.4476 -0.5480
  400MOL0    Cl52712   1.575   9.757   4.007 -0.0907 -0.6289 -0.1709
  400MOL0     C52713   2.423   9.128   4.448  1.0465 -1.0888 -0.2810
  400MOL0     C52714   2.565   9.106   4.468 -0.0921  0.0667 -0.2361
  400MOL0     O52715   2.812   9.219   4.666 -0.1886 -0.8697  0.5615
  400MOL0     C52716   3.010   8.919   4.622  0.1592 -0.0064  0.1652
  400MOL0     C52717   3.141   8.878   4.624 -0.1010  0.9351 -0.0828
  400MOL0     N52718   3.907   8.916   4.718 -1.4000 -0.1831  0.3784
  400MOL0     N52719   4.029   8.895   4.673  0.3323 -0.1605 -1.1264
  400MOL0     C52720   4.788   9.349   4.791 -0.6410  0.5774  0.6165
  400MOL0     C52721   4.879   9.377   4.899 -0.4986 -0.6016  0.1622
  400MOL0     C52722   5.287   9.397   5.127  0.4760  0.3106  0.3249
  400MOL0     C52723   5.396   9.478   5.139  0.1881  0.2798  0.3399
  400MOL0     C52724   5.478   9.493   5.251 -0.2455 -0.1486 -1.0097
  400MOL0     C52725   5.450   9.404   5.353  0.4936  0.2692 -0.5599
  400MOL0     O52726   5.520   9.406   5.471  0.4509  0.0294  0.2118
  400MOL0     C52727   5.501   9.309   5.579 -0.4200 -0.0735 -0.3841
  400MOL0     C52728   5.370   9.337   5.660 -0.6188 -0.1067  0.5306
  400MOL0     C52729   5.332   9.209   5.745 -0.4214 -0.8716  0.0530
  400MOL0     C52730   5.194   9.228   5.807 -0.9254  0.1798 -0.3473
  400MOL0     C52731   5.083   9.282   5.732 -0.8468  0.2194  0.0361
  400MOL0     C52732   4.982   9.342   5.695 -0.5591 -1.0823  0.2853
  400MOL0     C52733   5.340   9.314   5.344 -0.3748  0.1498 -0.2189
  400MOL0     C52734   5.256   9.315   5.238 -0.2280 -0.5490 -0.1492
  400MOL0     H52735   5.159   9.242   4.780  0.6300  0.4138  1.4247
  400MOL0     H52736   5.030   9.228   4.580 -0.8319  1.6193 -0.9049
  400MOL0     H52737   4.846   9.078   4.510 -2.0964 -4.5535 -4.7356
  400MOL0     H52738   4.861   9.222   4.402 -0.3867  0.0247  0.9114
  400MOL0     H52739   4.720   9.106   4.283 -1.4833  1.2063  0.1858
  400MOL0     H52740   4.602   9.188   4.391 -0.3294 -0.5087  1.5300
  400MOL0     H52741   4.720   8.905   4.441 -0.1047 -0.4283  3.3193
  400MOL0     H52742   4.579   8.922   4.346  2.7403 -2.1695 -0.3243
  400MOL0     H52743   4.621   8.974   4.631 -0.4300  0.0935 -1.0991
  400MOL0     H52744   4.494   9.078   4.560  1.6251  2.2627 -3.4282
  400MOL0     H52745   4.499   8.771   4.581 -0.7921 -0.7359  1.1559
  400MOL0     H52746   4.371   8.862   4.499 -2.2415  0.6677  0.3827
  400MOL0     H52747   4.298   8.963   4.707 -2.0298 -1.3199  0.9222
  400MOL0     H52748   4.448   8.903   4.787 -3.1182 -0.9496  2.9183
  400MOL0     H52749   4.378   8.673   4.776  2.5920  1.8648 -0.9487
  400MOL0     H52750   4.259   8.785   4.862  0.1552  2.6280 -0.3731
  400MOL0     H52751   4.175   8.593   4.696  0.9502 -0.4332  1.2983
  400MOL0     H52752   4.221   8.722   4.583 -0.8416  2.0930 -1.2825
  400MOL0     H52753   4.014   8.650   4.879  1.2468 -1.7866 -2.3967
  400MOL0     H52754   3.819   8.862   5.016 -0.3284  0.7862 -0.6828
  400MOL0     H52755   3.726   8.735   4.947  0.9862 -0.6519  2.6844
  400MOL0     H52756   3.707   9.019   4.872 -3.0235  0.7817 -1.3974
  400MOL0     H52757   3.601   8.928   4.965  0.1089  1.2246  0.1705
  400MOL0     H52758   3.640   8.872   4.655  1.8215  1.6761  0.0940
  400MOL0     H52759   3.532   8.781   4.769 -0.3349 -0.6783  1.2074
  400MOL0     H52760   3.497   9.080   4.722 -0.2467 -0.3651 -0.7279
  400MOL0     H52761   3.417   8.968   4.835  0.3643  0.3584 -0.2978
  400MOL0     H52762   3.295   9.173   4.669 -1.0568 -0.2405 -0.0283
  400MOL0     H52763   3.062   9.250   4.653 -2.1382 -0.7419  2.6358
  400MOL0     H52764   2.555   8.993   4.779  0.2557 -0.1943 -0.1481
  400MOL0     H52765   2.318   9.028   4.750 -2.5944 -1.8442 -2.5295
  400MOL0     H52766   2.142   9.130   4.333 -1.5113 -3.4779  1.2014
  400MOL0     H52767   2.200   9.282   4.409 -0.8709  1.2374  1.2987
  400MOL0     H52768   1.982   9.278   4.539 -0.7290 -0.0505 -0.8602
  400MOL0     H52769   1.955   9.113   4.493 -2.0897  1.7366 -0.4932
  400MOL0     H52770   1.900   9.161   4.269 -1.9247  1.4708 -1.6227
  400MOL0     H52771   1.970   9.324   4.290  0.4600 -1.9918 -1.4207
  400MOL0     H52772   1.702   9.211   4.392  0.9358 -0.7181  0.2523
  400MOL0     H52773   1.784   9.341   4.477  3.5095  0.5438 -0.2794
  400MOL0     H52774   1.623   9.436   4.342  0.3432  0.6282  0.3502
  400MOL0     H52775   1.666   9.339   4.202  1.7827  0.8642 -1.5446
  400MOL0     H52776   1.866   9.482   4.167  2.0993  1.3676  1.0087
  400MOL0     H52777   1.868   9.535   4.334  0.9744 -0.2598 -1.1096
  400MOL0     H52778   1.638   9.635   4.279  0.7121 -0.6601  0.9301
  400MOL0     H52779   1.779   9.721   4.235 -0.5354 -0.2117  0.3220
  400MOL0     H52780   1.601   9.533   4.068 -0.5087  0.6027 -0.8641
  400MOL0     H52781   1.747   9.583   3.994 -2.3780 -3.0669 -1.3285
  400MOL0     H52782   2.408   9.172   4.350  1.1764  0.7359  0.4920
  400MOL0     H52783   2.639   9.126   4.391  0.2364  0.0837  0.0795
  400MOL0     H52784   2.939   8.842   4.595 -2.7633  2.6440 -0.3129
  400MOL0     H52785   3.149   8.774   4.596 -0.1493  1.1053 -0.7437
  400MOL0     H52786   4.682   9.363   4.774 -0.9761 -2.5743 -0.5619
  400MOL0     H52787   4.847   9.419   4.994 -0.1652 -1.7939  0.8188
  400MOL0     H52788   5.424   9.545   5.059  3.0339  3.5384  3.6769
  400MOL0     H52789   5.558   9.566   5.253  0.8548 -1.3306 -0.5984
  400MOL0     H52790   5.584   9.321   5.649  1.1904 -0.3101 -2.1600
  400MOL0     H52791   5.504   9.208   5.537  0.2811 -0.8358  1.3841
  400MOL0     H52792   5.392   9.421   5.726 -1.1090 -1.1724  2.1117
  400MOL0     H52793   5.284   9.365   5.597  0.4957 -1.5528 -1.7546
  400MOL0     H52794   5.403   9.195   5.827 -0.2062  1.0355  0.2417
  400MOL0     H52795   5.350   9.130   5.672  0.7000  0.2751 -0.9757
  400MOL0     H52796   5.166   9.130   5.848  2.6721 -0.7363  0.2105
  400MOL0     H52797   5.201   9.280   5.902 -1.8741 -0.3271  0.0133
  400MOL0     H52798   4.898   9.400   5.664 -0.8279 -1.4931  0.2296
  400MOL0     H52799   5.313   9.233   5.411  2.0094  0.6503  1.4510
  400MOL0     H52800   5.172   9.246   5.237 -1.2083  0.6080  0.0393
  401MOL0     O52801  11.141   8.120   7.202  0.3378 -0.9470  0.7792
  401MOL0     C52802  11.255   8.169   7.215 -0.4446 -0.4764  0.1952
  401MOL0     O52803  11.288   8.291   7.264 -0.1928 -0.1801  0.9948
  401MOL0     C52804  11.188   8.386   7.289 -0.5297 -0.4019 -0.2903
  401MOL0     C52805  11.196   8.460   7.409  0.2387  0.1484  0.7454
  401MOL0     C52806  11.105   8.562   7.440  0.0307  0.8809  0.3138
  401MOL0     C52807  11.011   8.596   7.349 -0.0700 -0.1539  0.6740
  401MOL0     O52808  10.917   8.691   7.384  0.0125  0.3155 -0.7604
  401MOL0     C52809  10.896   8.796   7.291  0.2489  0.1752  0.2293
  401MOL0     C52810  10.783   8.882   7.348  0.5355  0.5802  0.0456
  401MOL0     C52811  10.720   8.967   7.244  0.1490 -0.1714  0.0596
  401MOL0     C52812  10.593   9.025   7.292  0.6402  0.7170  0.2119
  401MOL0     C52813  10.528   9.119   7.189  0.8038  0.0684  0.2700
  401MOL0     C52814  10.379   9.130   7.216 -0.4936 -0.4136 -0.2192
  401MOL0     C52815  10.306   9.228   7.113  0.6983 -0.0403 -0.2953
  401MOL0     C52816  10.292   9.367   7.175 -0.0279 -0.1682 -0.5521
  401MOL0     N52817  10.188   9.447   7.107  0.3190  0.1296 -0.1242
  401MOL0     C52818  10.228   9.561   7.043  0.1449 -0.1457  0.1801
  401MOL0     C52819  10.115   9.603   6.977 -0.1717 -0.5623  0.0946
  401MOL0     C52820  10.109   9.715   6.874 -0.8169  0.1576  0.4103
  401MOL0     C52821  10.099   9.849   6.937  0.4588 -0.8491  0.0790
  401MOL0     C52822   9.959   9.866   6.989 -0.1789 -0.2132 -0.4502
  401MOL0     C52823   9.930  10.005   7.054  0.4243 -0.1610 -0.4514
  401MOL0     O52824   9.797  10.027   7.087  0.6924 -0.1206 -0.0395
  401MOL0     C52825   9.700  10.084   6.999  0.3563 -0.5392 -0.6989
  401MOL0     C52826   9.724  10.116   6.862  0.4301  0.0714 -0.7337
  401MOL0     C52827   9.629  10.185   6.788  0.2630 -0.6871  0.0670
  401MOL0     C52828   9.516  10.244   6.854 -0.4913  0.7523 -0.4684
  401MOL0     C52829   9.417  10.330   6.786 -0.2120  0.7035 -0.0903
  401MOL0     O52830   9.350  10.422   6.869 -0.5005 -0.1910 -0.1833
  401MOL0     C52831   9.254  10.515   6.833  1.3720  0.2135  0.6274
  401MOL0     C52832   9.216  10.542   6.704  0.5113 -0.2166  0.2570
  401MOL0     C52833   9.085  10.604   6.684 -0.5567  0.0379  0.2734
  401MOL0     C52834   9.003  10.653   6.785 -0.1791 -1.1051  0.7154
  401MOL0     O52835   8.884  10.702   6.757 -0.7371  0.7477 -0.6092
  401MOL0     C52836   8.856  10.737   6.627  0.4695  0.0381  0.2512
  401MOL0     C52837   8.713  10.774   6.614 -0.0380  0.3956  0.0426
  401MOL0     C52838   8.659  10.812   6.474 -0.0101 -0.2005 -0.6306
  401MOL0     C52839   8.530  10.886   6.490 -0.5876 -0.4021 -0.4201
  401MOL0     C52840   8.403  10.805   6.520 -0.8139 -0.3539 -0.2511
  401MOL0     C52841   8.279  10.892   6.520  0.4285 -0.3292 -0.1864
  401MOL0     C52842   8.155  10.804   6.545  0.5628 -0.6459  0.6968
  401MOL0     C52843   8.019  10.881   6.545 -0.5496  0.0918 -0.0402
  401MOL0    Cl52844   7.900  10.783   6.635 -0.5611  0.1254 -0.0905
  401MOL0     C52845   9.050  10.632   6.917 -0.4785 -0.5282  0.0441
  401MOL0     C52846   9.176  10.571   6.939 -0.7173  0.2419 -0.2910
  401MOL0     O52847   9.406  10.327   6.665  0.2714  0.3784 -0.7075
  401MOL0     C52848   9.489  10.212   6.986 -0.6801  0.4055 -0.9570
  401MOL0     C52849   9.576  10.135   7.058 -0.7053  1.1753 -0.7018
  401MOL0     N52850  10.014   9.519   6.996 -0.0165  1.0934 -0.4609
  401MOL0     N52851  10.059   9.419   7.067 -0.7532 -0.7011 -0.4303
  401MOL0     C52852  11.000   8.527   7.227  0.3607 -0.3382 -0.6911
  401MOL0     C52853  11.091   8.423   7.198  0.3693 -0.4822  0.3038
  401MOL0     C52854  11.379   8.093   7.190  0.8656 -0.6244  0.2463
  401MOL0     C52855  11.372   7.956   7.195  0.7738 -0.7063 -1.4561
  401MOL0     C52856  11.470   7.871   7.142  0.0867 -0.3801  0.6138
  401MOL0     C52857  11.581   7.928   7.074  0.1312  0.9098  0.5508
  401MOL0     O52858  11.661   7.844   7.005 -0.0151 -0.7732  0.7287
  401MOL0     C52859  11.777   7.913   6.950 -0.1515  0.3329 -1.0599
  401MOL0     C52860  11.876   7.817   6.870 -0.4376  0.0531  0.7675
  401MOL0     C52861  11.987   7.738   6.944  0.5651  0.1702 -0.2873
  401MOL0     C52862  11.939   7.656   7.069  0.3413  0.3316  0.9121
  401MOL0     C52863  12.062   7.649   7.152  0.6723 -0.6772  0.4716
  401MOL0     C52864  12.159   7.640   7.218 -0.9037  0.6711 -0.0196
  401MOL0     C52865  11.581   8.066   7.057 -0.3152 -0.0715 -0.7732
  401MOL0     C52866  11.490   8.153   7.127 -0.0004  0.2197 -0.5142
  401MOL0     H52867  11.279   8.436   7.475 -1.4246 -1.1787  2.4620
  401MOL0     H52868  11.090   8.598   7.542 -2.0579 -0.0211  0.3664
  401MOL0     H52869  10.875   8.753   7.193 -3.5747 -1.6147  1.6399
  401MOL0     H52870  10.993   8.844   7.276  1.4293 -1.5761  1.8100
  401MOL0     H52871  10.810   8.944   7.434  1.1551 -2.3923  2.1374
  401MOL0     H52872  10.706   8.813   7.382  0.6963 -0.2541 -1.2021
  401MOL0     H52873  10.702   8.911   7.151  0.4058  0.4072 -0.3449
  401MOL0     H52874  10.794   9.043   7.218  1.5035 -0.6510  2.2948
  401MOL0     H52875  10.518   8.948   7.312 -0.1729  1.5360  0.3672
  401MOL0     H52876  10.612   9.076   7.387 -0.7372 -0.9650  1.4677
  401MOL0     H52877  10.533   9.068   7.092 -2.7385 -1.3058  0.6431
  401MOL0     H52878  10.587   9.211   7.192  2.8830 -1.2317  0.5957
  401MOL0     H52879  10.357   9.162   7.318  1.1440 -0.8165  0.3003
  401MOL0     H52880  10.339   9.029   7.209  1.2471 -1.3505  2.1185
  401MOL0     H52881  10.352   9.240   7.014  0.8233  3.2927  0.0827
  401MOL0     H52882  10.208   9.180   7.106 -0.1298  1.1200  2.2147
  401MOL0     H52883  10.392   9.410   7.168 -0.9442  1.8759 -1.8710
  401MOL0     H52884  10.274   9.356   7.282  0.1405  1.8095 -0.3006
  401MOL0     H52885  10.327   9.602   7.028 -0.2139  1.1298  1.0858
  401MOL0     H52886  10.027   9.688   6.807 -0.2593 -0.7419  0.0708
  401MOL0     H52887  10.199   9.713   6.811 -1.0048 -0.9989  0.1559
  401MOL0     H52888  10.114   9.928   6.863  1.2133 -1.8260 -0.8444
  401MOL0     H52889  10.174   9.868   7.015 -0.5988 -1.0426  1.1807
  401MOL0     H52890   9.889   9.859   6.905  0.1007  0.8255 -0.7922
  401MOL0     H52891   9.933   9.790   7.063 -0.9823  2.1507  1.8927
  401MOL0     H52892   9.969  10.090   6.999 -0.9336 -0.2642 -1.6364
  401MOL0     H52893   9.988   9.989   7.145  3.0813  3.2018 -1.3722
  401MOL0     H52894   9.822  10.086   6.826  0.5986  0.8126 -0.9253
  401MOL0     H52895   9.655  10.212   6.686  1.0714  0.0355  0.4541
  401MOL0     H52896   9.270  10.519   6.613 -0.6295 -0.1615 -0.4647
  401MOL0     H52897   9.061  10.612   6.579 -2.1713 -3.0314  0.2704
  401MOL0     H52898   8.865  10.643   6.572 -1.0446 -1.9211  3.0529
  401MOL0     H52899   8.919  10.817   6.588  1.6549 -2.2309 -2.9487
  401MOL0     H52900   8.699  10.869   6.667  2.3857  0.4166  0.7583
  401MOL0     H52901   8.650  10.700   6.663 -0.7638  0.2016 -1.1271
  401MOL0     H52902   8.635  10.721   6.418 -2.5930 -0.4554  0.7591
  401MOL0     H52903   8.732  10.861   6.409  1.1835 -1.7965 -0.5871
  401MOL0     H52904   8.532  10.967   6.563 -2.8770 -1.2114  0.6660
  401MOL0     H52905   8.511  10.925   6.389  1.6366 -2.5232 -1.7743
  401MOL0     H52906   8.420  10.754   6.616  1.4253 -1.1557 -0.9938
  401MOL0     H52907   8.399  10.730   6.441  2.2534 -0.2985 -0.5899
  401MOL0     H52908   8.277  10.950   6.427  2.5523  1.2732  0.7184
  401MOL0     H52909   8.301  10.969   6.594 -1.5630  0.5997 -0.4831
  401MOL0     H52910   8.144  10.733   6.462  2.4815 -0.4724  0.2542
  401MOL0     H52911   8.168  10.761   6.645 -0.0529  3.1620  2.5788
  401MOL0     H52912   7.981  10.899   6.444 -1.2389  0.0249  0.2007
  401MOL0     H52913   8.040  10.977   6.593  0.7176 -0.2515  0.1214
  401MOL0     H52914   8.988  10.662   7.001 -2.5754 -3.4321 -0.3425
  401MOL0     H52915   9.206  10.565   7.043  1.4311  1.1129 -0.8053
  401MOL0     H52916   9.399  10.254   7.030  0.2132  0.4820  0.8666
  401MOL0     H52917   9.560  10.114   7.164 -2.9933  1.2363 -0.9766
  401MOL0     H52918  10.917   8.551   7.162  0.2279 -0.4025 -0.5478
  401MOL0     H52919  11.080   8.358   7.112  2.1888 -0.4505 -0.0002
  401MOL0     H52920  11.281   7.911   7.233  0.4545  0.5000 -0.7391
  401MOL0     H52921  11.464   7.764   7.157 -0.3819 -0.1484  2.2373
  401MOL0     H52922  11.829   7.958   7.035 -1.7435 -2.4144  1.5618
  401MOL0     H52923  11.751   7.988   6.874 -0.8862  1.2284  0.0486
  401MOL0     H52924  11.824   7.739   6.813  1.5044 -1.1084  0.4990
  401MOL0     H52925  11.919   7.890   6.801 -1.4127  1.1924  1.3226
  401MOL0     H52926  12.067   7.808   6.967 -0.1242  1.0837 -0.6259
  401MOL0     H52927  12.026   7.666   6.871 -0.5313 -1.4938  0.6953
  401MOL0     H52928  11.866   7.714   7.127  2.3287  3.1845  0.8114
  401MOL0     H52929  11.895   7.561   7.039  1.0951  0.4564 -0.6390
  401MOL0     H52930  12.245   7.627   7.280 -0.1386 -2.7734 -1.5951
  401MOL0     H52931  11.650   8.116   6.990 -1.3755  0.3964 -1.5417
  401MOL0     H52932  11.498   8.261   7.117  1.3192  0.5410  2.7548
  402MOL0     O52933   3.185   9.326   2.266 -0.3237  0.4780  0.3321
  402MOL0     C52934   3.164   9.417   2.178 -0.0364  0.3288 -0.1965
  402MOL0     O52935   3.043   9.467   2.155 -0.2412  0.2839  0.7755
  402MOL0     C52936   2.928   9.441   2.231 -0.0898  0.5899 -0.1614
  402MOL0     C52937   2.932   9.434   2.375 -0.1215 -0.3322  0.5648
  402MOL0     C52938   2.825   9.413   2.446  0.8671 -0.3847 -0.4324
  402MOL0     C52939   2.702   9.384   2.393  0.2579  0.0095  0.7086
  402MOL0     O52940   2.592   9.357   2.476 -0.1991  0.2120 -0.0807
  402MOL0     C52941   2.459   9.336   2.424 -1.1049  0.0838 -0.6433
  402MOL0     C52942   2.370   9.244   2.513  0.1383 -0.4612 -0.4469
  402MOL0     C52943   2.223   9.246   2.462 -0.3655 -0.1136  0.8068
  402MOL0     C52944   2.130   9.192   2.569 -0.1709 -0.4041 -0.6202
  402MOL0     C52945   1.980   9.211   2.541  0.5005 -0.7955 -0.5084
  402MOL0     C52946   1.946   9.364   2.538 -0.0201  0.3251 -0.3632
  402MOL0     C52947   1.793   9.387   2.547  0.1156  0.3288  0.5060
  402MOL0     C52948   1.729   9.372   2.404 -0.2331 -0.1530 -0.6353
  402MOL0     N52949   1.590   9.427   2.409 -0.0696  0.3617  0.4687
  402MOL0     C52950   1.554   9.551   2.472  0.6669 -0.1835  0.0495
  402MOL0     C52951   1.416   9.543   2.470  0.3743 -0.1877  0.3383
  402MOL0     C52952   1.321   9.644   2.534  0.2251 -0.9304  0.4329
  402MOL0     C52953   1.380   9.785   2.554  0.0290 -0.0951 -0.0075
  402MOL0     C52954   1.269   9.886   2.610  0.0860 -0.6164  0.8717
  402MOL0     C52955   1.145   9.909   2.525 -0.0397  1.1431  0.6895
  402MOL0     O52956   1.170   9.963   2.390 -0.8950 -1.1044  0.3946
  402MOL0     C52957   1.067   9.996   2.317  0.4371  0.8932  0.2451
  402MOL0     C52958   1.086  10.037   2.189 -0.2509 -0.5649  0.3844
  402MOL0     C52959   0.973  10.080   2.116  0.0887 -0.2513  0.3971
  402MOL0     C52960   0.837  10.047   2.149 -0.4224 -0.2829 -0.4170
  402MOL0     C52961   0.717  10.085   2.059  0.1790 -0.2661 -1.3445
  402MOL0     O52962   0.600  10.043   2.105 -0.1622  0.2692 -0.3578
  402MOL0     C52963   0.491  10.127   2.111 -0.2065 -0.3235 -0.5138
  402MOL0     C52964   0.491  10.257   2.177 -0.6479  0.2127  0.4181
  402MOL0     C52965   0.380  10.334   2.178  0.5887 -0.0686 -0.8016
  402MOL0     C52966   0.256  10.302   2.119 -1.0428  0.8580 -0.1380
  402MOL0     O52967   0.132  10.358   2.124 -0.7161 -0.1297  1.2732
  402MOL0     C52968   0.116  10.493   2.172 -0.1040  0.5559  0.4302
  402MOL0     C52969   0.044  10.592   2.085  0.5301 -0.8283  0.6774
  402MOL0     C52970   0.019  10.734   2.145  0.0643 -0.0242  0.5476
  402MOL0     C52971  -0.084  10.732   2.245 -0.2375 -1.3109  0.6851
  402MOL0     C52972  -0.218  10.729   2.164  0.3242  0.2680 -0.4965
  402MOL0     C52973  -0.323  10.778   2.256 -0.4971  0.4779 -0.1496
  402MOL0     C52974  -0.475  10.795   2.198  0.0617 -0.8429 -0.5953
  402MOL0     C52975  -0.555  10.875   2.297  0.7927 -0.0866  0.4154
  402MOL0    Cl52976  -0.718  10.909   2.245  0.3199 -0.6839  0.2431
  402MOL0     C52977   0.255  10.174   2.058  0.2794 -0.7376  0.6685
  402MOL0     C52978   0.370  10.091   2.056 -0.0479 -0.5572  0.1384
  402MOL0     O52979   0.735  10.165   1.973 -0.4573  0.5078  0.4244
  402MOL0     C52980   0.819   9.990   2.275 -0.3590  0.4355 -0.8096
  402MOL0     C52981   0.935   9.961   2.352  0.6062  0.5839  0.3362
  402MOL0     N52982   1.377   9.427   2.403  0.6932 -0.4515 -0.5156
  402MOL0     N52983   1.480   9.359   2.369  0.0585  0.2497 -0.6702
  402MOL0     C52984   2.691   9.382   2.253 -0.3742  0.3087  0.1465
  402MOL0     C52985   2.808   9.407   2.173  0.7391 -0.0959 -0.0308
  402MOL0     C52986   3.273   9.465   2.099 -0.0020  0.4467 -0.1647
  402MOL0     C52987   3.246   9.550   1.990 -1.0676  0.2760  0.4114
  402MOL0     C52988   3.354   9.598   1.910  0.1639 -0.5110 -0.2871
  402MOL0     C52989   3.488   9.576   1.957  1.2202 -0.0922  0.4136
  402MOL0     O52990   3.581   9.640   1.881 -0.1803  0.0012 -0.7358
  402MOL0     C52991   3.682   9.718   1.957  0.8035 -0.4034 -1.0128
  402MOL0     C52992   3.610   9.826   2.030 -0.4386 -0.2081 -0.0341
  402MOL0     C52993   3.704   9.923   2.116  0.4587 -0.4439  0.5836
  402MOL0     C52994   3.638  10.053   2.148  0.0905  0.2465  0.1655
  402MOL0     C52995   3.602  10.046   2.290 -0.9298  0.3416  0.6327
  402MOL0     C52996   3.579  10.048   2.408 -0.1334 -0.8900 -0.0769
  402MOL0     C52997   3.511   9.474   2.045  0.7857 -0.3799 -0.5327
  402MOL0     C52998   3.403   9.427   2.122  1.3045 -0.5437  0.4904
  402MOL0     H52999   3.015   9.471   2.434 -1.4157  3.1648  0.4512
  402MOL0     H53000   2.842   9.413   2.554  1.8030  1.4137 -0.5332
  402MOL0     H53001   2.459   9.297   2.322 -2.1142 -0.7247 -0.3614
  402MOL0     H53002   2.413   9.435   2.434  1.3427  1.0924  2.1120
  402MOL0     H53003   2.365   9.272   2.619  0.7176 -2.2518  0.0903
  402MOL0     H53004   2.419   9.146   2.513 -0.9662 -1.0405  0.6867
  402MOL0     H53005   2.212   9.189   2.369  0.7802  0.5555  0.2398
  402MOL0     H53006   2.208   9.349   2.429 -0.5588 -0.5740 -0.6643
  402MOL0     H53007   2.153   9.088   2.596  1.6279 -0.3240 -1.6579
  402MOL0     H53008   2.146   9.248   2.661 -1.3437  0.3684 -0.8726
  402MOL0     H53009   1.927   9.152   2.618  1.0670 -0.1931  0.3591
  402MOL0     H53010   1.949   9.160   2.449 -0.0128  1.4409 -1.6377
  402MOL0     H53011   1.989   9.411   2.449  0.1790 -1.3476 -1.1949
  402MOL0     H53012   1.987   9.409   2.629  0.1015  1.0743 -0.7820
  402MOL0     H53013   1.750   9.321   2.623  0.5321  2.7130  3.0099
  402MOL0     H53014   1.780   9.489   2.586 -2.3445 -0.8837  3.2228
  402MOL0     H53015   1.734   9.269   2.368  0.9975 -0.3019 -0.1007
  402MOL0     H53016   1.783   9.434   2.332 -1.5245 -1.2049 -2.5875
  402MOL0     H53017   1.617   9.634   2.503 -0.5261  2.4245 -3.7640
  402MOL0     H53018   1.286   9.609   2.632 -3.2533  2.2059  0.5369
  402MOL0     H53019   1.231   9.641   2.471 -1.1783  1.0265  2.2354
  402MOL0     H53020   1.435   9.815   2.465 -2.0644  0.5067 -1.1442
  402MOL0     H53021   1.455   9.782   2.634  4.0575  3.0422 -3.2356
  402MOL0     H53022   1.239   9.857   2.711 -1.3737  4.8317  2.3198
  402MOL0     H53023   1.324   9.978   2.628 -0.8782 -0.4308  3.1823
  402MOL0     H53024   1.088   9.984   2.579  0.4320  0.0070  2.8529
  402MOL0     H53025   1.088   9.816   2.517  0.7121  0.6951  0.3663
  402MOL0     H53026   1.187  10.046   2.149 -0.4497  0.1184  0.0254
  402MOL0     H53027   0.979  10.131   2.020 -0.2207  0.8365  0.9410
  402MOL0     H53028   0.580  10.284   2.234 -1.8962  0.3149  2.4202
  402MOL0     H53029   0.391  10.430   2.226  3.8872  0.7623 -2.8576
  402MOL0     H53030   0.211  10.543   2.190 -0.6125  1.1865  1.4756
  402MOL0     H53031   0.059  10.481   2.265 -3.6863 -1.1944 -1.7496
  402MOL0     H53032  -0.055  10.571   2.043 -0.5348  1.1567  2.0111
  402MOL0     H53033   0.112  10.604   2.000  1.4248 -0.2469  1.4484
  402MOL0     H53034   0.004  10.812   2.070  1.9700  1.1694  1.3385
  402MOL0     H53035   0.100  10.783   2.199 -1.1168  2.1102  0.5057
  402MOL0     H53036  -0.071  10.653   2.320 -1.5748 -1.4874  0.7445
  402MOL0     H53037  -0.082  10.825   2.301 -0.8654 -1.3897  0.8435
  402MOL0     H53038  -0.241  10.630   2.125 -0.0003  0.7699 -1.6039
  402MOL0     H53039  -0.217  10.794   2.076 -3.8627 -0.0895 -0.9799
  402MOL0     H53040  -0.291  10.873   2.299 -0.3570  0.4667 -0.2293
  402MOL0     H53041  -0.326  10.714   2.345  3.3597  0.4856  0.1594
  402MOL0     H53042  -0.471  10.849   2.102 -0.6177  1.8987  0.8168
  402MOL0     H53043  -0.521  10.698   2.181 -2.2492  0.2930 -1.2428
  402MOL0     H53044  -0.507  10.972   2.312 -2.6418  1.6137  1.4833
  402MOL0     H53045  -0.549  10.825   2.394  0.8850  0.0536  0.4819
  402MOL0     H53046   0.168  10.136   2.006 -0.4781 -0.0636  1.4207
  402MOL0     H53047   0.360   9.989   2.018 -0.4044 -0.6194  0.3936
  402MOL0     H53048   0.726   9.967   2.325 -0.2947  1.6861 -0.0642
  402MOL0     H53049   0.914   9.913   2.447  1.9176 -0.9167 -0.0809
  402MOL0     H53050   2.600   9.342   2.210 -0.2206 -0.3144  0.3909
  402MOL0     H53051   2.799   9.400   2.065 -1.8231  3.7432 -0.2819
  402MOL0     H53052   3.140   9.557   1.966 -1.2968 -0.6721  1.0800
  402MOL0     H53053   3.338   9.653   1.818  1.2530  1.1403  0.4687
  402MOL0     H53054   3.750   9.761   1.882  1.4637  1.5886  0.6303
  402MOL0     H53055   3.739   9.669   2.037 -1.2026 -0.2747  0.5860
  402MOL0     H53056   3.567   9.888   1.951  1.4185  3.2351  1.4451
  402MOL0     H53057   3.529   9.797   2.097  1.2107  1.2967  2.7546
  402MOL0     H53058   3.784   9.952   2.046  0.3957  3.0791  1.7664
  402MOL0     H53059   3.746   9.877   2.206  1.1087  3.0803  2.2592
  402MOL0     H53060   3.705  10.135   2.119 -2.1202  1.9020 -0.4671
  402MOL0     H53061   3.549  10.065   2.085 -0.1398 -2.2679 -0.0960
  402MOL0     H53062   3.552  10.063   2.510  2.5086 -0.6643  0.6584
  402MOL0     H53063   3.615   9.459   2.071  0.0872  1.5258  4.5170
  402MOL0     H53064   3.429   9.368   2.209 -1.1880 -2.3199  0.1374
  403MOL0     O53065   7.256  10.736   2.623  0.0069 -0.2894  0.3219
  403MOL0     C53066   7.281  10.735   2.743  0.5399 -0.0159  0.2102
  403MOL0     O53067   7.279  10.844   2.823 -0.8408  0.6516 -0.1078
  403MOL0     C53068   7.274  10.961   2.763 -0.2236  0.0081 -0.0386
  403MOL0     C53069   7.152  11.014   2.724  1.0254  0.5227  0.0251
  403MOL0     C53070   7.140  11.137   2.656 -0.0911 -0.4275  0.9082
  403MOL0     C53071   7.256  11.219   2.642  1.1931 -0.2434  0.1880
  403MOL0     O53072   7.235  11.352   2.590  0.3369  0.5590  0.8984
  403MOL0     C53073   7.240  11.345   2.450 -0.6147  0.6952  0.4849
  403MOL0     C53074   7.242  11.484   2.393 -0.3338 -0.5825  1.0065
  403MOL0     C53075   7.114  11.566   2.442  0.2999 -0.0713  0.6350
  403MOL0     C53076   7.111  11.690   2.363 -0.5857 -0.0967 -0.2568
  403MOL0     C53077   7.032  11.808   2.429  0.2017  0.3632  0.0971
  403MOL0     C53078   6.965  11.913   2.333 -0.0714  0.7732  0.3409
  403MOL0     C53079   6.878  12.001   2.423  1.1051 -0.4718  0.4045
  403MOL0     C53080   6.820  12.128   2.365  0.4418  0.1092  0.3483
  403MOL0     N53081   6.714  12.096   2.270  0.3777 -0.4505  0.6062
  403MOL0     C53082   6.728  12.127   2.135  0.5579  0.8129  0.1076
  403MOL0     C53083   6.629  12.066   2.068  0.1780 -0.8340 -0.1285
  403MOL0     C53084   6.575  12.068   1.930  0.4929 -0.1281  0.4899
  403MOL0     C53085   6.426  12.101   1.922  0.6004 -0.0992 -0.2979
  403MOL0     C53086   6.395  12.227   2.009  0.8130 -0.4124  0.3076
  403MOL0     C53087   6.262  12.275   1.976  0.5592  0.3323 -0.2335
  403MOL0     O53088   6.236  12.405   2.030  0.5110  1.0784 -0.0458
  403MOL0     C53089   6.120  12.476   1.995 -0.0704 -0.2571  0.0399
  403MOL0     C53090   6.037  12.437   1.886 -0.0861  0.7898 -0.2494
  403MOL0     C53091   5.915  12.501   1.867 -0.3241  0.2951  0.1642
  403MOL0     C53092   5.873  12.595   1.960  0.4900  0.0933 -0.4678
  403MOL0     C53093   5.742  12.666   1.946 -0.4456  0.2807  0.6552
  403MOL0     O53094   5.661  12.604   1.862 -0.1468 -0.2100  0.2092
  403MOL0     C53095   5.529  12.646   1.835  0.0170 -0.4624  0.1832
  403MOL0     C53096   5.458  12.561   1.743 -0.3721 -0.4596  0.0725
  403MOL0     C53097   5.329  12.583   1.702  0.5607  1.1006  0.1513
  403MOL0     C53098   5.261  12.697   1.751  0.9742 -0.7192 -0.5923
  403MOL0     O53099   5.128  12.720   1.723 -0.2907  0.1235 -0.0623
  403MOL0     C53100   5.065  12.632   1.620  0.5731 -1.7305 -0.6206
  403MOL0     C53101   4.929  12.688   1.559 -1.1653  1.2920 -0.4319
  403MOL0     C53102   4.829  12.712   1.674 -0.2713  0.1722 -0.2878
  403MOL0     C53103   4.797  12.593   1.763 -0.2983 -0.3626 -0.0174
  403MOL0     C53104   4.684  12.616   1.866 -0.7509  1.3297  0.0154
  403MOL0     C53105   4.658  12.487   1.949 -0.4069 -0.0708 -0.8297
  403MOL0     C53106   4.758  12.470   2.056  0.5023  0.6905 -0.2364
  403MOL0     C53107   4.746  12.329   2.112  0.1145 -0.4044 -0.4056
  403MOL0    Cl53108   4.893  12.290   2.197  0.5202 -0.1855 -0.5448
  403MOL0     C53109   5.327  12.781   1.841  1.2493  0.1211  0.4552
  403MOL0     C53110   5.460  12.765   1.878 -0.0602 -0.8776  0.0713
  403MOL0     O53111   5.728  12.771   2.008 -0.0435 -0.1353 -0.2103
  403MOL0     C53112   5.959  12.631   2.067 -0.3867 -0.1994  0.1851
  403MOL0     C53113   6.078  12.568   2.086 -0.4918  0.1228  0.2107
  403MOL0     N53114   6.558  11.997   2.166  0.0070 -0.3569  0.0456
  403MOL0     N53115   6.604  12.023   2.286 -0.3419 -0.3258 -0.4328
  403MOL0     C53116   7.375  11.182   2.686  0.1928 -1.0557 -0.5205
  403MOL0     C53117   7.383  11.054   2.747  0.1993  0.7770  0.7236
  403MOL0     C53118   7.313  10.619   2.812 -0.2545  0.6186 -0.0092
  403MOL0     C53119   7.301  10.605   2.951 -0.6717  0.9538 -0.0537
  403MOL0     C53120   7.336  10.485   3.022 -1.0375 -0.8333  0.7879
  403MOL0     C53121   7.383  10.371   2.953  0.4562 -0.3621  0.5449
  403MOL0     O53122   7.401  10.262   3.032  0.5276  0.0968 -0.5336
  403MOL0     C53123   7.491  10.161   2.992 -0.0747  0.2523  0.7573
  403MOL0     C53124   7.504  10.063   3.105  0.1868 -0.3360  0.0685
  403MOL0     C53125   7.598   9.962   3.073 -0.1051  0.8473 -0.4633
  403MOL0     C53126   7.609   9.850   3.180  0.3196 -0.6638 -0.4817
  403MOL0     C53127   7.696   9.743   3.138 -0.3114  0.5071 -0.1314
  403MOL0     C53128   7.794   9.674   3.100 -0.2335 -0.9148  0.2691
  403MOL0     C53129   7.403  10.390   2.819 -0.0578  0.2020  0.3202
  403MOL0     C53130   7.377  10.507   2.751  0.3750  0.2149  0.1058
  403MOL0     H53131   7.063  10.952   2.729 -0.6923  2.7348 -1.4516
  403MOL0     H53132   7.042  11.182   2.640  0.6016  0.7002 -0.3300
  403MOL0     H53133   7.150  11.293   2.417  0.4504 -2.0332  1.6155
  403MOL0     H53134   7.326  11.288   2.414 -0.4870  1.3667 -0.3205
  403MOL0     H53135   7.238  11.481   2.284  0.9792 -1.3723  0.9659
  403MOL0     H53136   7.339  11.528   2.417  0.4622 -1.3738 -0.5982
  403MOL0     H53137   7.124  11.595   2.547  3.6004  3.4618 -0.4311
  403MOL0     H53138   7.012  11.527   2.431 -0.3432  2.2579 -5.5067
  403MOL0     H53139   7.211  11.732   2.348  0.1809 -2.0967 -1.1236
  403MOL0     H53140   7.061  11.676   2.267  0.5478 -0.2723 -0.8403
  403MOL0     H53141   7.101  11.864   2.494  2.7718 -2.3134 -0.0936
  403MOL0     H53142   6.955  11.755   2.486  0.4960  0.1818  0.3310
  403MOL0     H53143   6.910  11.865   2.252  1.5063 -0.3369 -0.1129
  403MOL0     H53144   7.045  11.971   2.286 -1.8908  0.0160 -4.1929
  403MOL0     H53145   6.800  11.941   2.470  0.9642  1.1191  2.3099
  403MOL0     H53146   6.938  12.031   2.510  0.6319  1.9541 -0.0318
  403MOL0     H53147   6.900  12.188   2.321  1.1055 -1.7204 -1.1155
  403MOL0     H53148   6.779  12.186   2.447  1.0922  0.6526  0.2969
  403MOL0     H53149   6.801  12.186   2.081 -1.1885 -1.1516 -5.0055
  403MOL0     H53150   6.592  11.972   1.882  0.3113  0.0535  0.0560
  403MOL0     H53151   6.624  12.147   1.873 -2.2754  3.4520  2.5719
  403MOL0     H53152   6.364  12.020   1.962 -0.5255  1.6556  1.7622
  403MOL0     H53153   6.399  12.118   1.817 -1.4557  0.8277  0.3231
  403MOL0     H53154   6.403  12.211   2.117  1.8504  0.0903  0.3131
  403MOL0     H53155   6.464  12.308   1.983 -1.5504  2.0438  1.1793
  403MOL0     H53156   6.182  12.212   2.016 -1.1773  0.9285 -2.5345
  403MOL0     H53157   6.252  12.278   1.867 -1.0568 -1.6133 -0.1963
  403MOL0     H53158   6.077  12.367   1.814 -0.9914 -0.7828  0.7211
  403MOL0     H53159   5.849  12.483   1.783 -3.4893  0.2731  2.5012
  403MOL0     H53160   5.508  12.472   1.706 -1.5684 -0.2393 -2.2593
  403MOL0     H53161   5.296  12.500   1.641 -0.3805 -0.0015  2.0873
  403MOL0     H53162   5.049  12.530   1.658 -0.3987 -0.6136  2.2767
  403MOL0     H53163   5.136  12.627   1.537  0.5160  3.1742 -1.2504
  403MOL0     H53164   4.881  12.620   1.488 -2.8571  0.9664  0.9546
  403MOL0     H53165   4.947  12.785   1.514 -0.4695  1.0678 -0.6427
  403MOL0     H53166   4.738  12.755   1.632 -0.7522 -0.0235  0.5375
  403MOL0     H53167   4.878  12.788   1.736 -0.5905  0.0358  0.1389
  403MOL0     H53168   4.770  12.513   1.694  1.2703 -0.4465 -0.5673
  403MOL0     H53169   4.890  12.559   1.809  1.6154  1.9471 -1.8980
  403MOL0     H53170   4.599  12.645   1.804 -0.5777  0.6571 -0.5592
  403MOL0     H53171   4.715  12.699   1.930 -0.5471  0.8105  0.6064
  403MOL0     H53172   4.660  12.408   1.873  0.4829  0.8579 -1.8168
  403MOL0     H53173   4.563  12.490   2.003  0.4481  2.3562  0.6812
  403MOL0     H53174   4.858  12.480   2.013 -0.0043 -2.8016 -2.5921
  403MOL0     H53175   4.761  12.539   2.141  0.4362 -0.5431  0.7853
  403MOL0     H53176   4.719  12.263   2.029 -1.5290  0.9750 -1.0217
  403MOL0     H53177   4.660  12.318   2.178 -1.6508 -0.3854 -2.6025
  403MOL0     H53178   5.266  12.864   1.874  2.2408  0.5793  1.1932
  403MOL0     H53179   5.498  12.849   1.935 -0.4636  3.0841 -4.7989
  403MOL0     H53180   5.944  12.709   2.141 -1.4947  0.8638 -1.0875
  403MOL0     H53181   6.137  12.594   2.173  0.5606  2.1304 -1.0177
  403MOL0     H53182   7.469  11.236   2.672 -0.5560  1.1564  2.0593
  403MOL0     H53183   7.482  11.019   2.773  0.8991  2.5200  0.5664
  403MOL0     H53184   7.249  10.680   3.011 -3.0027 -0.5881 -0.0257
  403MOL0     H53185   7.318  10.478   3.129 -0.2664 -1.0806  0.9020
  403MOL0     H53186   7.583  10.214   2.965 -1.2345  2.1486  0.3331
  403MOL0     H53187   7.458  10.109   2.902  0.2651 -1.6172  1.6763
  403MOL0     H53188   7.542  10.117   3.192 -2.2202  1.1004  0.3136
  403MOL0     H53189   7.405  10.028   3.136  0.1443  0.0632  0.3864
  403MOL0     H53190   7.692  10.013   3.052  0.0016  1.5329  1.4847
  403MOL0     H53191   7.571   9.898   2.988  1.3907  0.3252 -0.5674
  403MOL0     H53192   7.651   9.899   3.269  1.6353 -2.5021 -0.0246
  403MOL0     H53193   7.510   9.817   3.212  0.6250  0.0532  1.3722
  403MOL0     H53194   7.877   9.609   3.081  0.8637  0.1271  1.2719
  403MOL0     H53195   7.440  10.304   2.764 -0.7638 -0.1132  0.3199
  403MOL0     H53196   7.392  10.499   2.643 -0.3534  0.2141 -0.0027
  404MOL0     O53197   5.336   0.435   0.850 -0.1403  0.1138  0.6051
  404MOL0     C53198   5.284   0.346   0.917 -0.5609  1.2150 -0.4208
  404MOL0     O53199   5.154   0.338   0.947 -0.3060  0.0870 -0.6425
  404MOL0     C53200   5.074   0.440   0.896  0.4384 -0.3960 -1.0897
  404MOL0     C53201   5.016   0.539   0.972 -0.3042  0.9583 -0.4866
  404MOL0     C53202   4.915   0.622   0.922 -0.3070 -0.4124  0.0600
  404MOL0     C53203   4.865   0.607   0.800 -0.5386  0.1170  0.1913
  404MOL0     O53204   4.768   0.674   0.735  0.1336 -0.1311 -0.3788
  404MOL0     C53205   4.655   0.710   0.818 -0.5132 -0.1345  1.2582
  404MOL0     C53206   4.544   0.601   0.793  0.4379  0.6391 -0.9009
  404MOL0     C53207   4.429   0.630   0.893 -0.3096 -0.4035  0.6043
  404MOL0     C53208   4.340   0.736   0.839 -0.1555 -0.2224 -0.6790
  404MOL0     C53209   4.236   0.767   0.953 -0.5894 -0.1951 -0.4445
  404MOL0     C53210   4.129   0.659   0.977  0.4782  0.1614 -0.9490
  404MOL0     C53211   4.073   0.654   1.118 -0.9685  0.4905  1.3751
  404MOL0     C53212   3.955   0.556   1.126 -0.8050 -0.0618 -0.5230
  404MOL0     N53213   3.982   0.417   1.145 -0.6287  0.5658  0.8310
  404MOL0     C53214   3.978   0.320   1.043  0.1366 -0.1521 -0.1453
  404MOL0     C53215   3.998   0.199   1.111  0.2828 -0.0797 -1.4094
  404MOL0     C53216   3.994   0.067   1.052 -0.4408 -0.8697  0.5506
  404MOL0     C53217   3.891  -0.021   1.127 -0.9818  0.0034 -0.1329
  404MOL0     C53218   3.871  -0.162   1.059  0.0355 -0.2043 -0.0576
  404MOL0     C53219   3.767  -0.242   1.145  0.2609 -0.5101  0.8510
  404MOL0     O53220   3.796  -0.377   1.175 -0.9299  1.1065 -0.1122
  404MOL0     C53221   3.902  -0.397   1.258  0.2290  0.1360  0.7425
  404MOL0     C53222   4.025  -0.433   1.202 -0.2311  0.2652  0.0290
  404MOL0     C53223   4.145  -0.441   1.270 -0.7214 -0.8611 -0.5230
  404MOL0     C53224   4.146  -0.404   1.410 -0.8549  0.2012  0.4815
  404MOL0     C53225   4.273  -0.406   1.495  0.7340  0.0866  0.3823
  404MOL0     O53226   4.385  -0.457   1.437  1.0055  0.3238 -0.0068
  404MOL0     C53227   4.509  -0.457   1.504 -0.3677 -0.1100  0.6202
  404MOL0     C53228   4.550  -0.369   1.612  0.1703  0.1173  0.4925
  404MOL0     C53229   4.680  -0.367   1.661 -0.2444  0.1499 -0.1939
  404MOL0     C53230   4.773  -0.459   1.615 -0.1028 -0.3110  0.8581
  404MOL0     O53231   4.905  -0.461   1.663 -0.0157  0.4595  0.4251
  404MOL0     C53232   4.940  -0.423   1.797 -0.5740  0.8723 -0.7131
  404MOL0     C53233   5.090  -0.424   1.794 -0.0879 -0.0731 -0.5861
  404MOL0     C53234   5.161  -0.377   1.919  0.5247  0.0832  0.0074
  404MOL0     C53235   5.171  -0.482   2.030 -0.0048  0.4625  1.5025
  404MOL0     C53236   5.308  -0.496   2.091 -0.6884 -0.1842  0.3580
  404MOL0     C53237   5.350  -0.370   2.175 -0.0210  0.7317  0.4633
  404MOL0     C53238   5.490  -0.390   2.228  0.1250  0.1808  0.8970
  404MOL0     C53239   5.510  -0.382   2.376  0.3326 -0.0238  0.0033
  404MOL0    Cl53240   5.667  -0.465   2.412 -0.1686 -0.3821 -0.3777
  404MOL0     C53241   4.730  -0.545   1.514 -0.3857 -0.8274  0.8555
  404MOL0     C53242   4.602  -0.548   1.461  0.2903  0.0997  1.0790
  404MOL0     O53243   4.259  -0.360   1.609  0.2609  0.1360  0.4043
  404MOL0     C53244   4.025  -0.372   1.474  0.4773  0.0080 -0.1046
  404MOL0     C53245   3.909  -0.363   1.390  0.6328 -0.2162 -0.2872
  404MOL0     N53246   4.006   0.230   1.242  0.8036 -0.2061  0.3448
  404MOL0     N53247   3.991   0.356   1.266  1.1223  0.5086  0.6632
  404MOL0     C53248   4.906   0.491   0.732 -0.8348 -0.1513  0.4551
  404MOL0     C53249   5.011   0.413   0.774 -1.5297 -0.6819  0.5257
  404MOL0     C53250   5.357   0.223   0.973 -0.0669  0.0604  0.5336
  404MOL0     C53251   5.281   0.105   1.014  0.3265  0.5243  1.0650
  404MOL0     C53252   5.346  -0.004   1.057  0.8882  0.8244 -0.8205
  404MOL0     C53253   5.478  -0.002   1.079 -0.4501 -0.0193  0.0755
  404MOL0     O53254   5.526  -0.115   1.149  0.2734 -0.0589 -1.2204
  404MOL0     C53255   5.662  -0.121   1.174 -0.0910  0.5371 -0.2496
  404MOL0     C53256   5.718  -0.033   1.293 -0.8809 -0.3977 -0.0867
  404MOL0     C53257   5.869  -0.017   1.287  0.1113 -0.6995 -0.3080
  404MOL0     C53258   5.954  -0.136   1.334  0.5133 -0.6033  0.1166
  404MOL0     C53259   5.924  -0.165   1.478  0.2345 -0.1139  0.3508
  404MOL0     C53260   5.895  -0.189   1.590  0.2762  0.4445 -0.1388
  404MOL0     C53261   5.554   0.104   1.034 -0.4324 -0.4407  0.1027
  404MOL0     C53262   5.495   0.222   0.984  0.1564  0.3683  0.6502
  404MOL0     H53263   5.046   0.550   1.076 -1.6887  0.2211  0.0214
  404MOL0     H53264   4.879   0.709   0.975 -2.1830 -1.9190  1.3844
  404MOL0     H53265   4.622   0.810   0.788  0.1832  0.1625  1.4575
  404MOL0     H53266   4.683   0.718   0.923  6.1691  1.8030 -0.1964
  404MOL0     H53267   4.581   0.500   0.811 -1.4192  0.1560  0.5804
  404MOL0     H53268   4.508   0.598   0.690  0.4878  0.1258 -0.9070
  404MOL0     H53269   4.479   0.666   0.984 -2.0047  2.6077  0.4724
  404MOL0     H53270   4.378   0.534   0.907  0.5821 -0.9266  0.3286
  404MOL0     H53271   4.393   0.830   0.822 -2.8379  1.2965 -1.1580
  404MOL0     H53272   4.290   0.690   0.753 -0.7380  0.3608 -0.6633
  404MOL0     H53273   4.184   0.859   0.927  0.2246  0.4027 -0.0216
  404MOL0     H53274   4.300   0.782   1.041  0.4070  0.7482 -1.3144
  404MOL0     H53275   4.168   0.558   0.967  1.6036  0.3250  1.1509
  404MOL0     H53276   4.048   0.676   0.905  0.7455  0.9053 -1.0873
  404MOL0     H53277   4.151   0.634   1.192 -0.5611 -0.0268  0.8028
  404MOL0     H53278   4.035   0.756   1.132  0.3901  0.7871  3.3391
  404MOL0     H53279   3.889   0.577   1.041 -0.2272  0.6401 -0.8129
  404MOL0     H53280   3.897   0.594   1.211 -3.0813  0.6401 -2.2815
  404MOL0     H53281   3.982   0.337   0.936 -2.2075 -1.7627 -0.5495
  404MOL0     H53282   4.094   0.024   1.055  0.0305  0.2322  1.9038
  404MOL0     H53283   3.972   0.078   0.946 -0.0557  0.4283  0.5856
  404MOL0     H53284   3.794   0.028   1.127 -1.2024 -0.3773  1.6586
  404MOL0     H53285   3.918  -0.028   1.233  0.8896 -0.9649 -0.6288
  404MOL0     H53286   3.847  -0.158   0.952 -0.1242 -2.4875 -0.1646
  404MOL0     H53287   3.961  -0.224   1.055 -0.8230 -1.4682 -0.4267
  404MOL0     H53288   3.671  -0.240   1.092  1.0307  0.3787 -0.5919
  404MOL0     H53289   3.754  -0.179   1.234 -2.1284  4.5219 -2.5462
  404MOL0     H53290   4.044  -0.449   1.096  4.6543 -0.0735  0.7110
  404MOL0     H53291   4.241  -0.479   1.235 -0.8068  1.0499 -3.1447
  404MOL0     H53292   4.491  -0.286   1.649 -1.9935 -1.8508  1.7153
  404MOL0     H53293   4.698  -0.297   1.742  0.2327  1.4186 -1.3715
  404MOL0     H53294   4.915  -0.505   1.865  0.0134  1.4059  0.1772
  404MOL0     H53295   4.902  -0.325   1.826  1.6580  1.0168  2.2215
  404MOL0     H53296   5.132  -0.348   1.728 -4.1547  3.7634  0.6822
  404MOL0     H53297   5.120  -0.524   1.761 -1.2866 -0.6352 -0.0437
  404MOL0     H53298   5.103  -0.292   1.954 -1.9817 -1.8821  0.9998
  404MOL0     H53299   5.260  -0.340   1.895  0.8914 -0.1955  1.0217
  404MOL0     H53300   5.098  -0.460   2.109 -2.0064  0.0764 -0.1412
  404MOL0     H53301   5.157  -0.581   1.986  1.0157  1.7140 -1.8915
  404MOL0     H53302   5.382  -0.513   2.013  0.6075 -2.5063  1.9865
  404MOL0     H53303   5.308  -0.591   2.144  0.4849 -1.8354 -2.3985
  404MOL0     H53304   5.280  -0.358   2.258 -1.8588  0.5073 -0.9946
  404MOL0     H53305   5.363  -0.283   2.110 -0.6163  0.2551 -0.3090
  404MOL0     H53306   5.524  -0.482   2.180  1.7140  2.9598 -3.9420
  404MOL0     H53307   5.555  -0.322   2.173 -0.6903 -0.2392 -0.6405
  404MOL0     H53308   5.423  -0.430   2.423  0.2536  1.0435  0.9913
  404MOL0     H53309   5.512  -0.283   2.421 -2.1043 -1.9627  5.3427
  404MOL0     H53310   4.793  -0.616   1.461  1.2605  1.1651  0.0401
  404MOL0     H53311   4.571  -0.619   1.385  0.7082  0.8425  0.1997
  404MOL0     H53312   4.019  -0.345   1.579  3.2556 -1.6571  0.6048
  404MOL0     H53313   3.815  -0.331   1.435  1.0307 -1.3767  1.4735
  404MOL0     H53314   4.854   0.467   0.639 -0.7703 -0.6879  0.5551
  404MOL0     H53315   5.049   0.321   0.731 -1.6090 -0.8622  0.8402
  404MOL0     H53316   5.174   0.110   1.000  0.3392  1.7378  1.2567
  404MOL0     H53317   5.286  -0.093   1.074 -2.3195  2.3107 -3.1380
  404MOL0     H53318   5.716  -0.110   1.080  0.9225  1.4880  0.4112
  404MOL0     H53319   5.692  -0.222   1.201  0.8250  1.3558  2.1121
  404MOL0     H53320   5.673   0.067   1.288  2.7702  1.3627 -0.8208
  404MOL0     H53321   5.689  -0.074   1.390 -2.5069 -0.2370 -0.4762
  404MOL0     H53322   5.899   0.070   1.347 -1.4679  2.0983 -3.2149
  404MOL0     H53323   5.891   0.014   1.184 -1.2680  0.0707 -0.4030
  404MOL0     H53324   5.930  -0.208   1.256 -0.4976  0.7175 -0.8306
  404MOL0     H53325   6.059  -0.105   1.322  0.1107  0.9982  0.4598
  404MOL0     H53326   5.883  -0.206   1.696  1.2658 -0.4181 -0.1373
  404MOL0     H53327   5.662   0.107   1.048  0.0158  3.7521 -2.3234
  404MOL0     H53328   5.552   0.297   0.930  1.5683 -1.5861 -0.7229
  405MOL0     O53329  11.231  10.809   0.049  1.0766  0.6036 -0.3263
  405MOL0     C53330  11.246  10.881  -0.051  0.6430  0.6484  0.2101
  405MOL0     O53331  11.179  10.866  -0.172 -0.2736 -0.0919 -0.5252
  405MOL0     C53332  11.121  10.749  -0.181  0.1785  0.6068 -0.1763
  405MOL0     C53333  11.194  10.643  -0.232 -0.1308  0.1310  1.2478
  405MOL0     C53334  11.126  10.513  -0.239 -0.2852  0.0261 -0.2824
  405MOL0     C53335  10.995  10.497  -0.180  0.2560  0.0036  0.2251
  405MOL0     O53336  10.917  10.380  -0.163  0.3271  0.2102 -0.4174
  405MOL0     C53337  10.986  10.261  -0.212 -0.0152  0.1627  0.3146
  405MOL0     C53338  10.891  10.141  -0.192 -0.3762  0.3666 -1.0642
  405MOL0     C53339  10.891  10.080  -0.044  0.4873 -0.8079  0.2398
  405MOL0     C53340  10.817   9.946  -0.040  0.4087  1.0066 -0.1755
  405MOL0     C53341  10.668   9.934  -0.069  0.6052 -0.5599 -0.4437
  405MOL0     C53342  10.582  10.039  -0.004  0.0590 -0.1846  0.4543
  405MOL0     C53343  10.431  10.021  -0.026  0.9909 -0.2260  0.4309
  405MOL0     C53344  10.387  10.029  -0.175  0.4334 -0.3295 -0.4600
  405MOL0     N53345  10.245   9.992  -0.192  0.0549  0.0264  0.4004
  405MOL0     C53346  10.138  10.078  -0.173 -0.1218  0.9503 -0.0358
  405MOL0     C53347  10.032  10.007  -0.232  0.4458  0.5645  0.9357
  405MOL0     C53348   9.892  10.072  -0.234  0.2357  1.0998 -0.2819
  405MOL0     C53349   9.883  10.192  -0.335 -0.2160  0.9609  0.1011
  405MOL0     C53350   9.855  10.153  -0.479  0.2480  0.1897  0.6914
  405MOL0     C53351   9.707  10.109  -0.501 -0.0008  0.2090  0.6034
  405MOL0     O53352   9.689  10.070  -0.638 -0.3920  0.4001  0.0477
  405MOL0     C53353   9.578  10.016  -0.692 -0.3139 -0.4073 -0.0459
  405MOL0     C53354   9.585   9.963  -0.821 -0.1216 -0.1874  0.3607
  405MOL0     C53355   9.460   9.932  -0.889 -0.8994  0.4958 -0.4402
  405MOL0     C53356   9.340   9.929  -0.823  0.0748 -0.4855 -0.9062
  405MOL0     C53357   9.213   9.874  -0.881  0.3379 -0.0842  0.3418
  405MOL0     O53358   9.112   9.843  -0.796  0.7178 -0.2863  0.4079
  405MOL0     C53359   9.002   9.780  -0.856 -0.3966 -0.2323 -0.4525
  405MOL0     C53360   8.930   9.822  -0.967  0.2335 -0.4692 -0.3362
  405MOL0     C53361   8.818   9.757  -1.001  0.1053  0.4645  0.8902
  405MOL0     C53362   8.783   9.642  -0.931  0.4868  0.8683 -0.9458
  405MOL0     O53363   8.661   9.592  -0.971  0.3393 -0.7477 -0.1551
  405MOL0     C53364   8.585   9.531  -0.867 -0.0162 -0.1768  0.1648
  405MOL0     C53365   8.435   9.510  -0.916  0.6220 -0.0078  0.0434
  405MOL0     C53366   8.380   9.639  -0.977  0.3118  0.3130  0.3572
  405MOL0     C53367   8.236   9.619  -1.015 -0.2707 -0.7438  0.4329
  405MOL0     C53368   8.193   9.747  -1.104  0.1098  0.0319 -0.7850
  405MOL0     C53369   8.042   9.801  -1.087  0.3899  0.6308  0.4110
  405MOL0     C53370   8.003   9.930  -1.147 -0.5864  0.3056  0.0452
  405MOL0     C53371   7.898  10.005  -1.058 -0.1486  0.6119  0.0089
  405MOL0    Cl53372   7.716   9.961  -1.074 -0.1119  0.0830 -0.0683
  405MOL0     C53373   8.863   9.593  -0.829  0.0279  0.1460 -0.1890
  405MOL0     C53374   8.972   9.672  -0.785  0.5202 -0.4046 -0.0771
  405MOL0     O53375   9.220   9.849  -1.001  0.6192 -0.2522  0.4869
  405MOL0     C53376   9.336   9.982  -0.690 -0.0608  0.2981 -0.2712
  405MOL0     C53377   9.453  10.019  -0.627  0.0777 -0.0899  0.8455
  405MOL0     N53378  10.077   9.886  -0.285  0.1081  0.5017  0.3996
  405MOL0     N53379  10.203   9.876  -0.245  0.2640  0.5448 -0.1198
  405MOL0     C53380  10.927  10.615  -0.138 -0.1689 -0.3512 -0.0920
  405MOL0     C53381  10.991  10.742  -0.148  0.1527 -0.2794 -0.3340
  405MOL0     C53382  11.344  10.990  -0.042  0.8243 -0.0174 -0.0424
  405MOL0     C53383  11.331  11.094  -0.127  0.3418  0.6186  0.9698
  405MOL0     C53384  11.436  11.183  -0.137 -0.6921  0.2354  0.7250
  405MOL0     C53385  11.552  11.181  -0.063 -0.5951 -0.3181  0.3915
  405MOL0     O53386  11.663  11.259  -0.083 -0.0618  0.0189 -0.1793
  405MOL0     C53387  11.655  11.375  -0.165  0.5251  0.1323 -0.1706
  405MOL0     C53388  11.785  11.461  -0.150 -0.9301 -0.2220  0.7687
  405MOL0     C53389  11.798  11.573  -0.258  0.9170  0.2395  0.2952
  405MOL0     C53390  11.939  11.620  -0.292  0.9283  0.2863 -0.5040
  405MOL0     C53391  11.938  11.741  -0.374  0.1936  1.1387  1.0175
  405MOL0     C53392  11.935  11.819  -0.470 -0.9907 -0.5366 -0.0327
  405MOL0     C53393  11.570  11.071   0.024  0.5391  1.3865  0.2784
  405MOL0     C53394  11.467  10.976   0.031 -0.1863 -0.5787  0.2839
  405MOL0     H53395  11.294  10.649  -0.273 -0.6850 -0.1428 -0.2510
  405MOL0     H53396  11.185  10.427  -0.270 -1.6316 -1.6918  1.6370
  405MOL0     H53397  11.077  10.239  -0.155  0.1968  0.8350  0.2555
  405MOL0     H53398  11.023  10.279  -0.313  1.0708  1.3388  0.8771
  405MOL0     H53399  10.929  10.060  -0.255  1.5423  0.4836 -0.1576
  405MOL0     H53400  10.792  10.183  -0.212 -0.9678  0.6014  1.8640
  405MOL0     H53401  10.830  10.151   0.012  0.0288 -0.8953 -0.1456
  405MOL0     H53402  10.994  10.080  -0.006 -0.2076 -1.4741  2.2826
  405MOL0     H53403  10.869   9.870  -0.099 -2.4621 -1.2394 -0.0341
  405MOL0     H53404  10.820   9.918   0.066  0.7835  1.4022 -0.0768
  405MOL0     H53405  10.634   9.833  -0.046  1.2979 -1.5265 -3.3399
  405MOL0     H53406  10.653   9.948  -0.176 -0.5356  1.5531 -0.0800
  405MOL0     H53407  10.612  10.137  -0.043  1.9546  0.1172  2.4582
  405MOL0     H53408  10.597  10.046   0.104 -0.8940 -1.9044  0.7191
  405MOL0     H53409  10.396   9.922   0.004  0.9338 -1.2624 -2.6843
  405MOL0     H53410  10.373  10.098   0.025 -0.9634 -0.9494 -0.5930
  405MOL0     H53411  10.458   9.979  -0.242 -0.4936 -3.1789  0.5326
  405MOL0     H53412  10.390  10.133  -0.209 -0.7313  0.2525  1.0806
  405MOL0     H53413  10.142  10.181  -0.138 -0.7060  1.4704 -1.4353
  405MOL0     H53414   9.871  10.108  -0.133 -3.2419  0.1908 -0.5355
  405MOL0     H53415   9.818   9.993  -0.255  1.7397 -1.9144  4.2428
  405MOL0     H53416   9.970  10.257  -0.327  0.4337  0.3245 -1.4041
  405MOL0     H53417   9.797  10.250  -0.300 -0.2544  1.0756 -0.1782
  405MOL0     H53418   9.867  10.246  -0.537  0.1460 -1.3627 -1.9702
  405MOL0     H53419   9.932  10.084  -0.516 -0.5851 -0.0616 -0.6553
  405MOL0     H53420   9.641  10.195  -0.486 -0.4255  0.5241 -2.4907
  405MOL0     H53421   9.680  10.027  -0.434  0.7944  0.0425  0.7286
  405MOL0     H53422   9.668   9.943  -0.889 -0.2392 -0.9737  0.4376
  405MOL0     H53423   9.457   9.906  -0.994  0.1024 -1.4864 -0.0360
  405MOL0     H53424   8.950   9.916  -1.017  0.3301 -0.6980 -0.7376
  405MOL0     H53425   8.752   9.791  -1.080 -0.9895  2.3726  2.5272
  405MOL0     H53426   8.595   9.586  -0.772 -0.1029 -0.3087  0.2495
  405MOL0     H53427   8.622   9.431  -0.846  1.8502  0.5474  0.5071
  405MOL0     H53428   8.365   9.460  -0.847  2.1453 -1.7374  0.4210
  405MOL0     H53429   8.430   9.437  -0.997 -3.2961  0.4554 -0.3439
  405MOL0     H53430   8.449   9.655  -1.060  0.4395 -1.9835 -0.0536
  405MOL0     H53431   8.394   9.725  -0.910 -3.7432  0.8320  0.7642
  405MOL0     H53432   8.222   9.529  -1.075 -1.8362  0.6434 -1.3909
  405MOL0     H53433   8.175   9.626  -0.925 -0.5917  2.3221  0.0947
  405MOL0     H53434   8.215   9.727  -1.209 -2.6955 -2.2829 -1.0838
  405MOL0     H53435   8.253   9.833  -1.072  0.7702 -0.8807  0.5224
  405MOL0     H53436   8.027   9.800  -0.979  3.3374 -2.4276  0.9560
  405MOL0     H53437   7.975   9.721  -1.118  1.7280 -2.2560  4.1191
  405MOL0     H53438   8.091   9.995  -1.145 -0.8439  0.6933 -0.7905
  405MOL0     H53439   7.964   9.910  -1.248 -2.2505 -2.2709  1.0973
  405MOL0     H53440   7.904  10.113  -1.072 -2.3847  0.5253 -2.3041
  405MOL0     H53441   7.932   9.988  -0.955  1.7573  2.1612 -0.2975
  405MOL0     H53442   8.826   9.504  -0.778  1.3170 -1.4698 -1.9192
  405MOL0     H53443   9.026   9.644  -0.696 -1.9780  0.5263  1.8558
  405MOL0     H53444   9.240   9.972  -0.639 -0.5471 -2.6776 -1.5492
  405MOL0     H53445   9.432  10.049  -0.524 -2.1446  1.6098 -0.0087
  405MOL0     H53446  10.826  10.601  -0.102 -0.0328  0.2651  0.5724
  405MOL0     H53447  10.942  10.833  -0.116 -0.3887 -0.8764  0.5818
  405MOL0     H53448  11.247  11.099  -0.195  1.5695 -0.3540 -0.6855
  405MOL0     H53449  11.418  11.261  -0.211 -3.2307 -1.8465 -1.0308
  405MOL0     H53450  11.572  11.444  -0.147  0.2572 -0.5075  1.1689
  405MOL0     H53451  11.638  11.347  -0.269 -0.6042 -1.4853  0.4155
  405MOL0     H53452  11.793  11.509  -0.052  2.3793  0.4346  0.2918
  405MOL0     H53453  11.870  11.392  -0.150 -1.2229 -0.5930  0.3562
  405MOL0     H53454  11.748  11.661  -0.217  0.4560  1.3084 -2.3407
  405MOL0     H53455  11.756  11.542  -0.355  0.8296  1.7204 -0.1773
  405MOL0     H53456  11.983  11.649  -0.196 -2.9867  4.4776  0.3445
  405MOL0     H53457  11.990  11.538  -0.344  0.0267 -1.5369  1.3167
  405MOL0     H53458  11.938  11.889  -0.551 -2.3723 -0.7126 -0.2736
  405MOL0     H53459  11.667  11.055   0.068  0.2049 -0.8943  0.2672
  405MOL0     H53460  11.494  10.886   0.085 -2.1951  0.2399  2.9015
  406MOL0     O53461   6.279  10.914   2.516 -0.0859 -0.5726  0.0392
  406MOL0     C53462   6.209  10.972   2.436  1.1627 -0.6527  0.0573
  406MOL0     O53463   6.068  10.953   2.415  0.4444  0.3003  0.2590
  406MOL0     C53464   6.017  10.853   2.497  0.0346  0.1067 -0.9400
  406MOL0     C53465   6.037  10.712   2.489  0.0176  0.1084  0.7437
  406MOL0     C53466   6.004  10.620   2.582  0.3269 -0.0473  0.6627
  406MOL0     C53467   5.925  10.654   2.688  0.5807 -0.0604 -0.9544
  406MOL0     O53468   5.872  10.568   2.772  0.0517 -0.0796  0.1920
  406MOL0     C53469   5.885  10.580   2.914 -0.4996 -0.3852  0.1568
  406MOL0     C53470   5.767  10.524   2.985  0.5170  0.0249 -0.5717
  406MOL0     C53471   5.634  10.568   2.923  0.3009  0.7565 -0.0518
  406MOL0     C53472   5.516  10.523   3.013  0.1016  0.2226 -1.1303
  406MOL0     C53473   5.391  10.587   2.966 -0.6136 -0.7011 -0.6626
  406MOL0     C53474   5.264  10.511   3.019 -0.0913 -0.0782  0.8255
  406MOL0     C53475   5.141  10.583   2.979  0.0607  0.1664  0.4155
  406MOL0     C53476   5.128  10.716   3.046 -0.0666 -0.3738 -0.6936
  406MOL0     N53477   5.020  10.797   3.008 -0.3400 -0.3180  0.3081
  406MOL0     C53478   4.897  10.748   2.966 -0.4822 -0.3081 -0.5145
  406MOL0     C53479   4.825  10.854   2.939 -0.2881  0.2708 -1.0187
  406MOL0     C53480   4.676  10.856   2.897 -0.4254 -0.2902 -0.1866
  406MOL0     C53481   4.626  10.995   2.924 -0.0837  0.5001 -0.0613
  406MOL0     C53482   4.471  11.015   2.930  0.1879  1.1076  0.4470
  406MOL0     C53483   4.408  11.046   2.797 -0.7197 -0.3839  1.1715
  406MOL0     O53484   4.458  10.963   2.690  0.5314  0.1336 -0.3627
  406MOL0     C53485   4.412  11.004   2.577 -0.4789  0.3056  0.2358
  406MOL0     C53486   4.489  11.083   2.489  0.9594  0.7819 -0.4650
  406MOL0     C53487   4.435  11.140   2.376  0.4149  0.3948  0.3402
  406MOL0     C53488   4.299  11.113   2.332 -0.4259  0.0248 -0.3329
  406MOL0     C53489   4.233  11.173   2.220 -1.5175 -0.1535 -0.1391
  406MOL0     O53490   4.107  11.133   2.186 -0.1558  0.1635 -0.0092
  406MOL0     C53491   4.059  11.165   2.056 -0.1248  0.1346 -0.6914
  406MOL0     C53492   4.137  11.161   1.941 -0.2394  0.0447  0.0809
  406MOL0     C53493   4.079  11.194   1.817  1.0213  0.1511  0.0639
  406MOL0     C53494   3.946  11.234   1.804 -1.0079 -1.5562  0.6060
  406MOL0     O53495   3.889  11.260   1.679  0.4961 -0.3517  0.5923
  406MOL0     C53496   3.958  11.331   1.573  0.0758 -0.0080  0.3140
  406MOL0     C53497   4.019  11.467   1.610 -0.3797  0.4771 -0.0182
  406MOL0     C53498   3.926  11.570   1.668  0.4096 -0.1472  1.2698
  406MOL0     C53499   3.802  11.579   1.586 -0.0267 -0.3652 -1.1035
  406MOL0     C53500   3.708  11.675   1.655  0.8569  0.5024  0.1427
  406MOL0     C53501   3.751  11.820   1.641 -0.4096  0.3280  0.2546
  406MOL0     C53502   3.714  11.886   1.515  0.2933 -0.1540  0.5765
  406MOL0     C53503   3.719  12.039   1.530 -0.1903  0.4454  0.1238
  406MOL0    Cl53504   3.725  12.131   1.367 -0.4153  0.0638 -0.2934
  406MOL0     C53505   3.865  11.236   1.923  0.2135 -0.2484  0.9044
  406MOL0     C53506   3.920  11.191   2.051  0.5144  0.1660  0.2597
  406MOL0     O53507   4.303  11.256   2.157  0.0951 -0.0432 -0.2033
  406MOL0     C53508   4.227  11.016   2.412 -0.0344 -0.3997 -0.9800
  406MOL0     C53509   4.279  10.964   2.528  0.5632 -0.0596  0.2844
  406MOL0     N53510   4.900  10.965   2.970  0.0895  0.2211  0.1637
  406MOL0     N53511   5.020  10.936   3.004 -0.2522  0.6615  0.1845
  406MOL0     C53512   5.892  10.790   2.691 -0.1662 -0.3201 -0.1038
  406MOL0     C53513   5.931  10.892   2.600 -0.5108 -0.1469 -0.4737
  406MOL0     C53514   6.285  11.046   2.333  0.2551 -1.1914  0.6260
  406MOL0     C53515   6.423  11.051   2.324  0.0859  0.3929  0.0542
  406MOL0     C53516   6.494  11.120   2.228  0.1365  0.1255 -0.7675
  406MOL0     C53517   6.425  11.185   2.127 -0.5548  0.7315 -1.0773
  406MOL0     O53518   6.484  11.235   2.013  0.0991  0.8016 -0.4032
  406MOL0     C53519   6.469  11.375   1.996  0.5254 -0.0834  0.0529
  406MOL0     C53520   6.613  11.434   2.004  0.2945  0.9902 -0.3639
  406MOL0     C53521   6.648  11.453   2.150  0.0711  0.7269 -0.0377
  406MOL0     C53522   6.776  11.530   2.160  0.1118  0.0159  0.2319
  406MOL0     C53523   6.881  11.460   2.087 -0.2293  0.4003  0.7394
  406MOL0     C53524   6.987  11.402   2.050  0.3444 -0.0283 -0.5190
  406MOL0     C53525   6.281  11.184   2.128 -0.2406  0.2604  0.0870
  406MOL0     C53526   6.216  11.105   2.222 -0.3800 -0.6717  0.5037
  406MOL0     H53527   6.093  10.683   2.400 -2.1831  0.4295 -0.8134
  406MOL0     H53528   6.058  10.528   2.562  0.6414  0.1681  0.5147
  406MOL0     H53529   5.894  10.682   2.952 -1.5944 -0.6245  1.1124
  406MOL0     H53530   5.973  10.532   2.958 -1.7924 -3.6516 -0.5382
  406MOL0     H53531   5.765  10.567   3.085 -1.3313 -0.0519 -0.5486
  406MOL0     H53532   5.767  10.416   2.997 -0.0049  0.2202  1.3955
  406MOL0     H53533   5.618  10.533   2.821  1.1912  2.4996 -0.8387
  406MOL0     H53534   5.641  10.677   2.924 -1.2149  0.8923  1.8670
  406MOL0     H53535   5.508  10.417   2.987 -1.0646 -0.0617  0.2507
  406MOL0     H53536   5.539  10.535   3.120 -0.1951  2.1542 -1.2565
  406MOL0     H53537   5.396  10.595   2.857  0.8592  1.9308 -0.4861
  406MOL0     H53538   5.393  10.693   2.994 -3.4048 -0.1066 -2.2626
  406MOL0     H53539   5.272  10.500   3.128 -0.3648  4.3864  1.4844
  406MOL0     H53540   5.263  10.417   2.963  0.2524  0.7149 -0.5520
  406MOL0     H53541   5.142  10.599   2.871 -1.1447  0.3905  0.4225
  406MOL0     H53542   5.050  10.523   2.988  1.1809 -1.8165 -0.7692
  406MOL0     H53543   5.214  10.782   3.048 -1.4473  1.6633  3.1948
  406MOL0     H53544   5.117  10.690   3.152  1.3438 -1.2209 -0.7373
  406MOL0     H53545   4.876  10.642   2.957 -0.9865 -0.1908 -0.7504
  406MOL0     H53546   4.619  10.772   2.938  1.8548 -1.7656  0.1377
  406MOL0     H53547   4.680  10.856   2.788 -1.9567  5.0450 -0.5431
  406MOL0     H53548   4.670  11.063   2.849 -1.3726  0.0150 -1.2946
  406MOL0     H53549   4.655  11.022   3.026 -3.1350  1.8639  0.5349
  406MOL0     H53550   4.425  10.921   2.963 -4.0169  2.0336 -2.1507
  406MOL0     H53551   4.451  11.095   3.002  1.9350 -0.3838  2.7519
  406MOL0     H53552   4.436  11.149   2.774  0.3978 -1.3082 -2.0724
  406MOL0     H53553   4.300  11.029   2.792 -0.6069 -1.0282  0.8561
  406MOL0     H53554   4.590  11.108   2.520  0.5947  1.2480  0.3909
  406MOL0     H53555   4.486  11.222   2.326 -3.0831  1.3349 -2.1203
  406MOL0     H53556   4.238  11.121   1.930 -0.5652 -0.6237 -0.5231
  406MOL0     H53557   4.137  11.175   1.728 -0.8001  0.0995 -1.1826
  406MOL0     H53558   3.896  11.351   1.485  2.9902  1.8485 -1.4969
  406MOL0     H53559   4.048  11.275   1.545  1.6190  3.0516 -1.4455
  406MOL0     H53560   4.070  11.509   1.523 -0.6546  3.7888  1.3001
  406MOL0     H53561   4.110  11.451   1.669 -0.7585  4.1255  1.8266
  406MOL0     H53562   3.983  11.663   1.677  0.8311 -0.3579  0.8585
  406MOL0     H53563   3.885  11.540   1.764 -4.5976  0.5162 -0.3902
  406MOL0     H53564   3.819  11.626   1.489 -0.8727 -0.2186 -1.1860
  406MOL0     H53565   3.751  11.484   1.574  1.0428 -1.4294  1.8449
  406MOL0     H53566   3.706  11.642   1.759  0.7503  1.6470  0.5223
  406MOL0     H53567   3.604  11.664   1.620  0.2839  0.7703  1.6773
  406MOL0     H53568   3.856  11.832   1.668  0.7193  1.4337 -3.9323
  406MOL0     H53569   3.682  11.873   1.708 -0.9917  0.8732 -0.7454
  406MOL0     H53570   3.773  11.854   1.428  0.5278 -2.3069  1.4700
  406MOL0     H53571   3.610  11.858   1.495  0.2047  1.2991 -1.2779
  406MOL0     H53572   3.808  12.069   1.586  1.7372 -2.6695 -1.0345
  406MOL0     H53573   3.631  12.079   1.581 -0.8865  1.3376 -1.6950
  406MOL0     H53574   3.760  11.262   1.913  0.5401  1.4993  1.5904
  406MOL0     H53575   3.856  11.194   2.138 -2.4846  2.3198 -1.8231
  406MOL0     H53576   4.126  10.989   2.383 -0.2964 -0.5282  0.0173
  406MOL0     H53577   4.228  10.887   2.585  1.3819 -1.1817 -0.4506
  406MOL0     H53578   5.817  10.813   2.766 -3.1818 -1.0216 -2.7134
  406MOL0     H53579   5.906  10.997   2.601 -0.1706 -0.0575 -1.2556
  406MOL0     H53580   6.469  10.987   2.399 -0.4179  0.5883  0.5390
  406MOL0     H53581   6.603  11.120   2.232  0.1190  0.3010 -0.2049
  406MOL0     H53582   6.396  11.426   2.059 -2.6244 -0.8634 -2.6584
  406MOL0     H53583   6.436  11.392   1.893  0.6957  1.0936  0.1818
  406MOL0     H53584   6.669  11.356   1.952  1.2137  3.1236 -2.7980
  406MOL0     H53585   6.636  11.520   1.941  1.2955 -0.7752 -2.5350
  406MOL0     H53586   6.657  11.355   2.199  0.9437  1.1151  0.5969
  406MOL0     H53587   6.567  11.506   2.200  1.4754  1.4970  1.5209
  406MOL0     H53588   6.771  11.628   2.111  0.3203 -0.3006 -0.4410
  406MOL0     H53589   6.811  11.539   2.263  2.0447 -2.3966 -0.1318
  406MOL0     H53590   7.076  11.344   2.032 -1.6997 -4.0874  1.1603
  406MOL0     H53591   6.228  11.238   2.050 -0.7460 -0.1183  0.1587
  406MOL0     H53592   6.108  11.109   2.219 -0.4879 -2.4969  1.1191
  407MOL0     O53593   4.177   8.700   1.058  0.0733 -0.9094 -0.1127
  407MOL0     C53594   4.146   8.620   0.970  0.1758  0.5250 -0.4738
  407MOL0     O53595   4.023   8.566   0.954 -0.4668 -0.5278 -0.4304
  407MOL0     C53596   3.945   8.555   1.068  0.8547 -0.6994  0.6157
  407MOL0     C53597   3.922   8.432   1.136  0.8299  1.1774  0.0424
  407MOL0     C53598   3.819   8.413   1.233  0.1205  0.2102 -0.8597
  407MOL0     C53599   3.747   8.523   1.275  0.7528  0.5272  0.0367
  407MOL0     O53600   3.657   8.502   1.378  0.0765 -0.9556 -0.5342
  407MOL0     C53601   3.534   8.573   1.378  0.0357 -0.4474 -0.6232
  407MOL0     C53602   3.445   8.529   1.504 -0.1653  0.2565  0.9389
  407MOL0     C53603   3.324   8.611   1.512 -0.0995 -0.9802 -0.1153
  407MOL0     C53604   3.235   8.586   1.634  0.6608  0.0245  0.4002
  407MOL0     C53605   3.110   8.681   1.637  0.4628  0.1363  0.4444
  407MOL0     C53606   3.007   8.636   1.741  0.6558 -0.0518  0.1243
  407MOL0     C53607   2.905   8.742   1.768  0.3184 -0.9693  0.4496
  407MOL0     C53608   2.791   8.743   1.668  0.6755 -0.0102 -0.3419
  407MOL0     N53609   2.667   8.799   1.724  0.5559  0.1547  0.1929
  407MOL0     C53610   2.550   8.725   1.748  0.3794 -0.3476  0.8502
  407MOL0     C53611   2.460   8.823   1.774 -0.2480 -0.1199 -0.7336
  407MOL0     C53612   2.320   8.792   1.812 -0.0247  0.2709 -0.3976
  407MOL0     C53613   2.224   8.836   1.689  0.4488  0.1183  1.2840
  407MOL0     C53614   2.080   8.868   1.712 -0.7028 -0.6572 -0.4768
  407MOL0     C53615   1.985   8.756   1.742  0.1053 -0.5057  0.2823
  407MOL0     O53616   2.025   8.658   1.844  0.1882 -0.0721  0.0985
  407MOL0     C53617   1.929   8.581   1.913  0.1743 -0.4563  0.1051
  407MOL0     C53618   1.967   8.506   2.029  0.7099  0.2070 -0.3148
  407MOL0     C53619   1.875   8.445   2.119 -0.7560  0.5462 -0.2993
  407MOL0     C53620   1.737   8.447   2.079 -0.1742  1.1062  0.0501
  407MOL0     C53621   1.639   8.384   2.174 -0.3278 -0.8096 -0.0292
  407MOL0     O53622   1.516   8.423   2.162  0.1227  0.4277 -0.4620
  407MOL0     C53623   1.431   8.327   2.210 -0.4372 -0.7104 -0.0797
  407MOL0     C53624   1.390   8.231   2.124  0.5966  0.4029 -0.1500
  407MOL0     C53625   1.303   8.130   2.172  0.3645  0.5441 -0.0815
  407MOL0     C53626   1.240   8.142   2.294  0.1326 -1.1657  0.0783
  407MOL0     O53627   1.134   8.058   2.313  0.6871  0.7128  0.2615
  407MOL0     C53628   1.017   8.129   2.352 -0.9002 -1.1771  0.4059
  407MOL0     C53629   0.898   8.053   2.327 -0.1590 -0.3667  0.0306
  407MOL0     C53630   0.761   8.112   2.358  0.2243 -0.7737 -0.5596
  407MOL0     C53631   0.733   8.117   2.511  0.0564  0.3702  0.3753
  407MOL0     C53632   0.587   8.174   2.542 -0.1087  0.4623  0.1769
  407MOL0     C53633   0.568   8.205   2.689 -0.8013  0.1356 -0.0679
  407MOL0     C53634   0.420   8.222   2.709 -0.1604 -0.5502 -0.4891
  407MOL0     C53635   0.382   8.369   2.721 -0.0223  0.7884  0.2550
  407MOL0    Cl53636   0.207   8.392   2.748  0.1972 -0.0543  0.4637
  407MOL0     C53637   1.285   8.241   2.382  0.5726  0.2102  0.5090
  407MOL0     C53638   1.381   8.330   2.347 -0.4636 -0.0865  0.7047
  407MOL0     O53639   1.674   8.292   2.246 -0.5093 -0.6526 -0.3829
  407MOL0     C53640   1.692   8.513   1.965 -0.5796 -0.0233 -0.3783
  407MOL0     C53641   1.790   8.583   1.880  0.4950  0.6714  0.1993
  407MOL0     N53642   2.519   8.945   1.766 -0.2772  0.9488  0.1380
  407MOL0     N53643   2.641   8.930   1.739 -0.4526  0.2380  0.0975
  407MOL0     C53644   3.770   8.649   1.208  0.0787  0.3119 -0.2397
  407MOL0     C53645   3.859   8.661   1.103 -0.0612 -0.1173  0.4357
  407MOL0     C53646   4.247   8.596   0.866  0.0914  0.8040  0.4779
  407MOL0     C53647   4.369   8.665   0.873 -0.4788  0.4121  0.2544
  407MOL0     C53648   4.455   8.669   0.762 -0.4103  0.7277  0.3274
  407MOL0     C53649   4.443   8.580   0.654 -0.8397 -0.5502  1.0661
  407MOL0     O53650   4.530   8.594   0.541  0.0646 -1.1171 -0.3195
  407MOL0     C53651   4.489   8.533   0.416  0.2502  0.5350  1.0669
  407MOL0     C53652   4.576   8.569   0.305 -1.0568 -0.0454 -0.4412
  407MOL0     C53653   4.718   8.496   0.320  0.1347  0.3369 -0.7136
  407MOL0     C53654   4.812   8.538   0.198  0.5181  0.8751  0.3098
  407MOL0     C53655   4.780   8.461   0.075  0.3085 -0.7760 -0.1390
  407MOL0     C53656   4.749   8.392  -0.024 -0.5577 -0.3567 -0.5384
  407MOL0     C53657   4.328   8.500   0.655 -0.3794 -0.4799  0.1272
  407MOL0     C53658   4.230   8.495   0.761  0.0761 -0.1092 -0.2725
  407MOL0     H53659   3.976   8.342   1.112  0.5731  1.1202 -0.3391
  407MOL0     H53660   3.802   8.316   1.278 -1.5118  0.4886 -0.8223
  407MOL0     H53661   3.473   8.567   1.289 -1.0838  2.3327 -0.1413
  407MOL0     H53662   3.562   8.678   1.386 -2.1749  0.2145 -0.9716
  407MOL0     H53663   3.503   8.539   1.595  1.4034  3.4265 -0.2768
  407MOL0     H53664   3.422   8.424   1.482 -0.4280  1.0969 -3.8044
  407MOL0     H53665   3.264   8.598   1.421  1.3367 -0.7260 -1.1279
  407MOL0     H53666   3.357   8.714   1.526 -0.3668 -1.1822  2.4302
  407MOL0     H53667   3.191   8.487   1.621 -0.9226  0.7914 -0.2869
  407MOL0     H53668   3.291   8.603   1.727  1.0149  2.3353 -0.1789
  407MOL0     H53669   3.068   8.691   1.537  1.6998  2.4055  0.0715
  407MOL0     H53670   3.148   8.776   1.677  0.9297 -0.5373  1.6618
  407MOL0     H53671   3.071   8.634   1.829 -0.3805 -4.7942  1.0080
  407MOL0     H53672   2.961   8.539   1.724  3.9523 -2.0338  1.5546
  407MOL0     H53673   2.859   8.705   1.860 -1.5457 -0.7379 -0.3325
  407MOL0     H53674   2.951   8.841   1.779  2.5460 -1.2339 -4.3105
  407MOL0     H53675   2.768   8.645   1.625 -0.8790  0.2498 -0.1640
  407MOL0     H53676   2.802   8.794   1.572 -1.9612  1.6814  0.1634
  407MOL0     H53677   2.514   8.623   1.739  2.1109 -0.8101 -1.9582
  407MOL0     H53678   2.282   8.846   1.899  0.1334  1.7012 -1.1906
  407MOL0     H53679   2.307   8.684   1.825  3.3333 -0.2653 -0.6654
  407MOL0     H53680   2.223   8.751   1.621  0.6317  1.5318 -0.5403
  407MOL0     H53681   2.277   8.919   1.642 -1.5926  0.2389 -0.9591
  407MOL0     H53682   2.065   8.954   1.778 -0.5908  0.1203 -1.4334
  407MOL0     H53683   2.053   8.908   1.613  2.2715  2.2896 -0.2701
  407MOL0     H53684   1.976   8.698   1.649 -1.3706 -2.7970  1.7358
  407MOL0     H53685   1.884   8.792   1.765  0.3226 -1.1602  2.4583
  407MOL0     H53686   2.072   8.498   2.053  0.6963  1.3923  0.2060
  407MOL0     H53687   1.903   8.401   2.214  0.7851  0.5745 -0.7024
  407MOL0     H53688   1.439   8.230   2.028  5.4013 -0.5726  1.9930
  407MOL0     H53689   1.271   8.063   2.093  0.6304 -0.8836  0.9769
  407MOL0     H53690   1.013   8.230   2.310 -0.0916 -2.1385 -2.1786
  407MOL0     H53691   1.014   8.137   2.461 -1.8043  0.0479  0.3077
  407MOL0     H53692   0.898   7.967   2.394 -3.2918  1.3446  2.4869
  407MOL0     H53693   0.899   8.019   2.223  1.0420 -0.4536  0.0516
  407MOL0     H53694   0.683   8.050   2.313  0.6617 -1.1197 -0.8566
  407MOL0     H53695   0.748   8.210   2.311  2.9654 -0.3873 -0.7175
  407MOL0     H53696   0.726   8.014   2.548 -0.9523  1.2277  2.7936
  407MOL0     H53697   0.808   8.176   2.564  1.7687  0.7923 -2.2953
  407MOL0     H53698   0.516   8.110   2.489 -0.8636  1.0237  0.5022
  407MOL0     H53699   0.586   8.268   2.486 -1.0975  0.7886  0.7152
  407MOL0     H53700   0.643   8.279   2.719  1.0783 -1.1192 -1.4084
  407MOL0     H53701   0.597   8.119   2.749 -1.9948  0.3164  0.7976
  407MOL0     H53702   0.362   8.173   2.630  0.0606  2.4869 -2.7430
  407MOL0     H53703   0.383   8.179   2.803 -2.6660  1.6878 -0.3149
  407MOL0     H53704   0.391   8.406   2.618  1.1317 -0.7131 -0.2252
  407MOL0     H53705   0.436   8.423   2.799  0.8842  3.0760 -1.8394
  407MOL0     H53706   1.254   8.236   2.486  0.8949 -1.6011  0.5533
  407MOL0     H53707   1.417   8.396   2.425 -0.8793 -0.0612  0.8766
  407MOL0     H53708   1.586   8.523   1.943 -0.1763  3.4943 -1.3263
  407MOL0     H53709   1.760   8.653   1.802  1.6020  2.6663  1.4605
  407MOL0     H53710   3.711   8.737   1.231 -0.9932 -0.5151  0.2265
  407MOL0     H53711   3.869   8.755   1.050  1.0011 -0.6984 -0.4640
  407MOL0     H53712   4.399   8.734   0.951  1.9810 -0.3640  0.0747
  407MOL0     H53713   4.537   8.739   0.758 -0.3120  0.5477 -0.9721
  407MOL0     H53714   4.389   8.572   0.392  1.2042  0.4972 -3.9892
  407MOL0     H53715   4.481   8.424   0.414  0.1233  0.5430 -0.9832
  407MOL0     H53716   4.533   8.531   0.212  1.8176 -0.3921 -1.7574
  407MOL0     H53717   4.596   8.675   0.290 -1.0683  0.4513  2.4588
  407MOL0     H53718   4.708   8.387   0.329 -1.5059  0.5667  0.8660
  407MOL0     H53719   4.772   8.517   0.412  0.1607 -1.2006 -0.3428
  407MOL0     H53720   4.796   8.645   0.180 -0.1835  0.7942  0.4487
  407MOL0     H53721   4.917   8.522   0.227  0.7026 -1.9800 -1.6264
  407MOL0     H53722   4.738   8.320  -0.103 -1.6855  0.3908 -1.0887
  407MOL0     H53723   4.324   8.422   0.579  0.5179 -2.5337  2.0680
  407MOL0     H53724   4.149   8.424   0.763 -0.0030 -0.0839  3.3425
  408MOL0     O53725   3.898   1.052   6.366  0.2001 -0.0869 -0.5493
  408MOL0     C53726   4.012   1.088   6.383 -1.0155  0.5837  0.0047
  408MOL0     O53727   4.104   1.098   6.281 -0.2644  0.5271  0.5605
  408MOL0     C53728   4.056   1.055   6.153 -0.3135 -0.4402  0.3117
  408MOL0     C53729   3.957   1.125   6.087  0.6900 -0.5401  0.7768
  408MOL0     C53730   3.900   1.069   5.965 -0.3178  0.2905 -0.1966
  408MOL0     C53731   3.946   0.946   5.913  0.7902  1.0102  0.0801
  408MOL0     O53732   3.906   0.888   5.789 -0.5569 -0.8771 -0.0509
  408MOL0     C53733   3.858   0.987   5.683 -0.8677  0.5765  0.1468
  408MOL0     C53734   3.892   0.937   5.544 -0.1345  0.0691  0.3020
  408MOL0     C53735   4.037   0.914   5.528 -0.4471  1.3553 -1.3273
  408MOL0     C53736   4.125   1.039   5.544 -0.1884  0.7400 -0.3047
  408MOL0     C53737   4.264   0.997   5.603  0.2351  0.0866 -0.8854
  408MOL0     C53738   4.331   1.124   5.653  1.3574  0.2680  0.0021
  408MOL0     C53739   4.284   1.176   5.791  0.1804  0.5336  0.6843
  408MOL0     C53740   4.338   1.083   5.906  0.0256 -0.7997  0.6027
  408MOL0     N53741   4.482   1.079   5.935  0.5516 -0.3848  1.0463
  408MOL0     C53742   4.584   1.146   5.875  0.8609 -0.5437  0.4364
  408MOL0     C53743   4.695   1.105   5.928 -1.2591 -0.1245 -0.1354
  408MOL0     C53744   4.844   1.145   5.891  0.1012 -0.7209  0.8205
  408MOL0     C53745   4.867   1.123   5.731 -0.7125  0.1920 -0.8701
  408MOL0     C53746   4.860   0.973   5.696 -0.8339 -0.4911 -0.3393
  408MOL0     C53747   4.906   0.929   5.555  0.1767 -1.4553 -0.2326
  408MOL0     O53748   4.908   0.789   5.541  0.2974  0.3836  0.0854
  408MOL0     C53749   4.782   0.732   5.526  0.1242  0.5162 -0.3948
  408MOL0     C53750   4.773   0.590   5.531  0.8845  0.5065  0.1743
  408MOL0     C53751   4.655   0.521   5.520  0.0898  0.1799  0.3552
  408MOL0     C53752   4.523   0.583   5.516 -0.7930 -0.8909  1.4161
  408MOL0     C53753   4.390   0.504   5.524 -0.9922 -0.2680  0.0421
  408MOL0     O53754   4.278   0.582   5.551 -0.1919 -0.4641 -0.6051
  408MOL0     C53755   4.159   0.522   5.567 -0.2452  0.4589 -0.0370
  408MOL0     C53756   4.101   0.421   5.494  0.5600  0.0531  0.1300
  408MOL0     C53757   3.973   0.362   5.519 -0.1763 -0.5093  0.3909
  408MOL0     C53758   3.893   0.418   5.624  0.3492  0.5314  1.0170
  408MOL0     O53759   3.769   0.363   5.640  0.6180 -0.2638  0.5204
  408MOL0     C53760   3.664   0.445   5.697  0.1225 -0.7652  0.4956
  408MOL0     C53761   3.627   0.571   5.621 -1.0716  0.4918  0.0584
  408MOL0     C53762   3.506   0.657   5.669 -0.5542 -0.1882 -0.7685
  408MOL0     C53763   3.501   0.658   5.823  0.9188  0.1203 -0.1250
  408MOL0     C53764   3.611   0.747   5.877 -0.6272  0.0232  0.1989
  408MOL0     C53765   3.642   0.686   6.017  1.0212  0.2447  0.0753
  408MOL0     C53766   3.740   0.770   6.093  0.6315 -0.3471  0.6211
  408MOL0     C53767   3.743   0.747   6.241 -0.1967 -0.3140 -0.1309
  408MOL0    Cl53768   3.766   0.570   6.265  0.0973  0.0468 -0.5217
  408MOL0     C53769   3.955   0.518   5.705 -0.1087 -0.8272 -0.0561
  408MOL0     C53770   4.084   0.577   5.672 -0.0622 -0.3994  0.8800
  408MOL0     O53771   4.399   0.380   5.514 -0.7103  0.1033 -0.1005
  408MOL0     C53772   4.527   0.724   5.505  0.6172 -0.1752  0.2528
  408MOL0     C53773   4.651   0.794   5.508 -1.4403 -0.0668  0.7195
  408MOL0     N53774   4.667   1.002   6.019  0.4246  0.6920 -0.5173
  408MOL0     N53775   4.539   0.989   6.028 -0.6423 -0.3128  0.1533
  408MOL0     C53776   4.045   0.884   5.988 -0.3354  0.5900 -0.1885
  408MOL0     C53777   4.097   0.935   6.105  0.6245  0.3654  0.4987
  408MOL0     C53778   4.046   1.149   6.514 -0.7895 -0.1084  0.1527
  408MOL0     C53779   3.949   1.155   6.613 -0.4351 -0.4119 -0.0643
  408MOL0     C53780   3.976   1.216   6.733  0.0988 -0.2744  0.2409
  408MOL0     C53781   4.111   1.263   6.766  0.7771  0.2072  0.1558
  408MOL0     O53782   4.133   1.304   6.893  0.1776 -0.4538 -0.1780
  408MOL0     C53783   4.265   1.299   6.941  0.6515  0.0649  0.3855
  408MOL0     C53784   4.248   1.320   7.096 -0.4003 -0.3429 -0.8264
  408MOL0     C53785   4.395   1.361   7.149  0.5941  0.4931  0.4741
  408MOL0     C53786   4.450   1.254   7.252 -0.0221 -0.2630  1.8338
  408MOL0     C53787   4.515   1.146   7.169  0.8489 -0.8236  0.6027
  408MOL0     C53788   4.562   1.061   7.086 -0.2007 -0.4473 -0.6676
  408MOL0     C53789   4.203   1.265   6.659  0.2035  0.4254 -0.2596
  408MOL0     C53790   4.176   1.207   6.536 -0.0469  0.8246 -0.0622
  408MOL0     H53791   3.908   1.217   6.115 -0.0638  0.2769 -2.6810
  408MOL0     H53792   3.831   1.130   5.908 -2.7629 -3.1205 -1.1861
  408MOL0     H53793   3.898   1.087   5.699 -1.6509  0.5186  3.0447
  408MOL0     H53794   3.750   1.004   5.679 -0.9075  0.2994 -3.1142
  408MOL0     H53795   3.846   1.003   5.470 -1.1544 -1.3258 -0.3462
  408MOL0     H53796   3.835   0.847   5.523  0.1315  0.0664 -0.4485
  408MOL0     H53797   4.057   0.854   5.440 -2.3031 -3.0470  0.9394
  408MOL0     H53798   4.066   0.845   5.608  1.2720  1.6342 -1.6689
  408MOL0     H53799   4.154   1.083   5.448  0.2099 -1.3795 -1.2097
  408MOL0     H53800   4.077   1.114   5.608 -1.3927  0.0498 -0.3752
  408MOL0     H53801   4.336   0.965   5.528  1.3084  1.9102 -0.6798
  408MOL0     H53802   4.251   0.909   5.668  0.9470 -1.3535 -2.6066
  408MOL0     H53803   4.298   1.204   5.586 -1.7486 -2.9172 -2.7241
  408MOL0     H53804   4.440   1.115   5.642  1.1488 -0.3932 -2.0055
  408MOL0     H53805   4.311   1.282   5.795  2.7110  0.1868 -2.9107
  408MOL0     H53806   4.175   1.175   5.793  0.1179  2.7794  2.2255
  408MOL0     H53807   4.322   0.978   5.879  2.4663 -1.6116  2.0428
  408MOL0     H53808   4.279   1.111   5.993 -0.0215 -0.9463  0.6181
  408MOL0     H53809   4.588   1.232   5.810 -1.5052  0.5008  1.5833
  408MOL0     H53810   4.913   1.107   5.966 -0.4130  3.0049  3.4495
  408MOL0     H53811   4.844   1.254   5.898  5.3239 -0.5739  2.9315
  408MOL0     H53812   4.969   1.156   5.709 -0.7461  0.7135 -0.2747
  408MOL0     H53813   4.791   1.186   5.684 -1.5943 -0.4924 -0.3880
  408MOL0     H53814   4.920   0.921   5.771 -3.0454  0.0420  1.9245
  408MOL0     H53815   4.753   0.954   5.704 -0.9520 -0.0217 -0.7272
  408MOL0     H53816   5.005   0.975   5.543 -0.6397 -0.2299 -3.3399
  408MOL0     H53817   4.849   0.982   5.478 -1.6563  0.3934  2.2438
  408MOL0     H53818   4.859   0.524   5.543 -0.9458 -2.0053  0.3184
  408MOL0     H53819   4.664   0.413   5.519  0.8081  0.2306 -0.4149
  408MOL0     H53820   4.164   0.402   5.408 -0.3668  0.9579 -0.7748
  408MOL0     H53821   3.932   0.279   5.463 -0.0272 -0.7432  0.6291
  408MOL0     H53822   3.682   0.460   5.804 -0.7332  1.6050  0.3564
  408MOL0     H53823   3.571   0.388   5.708 -1.5328  2.0626  2.4751
  408MOL0     H53824   3.617   0.552   5.514  2.1402  1.9001 -0.6140
  408MOL0     H53825   3.718   0.632   5.618 -1.3857  0.9583 -0.0879
  408MOL0     H53826   3.411   0.616   5.633  0.1386  0.2526 -3.2371
  408MOL0     H53827   3.521   0.758   5.629  0.1140 -0.3254 -0.8776
  408MOL0     H53828   3.402   0.698   5.848 -0.2328 -4.0532  3.3548
  408MOL0     H53829   3.488   0.558   5.866  0.6136 -1.1203 -2.8368
  408MOL0     H53830   3.572   0.849   5.883 -0.0622  0.2244  0.4682
  408MOL0     H53831   3.702   0.744   5.817  0.1738 -1.1734  1.4135
  408MOL0     H53832   3.684   0.586   6.008  2.7715  1.0827 -1.9129
  408MOL0     H53833   3.551   0.677   6.078  0.3656 -0.7030 -1.0148
  408MOL0     H53834   3.831   0.738   6.042 -0.4742 -1.6316 -0.6395
  408MOL0     H53835   3.710   0.874   6.075  1.5916 -0.0017  0.9727
  408MOL0     H53836   3.656   0.782   6.298 -1.2134 -0.3690 -1.5931
  408MOL0     H53837   3.822   0.807   6.287  2.2373 -2.0877 -1.7188
  408MOL0     H53838   3.905   0.556   5.794 -1.2464 -2.2907 -0.0400
  408MOL0     H53839   4.114   0.668   5.724 -1.2204  1.1800 -1.0693
  408MOL0     H53840   4.432   0.776   5.501 -0.5048 -2.0670  0.7260
  408MOL0     H53841   4.660   0.902   5.501  2.6282 -0.3848 -3.0509
  408MOL0     H53842   4.093   0.793   5.952  1.9030  1.0078  1.4963
  408MOL0     H53843   4.178   0.881   6.153  0.4101 -1.2460 -0.8567
  408MOL0     H53844   3.856   1.101   6.601  0.2184 -1.9748  1.4293
  408MOL0     H53845   3.898   1.229   6.807  0.5401 -0.2162  0.7058
  408MOL0     H53846   4.327   1.370   6.885  1.1028 -0.3526  0.3517
  408MOL0     H53847   4.305   1.202   6.913  0.7694 -0.0624  0.9781
  408MOL0     H53848   4.176   1.401   7.104 -0.7897 -0.5253 -2.2831
  408MOL0     H53849   4.206   1.230   7.141 -5.2639  0.6644 -2.7437
  408MOL0     H53850   4.373   1.455   7.201  2.7579  0.3127  1.8936
  408MOL0     H53851   4.469   1.384   7.071  1.0955  1.1050  1.1114
  408MOL0     H53852   4.538   1.297   7.299  0.2824 -0.4170  1.4074
  408MOL0     H53853   4.374   1.222   7.325 -0.8687  0.1998  1.1830
  408MOL0     H53854   4.618   0.991   7.027  2.2926  0.5763  0.3298
  408MOL0     H53855   4.299   1.313   6.670  0.8755 -0.5533 -1.5947
  408MOL0     H53856   4.248   1.201   6.454  1.2978  1.0153  1.0634
  409MOL0     O53857   0.478   8.655   0.350  0.3124  0.2011 -0.2223
  409MOL0     C53858   0.427   8.705   0.251 -0.6783 -0.3449 -0.4791
  409MOL0     O53859   0.460   8.826   0.205  0.5613 -0.3257  0.6142
  409MOL0     C53860   0.559   8.902   0.257 -1.5214  0.7488  0.3940
  409MOL0     C53861   0.554   9.038   0.232  0.7416  0.3802  0.1125
  409MOL0     C53862   0.645   9.125   0.282 -0.7011 -1.0591 -0.1033
  409MOL0     C53863   0.763   9.074   0.341 -0.3015  0.9402 -0.5293
  409MOL0     O53864   0.851   9.172   0.378 -0.0368 -0.1394  0.3894
  409MOL0     C53865   0.984   9.133   0.418  0.2941 -0.4732  0.0680
  409MOL0     C53866   1.076   9.253   0.431  0.1020 -0.3769  0.2868
  409MOL0     C53867   1.178   9.222   0.531 -0.4777  0.5685 -0.5308
  409MOL0     C53868   1.268   9.346   0.584  0.3523 -0.3817 -0.9145
  409MOL0     C53869   1.409   9.302   0.604 -0.3634 -0.0475  0.1772
  409MOL0     C53870   1.491   9.233   0.494 -0.0544  0.0232  0.4845
  409MOL0     C53871   1.524   9.323   0.376 -0.4076  0.9457 -0.3257
  409MOL0     C53872   1.624   9.250   0.280  0.0330 -0.4725 -0.0574
  409MOL0     N53873   1.703   9.352   0.201  0.5812  0.6731 -0.2834
  409MOL0     C53874   1.656   9.433   0.102  0.8810  0.5553 -0.4195
  409MOL0     C53875   1.762   9.493   0.044 -0.5438 -0.3949  0.0456
  409MOL0     C53876   1.758   9.584  -0.068 -0.0707 -0.1801 -0.4006
  409MOL0     C53877   1.869   9.563  -0.172  0.3713  0.0375 -0.0388
  409MOL0     C53878   1.867   9.415  -0.231  0.7127 -1.0626  0.0839
  409MOL0     C53879   2.004   9.375  -0.291 -0.3720 -0.2151 -0.5356
  409MOL0     O53880   2.102   9.367  -0.185 -0.8558 -0.3346  0.4031
  409MOL0     C53881   2.237   9.333  -0.218 -0.1905 -0.3132 -0.7090
  409MOL0     C53882   2.338   9.344  -0.118  0.7523 -0.6337 -0.6400
  409MOL0     C53883   2.472   9.334  -0.150  0.0008 -0.0844  0.0454
  409MOL0     C53884   2.518   9.309  -0.275  0.1432  0.4481 -0.8404
  409MOL0     C53885   2.662   9.287  -0.302 -0.3250 -0.5254  0.2100
  409MOL0     O53886   2.754   9.324  -0.201 -0.2907  0.1097  0.1250
  409MOL0     C53887   2.877   9.287  -0.224 -0.3349 -0.9425  0.5580
  409MOL0     C53888   2.978   9.377  -0.254 -0.1190 -0.8125 -0.6212
  409MOL0     C53889   3.109   9.322  -0.280  0.1255 -1.1879 -0.4593
  409MOL0     C53890   3.134   9.187  -0.285 -0.1028  1.0209  0.9631
  409MOL0     O53891   3.253   9.136  -0.324 -0.1624  0.4651 -0.2174
  409MOL0     C53892   3.277   9.029  -0.418 -0.1450 -0.5922  0.7106
  409MOL0     C53893   3.419   9.028  -0.474  0.4828 -0.0124  0.1043
  409MOL0     C53894   3.448   8.904  -0.566  0.0171 -0.2456 -0.4047
  409MOL0     C53895   3.597   8.914  -0.629 -0.7659  0.7574  0.6294
  409MOL0     C53896   3.611   8.793  -0.723 -0.1876 -0.0144 -0.1790
  409MOL0     C53897   3.767   8.763  -0.766  1.1204 -1.1437  0.4657
  409MOL0     C53898   3.844   8.896  -0.796  0.0402 -0.4395  0.5140
  409MOL0     C53899   3.799   8.972  -0.926 -0.4916  0.5030  0.2728
  409MOL0    Cl53900   3.854   8.883  -1.077 -0.9080  0.6250  0.1681
  409MOL0     C53901   3.025   9.105  -0.263  0.2105  0.1168  0.4071
  409MOL0     C53902   2.899   9.153  -0.228 -1.1086 -0.0437  0.0438
  409MOL0     O53903   2.683   9.235  -0.406 -0.5610 -0.3934  0.1950
  409MOL0     C53904   2.416   9.274  -0.370 -0.0225 -0.0994  1.4613
  409MOL0     C53905   2.281   9.287  -0.343  1.6287  0.4462  0.4971
  409MOL0     N53906   1.874   9.450   0.110  0.1440  0.2860 -0.0055
  409MOL0     N53907   1.839   9.363   0.205 -0.2101 -0.2767  0.7409
  409MOL0     C53908   0.790   8.932   0.347  0.7775 -0.3252 -0.0565
  409MOL0     C53909   0.683   8.854   0.311  0.2822  1.1856  0.0416
  409MOL0     C53910   0.325   8.634   0.185  1.1850 -1.0291  0.2142
  409MOL0     C53911   0.213   8.706   0.136  1.0118 -1.0248 -0.4982
  409MOL0     C53912   0.113   8.632   0.066  1.4968  0.3252 -0.4013
  409MOL0     C53913   0.123   8.492   0.046 -0.3936 -0.5097  1.0237
  409MOL0     O53914   0.034   8.412  -0.027 -0.1259 -0.5242  0.2334
  409MOL0     C53915  -0.021   8.490  -0.135  0.3458  0.5725 -0.8461
  409MOL0     C53916  -0.086   8.389  -0.233  0.1791 -0.8045  0.2656
  409MOL0     C53917  -0.147   8.458  -0.352 -0.6556  0.1607 -0.4027
  409MOL0     C53918  -0.146   8.362  -0.466 -1.1279  0.5535 -1.6561
  409MOL0     C53919  -0.176   8.428  -0.598 -0.8725 -0.5862  0.1392
  409MOL0     C53920  -0.198   8.486  -0.701  0.2695  0.0885 -0.2211
  409MOL0     C53921   0.235   8.423   0.100  0.4925 -0.3814  0.4375
  409MOL0     C53922   0.337   8.492   0.165  0.2913 -1.2004  0.7285
  409MOL0     H53923   0.472   9.081   0.175  1.2981  1.0147 -0.2231
  409MOL0     H53924   0.636   9.232   0.274 -2.1908 -0.7485  3.5350
  409MOL0     H53925   1.024   9.052   0.356  1.7825  2.3704 -3.0033
  409MOL0     H53926   0.955   9.088   0.514 -1.4618  1.8007  0.7131
  409MOL0     H53927   1.024   9.342   0.467 -0.3356  0.1135 -1.4823
  409MOL0     H53928   1.119   9.275   0.333  0.4434 -2.2359 -0.0114
  409MOL0     H53929   1.238   9.140   0.491  0.0448  1.4488 -1.6155
  409MOL0     H53930   1.125   9.185   0.619  1.1352  1.0532  0.6746
  409MOL0     H53931   1.264   9.426   0.509 -1.7937  2.4276  1.9566
  409MOL0     H53932   1.234   9.383   0.681  3.9741 -1.7190  1.0828
  409MOL0     H53933   1.406   9.228   0.685 -1.6586  0.8376  0.9673
  409MOL0     H53934   1.478   9.380   0.636 -0.6897  0.6801 -0.8548
  409MOL0     H53935   1.428   9.150   0.460 -4.1066  3.8589 -2.5094
  409MOL0     H53936   1.582   9.211   0.551 -1.3929 -1.3231  2.2630
  409MOL0     H53937   1.440   9.357   0.316 -0.5800 -3.4565 -2.9372
  409MOL0     H53938   1.571   9.410   0.425 -1.7707 -0.0307  3.0403
  409MOL0     H53939   1.577   9.188   0.203  2.7195 -1.4920 -0.9915
  409MOL0     H53940   1.695   9.184   0.332  2.6745  3.0521  1.1926
  409MOL0     H53941   1.554   9.451   0.068  0.2334  0.7997  1.4737
  409MOL0     H53942   1.763   9.683  -0.020 -2.9454 -0.4054  0.5985
  409MOL0     H53943   1.663   9.571  -0.120  0.9808 -0.1554 -2.4218
  409MOL0     H53944   1.961   9.570  -0.114  0.3208  1.0017 -0.0601
  409MOL0     H53945   1.865   9.639  -0.251  0.5555 -1.2489 -1.3361
  409MOL0     H53946   1.849   9.342  -0.152 -0.8269 -0.1293  0.6515
  409MOL0     H53947   1.788   9.398  -0.306  0.5290 -3.3599  0.7282
  409MOL0     H53948   2.021   9.440  -0.377  0.0083 -0.5948 -0.7489
  409MOL0     H53949   1.986   9.272  -0.323 -0.7175 -0.6318  0.9193
  409MOL0     H53950   2.307   9.381  -0.021  3.6377 -0.5143  0.3470
  409MOL0     H53951   2.552   9.355  -0.081  1.5865 -0.1423 -1.7003
  409MOL0     H53952   2.977   9.485  -0.243  2.4745 -0.9943  3.3093
  409MOL0     H53953   3.191   9.389  -0.303  2.8497 -2.6470  3.6702
  409MOL0     H53954   3.212   9.036  -0.506 -1.2650  2.0008  1.6632
  409MOL0     H53955   3.254   8.932  -0.373 -1.2037  0.0677  1.6466
  409MOL0     H53956   3.480   9.014  -0.383 -2.4055  1.9272  2.5279
  409MOL0     H53957   3.434   9.124  -0.523 -1.7703 -0.2723 -1.1984
  409MOL0     H53958   3.363   8.898  -0.634 -1.2494 -2.8807  1.2349
  409MOL0     H53959   3.436   8.821  -0.496  0.3179  3.0703  4.0288
  409MOL0     H53960   3.617   9.010  -0.678 -1.0354  0.2668 -0.4694
  409MOL0     H53961   3.665   8.913  -0.543 -2.6404  0.9616  2.1941
  409MOL0     H53962   3.561   8.806  -0.820  2.9640  0.4576 -1.8878
  409MOL0     H53963   3.581   8.706  -0.665 -1.6817  0.1878 -0.6042
  409MOL0     H53964   3.771   8.699  -0.855  3.0744 -1.4099  0.7119
  409MOL0     H53965   3.819   8.714  -0.684  0.4181  1.5629  2.6901
  409MOL0     H53966   3.842   8.965  -0.712 -1.9498 -0.5269  0.5926
  409MOL0     H53967   3.950   8.875  -0.816 -0.0228  1.0572 -1.7360
  409MOL0     H53968   3.853   9.066  -0.914  0.7248 -0.0243 -0.8424
  409MOL0     H53969   3.690   8.979  -0.919 -0.5969 -0.6479 -0.0525
  409MOL0     H53970   3.042   8.998  -0.270 -4.9893 -0.9666  0.6448
  409MOL0     H53971   2.832   9.069  -0.217 -0.3157 -0.6954 -0.0956
  409MOL0     H53972   2.450   9.236  -0.466  1.1946  2.3424  0.8672
  409MOL0     H53973   2.205   9.253  -0.413  0.6218 -0.5927  2.0285
  409MOL0     H53974   0.880   8.888   0.391  0.4083  0.2353  1.3301
  409MOL0     H53975   0.693   8.746   0.319  1.8097  1.3822  1.1964
  409MOL0     H53976   0.218   8.812   0.155 -1.5257  0.0013 -4.4677
  409MOL0     H53977   0.028   8.689   0.030  1.2630 -0.2382 -0.7521
  409MOL0     H53978   0.046   8.560  -0.186 -0.2047  0.3122 -1.9667
  409MOL0     H53979  -0.093   8.566  -0.101  2.9343  1.3039  3.8396
  409MOL0     H53980  -0.011   8.315  -0.262 -0.2668 -1.7886  1.5460
  409MOL0     H53981  -0.173   8.337  -0.194 -2.3352  1.4567 -1.9178
  409MOL0     H53982  -0.089   8.545  -0.383  1.0301 -1.5432 -2.3216
  409MOL0     H53983  -0.251   8.488  -0.336 -1.0672 -0.6736 -1.4051
  409MOL0     H53984  -0.045   8.321  -0.470  0.0148  2.4042  2.2811
  409MOL0     H53985  -0.205   8.271  -0.449  0.0133 -0.0235 -0.6301
  409MOL0     H53986  -0.213   8.552  -0.784 -0.9546  0.5706  0.3485
  409MOL0     H53987   0.230   8.315   0.088 -6.0232 -0.3050 -0.8411
  409MOL0     H53988   0.419   8.439   0.213 -0.2773 -4.6202 -1.6746
  410MOL0     O53989   4.301   9.200   0.808  0.6248  0.0099 -0.6074
  410MOL0     C53990   4.255   9.121   0.728  0.0807  0.0170  0.0547
  410MOL0     O53991   4.130   9.069   0.741  0.2403 -0.4432  0.4034
  410MOL0     C53992   4.059   9.082   0.862  0.4952 -0.1399 -0.2479
  410MOL0     C53993   4.110   9.015   0.973  0.7565  0.4054 -0.5450
  410MOL0     C53994   4.039   9.030   1.094  0.3880  0.5202  0.0329
  410MOL0     C53995   3.914   9.095   1.097 -0.2812  0.5696 -0.6110
  410MOL0     O53996   3.842   9.121   1.213 -0.3905 -0.3083 -0.6316
  410MOL0     C53997   3.849   9.016   1.311  0.1219  0.6477  0.2319
  410MOL0     C53998   3.763   9.069   1.419  0.1989 -1.0837  0.4806
  410MOL0     C53999   3.797   8.994   1.548 -0.5675  0.2446 -0.3060
  410MOL0     C54000   3.734   9.059   1.675 -0.2034  0.0763  0.2852
  410MOL0     C54001   3.581   9.036   1.667  0.2963 -0.5096  0.1064
  410MOL0     C54002   3.510   9.117   1.773  0.3049  0.2948  0.9771
  410MOL0     C54003   3.354   9.100   1.773 -0.6525  0.1904 -0.7941
  410MOL0     C54004   3.279   9.229   1.817 -0.4415  0.3212 -0.1781
  410MOL0     N54005   3.142   9.202   1.848  0.0750 -1.0657 -0.1140
  410MOL0     C54006   3.093   9.105   1.935 -0.5423  0.2316 -0.2743
  410MOL0     C54007   2.960   9.138   1.956 -0.0453  0.6253  0.3367
  410MOL0     C54008   2.861   9.058   2.036  0.4250 -0.9468 -0.6021
  410MOL0     C54009   2.918   8.956   2.147 -0.9987 -0.1148 -0.0011
  410MOL0     C54010   2.981   9.046   2.261  0.2776  0.2562 -0.1656
  410MOL0     C54011   3.030   8.943   2.371  0.4986 -0.5739 -0.4773
  410MOL0     O54012   2.936   8.848   2.424 -0.5433  0.1676 -0.3453
  410MOL0     C54013   2.818   8.879   2.502 -0.9874 -0.6733  0.4323
  410MOL0     C54014   2.783   9.005   2.561  0.0518 -1.1726 -0.5281
  410MOL0     C54015   2.658   9.022   2.625 -1.0915  0.5505 -0.0837
  410MOL0     C54016   2.559   8.919   2.640 -1.6368  0.4031  0.1298
  410MOL0     C54017   2.425   8.941   2.702 -1.1425 -0.4010  0.1055
  410MOL0     O54018   2.327   8.854   2.683 -0.3747 -0.8579 -0.2036
  410MOL0     C54019   2.206   8.872   2.745  0.1209 -0.5238 -0.4762
  410MOL0     C54020   2.103   8.826   2.665  0.0154  0.0506 -0.6293
  410MOL0     C54021   1.964   8.838   2.712 -0.1890  0.1517 -0.2667
  410MOL0     C54022   1.931   8.880   2.836 -0.4749  0.2994 -0.0918
  410MOL0     O54023   1.795   8.875   2.876 -0.5348  0.5909  0.4697
  410MOL0     C54024   1.731   8.991   2.942 -0.6866 -0.9723  0.4743
  410MOL0     C54025   1.672   9.071   2.825  0.6337  0.3920  0.4395
  410MOL0     C54026   1.520   9.089   2.808 -0.9285 -0.3385  0.3982
  410MOL0     C54027   1.458   9.165   2.929  0.0038 -0.6812  0.1094
  410MOL0     C54028   1.323   9.214   2.899  0.7072  0.1103  0.1416
  410MOL0     C54029   1.244   9.255   3.022  0.6455 -0.3925 -0.1881
  410MOL0     C54030   1.105   9.305   2.983  1.0572  0.2814  0.2655
  410MOL0     C54031   1.020   9.323   3.111 -0.3124 -0.3723 -0.3570
  410MOL0    Cl54032   0.843   9.323   3.090 -0.4165 -0.2074  0.1514
  410MOL0     C54033   2.038   8.932   2.922 -0.6699  0.3575  0.0730
  410MOL0     C54034   2.175   8.927   2.875  0.0839 -0.5776 -0.3679
  410MOL0     O54035   2.409   9.048   2.763 -0.8285  0.2862 -0.3715
  410MOL0     C54036   2.601   8.792   2.583 -0.0041 -1.5091  0.3180
  410MOL0     C54037   2.727   8.772   2.509  0.4539  0.0982  0.0243
  410MOL0     N54038   2.931   9.245   1.873  0.2813  0.2531  0.4333
  410MOL0     N54039   3.040   9.284   1.809  0.1458  1.1312  0.8715
  410MOL0     C54040   3.859   9.144   0.984  0.2351 -0.3843  1.3976
  410MOL0     C54041   3.931   9.148   0.861  1.2288  0.2318 -0.3566
  410MOL0     C54042   4.337   9.094   0.610 -0.1544  0.4754  0.7522
  410MOL0     C54043   4.268   9.064   0.488 -0.0058 -0.7101  0.2671
  410MOL0     C54044   4.341   9.037   0.372 -0.5351 -1.6284 -1.0612
  410MOL0     C54045   4.486   9.042   0.375 -0.4351 -0.0457  0.6058
  410MOL0     O54046   4.569   9.011   0.266 -0.0170  0.1121 -0.5355
  410MOL0     C54047   4.522   8.937   0.149 -0.4512 -0.4377 -0.4599
  410MOL0     C54048   4.627   8.982   0.042 -0.6367 -0.0199 -0.4944
  410MOL0     C54049   4.772   8.966   0.092 -0.4870  0.4246  0.2823
  410MOL0     C54050   4.865   8.968  -0.030  0.4108  0.0443 -0.0317
  410MOL0     C54051   4.846   8.848  -0.109  0.7675  0.0801  0.4119
  410MOL0     C54052   4.824   8.750  -0.184  0.0686 -0.5247 -0.0031
  410MOL0     C54053   4.548   9.072   0.490 -0.1493 -0.4343  0.8137
  410MOL0     C54054   4.477   9.100   0.614 -0.3694  0.5889  0.7430
  410MOL0     H54055   4.198   8.952   0.974 -0.0055 -0.8337 -2.8366
  410MOL0     H54056   4.087   8.982   1.178  1.7233  1.0501 -0.4018
  410MOL0     H54057   3.950   9.001   1.349  1.0605  1.8260 -1.6056
  410MOL0     H54058   3.808   8.928   1.261  0.5235  1.5972 -1.8950
  410MOL0     H54059   3.657   9.050   1.401  0.5212 -1.4334 -1.3449
  410MOL0     H54060   3.785   9.174   1.437 -1.1079 -0.4498 -1.2715
  410MOL0     H54061   3.904   8.979   1.564 -0.6402  1.4588  1.5666
  410MOL0     H54062   3.759   8.893   1.532 -2.5168  1.1863 -2.1427
  410MOL0     H54063   3.785   9.028   1.766  2.7446 -0.8161 -1.5348
  410MOL0     H54064   3.756   9.165   1.658 -0.2145  0.0617  0.1785
  410MOL0     H54065   3.560   8.929   1.675 -0.3505 -0.4063 -0.1154
  410MOL0     H54066   3.539   9.058   1.568 -0.4042 -2.8503 -0.1790
  410MOL0     H54067   3.530   9.222   1.751 -0.7838  0.1160 -1.1149
  410MOL0     H54068   3.559   9.089   1.867  0.3585  2.7613  1.7467
  410MOL0     H54069   3.318   9.077   1.673 -1.3762 -2.9300  0.0922
  410MOL0     H54070   3.330   9.008   1.827  0.7843  0.7772  0.9796
  410MOL0     H54071   3.291   9.313   1.748 -1.7535  0.5385 -0.1818
  410MOL0     H54072   3.335   9.268   1.902  0.8350 -0.2438 -0.7405
  410MOL0     H54073   3.147   9.017   1.967 -1.3846 -0.2540 -0.1621
  410MOL0     H54074   2.799   9.014   1.958 -2.0933  1.1714  0.0877
  410MOL0     H54075   2.798   9.121   2.099 -0.2619 -2.3506  0.1779
  410MOL0     H54076   2.993   8.890   2.101  1.4073  1.0084  2.0557
  410MOL0     H54077   2.832   8.896   2.177 -0.5626 -0.6348  0.2302
  410MOL0     H54078   3.057   9.115   2.223  1.6984 -2.1624 -2.0855
  410MOL0     H54079   2.895   9.100   2.301 -0.7877 -0.2801 -1.6408
  410MOL0     H54080   3.050   9.011   2.455  0.7847 -0.9731 -0.2201
  410MOL0     H54081   3.119   8.896   2.329  0.9144  1.6266 -2.3088
  410MOL0     H54082   2.845   9.094   2.549  0.3953 -0.9141  2.3774
  410MOL0     H54083   2.636   9.120   2.668 -2.4991 -0.1958  0.9751
  410MOL0     H54084   2.129   8.770   2.576  1.8218  0.1212 -0.1916
  410MOL0     H54085   1.890   8.803   2.641 -0.2704  1.0820 -0.6611
  410MOL0     H54086   1.811   9.050   2.987 -1.1153 -2.0423  2.7956
  410MOL0     H54087   1.670   8.973   3.031 -2.3594 -0.6936 -0.5919
  410MOL0     H54088   1.707   9.032   2.729 -0.9120 -0.7069  0.2814
  410MOL0     H54089   1.707   9.174   2.836  2.5125  0.1027 -1.8762
  410MOL0     H54090   1.472   8.992   2.793  1.3814 -1.5952  0.7251
  410MOL0     H54091   1.514   9.141   2.712  1.3875 -1.0218 -0.1607
  410MOL0     H54092   1.451   9.104   3.019  3.5497 -0.0594  0.9481
  410MOL0     H54093   1.519   9.249   2.964 -0.8268 -0.0637  0.1013
  410MOL0     H54094   1.274   9.130   2.849 -0.8679  1.3334 -0.4628
  410MOL0     H54095   1.322   9.305   2.839 -3.2815  1.0303  1.2644
  410MOL0     H54096   1.293   9.324   3.091  0.4347  0.3879 -0.8081
  410MOL0     H54097   1.222   9.165   3.081 -1.9462 -0.3187 -0.9123
  410MOL0     H54098   1.123   9.397   2.927 -1.8017  0.6357 -0.2515
  410MOL0     H54099   1.047   9.243   2.914  1.2700 -0.1800  0.4972
  410MOL0     H54100   1.048   9.418   3.157 -2.7380  0.8463 -1.2381
  410MOL0     H54101   1.045   9.241   3.179 -1.1377  0.9657  1.6445
  410MOL0     H54102   2.002   8.961   3.020  0.0107 -1.6820  0.9640
  410MOL0     H54103   2.256   8.972   2.931  0.1197 -1.0020 -0.0702
  410MOL0     H54104   2.532   8.708   2.579 -2.8300  0.6776 -0.5304
  410MOL0     H54105   2.753   8.673   2.474  0.2313 -0.2509  0.8194
  410MOL0     H54106   3.766   9.199   0.990  2.5672  4.7111 -1.9542
  410MOL0     H54107   3.895   9.197   0.771  2.8233  0.4471 -0.9273
  410MOL0     H54108   4.161   9.058   0.505 -0.1358  0.6451  0.0509
  410MOL0     H54109   4.285   9.035   0.279  0.9440 -0.9908 -2.0086
  410MOL0     H54110   4.422   8.966   0.117 -1.2905 -2.5633  0.0916
  410MOL0     H54111   4.530   8.829   0.160  0.6521 -0.2040  1.6180
  410MOL0     H54112   4.616   8.918  -0.045  1.0546 -0.3280 -0.5229
  410MOL0     H54113   4.615   9.088   0.018  1.1309 -0.0645 -1.7528
  410MOL0     H54114   4.768   8.871   0.146 -0.2657  0.3144  0.1074
  410MOL0     H54115   4.805   9.050   0.154  1.5954 -0.6678  0.7322
  410MOL0     H54116   4.855   9.062  -0.085  1.7944 -0.5946 -1.4677
  410MOL0     H54117   4.969   8.969   0.005  1.3457 -2.2260 -2.3975
  410MOL0     H54118   4.811   8.691  -0.273 -1.7636 -1.5743  0.9012
  410MOL0     H54119   4.656   9.071   0.483 -0.2590 -1.2335 -2.7783
  410MOL0     H54120   4.533   9.124   0.704 -0.8678  1.4658  0.8330
  411MOL0     O54121   3.935   3.616   7.243  0.5911 -0.0214  0.0066
  411MOL0     C54122   4.039   3.643   7.307  0.3835  0.4230  0.4323
  411MOL0     O54123   4.049   3.656   7.448  0.1768  0.3009  0.1972
  411MOL0     C54124   3.939   3.634   7.523 -0.0118  0.9458 -0.6211
  411MOL0     C54125   3.870   3.505   7.515 -0.2801  0.1171  0.5609
  411MOL0     C54126   3.773   3.469   7.616 -0.9041  0.0403  1.5001
  411MOL0     C54127   3.733   3.564   7.705  0.2689 -0.6183 -0.5396
  411MOL0     O54128   3.617   3.560   7.786 -0.0686  0.0506 -0.3617
  411MOL0     C54129   3.498   3.580   7.707  0.3582  1.0373 -0.1762
  411MOL0     C54130   3.358   3.542   7.767  0.3820  0.1704 -0.2131
  411MOL0     C54131   3.249   3.644   7.736  0.9942  0.7147  0.7053
  411MOL0     C54132   3.112   3.616   7.798 -0.2942 -0.3237 -0.0505
  411MOL0     C54133   3.037   3.736   7.791 -0.6969 -0.2412 -0.6102
  411MOL0     C54134   2.888   3.695   7.791 -0.6206  0.1953 -0.4119
  411MOL0     C54135   2.799   3.819   7.796  0.4363  0.3006 -0.3131
  411MOL0     C54136   2.654   3.784   7.863 -0.1881  1.0976 -0.0954
  411MOL0     N54137   2.578   3.682   7.782 -0.0798 -0.0785  0.2858
  411MOL0     C54138   2.487   3.713   7.688  1.0054 -0.3077 -0.0141
  411MOL0     C54139   2.431   3.595   7.648  0.6620 -0.0810 -0.5504
  411MOL0     C54140   2.321   3.580   7.550 -0.1954  0.5623 -0.2008
  411MOL0     C54141   2.188   3.600   7.621 -0.8841  0.0647  0.3050
  411MOL0     C54142   2.069   3.514   7.568 -0.4914 -0.2403  0.6054
  411MOL0     C54143   1.941   3.543   7.646 -1.0289 -0.9985  0.2801
  411MOL0     O54144   1.971   3.544   7.785  0.4805 -0.1072  0.6684
  411MOL0     C54145   1.876   3.577   7.876 -0.0482 -0.2150  0.3652
  411MOL0     C54146   1.887   3.511   7.993  0.3763 -0.0587  0.1795
  411MOL0     C54147   1.776   3.521   8.086  0.1070 -0.6203  0.0589
  411MOL0     C54148   1.662   3.601   8.059 -0.3506 -0.5319 -0.0494
  411MOL0     C54149   1.550   3.606   8.155 -0.8475  0.1834  0.3654
  411MOL0     O54150   1.506   3.491   8.204  0.3464  0.1660  0.4719
  411MOL0     C54151   1.411   3.493   8.301  0.2823  0.1105 -0.0337
  411MOL0     C54152   1.288   3.562   8.283 -0.2501  0.5823  0.8875
  411MOL0     C54153   1.186   3.557   8.378  1.3155  0.4633 -0.2595
  411MOL0     C54154   1.203   3.464   8.491  0.6725  1.2617  0.8198
  411MOL0     O54155   1.093   3.434   8.579  0.0060 -0.5342 -0.0663
  411MOL0     C54156   0.990   3.527   8.601 -0.6809  0.2561  0.3431
  411MOL0     C54157   0.998   3.572   8.753  0.4120  0.7266 -0.6404
  411MOL0     C54158   1.136   3.637   8.795  0.6126 -0.2916 -0.0131
  411MOL0     C54159   1.135   3.673   8.942 -1.0095 -0.0541  0.1242
  411MOL0     C54160   1.078   3.818   8.961  0.3192 -0.2101  1.3761
  411MOL0     C54161   1.070   3.880   9.097  0.4700 -0.0809 -0.6635
  411MOL0     C54162   0.989   3.799   9.198  0.9935  0.2812 -0.1506
  411MOL0     C54163   0.848   3.749   9.141 -0.2422  0.2062  0.1164
  411MOL0    Cl54164   0.743   3.898   9.116 -0.5815  0.5147  0.2269
  411MOL0     C54165   1.324   3.389   8.497  0.5438 -0.4575 -0.2518
  411MOL0     C54166   1.426   3.413   8.408  0.4520  0.5703  0.4642
  411MOL0     O54167   1.498   3.718   8.173 -0.4544  0.1422  0.3318
  411MOL0     C54168   1.663   3.683   7.939 -0.3971 -0.1841 -0.7243
  411MOL0     C54169   1.769   3.667   7.853 -0.9000 -0.0386 -0.1914
  411MOL0     N54170   2.487   3.490   7.717 -0.2890 -0.2672 -0.0381
  411MOL0     N54171   2.586   3.542   7.790 -0.2943 -0.1107 -0.3055
  411MOL0     C54172   3.806   3.686   7.714  0.1823  0.1969 -0.2599
  411MOL0     C54173   3.912   3.718   7.630  0.4429 -0.1634 -1.2289
  411MOL0     C54174   4.154   3.697   7.229 -0.7912 -0.2533  0.1287
  411MOL0     C54175   4.148   3.693   7.091 -0.4759  0.8894  0.1336
  411MOL0     C54176   4.258   3.732   7.015 -1.2816 -0.4154 -0.5062
  411MOL0     C54177   4.373   3.778   7.076 -0.4594 -0.1295  0.4221
  411MOL0     O54178   4.481   3.839   7.007  0.4642  0.2009 -0.5843
  411MOL0     C54179   4.510   3.799   6.869  0.7722  0.4963 -1.1095
  411MOL0     C54180   4.659   3.783   6.849  1.0251 -0.4113  0.3256
  411MOL0     C54181   4.689   3.759   6.709 -0.2807  0.1713  1.0413
  411MOL0     C54182   4.762   3.622   6.689  0.7583  0.0844 -0.4894
  411MOL0     C54183   4.901   3.644   6.723 -0.3444  0.3169 -0.5258
  411MOL0     C54184   5.022   3.646   6.740  0.0717  1.6788 -0.4634
  411MOL0     C54185   4.370   3.795   7.209  0.8869 -0.9651 -0.3597
  411MOL0     C54186   4.264   3.752   7.291 -0.0016  0.3245 -1.0112
  411MOL0     H54187   3.910   3.445   7.434 -2.8852  0.9837 -1.5115
  411MOL0     H54188   3.719   3.376   7.622 -0.0403 -0.5206  0.8287
  411MOL0     H54189   3.510   3.531   7.611  0.1739  1.8798 -0.6375
  411MOL0     H54190   3.501   3.688   7.692  2.5546  1.7227  3.8124
  411MOL0     H54191   3.368   3.543   7.876 -0.2124 -1.5109 -0.1156
  411MOL0     H54192   3.317   3.444   7.742 -1.8529  0.9329  0.2315
  411MOL0     H54193   3.230   3.654   7.629 -0.3130 -0.0785  0.8375
  411MOL0     H54194   3.277   3.747   7.760  0.0195  0.7445  1.8199
  411MOL0     H54195   3.064   3.534   7.745  0.9944  0.1110 -2.0044
  411MOL0     H54196   3.120   3.582   7.902 -0.5247  0.3554  0.1953
  411MOL0     H54197   3.061   3.801   7.706  0.6900  0.9306  0.6178
  411MOL0     H54198   3.063   3.799   7.877 -3.6771  0.7240 -0.2704
  411MOL0     H54199   2.865   3.633   7.878  1.0981  2.3720  1.7330
  411MOL0     H54200   2.859   3.645   7.698  0.9086  1.2152 -1.4789
  411MOL0     H54201   2.846   3.880   7.873 -1.9675 -1.8092  3.1154
  411MOL0     H54202   2.801   3.862   7.696  0.1609 -0.3671 -0.6109
  411MOL0     H54203   2.588   3.869   7.884 -2.3190 -0.9491  1.9322
  411MOL0     H54204   2.673   3.752   7.965 -1.3765  0.7066  0.0141
  411MOL0     H54205   2.466   3.810   7.645  2.6106  0.2286  0.3676
  411MOL0     H54206   2.308   3.478   7.513  0.9901  0.7554 -1.2366
  411MOL0     H54207   2.326   3.644   7.462  0.0962 -3.4653 -3.3759
  411MOL0     H54208   2.154   3.703   7.609 -3.5977 -0.8148 -0.4250
  411MOL0     H54209   2.201   3.590   7.729  3.0493 -0.0637 -0.0555
  411MOL0     H54210   2.042   3.542   7.466 -1.4140  0.2421  0.9705
  411MOL0     H54211   2.098   3.408   7.569  1.1549  0.0114 -3.2107
  411MOL0     H54212   1.853   3.479   7.636 -0.0412 -2.5614  1.2620
  411MOL0     H54213   1.903   3.640   7.613 -2.2381 -1.4902  0.1667
  411MOL0     H54214   1.966   3.439   8.012 -0.3911 -1.0497 -0.2474
  411MOL0     H54215   1.779   3.467   8.181  0.9031 -2.3856 -0.9125
  411MOL0     H54216   1.294   3.618   8.190  0.4510 -0.1501  0.4783
  411MOL0     H54217   1.090   3.604   8.358  0.4599 -1.5451 -1.0787
  411MOL0     H54218   0.897   3.470   8.596 -0.3021 -0.6180  2.2152
  411MOL0     H54219   0.993   3.617   8.539  0.6822 -0.5404 -0.8038
  411MOL0     H54220   0.973   3.486   8.817  1.7988  0.5775 -0.2673
  411MOL0     H54221   0.918   3.645   8.767  0.8004  1.0477 -0.0373
  411MOL0     H54222   1.156   3.729   8.739  1.7039  0.4782  1.5770
  411MOL0     H54223   1.218   3.571   8.766  1.0030  0.3817 -0.4883
  411MOL0     H54224   1.083   3.603   9.008 -0.4547  0.5368  1.2267
  411MOL0     H54225   1.240   3.669   8.974 -0.3426  1.0451 -1.7784
  411MOL0     H54226   0.979   3.817   8.916  0.1944 -2.0879  1.6484
  411MOL0     H54227   1.152   3.878   8.907  3.1563 -2.3563  2.6195
  411MOL0     H54228   1.039   3.985   9.090  2.7272  0.8749  2.2206
  411MOL0     H54229   1.160   3.895   9.157  0.2060  3.7636 -0.9667
  411MOL0     H54230   1.043   3.710   9.230 -1.8354 -2.1353 -1.6357
  411MOL0     H54231   0.979   3.867   9.284 -2.1192  1.9232 -1.6285
  411MOL0     H54232   0.796   3.686   9.214  1.2972 -2.1576 -0.7154
  411MOL0     H54233   0.861   3.682   9.056 -0.8083 -0.4973  0.5674
  411MOL0     H54234   1.322   3.308   8.569 -0.6976 -0.7909 -0.6467
  411MOL0     H54235   1.522   3.364   8.404  0.5514  0.8462 -0.7760
  411MOL0     H54236   1.594   3.765   7.930  1.2539  2.0697  3.9794
  411MOL0     H54237   1.764   3.730   7.765  1.5853  0.5266  0.0005
  411MOL0     H54238   3.767   3.743   7.798  0.3308 -1.7524  1.2088
  411MOL0     H54239   3.977   3.803   7.649 -0.6978  0.0644  2.1447
  411MOL0     H54240   4.062   3.669   7.029  1.1209  2.6297 -2.9890
  411MOL0     H54241   4.257   3.735   6.907  0.0427 -0.1744 -0.5254
  411MOL0     H54242   4.471   3.870   6.796  1.0874  0.3556 -1.4178
  411MOL0     H54243   4.472   3.698   6.852  2.5230 -0.3104 -0.5532
  411MOL0     H54244   4.707   3.876   6.883 -2.5184  1.1942  1.4848
  411MOL0     H54245   4.692   3.691   6.898 -1.4571 -1.2483  0.5635
  411MOL0     H54246   4.750   3.843   6.675 -3.0311  0.7765 -3.1765
  411MOL0     H54247   4.594   3.759   6.655  0.3824  0.3782 -0.1514
  411MOL0     H54248   4.712   3.549   6.753 -2.1144  1.0354 -1.4865
  411MOL0     H54249   4.753   3.587   6.586  2.7965 -2.4465  0.0779
  411MOL0     H54250   5.129   3.644   6.746  0.4813 -2.3726 -4.0224
  411MOL0     H54251   4.449   3.840   7.269  0.6993  0.1816 -0.9550
  411MOL0     H54252   4.267   3.759   7.399 -1.9420 -1.7269 -0.7520
  412MOL0     O54253   4.481  10.165   6.092  0.3776  0.4936  0.1089
  412MOL0     C54254   4.540  10.262   6.134  1.1446  0.3080 -0.4027
  412MOL0     O54255   4.559  10.296   6.264 -0.3697 -0.8439 -0.1412
  412MOL0     C54256   4.485  10.237   6.360  0.2841 -0.1891 -0.2897
  412MOL0     C54257   4.347  10.227   6.349 -0.2375  0.2745  1.2668
  412MOL0     C54258   4.266  10.172   6.444  0.8405 -0.3490 -0.2960
  412MOL0     C54259   4.323  10.134   6.563  0.1499 -0.7478  0.3491
  412MOL0     O54260   4.243  10.088   6.658 -0.1600  0.0602 -0.1031
  412MOL0     C54261   4.280  10.111   6.801 -0.2955 -0.0476 -0.0248
  412MOL0     C54262   4.156  10.102   6.886  1.4134  0.4537  0.0825
  412MOL0     C54263   4.063   9.985   6.853 -0.0917  0.8808  0.3310
  412MOL0     C54264   3.938   9.974   6.940  0.3996  0.2903 -0.3061
  412MOL0     C54265   3.842   9.864   6.877  0.0930  0.0525  0.0048
  412MOL0     C54266   3.735   9.808   6.964  0.7070 -0.2336  0.2273
  412MOL0     C54267   3.599   9.889   6.952 -0.0316 -0.4293 -0.8038
  412MOL0     C54268   3.515   9.878   7.080 -0.0357 -0.1010  0.3285
  412MOL0     N54269   3.554   9.983   7.180 -0.1088  0.3992  0.0956
  412MOL0     C54270   3.548  10.120   7.176  0.5339  0.5715  0.6581
  412MOL0     C54271   3.606  10.164   7.279 -1.1158  1.0691 -0.5609
  412MOL0     C54272   3.641  10.306   7.307  0.0453 -0.4819  0.0516
  412MOL0     C54273   3.796  10.317   7.339  0.1782  0.0096 -0.1746
  412MOL0     C54274   3.843  10.461   7.350  0.5326 -0.0580 -0.6772
  412MOL0     C54275   3.983  10.494   7.383 -0.2520 -0.2569  0.4839
  412MOL0     O54276   4.057  10.437   7.276 -0.1610 -0.1561 -0.1277
  412MOL0     C54277   4.192  10.465   7.264 -0.7101  0.8800 -0.2753
  412MOL0     C54278   4.265  10.551   7.351 -0.7578  0.0316  0.3370
  412MOL0     C54279   4.391  10.598   7.335  0.1279  0.1661 -0.5401
  412MOL0     C54280   4.458  10.568   7.220 -0.0676  1.0512 -0.3060
  412MOL0     C54281   4.591  10.619   7.198  0.8155  0.1007  0.5665
  412MOL0     O54282   4.664  10.660   7.312  0.1403 -0.1850 -0.5739
  412MOL0     C54283   4.781  10.736   7.300 -0.7538  0.6586  0.3200
  412MOL0     C54284   4.885  10.675   7.225 -0.2572  0.8181  1.0908
  412MOL0     C54285   5.002  10.746   7.177  0.4490  0.5704 -0.2820
  412MOL0     C54286   5.015  10.886   7.202  0.4414 -0.9627 -0.6093
  412MOL0     O54287   5.118  10.981   7.176  0.0662  0.3120  0.3565
  412MOL0     C54288   5.230  10.928   7.106  0.4342 -0.1737 -0.7102
  412MOL0     C54289   5.344  11.027   7.123 -0.1623  0.9052 -0.7252
  412MOL0     C54290   5.481  10.947   7.113 -0.4916 -0.5228 -0.7253
  412MOL0     C54291   5.603  11.041   7.108 -0.3117 -0.5059  0.4810
  412MOL0     C54292   5.615  11.123   7.227  0.7207  0.3076  0.0864
  412MOL0     C54293   5.746  11.203   7.228  0.1188 -0.3749  0.2399
  412MOL0     C54294   5.780  11.260   7.362  0.8899 -0.2021  0.6879
  412MOL0     C54295   5.927  11.308   7.372 -0.8748  0.6905  0.6468
  412MOL0    Cl54296   6.049  11.160   7.375  0.0520 -0.4685  0.0014
  412MOL0     C54297   4.908  10.938   7.284 -0.6900 -1.1326  0.1020
  412MOL0     C54298   4.799  10.869   7.327  0.0320  0.7254 -1.0638
  412MOL0     O54299   4.626  10.620   7.077 -0.0372 -0.5445 -0.0090
  412MOL0     C54300   4.384  10.487   7.123 -0.0819  0.3947  0.2913
  412MOL0     C54301   4.258  10.431   7.146  0.3644  0.3412  0.6452
  412MOL0     N54302   3.645  10.049   7.361 -0.3097 -0.4121  0.4928
  412MOL0     N54303   3.614   9.947   7.289 -0.2388 -0.0615 -0.0455
  412MOL0     C54304   4.465  10.153   6.585  0.1901 -0.9264  0.6780
  412MOL0     C54305   4.549  10.209   6.485  0.3167 -1.0874 -0.4199
  412MOL0     C54306   4.594  10.355   6.027 -0.0091  0.5214  0.5538
  412MOL0     C54307   4.700  10.440   6.054  0.1460  0.5680 -0.3810
  412MOL0     C54308   4.761  10.517   5.957  0.0238 -0.9825  0.4476
  412MOL0     C54309   4.703  10.533   5.829 -0.0521  0.6105  0.4735
  412MOL0     O54310   4.755  10.617   5.742 -0.3203  0.1601 -0.1731
  412MOL0     C54311   4.731  10.611   5.601 -0.2336 -0.2900  0.3830
  412MOL0     C54312   4.851  10.675   5.527  1.2338  0.0826 -0.1733
  412MOL0     C54313   4.983  10.609   5.578  0.1929  0.3874  0.0291
  412MOL0     C54314   5.074  10.710   5.641  0.9007  0.8194  0.0335
  412MOL0     C54315   5.189  10.649   5.698 -0.0973 -0.2600  0.8231
  412MOL0     C54316   5.283  10.593   5.746  0.1527  0.1879  0.1240
  412MOL0     C54317   4.600  10.442   5.797 -0.9199  0.2553 -0.0313
  412MOL0     C54318   4.549  10.357   5.890  0.6157 -1.5190 -0.3439
  412MOL0     H54319   4.300  10.246   6.253 -0.3681  1.7417  1.5999
  412MOL0     H54320   4.165  10.142   6.417  0.4662 -0.8146  1.5087
  412MOL0     H54321   4.330  10.207   6.816 -1.7035  0.6155  0.5742
  412MOL0     H54322   4.353  10.036   6.830 -0.6902  0.0445  1.2563
  412MOL0     H54323   4.104  10.196   6.903  1.1547  0.4737 -0.7833
  412MOL0     H54324   4.187  10.078   6.988 -2.5533 -1.0247  1.1481
  412MOL0     H54325   4.115   9.890   6.871 -1.2254  0.1789  0.0304
  412MOL0     H54326   4.027   9.982   6.750 -1.9780 -4.7887  0.7748
  412MOL0     H54327   3.954   9.952   7.046  0.6840 -1.2462 -0.6321
  412MOL0     H54328   3.885  10.069   6.943  1.4475  0.8715  0.1899
  412MOL0     H54329   3.899   9.777   6.842  0.2516  0.2398 -0.1985
  412MOL0     H54330   3.794   9.910   6.790 -2.8904 -2.1308  0.3173
  412MOL0     H54331   3.776   9.800   7.065 -0.3675  1.5530  0.8471
  412MOL0     H54332   3.709   9.706   6.933 -0.0985  0.5838 -1.9686
  412MOL0     H54333   3.616   9.994   6.925  2.1560  0.2909  2.6364
  412MOL0     H54334   3.536   9.841   6.877  1.5303 -2.3404 -0.9844
  412MOL0     H54335   3.521   9.779   7.127 -3.2514 -0.2201  0.7111
  412MOL0     H54336   3.409   9.885   7.053 -0.0908 -0.8662  0.3122
  412MOL0     H54337   3.514  10.167   7.085  2.6930  1.6874  0.3499
  412MOL0     H54338   3.578  10.360   7.378  0.9825  1.6333 -0.6295
  412MOL0     H54339   3.631  10.370   7.219  3.1063 -3.5025 -2.7855
  412MOL0     H54340   3.851  10.260   7.263 -2.3657 -2.4635 -0.3223
  412MOL0     H54341   3.809  10.271   7.437  0.0783  0.3188 -0.0154
  412MOL0     H54342   3.815  10.508   7.255 -0.0500  0.4284 -0.2721
  412MOL0     H54343   3.783  10.504   7.431  0.5536  0.5977 -1.0006
  412MOL0     H54344   4.012  10.456   7.482  1.3685  2.5657  1.2154
  412MOL0     H54345   3.991  10.603   7.391 -3.0718 -0.0355  1.7087
  412MOL0     H54346   4.208  10.581   7.439  0.4254  0.0430  1.1195
  412MOL0     H54347   4.430  10.665   7.411 -0.0746  0.8813 -1.0623
  412MOL0     H54348   4.872  10.572   7.191  0.2865  0.4754  1.8860
  412MOL0     H54349   5.074  10.697   7.111  0.5041  0.8989 -0.4646
  412MOL0     H54350   5.197  10.906   7.004  0.9215 -1.2404 -0.6623
  412MOL0     H54351   5.255  10.836   7.161 -1.2075  1.2699  2.7590
  412MOL0     H54352   5.333  11.076   7.221 -3.5492  2.1826 -1.6155
  412MOL0     H54353   5.335  11.102   7.044  0.4779 -0.2052 -1.8798
  412MOL0     H54354   5.484  10.896   7.016 -0.2957 -1.1360 -0.4055
  412MOL0     H54355   5.494  10.865   7.184 -1.9180 -1.6709 -1.7128
  412MOL0     H54356   5.688  10.982   7.075 -0.5330 -1.0208  0.8287
  412MOL0     H54357   5.592  11.113   7.026 -1.9573 -2.7442 -1.4127
  412MOL0     H54358   5.606  11.060   7.316  0.3664  1.5244  0.9274
  412MOL0     H54359   5.534  11.196   7.229 -0.3759 -0.8791  0.8343
  412MOL0     H54360   5.735  11.288   7.159 -1.7071 -1.7056 -1.2123
  412MOL0     H54361   5.827  11.140   7.191 -1.5840 -1.5848 -1.6247
  412MOL0     H54362   5.706  11.338   7.383 -2.1096 -2.5008 -0.6350
  412MOL0     H54363   5.778  11.181   7.438  3.9414 -1.2952 -0.2166
  412MOL0     H54364   5.941  11.357   7.469  3.0827 -3.7387  2.7456
  412MOL0     H54365   5.955  11.372   7.288  0.3102 -0.3149  0.2339
  412MOL0     H54366   4.910  11.039   7.323 -4.3701 -0.5961 -0.7580
  412MOL0     H54367   4.719  10.922   7.379  2.5798  2.4935  1.3744
  412MOL0     H54368   4.422  10.461   7.024 -3.0605  1.7318 -1.3344
  412MOL0     H54369   4.209  10.372   7.069 -2.0557 -1.4922  3.3653
  412MOL0     H54370   4.508  10.119   6.679  1.4683  1.2557  0.9442
  412MOL0     H54371   4.655  10.230   6.498  0.6390 -2.8296  0.0333
  412MOL0     H54372   4.734  10.427   6.156  2.6076 -1.9812 -1.3949
  412MOL0     H54373   4.846  10.575   5.995  0.6408 -2.1248  0.8665
  412MOL0     H54374   4.633  10.654   5.577  0.1798  1.0509  1.0040
  412MOL0     H54375   4.725  10.507   5.569 -0.4024 -0.0700 -0.3090
  412MOL0     H54376   4.842  10.656   5.420  0.5787 -1.4215  0.1178
  412MOL0     H54377   4.846  10.781   5.550 -2.2504 -0.1841  0.8845
  412MOL0     H54378   5.022  10.565   5.486 -2.2353 -0.1258 -0.8209
  412MOL0     H54379   4.953  10.523   5.639 -1.1454  2.0574  1.8839
  412MOL0     H54380   5.116  10.772   5.561  0.3352 -0.3807 -1.2326
  412MOL0     H54381   5.017  10.765   5.716  0.1110 -0.1231  0.1411
  412MOL0     H54382   5.360  10.529   5.784 -0.5109 -0.1726  0.8829
  412MOL0     H54383   4.564  10.438   5.694 -0.9906 -0.4509  0.0193
  412MOL0     H54384   4.461  10.298   5.866  1.2466 -2.4418 -0.4528
  413MOL0     O54385   7.466   3.456   3.818 -0.2322 -0.2047  0.7501
  413MOL0     C54386   7.377   3.424   3.739 -0.1395 -1.4231 -0.2409
  413MOL0     O54387   7.385   3.320   3.658 -0.1736 -0.2522  0.0691
  413MOL0     C54388   7.480   3.217   3.674  0.4509  0.6226 -0.2797
  413MOL0     C54389   7.499   3.127   3.566 -0.5860 -0.4867  0.9773
  413MOL0     C54390   7.592   3.027   3.579  0.0202 -0.6766 -1.0501
  413MOL0     C54391   7.668   3.007   3.697 -0.6777 -0.5057 -0.3513
  413MOL0     O54392   7.764   2.910   3.715 -0.3036 -0.7282 -0.3759
  413MOL0     C54393   7.809   2.828   3.609 -0.0738 -0.0504  0.3424
  413MOL0     C54394   7.721   2.705   3.593 -0.5707 -0.0463 -0.4731
  413MOL0     C54395   7.754   2.594   3.700 -0.0789  0.3168  0.1881
  413MOL0     C54396   7.649   2.474   3.670  0.3091  1.0492 -1.0040
  413MOL0     C54397   7.522   2.490   3.753  0.6665  0.0188 -0.5654
  413MOL0     C54398   7.416   2.402   3.685 -0.0591 -0.7970 -1.0358
  413MOL0     C54399   7.277   2.437   3.733  1.5810  0.4285  0.1156
  413MOL0     C54400   7.170   2.417   3.625 -0.2310 -0.5752  0.4368
  413MOL0     N54401   7.035   2.396   3.672  0.2973  0.8302  0.1703
  413MOL0     C54402   6.963   2.483   3.752 -0.7147 -0.0768 -0.0097
  413MOL0     C54403   6.850   2.414   3.772  0.3481 -0.5306  0.7894
  413MOL0     C54404   6.741   2.493   3.844 -0.8450 -0.4547  0.2797
  413MOL0     C54405   6.662   2.424   3.943 -0.1806  0.1675 -0.5016
  413MOL0     C54406   6.553   2.329   3.882  0.4541 -0.4773 -0.2278
  413MOL0     C54407   6.432   2.301   3.973 -0.7837 -0.1258 -0.4637
  413MOL0     O54408   6.346   2.416   3.981  0.0727  0.0885 -0.2377
  413MOL0     C54409   6.221   2.386   4.028  0.6476  0.1139  0.3442
  413MOL0     C54410   6.112   2.427   3.951 -0.2744  0.6144 -0.3062
  413MOL0     C54411   5.979   2.380   3.983 -0.0399 -0.3882  0.2217
  413MOL0     C54412   5.954   2.315   4.104 -0.5421  0.2048  0.0979
  413MOL0     C54413   5.823   2.289   4.150  0.3409 -0.8247 -0.4741
  413MOL0     O54414   5.806   2.228   4.275 -0.2483  0.9742 -0.1007
  413MOL0     C54415   5.684   2.170   4.304 -0.2209  0.0127 -0.0988
  413MOL0     C54416   5.660   2.118   4.432  0.5886 -0.5174 -0.9781
  413MOL0     C54417   5.550   2.049   4.476 -0.3618 -0.4133  0.5737
  413MOL0     C54418   5.449   2.031   4.385 -0.2773 -0.0465 -0.2727
  413MOL0     O54419   5.338   1.967   4.425  0.9515 -0.0334  0.5341
  413MOL0     C54420   5.217   2.027   4.389 -0.1970  0.4128 -0.1805
  413MOL0     C54421   5.111   1.982   4.489  0.1045  0.2981 -0.3318
  413MOL0     C54422   5.156   1.981   4.633 -0.7591 -0.2739 -0.0685
  413MOL0     C54423   5.042   1.984   4.736 -0.6087 -0.1041  0.3419
  413MOL0     C54424   5.082   1.923   4.869  1.2212  0.3188  1.0842
  413MOL0     C54425   4.963   1.950   4.959  0.9168  0.3471 -0.4461
  413MOL0     C54426   4.957   1.882   5.100 -0.7730  0.2761  0.1876
  413MOL0     C54427   4.827   1.900   5.180 -0.3600 -0.7054  0.7586
  413MOL0    Cl54428   4.874   1.841   5.346  0.2278 -0.4568  0.1532
  413MOL0     C54429   5.471   2.059   4.249 -0.2911 -0.5732 -0.0259
  413MOL0     C54430   5.588   2.127   4.210  0.2946  0.2768  0.6014
  413MOL0     O54431   5.725   2.330   4.084 -0.4559  0.1635 -0.3277
  413MOL0     C54432   6.068   2.266   4.178  0.1944  1.1612 -0.8747
  413MOL0     C54433   6.199   2.303   4.138  0.1426  0.4479  1.0516
  413MOL0     N54434   6.847   2.291   3.711 -0.3000  0.3605 -0.2734
  413MOL0     N54435   6.959   2.278   3.649 -0.6791 -0.3322  0.0141
  413MOL0     C54436   7.634   3.076   3.805  0.7969  0.0430 -0.6325
  413MOL0     C54437   7.535   3.178   3.801  0.2799  0.6325  0.8605
  413MOL0     C54438   7.250   3.508   3.762 -0.1655 -0.3434  0.3847
  413MOL0     C54439   7.236   3.591   3.871 -0.5647 -0.7356  0.5358
  413MOL0     C54440   7.105   3.639   3.900  0.9473  0.0314 -0.4096
  413MOL0     C54441   6.993   3.615   3.822 -0.9155  0.5976 -0.3524
  413MOL0     O54442   6.869   3.640   3.860  0.0944 -0.0745  0.8705
  413MOL0     C54443   6.754   3.600   3.792 -0.5000 -0.5311  0.0206
  413MOL0     C54444   6.654   3.665   3.890  0.0294 -0.8183  0.6659
  413MOL0     C54445   6.528   3.651   3.823  0.8514 -0.1040 -0.4345
  413MOL0     C54446   6.434   3.750   3.884 -0.4160 -0.0744  0.3471
  413MOL0     C54447   6.299   3.742   3.828 -0.3108 -0.0292 -0.0632
  413MOL0     C54448   6.187   3.758   3.772  0.2098  0.7665 -0.3922
  413MOL0     C54449   7.018   3.535   3.704 -0.4066 -0.5090 -0.8963
  413MOL0     C54450   7.145   3.484   3.681  0.1753  1.5150  0.8140
  413MOL0     H54451   7.452   3.157   3.473 -1.5624 -2.8121  0.6573
  413MOL0     H54452   7.610   2.975   3.485 -1.2203  0.0763 -1.7217
  413MOL0     H54453   7.911   2.790   3.625  0.3229  1.2286  0.9844
  413MOL0     H54454   7.809   2.886   3.517 -0.7393  2.5215  1.8706
  413MOL0     H54455   7.726   2.669   3.489 -2.5140  1.5502 -1.1946
  413MOL0     H54456   7.615   2.730   3.600 -1.7512 -4.2547 -0.2727
  413MOL0     H54457   7.740   2.639   3.799  0.4798  0.6059  0.1381
  413MOL0     H54458   7.860   2.570   3.684 -0.1247  1.3674 -2.0316
  413MOL0     H54459   7.625   2.475   3.563 -0.5751 -1.0640 -0.8880
  413MOL0     H54460   7.683   2.374   3.700 -0.9172 -0.0924 -3.1384
  413MOL0     H54461   7.489   2.594   3.753 -1.9397 -0.7152 -1.5037
  413MOL0     H54462   7.542   2.444   3.850 -2.0436  0.4198  0.2792
  413MOL0     H54463   7.435   2.294   3.693 -0.1997 -0.7496  0.1293
  413MOL0     H54464   7.406   2.430   3.579 -0.4510  1.9101 -0.3556
  413MOL0     H54465   7.247   2.368   3.813 -2.2684  1.3441 -0.3014
  413MOL0     H54466   7.275   2.544   3.760  1.9009  1.6968 -4.1782
  413MOL0     H54467   7.208   2.331   3.568 -1.3776 -0.3836 -0.6703
  413MOL0     H54468   7.172   2.510   3.567 -0.9877 -0.9644 -0.2464
  413MOL0     H54469   6.972   2.588   3.778 -0.3098  0.2181 -1.2781
  413MOL0     H54470   6.681   2.534   3.762 -0.6217  2.5703  1.5187
  413MOL0     H54471   6.781   2.580   3.896 -3.2080  0.8737  0.0296
  413MOL0     H54472   6.614   2.487   4.019  1.3973 -3.1329  3.6036
  413MOL0     H54473   6.735   2.360   3.993 -1.3852 -0.6254  0.2882
  413MOL0     H54474   6.516   2.372   3.788 -1.4539  1.1677  1.1775
  413MOL0     H54475   6.605   2.239   3.847  2.7493 -0.6218  3.0984
  413MOL0     H54476   6.487   2.275   4.064 -2.9181 -0.5973  0.7375
  413MOL0     H54477   6.379   2.212   3.937 -1.2452 -0.4280  0.9034
  413MOL0     H54478   6.119   2.470   3.852 -0.5362 -1.5083 -1.2820
  413MOL0     H54479   5.899   2.420   3.922  0.4144 -0.3542 -0.3546
  413MOL0     H54480   5.734   2.137   4.510 -0.5577 -1.2836  0.3585
  413MOL0     H54481   5.561   2.018   4.579 -1.6680  1.8313  1.4847
  413MOL0     H54482   5.195   1.997   4.286 -1.0375  0.6366 -0.0736
  413MOL0     H54483   5.230   2.135   4.398 -1.1800  0.3826  2.2285
  413MOL0     H54484   5.084   1.881   4.457 -2.1751  1.0136 -0.8990
  413MOL0     H54485   5.018   2.037   4.470 -1.7849 -2.7048 -0.4720
  413MOL0     H54486   5.215   2.072   4.645  1.1372 -1.3010 -1.2691
  413MOL0     H54487   5.224   1.896   4.646  1.9761  1.5214 -1.7317
  413MOL0     H54488   5.005   2.086   4.744 -3.8342 -1.2935  3.9996
  413MOL0     H54489   4.973   1.914   4.686  0.5769  0.1805 -1.8263
  413MOL0     H54490   5.168   1.971   4.917  1.0016  0.8971  0.9122
  413MOL0     H54491   5.095   1.815   4.857  1.7348  0.4647  0.1865
  413MOL0     H54492   4.876   1.905   4.910  0.1052  1.7324 -0.3435
  413MOL0     H54493   4.944   2.058   4.964 -0.6609  0.1157 -0.9979
  413MOL0     H54494   4.974   1.775   5.083  0.2529  0.3685  0.5519
  413MOL0     H54495   5.041   1.928   5.153  2.5801 -0.8137 -3.6721
  413MOL0     H54496   4.742   1.847   5.135  0.7218 -0.7416 -1.3887
  413MOL0     H54497   4.805   2.006   5.191  0.7989 -0.0280 -2.4579
  413MOL0     H54498   5.403   2.012   4.179  0.7263 -1.1558 -0.6486
  413MOL0     H54499   5.601   2.120   4.103 -2.4332 -1.9182  0.2865
  413MOL0     H54500   6.049   2.200   4.262 -1.5643 -0.0317 -2.1192
  413MOL0     H54501   6.288   2.271   4.190  0.0669 -0.1505  0.8225
  413MOL0     H54502   7.667   3.045   3.904  1.0525 -0.1872 -0.7882
  413MOL0     H54503   7.501   3.219   3.895 -2.6475 -1.6322  0.9581
  413MOL0     H54504   7.322   3.618   3.932  0.0467  1.3888 -1.1471
  413MOL0     H54505   7.088   3.701   3.988  2.1881  1.6316 -1.2341
  413MOL0     H54506   6.764   3.492   3.778  1.7684 -0.1473 -2.0483
  413MOL0     H54507   6.751   3.650   3.695  3.0555 -0.6568 -0.2860
  413MOL0     H54508   6.654   3.635   3.995 -3.2491  2.5676  1.8631
  413MOL0     H54509   6.677   3.772   3.884  1.6446 -1.1728 -0.0749
  413MOL0     H54510   6.477   3.555   3.833 -2.8443  1.8800  2.8239
  413MOL0     H54511   6.530   3.690   3.721 -2.6524 -1.3212 -1.0957
  413MOL0     H54512   6.432   3.735   3.993  0.6606  1.5946  0.6294
  413MOL0     H54513   6.477   3.848   3.865  0.4687 -0.8008 -1.6379
  413MOL0     H54514   6.089   3.772   3.732  0.3188  1.6999 -0.3498
  413MOL0     H54515   6.938   3.497   3.640 -1.2791  0.1094 -0.1874
  413MOL0     H54516   7.164   3.416   3.598  2.3759  1.8240  0.9928
  414MOL0     O54517   9.838  11.007   2.424  0.3695  0.2267  0.1116
  414MOL0     C54518   9.747  10.944   2.481 -0.3739  0.5416 -0.4878
  414MOL0     O54519   9.685  10.978   2.604 -0.2230 -0.2495 -0.2359
  414MOL0     C54520   9.706  11.105   2.643  0.3174 -0.6775  0.5217
  414MOL0     C54521   9.836  11.151   2.677 -1.4138  0.2109 -0.4159
  414MOL0     C54522   9.855  11.292   2.698 -1.1238  0.3173  0.8868
  414MOL0     C54523   9.756  11.381   2.694  0.3961  0.2337 -0.1871
  414MOL0     O54524   9.787  11.510   2.728 -0.3654 -0.1741  0.1095
  414MOL0     C54525   9.709  11.614   2.691 -0.5725  0.2547  1.0203
  414MOL0     C54526   9.648  11.688   2.804  0.4481  0.2268  0.1016
  414MOL0     C54527   9.766  11.733   2.898 -0.2066  0.8950 -0.3801
  414MOL0     C54528   9.808  11.876   2.867  0.2644 -0.2243  0.0587
  414MOL0     C54529   9.934  11.911   2.955 -0.6713  0.2160 -0.9150
  414MOL0     C54530   9.900  11.908   3.102  0.6189  0.3874 -0.8139
  414MOL0     C54531  10.016  11.985   3.170  0.3497 -0.6264 -0.1886
  414MOL0     C54532   9.985  12.008   3.318 -0.1053 -0.0563  0.1045
  414MOL0     N54533   9.972  11.884   3.394  0.1547 -1.0640  0.0240
  414MOL0     C54534  10.061  11.782   3.397  0.3616  0.3707 -0.4377
  414MOL0     C54535  10.008  11.702   3.488  0.2166 -0.0746 -0.5514
  414MOL0     C54536  10.074  11.573   3.528  0.3923 -0.3736 -0.5996
  414MOL0     C54537  10.109  11.556   3.672 -0.6260  0.5551 -0.0653
  414MOL0     C54538  10.227  11.638   3.724  0.1187  0.5721 -0.9120
  414MOL0     C54539  10.306  11.595   3.852 -0.0654 -0.1870 -0.3129
  414MOL0     O54540  10.363  11.460   3.837  0.6371 -0.5527  0.8336
  414MOL0     C54541  10.488  11.434   3.885  0.5029 -0.0403 -0.0484
  414MOL0     C54542  10.529  11.487   4.012 -0.0053  0.2019  0.7027
  414MOL0     C54543  10.660  11.475   4.050 -0.8953 -0.4816  0.2225
  414MOL0     C54544  10.753  11.398   3.973 -0.1382  0.0444  0.9452
  414MOL0     C54545  10.892  11.369   4.021  0.5350  0.7604  0.0367
  414MOL0     O54546  10.907  11.393   4.148 -0.6149 -1.0047 -0.8395
  414MOL0     C54547  11.008  11.342   4.220 -0.4396 -0.2554  0.1846
  414MOL0     C54548  10.992  11.312   4.356 -0.5362 -0.1994  0.2001
  414MOL0     C54549  11.088  11.253   4.436  1.3299  0.1673  0.7856
  414MOL0     C54550  11.213  11.220   4.385 -0.1150  0.4747 -1.1301
  414MOL0     O54551  11.304  11.170   4.472  0.0251 -0.4150 -0.0648
  414MOL0     C54552  11.435  11.147   4.418  1.2205 -0.5899  0.6400
  414MOL0     C54553  11.512  11.047   4.494  0.0304 -0.5834  0.4877
  414MOL0     C54554  11.444  10.918   4.531  0.4085 -0.1750  0.9164
  414MOL0     C54555  11.544  10.827   4.607  0.6282  0.2960 -0.1660
  414MOL0     C54556  11.490  10.696   4.637 -0.2672  0.2681 -0.3237
  414MOL0     C54557  11.399  10.716   4.760 -0.2281  0.8611 -0.0216
  414MOL0     C54558  11.347  10.576   4.795 -0.1831  0.6146  0.4189
  414MOL0     C54559  11.433  10.504   4.893 -0.2570  0.5460  0.1675
  414MOL0    Cl54560  11.361  10.335   4.920 -0.1666 -0.0193 -0.6927
  414MOL0     C54561  11.238  11.252   4.248  0.0001 -0.1907  0.9543
  414MOL0     C54562  11.140  11.312   4.168  0.7216 -0.1237  0.7680
  414MOL0     O54563  10.970  11.321   3.937 -0.0493 -0.4855  0.1167
  414MOL0     C54564  10.714  11.337   3.855 -0.7143  0.0812 -0.4225
  414MOL0     C54565  10.583  11.362   3.817  0.2443  0.0388 -0.2959
  414MOL0     N54566   9.884  11.744   3.526 -0.2302 -0.5482 -0.8643
  414MOL0     N54567   9.872  11.863   3.490 -0.4313  0.9584 -0.0033
  414MOL0     C54568   9.624  11.332   2.664  0.3714 -0.2117  0.0253
  414MOL0     C54569   9.602  11.200   2.636 -0.7885 -0.8110  0.1166
  414MOL0     C54570   9.716  10.814   2.423 -0.2421 -0.2618  0.7553
  414MOL0     C54571   9.629  10.715   2.482  0.5439 -0.2641  0.8698
  414MOL0     C54572   9.623  10.585   2.421 -0.5050  0.4511 -0.1666
  414MOL0     C54573   9.675  10.561   2.301  0.0376  0.8700  0.2501
  414MOL0     O54574   9.641  10.441   2.242  0.1862  0.2036  0.5475
  414MOL0     C54575   9.734  10.392   2.143 -0.6852 -0.2544  0.1090
  414MOL0     C54576   9.720  10.244   2.157 -0.4366  0.7095  1.1452
  414MOL0     C54577   9.790  10.169   2.043 -0.1435  0.1921  0.2484
  414MOL0     C54578   9.939  10.173   2.045  0.0826 -0.0173  0.3754
  414MOL0     C54579   9.994  10.067   2.128 -0.2233  0.8712  0.1613
  414MOL0     C54580  10.027   9.979   2.207 -0.2510  0.1556  0.2127
  414MOL0     C54581   9.740  10.663   2.236 -0.1453 -0.2563  0.0391
  414MOL0     C54582   9.767  10.785   2.294  0.8544 -0.5897 -0.6812
  414MOL0     H54583   9.921  11.085   2.680  0.2975  2.2338 -1.7623
  414MOL0     H54584   9.952  11.321   2.735 -0.7227  0.3455 -0.1368
  414MOL0     H54585   9.628  11.581   2.626 -0.2214  0.8480  0.2515
  414MOL0     H54586   9.765  11.684   2.628  0.2353 -0.4266  0.9574
  414MOL0     H54587   9.584  11.622   2.863  1.2452  0.8127  1.6862
  414MOL0     H54588   9.591  11.771   2.761  0.1437 -0.4661 -0.8606
  414MOL0     H54589   9.854  11.668   2.891 -1.6144 -1.1372 -0.2628
  414MOL0     H54590   9.739  11.728   3.004  3.5698  2.2551  0.8008
  414MOL0     H54591   9.832  11.878   2.761  0.4904  1.5169  0.1276
  414MOL0     H54592   9.726  11.946   2.885 -0.0656  0.4418 -3.3895
  414MOL0     H54593   9.967  12.013   2.935 -0.0452  0.1448 -0.2885
  414MOL0     H54594  10.023  11.849   2.941 -0.8175 -0.2054  0.0020
  414MOL0     H54595   9.899  11.805   3.139 -2.3746  0.9752  1.1520
  414MOL0     H54596   9.804  11.954   3.131  0.1048 -0.6975 -0.7468
  414MOL0     H54597  10.115  11.939   3.163  1.9217  2.6321 -1.2031
  414MOL0     H54598  10.025  12.082   3.121 -0.5947 -0.7831 -0.7066
  414MOL0     H54599   9.893  12.065   3.333 -1.7230 -2.8359  1.6838
  414MOL0     H54600  10.070  12.058   3.365  0.9371 -4.3569  3.5249
  414MOL0     H54601  10.156  11.770   3.346  0.1489 -1.6334 -0.4483
  414MOL0     H54602  10.160  11.551   3.465 -1.1657 -1.8394 -2.3682
  414MOL0     H54603  10.002  11.493   3.504 -0.3292 -0.3878  1.3832
  414MOL0     H54604  10.133  11.450   3.674  1.4682  0.9640 -0.9472
  414MOL0     H54605  10.017  11.567   3.730 -0.5279 -0.1736  0.2327
  414MOL0     H54606  10.295  11.649   3.639  2.3032 -1.5011  0.4640
  414MOL0     H54607  10.193  11.739   3.752  1.6943  1.0690 -0.7309
  414MOL0     H54608  10.241  11.601   3.940  1.0694  0.8288  0.4860
  414MOL0     H54609  10.388  11.662   3.879 -0.7749 -0.4132  2.7859
  414MOL0     H54610  10.446  11.537   4.062 -3.1174 -1.2266 -2.5730
  414MOL0     H54611  10.678  11.500   4.154 -0.0131 -0.4492  0.0760
  414MOL0     H54612  10.909  11.352   4.413 -0.9222 -0.8569  0.1104
  414MOL0     H54613  11.050  11.229   4.535 -1.3840  2.1736  0.3472
  414MOL0     H54614  11.494  11.238   4.408  3.0488 -1.9320 -1.7089
  414MOL0     H54615  11.428  11.096   4.322  1.9097 -3.1277  1.8302
  414MOL0     H54616  11.542  11.101   4.584 -1.2285  1.0895 -0.0393
  414MOL0     H54617  11.596  11.040   4.425 -0.9624  3.2189 -1.4280
  414MOL0     H54618  11.427  10.859   4.441  0.3064 -1.7002  1.8860
  414MOL0     H54619  11.349  10.931   4.584 -1.0998  0.7520 -1.8373
  414MOL0     H54620  11.644  10.822   4.563  0.6254  0.4707 -0.1947
  414MOL0     H54621  11.564  10.869   4.706 -0.6538 -0.3391  0.3948
  414MOL0     H54622  11.576  10.634   4.665 -0.2244 -0.1805 -1.4211
  414MOL0     H54623  11.434  10.651   4.555  2.4565  1.3011 -2.9063
  414MOL0     H54624  11.313  10.771   4.721  1.2747  1.3272 -2.9450
  414MOL0     H54625  11.455  10.771   4.836 -1.2284  4.7212 -1.8468
  414MOL0     H54626  11.242  10.584   4.826 -0.2466  3.8351 -0.2124
  414MOL0     H54627  11.364  10.504   4.715  1.5748 -1.9198  2.8865
  414MOL0     H54628  11.444  10.561   4.985 -0.1625 -0.8567  1.0620
  414MOL0     H54629  11.536  10.479   4.865  0.1910  0.9000  1.4729
  414MOL0     H54630  11.331  11.237   4.195 -0.5830 -4.2234  0.7612
  414MOL0     H54631  11.167  11.342   4.067 -1.2887 -0.8756 -0.0538
  414MOL0     H54632  10.780  11.280   3.790 -0.3530  0.8555 -0.7505
  414MOL0     H54633  10.558  11.325   3.719  1.0823 -0.3549 -0.3751
  414MOL0     H54634   9.535  11.392   2.648 -0.6070 -1.7544 -0.4878
  414MOL0     H54635   9.502  11.165   2.610 -1.6505 -0.8827  3.1044
  414MOL0     H54636   9.579  10.745   2.573  0.0908  1.9726 -0.0303
  414MOL0     H54637   9.555  10.511   2.463 -1.7242  0.4070 -2.1034
  414MOL0     H54638   9.839  10.420   2.157 -1.5745  3.0532  1.0159
  414MOL0     H54639   9.705  10.427   2.044  1.9368  0.0122 -0.6579
  414MOL0     H54640   9.765  10.213   2.252  2.0811 -0.3931 -0.3047
  414MOL0     H54641   9.612  10.232   2.151 -0.1134 -2.3171 -1.5358
  414MOL0     H54642   9.751  10.212   1.950 -0.1989  0.9485  0.6202
  414MOL0     H54643   9.747  10.068   2.041 -2.7953  1.2530 -0.1799
  414MOL0     H54644   9.974  10.164   1.941  0.4030 -0.4356  0.5180
  414MOL0     H54645   9.985  10.265   2.082  0.9476 -0.0864 -0.4814
  414MOL0     H54646  10.055   9.893   2.265  0.6477 -0.5598 -1.2325
  414MOL0     H54647   9.785  10.652   2.138  3.2665  1.5360  1.2648
  414MOL0     H54648   9.828  10.857   2.240 -1.8841  3.3691  1.0098
  415MOL0     O54649   2.508   7.503   3.570  0.4224 -0.6778  0.3350
  415MOL0     C54650   2.549   7.604   3.625 -0.0224 -0.3082 -1.1036
  415MOL0     O54651   2.475   7.698   3.673 -0.1897 -0.1162  0.5849
  415MOL0     C54652   2.339   7.698   3.643  0.0206 -0.6146 -0.3283
  415MOL0     C54653   2.257   7.608   3.718  1.1122 -0.1067 -0.1570
  415MOL0     C54654   2.115   7.609   3.695 -0.4528  0.2180  0.4414
  415MOL0     C54655   2.059   7.694   3.597 -0.4889  0.4242 -0.3369
  415MOL0     O54656   1.922   7.688   3.580 -0.6795  0.3746 -0.5247
  415MOL0     C54657   1.866   7.735   3.457 -0.4378  0.2906 -0.8053
  415MOL0     C54658   1.740   7.640   3.435 -0.7022 -0.0729  0.3148
  415MOL0     C54659   1.636   7.712   3.337 -0.4926  0.8345  0.3694
  415MOL0     C54660   1.508   7.644   3.328  0.2730  0.2437  0.0267
  415MOL0     C54661   1.409   7.713   3.231  0.1870 -1.2420 -0.7475
  415MOL0     C54662   1.279   7.651   3.233  0.2465 -0.1986 -0.1045
  415MOL0     C54663   1.177   7.721   3.135 -0.2523 -0.8141 -0.1137
  415MOL0     C54664   1.062   7.622   3.094 -0.4184  0.8616  0.7948
  415MOL0     N54665   0.951   7.613   3.190  0.0096 -0.7368  0.3343
  415MOL0     C54666   0.833   7.684   3.197  0.0485 -0.7021 -0.3449
  415MOL0     C54667   0.774   7.610   3.295 -0.2841  0.8166 -0.0056
  415MOL0     C54668   0.670   7.661   3.391 -0.5764 -0.5766 -0.1576
  415MOL0     C54669   0.531   7.639   3.335 -0.3640  0.5349  0.6524
  415MOL0     C54670   0.489   7.490   3.298 -0.2864 -1.0071 -0.7031
  415MOL0     C54671   0.524   7.402   3.417  0.5236  0.0968  0.3502
  415MOL0     O54672   0.426   7.425   3.520  0.1716 -0.0584 -0.3643
  415MOL0     C54673   0.288   7.396   3.515 -0.7589  0.8817  0.6567
  415MOL0     C54674   0.227   7.315   3.423 -0.1226  0.2218 -0.6426
  415MOL0     C54675   0.096   7.285   3.426  0.0783 -1.2370  0.8132
  415MOL0     C54676   0.013   7.360   3.512 -0.1281 -0.0734  1.5066
  415MOL0     C54677  -0.126   7.340   3.508 -0.4553 -0.2269  0.1848
  415MOL0     O54678  -0.207   7.443   3.557  0.0216 -0.7905  0.3738
  415MOL0     C54679  -0.347   7.437   3.545  0.0745 -0.1552  0.7117
  415MOL0     C54680  -0.414   7.391   3.428  0.3884 -0.2768  0.2014
  415MOL0     C54681  -0.551   7.366   3.435 -0.0458  0.0224  0.0743
  415MOL0     C54682  -0.622   7.381   3.555 -0.4807  0.4733  0.3260
  415MOL0     O54683  -0.757   7.346   3.542  0.9599  0.2200  0.3595
  415MOL0     C54684  -0.830   7.310   3.660 -0.1770  0.4022  0.1099
  415MOL0     C54685  -0.978   7.330   3.628 -0.2568  0.3003  0.4261
  415MOL0     C54686  -1.018   7.256   3.493  0.5714  0.1128 -0.9491
  415MOL0     C54687  -1.164   7.301   3.468 -0.2700 -0.0297  0.7258
  415MOL0     C54688  -1.203   7.271   3.320  0.0014 -0.4500 -0.7155
  415MOL0     C54689  -1.344   7.265   3.269  0.6502  0.3845  0.5763
  415MOL0     C54690  -1.420   7.397   3.304 -0.4751 -0.2434  0.2826
  415MOL0     C54691  -1.565   7.388   3.261 -0.4579 -0.2628 -0.3658
  415MOL0    Cl54692  -1.634   7.549   3.262 -0.0736  0.0794  0.0220
  415MOL0     C54693  -0.556   7.430   3.671  0.4365 -0.6558 -0.0141
  415MOL0     C54694  -0.414   7.445   3.663  0.0326  0.0543 -0.9363
  415MOL0     O54695  -0.172   7.241   3.449 -0.2472  0.2474 -0.3721
  415MOL0     C54696   0.078   7.457   3.596  0.2522  0.0610  0.3708
  415MOL0     C54697   0.218   7.470   3.604  0.1736  0.6917  0.6651
  415MOL0     N54698   0.839   7.500   3.326 -0.0294 -0.0805 -0.3002
  415MOL0     N54699   0.939   7.495   3.260  0.2130  0.0398 -0.1843
  415MOL0     C54700   2.144   7.794   3.537 -0.5390 -0.4939  0.0128
  415MOL0     C54701   2.282   7.789   3.557  0.2092  0.0754  0.7861
  415MOL0     C54702   2.693   7.619   3.669 -0.6457  0.5558  0.6106
  415MOL0     C54703   2.740   7.706   3.775 -0.5069  0.1411 -0.1829
  415MOL0     C54704   2.871   7.700   3.824 -0.0276 -1.1155  0.3965
  415MOL0     C54705   2.960   7.607   3.765  0.1055  0.3114  0.3797
  415MOL0     O54706   3.085   7.599   3.816  0.0656 -0.6576  0.8158
  415MOL0     C54707   3.188   7.521   3.757 -0.7698  0.3249 -0.4005
  415MOL0     C54708   3.253   7.427   3.862  0.1976  0.8273 -0.0759
  415MOL0     C54709   3.306   7.475   3.994  0.7600 -0.5957  0.1791
  415MOL0     C54710   3.389   7.593   3.959  0.8171 -0.4870  0.3676
  415MOL0     C54711   3.488   7.621   4.061  0.5389  0.4745 -0.0567
  415MOL0     C54712   3.566   7.626   4.152  0.7422 -0.5812 -0.9559
  415MOL0     C54713   2.919   7.522   3.659 -0.3412 -0.7237  0.2540
  415MOL0     C54714   2.789   7.528   3.607 -0.4218 -0.0042  1.1545
  415MOL0     H54715   2.296   7.539   3.792  3.0067  0.9761 -0.1006
  415MOL0     H54716   2.054   7.529   3.735 -2.6321 -0.9933 -4.4839
  415MOL0     H54717   1.933   7.715   3.373 -1.2589  0.7889 -1.6000
  415MOL0     H54718   1.825   7.834   3.481 -2.3230 -0.5020 -0.5348
  415MOL0     H54719   1.693   7.618   3.531 -0.6656 -0.0741  0.3323
  415MOL0     H54720   1.766   7.544   3.389 -1.8953 -0.2144 -0.1036
  415MOL0     H54721   1.683   7.708   3.238  0.8611 -2.3823  1.0170
  415MOL0     H54722   1.616   7.813   3.374  0.6592 -0.0932  3.9805
  415MOL0     H54723   1.530   7.540   3.302  1.8333  0.5070  0.1739
  415MOL0     H54724   1.467   7.652   3.429 -0.0745 -0.8637 -0.0070
  415MOL0     H54725   1.459   7.710   3.134 -1.5637 -1.1480 -1.6808
  415MOL0     H54726   1.394   7.820   3.247  0.5442 -1.0709 -1.4980
  415MOL0     H54727   1.235   7.641   3.333  1.7266 -1.6619  0.4377
  415MOL0     H54728   1.293   7.545   3.213 -0.4894 -0.6346  1.4847
  415MOL0     H54729   1.133   7.812   3.177 -0.3401  1.2575 -4.1840
  415MOL0     H54730   1.246   7.752   3.055 -0.3997 -0.5792 -0.1485
  415MOL0     H54731   1.096   7.521   3.072 -0.7708  0.3953  2.2404
  415MOL0     H54732   1.024   7.666   3.002  1.5752  0.5525 -0.2320
  415MOL0     H54733   0.811   7.788   3.177 -1.6403 -0.4399  2.3151
  415MOL0     H54734   0.687   7.769   3.398 -0.3123 -0.6904  1.2127
  415MOL0     H54735   0.697   7.621   3.489  4.5111 -2.3578 -1.9769
  415MOL0     H54736   0.498   7.703   3.251  2.6844 -0.5269 -1.5128
  415MOL0     H54737   0.470   7.665   3.422  0.2157 -1.2771  1.6464
  415MOL0     H54738   0.380   7.485   3.286 -0.7729  0.3574  2.3376
  415MOL0     H54739   0.540   7.456   3.207  1.6799  1.0689 -0.4713
  415MOL0     H54740   0.624   7.420   3.459  0.3686  2.6318 -0.2213
  415MOL0     H54741   0.525   7.297   3.387 -2.9922  0.0110  0.1687
  415MOL0     H54742   0.291   7.279   3.343  0.3547  3.3594 -1.8514
  415MOL0     H54743   0.059   7.213   3.354 -5.1607  1.2541  0.5037
  415MOL0     H54744  -0.369   7.360   3.334 -1.7159 -0.8508 -0.6588
  415MOL0     H54745  -0.612   7.335   3.350 -0.2822  2.9359 -0.9407
  415MOL0     H54746  -0.799   7.355   3.755  0.9329 -1.8979  0.9267
  415MOL0     H54747  -0.808   7.206   3.688  1.1071  0.2240 -1.4550
  415MOL0     H54748  -0.997   7.438   3.623  1.5534  0.6183 -0.9708
  415MOL0     H54749  -1.038   7.300   3.714 -1.8846 -0.7578 -1.0355
  415MOL0     H54750  -1.015   7.147   3.500  0.7848  0.2326  2.5509
  415MOL0     H54751  -0.953   7.295   3.414  0.5152  2.6493  0.1344
  415MOL0     H54752  -1.237   7.259   3.538 -2.9341  2.1370 -0.5476
  415MOL0     H54753  -1.187   7.407   3.475 -4.5485 -0.8641  2.7349
  415MOL0     H54754  -1.158   7.172   3.306  2.3690  0.4147  0.2526
  415MOL0     H54755  -1.160   7.346   3.253  0.9311  0.4012  0.7829
  415MOL0     H54756  -1.397   7.177   3.307 -0.1173  0.4416 -0.3495
  415MOL0     H54757  -1.334   7.259   3.160 -0.8210  0.8763  0.3973
  415MOL0     H54758  -1.414   7.428   3.409 -1.9148 -0.5028  0.4554
  415MOL0     H54759  -1.376   7.478   3.245  4.4719 -3.1108 -0.5066
  415MOL0     H54760  -1.599   7.321   3.341  0.0861  1.1234  1.1058
  415MOL0     H54761  -1.588   7.346   3.163  0.8676  2.1288 -1.7845
  415MOL0     H54762  -0.622   7.445   3.755 -0.9927 -1.2675 -0.9863
  415MOL0     H54763  -0.353   7.455   3.753 -0.3884 -1.3570 -0.4563
  415MOL0     H54764   0.020   7.514   3.667  2.4109  2.5408  0.3134
  415MOL0     H54765   0.250   7.542   3.680 -1.0117  1.6345  0.3029
  415MOL0     H54766   2.093   7.867   3.474 -0.7518  0.3505  1.1231
  415MOL0     H54767   2.341   7.861   3.501 -2.6977  0.9460 -1.4443
  415MOL0     H54768   2.675   7.782   3.818  0.5581  0.1113  1.5817
  415MOL0     H54769   2.898   7.768   3.904 -0.3630 -0.2589 -0.2068
  415MOL0     H54770   3.263   7.587   3.713 -0.8912  1.7948  1.4872
  415MOL0     H54771   3.168   7.443   3.683 -0.3956  1.5731 -1.8549
  415MOL0     H54772   3.183   7.349   3.895  1.3413  0.9011  2.8563
  415MOL0     H54773   3.336   7.374   3.815 -0.7530  0.1724 -1.0888
  415MOL0     H54774   3.382   7.401   4.021  0.4631 -1.9251 -2.3734
  415MOL0     H54775   3.235   7.486   4.077 -0.5870 -0.2736 -0.9797
  415MOL0     H54776   3.448   7.574   3.869 -1.1023  3.5736 -2.0213
  415MOL0     H54777   3.322   7.678   3.944 -0.1869 -0.7493  2.8349
  415MOL0     H54778   3.624   7.612   4.241  1.8973  3.1734 -0.9341
  415MOL0     H54779   2.980   7.447   3.610 -0.9656 -1.2135  0.2172
  415MOL0     H54780   2.755   7.457   3.533  1.4638 -1.9738  2.0603
  416MOL0     O54781   6.871   0.034   0.917  0.1846  0.1741  0.3134
  416MOL0     C54782   6.795  -0.049   0.959 -0.1906  0.0643 -0.0274
  416MOL0     O54783   6.662  -0.063   0.925 -0.5737 -0.3176 -0.4768
  416MOL0     C54784   6.611   0.046   0.860  0.4436  0.4414 -0.4419
  416MOL0     C54785   6.616   0.054   0.720 -0.2275 -0.5865  0.1703
  416MOL0     C54786   6.572   0.170   0.648 -0.2703  0.1434  0.3935
  416MOL0     C54787   6.497   0.262   0.712 -1.0005  0.4537 -0.3468
  416MOL0     O54788   6.430   0.369   0.662 -0.7499 -0.3609  0.1756
  416MOL0     C54789   6.434   0.378   0.521  0.4797  0.2376  0.3007
  416MOL0     C54790   6.349   0.497   0.458 -0.4694 -0.3230 -0.5808
  416MOL0     C54791   6.222   0.516   0.537 -0.1060 -0.9429 -1.1296
  416MOL0     C54792   6.128   0.612   0.463 -0.0641  1.2358  0.3463
  416MOL0     C54793   6.191   0.758   0.451  0.9096 -0.3928  0.9810
  416MOL0     C54794   6.250   0.809   0.316 -0.8011 -0.1232 -0.6876
  416MOL0     C54795   6.276   0.959   0.336 -0.3414 -0.3944  0.3376
  416MOL0     C54796   6.398   1.015   0.263  0.1364 -0.0370  0.2584
  416MOL0     N54797   6.527   0.990   0.342 -0.4937 -0.7195 -0.7197
  416MOL0     C54798   6.571   1.052   0.459  0.3617  0.6642  0.1362
  416MOL0     C54799   6.655   0.958   0.518  0.8103 -0.6708 -0.5414
  416MOL0     C54800   6.741   0.984   0.635  0.0794  0.3901 -0.4574
  416MOL0     C54801   6.694   0.913   0.761 -0.1780  0.5785  0.5061
  416MOL0     C54802   6.550   0.949   0.804  0.0835 -0.1374  0.2629
  416MOL0     C54803   6.512   0.889   0.949 -1.0312 -0.3228 -0.0193
  416MOL0     O54804   6.537   0.749   0.933 -0.3642  0.4305  0.4881
  416MOL0     C54805   6.574   0.674   1.037 -0.5668 -0.4181  0.2971
  416MOL0     C54806   6.625   0.549   1.009  0.0641 -0.4031 -0.1673
  416MOL0     C54807   6.646   0.455   1.109  0.3890 -0.0436 -0.0771
  416MOL0     C54808   6.609   0.479   1.240 -0.0534 -0.2066 -0.5405
  416MOL0     C54809   6.644   0.372   1.342 -0.2951 -0.0190  0.2328
  416MOL0     O54810   6.723   0.265   1.302 -0.1762 -0.8660  0.3425
  416MOL0     C54811   6.759   0.164   1.392 -0.0863 -0.2580  0.2168
  416MOL0     C54812   6.815   0.181   1.524 -0.8302 -0.1311 -0.4837
  416MOL0     C54813   6.882   0.078   1.596 -0.1188 -0.0640 -0.2655
  416MOL0     C54814   6.895  -0.049   1.540 -0.1664 -0.5879  0.0071
  416MOL0     O54815   6.971  -0.138   1.620  0.1717  0.7745 -0.1214
  416MOL0     C54816   6.941  -0.279   1.620 -0.1691 -0.2738 -0.2772
  416MOL0     C54817   6.809  -0.319   1.678  0.0392  0.1821  0.5128
  416MOL0     C54818   6.781  -0.269   1.823  0.2099 -0.0372  0.6164
  416MOL0     C54819   6.889  -0.303   1.921  0.4728 -1.2115  0.1124
  416MOL0     C54820   6.837  -0.262   2.054  0.4641  0.8513 -0.6403
  416MOL0     C54821   6.934  -0.266   2.168  0.7422  0.2506  0.0579
  416MOL0     C54822   6.970  -0.411   2.214 -0.5369  0.8384  1.0911
  416MOL0     C54823   7.078  -0.390   2.311 -0.7589  0.7267 -0.3940
  416MOL0    Cl54824   7.230  -0.304   2.281  0.3233  0.5976 -0.1789
  416MOL0     C54825   6.842  -0.067   1.417  0.0065  0.7032  0.2608
  416MOL0     C54826   6.768   0.031   1.344 -0.6388 -0.0170 -0.4047
  416MOL0     O54827   6.589   0.391   1.449 -0.5680 -0.1049 -0.5473
  416MOL0     C54828   6.572   0.610   1.272  0.4272 -0.2997 -0.2959
  416MOL0     C54829   6.544   0.705   1.171 -0.6082 -0.9852 -0.1795
  416MOL0     N54830   6.657   0.849   0.445 -1.0550  0.0316  0.4096
  416MOL0     N54831   6.585   0.867   0.338 -0.2340  0.1226 -0.0668
  416MOL0     C54832   6.476   0.252   0.858  0.4742  0.2792  0.2503
  416MOL0     C54833   6.536   0.145   0.925 -0.1435 -0.0557  0.1677
  416MOL0     C54834   6.848  -0.153   1.057 -0.4044  0.8213  0.6219
  416MOL0     C54835   6.977  -0.140   1.123  1.0924  0.1919 -0.2938
  416MOL0     C54836   7.030  -0.244   1.203  0.0626  0.0682  0.3439
  416MOL0     C54837   6.959  -0.366   1.211  0.0359 -1.0501  1.0944
  416MOL0     O54838   7.009  -0.459   1.298  0.0721 -0.2041  0.2794
  416MOL0     C54839   6.936  -0.582   1.340  0.0725  0.5857  0.1657
  416MOL0     C54840   6.963  -0.708   1.259 -1.2467 -1.1440  0.2565
  416MOL0     C54841   7.117  -0.741   1.242  0.9283  0.3191 -0.7705
  416MOL0     C54842   7.132  -0.851   1.131  0.5471 -0.4733  0.0592
  416MOL0     C54843   7.264  -0.918   1.141 -0.2377  0.0396 -0.6056
  416MOL0     C54844   7.356  -0.991   1.171 -0.8381 -0.4890  1.1403
  416MOL0     C54845   6.841  -0.380   1.152  0.6907  0.6130  0.1027
  416MOL0     C54846   6.789  -0.280   1.069  0.4615  0.9833  0.9048
  416MOL0     H54847   6.668  -0.025   0.667  1.6031  1.8650 -1.9444
  416MOL0     H54848   6.590   0.178   0.542  0.1494  2.4456  0.5732
  416MOL0     H54849   6.396   0.281   0.486  1.1457  0.1581 -0.2384
  416MOL0     H54850   6.533   0.383   0.474 -0.0952  0.1066 -0.9767
  416MOL0     H54851   6.325   0.476   0.354  0.1982 -0.3154 -0.7381
  416MOL0     H54852   6.409   0.587   0.451 -0.3987 -0.1159  1.8327
  416MOL0     H54853   6.243   0.563   0.634  1.2876 -0.6290 -1.5612
  416MOL0     H54854   6.173   0.423   0.566 -0.0146 -0.0399  2.3636
  416MOL0     H54855   6.083   0.570   0.372 -1.4263 -1.3721  2.1133
  416MOL0     H54856   6.035   0.607   0.520 -1.1785 -2.0789 -1.4476
  416MOL0     H54857   6.275   0.757   0.521  1.9366 -0.3221 -0.2093
  416MOL0     H54858   6.128   0.838   0.491  1.1653  0.4930 -0.3068
  416MOL0     H54859   6.178   0.795   0.234 -0.5785 -1.1360 -0.7208
  416MOL0     H54860   6.336   0.751   0.282 -2.2956 -2.9112  0.0043
  416MOL0     H54861   6.188   1.008   0.294  0.2109 -1.8906 -2.8427
  416MOL0     H54862   6.274   0.980   0.443 -3.5321  0.0464  0.2859
  416MOL0     H54863   6.379   1.121   0.245 -3.5396 -0.7742 -1.0072
  416MOL0     H54864   6.413   0.959   0.170 -0.0709  0.0903  0.1467
  416MOL0     H54865   6.532   1.148   0.490 -0.4146 -0.5568  3.3000
  416MOL0     H54866   6.731   1.091   0.653  0.8541  0.6994 -1.7633
  416MOL0     H54867   6.849   0.970   0.621  0.0681  1.7709 -2.2269
  416MOL0     H54868   6.765   0.940   0.840  1.4368 -2.7568  0.3437
  416MOL0     H54869   6.704   0.807   0.740  3.8389  0.9599 -0.2916
  416MOL0     H54870   6.547   1.058   0.809 -4.9021  0.0418 -1.0530
  416MOL0     H54871   6.477   0.936   0.723 -1.9392  4.0391  1.1457
  416MOL0     H54872   6.406   0.908   0.970 -1.1346 -0.5162 -0.3553
  416MOL0     H54873   6.578   0.927   1.027 -1.5564 -1.1237  0.8362
  416MOL0     H54874   6.654   0.539   0.905  1.5951  1.5417  0.0080
  416MOL0     H54875   6.699   0.364   1.084  2.1271  0.8986  0.0328
  416MOL0     H54876   6.816   0.280   1.570 -2.1391 -0.2743 -0.1030
  416MOL0     H54877   6.921   0.107   1.693  0.0263  1.4467 -0.7393
  416MOL0     H54878   7.021  -0.326   1.678 -1.2133 -0.9699  0.6270
  416MOL0     H54879   6.932  -0.320   1.519  1.0574 -0.5414 -0.2935
  416MOL0     H54880   6.796  -0.427   1.679 -0.1443  0.1961 -0.0968
  416MOL0     H54881   6.733  -0.271   1.616 -1.9039 -0.4627  2.2994
  416MOL0     H54882   6.688  -0.318   1.854  0.2097 -0.1325  0.4680
  416MOL0     H54883   6.756  -0.163   1.815  1.7680  0.2712 -0.6892
  416MOL0     H54884   6.938  -0.400   1.913  0.1390 -1.3996  0.3262
  416MOL0     H54885   6.975  -0.237   1.903  2.3369 -2.9572  2.0524
  416MOL0     H54886   6.763  -0.336   2.084  1.6773 -0.2867 -0.3457
  416MOL0     H54887   6.798  -0.160   2.048 -0.3723  0.4455 -4.4115
  416MOL0     H54888   6.889  -0.220   2.256  0.7943 -2.5246  1.6503
  416MOL0     H54889   7.021  -0.201   2.154  1.6026 -0.6014  1.2799
  416MOL0     H54890   6.886  -0.470   2.252 -1.5250 -1.1938 -3.5626
  416MOL0     H54891   6.993  -0.467   2.123 -3.2134  2.1956 -0.5505
  416MOL0     H54892   7.097  -0.489   2.353 -2.0623 -0.0958 -1.6243
  416MOL0     H54893   7.040  -0.325   2.390 -1.1945  2.9553 -2.3084
  416MOL0     H54894   6.857  -0.165   1.373 -1.9414  0.8184 -0.7457
  416MOL0     H54895   6.734   0.007   1.244 -0.6578  2.3600 -1.0226
  416MOL0     H54896   6.562   0.625   1.379  0.3276 -1.2864 -0.1578
  416MOL0     H54897   6.498   0.801   1.192 -3.1504 -2.4996  1.9022
  416MOL0     H54898   6.430   0.330   0.919 -0.5021 -1.5542  1.9791
  416MOL0     H54899   6.528   0.138   1.033 -4.7896  1.5140  0.1485
  416MOL0     H54900   7.029  -0.046   1.112 -0.3403  0.9455 -0.9516
  416MOL0     H54901   7.131  -0.233   1.243  2.8909 -3.4759 -4.6505
  416MOL0     H54902   6.829  -0.569   1.357  0.3350  1.1301  1.6089
  416MOL0     H54903   6.983  -0.597   1.438  0.9769  1.4386 -0.1154
  416MOL0     H54904   6.905  -0.782   1.314  0.6257  0.0258  4.1482
  416MOL0     H54905   6.911  -0.694   1.163 -1.2654  0.8206  0.5010
  416MOL0     H54906   7.158  -0.773   1.338  0.4873 -1.5151 -1.1635
  416MOL0     H54907   7.166  -0.644   1.229  0.6075  0.1538 -4.1188
  416MOL0     H54908   7.054  -0.927   1.147  0.4044  0.1127  2.3982
  416MOL0     H54909   7.122  -0.803   1.033  0.8468 -0.8369 -0.1546
  416MOL0     H54910   7.436  -1.057   1.199 -1.2601 -1.9085 -0.7572
  416MOL0     H54911   6.785  -0.473   1.158  0.8883  0.5850  2.0646
  416MOL0     H54912   6.689  -0.299   1.030  0.7836  0.8152  0.1432
  417MOL0     O54913   8.527   4.478   2.567 -0.6478  0.2878 -0.9091
  417MOL0     C54914   8.511   4.507   2.456  0.4170  0.1627  0.4683
  417MOL0     O54915   8.501   4.420   2.354  0.9118  0.0401  0.0150
  417MOL0     C54916   8.508   4.284   2.369 -0.6961 -0.7542  0.2371
  417MOL0     C54917   8.428   4.206   2.278  0.0916  1.2500 -0.2961
  417MOL0     C54918   8.441   4.068   2.270  0.4318 -0.3519 -0.6405
  417MOL0     C54919   8.522   4.001   2.355 -0.0533 -0.5043 -1.6097
  417MOL0     O54920   8.548   3.869   2.360 -0.0273  0.2578  0.0718
  417MOL0     C54921   8.431   3.785   2.399 -0.1832  0.0392  1.2217
  417MOL0     C54922   8.390   3.809   2.551 -0.7137  0.6828  0.4031
  417MOL0     C54923   8.309   3.685   2.586  0.4906  0.3678  0.7724
  417MOL0     C54924   8.284   3.676   2.733 -0.7561 -0.5007 -0.4170
  417MOL0     C54925   8.199   3.554   2.776  0.1828  0.1777 -0.3178
  417MOL0     C54926   8.141   3.575   2.912 -0.5502  0.0053  0.1383
  417MOL0     C54927   8.058   3.456   2.946 -0.5777 -0.0859 -0.4377
  417MOL0     C54928   8.131   3.321   2.952  0.2074 -0.4303  0.3999
  417MOL0     N54929   8.045   3.220   3.008  0.6390 -0.5877 -0.6476
  417MOL0     C54930   7.994   3.236   3.143  0.6051 -0.1035 -0.1306
  417MOL0     C54931   7.929   3.121   3.157 -0.4261 -0.1163 -0.0912
  417MOL0     C54932   7.843   3.090   3.269  0.1490 -0.0964 -0.4001
  417MOL0     C54933   7.692   3.083   3.223  0.0154 -0.3172  0.5112
  417MOL0     C54934   7.658   2.937   3.176 -0.3193  0.0694 -0.8075
  417MOL0     C54935   7.518   2.942   3.118 -0.0587  0.4616  0.4523
  417MOL0     O54936   7.427   2.998   3.215  0.0105 -0.7306  0.4761
  417MOL0     C54937   7.305   3.035   3.164 -0.3613  0.1916  0.1930
  417MOL0     C54938   7.220   3.112   3.243 -0.2738  1.1408 -0.5649
  417MOL0     C54939   7.092   3.152   3.199 -0.7465  0.5013  0.4637
  417MOL0     C54940   7.036   3.108   3.082 -0.6620  0.4564 -0.2956
  417MOL0     C54941   6.896   3.138   3.048  0.1671 -0.1297  0.2705
  417MOL0     O54942   6.836   3.238   3.126 -0.5633  0.2073 -0.3254
  417MOL0     C54943   6.711   3.288   3.104 -1.5238 -0.1414  0.0418
  417MOL0     C54944   6.674   3.408   3.157  1.4206  0.3078 -0.4860
  417MOL0     C54945   6.551   3.472   3.145  0.2837 -1.2962  0.6579
  417MOL0     C54946   6.451   3.408   3.068 -1.1142 -0.1754 -0.5508
  417MOL0     O54947   6.334   3.474   3.054 -0.7149 -0.5993 -0.3987
  417MOL0     C54948   6.262   3.438   2.940 -0.2780  0.8163  0.1141
  417MOL0     C54949   6.136   3.528   2.935 -0.2901  0.2539 -0.0977
  417MOL0     C54950   6.034   3.494   3.048  0.5206  0.5476 -0.2007
  417MOL0     C54951   5.901   3.561   3.030  0.4607  0.4633  0.3820
  417MOL0     C54952   5.838   3.516   2.892  0.4194  0.0201 -0.3486
  417MOL0     C54953   5.684   3.492   2.887 -0.3086 -0.1858  0.1368
  417MOL0     C54954   5.619   3.389   2.980  0.7282 -0.2567  0.2847
  417MOL0     C54955   5.689   3.250   2.975  0.4511 -0.4647 -0.7384
  417MOL0    Cl54956   5.713   3.202   2.811  0.4230 -0.2733  0.2100
  417MOL0     C54957   6.470   3.275   3.034 -0.2866 -0.1807  0.0476
  417MOL0     C54958   6.602   3.221   3.043 -1.1618  0.4900 -1.1473
  417MOL0     O54959   6.862   3.089   2.943 -0.0174  0.1381  0.7160
  417MOL0     C54960   7.123   3.028   3.005  0.5968 -0.6326  0.7501
  417MOL0     C54961   7.255   3.011   3.036  0.3156 -0.4630  0.1513
  417MOL0     N54962   7.939   3.042   3.040 -0.2498 -0.8081  0.1136
  417MOL0     N54963   8.014   3.101   2.950  0.5115  0.4447  0.1656
  417MOL0     C54964   8.593   4.071   2.449 -0.7590 -0.0349  0.5205
  417MOL0     C54965   8.596   4.212   2.450 -0.3105 -0.0461  0.8960
  417MOL0     C54966   8.478   4.642   2.414 -0.2342 -0.1261 -0.1667
  417MOL0     C54967   8.441   4.682   2.277  0.3252  0.4644 -1.9542
  417MOL0     C54968   8.405   4.813   2.256 -0.1361 -0.8554 -0.2518
  417MOL0     C54969   8.403   4.907   2.350  1.6377 -0.4645 -0.4678
  417MOL0     O54970   8.376   5.034   2.303  0.0936  0.2220  0.5156
  417MOL0     C54971   8.361   5.146   2.391 -0.5303 -0.3430 -0.3335
  417MOL0     C54972   8.497   5.196   2.412  0.1751  0.0747 -0.0333
  417MOL0     C54973   8.514   5.335   2.493  0.4645  1.0399  0.3228
  417MOL0     C54974   8.455   5.316   2.631 -0.9644 -0.0242  0.6408
  417MOL0     C54975   8.472   5.446   2.693 -0.0092  0.2398  0.7547
  417MOL0     C54976   8.487   5.557   2.736  0.0126 -0.4610  0.1381
  417MOL0     C54977   8.429   4.868   2.489  0.4116 -0.3016 -0.3395
  417MOL0     C54978   8.469   4.741   2.523  0.0376 -0.3427  0.8296
  417MOL0     H54979   8.355   4.256   2.215 -1.6211 -1.2764 -0.4684
  417MOL0     H54980   8.374   4.020   2.199 -1.8886  0.8445  0.6025
  417MOL0     H54981   8.463   3.681   2.382 -0.0248  0.4292 -1.3491
  417MOL0     H54982   8.346   3.791   2.330  0.7221 -1.9460 -0.1773
  417MOL0     H54983   8.327   3.896   2.570 -0.9844  0.2693  1.4905
  417MOL0     H54984   8.484   3.816   2.608 -0.1566 -0.5620 -0.3345
  417MOL0     H54985   8.353   3.593   2.548 -2.3196 -0.5161 -0.6382
  417MOL0     H54986   8.217   3.700   2.528  1.4537  0.1373 -0.8792
  417MOL0     H54987   8.374   3.694   2.793 -0.9781 -2.2366  0.5021
  417MOL0     H54988   8.221   3.760   2.765  0.4154  0.0797  0.4554
  417MOL0     H54989   8.249   3.457   2.773 -0.6059 -0.4665  3.0236
  417MOL0     H54990   8.121   3.553   2.699 -1.7359 -1.1704  1.5381
  417MOL0     H54991   8.085   3.669   2.916  1.0392  0.9649  1.0358
  417MOL0     H54992   8.228   3.579   2.978  0.8569 -1.1210 -1.5709
  417MOL0     H54993   8.012   3.472   3.044  0.8681 -0.3480  0.3100
  417MOL0     H54994   7.980   3.447   2.869  0.4955 -2.7220 -1.3321
  417MOL0     H54995   8.221   3.330   3.013  0.3008  0.5903  0.1303
  417MOL0     H54996   8.157   3.300   2.848 -1.8722  0.5563 -0.3695
  417MOL0     H54997   8.006   3.307   3.224 -0.5334 -0.2580  0.1997
  417MOL0     H54998   7.854   3.161   3.351 -0.1438 -1.3034  0.7129
  417MOL0     H54999   7.869   2.994   3.315 -1.2510 -1.0939 -1.5693
  417MOL0     H55000   7.681   3.154   3.141  2.5960 -1.6792 -1.1364
  417MOL0     H55001   7.635   3.122   3.309 -1.3230  2.1079 -1.3508
  417MOL0     H55002   7.721   2.894   3.098 -0.2290 -2.2824  0.4972
  417MOL0     H55003   7.657   2.867   3.259 -2.0721  1.8361  0.7634
  417MOL0     H55004   7.486   2.839   3.096  0.5083 -0.8445  4.8173
  417MOL0     H55005   7.531   2.992   3.021  2.2568 -0.5430  0.1931
  417MOL0     H55006   7.254   3.137   3.344 -1.0924  0.1108 -0.0204
  417MOL0     H55007   7.028   3.202   3.272 -2.2170  1.6475 -1.5091
  417MOL0     H55008   6.749   3.446   3.225  0.0031 -0.1552  1.4434
  417MOL0     H55009   6.530   3.571   3.183  1.2184 -0.5145 -0.7859
  417MOL0     H55010   6.231   3.333   2.943  1.8788  0.1097 -0.3815
  417MOL0     H55011   6.325   3.459   2.853 -0.8277  0.0424 -0.4853
  417MOL0     H55012   6.088   3.524   2.837  1.1655  0.7855 -0.8515
  417MOL0     H55013   6.165   3.631   2.959  3.9221 -0.6369 -0.7088
  417MOL0     H55014   6.062   3.517   3.151 -2.6380  0.3258  0.8085
  417MOL0     H55015   6.030   3.385   3.040 -0.2290  0.4258  1.3989
  417MOL0     H55016   5.842   3.548   3.121 -2.3737  1.3325 -1.2208
  417MOL0     H55017   5.921   3.668   3.020 -3.4899  1.4863  1.8037
  417MOL0     H55018   5.894   3.432   2.851 -0.4171  0.3241 -2.2203
  417MOL0     H55019   5.853   3.600   2.823 -0.2090 -0.7629 -1.4705
  417MOL0     H55020   5.657   3.491   2.781 -0.9453  0.8712  0.2726
  417MOL0     H55021   5.629   3.581   2.919 -0.1935  1.1096 -2.9422
  417MOL0     H55022   5.636   3.426   3.081 -1.5673 -1.3076  1.1316
  417MOL0     H55023   5.511   3.388   2.963  0.5230  0.2467  1.4859
  417MOL0     H55024   5.634   3.168   3.021  0.0663  0.9019  1.3906
  417MOL0     H55025   5.788   3.267   3.019  0.4509 -1.6398 -0.2601
  417MOL0     H55026   6.390   3.208   3.002 -0.1956 -0.7100  0.9150
  417MOL0     H55027   6.619   3.117   3.017  2.9374  0.8918 -0.7684
  417MOL0     H55028   7.087   3.006   2.905  1.1305  1.5212  0.0169
  417MOL0     H55029   7.321   2.961   2.967 -0.7255 -4.2601  1.6570
  417MOL0     H55030   8.668   4.015   2.504 -2.3949 -1.0102  1.8448
  417MOL0     H55031   8.674   4.263   2.505  0.3726  0.6101 -0.6336
  417MOL0     H55032   8.437   4.610   2.197 -1.5047  1.3729 -2.7286
  417MOL0     H55033   8.375   4.852   2.160 -3.3362  2.9757  1.9690
  417MOL0     H55034   8.316   5.110   2.484 -0.7723 -0.4223 -0.4776
  417MOL0     H55035   8.290   5.221   2.354  0.6314  0.2081 -1.5333
  417MOL0     H55036   8.538   5.118   2.476 -2.7958 -0.2351  1.6602
  417MOL0     H55037   8.563   5.199   2.324  0.9846  0.5217  0.5766
  417MOL0     H55038   8.467   5.421   2.445 -0.0577  1.6775  1.9175
  417MOL0     H55039   8.621   5.356   2.498  1.3943 -3.1043  1.2565
  417MOL0     H55040   8.354   5.275   2.638 -0.4397 -1.4212  0.4461
  417MOL0     H55041   8.513   5.238   2.681 -1.4837 -2.1241 -1.8297
  417MOL0     H55042   8.494   5.658   2.770  0.6154 -0.1899 -0.7484
  417MOL0     H55043   8.418   4.933   2.575  1.7367  0.1840 -0.5220
  417MOL0     H55044   8.485   4.712   2.626  0.6140 -1.5002  0.4263
  418MOL0     O55045   5.956   1.780   2.909 -0.4665 -0.1581  0.0143
  418MOL0     C55046   5.899   1.733   2.809  0.2508  0.0829  0.3925
  418MOL0     O55047   5.951   1.708   2.685 -0.5958 -0.0337  0.4085
  418MOL0     C55048   6.073   1.763   2.648 -0.2532 -0.1308  0.0289
  418MOL0     C55049   6.091   1.898   2.659 -0.0496  0.2718 -0.7894
  418MOL0     C55050   6.202   1.957   2.601 -0.3293  0.0729  0.8308
  418MOL0     C55051   6.288   1.886   2.514 -1.0479  0.0346 -0.2871
  418MOL0     O55052   6.396   1.956   2.453  0.3960 -0.1445  0.1536
  418MOL0     C55053   6.383   2.102   2.425 -1.0652 -0.1682 -0.3910
  418MOL0     C55054   6.518   2.152   2.369 -0.6794 -0.0327 -0.0932
  418MOL0     C55055   6.636   2.122   2.452 -0.0689  0.2772 -0.0971
  418MOL0     C55056   6.746   2.230   2.438  0.0952  0.2099  0.5152
  418MOL0     C55057   6.867   2.189   2.517  0.2387 -0.5368 -0.2041
  418MOL0     C55058   6.972   2.140   2.423 -0.1309  0.4267  1.3376
  418MOL0     C55059   7.098   2.080   2.485 -0.4466 -0.1994  0.9553
  418MOL0     C55060   7.200   2.029   2.378  0.6453  0.4724  0.7258
  418MOL0     N55061   7.143   1.942   2.273 -0.0089 -0.3453 -0.1595
  418MOL0     C55062   7.119   1.970   2.145 -0.1185 -0.1704 -0.2563
  418MOL0     C55063   7.070   1.852   2.100 -0.2744 -0.1296  0.3042
  418MOL0     C55064   7.038   1.826   1.956  0.7490  0.3613  0.4375
  418MOL0     C55065   7.142   1.739   1.889 -0.1885 -0.2098 -0.3239
  418MOL0     C55066   7.148   1.586   1.934  1.1123 -0.8568  0.4878
  418MOL0     C55067   7.020   1.504   1.902 -0.4306  0.7576 -0.6791
  418MOL0     O55068   6.979   1.510   1.764  0.5497 -1.0232  0.0089
  418MOL0     C55069   6.859   1.565   1.724  0.7844  0.0871 -0.5082
  418MOL0     C55070   6.757   1.610   1.808  0.0830 -0.4343 -0.3581
  418MOL0     C55071   6.629   1.634   1.760  0.6200  0.2264 -1.0875
  418MOL0     C55072   6.600   1.636   1.630  0.6751  0.6782  0.5459
  418MOL0     C55073   6.469   1.677   1.580  0.0815 -0.1260  0.0231
  418MOL0     O55074   6.447   1.673   1.449 -0.4937  0.0418  0.7310
  418MOL0     C55075   6.320   1.707   1.401 -0.3306 -0.0896  0.6880
  418MOL0     C55076   6.321   1.755   1.269  0.4165 -0.5513 -0.7834
  418MOL0     C55077   6.199   1.776   1.202 -0.4031 -0.2455 -1.1516
  418MOL0     C55078   6.075   1.758   1.262 -0.6168 -0.7981  0.2455
  418MOL0     O55079   5.956   1.779   1.193 -0.0985  0.0343  0.3194
  418MOL0     C55080   5.891   1.895   1.244  0.7115  0.2989  1.0222
  418MOL0     C55081   5.939   2.020   1.164  0.3828 -0.2105 -0.1754
  418MOL0     C55082   5.854   2.137   1.209  0.5053 -0.9277  0.4562
  418MOL0     C55083   5.720   2.134   1.141  0.4896  0.4321 -0.1018
  418MOL0     C55084   5.651   2.272   1.153 -0.1037  0.6280 -0.4243
  418MOL0     C55085   5.521   2.273   1.061  0.1630 -0.5709 -0.8099
  418MOL0     C55086   5.444   2.414   1.069 -0.3327  0.4024  0.0199
  418MOL0     C55087   5.345   2.421   0.962 -0.0205  0.6054  0.2181
  418MOL0    Cl55088   5.411   2.447   0.803 -0.1552  0.1817 -0.0170
  418MOL0     C55089   6.073   1.707   1.394  0.0087 -0.3229  0.6736
  418MOL0     C55090   6.193   1.689   1.463  0.5864 -1.2822 -0.1637
  418MOL0     O55091   6.385   1.711   1.670 -0.2288 -0.1951 -0.3376
  418MOL0     C55092   6.706   1.604   1.538 -0.3394  0.0464 -0.1358
  418MOL0     C55093   6.832   1.568   1.590  0.3200 -1.2824  0.2103
  418MOL0     N55094   7.084   1.752   2.190  0.2055 -0.2583 -0.4301
  418MOL0     N55095   7.122   1.811   2.296  0.1325 -0.4530 -1.0073
  418MOL0     C55096   6.277   1.746   2.511  0.2595  0.7039  0.4313
  418MOL0     C55097   6.171   1.688   2.578 -0.0816  0.3131 -0.9249
  418MOL0     C55098   5.757   1.681   2.826  0.2779  0.3894  0.3048
  418MOL0     C55099   5.691   1.726   2.933  0.3146  1.0689 -0.4765
  418MOL0     C55100   5.564   1.668   2.960  0.0724 -1.3902 -0.3772
  418MOL0     C55101   5.507   1.575   2.878  0.1596  0.9186  0.2228
  418MOL0     O55102   5.375   1.535   2.901  0.1733 -0.2919  0.2265
  418MOL0     C55103   5.295   1.447   2.810 -0.0644 -0.5377 -0.8806
  418MOL0     C55104   5.318   1.298   2.833  0.3905 -0.1114  0.3041
  418MOL0     C55105   5.223   1.238   2.939  0.7096  0.1638  0.1840
  418MOL0     C55106   5.236   1.290   3.081  0.3305 -0.0189 -0.1303
  418MOL0     C55107   5.142   1.209   3.160  0.2720 -0.2099  1.0950
  418MOL0     C55108   5.068   1.142   3.230  0.0686 -0.2963 -0.2249
  418MOL0     C55109   5.581   1.536   2.769  0.2706  0.6806  0.4079
  418MOL0     C55110   5.705   1.584   2.739 -0.7603  0.4688  0.5211
  418MOL0     H55111   6.025   1.968   2.709  0.4974  1.2602 -1.4214
  418MOL0     H55112   6.201   2.065   2.617 -1.5930 -0.0375  1.6128
  418MOL0     H55113   6.365   2.166   2.513 -0.0103  0.1381 -0.3807
  418MOL0     H55114   6.308   2.115   2.347 -0.1205 -0.2560 -1.3382
  418MOL0     H55115   6.505   2.260   2.365 -0.3488  0.2091  2.9071
  418MOL0     H55116   6.522   2.124   2.263 -3.8964  0.9178 -0.5839
  418MOL0     H55117   6.673   2.020   2.444  0.4747  0.5664 -1.6097
  418MOL0     H55118   6.603   2.125   2.557 -0.2106  0.7770 -0.1531
  418MOL0     H55119   6.765   2.253   2.332 -0.0871  1.3225  0.7163
  418MOL0     H55120   6.717   2.327   2.479  0.8078 -0.4604  2.7157
  418MOL0     H55121   6.836   2.111   2.587 -3.2270  1.0686  0.2487
  418MOL0     H55122   6.909   2.270   2.577  0.8268  0.8968 -2.4283
  418MOL0     H55123   7.007   2.217   2.354  1.3666 -0.7247  0.7302
  418MOL0     H55124   6.933   2.071   2.347  1.3693  1.3348 -0.3547
  418MOL0     H55125   7.137   2.166   2.541  0.3405  0.0431  0.0476
  418MOL0     H55126   7.067   2.004   2.557 -1.8542  1.3481  2.0823
  418MOL0     H55127   7.276   1.968   2.427  1.2276  0.8729  0.3347
  418MOL0     H55128   7.249   2.113   2.328 -2.6121  0.9662 -2.0568
  418MOL0     H55129   7.124   2.060   2.086 -0.4205 -0.4886 -0.7760
  418MOL0     H55130   7.045   1.917   1.896 -0.6735  2.0649  2.6919
  418MOL0     H55131   6.943   1.771   1.946  1.9559 -1.5660 -1.4338
  418MOL0     H55132   7.239   1.788   1.904 -0.0943 -0.6674  0.6467
  418MOL0     H55133   7.122   1.736   1.781 -1.3236 -2.6337 -0.1052
  418MOL0     H55134   7.229   1.540   1.877 -1.7017 -2.0852 -2.9164
  418MOL0     H55135   7.155   1.590   2.043  1.6929 -1.2217  0.4688
  418MOL0     H55136   6.939   1.525   1.972 -0.4280  0.5284 -0.6078
  418MOL0     H55137   7.056   1.402   1.917  3.7364  2.0001 -1.0187
  418MOL0     H55138   6.779   1.599   1.914 -0.7967 -2.3686 -0.3281
  418MOL0     H55139   6.563   1.668   1.839  3.5964  2.3343  0.7355
  418MOL0     H55140   6.410   1.762   1.208  0.1951 -0.8430 -1.1433
  418MOL0     H55141   6.203   1.815   1.101  1.9808 -2.6414 -2.0719
  418MOL0     H55142   5.920   1.914   1.348  0.3541  2.3677  0.7840
  418MOL0     H55143   5.784   1.879   1.238  0.6486 -0.7797  3.6475
  418MOL0     H55144   5.923   2.000   1.057 -0.9608  1.3890 -0.3014
  418MOL0     H55145   6.048   2.026   1.170  0.3714  2.0132 -1.1355
  418MOL0     H55146   5.906   2.233   1.201 -2.9191  1.0971  0.5973
  418MOL0     H55147   5.839   2.130   1.317 -1.1898  1.3246  0.4303
  418MOL0     H55148   5.743   2.118   1.035 -0.0845 -0.7161 -0.0601
  418MOL0     H55149   5.650   2.054   1.166  1.2528 -0.2905 -0.2322
  418MOL0     H55150   5.727   2.336   1.106  0.0360  0.4049 -0.5008
  418MOL0     H55151   5.631   2.304   1.256  0.5036  2.4830 -0.8415
  418MOL0     H55152   5.452   2.190   1.081 -0.0950 -0.2581 -0.4092
  418MOL0     H55153   5.545   2.250   0.956  1.1896  0.9983 -0.9444
  418MOL0     H55154   5.394   2.419   1.166 -2.9036 -0.8061 -1.1683
  418MOL0     H55155   5.512   2.499   1.060  1.2749 -0.8264  0.0533
  418MOL0     H55156   5.282   2.508   0.982  0.8285  1.1382  0.6133
  418MOL0     H55157   5.277   2.335   0.972 -0.6687  1.3951  3.8371
  418MOL0     H55158   5.985   1.669   1.445 -0.2919  0.2911  0.6170
  418MOL0     H55159   6.191   1.637   1.559  2.2163 -2.1511 -0.5623
  418MOL0     H55160   6.684   1.601   1.431 -0.4456 -3.6682 -0.1458
  418MOL0     H55161   6.908   1.532   1.521  1.3483  0.6421  0.2668
  418MOL0     H55162   6.341   1.683   2.450 -0.7814 -1.4141  1.4158
  418MOL0     H55163   6.165   1.579   2.580  2.1463  0.0124  3.7086
  418MOL0     H55164   5.738   1.788   3.009  0.1825 -3.1785  3.5456
  418MOL0     H55165   5.517   1.690   3.055  0.9074  2.6919 -0.7503
  418MOL0     H55166   5.300   1.478   2.705 -2.0453  0.8128 -0.6216
  418MOL0     H55167   5.188   1.451   2.830 -0.3103 -1.6071 -1.8502
  418MOL0     H55168   5.296   1.251   2.737  0.0494  1.3334 -0.3547
  418MOL0     H55169   5.419   1.272   2.867  0.4768  0.3550  0.4077
  418MOL0     H55170   5.233   1.129   2.939 -2.3819 -0.2224 -0.7826
  418MOL0     H55171   5.121   1.237   2.899  1.2990 -0.1243 -1.3439
  418MOL0     H55172   5.337   1.287   3.123 -0.6568 -0.0338  2.4078
  418MOL0     H55173   5.207   1.396   3.086  0.4494 -0.0335  1.0636
  418MOL0     H55174   5.002   1.090   3.296 -1.3132 -2.2035 -2.9216
  418MOL0     H55175   5.539   1.459   2.705 -0.9683  1.3136  0.4295
  418MOL0     H55176   5.757   1.550   2.650 -0.0159  0.7019  0.8573
  419MOL0     O55177   4.628   5.720   1.662  0.5115 -0.2105 -0.4766
  419MOL0     C55178   4.634   5.839   1.675 -0.2509  0.7078 -1.3110
  419MOL0     O55179   4.532   5.924   1.698  0.3782  0.6674 -0.4443
  419MOL0     C55180   4.402   5.884   1.716  0.9540 -0.3359  0.8544
  419MOL0     C55181   4.368   5.758   1.773  0.3198 -0.6546 -0.7093
  419MOL0     C55182   4.231   5.732   1.792 -1.0341 -0.2145 -0.7747
  419MOL0     C55183   4.127   5.828   1.766 -0.0027 -0.2103  0.1865
  419MOL0     O55184   4.002   5.793   1.811  0.8873  0.0016 -0.3927
  419MOL0     C55185   3.947   5.892   1.900 -0.8062  0.4450  0.2821
  419MOL0     C55186   3.809   5.847   1.936 -0.3858  0.4569 -0.5047
  419MOL0     C55187   3.720   5.852   1.817 -0.4569  1.8097  0.0713
  419MOL0     C55188   3.575   5.826   1.854  0.4195 -0.5658  0.3759
  419MOL0     C55189   3.541   5.692   1.912 -0.3002  0.1259 -1.3615
  419MOL0     C55190   3.395   5.651   1.886  0.9043 -0.4176 -0.1174
  419MOL0     C55191   3.269   5.733   1.944 -0.8581  0.1351 -1.0579
  419MOL0     C55192   3.264   5.728   2.099 -0.5842 -0.1611  0.2962
  419MOL0     N55193   3.182   5.828   2.168  0.1076  0.1046 -0.6686
  419MOL0     C55194   3.226   5.918   2.263 -0.8474  0.3323  0.6558
  419MOL0     C55195   3.109   5.983   2.295  0.5386 -0.6424  0.3707
  419MOL0     C55196   3.099   6.102   2.394 -0.8184 -0.4504 -0.7422
  419MOL0     C55197   3.217   6.203   2.371  0.6167 -0.3780 -0.3461
  419MOL0     C55198   3.198   6.331   2.469 -0.2898  0.0091  0.2313
  419MOL0     C55199   3.300   6.444   2.455 -0.1790 -0.4923  0.2923
  419MOL0     O55200   3.427   6.382   2.445 -0.8261  0.2009 -0.4222
  419MOL0     C55201   3.537   6.470   2.432 -0.3347  0.8244  0.1409
  419MOL0     C55202   3.539   6.592   2.366 -0.2191 -0.0858 -0.1781
  419MOL0     C55203   3.658   6.672   2.359  0.3358  0.3883  0.3040
  419MOL0     C55204   3.779   6.625   2.421 -0.0791  0.0595 -0.1215
  419MOL0     C55205   3.898   6.713   2.426 -0.3855  0.1946  0.0858
  419MOL0     O55206   4.010   6.646   2.432  0.0866  0.6268 -0.3011
  419MOL0     C55207   4.127   6.718   2.410  0.0261  0.6618 -0.1264
  419MOL0     C55208   4.153   6.819   2.310 -0.3180 -0.1513  0.1320
  419MOL0     C55209   4.276   6.892   2.313 -0.3740 -0.2300  0.9461
  419MOL0     C55210   4.385   6.854   2.397  0.6569 -0.2674 -0.3771
  419MOL0     O55211   4.508   6.909   2.396  0.2966 -0.6131  0.5664
  419MOL0     C55212   4.534   7.020   2.311  0.2489  0.4265 -0.1424
  419MOL0     C55213   4.686   7.061   2.323  0.2716  0.0959 -0.5729
  419MOL0     C55214   4.700   7.168   2.213  0.3139 -0.5730  1.0029
  419MOL0     C55215   4.831   7.236   2.220 -0.2097 -0.0608 -0.5433
  419MOL0     C55216   4.845   7.326   2.102 -0.2210 -0.8915  0.7275
  419MOL0     C55217   4.986   7.397   2.114  0.8335  0.3962 -0.1930
  419MOL0     C55218   4.987   7.521   2.014 -0.2621 -0.6584 -0.4067
  419MOL0     C55219   5.119   7.601   2.004  0.1005 -0.1008  0.7402
  419MOL0    Cl55220   5.128   7.707   2.147  0.0535 -0.6561 -0.2215
  419MOL0     C55221   4.357   6.768   2.495  0.7042  0.2669  0.9303
  419MOL0     C55222   4.235   6.685   2.497 -0.6679  0.0894  0.0746
  419MOL0     O55223   3.888   6.830   2.410  0.5077 -0.1303 -0.0458
  419MOL0     C55224   3.773   6.498   2.482 -0.7307 -0.1544  0.5186
  419MOL0     C55225   3.660   6.420   2.485  0.5222 -0.3785  0.2745
  419MOL0     N55226   3.004   5.933   2.215 -0.1337  0.1646  0.3728
  419MOL0     N55227   3.050   5.837   2.145  0.3096  0.3098 -0.2528
  419MOL0     C55228   4.163   5.956   1.728 -0.5465  1.0204 -0.5078
  419MOL0     C55229   4.297   5.983   1.702  0.0657 -0.5738 -0.9832
  419MOL0     C55230   4.767   5.895   1.661 -0.1949  0.1301 -0.4887
  419MOL0     C55231   4.887   5.818   1.634 -0.8288  0.6964 -0.4957
  419MOL0     C55232   5.010   5.889   1.604  0.0143  0.0554 -1.0902
  419MOL0     C55233   5.017   6.026   1.621  0.3785 -0.2683 -0.2171
  419MOL0     O55234   5.132   6.106   1.608 -0.2472  1.0271 -0.1351
  419MOL0     C55235   5.238   6.055   1.523  0.1299  0.2391 -0.2035
  419MOL0     C55236   5.305   6.182   1.476 -1.4163 -0.1031 -0.0110
  419MOL0     C55237   5.448   6.155   1.437 -0.4379  0.2823  0.2393
  419MOL0     C55238   5.494   6.275   1.356  0.6870 -0.6785 -0.5515
  419MOL0     C55239   5.511   6.400   1.435 -0.4606  0.1314  0.8861
  419MOL0     C55240   5.523   6.497   1.500 -0.4202  0.6143 -0.2992
  419MOL0     C55241   4.894   6.098   1.649 -0.2886 -0.3733 -0.0844
  419MOL0     C55242   4.775   6.038   1.672  0.0541 -0.2894  0.7276
  419MOL0     H55243   4.447   5.688   1.799  1.1603  0.6175  0.3142
  419MOL0     H55244   4.195   5.638   1.833  2.1546  0.2268  3.9144
  419MOL0     H55245   3.939   5.994   1.860 -0.5473  0.6634  0.7815
  419MOL0     H55246   4.020   5.901   1.981  0.9906  1.0244 -1.3274
  419MOL0     H55247   3.773   5.909   2.019  0.8816  3.2173 -1.8638
  419MOL0     H55248   3.806   5.743   1.969 -0.5687  1.4575  3.0120
  419MOL0     H55249   3.738   5.773   1.744 -2.1737  0.7246  0.7361
  419MOL0     H55250   3.720   5.951   1.771  0.7447  2.4421  1.3630
  419MOL0     H55251   3.530   5.906   1.913 -0.3049 -3.4327  4.1433
  419MOL0     H55252   3.517   5.818   1.762  0.7541 -5.7888  0.2916
  419MOL0     H55253   3.560   5.688   2.020  2.8084 -1.5717 -1.8387
  419MOL0     H55254   3.602   5.608   1.876  0.5198  0.9157 -1.8540
  419MOL0     H55255   3.372   5.550   1.921  3.3960 -0.3028  2.1822
  419MOL0     H55256   3.378   5.643   1.779  1.0444  0.4608 -0.2139
  419MOL0     H55257   3.274   5.836   1.906  1.0129  0.7256  0.5750
  419MOL0     H55258   3.179   5.685   1.906 -1.3525  0.1331  0.0728
  419MOL0     H55259   3.367   5.720   2.136 -0.7416 -1.9009  0.4511
  419MOL0     H55260   3.228   5.628   2.121  0.6369 -0.1858  2.4626
  419MOL0     H55261   3.327   5.926   2.302 -0.5676 -0.2417  0.0728
  419MOL0     H55262   3.126   6.060   2.491  0.8473  1.8978 -0.1055
  419MOL0     H55263   3.008   6.160   2.406  0.3513  0.8815  2.8305
  419MOL0     H55264   3.226   6.237   2.267 -4.9144  1.3186 -0.6087
  419MOL0     H55265   3.305   6.151   2.410 -0.5589 -3.1396 -1.1382
  419MOL0     H55266   3.104   6.385   2.459  0.5239  1.2830 -0.8702
  419MOL0     H55267   3.204   6.284   2.567 -0.2006  0.3734  0.4017
  419MOL0     H55268   3.292   6.507   2.544  2.7879 -1.0437  1.0934
  419MOL0     H55269   3.265   6.498   2.367 -3.8075 -0.8765  1.3420
  419MOL0     H55270   3.447   6.634   2.326 -1.5228 -3.0271 -0.5223
  419MOL0     H55271   3.655   6.771   2.314  0.5795 -1.1591 -3.4608
  419MOL0     H55272   4.083   6.846   2.231 -1.3848  0.2068  1.1710
  419MOL0     H55273   4.286   6.967   2.235 -1.6355 -0.4879  0.5119
  419MOL0     H55274   4.467   7.101   2.342  1.7108  1.5307  0.2233
  419MOL0     H55275   4.507   6.999   2.207 -0.6422  1.1385 -0.0693
  419MOL0     H55276   4.759   6.980   2.323  3.2239  2.5731 -1.2542
  419MOL0     H55277   4.693   7.118   2.416 -3.1954  1.3340 -0.9195
  419MOL0     H55278   4.616   7.237   2.200  0.5541 -0.2976  0.8936
  419MOL0     H55279   4.704   7.114   2.118 -2.8659  1.5923 -0.5369
  419MOL0     H55280   4.851   7.282   2.318 -5.1275  2.2290 -0.2946
  419MOL0     H55281   4.907   7.160   2.200  0.4574  1.2715 -3.6697
  419MOL0     H55282   4.763   7.398   2.091 -1.1424 -1.9383  0.5774
  419MOL0     H55283   4.849   7.267   2.010 -0.7490  1.8670 -1.2022
  419MOL0     H55284   5.060   7.323   2.084  0.3189 -1.4613  2.7138
  419MOL0     H55285   5.003   7.433   2.215  0.4776  4.0557 -1.2757
  419MOL0     H55286   4.952   7.481   1.919 -1.8644 -0.8343  0.2296
  419MOL0     H55287   4.921   7.597   2.056 -1.0148 -1.5772  0.1042
  419MOL0     H55288   5.117   7.663   1.914  3.3412  0.1982  0.7536
  419MOL0     H55289   5.202   7.530   1.999  0.1379  0.0478 -1.9150
  419MOL0     H55290   4.435   6.739   2.565  0.7259  2.1207  1.7320
  419MOL0     H55291   4.224   6.599   2.563 -1.1441 -0.4372 -0.6861
  419MOL0     H55292   3.866   6.458   2.521  1.2918 -0.9208 -4.3525
  419MOL0     H55293   3.664   6.317   2.519 -3.6498 -0.6030  0.6808
  419MOL0     H55294   4.085   6.028   1.701 -1.4961 -0.4459 -1.8500
  419MOL0     H55295   4.317   6.076   1.649 -0.5853  0.1271 -0.0196
  419MOL0     H55296   4.874   5.710   1.629  0.5028  0.5399 -0.7976
  419MOL0     H55297   5.095   5.829   1.572 -0.1025 -0.5542 -0.3230
  419MOL0     H55298   5.206   6.008   1.429  2.1397  0.1319 -0.8703
  419MOL0     H55299   5.299   5.977   1.568 -0.9640 -0.9741 -0.7530
  419MOL0     H55300   5.254   6.227   1.389  1.7045 -0.3347 -2.1240
  419MOL0     H55301   5.310   6.264   1.547  0.6414  1.6218 -1.9797
  419MOL0     H55302   5.440   6.064   1.377 -0.2771 -0.4174  1.2516
  419MOL0     H55303   5.520   6.144   1.519 -1.0971 -1.4810  0.6212
  419MOL0     H55304   5.574   6.230   1.296 -0.2881 -4.7656  0.8458
  419MOL0     H55305   5.419   6.309   1.284  2.2070  1.3953 -1.2412
  419MOL0     H55306   5.543   6.580   1.564  0.4589  0.6903 -0.6664
  419MOL0     H55307   4.909   6.204   1.666  0.9948 -0.7221  1.1124
  419MOL0     H55308   4.686   6.081   1.715  1.0547 -0.4923  3.1382
  420MOL0     O55309   0.304   2.575   8.665 -0.1849 -0.1394  0.0493
  420MOL0     C55310   0.277   2.692   8.657 -0.9495  0.1876 -1.3198
  420MOL0     O55311   0.154   2.751   8.665  0.1408  0.5820  0.2863
  420MOL0     C55312   0.046   2.668   8.709 -0.4396 -0.7071 -0.0423
  420MOL0     C55313   0.035   2.612   8.835 -0.1560  1.3446  0.7895
  420MOL0     C55314  -0.082   2.547   8.878 -0.3389  0.3863  0.1383
  420MOL0     C55315  -0.182   2.534   8.787  0.5425  0.6100  0.0472
  420MOL0     O55316  -0.299   2.478   8.829  0.5928  0.1567  0.1840
  420MOL0     C55317  -0.432   2.503   8.771 -0.0314  0.1031 -1.1301
  420MOL0     C55318  -0.542   2.495   8.875  0.7951 -0.1543  0.4480
  420MOL0     C55319  -0.522   2.613   8.965 -1.2711  0.8988 -0.5696
  420MOL0     C55320  -0.647   2.637   9.067  0.8892 -0.8607  0.4429
  420MOL0     C55321  -0.746   2.733   8.994  0.4432  0.6747  0.5336
  420MOL0     C55322  -0.875   2.764   9.068  0.2126  0.1391 -0.6474
  420MOL0     C55323  -0.940   2.888   9.014  0.5208 -0.5524  0.5787
  420MOL0     C55324  -1.080   2.890   9.072  1.3456 -1.2111  0.2546
  420MOL0     N55325  -1.079   2.935   9.210 -1.0872 -0.7930 -0.5702
  420MOL0     C55326  -1.093   3.072   9.240  0.0047  0.1590 -0.3232
  420MOL0     C55327  -1.116   3.076   9.375 -0.2195  0.5500  0.7743
  420MOL0     C55328  -1.152   3.199   9.455  0.2757 -0.0658 -0.8150
  420MOL0     C55329  -1.303   3.223   9.458  0.2313 -0.9774 -0.1344
  420MOL0     C55330  -1.348   3.348   9.536 -0.4479 -0.0500 -0.1202
  420MOL0     C55331  -1.482   3.405   9.509  0.6567  0.3130  0.5469
  420MOL0     O55332  -1.578   3.306   9.551 -0.6540  0.7631  0.6149
  420MOL0     C55333  -1.707   3.337   9.540  0.5809  0.0340  0.0275
  420MOL0     C55334  -1.800   3.237   9.579 -0.9042  0.0882  1.1888
  420MOL0     C55335  -1.934   3.262   9.546 -0.6867  0.2171  0.0656
  420MOL0     C55336  -1.978   3.392   9.516 -0.4635 -0.1599 -1.1701
  420MOL0     C55337  -2.123   3.427   9.500 -0.6789  0.5553 -0.3171
  420MOL0     O55338  -2.143   3.558   9.461  0.2206  0.0269 -0.0127
  420MOL0     C55339  -2.276   3.601   9.451 -0.8239  0.0060  0.5417
  420MOL0     C55340  -2.331   3.657   9.571 -0.2706  0.6113 -0.2801
  420MOL0     C55341  -2.458   3.708   9.569 -0.9587 -0.0830  0.3865
  420MOL0     C55342  -2.541   3.706   9.459  0.7920 -0.4380 -0.1663
  420MOL0     O55343  -2.662   3.779   9.468  0.4103 -0.3908  0.3705
  420MOL0     C55344  -2.700   3.865   9.362  0.7866 -0.0720 -0.7569
  420MOL0     C55345  -2.837   3.924   9.413  0.9469 -0.3730 -0.6786
  420MOL0     C55346  -2.913   4.010   9.311 -0.1554 -0.3238  1.1638
  420MOL0     C55347  -3.070   3.979   9.306  0.2643  0.0544 -0.0055
  420MOL0     C55348  -3.141   4.078   9.215 -0.7636 -0.8727  0.1783
  420MOL0     C55349  -3.196   4.188   9.293  0.7345 -0.1262  0.0979
  420MOL0     C55350  -3.269   4.291   9.200  0.4909  0.4650 -0.0236
  420MOL0     C55351  -3.327   4.397   9.300 -0.2238  0.2956 -1.0966
  420MOL0    Cl55352  -3.482   4.327   9.368 -0.2156  0.1209 -0.0409
  420MOL0     C55353  -2.487   3.660   9.346  0.3407  0.2584 -1.1890
  420MOL0     C55354  -2.357   3.603   9.339  0.8848 -1.0808 -0.2957
  420MOL0     O55355  -2.209   3.335   9.523  0.3636 -0.2633  0.5350
  420MOL0     C55356  -1.881   3.496   9.495 -0.7870 -0.4534  0.5345
  420MOL0     C55357  -1.750   3.462   9.496 -0.1452  0.4709  1.1028
  420MOL0     N55358  -1.100   2.942   9.423 -0.8728 -0.4311 -0.1090
  420MOL0     N55359  -1.110   2.862   9.325 -0.3214 -0.5730 -0.0514
  420MOL0     C55360  -0.174   2.592   8.662  0.0210  0.2292  0.0042
  420MOL0     C55361  -0.065   2.669   8.627  1.0641  0.4270 -0.1703
  420MOL0     C55362   0.391   2.787   8.651 -0.1858  0.0063  0.3362
  420MOL0     C55363   0.521   2.749   8.609 -0.7437 -0.3815  0.0637
  420MOL0     C55364   0.628   2.827   8.632 -0.3814 -0.8574  0.3244
  420MOL0     C55365   0.615   2.962   8.665 -0.3293  0.0117  0.6804
  420MOL0     O55366   0.715   3.059   8.679  0.0483  0.0931  0.5749
  420MOL0     C55367   0.855   3.028   8.682  0.0928  0.4394  0.1604
  420MOL0     C55368   0.922   3.021   8.544 -0.6495 -0.7236 -0.2020
  420MOL0     C55369   1.075   2.999   8.549  0.1640  0.0387 -0.2200
  420MOL0     C55370   1.140   3.041   8.408  0.0339 -0.3147  0.9588
  420MOL0     C55371   1.280   3.051   8.421 -0.1151  0.5317 -0.4021
  420MOL0     C55372   1.395   3.074   8.443  0.5092 -1.3170 -0.8697
  420MOL0     C55373   0.483   3.004   8.685  0.4607 -0.4703  0.8285
  420MOL0     C55374   0.373   2.914   8.692 -0.1653 -0.3045  0.1059
  420MOL0     H55375   0.110   2.614   8.914  0.2467 -0.1249  0.4835
  420MOL0     H55376  -0.093   2.507   8.979  3.0764 -0.3191  0.3549
  420MOL0     H55377  -0.444   2.424   8.696 -0.2717  1.8410 -3.0017
  420MOL0     H55378  -0.430   2.601   8.723  2.2575  0.8384  0.3213
  420MOL0     H55379  -0.547   2.396   8.921  0.6344 -0.6793 -0.6698
  420MOL0     H55380  -0.634   2.507   8.818 -1.0253  0.0943  3.2414
  420MOL0     H55381  -0.514   2.700   8.900 -0.5202 -0.9747 -3.1390
  420MOL0     H55382  -0.426   2.615   9.018 -1.9972  0.3617  0.8421
  420MOL0     H55383  -0.698   2.542   9.088 -2.1199  1.2352  3.8561
  420MOL0     H55384  -0.606   2.676   9.161  0.4608 -1.0528  0.7120
  420MOL0     H55385  -0.782   2.685   8.903  0.2738  1.4503  0.1793
  420MOL0     H55386  -0.695   2.825   8.961  0.8629  0.7999  1.4914
  420MOL0     H55387  -0.848   2.783   9.173  0.9134 -2.6074 -0.2339
  420MOL0     H55388  -0.935   2.673   9.058  1.6739 -0.8826 -0.5133
  420MOL0     H55389  -0.873   2.968   9.045  2.6328 -1.9937 -0.0952
  420MOL0     H55390  -0.935   2.881   8.905  5.5942  0.4176  0.5419
  420MOL0     H55391  -1.125   2.790   9.078 -1.2063 -0.0428  2.3833
  420MOL0     H55392  -1.138   2.953   9.004  3.9248  0.6411 -0.3783
  420MOL0     H55393  -1.097   3.158   9.173 -0.1840 -0.3501 -0.9783
  420MOL0     H55394  -1.103   3.294   9.430 -0.6224  0.4396 -0.7250
  420MOL0     H55395  -1.123   3.185   9.560  0.3904  0.0549 -0.8305
  420MOL0     H55396  -1.358   3.132   9.486  0.6531 -0.7178  1.6642
  420MOL0     H55397  -1.327   3.253   9.355 -1.9320 -0.7213  0.3879
  420MOL0     H55398  -1.358   3.333   9.644 -0.1141  1.3414  0.1295
  420MOL0     H55399  -1.272   3.422   9.508 -0.9367  1.1667  1.5910
  420MOL0     H55400  -1.481   3.427   9.402 -1.7817  0.7770  0.5559
  420MOL0     H55401  -1.493   3.499   9.565  0.4703  0.1124  0.8475
  420MOL0     H55402  -1.768   3.147   9.630 -0.4450 -0.6315 -0.3164
  420MOL0     H55403  -2.006   3.180   9.554  1.2167 -1.5873 -0.4123
  420MOL0     H55404  -2.263   3.654   9.656  2.3347 -0.1344 -2.2648
  420MOL0     H55405  -2.499   3.743   9.663 -1.2458 -0.3490  0.3641
  420MOL0     H55406  -2.717   3.808   9.270 -1.9988  2.1942 -1.7893
  420MOL0     H55407  -2.629   3.944   9.335  1.0281 -0.8173 -2.4402
  420MOL0     H55408  -2.832   3.984   9.505 -1.5274 -1.5453  0.3115
  420MOL0     H55409  -2.904   3.839   9.430 -0.9891  0.7288 -2.2747
  420MOL0     H55410  -2.871   3.995   9.211  0.7107 -0.7890  1.5791
  420MOL0     H55411  -2.903   4.114   9.342 -0.4813 -0.9196  3.4956
  420MOL0     H55412  -3.081   3.887   9.248 -0.3171  2.3086 -3.7986
  420MOL0     H55413  -3.109   3.979   9.408 -0.7144  1.2054 -0.3647
  420MOL0     H55414  -3.216   4.038   9.147 -0.9632  1.3844 -1.0411
  420MOL0     H55415  -3.071   4.130   9.149  0.8090 -2.1814  0.7426
  420MOL0     H55416  -3.105   4.231   9.336  0.7091  5.4704 -4.3545
  420MOL0     H55417  -3.267   4.162   9.372 -0.0270  0.6334 -0.3207
  420MOL0     H55418  -3.196   4.341   9.136 -0.4187  1.4638 -0.3001
  420MOL0     H55419  -3.349   4.246   9.142  0.2940 -0.9453  1.2673
  420MOL0     H55420  -3.362   4.484   9.243 -2.2213 -2.4088 -4.3939
  420MOL0     H55421  -3.253   4.432   9.373 -1.3769  0.1205  0.1923
  420MOL0     H55422  -2.541   3.642   9.254  1.9895 -2.1001 -1.7996
  420MOL0     H55423  -2.331   3.558   9.244  2.5107  3.1337 -2.1276
  420MOL0     H55424  -1.905   3.599   9.470 -0.5284 -0.6039 -0.3620
  420MOL0     H55425  -1.683   3.545   9.478  0.1977  0.6004  2.7869
  420MOL0     H55426  -0.262   2.585   8.599 -0.4859  2.0458  0.4400
  420MOL0     H55427  -0.059   2.723   8.533  2.1168 -4.8336 -3.5753
  420MOL0     H55428   0.532   2.644   8.583  1.5824 -0.3012  0.5870
  420MOL0     H55429   0.727   2.786   8.614  0.1174  0.5626 -0.4241
  420MOL0     H55430   0.868   2.928   8.724 -1.2979  0.3575  0.4210
  420MOL0     H55431   0.908   3.101   8.744 -0.1518 -0.1980  1.1374
  420MOL0     H55432   0.860   2.947   8.492 -1.9830 -0.8323  1.4523
  420MOL0     H55433   0.900   3.118   8.499  0.5807  0.4449  1.5763
  420MOL0     H55434   1.093   2.891   8.547 -3.5624 -0.7553  0.8744
  420MOL0     H55435   1.123   3.050   8.633  0.0380  1.2814 -0.8839
  420MOL0     H55436   1.122   2.965   8.332  0.4013  0.4477  0.0958
  420MOL0     H55437   1.095   3.134   8.371 -1.4499 -0.7540  1.5962
  420MOL0     H55438   1.496   3.106   8.459 -0.4018  1.3188  0.2280
  420MOL0     H55439   0.451   3.107   8.697 -0.3427 -0.6740  0.5265
  420MOL0     H55440   0.275   2.952   8.721 -0.2373 -1.2174  1.0974
  421MOL0     O55441   5.445   1.166   7.830 -0.1328  0.3760 -0.0990
  421MOL0     C55442   5.498   1.053   7.814 -0.8587  0.4723 -0.1847
  421MOL0     O55443   5.439   0.943   7.756 -0.4164  0.2533 -0.0576
  421MOL0     C55444   5.303   0.931   7.749 -0.5179 -0.1784 -0.3203
  421MOL0     C55445   5.259   0.824   7.661  0.4299 -0.2027  0.0341
  421MOL0     C55446   5.117   0.805   7.657  0.7083 -0.0994  1.0225
  421MOL0     C55447   5.027   0.886   7.736 -0.1500 -0.4619 -0.6543
  421MOL0     O55448   4.891   0.853   7.738  0.8687 -0.0265  0.0625
  421MOL0     C55449   4.840   0.711   7.728  0.5175 -0.7822  0.5279
  421MOL0     C55450   4.727   0.719   7.632 -0.8736  0.0545  0.0804
  421MOL0     C55451   4.610   0.799   7.677  1.3821  0.0347  0.2826
  421MOL0     C55452   4.488   0.781   7.580  0.1975 -0.3836 -1.0024
  421MOL0     C55453   4.377   0.886   7.613 -0.4198 -0.3857  0.3346
  421MOL0     C55454   4.299   0.838   7.730  0.1535 -0.0934  1.4846
  421MOL0     C55455   4.212   0.952   7.787  0.1605  0.0217 -0.6732
  421MOL0     C55456   4.129   0.908   7.910  0.0463  0.6873  0.8508
  421MOL0     N55457   4.039   1.023   7.943  0.3760  0.2006  0.7082
  421MOL0     C55458   3.930   1.060   7.860 -0.5678  0.6449 -0.5099
  421MOL0     C55459   3.878   1.166   7.923  0.0144  0.4921 -1.3388
  421MOL0     C55460   3.757   1.247   7.884  0.5758  0.7140 -0.0150
  421MOL0     C55461   3.626   1.166   7.905 -0.9109  0.8660  0.0930
  421MOL0     C55462   3.512   1.222   7.813  0.1311 -0.8991  0.4519
  421MOL0     C55463   3.370   1.169   7.857 -0.8245  1.0899  0.3698
  421MOL0     O55464   3.346   1.218   7.989 -0.3285 -0.6983  0.6099
  421MOL0     C55465   3.231   1.186   8.060 -0.6411  0.0627  0.5971
  421MOL0     C55466   3.144   1.080   8.021 -0.0667  0.2732 -0.4228
  421MOL0     C55467   3.029   1.058   8.101  0.6366 -0.2352 -0.2943
  421MOL0     C55468   2.999   1.135   8.215 -0.5104 -0.2845  0.7854
  421MOL0     C55469   2.871   1.100   8.285 -0.1355 -1.1446 -0.3796
  421MOL0     O55470   2.805   0.983   8.255  0.5361  0.4698  1.2651
  421MOL0     C55471   2.677   0.956   8.302  0.2559  0.4815 -0.6593
  421MOL0     C55472   2.656   0.940   8.433 -0.3364 -0.0531 -1.0764
  421MOL0     C55473   2.523   0.913   8.477 -0.4869  0.4906 -0.2760
  421MOL0     C55474   2.416   0.904   8.390 -0.5446 -0.2530 -0.8460
  421MOL0     O55475   2.296   0.861   8.441 -0.3981  0.5627 -0.1436
  421MOL0     C55476   2.175   0.859   8.375  1.0021 -0.2273 -0.3310
  421MOL0     C55477   2.067   0.810   8.469 -0.3536 -0.4244 -0.2401
  421MOL0     C55478   1.951   0.759   8.385 -0.1859  0.4386 -0.3712
  421MOL0     C55479   1.841   0.717   8.483 -0.0075  0.2488  0.5986
  421MOL0     C55480   1.875   0.586   8.566 -0.2847  0.1764  0.5909
  421MOL0     C55481   1.924   0.460   8.492 -0.0072 -0.3990  0.0717
  421MOL0     C55482   1.828   0.423   8.370  0.5730  0.4304  0.7654
  421MOL0     C55483   1.684   0.384   8.417  0.3165 -0.6994 -0.3027
  421MOL0    Cl55484   1.684   0.247   8.538  0.3299 -0.3840 -0.4252
  421MOL0     C55485   2.434   0.928   8.253 -0.4087 -0.5557  0.6038
  421MOL0     C55486   2.569   0.954   8.215 -0.5603 -0.8495  0.1998
  421MOL0     O55487   2.820   1.181   8.361  0.2516  0.8250 -0.0479
  421MOL0     C55488   3.093   1.230   8.260 -0.1853  0.4059  0.5808
  421MOL0     C55489   3.206   1.262   8.181  0.4085 -0.4170  0.0731
  421MOL0     N55490   3.946   1.194   8.036 -0.4390  0.0304  0.5257
  421MOL0     N55491   4.046   1.111   8.046 -0.3863  0.7853 -0.5844
  421MOL0     C55492   5.074   0.976   7.828  1.1447  0.6958 -0.3150
  421MOL0     C55493   5.209   1.005   7.827 -0.2394  0.8818 -1.0482
  421MOL0     C55494   5.629   1.035   7.881  0.3760 -0.0959  0.8869
  421MOL0     C55495   5.696   0.913   7.887  0.2012 -0.5076  0.3728
  421MOL0     C55496   5.823   0.910   7.949 -0.4781  0.4686 -0.7377
  421MOL0     C55497   5.884   1.024   8.007 -0.2524  0.3964 -0.5584
  421MOL0     O55498   6.007   1.011   8.079  0.5468  0.1487 -0.4507
  421MOL0     C55499   6.090   1.125   8.072  0.5683 -0.0556  0.0563
  421MOL0     C55500   6.227   1.083   8.036  0.1218  1.7340 -0.1695
  421MOL0     C55501   6.295   0.975   8.128  0.4632 -0.5843 -0.5147
  421MOL0     C55502   6.442   0.963   8.088 -0.2276  0.2518  0.0915
  421MOL0     C55503   6.522   0.874   8.177  0.9316 -0.4790 -0.7353
  421MOL0     C55504   6.575   0.799   8.250 -0.7539  0.5773 -0.3113
  421MOL0     C55505   5.808   1.144   7.988 -0.2391  0.0850 -0.3685
  421MOL0     C55506   5.684   1.142   7.942 -0.5131  0.1664 -0.2901
  421MOL0     H55507   5.314   0.763   7.590 -1.2845 -1.3518 -0.3662
  421MOL0     H55508   5.066   0.745   7.582 -0.3832 -0.0633  1.7223
  421MOL0     H55509   4.802   0.664   7.818  1.0342  1.1308  1.8038
  421MOL0     H55510   4.917   0.645   7.685  2.2020  0.4368  1.5391
  421MOL0     H55511   4.689   0.616   7.628 -1.4137  0.1967  1.1752
  421MOL0     H55512   4.773   0.744   7.536 -0.1476  1.2960  0.7327
  421MOL0     H55513   4.638   0.904   7.668  2.1058 -0.3138 -2.5085
  421MOL0     H55514   4.580   0.776   7.780  1.0336  1.4229  0.5128
  421MOL0     H55515   4.517   0.786   7.475  1.0800  0.4135 -0.7331
  421MOL0     H55516   4.435   0.685   7.580 -3.3525  1.3758 -3.0485
  421MOL0     H55517   4.307   0.890   7.529 -2.3758 -2.4366  1.7672
  421MOL0     H55518   4.413   0.989   7.625 -0.9669  0.1766 -2.3349
  421MOL0     H55519   4.366   0.798   7.807 -0.3173  2.3168  3.2481
  421MOL0     H55520   4.232   0.758   7.698 -0.8920  0.5629  1.9546
  421MOL0     H55521   4.289   1.028   7.804  3.2739 -2.0676 -4.0017
  421MOL0     H55522   4.140   0.984   7.711 -0.9772  2.7535  1.3635
  421MOL0     H55523   4.197   0.891   7.995 -0.4281  0.8510  1.2658
  421MOL0     H55524   4.071   0.817   7.891  1.5831 -0.2497  0.3671
  421MOL0     H55525   3.880   1.009   7.779 -1.7136  0.2596  0.4144
  421MOL0     H55526   3.754   1.270   7.777  0.5309  0.4964 -0.0605
  421MOL0     H55527   3.754   1.334   7.951  0.7932 -1.4631  3.0007
  421MOL0     H55528   3.604   1.154   8.012 -1.1570  1.2083  0.0811
  421MOL0     H55529   3.649   1.068   7.861  0.0178  0.5380  1.2603
  421MOL0     H55530   3.506   1.330   7.827 -2.3060 -1.0866  1.3422
  421MOL0     H55531   3.533   1.206   7.707  2.2810  0.1447  0.6617
  421MOL0     H55532   3.372   1.059   7.855 -1.6602  0.8413  4.3628
  421MOL0     H55533   3.295   1.207   7.787 -0.6310  0.4234 -0.2055
  421MOL0     H55534   3.157   1.013   7.936  1.8326 -1.9773  1.5052
  421MOL0     H55535   2.952   0.986   8.072 -4.2357  2.8047  3.5730
  421MOL0     H55536   2.740   0.964   8.496 -0.6433  0.8720 -0.9962
  421MOL0     H55537   2.506   0.903   8.584 -0.6839 -0.5433 -0.3974
  421MOL0     H55538   2.174   0.803   8.281  0.6049  0.0566 -0.4989
  421MOL0     H55539   2.150   0.960   8.341  0.7055 -0.7978 -1.8693
  421MOL0     H55540   2.047   0.889   8.541 -0.0171  0.5480 -1.1917
  421MOL0     H55541   2.104   0.727   8.529 -2.6752 -0.0468  1.8531
  421MOL0     H55542   1.976   0.672   8.325  1.7353 -0.1873  1.2213
  421MOL0     H55543   1.909   0.844   8.330 -0.8726  0.2723 -0.1237
  421MOL0     H55544   1.818   0.794   8.558  0.2224 -1.5364  2.5891
  421MOL0     H55545   1.755   0.701   8.418  0.5682  1.0158 -0.3928
  421MOL0     H55546   1.785   0.544   8.612  0.2873 -3.0685 -0.9462
  421MOL0     H55547   1.957   0.609   8.634  2.2879 -3.3512 -1.0010
  421MOL0     H55548   1.929   0.379   8.564  0.6319 -0.8410 -0.4615
  421MOL0     H55549   2.024   0.477   8.452  0.6335  0.1317  1.8156
  421MOL0     H55550   1.827   0.500   8.292  1.8436 -0.2210  0.0745
  421MOL0     H55551   1.867   0.338   8.312 -0.4528 -0.5489  1.4710
  421MOL0     H55552   1.615   0.366   8.334 -2.5923  0.4331  1.7273
  421MOL0     H55553   1.651   0.480   8.458  5.1657  1.5093 -0.7950
  421MOL0     H55554   2.360   0.919   8.174 -0.1078 -0.3344  0.2912
  421MOL0     H55555   2.585   0.961   8.108 -1.3194 -1.0687  0.0588
  421MOL0     H55556   3.087   1.268   8.361 -0.7020  3.8271 -0.5906
  421MOL0     H55557   3.264   1.347   8.214  1.3185 -0.7151 -0.7182
  421MOL0     H55558   5.003   1.019   7.898 -2.4760 -2.6654 -1.5073
  421MOL0     H55559   5.239   1.083   7.895 -0.2872 -1.9317  2.4860
  421MOL0     H55560   5.645   0.822   7.854  0.6838 -0.5310 -0.3445
  421MOL0     H55561   5.878   0.817   7.963 -2.1416 -0.2095  1.9406
  421MOL0     H55562   6.088   1.173   8.170 -0.2137  0.4601 -0.2024
  421MOL0     H55563   6.064   1.200   7.997 -1.4634 -1.8338 -1.1467
  421MOL0     H55564   6.205   1.050   7.934 -2.1521  0.6569  0.5902
  421MOL0     H55565   6.294   1.169   8.034  1.6739  0.5893  0.3161
  421MOL0     H55566   6.249   0.876   8.121 -2.4207  0.7642 -2.4098
  421MOL0     H55567   6.290   1.009   8.231  0.7447 -1.1966 -0.2927
  421MOL0     H55568   6.429   0.922   7.987 -2.0375 -0.3638  0.5262
  421MOL0     H55569   6.502   1.055   8.087  0.4562 -0.1936 -0.5213
  421MOL0     H55570   6.623   0.738   8.324 -1.4587  2.1660  1.5636
  421MOL0     H55571   5.850   1.233   8.035  1.3200 -0.7592 -0.0989
  421MOL0     H55572   5.631   1.235   7.961  0.5424  1.2975 -2.4503
  422MOL0     O55573   9.794   1.891   8.497 -0.1896  0.2885  0.1968
  422MOL0     C55574   9.905   1.830   8.499 -1.3243 -0.4904  0.3001
  422MOL0     O55575   9.938   1.697   8.519 -0.0514  0.1714  0.3917
  422MOL0     C55576   9.844   1.599   8.530  1.0339  0.8941  0.9406
  422MOL0     C55577   9.882   1.493   8.613  0.0406  0.0877 -0.1976
  422MOL0     C55578   9.786   1.394   8.660  0.4073  0.6284  0.1793
  422MOL0     C55579   9.654   1.407   8.626  0.1824 -0.0427  0.1051
  422MOL0     O55580   9.561   1.313   8.677 -0.5781 -0.3159 -0.2724
  422MOL0     C55581   9.427   1.305   8.624  0.3263 -0.9377  0.9387
  422MOL0     C55582   9.396   1.167   8.596 -0.0115  0.8959 -0.1834
  422MOL0     C55583   9.247   1.154   8.583  0.6415 -0.5983  0.1289
  422MOL0     C55584   9.207   1.004   8.568  0.1993  0.7537 -0.8065
  422MOL0     C55585   9.063   0.979   8.587  0.1217  0.5280  0.4123
  422MOL0     C55586   8.973   1.072   8.506 -0.2849 -0.1254  0.8164
  422MOL0     C55587   8.828   1.074   8.547  0.7123  0.3408 -0.1167
  422MOL0     C55588   8.802   1.122   8.689 -0.1495 -0.2635 -0.1337
  422MOL0     N55589   8.655   1.148   8.685 -0.1770  0.0208  0.0076
  422MOL0     C55590   8.557   1.057   8.713 -0.9244  0.3712 -0.1562
  422MOL0     C55591   8.440   1.120   8.695  0.8541 -0.2105 -0.1227
  422MOL0     C55592   8.299   1.057   8.729 -0.9594  1.0566  0.7164
  422MOL0     C55593   8.195   1.150   8.783  0.2697 -0.8065  0.1553
  422MOL0     C55594   8.113   1.223   8.671  0.3097 -0.5405 -0.3708
  422MOL0     C55595   7.980   1.270   8.733 -0.0806  0.1472 -0.1482
  422MOL0     O55596   7.901   1.150   8.742  0.0067  0.3633  0.6361
  422MOL0     C55597   7.763   1.143   8.731 -0.2217  1.2388 -0.3200
  422MOL0     C55598   7.684   1.245   8.799 -0.4479 -0.6579  0.5835
  422MOL0     C55599   7.547   1.235   8.787  0.3144  0.3719  0.0617
  422MOL0     C55600   7.489   1.119   8.716 -0.3685 -0.2141 -0.0633
  422MOL0     C55601   7.343   1.103   8.711 -0.2246  0.3215 -0.4519
  422MOL0     O55602   7.292   1.008   8.622 -0.5216  0.6806 -0.3835
  422MOL0     C55603   7.159   0.994   8.639 -0.3286 -0.9107 -0.4384
  422MOL0     C55604   7.076   1.085   8.565  0.0258  0.9205  0.2761
  422MOL0     C55605   6.937   1.072   8.568  0.2687 -0.1417  0.3537
  422MOL0     C55606   6.884   0.965   8.640 -0.3578  0.1748  0.0654
  422MOL0     O55607   6.750   0.956   8.650  0.3217  0.1828  0.3697
  422MOL0     C55608   6.672   1.054   8.596  0.1167 -0.4243  0.3565
  422MOL0     C55609   6.529   1.003   8.599 -0.5995  0.0103 -1.3265
  422MOL0     C55610   6.442   1.106   8.664 -0.1326  0.1838 -0.9750
  422MOL0     C55611   6.304   1.053   8.651 -0.6286  0.2892  0.5541
  422MOL0     C55612   6.205   1.149   8.704  1.1062  0.2022  0.2107
  422MOL0     C55613   6.068   1.088   8.689  0.5015 -0.4440 -0.4754
  422MOL0     C55614   5.971   1.187   8.764  0.1582 -0.2064  0.2555
  422MOL0     C55615   5.824   1.140   8.742 -0.0654  0.0903  0.0597
  422MOL0    Cl55616   5.711   1.264   8.800 -0.0650 -0.3819  0.1474
  422MOL0     C55617   6.968   0.882   8.725  0.8491 -0.0951 -0.2151
  422MOL0     C55618   7.103   0.888   8.708 -0.3385  0.5725 -0.1554
  422MOL0     O55619   7.280   1.181   8.781 -0.3928  0.1743  0.5329
  422MOL0     C55620   7.571   1.031   8.652  0.6716 -0.4706  0.1883
  422MOL0     C55621   7.707   1.043   8.665  0.0602 -0.8714  0.0155
  422MOL0     N55622   8.463   1.245   8.646  0.0871  0.7972  0.2422
  422MOL0     N55623   8.588   1.259   8.640 -0.0922  0.7613 -0.4213
  422MOL0     C55624   9.622   1.514   8.540  0.4997 -0.0718  0.6059
  422MOL0     C55625   9.711   1.603   8.489  0.0835 -0.8294 -0.8647
  422MOL0     C55626  10.021   1.930   8.503  0.5668 -0.2293  0.5535
  422MOL0     C55627  10.152   1.882   8.487  0.1548 -0.6826  0.1057
  422MOL0     C55628  10.255   1.976   8.505  0.2621  0.7945 -0.0547
  422MOL0     C55629  10.229   2.109   8.536 -0.7303  0.8030 -0.3135
  422MOL0     O55630  10.343   2.174   8.565 -0.3568  0.2109 -0.9503
  422MOL0     C55631  10.336   2.317   8.591 -0.0040  0.9550  0.0702
  422MOL0     C55632  10.475   2.366   8.626  0.3765 -0.3185 -0.1161
  422MOL0     C55633  10.530   2.410   8.494 -0.7045 -1.0272  0.0675
  422MOL0     C55634  10.661   2.498   8.504  0.7461 -0.0892 -0.3173
  422MOL0     C55635  10.636   2.630   8.569 -0.6294 -0.5783  1.1065
  422MOL0     C55636  10.628   2.733   8.633 -0.4845 -0.7542  1.1777
  422MOL0     C55637  10.097   2.145   8.559 -0.7295  0.6577  0.5503
  422MOL0     C55638   9.991   2.065   8.528 -0.0099  0.8521 -0.3726
  422MOL0     H55639   9.978   1.494   8.663 -2.1972 -0.3961  4.7547
  422MOL0     H55640   9.829   1.322   8.729  0.8444  2.5670  2.0340
  422MOL0     H55641   9.404   1.366   8.536 -1.2877 -0.7549  1.4482
  422MOL0     H55642   9.365   1.343   8.706  1.9156  0.1935  1.6822
  422MOL0     H55643   9.427   1.112   8.684  0.5587  3.8828  1.6311
  422MOL0     H55644   9.441   1.134   8.501  0.1722 -1.8818  0.7835
  422MOL0     H55645   9.202   1.218   8.506 -1.0392 -1.2831  0.4905
  422MOL0     H55646   9.199   1.188   8.675  0.8183 -1.6024  0.6024
  422MOL0     H55647   9.236   0.968   8.468  2.2642 -1.3526  0.4522
  422MOL0     H55648   9.256   0.936   8.639 -2.0823 -1.4150 -1.1486
  422MOL0     H55649   9.054   0.974   8.696 -0.5586 -1.5675  0.3070
  422MOL0     H55650   9.034   0.877   8.559  0.1562  0.4670  0.5923
  422MOL0     H55651   8.987   1.053   8.399 -0.1874 -1.3482  1.0251
  422MOL0     H55652   9.006   1.171   8.535  1.0445 -0.4410  0.4321
  422MOL0     H55653   8.770   1.138   8.480  0.1600 -1.0862 -1.0393
  422MOL0     H55654   8.798   0.969   8.538 -2.9563  1.3437 -1.5244
  422MOL0     H55655   8.854   1.217   8.707 -1.4299  0.8271 -1.8954
  422MOL0     H55656   8.814   1.057   8.776  1.7233  2.1786  1.5596
  422MOL0     H55657   8.563   0.954   8.746 -0.5099  0.0388 -1.2188
  422MOL0     H55658   8.307   0.978   8.804  2.0969  0.5993  0.0471
  422MOL0     H55659   8.249   1.013   8.642 -1.5081  0.2933  1.4027
  422MOL0     H55660   8.228   1.222   8.858  2.1984 -0.1158 -1.2604
  422MOL0     H55661   8.118   1.084   8.824  2.0782 -2.5624  0.9104
  422MOL0     H55662   8.172   1.310   8.642  0.4898 -0.4053  0.3889
  422MOL0     H55663   8.094   1.156   8.586 -2.2175 -2.0961  1.2913
  422MOL0     H55664   7.923   1.336   8.667 -0.3500 -0.9868 -1.0922
  422MOL0     H55665   7.985   1.315   8.832 -1.5500 -1.2229  0.6058
  422MOL0     H55666   7.721   1.325   8.861 -4.1707  0.0503  2.1375
  422MOL0     H55667   7.478   1.302   8.838 -3.0708 -2.2096 -0.7599
  422MOL0     H55668   7.122   1.158   8.500 -1.0826  1.2657 -0.1520
  422MOL0     H55669   6.879   1.146   8.514  2.0723 -0.7112 -2.5748
  422MOL0     H55670   6.684   1.090   8.493 -3.6646 -1.6898 -0.6918
  422MOL0     H55671   6.679   1.144   8.657  0.6321  0.0806 -0.4192
  422MOL0     H55672   6.523   0.907   8.651 -0.4837  0.8905  0.3745
  422MOL0     H55673   6.496   0.979   8.497 -0.0740 -1.5659 -1.1471
  422MOL0     H55674   6.447   1.209   8.625  1.5044 -0.3899 -2.4145
  422MOL0     H55675   6.470   1.100   8.770  0.4125 -2.0766 -1.2084
  422MOL0     H55676   6.269   1.024   8.551 -0.9527 -0.9231  1.0080
  422MOL0     H55677   6.302   0.956   8.701  0.0054  0.3976  0.8012
  422MOL0     H55678   6.205   1.244   8.649  0.0888 -1.7058 -3.3800
  422MOL0     H55679   6.228   1.170   8.809 -1.4627 -0.3850  0.9512
  422MOL0     H55680   6.054   1.000   8.751  1.2891  0.4500  1.0129
  422MOL0     H55681   6.038   1.076   8.584 -2.4425 -0.2500  0.2567
  422MOL0     H55682   5.989   1.196   8.872  2.9606  4.0939 -0.3427
  422MOL0     H55683   5.982   1.284   8.716 -2.0751  0.0713  0.2029
  422MOL0     H55684   5.816   1.043   8.791  1.6702 -0.1958 -0.1422
  422MOL0     H55685   5.797   1.129   8.636 -0.3562  0.6207  0.0761
  422MOL0     H55686   6.922   0.820   8.801 -0.0407  1.3653  0.4710
  422MOL0     H55687   7.168   0.817   8.759 -0.3981  1.4516  1.1800
  422MOL0     H55688   7.544   0.955   8.578  1.3525 -1.0416  0.5127
  422MOL0     H55689   7.775   0.971   8.622 -0.2107 -1.5586  0.7020
  422MOL0     H55690   9.521   1.533   8.505 -0.6185 -2.5320  2.2450
  422MOL0     H55691   9.683   1.675   8.413 -2.1289  0.2828  0.8767
  422MOL0     H55692  10.183   1.783   8.453  1.8296  0.3364 -1.5585
  422MOL0     H55693  10.358   1.950   8.486  1.7104  3.8759  2.5558
  422MOL0     H55694  10.266   2.359   8.664 -0.8839  1.3346 -0.9553
  422MOL0     H55695  10.289   2.363   8.503 -0.9788  2.5842  1.3889
  422MOL0     H55696  10.475   2.449   8.697 -1.8956  0.4020 -0.8646
  422MOL0     H55697  10.531   2.281   8.667 -1.2104 -1.6721 -0.6507
  422MOL0     H55698  10.448   2.466   8.448  0.6055  0.5543 -0.4510
  422MOL0     H55699  10.556   2.323   8.433 -0.2003 -0.6664 -0.2371
  422MOL0     H55700  10.739   2.443   8.557 -0.4095 -1.9894 -0.4712
  422MOL0     H55701  10.684   2.519   8.399 -2.7581 -2.1406 -1.6677
  422MOL0     H55702  10.621   2.822   8.692 -3.1769 -0.5007  0.6157
  422MOL0     H55703  10.077   2.242   8.603 -0.3481  1.6047 -1.2517
  422MOL0     H55704   9.887   2.091   8.540 -0.7293 -2.2222  1.0584
  423MOL0     O55705   0.512  10.568   9.985 -0.8844 -0.5908  0.1818
  423MOL0     C55706   0.601  10.495   9.943 -0.0848 -0.5108  0.1356
  423MOL0     O55707   0.587  10.369   9.918 -0.4414  0.5423  1.1247
  423MOL0     C55708   0.470  10.301   9.950  0.1935  0.5883  0.5682
  423MOL0     C55709   0.342  10.343   9.924  0.2309 -0.7510  0.0970
  423MOL0     C55710   0.217  10.271   9.950 -1.0258  0.6091  0.0796
  423MOL0     C55711   0.231  10.151  10.027 -0.0115  1.1636 -0.8227
  423MOL0     O55712   0.128  10.060  10.059  0.1156  0.8743 -0.2056
  423MOL0     C55713   0.004  10.074   9.994  0.4919  0.0037 -0.1579
  423MOL0     C55714  -0.096   9.961  10.036 -0.0375 -0.7294  0.2959
  423MOL0     C55715  -0.233   9.981   9.970  1.2252 -0.3894  0.3009
  423MOL0     C55716  -0.309   9.852   9.963  0.2995  0.0851 -0.4490
  423MOL0     C55717  -0.438   9.873   9.889  0.0016  0.4124  0.3886
  423MOL0     C55718  -0.516   9.743   9.887  0.3856 -0.4380 -0.1711
  423MOL0     C55719  -0.650   9.764   9.818  0.0153 -0.1581  0.2537
  423MOL0     C55720  -0.727   9.635   9.825 -0.4302 -0.3254 -0.1315
  423MOL0     N55721  -0.868   9.665   9.782 -0.6126 -0.9507  0.4323
  423MOL0     C55722  -0.911   9.682   9.657  0.2607 -0.1988  0.3740
  423MOL0     C55723  -1.044   9.687   9.673  0.3870  0.0708 -0.2859
  423MOL0     C55724  -1.143   9.671   9.560 -0.1967 -1.1929  0.9296
  423MOL0     C55725  -1.249   9.776   9.570  0.9993  0.2514  0.1460
  423MOL0     C55726  -1.203   9.921   9.537 -0.1033 -0.2905 -0.4646
  423MOL0     C55727  -1.317  10.012   9.535  0.6225  0.0350  0.2892
  423MOL0     O55728  -1.381  10.004   9.414  0.0448 -0.6209 -0.4747
  423MOL0     C55729  -1.514  10.048   9.428 -0.0375  0.0006 -0.7935
  423MOL0     C55730  -1.546  10.180   9.408 -0.8103  1.1491 -0.4921
  423MOL0     C55731  -1.688  10.210   9.410 -0.1260  0.2003  0.0986
  423MOL0     C55732  -1.788  10.115   9.446  0.6164 -0.5728  0.8037
  423MOL0     C55733  -1.932  10.146   9.450 -0.0901 -0.4784  0.0877
  423MOL0     O55734  -2.011  10.047   9.518  0.2739 -1.0579 -0.1488
  423MOL0     C55735  -2.144  10.069   9.496 -0.5040 -0.2368 -0.5220
  423MOL0     C55736  -2.218   9.993   9.403 -0.7895 -1.1549  0.0940
  423MOL0     C55737  -2.351  10.018   9.378 -1.3051 -0.1858  0.1709
  423MOL0     C55738  -2.422  10.108   9.456 -0.5227  0.2019  0.1660
  423MOL0     O55739  -2.553  10.131   9.439  1.2421  0.0642 -0.2016
  423MOL0     C55740  -2.608  10.244   9.370  0.1258  0.0413  0.6216
  423MOL0     C55741  -2.758  10.225   9.358  0.5845  0.9129 -0.3302
  423MOL0     C55742  -2.811  10.085   9.306  0.2127  0.6499  0.1855
  423MOL0     C55743  -2.750  10.067   9.168 -0.2210  0.7742 -0.0839
  423MOL0     C55744  -2.810   9.951   9.093  0.5561  0.0494 -0.3650
  423MOL0     C55745  -2.771   9.941   8.941 -0.4506  0.2683  0.3182
  423MOL0     C55746  -2.841  10.025   8.839 -1.2670 -0.5565  0.1101
  423MOL0     C55747  -2.992   9.995   8.827 -0.4853 -0.6519  0.5078
  423MOL0    Cl55748  -3.055   9.854   8.733  0.0116  0.5859 -0.5142
  423MOL0     C55749  -2.357  10.172   9.563  0.7779 -0.4823 -0.3262
  423MOL0     C55750  -2.219  10.149   9.576  0.2462 -0.3224 -0.9230
  423MOL0     O55751  -1.973  10.237   9.381  0.4523 -0.8867  0.2436
  423MOL0     C55752  -1.743   9.990   9.469  0.1028  0.2299 -1.3640
  423MOL0     C55753  -1.606   9.949   9.453  0.8566 -0.3085 -0.0764
  423MOL0     N55754  -1.078   9.679   9.801 -0.2489  0.6097  0.2132
  423MOL0     N55755  -0.963   9.671   9.872  0.3148  0.7732  1.1690
  423MOL0     C55756   0.360  10.119  10.077  0.9283 -0.6555 -0.0393
  423MOL0     C55757   0.480  10.191  10.042  0.0436  0.0676  0.6495
  423MOL0     C55758   0.740  10.544   9.931 -0.0023 -0.5774 -0.8933
  423MOL0     C55759   0.780  10.669   9.988  0.5367 -1.1384  0.3116
  423MOL0     C55760   0.905  10.727   9.966  0.6907  0.4372  0.7915
  423MOL0     C55761   1.008  10.648   9.900  0.3525  0.1697 -0.8442
  423MOL0     O55762   1.141  10.689   9.898 -0.2185  0.3767 -0.1154
  423MOL0     C55763   1.189  10.790   9.983  0.1737 -0.6587 -0.3917
  423MOL0     C55764   1.200  10.921   9.904  0.0652 -0.0609  0.8111
  423MOL0     C55765   1.250  11.044   9.989 -0.4275 -0.5479 -0.2068
  423MOL0     C55766   1.156  11.069  10.116 -0.5848 -0.2193  0.1036
  423MOL0     C55767   1.013  11.084  10.099 -0.4624 -0.3725 -0.2786
  423MOL0     C55768   0.893  11.087  10.082 -0.4073  0.1922  0.0049
  423MOL0     C55769   0.969  10.522   9.842 -0.0924  0.6061  0.7335
  423MOL0     C55770   0.837  10.473   9.851  0.4154  0.3179 -0.0990
  423MOL0     H55771   0.334  10.431   9.860 -1.3463 -3.0566 -3.1703
  423MOL0     H55772   0.121  10.286   9.902 -0.4897  0.1649 -1.1834
  423MOL0     H55773   0.027  10.064   9.888  2.5735 -0.4485  0.2861
  423MOL0     H55774  -0.038  10.172  10.017  0.0576  1.1149 -4.8259
  423MOL0     H55775  -0.105   9.964  10.145  1.2006  0.6025  0.3886
  423MOL0     H55776  -0.037   9.875  10.003  0.7723 -0.8870  2.0336
  423MOL0     H55777  -0.223  10.019   9.868 -0.8230  2.8161  1.1101
  423MOL0     H55778  -0.286  10.062  10.023  1.9120  0.9229 -0.9575
  423MOL0     H55779  -0.245   9.788   9.901 -1.0074 -0.7326 -0.9855
  423MOL0     H55780  -0.320   9.800  10.059 -1.9184  1.1152 -0.1085
  423MOL0     H55781  -0.407   9.900   9.788 -0.2276 -0.4702  0.0767
  423MOL0     H55782  -0.490   9.956   9.937  0.0870  1.1877 -0.8228
  423MOL0     H55783  -0.532   9.712   9.991  2.4051  0.0495  0.3315
  423MOL0     H55784  -0.465   9.662   9.834  0.9359  1.7513 -3.2796
  423MOL0     H55785  -0.713   9.835   9.871  0.1743 -0.3415  0.6944
  423MOL0     H55786  -0.628   9.794   9.715  2.7978  1.0632  1.0914
  423MOL0     H55787  -0.730   9.586   9.924  0.9934  2.1577  1.2292
  423MOL0     H55788  -0.694   9.562   9.751 -1.4703  0.1802 -1.1385
  423MOL0     H55789  -0.862   9.687   9.560  0.5955  3.0876  0.5933
  423MOL0     H55790  -1.189   9.573   9.576  0.9435 -1.6922  1.2723
  423MOL0     H55791  -1.098   9.668   9.461 -1.2342 -0.2527  0.4121
  423MOL0     H55792  -1.299   9.764   9.667  2.4600 -0.3850  0.8606
  423MOL0     H55793  -1.323   9.752   9.494  1.5617 -1.4163  0.0689
  423MOL0     H55794  -1.142   9.953   9.623 -1.2002 -0.9950  0.6091
  423MOL0     H55795  -1.149   9.928   9.442 -0.5430 -1.4711 -0.8216
  423MOL0     H55796  -1.273  10.112   9.546  1.2591 -0.2719  0.5996
  423MOL0     H55797  -1.380   9.997   9.623 -0.4946  0.9577 -0.3341
  423MOL0     H55798  -1.468  10.249   9.378 -2.3977  1.7556 -3.6128
  423MOL0     H55799  -1.715  10.312   9.387  3.0438  1.6243  2.1168
  423MOL0     H55800  -2.163   9.930   9.335  0.8045  1.9676 -1.7716
  423MOL0     H55801  -2.409   9.976   9.297 -2.6580  0.9634  0.5127
  423MOL0     H55802  -2.561  10.254   9.272 -0.7121 -1.8430 -0.0130
  423MOL0     H55803  -2.600  10.333   9.433 -0.3489 -0.8098  1.9346
  423MOL0     H55804  -2.812  10.298   9.299 -1.3828 -0.4962 -0.3718
  423MOL0     H55805  -2.808  10.243   9.454 -1.8328  2.4634 -1.7984
  423MOL0     H55806  -2.918  10.102   9.299  0.3211  1.2028 -0.2169
  423MOL0     H55807  -2.797  10.003   9.377  2.6699  0.4062 -0.4643
  423MOL0     H55808  -2.771  10.163   9.119  0.7709  0.5559 -0.9884
  423MOL0     H55809  -2.641  10.061   9.170 -0.2661 -3.1346 -1.0163
  423MOL0     H55810  -2.918   9.962   9.106  0.9090  1.5880  1.8095
  423MOL0     H55811  -2.783   9.849   9.123 -0.3468 -0.8887 -2.5205
  423MOL0     H55812  -2.782   9.839   8.901  1.6104  0.9281 -2.1666
  423MOL0     H55813  -2.666   9.959   8.917 -0.2335 -0.4676  0.6711
  423MOL0     H55814  -2.825  10.129   8.866  2.3908 -0.0810 -2.9894
  423MOL0     H55815  -2.798  10.033   8.739  0.3833  1.4319  0.9114
  423MOL0     H55816  -3.054  10.080   8.797  0.7353  1.2650  3.0259
  423MOL0     H55817  -3.017   9.964   8.929  2.3620 -4.1682  0.3457
  423MOL0     H55818  -2.418  10.245   9.616 -0.6607 -0.6174 -1.7552
  423MOL0     H55819  -2.171  10.203   9.657 -1.0617  1.9108 -1.5357
  423MOL0     H55820  -1.814   9.909   9.484 -0.7753  1.1758 -0.3089
  423MOL0     H55821  -1.576   9.845   9.452 -3.3417 -1.7245 -1.5383
  423MOL0     H55822   0.384  10.028  10.130  0.7045 -1.3530 -1.1061
  423MOL0     H55823   0.581  10.155  10.056  0.2971  0.3823 -0.3029
  423MOL0     H55824   0.713  10.733  10.045 -0.1465 -0.6023 -1.0232
  423MOL0     H55825   0.918  10.821  10.018  0.2198 -0.2341  2.1671
  423MOL0     H55826   1.286  10.753  10.018  0.3834  1.0201  0.9117
  423MOL0     H55827   1.133  10.803  10.076  0.8849  1.9630 -0.2460
  423MOL0     H55828   1.275  10.899   9.827  2.2215 -0.9152  2.9994
  423MOL0     H55829   1.103  10.945   9.861  0.4802 -1.1319 -0.8100
  423MOL0     H55830   1.252  11.141   9.937 -2.1296  2.2709  4.3479
  423MOL0     H55831   1.348  11.025  10.033 -1.4706 -1.8217  1.6874
  423MOL0     H55832   1.179  10.991  10.189  2.8891  2.0441  1.7215
  423MOL0     H55833   1.197  11.159  10.164  0.0898 -1.1295  1.2651
  423MOL0     H55834   0.788  11.103  10.066 -0.0481  1.7091 -1.0497
  423MOL0     H55835   1.042  10.468   9.784 -0.3177 -2.0847  2.7802
  423MOL0     H55836   0.807  10.405   9.772  1.6679  0.6923 -0.9096
  424MOL0     O55837   1.334   8.002   9.677 -0.8046 -1.0312  0.0575
  424MOL0     C55838   1.304   8.121   9.701 -0.3777  0.7896 -0.3179
  424MOL0     O55839   1.188   8.185   9.666  0.3106  0.3355 -0.0484
  424MOL0     C55840   1.080   8.111   9.620 -0.2721 -0.1150  0.2168
  424MOL0     C55841   0.956   8.135   9.679 -0.2015  0.4121  0.5809
  424MOL0     C55842   0.850   8.046   9.636 -0.8349 -0.8088 -0.1544
  424MOL0     C55843   0.866   7.951   9.539 -0.1173 -0.2748 -0.6163
  424MOL0     O55844   0.757   7.882   9.498 -0.1882  0.5938 -0.3880
  424MOL0     C55845   0.663   7.936   9.411  0.0385  0.8756  0.4445
  424MOL0     C55846   0.560   7.836   9.365 -0.8519 -0.5707  0.1428
  424MOL0     C55847   0.472   7.885   9.249  0.3733  0.3315  0.6119
  424MOL0     C55848   0.384   7.767   9.199  1.4825  0.2210  0.6966
  424MOL0     C55849   0.273   7.822   9.116 -0.6658 -0.5566  0.1275
  424MOL0     C55850   0.206   7.701   9.051  0.3176 -0.2718  0.2900
  424MOL0     C55851   0.107   7.750   8.944  0.5362 -0.4387  0.0713
  424MOL0     C55852   0.093   7.644   8.844 -0.4039  0.1764  0.7018
  424MOL0     N55853   0.005   7.528   8.878 -0.1076  0.8880  0.5058
  424MOL0     C55854   0.045   7.399   8.909 -0.6381 -1.1373  0.8776
  424MOL0     C55855  -0.067   7.326   8.899 -0.0008  0.0296  0.1498
  424MOL0     C55856  -0.072   7.178   8.895 -0.2336  0.8237 -0.2248
  424MOL0     C55857  -0.021   7.120   8.766 -0.4271  0.1964  0.8035
  424MOL0     C55858  -0.120   7.127   8.649 -0.3487  0.4057  0.0095
  424MOL0     C55859  -0.133   6.997   8.566  0.5646  0.2960 -0.3314
  424MOL0     O55860  -0.215   6.892   8.633  0.0051 -0.2429  1.1127
  424MOL0     C55861  -0.350   6.902   8.656  0.2689 -0.1018  0.0391
  424MOL0     C55862  -0.415   6.845   8.760 -0.3448 -0.7149  0.4027
  424MOL0     C55863  -0.547   6.873   8.788  0.1249 -0.3972 -0.7457
  424MOL0     C55864  -0.635   6.920   8.689  0.5451  0.2213 -0.1338
  424MOL0     C55865  -0.777   6.945   8.714 -0.5798 -0.2090  0.7144
  424MOL0     O55866  -0.817   6.942   8.845 -0.6958 -0.4820 -0.0315
  424MOL0     C55867  -0.944   6.974   8.889  0.5792  0.0788 -0.3165
  424MOL0     C55868  -1.064   6.999   8.808 -0.3210  0.5630 -0.0670
  424MOL0     C55869  -1.185   7.036   8.867  0.9810  1.6313  0.0533
  424MOL0     C55870  -1.206   7.021   9.005 -0.2223  0.1422  0.3459
  424MOL0     O55871  -1.324   7.039   9.062 -0.5302  0.7223  0.6894
  424MOL0     C55872  -1.372   7.171   9.045 -0.0568  0.2562  0.8036
  424MOL0     C55873  -1.472   7.203   9.157 -0.1864 -0.8036  0.1021
  424MOL0     C55874  -1.588   7.105   9.174  0.6276  0.1081 -0.0464
  424MOL0     C55875  -1.665   7.124   9.308  0.1535 -0.4550  0.1382
  424MOL0     C55876  -1.765   7.240   9.319  0.0133 -0.1679 -0.7524
  424MOL0     C55877  -1.884   7.224   9.224  0.0285  0.6817 -0.5264
  424MOL0     C55878  -2.001   7.323   9.241 -0.7135 -0.5383  0.0054
  424MOL0     C55879  -2.113   7.304   9.155 -0.5628  0.1676  0.4773
  424MOL0    Cl55880  -2.238   7.432   9.181 -0.6236 -0.2763  0.2268
  424MOL0     C55881  -1.091   6.980   9.081  0.2050  0.3719  0.3901
  424MOL0     C55882  -0.966   6.954   9.030  0.5361  0.2553  0.5095
  424MOL0     O55883  -0.841   6.978   8.617  0.5399 -0.2356  0.9153
  424MOL0     C55884  -0.571   6.954   8.561 -0.3471  0.8260 -0.0547
  424MOL0     C55885  -0.428   6.950   8.555 -0.0582  0.4376  0.0302
  424MOL0     N55886  -0.168   7.414   8.876 -0.4130  0.8695  0.2012
  424MOL0     N55887  -0.131   7.530   8.853  0.4703 -0.1648 -0.5714
  424MOL0     C55888   0.985   7.935   9.468  0.1005 -0.4844 -0.1253
  424MOL0     C55889   1.094   8.007   9.519 -0.4091  1.1482 -0.0521
  424MOL0     C55890   1.399   8.207   9.774  0.7991  0.0484  0.1606
  424MOL0     C55891   1.542   8.188   9.764 -0.3206 -0.0293 -0.3437
  424MOL0     C55892   1.634   8.271   9.822  0.1068 -0.3823 -0.1770
  424MOL0     C55893   1.593   8.380   9.901 -0.9292 -0.0664  0.6733
  424MOL0     O55894   1.678   8.475   9.959 -0.5842  0.6459  0.4109
  424MOL0     C55895   1.808   8.432   9.996  0.3733  0.2686  0.5553
  424MOL0     C55896   1.805   8.324  10.100 -0.1620  0.0541 -0.0289
  424MOL0     C55897   1.713   8.338  10.221 -0.3342 -0.6114 -0.4320
  424MOL0     C55898   1.791   8.397  10.342 -0.0358  0.5402  0.1994
  424MOL0     C55899   1.701   8.470  10.438  0.2208  0.2784  0.3987
  424MOL0     C55900   1.634   8.547  10.502 -0.6154 -0.3956  0.7518
  424MOL0     C55901   1.457   8.398   9.917 -0.4536 -0.3056  0.1629
  424MOL0     C55902   1.361   8.313   9.853 -0.6211 -0.3956  0.2702
  424MOL0     H55903   0.940   8.216   9.750 -0.9686  2.1249 -1.4282
  424MOL0     H55904   0.749   8.064   9.671  0.2141  0.9141  2.2652
  424MOL0     H55905   0.710   7.988   9.327  0.4939 -0.2031  0.0103
  424MOL0     H55906   0.608   8.017   9.460 -2.4127 -1.1763  1.3036
  424MOL0     H55907   0.499   7.801   9.449 -0.2224 -0.2446  0.7448
  424MOL0     H55908   0.618   7.750   9.332 -3.1749 -2.8802  1.6578
  424MOL0     H55909   0.527   7.923   9.163  0.8175 -1.7595 -0.0911
  424MOL0     H55910   0.405   7.965   9.281 -1.1429  0.0565 -1.6724
  424MOL0     H55911   0.440   7.703   9.130 -1.7612 -0.5912 -1.4185
  424MOL0     H55912   0.336   7.704   9.273 -0.1235  0.2382 -0.2802
  424MOL0     H55913   0.314   7.881   9.034  2.4475  1.2260  2.7266
  424MOL0     H55914   0.200   7.880   9.173 -3.1829 -0.4903 -2.9255
  424MOL0     H55915   0.169   7.637   9.131  3.3287  0.8463  2.8099
  424MOL0     H55916   0.287   7.649   9.000 -0.0474 -0.4322 -0.1317
  424MOL0     H55917   0.012   7.758   8.997  0.4615 -2.5762  0.3356
  424MOL0     H55918   0.141   7.843   8.897  2.7839 -0.6439  1.1750
  424MOL0     H55919   0.192   7.608   8.816 -0.6464 -0.1501  0.2429
  424MOL0     H55920   0.040   7.687   8.758  1.1847  0.7458 -0.0346
  424MOL0     H55921   0.151   7.384   8.927 -0.3507  0.8607  1.0830
  424MOL0     H55922  -0.172   7.137   8.910  0.1014 -0.8821 -2.2525
  424MOL0     H55923  -0.010   7.128   8.971 -0.8362  0.6442  0.1538
  424MOL0     H55924  -0.029   7.014   8.792  4.0626  0.0592  2.4791
  424MOL0     H55925   0.083   7.143   8.742  1.3315 -2.0758  5.1328
  424MOL0     H55926  -0.219   7.144   8.692  0.0881 -0.5369  1.4412
  424MOL0     H55927  -0.091   7.207   8.580 -3.9521 -0.5933 -2.9701
  424MOL0     H55928  -0.046   6.934   8.545 -0.7015 -1.0886 -1.6608
  424MOL0     H55929  -0.173   7.040   8.473 -1.1462 -0.9279 -0.2132
  424MOL0     H55930  -0.349   6.797   8.831  1.7598  2.4681  0.7978
  424MOL0     H55931  -0.581   6.848   8.888 -0.9258 -1.6901 -1.3939
  424MOL0     H55932  -1.046   6.989   8.701  0.6924  0.6822  0.0799
  424MOL0     H55933  -1.266   7.052   8.796  0.3410 -0.4403  0.2276
  424MOL0     H55934  -1.435   7.182   8.956 -1.8779 -0.7112  1.9143
  424MOL0     H55935  -1.289   7.242   9.052 -0.6537  1.0925 -0.2243
  424MOL0     H55936  -1.514   7.301   9.132  0.5648 -0.3580  0.5753
  424MOL0     H55937  -1.419   7.211   9.252  0.7100  1.5592 -0.5254
  424MOL0     H55938  -1.548   7.003   9.176 -2.4924 -1.3290 -2.5059
  424MOL0     H55939  -1.654   7.110   9.087  1.1738  0.4798 -0.4500
  424MOL0     H55940  -1.709   7.027   9.331 -0.5763 -0.4738 -1.2043
  424MOL0     H55941  -1.592   7.127   9.389  3.3959  0.2211 -2.6034
  424MOL0     H55942  -1.716   7.337   9.301 -0.3985 -0.0777 -1.3885
  424MOL0     H55943  -1.820   7.232   9.413 -0.4265 -0.6833 -1.0502
  424MOL0     H55944  -1.930   7.125   9.230  0.1288  0.7019  1.3290
  424MOL0     H55945  -1.854   7.233   9.120 -0.0745 -1.2484 -0.7523
  424MOL0     H55946  -2.033   7.307   9.344 -1.5681  0.2981 -0.1235
  424MOL0     H55947  -1.972   7.428   9.230 -3.3961  0.3601  0.7489
  424MOL0     H55948  -2.161   7.209   9.181 -1.2926  0.1733 -0.7804
  424MOL0     H55949  -2.091   7.303   9.048  0.8343  0.1583  0.7416
  424MOL0     H55950  -1.117   6.963   9.185 -0.9380  2.3381  0.4662
  424MOL0     H55951  -0.888   6.924   9.099  0.6178  1.3752  0.9200
  424MOL0     H55952  -0.632   6.985   8.477  1.2912  0.7597 -1.3145
  424MOL0     H55953  -0.382   6.977   8.460  0.7965  1.8509  0.8156
  424MOL0     H55954   1.000   7.875   9.378 -1.3604  1.3046 -1.6480
  424MOL0     H55955   1.188   7.994   9.466  0.5248 -0.3828  1.8165
  424MOL0     H55956   1.588   8.103   9.715 -1.0431 -1.3184  1.1151
  424MOL0     H55957   1.739   8.252   9.802 -0.3063 -1.7398 -1.1808
  424MOL0     H55958   1.864   8.511  10.047  0.4402  1.5063 -1.3323
  424MOL0     H55959   1.863   8.404   9.906 -0.1734 -0.2693  0.3796
  424MOL0     H55960   1.765   8.236  10.049 -0.7426  1.9345 -3.0832
  424MOL0     H55961   1.909   8.305  10.128 -0.2314 -0.5921 -0.1829
  424MOL0     H55962   1.699   8.232  10.245  2.0419 -0.9448 -0.2165
  424MOL0     H55963   1.624   8.397  10.201  0.0539 -0.0061 -0.4207
  424MOL0     H55964   1.845   8.314  10.388 -3.4444 -2.0224 -0.0312
  424MOL0     H55965   1.850   8.481  10.303 -0.3765 -0.6071 -3.0645
  424MOL0     H55966   1.577   8.625  10.548 -1.6671 -1.3651  1.1228
  424MOL0     H55967   1.415   8.484   9.967  1.1960  0.6810 -0.0769
  424MOL0     H55968   1.256   8.328   9.876  0.2298  1.8045  3.1949
  425MOL0     O55969   1.722  11.216   7.128  0.5814 -0.3281 -0.0110
  425MOL0     C55970   1.688  11.173   7.236  0.1169 -0.9002  0.2946
  425MOL0     O55971   1.762  11.190   7.352 -0.3814  0.0058  0.8389
  425MOL0     C55972   1.889  11.248   7.347 -0.3102  0.2592  1.1936
  425MOL0     C55973   1.989  11.183   7.434 -0.8068 -1.2970  0.6391
  425MOL0     C55974   2.124  11.237   7.446  0.5518  0.5289 -0.4071
  425MOL0     C55975   2.158  11.354   7.381 -0.0158 -0.2269  0.7133
  425MOL0     O55976   2.271  11.412   7.418  0.0099  0.3572 -0.0992
  425MOL0     C55977   2.339  11.475   7.308 -0.8968  0.0813  0.0072
  425MOL0     C55978   2.475  11.518   7.357  0.6330  0.1986  1.2664
  425MOL0     C55979   2.548  11.388   7.387 -0.4856  0.0097 -0.0070
  425MOL0     C55980   2.694  11.423   7.408  0.5961 -0.8015  0.8279
  425MOL0     C55981   2.779  11.298   7.414 -0.9693  0.1888  0.4172
  425MOL0     C55982   2.928  11.343   7.411 -0.2228 -0.2171 -0.7047
  425MOL0     C55983   2.990  11.388   7.272  0.1083  0.4526 -0.0888
  425MOL0     C55984   3.141  11.429   7.274 -0.2915 -0.3162 -0.1320
  425MOL0     N55985   3.193  11.503   7.160  0.2704 -0.1221  0.2194
  425MOL0     C55986   3.324  11.498   7.122 -0.1604 -0.3455 -0.0924
  425MOL0     C55987   3.325  11.593   7.017  0.9323 -0.3001  0.8767
  425MOL0     C55988   3.446  11.639   6.926  0.0578 -0.3567 -0.2932
  425MOL0     C55989   3.531  11.730   7.012  0.7437  0.1120  0.0398
  425MOL0     C55990   3.480  11.866   7.069  0.1407  0.4445  0.1048
  425MOL0     C55991   3.405  11.945   6.962 -0.5706 -0.2804 -0.4821
  425MOL0     O55992   3.360  12.064   7.013 -0.7150  1.2616  0.0384
  425MOL0     C55993   3.226  12.084   7.037 -0.1285 -0.0541  0.1869
  425MOL0     C55994   3.127  11.991   7.052 -0.5411  0.7808  0.1613
  425MOL0     C55995   2.989  12.026   7.059 -1.0639  0.2650  1.0405
  425MOL0     C55996   2.945  12.163   7.064  0.0057  0.4168 -0.6154
  425MOL0     C55997   2.798  12.195   7.070  0.3025  0.0339  0.1751
  425MOL0     O55998   2.707  12.097   7.026 -0.2861 -0.0449  0.1014
  425MOL0     C55999   2.584  12.143   6.991 -0.0321  0.1817  0.2631
  425MOL0     C56000   2.548  12.147   6.858 -0.0301 -0.0819  0.2541
  425MOL0     C56001   2.417  12.180   6.822  1.2040  0.0354  0.2222
  425MOL0     C56002   2.324  12.214   6.918  0.4971  0.0912  0.9578
  425MOL0     O56003   2.190  12.243   6.893 -0.2194 -0.3398 -0.9569
  425MOL0     C56004   2.122  12.194   6.782  0.3356 -0.2883  0.3272
  425MOL0     C56005   1.976  12.239   6.800 -0.0654 -0.6169 -0.0370
  425MOL0     C56006   1.890  12.204   6.670  0.1445  0.4960 -0.0924
  425MOL0     C56007   1.778  12.304   6.657 -0.7015 -0.2687  0.8518
  425MOL0     C56008   1.661  12.321   6.764 -0.2776  0.3859 -0.2143
  425MOL0     C56009   1.569  12.432   6.759 -0.1015  0.2562 -0.7576
  425MOL0     C56010   1.423  12.384   6.745 -0.0480  0.5605  0.1815
  425MOL0     C56011   1.406  12.308   6.613 -0.0836  0.1134 -0.5210
  425MOL0    Cl56012   1.237  12.280   6.595  0.4002  0.2015 -0.4553
  425MOL0     C56013   2.369  12.217   7.046  0.1826  0.2901 -0.1109
  425MOL0     C56014   2.496  12.182   7.091  0.0192 -0.0775  0.2169
  425MOL0     O56015   2.765  12.311   7.100 -0.3403 -0.1754  0.2946
  425MOL0     C56016   3.048  12.262   7.069 -0.4823  0.9366 -0.6779
  425MOL0     C56017   3.184  12.219   7.054 -0.2768 -0.1521 -0.6908
  425MOL0     N56018   3.200  11.648   6.996 -0.3394  0.4485 -1.0980
  425MOL0     N56019   3.125  11.603   7.093 -1.1868 -0.9869 -0.1612
  425MOL0     C56020   2.066  11.416   7.291  0.8676  0.1349  0.8440
  425MOL0     C56021   1.934  11.358   7.265  0.1570  0.7060  0.4718
  425MOL0     C56022   1.555  11.100   7.251  0.5499  1.3344 -0.0948
  425MOL0     C56023   1.470  11.069   7.142 -0.3859  0.3231  0.2941
  425MOL0     C56024   1.353  10.991   7.153  0.6763 -0.2658 -0.0046
  425MOL0     C56025   1.321  10.929   7.268 -0.1882  1.6678 -0.1365
  425MOL0     O56026   1.205  10.851   7.264  0.0597  1.2255  0.0422
  425MOL0     C56027   1.158  10.795   7.390 -0.8827  1.2480  0.4039
  425MOL0     C56028   1.024  10.732   7.373 -0.8909  0.0245  0.0699
  425MOL0     C56029   0.983  10.658   7.503  0.4059 -0.1341 -0.6351
  425MOL0     C56030   0.848  10.593   7.474 -0.6605 -0.4864  0.1262
  425MOL0     C56031   0.734  10.681   7.446 -1.2197  0.4033 -0.0829
  425MOL0     C56032   0.633  10.735   7.429 -0.6970 -0.3827 -0.7052
  425MOL0     C56033   1.400  10.950   7.385 -0.9524  0.4745  1.2678
  425MOL0     C56034   1.514  11.042   7.373  0.3629  0.0602  0.1830
  425MOL0     H56035   1.950  11.104   7.497 -0.9498 -0.6426  1.3881
  425MOL0     H56036   2.188  11.177   7.510 -0.2634  1.6955  1.5971
  425MOL0     H56037   2.290  11.568   7.276 -0.7145 -0.0076 -0.5554
  425MOL0     H56038   2.351  11.407   7.223  1.1241  0.1951  0.1481
  425MOL0     H56039   2.460  11.555   7.458  0.3468  0.6134  1.0755
  425MOL0     H56040   2.530  11.585   7.290  0.6610  0.2983  1.3903
  425MOL0     H56041   2.537  11.321   7.301 -0.9397 -2.6478  2.0090
  425MOL0     H56042   2.507  11.339   7.475 -1.1864 -0.8831 -0.8131
  425MOL0     H56043   2.733  11.478   7.322 -0.2775 -1.0111  0.2850
  425MOL0     H56044   2.723  11.493   7.486  0.8574  1.3072 -1.0630
  425MOL0     H56045   2.766  11.234   7.326 -0.8389 -0.9072  1.1719
  425MOL0     H56046   2.761  11.246   7.508 -0.4901  2.4161  1.8108
  425MOL0     H56047   2.990  11.261   7.448 -2.6718 -0.7460  2.7175
  425MOL0     H56048   2.940  11.429   7.478 -4.7734  0.0356  0.0757
  425MOL0     H56049   2.975  11.302   7.207 -2.3179  0.3775  0.4458
  425MOL0     H56050   2.937  11.468   7.219 -1.4733 -0.4873  0.0005
  425MOL0     H56051   3.197  11.336   7.280  0.2057  0.0547  1.5242
  425MOL0     H56052   3.171  11.485   7.364 -0.9066  2.0393 -1.2955
  425MOL0     H56053   3.398  11.443   7.177 -0.5668  0.5291  1.3812
  425MOL0     H56054   3.407  11.699   6.843  2.7391  1.0460 -0.6243
  425MOL0     H56055   3.499  11.555   6.881  2.0509  0.4826  0.4015
  425MOL0     H56056   3.618  11.759   6.951  2.8009 -0.9125  2.3220
  425MOL0     H56057   3.587  11.681   7.092  2.3947 -1.1384 -1.8026
  425MOL0     H56058   3.404  11.853   7.146 -1.8115  2.1414 -1.4220
  425MOL0     H56059   3.555  11.931   7.117  0.8696  2.1954 -3.1443
  425MOL0     H56060   3.316  11.892   6.925 -0.8459 -1.2385  1.3815
  425MOL0     H56061   3.474  11.965   6.880  2.1900 -1.3907  1.4157
  425MOL0     H56062   3.150  11.885   7.052 -0.6808  0.7440  0.9031
  425MOL0     H56063   2.923  11.940   7.061 -3.5421  1.8310 -2.3585
  425MOL0     H56064   2.620  12.125   6.780 -0.4854  1.8201 -0.7723
  425MOL0     H56065   2.391  12.167   6.717  0.7548 -1.2856  0.4878
  425MOL0     H56066   2.134  12.086   6.787 -0.7776 -0.3587  4.3117
  425MOL0     H56067   2.162  12.236   6.689  0.4247 -0.7281  0.1678
  425MOL0     H56068   1.976  12.347   6.817 -1.7620 -0.6860  0.5495
  425MOL0     H56069   1.936  12.196   6.892  0.2853  0.4900  0.6649
  425MOL0     H56070   1.847  12.104   6.680 -0.0135  0.6737  1.2279
  425MOL0     H56071   1.946  12.211   6.576 -2.4261 -0.9116 -1.8445
  425MOL0     H56072   1.823  12.402   6.641 -1.0327  0.0516  1.8082
  425MOL0     H56073   1.739  12.273   6.559  0.4500  1.0629 -0.0748
  425MOL0     H56074   1.715  12.316   6.859 -1.4602  1.2899  0.5380
  425MOL0     H56075   1.607  12.227   6.756  0.2123  0.2061 -1.5650
  425MOL0     H56076   1.599  12.488   6.670  1.7344 -0.9835 -0.9806
  425MOL0     H56077   1.582  12.500   6.843 -2.2339  2.7458 -2.2867
  425MOL0     H56078   1.385  12.332   6.833 -1.9389  0.0690 -0.8808
  425MOL0     H56079   1.365  12.477   6.736 -0.9748  0.3533  3.0959
  425MOL0     H56080   1.452  12.208   6.618 -1.2988 -0.4249  0.3781
  425MOL0     H56081   1.450  12.367   6.532 -1.0274 -0.0200 -1.1570
  425MOL0     H56082   2.301  12.246   7.126  0.6692 -4.0116  2.1961
  425MOL0     H56083   2.537  12.189   7.191 -0.1948  2.4184  0.1981
  425MOL0     H56084   3.025  12.366   7.091 -0.4552  2.0969 -5.1532
  425MOL0     H56085   3.260  12.296   7.066 -1.9480  1.8221 -1.9902
  425MOL0     H56086   2.089  11.504   7.232 -2.0119 -1.3970 -2.9869
  425MOL0     H56087   1.874  11.398   7.184 -0.2868 -1.6518 -0.4632
  425MOL0     H56088   1.515  11.115   7.055  1.8897  0.1017  1.2745
  425MOL0     H56089   1.286  10.975   7.069  0.6056  0.9512 -0.1959
  425MOL0     H56090   1.153  10.861   7.478 -1.9928  1.4284  0.2204
  425MOL0     H56091   1.226  10.713   7.416 -2.0400  0.6954  1.8640
  425MOL0     H56092   0.946  10.807   7.362 -3.2489 -2.1088  1.2103
  425MOL0     H56093   1.036  10.673   7.281 -0.3920 -2.5975  1.6972
  425MOL0     H56094   0.976  10.732   7.583 -0.8561 -0.4056 -0.4755
  425MOL0     H56095   1.048  10.579   7.541 -0.1778 -1.2370 -1.8745
  425MOL0     H56096   0.868  10.545   7.377 -0.2421  3.0163 -1.6836
  425MOL0     H56097   0.817  10.522   7.551 -2.0759  0.4128  0.4142
  425MOL0     H56098   0.543  10.789   7.411 -0.4572 -0.3622 -1.9017
  425MOL0     H56099   1.375  10.895   7.475 -0.0993 -0.2846  1.0578
  425MOL0     H56100   1.557  11.053   7.472 -2.3948  1.7066  1.2961
  426MOL0     O56101   6.318   8.317   5.389 -0.8278 -0.4928  0.1631
  426MOL0     C56102   6.417   8.292   5.322  0.1031 -0.9447  0.1238
  426MOL0     O56103   6.420   8.282   5.184  0.2751  0.0778 -0.2645
  426MOL0     C56104   6.299   8.270   5.118 -0.0259 -0.3990  0.4756
  426MOL0     C56105   6.182   8.199   5.163  0.4557 -0.0960 -0.2451
  426MOL0     C56106   6.075   8.179   5.078 -0.3038 -0.2772  0.4523
  426MOL0     C56107   6.077   8.226   4.944 -0.5682  0.1942  0.5950
  426MOL0     O56108   5.961   8.204   4.868  0.5782  0.7320  0.2657
  426MOL0     C56109   5.827   8.188   4.930 -0.7852  0.3972 -0.2816
  426MOL0     C56110   5.707   8.222   4.840  1.2299 -0.4972  0.5495
  426MOL0     C56111   5.722   8.337   4.751  0.0242 -0.6682  0.1208
  426MOL0     C56112   5.585   8.365   4.689 -0.2293 -0.4055  0.3823
  426MOL0     C56113   5.568   8.503   4.619  0.1875 -0.1489  0.3042
  426MOL0     C56114   5.645   8.523   4.495 -0.4795  0.2481 -0.1960
  426MOL0     C56115   5.601   8.629   4.399 -0.1684 -0.1903 -0.0676
  426MOL0     C56116   5.462   8.596   4.331 -0.4148  0.5010 -0.3605
  426MOL0     N56117   5.365   8.711   4.338 -0.1229  0.0563 -0.0866
  426MOL0     C56118   5.375   8.828   4.274  0.4875  0.9801 -0.0674
  426MOL0     C56119   5.262   8.888   4.298  1.8256  0.2036  0.0853
  426MOL0     C56120   5.219   9.029   4.261  0.6209 -0.5722  0.0830
  426MOL0     C56121   5.072   9.046   4.220 -0.7136  0.2818  0.3572
  426MOL0     C56122   5.056   9.014   4.074 -0.4749  0.2994  0.2574
  426MOL0     C56123   4.923   8.952   4.042 -0.2660 -0.1813 -0.2688
  426MOL0     O56124   4.935   8.818   4.070  0.0083  0.2584  0.2655
  426MOL0     C56125   4.834   8.742   4.119 -0.7136  0.9050  0.5342
  426MOL0     C56126   4.828   8.701   4.247  0.9434 -0.0951  0.3869
  426MOL0     C56127   4.712   8.633   4.289 -0.4138 -0.8565 -0.0166
  426MOL0     C56128   4.626   8.575   4.200 -0.0387 -1.1738 -0.0876
  426MOL0     C56129   4.509   8.504   4.249  0.5620 -0.3596 -0.6196
  426MOL0     O56130   4.413   8.491   4.159 -0.4906  0.5893  0.5541
  426MOL0     C56131   4.316   8.399   4.182 -0.5737  0.1132 -0.4381
  426MOL0     C56132   4.200   8.434   4.115 -0.2160 -0.1288  0.6162
  426MOL0     C56133   4.086   8.353   4.125  0.1888  0.7454 -0.3127
  426MOL0     C56134   4.083   8.249   4.214  0.4016 -0.3186 -0.8034
  426MOL0     O56135   3.983   8.160   4.232 -0.5840  0.2097  0.2982
  426MOL0     C56136   3.909   8.134   4.115  0.3438  1.9868 -0.0962
  426MOL0     C56137   3.838   7.996   4.129 -0.0246 -0.7167  0.8627
  426MOL0     C56138   3.769   7.965   4.258  0.2475  0.4207 -0.4104
  426MOL0     C56139   3.645   8.048   4.290 -0.1952  0.1899  0.3701
  426MOL0     C56140   3.559   7.976   4.399  0.3307 -0.2475  0.5166
  426MOL0     C56141   3.616   7.999   4.537  0.7102  0.9426  0.4742
  426MOL0     C56142   3.511   7.949   4.647  0.8235  0.8044 -0.5289
  426MOL0     C56143   3.399   8.052   4.674 -0.0710 -0.1208 -0.6437
  426MOL0    Cl56144   3.273   7.992   4.786 -0.5143  0.3638 -0.6171
  426MOL0     C56145   4.194   8.210   4.271 -0.7638  0.0172  0.2136
  426MOL0     C56146   4.315   8.277   4.260  0.3554 -0.6579  0.0356
  426MOL0     O56147   4.497   8.476   4.368  0.2198 -0.7211  0.4666
  426MOL0     C56148   4.647   8.614   4.070  0.2510  0.5607 -0.0781
  426MOL0     C56149   4.753   8.690   4.023 -0.3327  0.1830 -0.0777
  426MOL0     N56150   5.186   8.819   4.387 -0.1963  0.3168  0.2467
  426MOL0     N56151   5.246   8.709   4.412  0.0713  0.5827 -0.2382
  426MOL0     C56152   6.189   8.284   4.901 -0.3389  0.2519  0.0893
  426MOL0     C56153   6.300   8.301   4.981  0.2264  0.4212  0.1946
  426MOL0     C56154   6.546   8.295   5.382 -0.5942 -0.8490  0.1029
  426MOL0     C56155   6.656   8.301   5.299 -0.9718  0.2800  0.0276
  426MOL0     C56156   6.779   8.295   5.360  0.5797  0.5695  0.0454
  426MOL0     C56157   6.797   8.279   5.494  0.1444  0.9453  0.9990
  426MOL0     O56158   6.921   8.287   5.537 -0.8456  0.1231 -0.2171
  426MOL0     C56159   6.949   8.240   5.669  0.0332  0.9149  0.3150
  426MOL0     C56160   7.099   8.255   5.715  0.1517  0.0273  0.6411
  426MOL0     C56161   7.185   8.137   5.678  0.0954  0.7523 -0.7325
  426MOL0     C56162   7.239   8.070   5.802  0.3721 -0.6609 -1.4143
  426MOL0     C56163   7.349   7.975   5.784  0.4689  0.3885 -1.5874
  426MOL0     C56164   7.435   7.896   5.755  1.2115  0.9847  0.0820
  426MOL0     C56165   6.685   8.252   5.574 -0.0488 -0.3997  0.1879
  426MOL0     C56166   6.556   8.273   5.524  0.3804  0.4245 -0.4085
  426MOL0     H56167   6.185   8.160   5.264 -0.4399 -2.8643 -1.2045
  426MOL0     H56168   6.002   8.115   5.127  2.0734 -2.5337  1.2461
  426MOL0     H56169   5.828   8.251   5.019  2.6351  2.0864 -1.3687
  426MOL0     H56170   5.813   8.082   4.955  1.7206 -0.0885 -0.7128
  426MOL0     H56171   5.618   8.238   4.901 -0.3108 -0.6400 -1.5331
  426MOL0     H56172   5.691   8.131   4.782  1.9498  0.2544 -0.8746
  426MOL0     H56173   5.800   8.316   4.677 -0.4379  1.3171 -1.0062
  426MOL0     H56174   5.758   8.417   4.816 -0.2375  0.2807 -0.8798
  426MOL0     H56175   5.550   8.284   4.624 -0.9833 -0.1050  0.4010
  426MOL0     H56176   5.512   8.373   4.771  0.7023 -2.2099  1.4539
  426MOL0     H56177   5.613   8.568   4.695  0.0268 -0.9354  1.0982
  426MOL0     H56178   5.463   8.528   4.606 -0.1534 -0.3808  2.2050
  426MOL0     H56179   5.620   8.432   4.440  0.1681 -0.3168  0.4361
  426MOL0     H56180   5.749   8.521   4.527 -0.3846 -1.6471 -0.5189
  426MOL0     H56181   5.590   8.723   4.453  0.7051  0.2843 -0.6877
  426MOL0     H56182   5.679   8.625   4.322 -1.5671 -2.8888 -1.5291
  426MOL0     H56183   5.405   8.511   4.370  0.0355  0.4404  0.1768
  426MOL0     H56184   5.481   8.596   4.224  0.0103  1.9835 -0.3147
  426MOL0     H56185   5.457   8.854   4.207 -0.7496 -1.0709 -2.5689
  426MOL0     H56186   5.284   9.066   4.181  0.6398 -2.2434 -0.7233
  426MOL0     H56187   5.235   9.091   4.349 -3.4304 -0.3048  0.8124
  426MOL0     H56188   5.055   9.150   4.247  0.9809 -0.1531  3.6907
  426MOL0     H56189   5.002   8.983   4.277  0.7463 -1.6851  0.0994
  426MOL0     H56190   5.073   9.107   4.019  3.2865 -0.8041 -0.7942
  426MOL0     H56191   5.136   8.946   4.043  0.0508  0.2101  1.6977
  426MOL0     H56192   4.894   8.971   3.939 -4.3815  1.8737  1.0517
  426MOL0     H56193   4.849   9.007   4.101  3.5432  2.4492  2.5222
  426MOL0     H56194   4.906   8.738   4.313 -0.4775  1.6689  1.1633
  426MOL0     H56195   4.699   8.613   4.394  0.8617  0.1673  0.3630
  426MOL0     H56196   4.206   8.525   4.057 -0.0907  0.2961  1.2784
  426MOL0     H56197   3.996   8.376   4.069 -0.5494 -2.5886 -0.7105
  426MOL0     H56198   3.980   8.133   4.031 -1.5500  2.9609 -1.7825
  426MOL0     H56199   3.840   8.216   4.095  0.5632  1.8704 -1.4002
  426MOL0     H56200   3.926   7.931   4.128  1.9635  1.7589 -1.1651
  426MOL0     H56201   3.780   7.985   4.037  0.9347  0.4480  0.0766
  426MOL0     H56202   3.850   7.963   4.332 -1.1104 -0.7919  1.1177
  426MOL0     H56203   3.738   7.860   4.261 -2.7753  1.2163  2.7817
  426MOL0     H56204   3.680   8.147   4.318  1.4738 -0.1070 -0.5559
  426MOL0     H56205   3.593   8.056   4.194 -0.8597 -2.4147  0.4282
  426MOL0     H56206   3.556   7.867   4.388  1.0896 -0.2452  0.2474
  426MOL0     H56207   3.465   8.031   4.392  1.9784  2.5160 -3.7757
  426MOL0     H56208   3.627   8.108   4.545  0.9035  0.9552  0.0371
  426MOL0     H56209   3.711   7.946   4.544 -0.8081 -1.8783  1.4434
  426MOL0     H56210   3.456   7.860   4.613 -0.5936  1.7632 -0.8243
  426MOL0     H56211   3.570   7.912   4.731 -1.4241 -1.1604  0.2872
  426MOL0     H56212   3.366   8.085   4.575 -0.1295 -1.6770 -1.1583
  426MOL0     H56213   3.433   8.150   4.710 -0.7053  0.5755 -1.8732
  426MOL0     H56214   4.178   8.124   4.336 -1.6603  0.8711  1.1514
  426MOL0     H56215   4.405   8.255   4.317  0.8896 -1.1775 -0.9601
  426MOL0     H56216   4.568   8.591   4.000 -1.8494  0.4052  2.2270
  426MOL0     H56217   4.768   8.720   3.920  0.5381  1.0080  0.2763
  426MOL0     H56218   6.188   8.314   4.796  0.5840 -3.4707 -1.1130
  426MOL0     H56219   6.387   8.344   4.933  1.3507 -1.5160  0.3961
  426MOL0     H56220   6.652   8.331   5.195 -0.4111 -0.7365 -0.3011
  426MOL0     H56221   6.869   8.313   5.301  0.4639  0.4281 -0.1787
  426MOL0     H56222   6.925   8.133   5.672  2.8355  0.2190  2.5720
  426MOL0     H56223   6.889   8.297   5.741 -2.1002 -1.2693  0.3855
  426MOL0     H56224   7.148   8.343   5.673  0.8543  0.0825  1.5410
  426MOL0     H56225   7.098   8.270   5.823 -0.5374  0.5488  0.5682
  426MOL0     H56226   7.276   8.166   5.624  0.7865  1.3155  0.6741
  426MOL0     H56227   7.138   8.064   5.611 -1.2679  2.0600 -1.2295
  426MOL0     H56228   7.272   8.138   5.881 -0.1595 -1.1728 -0.7446
  426MOL0     H56229   7.153   8.019   5.846  1.0534 -1.4154 -0.9247
  426MOL0     H56230   7.517   7.840   5.714 -2.1334 -3.2278 -1.6365
  426MOL0     H56231   6.698   8.240   5.681  0.4674  1.7387  0.4177
  426MOL0     H56232   6.473   8.283   5.593  0.8843  2.2977  0.0002
  427MOL0     O56233   4.401   3.526   6.698 -0.5747 -0.6317 -0.1193
  427MOL0     C56234   4.302   3.523   6.627  0.8948 -0.1691  0.0901
  427MOL0     O56235   4.310   3.535   6.492 -0.9038 -0.4240 -0.6739
  427MOL0     C56236   4.420   3.591   6.440 -0.9425  0.3596  0.2965
  427MOL0     C56237   4.430   3.727   6.420 -0.5675 -0.7962  0.8642
  427MOL0     C56238   4.550   3.780   6.369 -0.6945  0.1652 -0.1959
  427MOL0     C56239   4.666   3.706   6.339  1.1618 -0.0559 -0.5576
  427MOL0     O56240   4.780   3.774   6.293 -0.4188 -0.0890  0.0757
  427MOL0     C56241   4.906   3.727   6.331  0.5791 -0.5350 -0.2237
  427MOL0     C56242   5.015   3.801   6.253  0.2578 -0.9638  0.2556
  427MOL0     C56243   5.013   3.772   6.099 -0.7874  0.2528  0.2352
  427MOL0     C56244   5.152   3.768   6.042  0.0922 -0.5004 -0.0227
  427MOL0     C56245   5.152   3.712   5.897 -0.2284 -0.3835 -0.0426
  427MOL0     C56246   5.152   3.555   5.894  0.1370  0.0039 -0.8478
  427MOL0     C56247   5.174   3.493   5.756  0.4641  0.6239  0.4174
  427MOL0     C56248   5.089   3.573   5.650  0.3378  1.1286  0.9925
  427MOL0     N56249   5.087   3.511   5.514 -1.4022  0.1820  0.6381
  427MOL0     C56250   5.194   3.493   5.429  0.5940  0.9502 -0.4440
  427MOL0     C56251   5.150   3.446   5.313  0.3298 -0.0407 -0.9943
  427MOL0     C56252   5.236   3.405   5.204  0.0750  0.0140 -0.2350
  427MOL0     C56253   5.263   3.253   5.220 -0.5280 -0.0820 -0.0393
  427MOL0     C56254   5.341   3.210   5.097  0.4271 -1.0071 -1.0409
  427MOL0     C56255   5.306   3.070   5.054  0.3914 -0.0528 -0.4186
  427MOL0     O56256   5.354   2.989   5.156 -1.5170  0.3802 -0.0427
  427MOL0     C56257   5.488   2.958   5.171  0.0789  0.9666  0.4576
  427MOL0     C56258   5.591   2.963   5.070  0.5513 -0.5233 -0.5715
  427MOL0     C56259   5.716   2.909   5.091 -0.0898 -0.0504  0.0557
  427MOL0     C56260   5.751   2.853   5.221  0.3132 -0.3064  0.2319
  427MOL0     C56261   5.885   2.794   5.250 -0.1554  0.5561  0.0792
  427MOL0     O56262   5.949   2.752   5.145  0.3378  0.0120 -0.0806
  427MOL0     C56263   6.079   2.748   5.160  0.0411 -0.2690  0.2770
  427MOL0     C56264   6.147   2.871   5.154 -0.5308  0.8487  0.0213
  427MOL0     C56265   6.285   2.869   5.168  0.7100  0.3098 -0.3462
  427MOL0     C56266   6.355   2.753   5.194 -0.0605 -0.3475  1.3197
  427MOL0     O56267   6.493   2.753   5.213 -0.1614  0.1224  0.8051
  427MOL0     C56268   6.539   2.729   5.349  0.5674 -0.1768  0.4480
  427MOL0     C56269   6.667   2.649   5.358 -0.3385  0.9094  0.2599
  427MOL0     C56270   6.776   2.726   5.276  0.6242 -0.3541  0.2744
  427MOL0     C56271   6.911   2.666   5.309  0.1517 -0.4355  0.4578
  427MOL0     C56272   7.032   2.748   5.248 -0.0122  0.6155 -0.4420
  427MOL0     C56273   7.168   2.684   5.280  0.1955 -0.5583 -0.1982
  427MOL0     C56274   7.277   2.795   5.256  0.3034 -0.1781  0.3219
  427MOL0     C56275   7.426   2.752   5.258  0.1040  0.7467  0.4902
  427MOL0    Cl56276   7.434   2.610   5.168 -0.3285  0.3524  0.0214
  427MOL0     C56277   6.283   2.638   5.202 -0.3015 -0.3683  0.4803
  427MOL0     C56278   6.140   2.630   5.183 -0.2227  0.3959 -0.0224
  427MOL0     O56279   5.932   2.800   5.359  0.0206 -0.0530 -0.4946
  427MOL0     C56280   5.663   2.843   5.323  0.5642  0.1939  0.2155
  427MOL0     C56281   5.523   2.891   5.300  0.2560 -0.4877  0.0242
  427MOL0     N56282   5.012   3.430   5.322  0.0283 -0.3702  0.2666
  427MOL0     N56283   4.975   3.472   5.435 -0.2430  0.6297  0.5875
  427MOL0     C56284   4.644   3.572   6.341  0.1844  0.9331 -0.8568
  427MOL0     C56285   4.521   3.515   6.397 -0.3119 -0.0934 -0.3668
  427MOL0     C56286   4.171   3.497   6.683  0.9540 -0.2241  0.4747
  427MOL0     C56287   4.162   3.445   6.817  0.2752  0.3518 -0.1844
  427MOL0     C56288   4.029   3.444   6.881 -0.3395  0.1407  0.2156
  427MOL0     C56289   3.918   3.469   6.804  0.8646  0.3002  1.2474
  427MOL0     O56290   3.785   3.455   6.847 -0.3254 -0.1683 -1.2127
  427MOL0     C56291   3.758   3.406   6.981  0.8871 -0.5141 -0.0021
  427MOL0     C56292   3.604   3.387   6.993 -0.8918  0.0292  0.0993
  427MOL0     C56293   3.564   3.320   7.123  0.6770 -0.6052 -0.4641
  427MOL0     C56294   3.535   3.419   7.230 -0.5321 -1.1714  0.5575
  427MOL0     C56295   3.471   3.357   7.349  0.8401  0.2702 -0.0960
  427MOL0     C56296   3.411   3.302   7.440  0.0322  0.3333 -0.2181
  427MOL0     C56297   3.933   3.517   6.671  0.1206  0.5314  0.3322
  427MOL0     C56298   4.061   3.538   6.610  0.2216  0.3771 -0.5101
  427MOL0     H56299   4.359   3.807   6.434 -0.4027  0.1948 -2.7925
  427MOL0     H56300   4.570   3.884   6.345  0.9500  0.2539  1.3796
  427MOL0     H56301   4.919   3.620   6.308  1.5414 -0.1912 -1.3890
  427MOL0     H56302   4.921   3.746   6.438 -0.6620 -1.3361  0.1172
  427MOL0     H56303   5.110   3.777   6.302 -1.4634 -2.6425  3.0160
  427MOL0     H56304   4.999   3.909   6.266  1.4004 -0.6676 -0.6378
  427MOL0     H56305   4.959   3.856   6.053 -0.3530  0.1052 -0.5562
  427MOL0     H56306   4.955   3.682   6.076  1.3004 -0.5400 -2.3513
  427MOL0     H56307   5.199   3.867   6.044  3.1190 -1.8318  2.3728
  427MOL0     H56308   5.210   3.703   6.107 -3.4595 -3.4605  0.5076
  427MOL0     H56309   5.234   3.748   5.834  0.8465  0.4369  1.7407
  427MOL0     H56310   5.067   3.758   5.846  0.7761  0.4491 -1.0162
  427MOL0     H56311   5.067   3.517   5.953  0.6971  1.7914  1.2302
  427MOL0     H56312   5.241   3.521   5.947  1.1145 -0.7851 -2.8955
  427MOL0     H56313   5.276   3.512   5.721 -0.0893  3.2807  0.0741
  427MOL0     H56314   5.149   3.386   5.759  2.7911 -0.1726 -2.9202
  427MOL0     H56315   5.136   3.671   5.642  0.5967  1.0558  1.5349
  427MOL0     H56316   4.989   3.599   5.684  1.0188  1.4939  2.8459
  427MOL0     H56317   5.296   3.528   5.440  0.4682  1.7264 -1.6206
  427MOL0     H56318   5.329   3.462   5.208  0.2848 -0.3172 -0.4395
  427MOL0     H56319   5.187   3.418   5.107  1.6703  1.9645 -0.8610
  427MOL0     H56320   5.164   3.208   5.226 -1.6690  1.5365 -4.0177
  427MOL0     H56321   5.321   3.237   5.312 -2.0317 -1.3792  0.7373
  427MOL0     H56322   5.326   3.286   5.020 -1.8493  1.4424  1.5702
  427MOL0     H56323   5.448   3.225   5.114  0.1920  2.1557 -1.7144
  427MOL0     H56324   5.357   3.045   4.960  1.0292  1.8515 -0.6265
  427MOL0     H56325   5.198   3.058   5.043  0.1621 -0.2613  1.6438
  427MOL0     H56326   5.573   3.015   4.976  1.6043  0.3264 -0.3170
  427MOL0     H56327   5.788   2.906   5.009 -0.8448  0.4582 -0.6438
  427MOL0     H56328   6.099   2.966   5.131  0.3336  1.9445  2.4222
  427MOL0     H56329   6.334   2.966   5.174 -0.0642  0.6447  0.9694
  427MOL0     H56330   6.464   2.670   5.402 -1.6010  0.6167 -1.5452
  427MOL0     H56331   6.551   2.830   5.390 -0.3660  0.0517  0.1717
  427MOL0     H56332   6.645   2.550   5.319  0.3686 -0.4041  2.9462
  427MOL0     H56333   6.701   2.623   5.459 -1.6356 -1.4827  0.1538
  427MOL0     H56334   6.777   2.827   5.318 -0.3585 -0.7749  1.3530
  427MOL0     H56335   6.754   2.730   5.169 -3.4540  0.5229  0.9813
  427MOL0     H56336   6.920   2.677   5.418  1.7891  0.1255  0.2914
  427MOL0     H56337   6.903   2.559   5.286  0.8660 -0.3000 -0.4622
  427MOL0     H56338   7.030   2.845   5.298  1.0597 -0.3764  1.6867
  427MOL0     H56339   7.027   2.767   5.141 -0.7775  1.6531 -0.2412
  427MOL0     H56340   7.195   2.602   5.214  1.4553 -1.1474  0.9941
  427MOL0     H56341   7.167   2.652   5.385 -2.8570  0.0874  0.0619
  427MOL0     H56342   7.256   2.835   5.156 -2.3710 -3.4309 -0.6128
  427MOL0     H56343   7.252   2.877   5.325 -3.3754  0.5962 -1.6059
  427MOL0     H56344   7.462   2.747   5.361 -0.3850  2.2997  0.7557
  427MOL0     H56345   7.487   2.827   5.207  2.0748 -1.7345 -1.0551
  427MOL0     H56346   6.329   2.545   5.234 -0.6457  0.3027  3.1376
  427MOL0     H56347   6.084   2.537   5.188 -0.4688  0.5803  0.7398
  427MOL0     H56348   5.693   2.787   5.411  2.3712  1.6866  0.6175
  427MOL0     H56349   5.454   2.878   5.383  2.4068 -0.3167  1.9155
  427MOL0     H56350   4.715   3.501   6.300  0.0356 -1.5982  2.7125
  427MOL0     H56351   4.500   3.408   6.399 -1.0083  0.0214 -1.0932
  427MOL0     H56352   4.254   3.404   6.859  1.1686  0.2039 -2.1577
  427MOL0     H56353   4.024   3.413   6.985  5.2157 -5.6618 -0.5778
  427MOL0     H56354   3.804   3.475   7.052 -2.6041  1.2956  0.7356
  427MOL0     H56355   3.793   3.304   7.000 -0.6852 -0.8964  1.0701
  427MOL0     H56356   3.556   3.485   6.987  3.1550  2.2369 -0.1801
  427MOL0     H56357   3.588   3.317   6.911 -4.0636  1.3334 -0.5424
  427MOL0     H56358   3.630   3.242   7.162  0.5899 -0.7849 -0.6715
  427MOL0     H56359   3.466   3.274   7.110  0.1542 -0.2743  1.9472
  427MOL0     H56360   3.626   3.467   7.266 -0.1623 -2.4116  1.3619
  427MOL0     H56361   3.473   3.497   7.185  1.2439 -0.2647 -0.4042
  427MOL0     H56362   3.357   3.266   7.526 -2.0768  3.0489 -0.2422
  427MOL0     H56363   3.843   3.538   6.615 -0.5538 -2.5928  0.0799
  427MOL0     H56364   4.084   3.581   6.513 -1.1903  0.2888 -0.9080
  428MOL0     O56365   6.699   8.101   3.719  0.1413 -0.4324  0.1299
  428MOL0     C56366   6.733   8.162   3.617  0.3524  0.2072 -0.4451
  428MOL0     O56367   6.689   8.287   3.578 -0.0444  0.2722 -0.1938
  428MOL0     C56368   6.569   8.338   3.625 -0.7485  0.6828  0.1582
  428MOL0     C56369   6.473   8.355   3.529 -0.2153 -0.7616 -0.2191
  428MOL0     C56370   6.358   8.416   3.565  1.3243  0.5987  0.0680
  428MOL0     C56371   6.338   8.472   3.697 -0.1833  0.3028  1.1615
  428MOL0     O56372   6.214   8.529   3.717 -0.2352 -0.4225 -0.1077
  428MOL0     C56373   6.180   8.578   3.847 -0.9229 -0.0810  0.8170
  428MOL0     C56374   6.033   8.614   3.876 -0.0631  0.0004  0.7894
  428MOL0     C56375   5.986   8.732   3.786 -0.0576 -0.7942  0.3707
  428MOL0     C56376   5.855   8.779   3.832 -1.2700  0.2700  0.3566
  428MOL0     C56377   5.809   8.900   3.747  0.2543  0.6729 -0.0717
  428MOL0     C56378   5.736   8.879   3.616  1.0343 -0.6841 -0.3657
  428MOL0     C56379   5.657   9.003   3.563 -0.7251  0.4420  0.4608
  428MOL0     C56380   5.564   8.977   3.443 -0.2334 -0.6104  0.6688
  428MOL0     N56381   5.468   9.080   3.423 -0.0900 -0.0065 -0.1732
  428MOL0     C56382   5.385   9.137   3.514 -0.1661 -0.2960 -0.1283
  428MOL0     C56383   5.342   9.256   3.455  0.9153  0.6802  0.4780
  428MOL0     C56384   5.254   9.350   3.520 -0.0295  0.3394 -0.5049
  428MOL0     C56385   5.118   9.290   3.559 -0.2967 -0.1724 -0.0849
  428MOL0     C56386   5.034   9.224   3.450 -0.9237 -0.4545 -0.0697
  428MOL0     C56387   4.921   9.147   3.512  0.0437 -0.6136  1.0235
  428MOL0     O56388   4.844   9.238   3.582 -0.1160 -0.6008 -0.6817
  428MOL0     C56389   4.773   9.180   3.678  0.2144  0.6026  0.0614
  428MOL0     C56390   4.726   9.041   3.677 -0.3639 -0.3348 -0.5856
  428MOL0     C56391   4.644   8.988   3.782  0.0233 -0.3787  0.2649
  428MOL0     C56392   4.589   9.078   3.874  0.1265  0.1860 -0.0408
  428MOL0     C56393   4.493   9.039   3.970  0.9763  0.3441  0.3463
  428MOL0     O56394   4.412   8.939   3.921 -1.1099 -0.1675 -0.2202
  428MOL0     C56395   4.307   8.886   3.989  1.0035 -0.0177  0.2982
  428MOL0     C56396   4.203   8.827   3.911  0.2931  1.0296  0.4088
  428MOL0     C56397   4.087   8.789   3.981 -0.2809  1.0780  0.4553
  428MOL0     C56398   4.077   8.786   4.114 -0.7233 -0.3568 -1.3891
  428MOL0     O56399   3.961   8.748   4.181  0.0116  0.3996 -0.1403
  428MOL0     C56400   3.994   8.677   4.303  0.0964  0.3640  0.5969
  428MOL0     C56401   3.892   8.572   4.336 -0.3025  0.0936  0.3043
  428MOL0     C56402   3.759   8.634   4.364 -0.0408 -1.0822  1.0854
  428MOL0     C56403   3.650   8.539   4.406 -0.4323 -0.1996 -0.1254
  428MOL0     C56404   3.514   8.604   4.431 -0.9252  0.1879 -0.1973
  428MOL0     C56405   3.404   8.501   4.478  0.0012 -0.3022  0.2404
  428MOL0     C56406   3.270   8.557   4.458  0.0670  0.1917 -1.0155
  428MOL0     C56407   3.167   8.486   4.550 -0.3215  0.7309  0.0439
  428MOL0    Cl56408   3.012   8.527   4.490 -0.0840 -0.3759 -0.0818
  428MOL0     C56409   4.194   8.823   4.187  1.7594  0.6214 -0.1557
  428MOL0     C56410   4.305   8.867   4.125 -0.4555 -0.3109 -0.0497
  428MOL0     O56411   4.468   9.095   4.081 -0.3685 -0.6832  0.2051
  428MOL0     C56412   4.629   9.217   3.869  0.6329  0.6645  0.4723
  428MOL0     C56413   4.721   9.264   3.776 -0.2818 -1.2514 -0.2593
  428MOL0     N56414   5.402   9.260   3.329  0.6907  0.0813  0.1863
  428MOL0     N56415   5.489   9.168   3.322  0.4540  0.1897  0.6758
  428MOL0     C56416   6.433   8.448   3.799 -0.4097  0.9311  0.6268
  428MOL0     C56417   6.547   8.380   3.756  1.0842  0.7392  0.2226
  428MOL0     C56418   6.849   8.104   3.544 -0.4995 -0.3306 -0.4819
  428MOL0     C56419   6.915   8.170   3.428  0.0969 -1.1970  0.0016
  428MOL0     C56420   7.021   8.105   3.364 -0.0028  0.3262  0.4004
  428MOL0     C56421   7.083   7.991   3.430 -0.3688  0.1921 -0.5179
  428MOL0     O56422   7.193   7.924   3.385 -0.1638 -0.2490 -0.5054
  428MOL0     C56423   7.234   7.905   3.251 -0.2087 -0.7185  0.4096
  428MOL0     C56424   7.355   7.980   3.218 -0.9725  1.5051  0.2354
  428MOL0     C56425   7.474   7.939   3.305  0.8108 -0.3843 -0.0804
  428MOL0     C56426   7.592   8.027   3.268 -0.5566 -0.2333 -0.3789
  428MOL0     C56427   7.706   8.024   3.362 -0.7445 -0.3344  0.2059
  428MOL0     C56428   7.813   8.012   3.426 -0.2064  0.2542  0.1110
  428MOL0     C56429   7.035   7.939   3.555  0.0557 -0.1828  0.2339
  428MOL0     C56430   6.914   7.989   3.594 -0.2726 -0.4296 -0.7030
  428MOL0     H56431   6.472   8.311   3.430 -1.1539  1.8799 -1.4662
  428MOL0     H56432   6.264   8.418   3.511 -0.0869 -0.1982  2.3661
  428MOL0     H56433   6.237   8.672   3.849 -1.6903  0.3936  0.6171
  428MOL0     H56434   6.216   8.509   3.925  1.6202  1.0859  0.7985
  428MOL0     H56435   6.031   8.649   3.979  1.1045  1.1608  0.4552
  428MOL0     H56436   5.973   8.525   3.855  0.3435  0.2906 -1.9459
  428MOL0     H56437   5.988   8.704   3.680 -0.1289  1.1623 -0.1836
  428MOL0     H56438   6.061   8.810   3.806  1.0929 -1.2218 -1.9272
  428MOL0     H56439   5.798   8.691   3.803  1.4809 -1.4020 -0.2656
  428MOL0     H56440   5.849   8.806   3.938 -2.6867  2.2976 -0.1675
  428MOL0     H56441   5.887   8.971   3.716  0.8003 -0.8331 -2.3905
  428MOL0     H56442   5.737   8.952   3.812 -2.8868 -2.3189 -0.8847
  428MOL0     H56443   5.651   8.811   3.631 -0.1023  1.1733  2.4561
  428MOL0     H56444   5.805   8.842   3.540 -0.4151 -3.3062 -0.5710
  428MOL0     H56445   5.592   9.037   3.645 -2.2913 -0.2860 -0.4355
  428MOL0     H56446   5.737   9.069   3.530  0.0083 -0.0777  1.1490
  428MOL0     H56447   5.516   8.881   3.464  1.3955 -1.9520 -1.4056
  428MOL0     H56448   5.612   8.964   3.346 -0.1654  2.1110  0.2738
  428MOL0     H56449   5.366   9.097   3.613 -4.8298 -1.4687 -1.2631
  428MOL0     H56450   5.232   9.439   3.461 -2.2426  0.2821  0.1493
  428MOL0     H56451   5.316   9.380   3.605  3.1931  0.3041 -2.6789
  428MOL0     H56452   5.057   9.379   3.577  0.2593  0.5404 -1.5223
  428MOL0     H56453   5.129   9.223   3.645 -3.8169  1.9252  2.2335
  428MOL0     H56454   4.988   9.303   3.390 -1.0530 -1.4287 -1.3177
  428MOL0     H56455   5.105   9.167   3.389 -1.7813 -1.6077 -0.0301
  428MOL0     H56456   4.972   9.075   3.576  2.7156 -0.3691 -0.7061
  428MOL0     H56457   4.865   9.097   3.433  1.6944 -0.9844  0.0525
  428MOL0     H56458   4.767   8.978   3.598 -2.6478  1.4689 -3.4290
  428MOL0     H56459   4.613   8.885   3.766  0.4554 -0.5604  0.5707
  428MOL0     H56460   4.199   8.816   3.803 -2.8562  0.0905  0.5295
  428MOL0     H56461   4.003   8.756   3.921  0.7835 -1.8570  0.4472
  428MOL0     H56462   3.985   8.746   4.388 -1.1866 -1.1497  1.7751
  428MOL0     H56463   4.092   8.632   4.289 -0.0152  0.3774 -0.2561
  428MOL0     H56464   3.922   8.531   4.433 -1.6098 -0.7317  0.3823
  428MOL0     H56465   3.886   8.495   4.259 -0.5856 -1.2501  1.6146
  428MOL0     H56466   3.729   8.699   4.281  2.5986  0.0452  0.9123
  428MOL0     H56467   3.761   8.693   4.456  1.3848 -0.9822  1.0179
  428MOL0     H56468   3.634   8.461   4.332  1.5295 -0.3119 -0.4630
  428MOL0     H56469   3.674   8.494   4.503  0.6300  0.4702 -0.0681
  428MOL0     H56470   3.492   8.667   4.345  1.2752  3.6368  1.5363
  428MOL0     H56471   3.530   8.673   4.514  0.9585  0.7809 -0.9952
  428MOL0     H56472   3.417   8.459   4.578 -2.7627 -0.5888  0.5407
  428MOL0     H56473   3.417   8.408   4.421  0.7779 -0.7907  1.1698
  428MOL0     H56474   3.253   8.665   4.464  2.0663  0.5217 -0.4230
  428MOL0     H56475   3.241   8.531   4.356 -0.9558 -0.9060 -0.4674
  428MOL0     H56476   3.186   8.518   4.653  1.9696  0.7721 -0.3318
  428MOL0     H56477   3.188   8.379   4.540  1.6044  1.1633 -1.0006
  428MOL0     H56478   4.199   8.831   4.295  1.9057  2.5922 -0.2810
  428MOL0     H56479   4.399   8.890   4.173  0.9735  4.9018 -4.4026
  428MOL0     H56480   4.582   9.283   3.941 -1.2427  0.7871 -0.7983
  428MOL0     H56481   4.752   9.368   3.773 -1.6156 -0.7618  1.2006
  428MOL0     H56482   6.424   8.461   3.906 -0.0240 -1.3743  0.9953
  428MOL0     H56483   6.627   8.359   3.827  0.7011 -2.5639 -0.1746
  428MOL0     H56484   6.883   8.269   3.398 -1.2405 -0.9638  1.9941
  428MOL0     H56485   7.052   8.147   3.269  1.2659  1.2804  1.2048
  428MOL0     H56486   7.150   7.940   3.190  1.3182 -0.8019 -1.8360
  428MOL0     H56487   7.245   7.797   3.239 -2.8690 -1.1870  1.4479
  428MOL0     H56488   7.375   7.965   3.112  1.9044 -0.3771  0.8998
  428MOL0     H56489   7.327   8.085   3.228 -0.7547  1.6390 -0.5178
  428MOL0     H56490   7.504   7.834   3.299  2.5775  0.0739  0.2106
  428MOL0     H56491   7.441   7.958   3.408 -0.1625 -3.9561  0.3902
  428MOL0     H56492   7.624   7.992   3.170  1.5257  1.3300 -0.3267
  428MOL0     H56493   7.556   8.130   3.260  3.0020  1.0242 -2.7895
  428MOL0     H56494   7.894   8.008   3.496  2.9955 -3.0247 -3.2624
  428MOL0     H56495   7.080   7.864   3.621 -1.7538  1.0811  3.0886
  428MOL0     H56496   6.866   7.940   3.678 -1.7181  1.0639 -0.6049
  429MOL0     O56497   5.777   1.029   2.192  0.4591 -0.9314  0.8569
  429MOL0     C56498   5.722   0.923   2.207 -0.7398  0.4326 -0.5700
  429MOL0     O56499   5.773   0.821   2.284 -0.1067 -0.0938  0.2600
  429MOL0     C56500   5.895   0.823   2.342  0.1262 -0.0483 -0.4482
  429MOL0     C56501   6.007   0.891   2.289 -0.2674 -0.2329  0.8898
  429MOL0     C56502   6.131   0.872   2.344  0.3922  0.3372  0.0158
  429MOL0     C56503   6.157   0.769   2.438 -0.1470 -0.7339 -0.9422
  429MOL0     O56504   6.278   0.745   2.501  0.9550 -0.3635 -0.0817
  429MOL0     C56505   6.375   0.840   2.532  1.2975  0.3650 -0.6178
  429MOL0     C56506   6.457   0.803   2.651 -0.7431 -0.5864 -0.2798
  429MOL0     C56507   6.529   0.930   2.698  0.6502 -0.0192  0.6195
  429MOL0     C56508   6.625   0.896   2.809  0.2613  0.2650 -1.3426
  429MOL0     C56509   6.694   1.020   2.879  0.4328 -0.8024  0.0210
  429MOL0     C56510   6.755   0.988   3.015  0.2852  0.2288 -0.0540
  429MOL0     C56511   6.850   1.098   3.078  0.0952  0.3086 -1.1042
  429MOL0     C56512   6.933   1.039   3.197 -1.3241  0.9786  0.6619
  429MOL0     N56513   6.839   1.014   3.311  0.4348 -0.1002  0.3777
  429MOL0     C56514   6.854   1.078   3.429 -0.6630  0.7596 -0.9257
  429MOL0     C56515   6.772   1.011   3.522 -0.2473 -0.1307  0.5275
  429MOL0     C56516   6.744   1.060   3.662 -0.2293 -1.0864 -1.1478
  429MOL0     C56517   6.635   1.162   3.683  0.2475  0.0707 -1.0484
  429MOL0     C56518   6.623   1.220   3.824 -0.5320  1.0264  0.0094
  429MOL0     C56519   6.536   1.115   3.899 -0.3654  0.1718 -0.0369
  429MOL0     O56520   6.487   1.191   4.016 -0.1698 -0.4795  0.2477
  429MOL0     C56521   6.356   1.238   4.004 -0.6289 -0.4843  1.5838
  429MOL0     C56522   6.262   1.225   3.898 -0.5589  0.0019 -0.5606
  429MOL0     C56523   6.126   1.253   3.932 -0.1619 -0.1815 -0.3810
  429MOL0     C56524   6.085   1.300   4.057 -0.4858  0.2738  0.7674
  429MOL0     C56525   5.949   1.328   4.087 -0.7150  0.2041  0.4689
  429MOL0     O56526   5.860   1.247   4.040  0.4691 -0.0099  0.2533
  429MOL0     C56527   5.728   1.266   4.082  0.0837  0.6744  0.1732
  429MOL0     C56528   5.679   1.175   4.179  0.1209  0.0199  0.4238
  429MOL0     C56529   5.548   1.177   4.233  1.0214  0.3796  0.2353
  429MOL0     C56530   5.462   1.262   4.193 -0.7968 -0.8161  0.6722
  429MOL0     O56531   5.328   1.268   4.214 -0.2527  0.4558  0.6617
  429MOL0     C56532   5.278   1.167   4.307 -0.0689  0.0528  0.4796
  429MOL0     C56533   5.131   1.201   4.312 -0.6744  0.6266  0.1185
  429MOL0     C56534   5.096   1.347   4.343  0.6409 -0.0414 -0.1104
  429MOL0     C56535   4.942   1.357   4.350  0.3782 -0.1679  1.2108
  429MOL0     C56536   4.871   1.500   4.369  1.0026 -0.8609  1.1552
  429MOL0     C56537   4.712   1.495   4.393 -0.5680  0.4801  0.2053
  429MOL0     C56538   4.675   1.431   4.532  0.1118  0.4865  0.2534
  429MOL0     C56539   4.523   1.440   4.546  0.2956  1.1644 -1.2502
  429MOL0    Cl56540   4.472   1.389   4.710 -0.0997  0.2287  0.3461
  429MOL0     C56541   5.505   1.352   4.089 -0.2790  0.0064 -0.3290
  429MOL0     C56542   5.633   1.353   4.024 -0.2063 -0.4870  0.1199
  429MOL0     O56543   5.930   1.420   4.162  0.3439  0.2537 -0.1856
  429MOL0     C56544   6.187   1.335   4.145  0.3313 -0.9408  0.5976
  429MOL0     C56545   6.317   1.295   4.123  0.6332 -1.0821 -0.3458
  429MOL0     N56546   6.732   0.894   3.455  1.8147 -0.0854 -0.8031
  429MOL0     N56547   6.774   0.897   3.334 -0.7427  0.7919  0.0869
  429MOL0     C56548   6.049   0.696   2.491 -1.2669 -0.3228 -0.1712
  429MOL0     C56549   5.925   0.721   2.444 -0.8336  0.9019  0.0779
  429MOL0     C56550   5.590   0.910   2.145  1.4943 -0.7076  1.1801
  429MOL0     C56551   5.532   1.023   2.072  0.2346  0.4748  0.5423
  429MOL0     C56552   5.405   1.008   2.006  0.7327 -0.8422 -0.4752
  429MOL0     C56553   5.341   0.879   2.011 -0.1495  0.5496  0.6036
  429MOL0     O56554   5.227   0.826   1.964  0.2376 -0.1248 -0.0274
  429MOL0     C56555   5.149   0.905   1.875  0.0480  0.2303  0.3558
  429MOL0     C56556   5.099   0.813   1.759  0.5412 -0.5389 -0.4212
  429MOL0     C56557   5.000   0.882   1.669 -0.0920  0.3107 -0.2659
  429MOL0     C56558   4.929   0.785   1.562 -0.4783 -0.7292 -0.6993
  429MOL0     C56559   5.008   0.729   1.453 -0.4982 -0.6330 -0.4142
  429MOL0     C56560   5.047   0.699   1.338 -0.1072  0.7288 -0.4996
  429MOL0     C56561   5.396   0.779   2.087 -0.2788 -0.1922  0.0282
  429MOL0     C56562   5.510   0.794   2.164 -0.6135 -0.1727 -0.4984
  429MOL0     H56563   6.006   0.953   2.199 -4.3014  0.0805  0.9533
  429MOL0     H56564   6.203   0.944   2.308  0.2509 -0.3312 -1.6674
  429MOL0     H56565   6.329   0.933   2.566 -2.9141 -2.5557  2.7281
  429MOL0     H56566   6.434   0.842   2.440  1.6664 -0.6747 -0.4176
  429MOL0     H56567   6.534   0.728   2.632 -1.5227 -1.1924 -1.1291
  429MOL0     H56568   6.388   0.771   2.730 -0.2472 -0.5723  0.1632
  429MOL0     H56569   6.467   1.017   2.724  2.0831  1.3711 -0.3809
  429MOL0     H56570   6.594   0.971   2.620  0.4741 -0.5091  0.2142
  429MOL0     H56571   6.571   0.835   2.882  0.4493 -0.3941 -1.7325
  429MOL0     H56572   6.710   0.835   2.776 -0.2789 -1.5166  0.3437
  429MOL0     H56573   6.626   1.106   2.889  0.5554  0.1290 -4.9026
  429MOL0     H56574   6.780   1.050   2.819  0.8494 -1.3408  0.3338
  429MOL0     H56575   6.812   0.896   2.999 -0.9480 -0.7368  0.8383
  429MOL0     H56576   6.677   0.960   3.087  1.8715 -2.6298  0.7407
  429MOL0     H56577   6.913   1.137   2.997  1.7012  2.0445  0.8702
  429MOL0     H56578   6.791   1.184   3.111 -0.2325 -0.8282  1.6038
  429MOL0     H56579   7.018   1.102   3.225 -0.9557  0.1162  1.5103
  429MOL0     H56580   6.976   0.944   3.166 -1.5049  0.8211  0.8954
  429MOL0     H56581   6.905   1.169   3.457  0.9750 -0.7281  1.2655
  429MOL0     H56582   6.835   1.107   3.701 -0.9949 -3.3951  4.3312
  429MOL0     H56583   6.729   0.975   3.729 -0.0435 -0.7405 -0.6641
  429MOL0     H56584   6.536   1.139   3.642 -0.7496  2.8017 -0.4056
  429MOL0     H56585   6.664   1.248   3.622  1.5775  1.3096  1.2238
  429MOL0     H56586   6.719   1.244   3.868 -0.7353  2.6742 -0.3723
  429MOL0     H56587   6.572   1.316   3.813 -0.9833  0.7423 -0.4682
  429MOL0     H56588   6.595   1.028   3.928 -1.0903 -0.7089 -1.1406
  429MOL0     H56589   6.455   1.078   3.836  0.5663 -1.8204 -0.1188
  429MOL0     H56590   6.288   1.185   3.800  4.0661 -0.6370  0.6938
  429MOL0     H56591   6.057   1.232   3.851 -2.1833  0.8373  0.9926
  429MOL0     H56592   5.748   1.093   4.195 -1.1539 -1.2806 -0.5337
  429MOL0     H56593   5.514   1.099   4.302 -4.2125  0.6770 -1.5292
  429MOL0     H56594   5.340   1.191   4.394  5.9268 -0.6451 -3.0243
  429MOL0     H56595   5.291   1.059   4.292 -0.4013 -0.2718  2.3071
  429MOL0     H56596   5.094   1.144   4.398  1.0728  1.5651  1.5485
  429MOL0     H56597   5.082   1.165   4.221  2.1649 -2.2077 -0.4764
  429MOL0     H56598   5.127   1.405   4.256 -3.4775  0.3452 -1.5148
  429MOL0     H56599   5.139   1.385   4.437  0.6471  2.0981 -0.9249
  429MOL0     H56600   4.896   1.322   4.257  0.4191  1.7590  0.4172
  429MOL0     H56601   4.899   1.294   4.429  0.0006  0.8623  1.8406
  429MOL0     H56602   4.885   1.551   4.274 -1.7718 -2.2258 -0.1183
  429MOL0     H56603   4.922   1.556   4.447  0.8747 -0.8696  1.2455
  429MOL0     H56604   4.684   1.439   4.304 -1.0045  0.6547  0.2323
  429MOL0     H56605   4.665   1.592   4.375  0.6922  1.3223  1.2126
  429MOL0     H56606   4.723   1.333   4.539  1.0494  0.9571  0.5533
  429MOL0     H56607   4.718   1.502   4.604  2.7686  1.5472 -2.1904
  429MOL0     H56608   4.472   1.375   4.474  3.4774 -0.0626 -2.6032
  429MOL0     H56609   4.479   1.537   4.521  0.6460  1.8153  0.4922
  429MOL0     H56610   5.423   1.415   4.057 -1.1837 -1.6499 -1.4846
  429MOL0     H56611   5.655   1.438   3.960 -2.2337  0.5302  0.6805
  429MOL0     H56612   6.170   1.382   4.241  1.7951  0.8819  0.0212
  429MOL0     H56613   6.390   1.323   4.198 -1.9658  2.7683  1.0621
  429MOL0     H56614   6.074   0.633   2.576 -0.4211 -0.0215 -0.1847
  429MOL0     H56615   5.835   0.685   2.491  0.3261 -1.9712  0.2697
  429MOL0     H56616   5.570   1.123   2.054 -0.5175  0.5412 -0.8023
  429MOL0     H56617   5.359   1.096   1.961 -1.2204 -1.9863 -0.7984
  429MOL0     H56618   5.194   0.996   1.833  0.9324 -0.8099 -1.0329
  429MOL0     H56619   5.061   0.938   1.932 -2.0701 -0.0234 -2.5528
  429MOL0     H56620   5.189   0.788   1.701  0.9529  0.5881 -0.2972
  429MOL0     H56621   5.055   0.718   1.791  2.6826 -0.6721  2.6660
  429MOL0     H56622   5.037   0.968   1.611 -1.1028  0.3217 -0.9237
  429MOL0     H56623   4.922   0.915   1.739  0.0450  0.6257 -0.2562
  429MOL0     H56624   4.875   0.709   1.620  2.9322 -0.6644  2.9383
  429MOL0     H56625   4.852   0.846   1.513 -0.8091 -2.0439 -1.9065
  429MOL0     H56626   5.081   0.675   1.240 -1.2666 -4.9252  0.1455
  429MOL0     H56627   5.343   0.684   2.097  1.2277 -0.8273  4.4055
  429MOL0     H56628   5.538   0.713   2.231  1.7149  0.5469 -0.5220
  430MOL0     O56629   3.107   2.258   6.096 -0.1680  0.7856 -0.5558
  430MOL0     C56630   3.001   2.297   6.137 -0.4338  0.5241 -0.5961
  430MOL0     O56631   2.932   2.249   6.245  0.6685 -0.4348  1.0082
  430MOL0     C56632   2.961   2.120   6.286  0.5711  0.1088  0.1667
  430MOL0     C56633   2.883   2.015   6.239 -0.0211 -0.2434 -0.0400
  430MOL0     C56634   2.909   1.883   6.278  0.3941 -0.3882 -0.4606
  430MOL0     C56635   3.015   1.860   6.366  0.0566  0.7474  0.3404
  430MOL0     O56636   3.048   1.726   6.379  0.5873 -0.1013 -0.3553
  430MOL0     C56637   3.002   1.654   6.500  0.6473  0.3589 -0.3444
  430MOL0     C56638   2.876   1.577   6.477  0.5548  0.1226 -0.0044
  430MOL0     C56639   2.758   1.664   6.511 -0.6591 -0.4591 -0.6754
  430MOL0     C56640   2.624   1.594   6.496 -0.1549  0.3756 -0.3963
  430MOL0     C56641   2.504   1.688   6.522  1.0564 -0.4039 -0.2183
  430MOL0     C56642   2.368   1.614   6.557 -0.4371  0.6062 -0.7681
  430MOL0     C56643   2.275   1.693   6.647 -0.0578 -0.0190  0.2239
  430MOL0     C56644   2.329   1.712   6.794  0.1361 -0.4663  0.5825
  430MOL0     N56645   2.220   1.778   6.874  0.2187  0.2179 -0.3927
  430MOL0     C56646   2.104   1.703   6.907 -0.9765 -0.7136  0.3539
  430MOL0     C56647   2.019   1.795   6.952  0.6175  0.3436  1.4479
  430MOL0     C56648   1.871   1.763   6.989 -0.7823  0.3093 -0.4520
  430MOL0     C56649   1.780   1.728   6.873  0.6373 -0.5266  0.3711
  430MOL0     C56650   1.626   1.738   6.898 -0.6278  0.8503  0.2559
  430MOL0     C56651   1.577   1.630   6.985  0.4763  0.3554  0.5534
  430MOL0     O56652   1.519   1.527   6.897 -0.2536  0.2292 -0.1226
  430MOL0     C56653   1.389   1.525   6.855  0.2143 -0.5942 -0.9693
  430MOL0     C56654   1.304   1.636   6.859  0.4400  0.1848 -0.4745
  430MOL0     C56655   1.167   1.630   6.831  0.1250  0.0056 -0.7822
  430MOL0     C56656   1.112   1.512   6.795 -0.2717 -1.2665  0.6241
  430MOL0     C56657   0.969   1.512   6.769 -0.3865 -0.8529  0.0487
  430MOL0     O56658   0.902   1.630   6.793  0.1361  0.1853  0.7093
  430MOL0     C56659   0.764   1.642   6.764 -1.0453 -0.3449 -0.1105
  430MOL0     C56660   0.679   1.689   6.866  1.0872  0.3210  0.3918
  430MOL0     C56661   0.550   1.712   6.828  0.3708 -0.4808 -0.1085
  430MOL0     C56662   0.493   1.682   6.704  0.5905  0.2031  0.3039
  430MOL0     O56663   0.364   1.693   6.667  0.7228  0.0172  0.0377
  430MOL0     C56664   0.258   1.699   6.772 -0.3322  0.3009  0.3240
  430MOL0     C56665   0.123   1.698   6.705 -0.5884 -0.1506 -0.7184
  430MOL0     C56666   0.107   1.801   6.595 -0.0694  0.6454  0.3684
  430MOL0     C56667  -0.027   1.796   6.519 -0.2738 -0.3398  0.3359
  430MOL0     C56668  -0.116   1.915   6.566 -0.0998  1.1568 -0.3025
  430MOL0     C56669  -0.155   1.908   6.718  1.2954 -0.5438 -0.5828
  430MOL0     C56670  -0.257   2.013   6.752  0.3555  0.1648  0.0351
  430MOL0     C56671  -0.303   2.001   6.891  0.0428 -0.0405  1.5454
  430MOL0    Cl56672  -0.426   2.125   6.908 -0.1661  0.2479  0.4030
  430MOL0     C56673   0.576   1.633   6.608  0.6282 -0.8441 -0.2791
  430MOL0     C56674   0.719   1.625   6.626  0.5965  0.4065 -0.8779
  430MOL0     O56675   0.917   1.408   6.733 -0.7601 -0.5965  0.0825
  430MOL0     C56676   1.194   1.404   6.785  0.3150 -0.3694  0.0258
  430MOL0     C56677   1.331   1.407   6.814  0.6895  0.1598 -0.3575
  430MOL0     N56678   2.080   1.923   6.939  0.3145 -0.7108  0.4813
  430MOL0     N56679   2.209   1.904   6.919  0.2863  1.3702  0.6072
  430MOL0     C56680   3.096   1.962   6.418  0.5719  0.7835  0.3768
  430MOL0     C56681   3.062   2.095   6.378 -0.3172 -0.4870  0.0537
  430MOL0     C56682   2.952   2.418   6.073 -0.2540  1.0078  0.1599
  430MOL0     C56683   2.994   2.459   5.948 -0.2214 -0.4214 -0.7906
  430MOL0     C56684   2.975   2.594   5.913  0.8231 -1.1506 -0.2066
  430MOL0     C56685   2.886   2.683   5.984  0.0284 -0.0242  1.0283
  430MOL0     O56686   2.860   2.813   5.956  0.5161  0.1781  0.3643
  430MOL0     C56687   2.901   2.872   5.838  0.1266 -0.0814 -0.5328
  430MOL0     C56688   2.812   2.826   5.728  0.7738 -0.1052  0.3572
  430MOL0     C56689   2.659   2.850   5.751  0.0976 -0.0095  0.1788
  430MOL0     C56690   2.615   2.984   5.700  0.2761  0.7310 -0.5593
  430MOL0     C56691   2.661   3.096   5.777  0.3086 -0.5509 -0.4348
  430MOL0     C56692   2.674   3.189   5.853  0.0012  0.6307  1.2145
  430MOL0     C56693   2.831   2.620   6.104  0.4581  0.3370  0.6885
  430MOL0     C56694   2.858   2.486   6.144 -0.2579  0.1211  0.1829
  430MOL0     H56695   2.814   2.030   6.157  2.4305  0.4085 -2.1238
  430MOL0     H56696   2.860   1.803   6.224 -0.5654  0.6638 -1.2058
  430MOL0     H56697   3.005   1.724   6.584  2.7704  0.2306 -0.2557
  430MOL0     H56698   3.076   1.577   6.524  1.8221  2.1032  2.0870
  430MOL0     H56699   2.874   1.487   6.540  0.5960 -1.4060 -2.0964
  430MOL0     H56700   2.879   1.555   6.370  1.1427 -0.5201  0.1354
  430MOL0     H56701   2.760   1.764   6.468  0.3741 -0.6993 -1.2142
  430MOL0     H56702   2.770   1.678   6.619  1.0487  1.5425 -1.0611
  430MOL0     H56703   2.607   1.560   6.394 -0.5875  0.7948 -0.4637
  430MOL0     H56704   2.625   1.512   6.569  1.2050  1.3843  0.7679
  430MOL0     H56705   2.490   1.758   6.439  1.4274 -0.5968 -0.4494
  430MOL0     H56706   2.540   1.735   6.614 -1.4202 -0.5532  0.9087
  430MOL0     H56707   2.376   1.520   6.613 -0.1416 -0.9367 -3.2250
  430MOL0     H56708   2.328   1.593   6.458 -1.1251  3.7661 -1.2473
  430MOL0     H56709   2.259   1.791   6.601  2.2387  1.7228  2.8522
  430MOL0     H56710   2.170   1.660   6.643  0.1169 -0.5344 -0.2996
  430MOL0     H56711   2.415   1.779   6.803  0.5082 -0.9965  1.0624
  430MOL0     H56712   2.361   1.611   6.820 -0.4537 -1.6148 -2.7139
  430MOL0     H56713   2.097   1.595   6.896  2.8396 -1.1630  0.9149
  430MOL0     H56714   1.833   1.856   7.031 -0.0329  0.5467 -0.2724
  430MOL0     H56715   1.860   1.692   7.072  0.0285  1.0700  0.3226
  430MOL0     H56716   1.795   1.623   6.846 -4.4038 -0.6717 -3.2907
  430MOL0     H56717   1.800   1.803   6.796 -3.1481  1.7811  1.3798
  430MOL0     H56718   1.613   1.836   6.946 -0.6098  2.8530 -3.4734
  430MOL0     H56719   1.561   1.753   6.811  1.2219 -0.3878 -1.4075
  430MOL0     H56720   1.499   1.679   7.043 -1.6626  0.2308 -2.0330
  430MOL0     H56721   1.657   1.594   7.050  1.7786  0.3464 -1.0004
  430MOL0     H56722   1.345   1.729   6.897 -2.1076  1.4455 -0.5492
  430MOL0     H56723   1.118   1.715   6.877 -1.3568 -1.5087  0.6067
  430MOL0     H56724   0.715   1.695   6.969 -0.7672 -3.1153  1.3821
  430MOL0     H56725   0.483   1.751   6.903 -0.8235 -1.7801 -0.4608
  430MOL0     H56726   0.256   1.795   6.824 -2.9827  1.0651 -0.9879
  430MOL0     H56727   0.265   1.619   6.846 -2.6083 -0.5562 -0.2737
  430MOL0     H56728   0.051   1.708   6.787 -1.8541  3.1042 -2.0705
  430MOL0     H56729   0.118   1.597   6.663 -1.5822 -0.8582  1.0249
  430MOL0     H56730   0.185   1.789   6.519 -0.3849 -1.6069  0.3385
  430MOL0     H56731   0.120   1.902   6.634 -1.6976  1.7133 -1.7264
  430MOL0     H56732  -0.002   1.802   6.412  0.9545  1.1213  0.6611
  430MOL0     H56733  -0.081   1.702   6.532 -0.4054 -0.6693 -2.0752
  430MOL0     H56734  -0.208   1.910   6.505  0.7336 -0.5253 -1.4875
  430MOL0     H56735  -0.068   2.012   6.548 -2.7318  2.8506  1.0687
  430MOL0     H56736  -0.062   1.935   6.767  0.6834 -1.1377  0.9583
  430MOL0     H56737  -0.172   1.804   6.746  3.3253 -0.1849  2.3157
  430MOL0     H56738  -0.236   2.118   6.726  2.8831 -0.5038 -0.9332
  430MOL0     H56739  -0.346   2.000   6.689 -0.1502 -2.5512  1.1764
  430MOL0     H56740  -0.225   2.033   6.960 -0.5452  1.4300  1.5737
  430MOL0     H56741  -0.343   1.902   6.916  0.0306 -0.0824  1.3559
  430MOL0     H56742   0.545   1.617   6.505  0.3566 -2.1692 -0.0066
  430MOL0     H56743   0.784   1.594   6.545  3.1528 -1.4715  1.6955
  430MOL0     H56744   1.145   1.314   6.749  0.7596 -0.3832 -0.5445
  430MOL0     H56745   1.390   1.316   6.811 -0.6394 -0.7142 -1.0102
  430MOL0     H56746   3.184   1.944   6.478  0.4712  0.2340  0.3620
  430MOL0     H56747   3.116   2.185   6.404 -0.2070 -0.6211  0.2898
  430MOL0     H56748   3.059   2.398   5.886 -0.8488 -0.3606 -1.5325
  430MOL0     H56749   3.018   2.624   5.817  1.4381  0.3057  0.4938
  430MOL0     H56750   3.003   2.844   5.812 -0.3029 -1.0112 -1.2367
  430MOL0     H56751   2.906   2.982   5.834  2.8315 -0.0997  0.3314
  430MOL0     H56752   2.843   2.863   5.630  1.7683  1.3407  1.1788
  430MOL0     H56753   2.829   2.719   5.716  1.3400 -0.2769  2.2987
  430MOL0     H56754   2.627   2.847   5.856  2.2299  0.3437  0.8872
  430MOL0     H56755   2.615   2.764   5.698  2.4367 -1.1990  0.0305
  430MOL0     H56756   2.652   2.999   5.598  1.2664 -4.8753 -1.3440
  430MOL0     H56757   2.505   2.986   5.698  0.2609  0.6043 -0.0732
  430MOL0     H56758   2.667   3.255   5.937  2.4578 -0.2855  2.2355
  430MOL0     H56759   2.761   2.672   6.169 -2.4149 -1.2150 -0.9580
  430MOL0     H56760   2.817   2.461   6.241  1.7883  1.4474  1.4615
  431MOL0     O56761   2.616   4.114   8.038  0.3415  0.2479 -0.0402
  431MOL0     C56762   2.560   4.199   7.965 -0.4601 -0.6852 -0.1382
  431MOL0     O56763   2.617   4.275   7.871 -1.1993  0.3692  0.2013
  431MOL0     C56764   2.749   4.263   7.826  0.9134  0.1604 -0.3626
  431MOL0     C56765   2.783   4.289   7.688  0.2431 -0.8073 -0.6874
  431MOL0     C56766   2.918   4.271   7.652  0.6010  0.7141 -0.0525
  431MOL0     C56767   3.014   4.235   7.740 -0.2229  0.6553  0.0504
  431MOL0     O56768   3.138   4.211   7.678  0.1917 -0.0880 -0.4683
  431MOL0     C56769   3.236   4.133   7.755  0.3504 -0.5665  0.2129
  431MOL0     C56770   3.335   4.074   7.661 -0.6402 -0.1859 -0.1656
  431MOL0     C56771   3.443   4.177   7.611 -0.3545 -0.3047 -0.4986
  431MOL0     C56772   3.526   4.128   7.489 -0.7431  0.3470  0.0888
  431MOL0     C56773   3.640   4.029   7.526 -0.3927  0.2375  0.1163
  431MOL0     C56774   3.740   3.992   7.407  0.5777  0.4101  0.5395
  431MOL0     C56775   3.668   3.934   7.280 -0.7564  0.2002  1.0960
  431MOL0     C56776   3.612   3.790   7.304 -0.3290  0.8932 -0.0985
  431MOL0     N56777   3.461   3.787   7.307 -0.3799 -0.2256 -0.4940
  431MOL0     C56778   3.384   3.858   7.220 -0.2290  0.4663  0.1141
  431MOL0     C56779   3.264   3.866   7.279  0.5436 -0.3269  0.0310
  431MOL0     C56780   3.140   3.910   7.198  0.1561 -0.1675 -0.0868
  431MOL0     C56781   3.096   4.054   7.213 -0.4519  0.5479  0.6833
  431MOL0     C56782   3.038   4.078   7.356 -0.3690 -0.0415 -0.6490
  431MOL0     C56783   2.918   4.003   7.420  0.1313  1.1545  0.4022
  431MOL0     O56784   2.818   4.003   7.311 -0.3696 -0.4307  0.0691
  431MOL0     C56785   2.693   3.987   7.354  0.3024 -0.5837 -0.0215
  431MOL0     C56786   2.627   4.075   7.444  0.7768  1.4896 -0.2351
  431MOL0     C56787   2.491   4.066   7.469 -0.4514 -1.1858  0.2370
  431MOL0     C56788   2.410   3.969   7.403 -0.5366  0.0726  0.6800
  431MOL0     C56789   2.262   3.958   7.428 -0.6006 -0.6057  0.5741
  431MOL0     O56790   2.202   4.064   7.511 -0.1392 -0.0372  0.5279
  431MOL0     C56791   2.062   4.072   7.518 -0.3311 -0.1496  0.2169
  431MOL0     C56792   1.986   4.145   7.424 -1.2167  0.4550  0.2260
  431MOL0     C56793   1.843   4.158   7.445 -0.3915  0.6094 -0.2417
  431MOL0     C56794   1.789   4.111   7.568 -0.3652  0.5810  0.5567
  431MOL0     O56795   1.655   4.102   7.605  0.6556  0.1286  0.2042
  431MOL0     C56796   1.552   4.151   7.520 -0.2204  0.0624  0.3305
  431MOL0     C56797   1.434   4.198   7.604 -0.4703 -0.0922  0.3085
  431MOL0     C56798   1.325   4.265   7.511  0.5979  0.0561 -1.0717
  431MOL0     C56799   1.215   4.328   7.593  0.4947 -0.0405 -0.7060
  431MOL0     C56800   1.097   4.372   7.504 -0.5313  1.4058 -0.6909
  431MOL0     C56801   0.961   4.369   7.576  0.6611  0.9605 -0.0029
  431MOL0     C56802   0.952   4.432   7.712  0.5927 -0.5016  0.3383
  431MOL0     C56803   0.811   4.416   7.783 -0.4317  0.4838 -0.0689
  431MOL0    Cl56804   0.840   4.286   7.912 -0.0837  0.1209  0.0072
  431MOL0     C56805   1.873   4.059   7.673  0.2420  0.4383  0.2222
  431MOL0     C56806   2.009   4.045   7.648  0.8669 -0.1243 -0.7689
  431MOL0     O56807   2.197   3.877   7.360 -0.2737 -0.2558  0.0509
  431MOL0     C56808   2.479   3.878   7.311 -0.5907 -0.8965  0.2338
  431MOL0     C56809   2.616   3.894   7.290  0.1924  0.6886 -0.1847
  431MOL0     N56810   3.265   3.810   7.398 -0.0668  0.2734 -0.7553
  431MOL0     N56811   3.384   3.756   7.408  0.3829 -0.7013  0.8950
  431MOL0     C56812   2.984   4.219   7.873 -1.2447  0.3026 -0.6350
  431MOL0     C56813   2.852   4.239   7.918 -0.3321  0.1990  0.6248
  431MOL0     C56814   2.416   4.229   7.994  0.3903 -1.0750  0.1012
  431MOL0     C56815   2.358   4.181   8.106  0.7439  0.5277 -0.1220
  431MOL0     C56816   2.226   4.214   8.148  0.1254  0.4143 -0.0230
  431MOL0     C56817   2.146   4.300   8.066  0.7366  0.6081 -0.8617
  431MOL0     O56818   2.021   4.312   8.111  0.7542 -0.6291  0.0781
  431MOL0     C56819   1.917   4.375   8.023 -0.4193  0.2512 -0.3510
  431MOL0     C56820   1.837   4.261   7.961 -0.5173  0.0249 -0.0757
  431MOL0     C56821   1.708   4.326   7.886 -0.4224  0.4983 -0.0084
  431MOL0     C56822   1.603   4.369   7.993 -0.7229  0.2400  0.6423
  431MOL0     C56823   1.496   4.432   7.915  0.3442 -0.3533  0.3637
  431MOL0     C56824   1.396   4.481   7.859  0.5685 -0.6707 -0.6887
  431MOL0     C56825   2.207   4.353   7.941 -0.5448  0.0523 -0.3871
  431MOL0     C56826   2.343   4.310   7.908  0.3736  0.0830 -0.3379
  431MOL0     H56827   2.700   4.318   7.624 -2.1065 -1.5695  1.8081
  431MOL0     H56828   2.959   4.289   7.553 -0.4885 -0.9746 -0.8708
  431MOL0     H56829   3.181   4.050   7.798  0.0134 -1.1476 -1.2838
  431MOL0     H56830   3.285   4.197   7.829 -0.4494  0.4686 -0.1313
  431MOL0     H56831   3.286   4.019   7.580 -0.7470 -0.2507 -0.0563
  431MOL0     H56832   3.391   3.991   7.706 -0.6087  0.1221  0.3643
  431MOL0     H56833   3.508   4.188   7.698 -0.1305 -1.6230 -0.4633
  431MOL0     H56834   3.399   4.270   7.576  0.3928  0.3866  0.3689
  431MOL0     H56835   3.468   4.082   7.409  2.7049  1.2118 -3.1692
  431MOL0     H56836   3.588   4.197   7.431  0.2071 -0.6053 -0.0634
  431MOL0     H56837   3.593   3.937   7.561 -0.6101  0.4590  0.4118
  431MOL0     H56838   3.696   4.078   7.606  3.0446 -1.2438 -1.2117
  431MOL0     H56839   3.811   3.918   7.446 -0.0825 -2.4980 -3.2106
  431MOL0     H56840   3.797   4.078   7.370  2.4965 -1.6349 -1.5852
  431MOL0     H56841   3.601   4.013   7.244 -0.1945  0.8637  1.4783
  431MOL0     H56842   3.744   3.932   7.202 -0.8279  0.1741  1.0266
  431MOL0     H56843   3.652   3.750   7.398  1.4193  1.8188 -0.3979
  431MOL0     H56844   3.636   3.721   7.223 -0.8037  1.0462 -0.3760
  431MOL0     H56845   3.410   3.898   7.122 -0.3661 -2.7031 -1.3353
  431MOL0     H56846   3.053   3.847   7.220 -0.9166  0.9038 -1.0794
  431MOL0     H56847   3.165   3.890   7.093  0.7655  0.5513 -0.0834
  431MOL0     H56848   3.031   4.080   7.129  1.1206  1.4408 -0.3123
  431MOL0     H56849   3.186   4.116   7.202  0.4799 -0.7029  0.9657
  431MOL0     H56850   3.114   4.068   7.435 -1.0950  5.6706  1.2515
  431MOL0     H56851   3.008   4.184   7.358  0.0180  0.0975 -1.7033
  431MOL0     H56852   2.896   4.054   7.514  1.0767  1.4854  0.4550
  431MOL0     H56853   2.947   3.900   7.443 -1.9103  0.8164  1.7240
  431MOL0     H56854   2.687   4.154   7.487  0.5658  3.0616 -2.6444
  431MOL0     H56855   2.446   4.135   7.540  1.6868  1.4741 -0.7968
  431MOL0     H56856   2.034   4.164   7.329  1.0505  1.6617  1.5366
  431MOL0     H56857   1.773   4.184   7.366 -1.6087 -0.3361  0.4758
  431MOL0     H56858   1.503   4.082   7.452 -1.6807  0.7069  0.6830
  431MOL0     H56859   1.600   4.222   7.452  2.4411 -2.1304 -0.2759
  431MOL0     H56860   1.472   4.263   7.683 -0.1063  0.5321 -0.3658
  431MOL0     H56861   1.386   4.108   7.645  0.2662  0.2146  1.9079
  431MOL0     H56862   1.292   4.182   7.448  4.5342 -2.2230 -0.4861
  431MOL0     H56863   1.369   4.340   7.444 -0.9231  0.2940 -1.8619
  431MOL0     H56864   1.189   4.268   7.681  3.3335  0.0067  0.2775
  431MOL0     H56865   1.248   4.421   7.640  0.0074 -0.7169  1.0627
  431MOL0     H56866   1.090   4.302   7.420  0.1409  2.0782 -1.3379
  431MOL0     H56867   1.101   4.476   7.468  1.6428  1.2504 -1.0418
  431MOL0     H56868   0.947   4.260   7.583  2.9431  0.3119 -3.1221
  431MOL0     H56869   0.889   4.413   7.508  0.0418 -0.2546 -0.1595
  431MOL0     H56870   1.029   4.398   7.781  0.5109  0.6297  1.0139
  431MOL0     H56871   0.966   4.540   7.696  1.6052 -0.5358  0.9347
  431MOL0     H56872   0.733   4.387   7.712 -1.9798 -1.0905  2.1205
  431MOL0     H56873   0.775   4.504   7.838  2.4049  0.4562  2.0528
  431MOL0     H56874   1.823   4.034   7.765 -0.3506 -0.3156 -0.2984
  431MOL0     H56875   2.072   4.014   7.730 -0.7948 -4.7073 -0.9706
  431MOL0     H56876   2.430   3.791   7.270  1.3297 -1.8197 -0.2321
  431MOL0     H56877   2.654   3.810   7.232 -3.5259 -2.3229  1.2757
  431MOL0     H56878   3.067   4.193   7.937 -1.3958 -0.5764 -0.7843
  431MOL0     H56879   2.826   4.232   8.024  1.3437  4.9543  1.6271
  431MOL0     H56880   2.421   4.116   8.166 -1.4706 -1.7496 -0.0771
  431MOL0     H56881   2.184   4.166   8.236  3.3714 -2.9162 -0.0926
  431MOL0     H56882   1.967   4.432   7.944  0.5795  3.9430  2.6498
  431MOL0     H56883   1.856   4.451   8.073 -0.2439  0.3796 -0.3323
  431MOL0     H56884   1.899   4.208   7.888 -0.7838  0.2728 -0.4895
  431MOL0     H56885   1.804   4.190   8.038 -1.5870  0.7293  0.1342
  431MOL0     H56886   1.655   4.263   7.815  0.5701 -0.6257  0.2193
  431MOL0     H56887   1.741   4.414   7.829 -0.9984 -0.9672 -2.8001
  431MOL0     H56888   1.560   4.276   8.031 -0.7618 -0.3128 -0.7129
  431MOL0     H56889   1.640   4.438   8.069  1.1696  0.1759 -0.1512
  431MOL0     H56890   1.316   4.512   7.795  0.9045  1.1126 -0.2881
  431MOL0     H56891   2.161   4.425   7.874  1.2830  1.9152  0.2313
  431MOL0     H56892   2.391   4.348   7.818  6.0067  0.8083  2.5547
  432MOL0     O56893   3.988   6.165   1.340 -0.3739  0.0533  0.1452
  432MOL0     C56894   4.047   6.057   1.359 -0.3710 -0.1015 -0.0914
  432MOL0     O56895   3.993   5.938   1.404  0.1797 -0.1171 -0.2047
  432MOL0     C56896   3.857   5.916   1.396 -0.8377  0.2917  0.9928
  432MOL0     C56897   3.820   5.811   1.479 -0.3331 -1.0100  0.7029
  432MOL0     C56898   3.687   5.769   1.479 -0.2852  0.0523 -0.2445
  432MOL0     C56899   3.593   5.834   1.390  0.6969 -0.0899 -0.9954
  432MOL0     O56900   3.453   5.813   1.391  0.0194  0.0410 -0.1788
  432MOL0     C56901   3.393   5.697   1.458 -0.5453 -0.0106  0.4067
  432MOL0     C56902   3.240   5.710   1.472 -0.0047 -0.5505 -0.1157
  432MOL0     C56903   3.194   5.828   1.571  0.7226  0.5917  0.7565
  432MOL0     C56904   3.042   5.834   1.589  0.5358  0.9372 -0.3330
  432MOL0     C56905   3.002   5.961   1.657  0.4157 -0.2103 -0.6754
  432MOL0     C56906   2.851   5.984   1.687 -1.0734  0.7187  0.0794
  432MOL0     C56907   2.819   5.915   1.813 -0.0876 -0.0503 -0.4496
  432MOL0     C56908   2.679   5.952   1.857 -0.7282 -0.3599  0.1594
  432MOL0     N56909   2.568   5.948   1.758 -0.2770  0.4593  0.6984
  432MOL0     C56910   2.468   5.854   1.745  0.4426  0.2227  0.1491
  432MOL0     C56911   2.386   5.899   1.648  0.3592  0.7549 -0.7216
  432MOL0     C56912   2.277   5.815   1.595  0.6293 -0.0474  0.1475
  432MOL0     C56913   2.164   5.779   1.703 -0.0761 -0.0703  0.2464
  432MOL0     C56914   2.119   5.907   1.776  0.0440 -0.5016 -0.0707
  432MOL0     C56915   1.978   5.890   1.829 -0.0802 -0.2901 -0.1364
  432MOL0     O56916   1.963   5.787   1.925 -0.3204  0.1622 -0.1566
  432MOL0     C56917   1.870   5.688   1.932  0.0457  0.3016 -0.2968
  432MOL0     C56918   1.730   5.704   1.920  1.6976 -0.3695  0.3739
  432MOL0     C56919   1.637   5.600   1.950 -0.6508 -0.2008 -0.2512
  432MOL0     C56920   1.682   5.475   1.998 -0.4071 -0.9070  0.9709
  432MOL0     C56921   1.585   5.379   2.041  1.2435  0.1521  0.1448
  432MOL0     O56922   1.455   5.401   2.019 -0.8236  0.4220  0.3704
  432MOL0     C56923   1.355   5.307   2.040  0.1007  0.0670  0.1791
  432MOL0     C56924   1.366   5.168   2.079 -0.2020  0.1900  0.3789
  432MOL0     C56925   1.247   5.100   2.105  0.6207 -0.1857 -0.3588
  432MOL0     C56926   1.125   5.157   2.095 -0.1088  0.5046 -0.1401
  432MOL0     O56927   1.004   5.101   2.136 -0.4193 -0.3343 -0.0117
  432MOL0     C56928   0.990   4.963   2.150  0.7265 -0.0787 -0.0274
  432MOL0     C56929   0.840   4.940   2.171  0.2051 -0.3267  0.5233
  432MOL0     C56930   0.802   4.799   2.233 -0.1714 -0.2530  0.3422
  432MOL0     C56931   0.652   4.768   2.242  0.0318  0.7015 -0.3516
  432MOL0     C56932   0.625   4.616   2.260 -0.4084 -0.4301 -0.5616
  432MOL0     C56933   0.491   4.566   2.211 -0.7065  0.0034 -0.3203
  432MOL0     C56934   0.362   4.639   2.268 -0.0667  0.2584  0.2952
  432MOL0     C56935   0.228   4.575   2.224 -0.1027 -0.2704  0.6800
  432MOL0    Cl56936   0.169   4.660   2.070 -0.2592  0.1777 -1.0113
  432MOL0     C56937   1.122   5.288   2.049  0.4712 -0.7371  0.0602
  432MOL0     C56938   1.230   5.368   2.030  0.2702 -0.3415 -0.2596
  432MOL0     O56939   1.628   5.296   2.125 -0.0340 -0.2591 -0.1839
  432MOL0     C56940   1.822   5.463   2.000  0.1872  0.1038  0.0985
  432MOL0     C56941   1.916   5.569   1.982  0.4309 -0.5072  0.3505
  432MOL0     N56942   2.434   6.022   1.604 -0.4799 -0.9680  0.3829
  432MOL0     N56943   2.534   6.049   1.670 -0.0246 -0.1606 -0.1129
  432MOL0     C56944   3.632   5.936   1.299 -0.3191  0.1054 -0.1324
  432MOL0     C56945   3.761   5.967   1.300 -0.4127 -0.4427  0.2695
  432MOL0     C56946   4.194   6.065   1.338  0.0025  0.0031 -0.4029
  432MOL0     C56947   4.263   6.188   1.320 -0.0087 -0.6768 -0.2569
  432MOL0     C56948   4.399   6.185   1.308  1.0132  0.2705 -0.4563
  432MOL0     C56949   4.475   6.070   1.343  0.7891 -0.3088  0.8925
  432MOL0     O56950   4.616   6.075   1.336 -0.0476  0.0040 -0.4067
  432MOL0     C56951   4.686   5.976   1.253 -0.2795  0.0627  0.1382
  432MOL0     C56952   4.815   6.032   1.203  0.1736  0.6258  0.3583
  432MOL0     C56953   4.893   5.932   1.119  0.1033 -0.0061  0.6306
  432MOL0     C56954   5.040   5.947   1.137  0.2199 -0.7207  0.2583
  432MOL0     C56955   5.097   6.082   1.094  0.1957 -0.4834  1.0176
  432MOL0     C56956   5.148   6.189   1.056  0.2435  0.3364  0.4255
  432MOL0     C56957   4.407   5.951   1.368  0.4622 -0.1682  0.2789
  432MOL0     C56958   4.268   5.953   1.365  0.4119 -0.1512 -0.5783
  432MOL0     H56959   3.894   5.769   1.546  1.7720  2.1512  0.5910
  432MOL0     H56960   3.655   5.688   1.544  1.1226  0.4590  1.0125
  432MOL0     H56961   3.421   5.686   1.563  0.3666  1.3681  0.3380
  432MOL0     H56962   3.413   5.610   1.395 -1.2712 -0.1374  0.3399
  432MOL0     H56963   3.190   5.614   1.485  2.6531 -2.0023 -0.0071
  432MOL0     H56964   3.196   5.749   1.380 -2.7645 -0.0463  1.3071
  432MOL0     H56965   3.232   5.921   1.527  0.8871 -0.0864 -0.5954
  432MOL0     H56966   3.239   5.809   1.668 -0.2215 -0.3031  1.0415
  432MOL0     H56967   2.981   5.827   1.499 -3.7455 -0.4781  2.3612
  432MOL0     H56968   3.011   5.746   1.646  0.1297  0.4264 -1.3255
  432MOL0     H56969   3.031   6.036   1.583  1.7695  0.3603  0.3773
  432MOL0     H56970   3.059   5.969   1.750 -0.7294  0.1060  0.0228
  432MOL0     H56971   2.778   5.944   1.615 -1.4218  2.6298 -0.7012
  432MOL0     H56972   2.830   6.091   1.693 -0.5614  0.9627 -1.6786
  432MOL0     H56973   2.840   5.808   1.811 -2.0142 -0.4739 -0.1411
  432MOL0     H56974   2.888   5.951   1.889  1.4398  2.0949 -2.7129
  432MOL0     H56975   2.677   6.046   1.913 -2.0521  1.6647 -3.0090
  432MOL0     H56976   2.657   5.875   1.932  1.5063 -1.3579 -0.1403
  432MOL0     H56977   2.450   5.765   1.805 -1.8586 -1.2949 -2.5224
  432MOL0     H56978   2.320   5.722   1.558  1.3396 -1.2852  3.6361
  432MOL0     H56979   2.233   5.884   1.523 -0.6858 -0.0067  0.9489
  432MOL0     H56980   2.199   5.701   1.771 -1.0457 -1.2611 -0.5887
  432MOL0     H56981   2.083   5.732   1.646  0.1468  0.5143 -0.5757
  432MOL0     H56982   2.191   5.903   1.859  1.8734 -3.0779 -1.6243
  432MOL0     H56983   2.150   5.995   1.719  3.6222 -0.2662  1.8898
  432MOL0     H56984   1.914   5.888   1.741  2.2700 -1.6632 -1.9499
  432MOL0     H56985   1.943   5.980   1.881 -1.1174 -2.2642  2.8108
  432MOL0     H56986   1.671   5.793   1.898 -0.5320 -2.0341 -0.8210
  432MOL0     H56987   1.531   5.619   1.936 -0.0890  3.2740 -0.7323
  432MOL0     H56988   1.464   5.124   2.091 -0.2872 -0.7504 -1.8971
  432MOL0     H56989   1.251   4.999   2.145  0.5098  1.2682  3.7654
  432MOL0     H56990   1.042   4.937   2.242 -1.0991 -0.4729  0.9472
  432MOL0     H56991   1.036   4.912   2.066  0.6012  0.1664 -0.2486
  432MOL0     H56992   0.794   4.931   2.072 -0.6236  1.9827  0.6292
  432MOL0     H56993   0.790   5.022   2.224  3.3118  0.7799  2.0229
  432MOL0     H56994   0.839   4.789   2.335 -1.9256 -0.9509  0.9295
  432MOL0     H56995   0.848   4.722   2.170 -0.1320  0.6016 -0.7217
  432MOL0     H56996   0.612   4.820   2.330 -0.4972 -1.9401  1.0826
  432MOL0     H56997   0.594   4.802   2.156 -4.2007 -0.4989  1.6903
  432MOL0     H56998   0.653   4.586   2.362  2.0660  1.8458 -0.4418
  432MOL0     H56999   0.700   4.562   2.201  1.1673 -0.0671  1.0091
  432MOL0     H57000   0.484   4.464   2.250 -0.7170  1.3081  3.4717
  432MOL0     H57001   0.481   4.579   2.102 -0.8078  1.7169 -0.1241
  432MOL0     H57002   0.377   4.636   2.376 -0.3351 -0.0921  0.3249
  432MOL0     H57003   0.368   4.744   2.238 -0.3076 -0.1337 -1.2308
  432MOL0     H57004   0.148   4.593   2.296  0.5984  1.8201  1.0073
  432MOL0     H57005   0.249   4.468   2.212  1.2740  0.0018  0.5281
  432MOL0     H57006   1.031   5.346   2.040  1.1421  0.1824 -1.1003
  432MOL0     H57007   1.223   5.475   2.013  1.6070  0.3174  2.6730
  432MOL0     H57008   1.844   5.359   2.023 -0.3097  0.3265  1.6646
  432MOL0     H57009   2.021   5.546   1.993 -0.0491 -3.1846  0.0125
  432MOL0     H57010   3.555   5.972   1.231 -0.0197 -0.5702 -0.8390
  432MOL0     H57011   3.804   6.039   1.230  0.9032 -1.8097 -0.3950
  432MOL0     H57012   4.205   6.279   1.320 -1.5798 -1.6119  1.2891
  432MOL0     H57013   4.451   6.280   1.294  0.6943  0.5783  0.4411
  432MOL0     H57014   4.623   5.966   1.164  0.9793  0.4528 -0.8348
  432MOL0     H57015   4.702   5.882   1.306  2.6194 -0.2560 -1.1369
  432MOL0     H57016   4.786   6.120   1.144  1.0509  0.6131 -0.1037
  432MOL0     H57017   4.875   6.061   1.290  0.6921 -0.0107  0.2241
  432MOL0     H57018   4.874   5.959   1.014 -2.5877  1.4280  1.3948
  432MOL0     H57019   4.864   5.829   1.141 -1.3724  0.2203 -0.1456
  432MOL0     H57020   5.079   5.921   1.236  0.9315 -0.5505  0.0310
  432MOL0     H57021   5.086   5.870   1.075  0.0176 -2.2689  1.9383
  432MOL0     H57022   5.193   6.268   0.999  2.5802 -1.8585 -1.0527
  432MOL0     H57023   4.455   5.856   1.390 -1.8841 -1.5595 -0.3605
  432MOL0     H57024   4.223   5.869   1.416  1.2132  0.2749  0.8879
  433MOL0     O57025   3.928   5.839   5.703 -0.0461 -0.0029  0.6745
  433MOL0     C57026   3.878   5.888   5.596  0.1032 -0.8830 -0.0407
  433MOL0     O57027   3.953   5.918   5.485  0.8512  0.0186 -0.2806
  433MOL0     C57028   4.084   5.877   5.481  1.1167  0.6272  0.1717
  433MOL0     C57029   4.130   5.749   5.445  0.1191 -0.5799 -0.1099
  433MOL0     C57030   4.263   5.702   5.421 -1.0412 -0.5746 -0.5485
  433MOL0     C57031   4.364   5.790   5.471 -0.5836  0.1028  0.2552
  433MOL0     O57032   4.504   5.751   5.472 -0.3547  0.2040 -0.4182
  433MOL0     C57033   4.596   5.820   5.561 -0.4956 -1.0586  0.9209
  433MOL0     C57034   4.728   5.748   5.595 -0.4749 -0.8007  0.5454
  433MOL0     C57035   4.825   5.735   5.471  0.8010  0.4249  0.1747
  433MOL0     C57036   4.954   5.664   5.505  0.3696  0.3156 -0.7582
  433MOL0     C57037   5.062   5.697   5.417 -0.0625 -0.6720 -0.5692
  433MOL0     C57038   5.192   5.644   5.456 -0.4893  0.0024  0.7933
  433MOL0     C57039   5.294   5.678   5.346 -0.6928 -0.1098 -0.5588
  433MOL0     C57040   5.429   5.608   5.378  0.3602  0.2182  0.4737
  433MOL0     N57041   5.508   5.680   5.481 -0.1482 -0.1995 -0.3740
  433MOL0     C57042   5.600   5.775   5.442  0.5791  0.0138 -0.0070
  433MOL0     C57043   5.645   5.840   5.552 -0.6590  0.3806  0.2916
  433MOL0     C57044   5.746   5.949   5.556  0.0224  0.4551 -0.8604
  433MOL0     C57045   5.879   5.902   5.500 -0.2699 -0.3469 -1.2162
  433MOL0     C57046   5.989   6.002   5.525 -0.2693  0.8315  0.2757
  433MOL0     C57047   6.125   5.952   5.457  0.2536  0.1314 -0.8511
  433MOL0     O57048   6.138   5.983   5.318 -0.1437 -0.5987 -1.1071
  433MOL0     C57049   6.246   5.927   5.259  0.3781  0.2653  0.3863
  433MOL0     C57050   6.271   5.978   5.128 -0.3367  0.6706  0.3358
  433MOL0     C57051   6.384   5.940   5.048 -0.2239 -1.0358  0.1354
  433MOL0     C57052   6.487   5.861   5.101 -0.1756 -0.1951 -0.2941
  433MOL0     C57053   6.597   5.815   5.023 -0.4348  0.2431 -1.0097
  433MOL0     O57054   6.609   5.847   4.883 -0.3309  0.4034 -0.0448
  433MOL0     C57055   6.725   5.837   4.827 -0.2848  0.3014 -0.6377
  433MOL0     C57056   6.771   5.957   4.788 -0.9798 -0.1535  0.0815
  433MOL0     C57057   6.905   5.959   4.724 -0.2085  0.1431 -0.8141
  433MOL0     C57058   6.973   5.838   4.700 -0.0804  0.4686  0.2650
  433MOL0     O57059   7.086   5.818   4.623  0.5172 -0.1284 -0.5602
  433MOL0     C57060   7.177   5.923   4.600 -0.8703  0.1836 -0.9644
  433MOL0     C57061   7.266   5.954   4.726 -0.7095 -0.1367 -0.0832
  433MOL0     C57062   7.402   6.017   4.719  0.2137 -0.1552  0.4322
  433MOL0     C57063   7.416   6.124   4.607  0.9947  0.0638 -0.2629
  433MOL0     C57064   7.557   6.175   4.599 -0.1171  0.3177 -0.9011
  433MOL0     C57065   7.568   6.272   4.484  0.6414 -0.7139 -0.4602
  433MOL0     C57066   7.596   6.186   4.352 -0.0372  0.2016 -1.1879
  433MOL0     C57067   7.516   6.236   4.227 -0.8478  0.2639  0.6394
  433MOL0    Cl57068   7.571   6.155   4.080  0.2237 -0.2436  0.1253
  433MOL0     C57069   6.926   5.720   4.749  1.1610  0.2459 -0.4441
  433MOL0     C57070   6.798   5.720   4.816  0.2454 -0.3718  0.2207
  433MOL0     O57071   6.680   5.750   5.081  0.3612 -0.5311 -0.1867
  433MOL0     C57072   6.459   5.814   5.237 -0.4039 -0.3934 -0.2002
  433MOL0     C57073   6.339   5.839   5.317 -0.0895 -0.3783  0.6575
  433MOL0     N57074   5.583   5.786   5.657  0.9053  0.7647  0.7982
  433MOL0     N57075   5.502   5.691   5.613 -0.1824  0.1968 -0.6312
  433MOL0     C57076   4.322   5.910   5.531  0.0075 -0.8228  0.7179
  433MOL0     C57077   4.188   5.953   5.527 -0.4509 -0.2849 -0.6262
  433MOL0     C57078   3.734   5.918   5.577  0.5146 -0.6785  0.0763
  433MOL0     C57079   3.647   5.875   5.671  0.5718  0.3877  0.9640
  433MOL0     C57080   3.513   5.905   5.650  0.6539  0.0967 -0.7299
  433MOL0     C57081   3.462   5.981   5.547  0.2583 -0.1018  0.1960
  433MOL0     O57082   3.325   6.002   5.528  0.5612 -0.5251 -0.9320
  433MOL0     C57083   3.282   6.143   5.505 -0.7988 -0.1594  0.0540
  433MOL0     C57084   3.234   6.185   5.367  0.0976  0.2844 -0.1550
  433MOL0     C57085   3.110   6.103   5.325  0.1087 -0.1578 -0.1995
  433MOL0     C57086   2.997   6.193   5.273  0.5519 -0.7236 -0.9373
  433MOL0     C57087   2.866   6.131   5.246 -0.2849 -0.0839  0.7149
  433MOL0     C57088   2.759   6.080   5.228 -0.1566  0.3430 -0.1678
  433MOL0     C57089   3.561   6.028   5.461  0.1145 -0.0056  0.4649
  433MOL0     C57090   3.695   6.001   5.474  0.5439 -0.0105 -0.3874
  433MOL0     H57091   4.047   5.681   5.429 -1.0600  0.8293 -0.1763
  433MOL0     H57092   4.286   5.602   5.386  1.8180 -2.3479  5.0332
  433MOL0     H57093   4.544   5.838   5.655 -1.1850  4.0731 -0.1311
  433MOL0     H57094   4.621   5.916   5.516 -1.5122 -1.8188 -1.4204
  433MOL0     H57095   4.706   5.656   5.650 -0.9626 -1.9550 -1.4797
  433MOL0     H57096   4.769   5.829   5.656  0.5921 -0.6153 -0.3756
  433MOL0     H57097   4.834   5.836   5.431  0.2410  0.3696 -0.0950
  433MOL0     H57098   4.774   5.677   5.393  0.0903  0.9896  0.2101
  433MOL0     H57099   4.964   5.696   5.610  4.6636  1.3391 -1.2995
  433MOL0     H57100   4.932   5.557   5.501  0.8780  0.1024  1.1244
  433MOL0     H57101   5.074   5.806   5.415 -4.4227  0.0084 -0.7743
  433MOL0     H57102   5.025   5.658   5.321 -0.3167  1.3805 -1.3565
  433MOL0     H57103   5.180   5.535   5.458  0.4769 -0.1700 -1.0310
  433MOL0     H57104   5.216   5.694   5.550  1.7391  2.0130 -0.7527
  433MOL0     H57105   5.253   5.640   5.252 -0.8814  0.8923 -0.9024
  433MOL0     H57106   5.318   5.785   5.340  0.0080 -0.1740  0.7878
  433MOL0     H57107   5.481   5.603   5.282 -0.1881  1.6964  0.0792
  433MOL0     H57108   5.403   5.506   5.409 -1.3002 -0.2744 -2.2537
  433MOL0     H57109   5.627   5.807   5.342  1.0695  1.4428  0.5452
  433MOL0     H57110   5.751   5.984   5.659 -0.9289 -1.1405 -0.2286
  433MOL0     H57111   5.698   6.028   5.498 -2.8269 -1.1579 -0.9039
  433MOL0     H57112   5.870   5.886   5.392 -3.2049  1.0596 -1.2885
  433MOL0     H57113   5.905   5.804   5.541 -1.2485 -0.7006 -1.4154
  433MOL0     H57114   5.963   6.096   5.476  1.6224  1.2904  0.0816
  433MOL0     H57115   5.999   6.023   5.632 -2.2131  3.1454  0.1053
  433MOL0     H57116   6.119   5.843   5.470  0.5703  0.2136  0.0339
  433MOL0     H57117   6.207   5.989   5.518  0.6817 -0.8917 -0.7755
  433MOL0     H57118   6.200   6.044   5.079 -0.2975 -1.5157 -2.9579
  433MOL0     H57119   6.398   5.978   4.947  2.6622  0.6661  1.0551
  433MOL0     H57120   6.711   6.048   4.789  0.7569  1.0407  1.5119
  433MOL0     H57121   6.942   6.050   4.679  0.4791 -0.6966 -1.9958
  433MOL0     H57122   7.127   6.009   4.554 -2.5950 -0.9081 -1.2187
  433MOL0     H57123   7.259   5.891   4.534 -0.2325  4.8673 -2.8166
  433MOL0     H57124   7.277   5.865   4.789  0.2022  2.4012  3.7104
  433MOL0     H57125   7.202   6.027   4.778 -0.6688  0.7293 -1.2094
  433MOL0     H57126   7.474   5.941   4.689  0.6257  0.6974 -0.7852
  433MOL0     H57127   7.449   6.043   4.814  0.7679 -1.5567  0.5674
  433MOL0     H57128   7.381   6.081   4.513  1.3909  0.1794 -0.4652
  433MOL0     H57129   7.353   6.213   4.620 -0.4024 -0.8142 -0.8275
  433MOL0     H57130   7.634   6.097   4.595 -0.3881 -0.2613  2.4449
  433MOL0     H57131   7.562   6.232   4.692 -2.9336 -1.2402  0.2990
  433MOL0     H57132   7.653   6.337   4.507  1.5094 -2.2075  0.7242
  433MOL0     H57133   7.476   6.331   4.477  0.0035 -1.5663  0.5335
  433MOL0     H57134   7.703   6.203   4.333  0.4460  1.0068  1.8394
  433MOL0     H57135   7.586   6.078   4.359 -1.6385  0.3900  0.0433
  433MOL0     H57136   7.527   6.342   4.203 -1.4366 -0.2866 -2.4249
  433MOL0     H57137   7.411   6.209   4.238 -0.4935 -0.9708  1.1548
  433MOL0     H57138   6.982   5.628   4.738 -0.6032 -1.1115  1.1522
  433MOL0     H57139   6.746   5.635   4.860  1.1431 -0.1520  1.7712
  433MOL0     H57140   6.539   5.757   5.283  4.9687  5.2128 -1.4360
  433MOL0     H57141   6.325   5.787   5.411  0.2444 -2.5168 -0.4229
  433MOL0     H57142   4.385   5.978   5.587 -1.0323  1.2225 -0.4806
  433MOL0     H57143   4.174   6.055   5.560  0.6186 -0.7893  1.5930
  433MOL0     H57144   3.674   5.816   5.758 -0.3939 -2.8703 -0.7813
  433MOL0     H57145   3.443   5.870   5.725  1.1001  2.0032  0.6399
  433MOL0     H57146   3.366   6.211   5.524 -1.7163  1.3977 -1.1961
  433MOL0     H57147   3.202   6.154   5.580  0.4480  0.4473  1.3471
  433MOL0     H57148   3.204   6.290   5.356 -1.1402  0.0325  0.6476
  433MOL0     H57149   3.320   6.178   5.299  0.3235 -1.2460  0.2429
  433MOL0     H57150   3.065   6.043   5.405 -2.5643  0.2039 -1.3106
  433MOL0     H57151   3.133   6.030   5.247  0.8458 -0.4382  0.2737
  433MOL0     H57152   2.957   6.259   5.350  1.8266 -0.4480 -0.4942
  433MOL0     H57153   3.034   6.259   5.193  0.2354  0.2452 -0.3093
  433MOL0     H57154   2.666   6.028   5.222 -0.5375  0.9522  0.3272
  433MOL0     H57155   3.529   6.091   5.379  3.3227  0.1249 -0.8363
  433MOL0     H57156   3.771   6.038   5.406  1.1000  1.2120  0.8369
  434MOL0     O57157   1.395   8.695   2.492  0.4477  0.2937  0.8416
  434MOL0     C57158   1.476   8.785   2.480 -0.5013 -0.0276 -0.3516
  434MOL0     O57159   1.452   8.909   2.503 -0.0595  0.0214  0.0872
  434MOL0     C57160   1.325   8.959   2.481 -0.4734 -0.4223  0.1471
  434MOL0     C57161   1.331   9.066   2.387  0.1169 -0.2653  0.4884
  434MOL0     C57162   1.219   9.161   2.384  0.4284 -0.2588  0.0744
  434MOL0     C57163   1.100   9.131   2.455  0.1036  0.0207 -1.0920
  434MOL0     O57164   1.000   9.221   2.483 -0.1318  0.1999 -0.0950
  434MOL0     C57165   1.042   9.352   2.529 -0.7874 -0.6059 -0.1766
  434MOL0     C57166   0.926   9.446   2.549  0.3033  0.1097  0.4979
  434MOL0     C57167   0.815   9.392   2.642 -0.3407 -0.5819  0.2077
  434MOL0     C57168   0.682   9.477   2.611  0.3165 -0.9439  0.3166
  434MOL0     C57169   0.556   9.397   2.615 -0.1333  0.3931  0.4428
  434MOL0     C57170   0.486   9.388   2.754  0.0585 -0.1532  0.5680
  434MOL0     C57171   0.582   9.366   2.880 -0.0845  1.0019 -0.7139
  434MOL0     C57172   0.507   9.355   3.015  0.6186 -0.0547 -0.1503
  434MOL0     N57173   0.487   9.220   3.059  0.1444 -0.1259  0.2726
  434MOL0     C57174   0.384   9.141   3.008 -0.3466  0.4988 -0.5408
  434MOL0     C57175   0.405   9.024   3.067  0.2575  0.2841  0.6964
  434MOL0     C57176   0.341   8.893   3.037 -0.0620 -0.2520  0.3303
  434MOL0     C57177   0.211   8.897   2.964  0.1012 -0.5413  0.1565
  434MOL0     C57178   0.156   8.756   2.931 -0.3206  0.7695  0.3995
  434MOL0     C57179   0.084   8.755   2.796  1.0801 -0.5129  0.0858
  434MOL0     O57180  -0.029   8.843   2.797  0.2717 -0.3316 -0.2053
  434MOL0     C57181  -0.112   8.850   2.690 -0.0448 -0.4087 -0.1964
  434MOL0     C57182  -0.101   8.768   2.576  0.6614 -0.1801 -0.1662
  434MOL0     C57183  -0.171   8.805   2.458  0.8063  0.0330  0.2355
  434MOL0     C57184  -0.258   8.921   2.451  0.2641  0.5653 -0.8032
  434MOL0     C57185  -0.334   8.966   2.328  0.1299  0.4611  0.2255
  434MOL0     O57186  -0.430   9.061   2.347 -0.6903  0.8276 -0.1782
  434MOL0     C57187  -0.526   9.086   2.243  0.4225  0.3886  0.0280
  434MOL0     C57188  -0.571   8.990   2.146 -0.6701 -0.0278  0.8939
  434MOL0     C57189  -0.657   9.025   2.035  0.2951  0.2770 -0.2439
  434MOL0     C57190  -0.695   9.160   2.027  0.2915  0.1363  0.1431
  434MOL0     O57191  -0.785   9.206   1.937 -0.3944  0.3654  0.0989
  434MOL0     C57192  -0.848   9.105   1.858  0.9668 -0.2504  0.4228
  434MOL0     C57193  -0.922   9.158   1.735  0.2046  0.5618 -0.7888
  434MOL0     C57194  -0.833   9.254   1.664 -0.3830  0.4191 -0.3426
  434MOL0     C57195  -0.904   9.352   1.572 -0.0762 -0.2632  0.3211
  434MOL0     C57196  -0.985   9.282   1.453  0.4302  0.1651 -0.9234
  434MOL0     C57197  -1.000   9.372   1.332  0.5374 -0.3826  0.2611
  434MOL0     C57198  -1.049   9.305   1.201 -0.2840  0.8472 -0.4825
  434MOL0     C57199  -0.988   9.356   1.076  0.5041  0.5535 -0.4366
  434MOL0    Cl57200  -0.996   9.531   1.058 -0.0715 -0.1409 -0.4076
  434MOL0     C57201  -0.660   9.244   2.128 -0.8589 -0.1911  0.2243
  434MOL0     C57202  -0.578   9.212   2.230 -0.3968 -0.0604 -0.6777
  434MOL0     O57203  -0.317   8.898   2.230  0.5658  0.0963  0.2014
  434MOL0     C57204  -0.285   8.986   2.574  0.5256  0.6820 -0.0587
  434MOL0     C57205  -0.202   8.961   2.689  0.5108 -0.0992  0.6218
  434MOL0     N57206   0.513   9.036   3.158 -0.5903 -0.3243  0.8497
  434MOL0     N57207   0.565   9.153   3.142  1.3263  0.2103 -0.5002
  434MOL0     C57208   1.096   9.013   2.530 -0.5060  0.0084 -0.0885
  434MOL0     C57209   1.205   8.929   2.549  0.7314  0.6189  0.0484
  434MOL0     C57210   1.612   8.743   2.445  0.9558 -0.2571  0.2326
  434MOL0     C57211   1.691   8.837   2.388 -0.1885  0.4255  0.3978
  434MOL0     C57212   1.822   8.801   2.354 -0.3305 -0.4581 -0.4666
  434MOL0     C57213   1.881   8.678   2.383  0.3286  0.2185  0.5043
  434MOL0     O57214   2.015   8.653   2.377  0.1588 -0.0668 -0.8825
  434MOL0     C57215   2.091   8.745   2.299  0.0113 -1.4520  0.7564
  434MOL0     C57216   2.230   8.691   2.287 -0.1261 -0.4337  0.0541
  434MOL0     C57217   2.322   8.788   2.200 -0.2635  0.4173 -0.4498
  434MOL0     C57218   2.375   8.903   2.290  0.6888 -0.8580  1.0874
  434MOL0     C57219   2.430   9.005   2.190 -0.4672  0.3279  0.5079
  434MOL0     C57220   2.466   9.073   2.095 -0.2739  0.1195  0.3437
  434MOL0     C57221   1.800   8.581   2.438  0.4681 -0.9731 -0.2892
  434MOL0     C57222   1.673   8.618   2.465 -0.1999 -1.0162  1.0300
  434MOL0     H57223   1.419   9.092   2.329 -0.8352 -1.1240 -1.4123
  434MOL0     H57224   1.215   9.249   2.322 -3.1074  0.7525  1.4917
  434MOL0     H57225   1.110   9.400   2.459 -0.2742  2.2451  2.0892
  434MOL0     H57226   1.100   9.344   2.622 -0.3020  0.9955 -0.3116
  434MOL0     H57227   0.888   9.468   2.449 -1.7717  0.9235  1.4064
  434MOL0     H57228   0.964   9.535   2.600  0.8857 -0.0428  0.3370
  434MOL0     H57229   0.838   9.395   2.749  1.2619  0.5080 -0.1251
  434MOL0     H57230   0.790   9.286   2.635 -1.2665 -0.3892  0.4677
  434MOL0     H57231   0.677   9.563   2.678  1.4925  0.9399 -1.8825
  434MOL0     H57232   0.699   9.526   2.515 -1.4176  1.1140  0.9973
  434MOL0     H57233   0.583   9.303   2.566 -2.4463  0.1451 -0.4805
  434MOL0     H57234   0.485   9.443   2.545 -1.1888 -0.6380  0.7908
  434MOL0     H57235   0.401   9.320   2.758  0.2858 -0.4811 -0.0214
  434MOL0     H57236   0.441   9.486   2.769  0.6639 -0.0405  1.7294
  434MOL0     H57237   0.635   9.273   2.860 -0.5216  0.3596  0.9728
  434MOL0     H57238   0.661   9.441   2.895 -0.0574  1.7535 -3.9530
  434MOL0     H57239   0.406   9.395   3.034  0.1392 -2.5819  3.9809
  434MOL0     H57240   0.560   9.422   3.083  0.3473 -0.7884  0.8042
  434MOL0     H57241   0.310   9.160   2.931  0.5631 -0.1892 -1.6188
  434MOL0     H57242   0.328   8.847   3.136 -0.0475 -2.2514 -0.5675
  434MOL0     H57243   0.416   8.833   2.985  2.1192  3.5255 -1.3660
  434MOL0     H57244   0.220   8.959   2.874 -1.6214 -0.4640  0.0034
  434MOL0     H57245   0.136   8.948   3.025  2.0300  1.8235  0.7447
  434MOL0     H57246   0.239   8.684   2.937  0.1577  1.0365 -2.0044
  434MOL0     H57247   0.084   8.730   3.009 -1.3322  1.5571 -0.2575
  434MOL0     H57248   0.041   8.655   2.789  1.7456 -0.6875 -2.0868
  434MOL0     H57249   0.155   8.774   2.715  2.0327 -0.0143  0.9931
  434MOL0     H57250  -0.032   8.685   2.578  0.5533 -0.2699 -0.2040
  434MOL0     H57251  -0.154   8.744   2.370  0.6261 -0.1898  0.3533
  434MOL0     H57252  -0.537   8.888   2.158  1.1959  0.5561  0.9944
  434MOL0     H57253  -0.700   8.945   1.976  2.6385 -0.2655 -1.3271
  434MOL0     H57254  -0.915   9.047   1.922  0.7050  0.1919  0.5563
  434MOL0     H57255  -0.769   9.041   1.817 -0.2351 -1.2419 -0.4024
  434MOL0     H57256  -1.006   9.207   1.786 -0.8447 -3.3240  1.6288
  434MOL0     H57257  -0.965   9.079   1.673 -1.5246  0.4003  0.5156
  434MOL0     H57258  -0.747   9.195   1.630  0.9843  2.0208  0.2096
  434MOL0     H57259  -0.784   9.321   1.735 -4.5941  1.7397  1.6101
  434MOL0     H57260  -0.984   9.413   1.615  1.2780  0.7374  1.5587
  434MOL0     H57261  -0.821   9.407   1.526 -0.3906 -0.0162  0.0426
  434MOL0     H57262  -1.085   9.259   1.491  1.0891 -0.0916  0.7362
  434MOL0     H57263  -0.920   9.199   1.423  0.2168  0.1650 -1.3954
  434MOL0     H57264  -0.900   9.409   1.308  0.9237 -2.3818 -1.6252
  434MOL0     H57265  -1.075   9.448   1.353 -0.1111 -0.7774 -0.5612
  434MOL0     H57266  -1.038   9.196   1.196 -0.3738  0.6783  1.7059
  434MOL0     H57267  -1.156   9.318   1.184 -0.2695 -0.8067 -2.0452
  434MOL0     H57268  -1.052   9.318   0.996  0.0573  2.5990 -1.1093
  434MOL0     H57269  -0.888   9.319   1.053  0.0610 -0.4861 -0.7116
  434MOL0     H57270  -0.712   9.339   2.134 -0.8929 -0.2896  3.9512
  434MOL0     H57271  -0.552   9.277   2.313  0.4663  0.1565 -1.1175
  434MOL0     H57272  -0.366   9.058   2.580 -2.0517 -1.8972 -1.4412
  434MOL0     H57273  -0.202   9.019   2.781 -3.1900  1.5429 -0.2804
  434MOL0     H57274   1.016   9.001   2.602  0.3818  0.7565  1.0457
  434MOL0     H57275   1.211   8.851   2.624 -0.9371  1.1671  0.8099
  434MOL0     H57276   1.674   8.944   2.387  2.2270  0.9666  2.9339
  434MOL0     H57277   1.878   8.887   2.321  0.3409 -0.3371  0.9138
  434MOL0     H57278   2.092   8.842   2.349 -0.3180 -0.2367 -1.4836
  434MOL0     H57279   2.046   8.758   2.200  1.6226 -2.1980 -0.1062
  434MOL0     H57280   2.276   8.691   2.386 -0.8379  3.7224  0.5974
  434MOL0     H57281   2.225   8.594   2.238  0.2613  0.4817 -1.8769
  434MOL0     H57282   2.259   8.814   2.114 -0.8258 -2.1571 -0.9230
  434MOL0     H57283   2.403   8.726   2.160 -2.5305 -3.3440  0.2357
  434MOL0     H57284   2.307   8.960   2.354  1.5607  3.0365 -1.1446
  434MOL0     H57285   2.448   8.858   2.358  2.3515  0.7477  0.4480
  434MOL0     H57286   2.500   9.143   2.022  0.4911  0.6308  1.1604
  434MOL0     H57287   1.830   8.482   2.468  2.1756 -0.9571 -1.7861
  434MOL0     H57288   1.620   8.530   2.501 -2.6045 -1.0236 -2.0888
  435MOL0     O57289   5.247   6.322  11.134 -0.6558  0.2068 -0.4041
  435MOL0     C57290   5.234   6.207  11.169  0.2167  1.0705 -0.2945
  435MOL0     O57291   5.112   6.146  11.216 -0.3879  0.0053 -0.2832
  435MOL0     C57292   4.988   6.201  11.206  0.7049 -0.1710 -0.6635
  435MOL0     C57293   4.954   6.339  11.184  0.2287  0.0585  0.2626
  435MOL0     C57294   4.818   6.364  11.164  0.7576 -0.9598  0.9699
  435MOL0     C57295   4.719   6.275  11.203  0.2932  0.5561 -0.1421
  435MOL0     O57296   4.597   6.335  11.204 -0.1602  0.4256 -0.5672
  435MOL0     C57297   4.481   6.274  11.275  0.3498  0.1142  1.0770
  435MOL0     C57298   4.353   6.335  11.225  0.5934 -0.4621  0.8268
  435MOL0     C57299   4.360   6.484  11.196  1.2934  0.8897 -0.4736
  435MOL0     C57300   4.231   6.542  11.123  0.7585 -0.2993 -0.0660
  435MOL0     C57301   4.229   6.694  11.117 -0.4399  0.5733 -0.4498
  435MOL0     C57302   4.125   6.757  11.030 -0.3713 -0.0580 -0.6587
  435MOL0     C57303   4.110   6.915  11.048 -0.4040  0.0079  0.8342
  435MOL0     C57304   4.013   6.975  10.948 -0.4043 -0.1624  0.8840
  435MOL0     N57305   4.032   7.120  10.924 -0.7177  0.5080 -0.3883
  435MOL0     C57306   4.072   7.215  11.024  0.3361 -0.0425 -0.0218
  435MOL0     C57307   4.092   7.334  10.954  0.3568  0.1695 -0.2512
  435MOL0     C57308   4.129   7.470  11.012  0.2345  0.6193 -0.0557
  435MOL0     C57309   4.032   7.577  11.005 -0.7105 -1.6361 -0.7560
  435MOL0     C57310   3.914   7.576  11.110 -0.1100  0.1633 -0.2153
  435MOL0     C57311   3.947   7.627  11.252 -0.3459  0.2118  0.8285
  435MOL0     O57312   3.956   7.764  11.278  0.2490 -0.9818  0.0631
  435MOL0     C57313   3.845   7.842  11.296  0.2731 -0.4809 -0.9920
  435MOL0     C57314   3.858   7.978  11.343 -0.0473  0.6786 -0.8471
  435MOL0     C57315   3.753   8.064  11.348 -0.3656 -0.4518 -0.4342
  435MOL0     C57316   3.630   8.012  11.311  0.1466 -0.9649 -0.1023
  435MOL0     C57317   3.506   8.089  11.317  0.7178 -0.4650 -0.0473
  435MOL0     O57318   3.398   8.024  11.380  0.4426  0.1708  0.1053
  435MOL0     C57319   3.308   8.091  11.450 -0.3339  0.4418  0.4789
  435MOL0     C57320   3.213   8.153  11.371  0.3267  0.4664 -0.1166
  435MOL0     C57321   3.110   8.216  11.430 -0.2681 -0.5094  0.8516
  435MOL0     C57322   3.089   8.225  11.571 -0.9434 -0.1356  0.3334
  435MOL0     O57323   2.983   8.297  11.622  0.0828  1.1729 -0.8661
  435MOL0     C57324   3.019   8.430  11.676 -0.5168  0.1110 -0.1215
  435MOL0     C57325   2.894   8.510  11.718 -0.8782  0.2420 -0.0903
  435MOL0     C57326   2.812   8.549  11.592 -0.4045  0.7315  0.0715
  435MOL0     C57327   2.680   8.628  11.616 -0.7504  0.9807  0.1100
  435MOL0     C57328   2.570   8.544  11.691 -0.2113 -0.3443  0.1008
  435MOL0     C57329   2.430   8.621  11.667 -0.9343  0.2618 -0.3208
  435MOL0     C57330   2.418   8.743  11.753  0.1013 -0.5819  0.1717
  435MOL0     C57331   2.355   8.864  11.693  0.3240 -0.7065  0.0023
  435MOL0    Cl57332   2.359   9.006  11.795 -0.2367 -0.3130 -0.1619
  435MOL0     C57333   3.196   8.171  11.645  0.0088  0.2559  0.2589
  435MOL0     C57334   3.294   8.087  11.587 -0.1576 -0.5006  0.4586
  435MOL0     O57335   3.514   8.208  11.294 -0.4202  0.1588 -0.0446
  435MOL0     C57336   3.610   7.877  11.282  0.0779 -0.4983  0.4067
  435MOL0     C57337   3.715   7.790  11.270 -0.1630 -0.7381 -0.4146
  435MOL0     N57338   4.084   7.295  10.821 -0.2530  0.1684  0.1755
  435MOL0     N57339   4.047   7.173  10.799 -0.2073  1.0485 -0.1270
  435MOL0     C57340   4.748   6.152  11.240  0.4408 -0.1975 -0.3230
  435MOL0     C57341   4.883   6.110  11.242 -0.0186 -0.1806  0.0947
  435MOL0     C57342   5.350   6.118  11.178  0.9066 -0.2514  0.4353
  435MOL0     C57343   5.479   6.159  11.122  0.6385  0.3918 -0.4106
  435MOL0     C57344   5.585   6.080  11.110 -0.2854  0.3045  0.0683
  435MOL0     C57345   5.573   5.942  11.151  0.6706 -0.2552  0.6049
  435MOL0     O57346   5.665   5.850  11.124  0.6834  0.7300  0.0848
  435MOL0     C57347   5.759   5.832  11.229  0.0166 -0.2134  0.5347
  435MOL0     C57348   5.890   5.780  11.159  0.4402 -0.3020  0.2989
  435MOL0     C57349   5.960   5.898  11.089  0.1985  0.1396 -0.2891
  435MOL0     C57350   6.028   6.005  11.175 -0.4294 -0.1056  0.4655
  435MOL0     C57351   6.095   6.093  11.082  1.0065 -0.1350 -0.1418
  435MOL0     C57352   6.149   6.156  10.997 -1.1465 -0.0467  0.0998
  435MOL0     C57353   5.455   5.894  11.203  0.6567 -0.1692  0.0247
  435MOL0     C57354   5.347   5.983  11.219  0.4916 -0.7540 -0.1310
  435MOL0     H57355   5.030   6.415  11.169  1.5278 -1.6218 -2.7786
  435MOL0     H57356   4.794   6.464  11.131  1.9181 -1.3858 -1.3649
  435MOL0     H57357   4.498   6.304  11.379  1.6080  1.4000  0.5306
  435MOL0     H57358   4.478   6.165  11.273  1.6705  0.0316 -2.5391
  435MOL0     H57359   4.281   6.317  11.306 -0.4966  5.7416  1.7488
  435MOL0     H57360   4.320   6.280  11.137 -0.2084  1.1011  0.1059
  435MOL0     H57361   4.450   6.506  11.137  2.9144  0.2872  1.6493
  435MOL0     H57362   4.379   6.546  11.284 -0.0577  0.6030  0.0289
  435MOL0     H57363   4.242   6.499  11.022  0.7955 -1.6987  0.5115
  435MOL0     H57364   4.142   6.489  11.158  2.0471 -1.5250  1.5334
  435MOL0     H57365   4.323   6.730  11.075  0.0108  0.0477  0.1012
  435MOL0     H57366   4.231   6.729  11.221 -2.5714 -1.4131  0.3340
  435MOL0     H57367   4.033   6.703  11.053  0.5178 -1.5425 -0.4417
  435MOL0     H57368   4.155   6.746  10.925 -2.4276 -1.6332 -1.1313
  435MOL0     H57369   4.072   6.954  11.143  0.7906  1.4962  0.7339
  435MOL0     H57370   4.210   6.955  11.033 -1.0586  2.4483  2.4081
  435MOL0     H57371   3.912   6.974  10.990 -0.4319  1.9674  0.9695
  435MOL0     H57372   4.007   6.930  10.849 -5.5342  2.3240 -0.2579
  435MOL0     H57373   4.072   7.205  11.132  0.0962  1.4643  0.1400
  435MOL0     H57374   4.210   7.495  10.943  0.3357  1.3508  0.3148
  435MOL0     H57375   4.165   7.462  11.115 -0.8807  2.2809  0.5139
  435MOL0     H57376   4.003   7.579  10.900  0.4933 -1.4307 -1.1066
  435MOL0     H57377   4.082   7.674  11.015  0.1255 -1.9881 -1.3611
  435MOL0     H57378   3.835   7.642  11.073  1.1708  1.9630  0.1726
  435MOL0     H57379   3.879   7.474  11.131 -0.8213  0.2235 -1.0471
  435MOL0     H57380   4.043   7.585  11.283 -0.0553  1.0340  1.0775
  435MOL0     H57381   3.871   7.576  11.312 -1.6724 -0.2637 -1.1641
  435MOL0     H57382   3.949   8.019  11.384 -0.9312  0.5856  1.3343
  435MOL0     H57383   3.773   8.169  11.366  0.7569 -0.5960 -0.7640
  435MOL0     H57384   3.217   8.130  11.265  0.6906 -0.9990  0.1895
  435MOL0     H57385   3.040   8.264  11.362  1.9921  1.2402 -0.3851
  435MOL0     H57386   3.087   8.484  11.609  0.4550  2.0074  2.2640
  435MOL0     H57387   3.086   8.407  11.759  0.1742 -0.4307 -0.8017
  435MOL0     H57388   2.930   8.606  11.755 -1.2485  0.0545  0.7760
  435MOL0     H57389   2.839   8.453  11.794 -1.3261 -0.4204 -0.8876
  435MOL0     H57390   2.790   8.463  11.529 -1.5411 -0.5820  2.1441
  435MOL0     H57391   2.881   8.609  11.532 -0.0748 -0.6409 -0.9608
  435MOL0     H57392   2.696   8.726  11.663 -4.7374  1.2609  1.2024
  435MOL0     H57393   2.642   8.649  11.516 -0.7249  0.0691 -0.0934
  435MOL0     H57394   2.585   8.538  11.799  0.2308  0.3539  0.0826
  435MOL0     H57395   2.576   8.441  11.652 -1.2152 -1.0907  1.7932
  435MOL0     H57396   2.349   8.557  11.702 -0.1837 -0.1994  0.6284
  435MOL0     H57397   2.423   8.647  11.561  2.8596  0.9930 -0.5198
  435MOL0     H57398   2.368   8.709  11.845 -1.4855  0.8682 -0.1061
  435MOL0     H57399   2.518   8.776  11.781  0.2596 -0.2500 -0.7741
  435MOL0     H57400   2.254   8.841  11.658  1.0425 -2.0024 -1.3420
  435MOL0     H57401   2.417   8.886  11.606 -3.3195 -1.1746 -2.9628
  435MOL0     H57402   3.184   8.187  11.752 -0.0037  2.9754 -0.0670
  435MOL0     H57403   3.377   8.041  11.640  3.1342  1.0395 -2.8903
  435MOL0     H57404   3.514   7.829  11.268 -0.5684 -0.5089  3.9458
  435MOL0     H57405   3.710   7.685  11.242  1.9473 -1.2672  0.9494
  435MOL0     H57406   4.670   6.080  11.262  0.8594 -0.1075  1.6417
  435MOL0     H57407   4.923   6.014  11.272 -1.5457 -0.8300  0.1092
  435MOL0     H57408   5.492   6.256  11.075  2.6470  0.9397  1.1472
  435MOL0     H57409   5.672   6.101  11.049  3.7166 -3.5485  3.6821
  435MOL0     H57410   5.740   5.761  11.310  1.9245  0.1097  1.3054
  435MOL0     H57411   5.774   5.924  11.286  2.2042 -0.5288  0.5286
  435MOL0     H57412   5.940   5.728  11.241 -1.6142  0.5736  2.1853
  435MOL0     H57413   5.867   5.706  11.082 -5.0593  0.3601  0.9131
  435MOL0     H57414   5.888   5.954  11.028 -0.9107 -0.2658  0.5998
  435MOL0     H57415   6.026   5.848  11.019 -0.6471 -2.8380  0.9073
  435MOL0     H57416   5.956   6.063  11.234  0.0717  0.4293  0.5571
  435MOL0     H57417   6.108   5.959  11.234 -1.2090 -1.7596  0.2972
  435MOL0     H57418   6.196   6.190  10.908 -2.5799 -0.1548 -0.7227
  435MOL0     H57419   5.442   5.789  11.229 -1.5903  0.3975  1.4235
  435MOL0     H57420   5.260   5.934  11.261  0.8531 -1.5659 -0.3154
  436MOL0     O57421   9.438   1.685   8.312 -0.2477  0.0842 -0.0785
  436MOL0     C57422   9.385   1.646   8.207 -1.2761 -0.2003 -0.6551
  436MOL0     O57423   9.447   1.655   8.088 -0.3214 -0.4505 -0.0334
  436MOL0     C57424   9.547   1.749   8.089  0.1389  0.7321  0.7136
  436MOL0     C57425   9.682   1.717   8.068 -0.4982  0.0416 -0.8679
  436MOL0     C57426   9.777   1.823   8.062  0.2588 -0.1746  0.6313
  436MOL0     C57427   9.743   1.954   8.062  0.5183 -0.2271 -0.0784
  436MOL0     O57428   9.836   2.054   8.041 -1.1725  0.2577 -0.2721
  436MOL0     C57429   9.857   2.125   8.161  0.4329 -1.0145 -1.1490
  436MOL0     C57430   9.963   2.232   8.141  0.1220  0.0327  0.5143
  436MOL0     C57431  10.109   2.177   8.135 -1.0043  0.4587 -1.1247
  436MOL0     C57432  10.223   2.282   8.096 -0.3469  0.3885 -0.2416
  436MOL0     C57433  10.344   2.210   8.032 -0.3393  0.3604  0.7307
  436MOL0     C57434  10.452   2.305   7.975  0.4632  0.6065 -0.2603
  436MOL0     C57435  10.560   2.226   7.895  0.3547  0.3047  0.8131
  436MOL0     C57436  10.692   2.302   7.876 -0.3438 -0.7970  0.1574
  436MOL0     N57437  10.752   2.325   8.011 -0.3223 -0.0884 -0.2732
  436MOL0     C57438  10.797   2.235   8.102 -1.1904  0.9968  0.3956
  436MOL0     C57439  10.847   2.305   8.205 -0.2206 -0.3532 -0.0753
  436MOL0     C57440  10.937   2.262   8.318 -0.2954 -0.3174 -0.0919
  436MOL0     C57441  10.874   2.154   8.405 -0.0011 -0.6360  0.4324
  436MOL0     C57442  10.962   2.115   8.528 -0.1855 -0.0982  0.7947
  436MOL0     C57443  10.946   1.961   8.562 -0.3579 -0.1015  0.2494
  436MOL0     O57444  10.812   1.925   8.595 -0.3528  0.0517 -0.5821
  436MOL0     C57445  10.746   1.990   8.699 -0.0708  0.0186 -0.5702
  436MOL0     C57446  10.820   2.046   8.811  0.1611 -0.5273  0.3429
  436MOL0     C57447  10.751   2.107   8.916  0.1673 -0.1874 -0.2668
  436MOL0     C57448  10.606   2.096   8.924 -0.5365 -0.8032 -0.3967
  436MOL0     C57449  10.530   2.162   9.032 -0.2636 -0.0475 -0.1963
  436MOL0     O57450  10.396   2.176   9.009  0.7202  0.6497 -0.8629
  436MOL0     C57451  10.326   2.237   9.111 -0.8197  0.9896  0.1478
  436MOL0     C57452  10.226   2.169   9.176 -0.0297  0.9312 -0.2817
  436MOL0     C57453  10.145   2.239   9.265 -0.0455  0.1590  0.0589
  436MOL0     C57454  10.169   2.382   9.286  0.0140 -0.1164 -0.9805
  436MOL0     O57455  10.085   2.460   9.362 -0.0339 -0.1992  0.5316
  436MOL0     C57456  10.004   2.411   9.458  1.3837  0.1614 -0.8871
  436MOL0     C57457   9.873   2.362   9.401  0.8953 -0.6244  0.1894
  436MOL0     C57458   9.791   2.282   9.507 -0.2340  0.6440  0.1598
  436MOL0     C57459   9.681   2.188   9.448 -0.3624  0.2330  0.6219
  436MOL0     C57460   9.545   2.240   9.391  0.4653 -0.8108 -0.8662
  436MOL0     C57461   9.474   2.338   9.488  0.7735 -0.0452 -0.8123
  436MOL0     C57462   9.325   2.337   9.458 -0.7529  0.0765 -0.0776
  436MOL0     C57463   9.260   2.456   9.517  0.4536  0.6630 -0.5976
  436MOL0    Cl57464   9.229   2.397   9.694 -0.0502  0.0293  0.0972
  436MOL0     C57465  10.283   2.435   9.234  0.0335 -0.1106  0.4531
  436MOL0     C57466  10.353   2.370   9.136  0.0856  0.3647 -0.1973
  436MOL0     O57467  10.594   2.193   9.131 -0.2691  0.3724 -0.3119
  436MOL0     C57468  10.539   2.041   8.814  0.1166  0.5141  0.0372
  436MOL0     C57469  10.611   1.996   8.698 -0.3583 -0.9763  1.3446
  436MOL0     N57470  10.825   2.439   8.178 -0.4908  0.9540  0.1288
  436MOL0     N57471  10.775   2.453   8.062  0.2550 -0.1684  0.0231
  436MOL0     C57472   9.609   1.986   8.095 -0.2291  0.6608 -0.2966
  436MOL0     C57473   9.513   1.883   8.091  0.2026  0.2478  1.0867
  436MOL0     C57474   9.260   1.578   8.223 -0.0696 -0.0171 -0.0364
  436MOL0     C57475   9.185   1.537   8.112  0.8741  0.0503  0.2392
  436MOL0     C57476   9.068   1.461   8.118 -0.0496 -0.3156  0.9878
  436MOL0     C57477   9.010   1.432   8.249 -0.1533 -0.2659 -0.0859
  436MOL0     O57478   8.895   1.355   8.272 -0.2561  1.3571  0.3864
  436MOL0     C57479   8.824   1.303   8.157  0.1351  0.0409  0.1231
  436MOL0     C57480   8.724   1.410   8.092 -0.0781  0.6639  0.2098
  436MOL0     C57481   8.602   1.440   8.180 -0.9253 -0.0295  0.2034
  436MOL0     C57482   8.625   1.532   8.299 -0.2756 -0.4765  0.1425
  436MOL0     C57483   8.673   1.666   8.275 -0.0010  0.1735  1.1341
  436MOL0     C57484   8.690   1.784   8.250 -0.6866  0.1506  0.4797
  436MOL0     C57485   9.077   1.484   8.356  0.1888  0.5533 -0.3296
  436MOL0     C57486   9.200   1.551   8.348  1.4355 -0.2875 -0.1526
  436MOL0     H57487   9.718   1.618   8.044  0.6425  0.8977 -2.9039
  436MOL0     H57488   9.878   1.791   8.038  0.5333  0.5656  0.7404
  436MOL0     H57489   9.897   2.058   8.238  1.6388 -1.6448 -2.2832
  436MOL0     H57490   9.769   2.184   8.186  0.8104  0.2521 -2.5829
  436MOL0     H57491   9.946   2.303   8.222 -0.7640  1.5036 -0.8966
  436MOL0     H57492   9.938   2.289   8.050 -0.8587 -0.4477  0.4729
  436MOL0     H57493  10.107   2.091   8.068 -1.1195 -0.9416  0.5834
  436MOL0     H57494  10.133   2.129   8.230  5.2676 -0.5454 -2.8228
  436MOL0     H57495  10.185   2.345   8.015 -2.1965 -2.1862 -1.5131
  436MOL0     H57496  10.251   2.353   8.175 -1.5965  0.3787  0.2276
  436MOL0     H57497  10.300   2.154   7.949 -2.0816  0.0588  1.8097
  436MOL0     H57498  10.396   2.150   8.107  2.4954  0.0165 -1.3332
  436MOL0     H57499  10.500   2.359   8.056  1.1264  1.6184 -1.2881
  436MOL0     H57500  10.387   2.373   7.919 -1.0830  1.0964  1.9821
  436MOL0     H57501  10.584   2.137   7.954 -0.4300 -2.0369 -2.1313
  436MOL0     H57502  10.520   2.187   7.800  1.1437 -0.0362  0.6038
  436MOL0     H57503  10.686   2.402   7.833  2.0086 -0.7368 -0.1753
  436MOL0     H57504  10.769   2.255   7.814  2.4147  3.8030 -0.4044
  436MOL0     H57505  10.811   2.127   8.108 -0.2596  1.1865  2.8384
  436MOL0     H57506  10.968   2.352   8.371 -1.5506  1.6935 -2.5751
  436MOL0     H57507  11.020   2.213   8.267 -1.0443  0.3151 -1.9813
  436MOL0     H57508  10.856   2.068   8.340 -1.1171  0.6946 -1.0970
  436MOL0     H57509  10.774   2.183   8.438  0.0834 -1.0936  1.1139
  436MOL0     H57510  11.067   2.139   8.507 -0.8434  2.2142 -0.0890
  436MOL0     H57511  10.937   2.181   8.612 -0.0537 -3.2677  3.5434
  436MOL0     H57512  10.989   1.942   8.661 -0.5625  1.1433  0.5924
  436MOL0     H57513  10.997   1.900   8.487 -0.1415  1.3829 -0.8550
  436MOL0     H57514  10.928   2.043   8.821  0.1575 -3.7228  0.4178
  436MOL0     H57515  10.812   2.154   8.992  4.2859 -5.5123  0.2346
  436MOL0     H57516  10.210   2.062   9.165 -0.2464  0.6903  1.9089
  436MOL0     H57517  10.064   2.191   9.319 -1.5123  0.5473 -1.6801
  436MOL0     H57518   9.980   2.484   9.536  0.4373  2.7272 -3.3840
  436MOL0     H57519  10.053   2.326   9.506  1.1132  1.4588  1.8454
  436MOL0     H57520   9.891   2.302   9.312  0.2971  1.7032 -1.6102
  436MOL0     H57521   9.808   2.442   9.362 -0.0288 -0.6248  1.6478
  436MOL0     H57522   9.744   2.353   9.576 -1.2362  1.6598 -1.5020
  436MOL0     H57523   9.869   2.218   9.550  3.5297 -0.0634 -6.4519
  436MOL0     H57524   9.720   2.137   9.361 -1.2226  3.4978 -1.8922
  436MOL0     H57525   9.659   2.119   9.530  0.3871  0.0827  0.7030
  436MOL0     H57526   9.479   2.153   9.382 -0.5813 -0.1795  0.2133
  436MOL0     H57527   9.569   2.288   9.296 -1.2169  1.6684 -0.1342
  436MOL0     H57528   9.521   2.436   9.477  0.6173  0.1118 -0.1400
  436MOL0     H57529   9.491   2.312   9.593 -0.6925  0.6512 -0.3801
  436MOL0     H57530   9.300   2.337   9.352  0.7709  0.1328 -0.4544
  436MOL0     H57531   9.283   2.241   9.491 -0.3718 -0.5556 -1.3662
  436MOL0     H57532   9.163   2.474   9.469  0.2713 -2.0545 -1.4320
  436MOL0     H57533   9.326   2.542   9.524  1.7631 -0.4337  2.5483
  436MOL0     H57534  10.314   2.538   9.249 -1.2166  0.3237  0.1471
  436MOL0     H57535  10.432   2.415   9.076  0.6612 -1.4227 -0.8584
  436MOL0     H57536  10.432   2.020   8.813  0.7287 -4.3569  3.3159
  436MOL0     H57537  10.557   1.945   8.619  2.9093  0.6932 -2.3145
  436MOL0     H57538   9.580   2.090   8.111 -2.4192  0.3688 -1.8758
  436MOL0     H57539   9.405   1.894   8.094  0.1702  0.1031  0.5723
  436MOL0     H57540   9.224   1.560   8.013 -1.9213  0.0434 -0.9502
  436MOL0     H57541   9.024   1.425   8.025 -0.1053 -0.6709  1.1523
  436MOL0     H57542   8.779   1.212   8.195  2.9261 -0.5247  2.4011
  436MOL0     H57543   8.897   1.274   8.080 -0.4155 -0.3682 -0.2465
  436MOL0     H57544   8.764   1.508   8.063  2.8768 -0.8495 -1.2984
  436MOL0     H57545   8.695   1.364   7.998 -2.2402  1.9186  0.2028
  436MOL0     H57546   8.563   1.345   8.218 -0.3354  1.2925  4.6897
  436MOL0     H57547   8.522   1.482   8.119  0.3968  2.8626  0.2841
  436MOL0     H57548   8.526   1.554   8.338 -0.4912  1.5881 -1.4497
  436MOL0     H57549   8.684   1.491   8.383  1.0443 -0.8906 -0.9435
  436MOL0     H57550   8.693   1.890   8.234 -0.2072 -0.2404 -2.7188
  436MOL0     H57551   9.030   1.465   8.452  0.5094  0.2963 -0.2238
  436MOL0     H57552   9.244   1.589   8.439 -0.8431 -0.6943  1.1857
  437MOL0     O57553   9.109   8.342   0.535 -0.3455  0.2172  0.1572
  437MOL0     C57554   9.227   8.316   0.543 -0.6550  0.6254  0.2240
  437MOL0     O57555   9.303   8.261   0.442  0.4634 -0.4547 -0.1380
  437MOL0     C57556   9.247   8.235   0.319 -0.3571 -0.3809  0.1674
  437MOL0     C57557   9.256   8.111   0.256 -0.7354  0.5863  0.0074
  437MOL0     C57558   9.215   8.084   0.119 -0.0339 -0.0868  0.1727
  437MOL0     C57559   9.155   8.191   0.047 -0.0251 -0.6161  0.0278
  437MOL0     O57560   9.136   8.195  -0.088 -0.4775  0.0538 -0.0715
  437MOL0     C57561   9.148   8.081  -0.179  0.2729 -0.3948  0.2620
  437MOL0     C57562   9.107   8.123  -0.316 -0.0896  0.3681 -0.0506
  437MOL0     C57563   9.187   8.242  -0.366  0.3642  0.3118  0.0604
  437MOL0     C57564   9.152   8.304  -0.501  0.0133  1.2232  0.8107
  437MOL0     C57565   9.259   8.400  -0.556  0.3786 -0.6771 -0.2460
  437MOL0     C57566   9.201   8.465  -0.684 -0.5416  0.0740  0.3230
  437MOL0     C57567   9.292   8.584  -0.736 -0.7144  0.0301  0.5507
  437MOL0     C57568   9.225   8.658  -0.854  0.3420  1.1728 -0.2925
  437MOL0     N57569   9.106   8.729  -0.800 -0.1076  0.0743  0.4641
  437MOL0     C57570   8.973   8.693  -0.803 -0.3286 -0.0516 -0.0982
  437MOL0     C57571   8.903   8.789  -0.751  0.2423 -0.7053  0.2409
  437MOL0     C57572   8.749   8.795  -0.753  1.2691 -0.2029 -0.4406
  437MOL0     C57573   8.699   8.899  -0.851  0.6772  0.4292  0.7988
  437MOL0     C57574   8.557   8.867  -0.888  0.5996  0.1234 -0.3675
  437MOL0     C57575   8.481   8.980  -0.958  0.2438  0.4677 -0.2294
  437MOL0     O57576   8.468   9.091  -0.858 -0.4499  0.0002  0.0764
  437MOL0     C57577   8.357   9.172  -0.861  0.0935 -0.1506 -0.1342
  437MOL0     C57578   8.269   9.187  -0.972  0.2787  0.2879 -1.0282
  437MOL0     C57579   8.144   9.247  -0.967 -0.6971 -0.3072 -0.3578
  437MOL0     C57580   8.109   9.316  -0.848 -0.2357 -0.6452  0.5200
  437MOL0     C57581   7.986   9.392  -0.842 -0.4624  0.1580 -0.5313
  437MOL0     O57582   7.934   9.426  -0.719 -0.1821 -0.2489  0.1568
  437MOL0     C57583   7.824   9.514  -0.715 -0.5154 -0.9025 -0.0818
  437MOL0     C57584   7.824   9.640  -0.788  1.1537 -0.4818  0.3778
  437MOL0     C57585   7.714   9.714  -0.798 -0.1517 -0.9010 -0.6957
  437MOL0     C57586   7.594   9.683  -0.732  0.9589  0.3455  0.2335
  437MOL0     O57587   7.479   9.756  -0.738 -0.2121 -0.1273 -0.1315
  437MOL0     C57588   7.476   9.882  -0.806  0.6448  0.7805 -0.1609
  437MOL0     C57589   7.337   9.930  -0.786 -0.5204 -0.1753  0.2548
  437MOL0     C57590   7.295  10.057  -0.853 -0.2409 -0.8657  0.0561
  437MOL0     C57591   7.159  10.094  -0.818  0.3233  0.6713 -0.0863
  437MOL0     C57592   7.118  10.230  -0.873 -1.3637 -1.3782 -1.1187
  437MOL0     C57593   6.974  10.267  -0.844 -0.1610 -0.0562 -0.0418
  437MOL0     C57594   6.945  10.410  -0.888 -0.1018 -0.1381  0.3792
  437MOL0     C57595   6.800  10.451  -0.866 -0.1055 -0.0654  0.1398
  437MOL0    Cl57596   6.770  10.589  -0.982  0.5138 -0.0789  0.1262
  437MOL0     C57597   7.598   9.569  -0.653 -0.1360 -0.7151 -0.1523
  437MOL0     C57598   7.716   9.495  -0.635 -0.0098  0.9136 -1.0981
  437MOL0     O57599   7.948   9.425  -0.955 -0.0843 -0.6219  0.5972
  437MOL0     C57600   8.195   9.315  -0.740  0.0254  0.4494  0.2346
  437MOL0     C57601   8.320   9.250  -0.748 -0.9178 -0.4163  0.4037
  437MOL0     N57602   8.980   8.883  -0.690  0.1289 -0.1383  0.0706
  437MOL0     N57603   9.100   8.845  -0.730 -0.6202 -0.8767 -0.6832
  437MOL0     C57604   9.135   8.317   0.115  0.1135  0.7228  0.5391
  437MOL0     C57605   9.189   8.336   0.243 -0.3558 -0.2769  0.4857
  437MOL0     C57606   9.306   8.349   0.660  0.4562 -1.3455  1.1652
  437MOL0     C57607   9.425   8.273   0.687  0.5238  0.2411 -0.0328
  437MOL0     C57608   9.507   8.292   0.802 -0.0363 -0.4572  0.5783
  437MOL0     C57609   9.469   8.390   0.900  0.2939  0.5796 -0.0909
  437MOL0     O57610   9.533   8.412   1.021  0.9335 -0.4966 -0.2141
  437MOL0     C57611   9.662   8.356   1.039 -0.3867  0.5718 -0.5034
  437MOL0     C57612   9.721   8.410   1.170 -0.5601  0.5063 -0.6097
  437MOL0     C57613   9.855   8.344   1.197 -0.0563 -0.1641  0.8340
  437MOL0     C57614   9.916   8.411   1.323 -0.4028  0.6933 -0.2101
  437MOL0     C57615  10.070   8.375   1.325  0.6533 -1.5767 -0.2771
  437MOL0     C57616  10.184   8.347   1.299  0.4797 -0.1346 -0.1131
  437MOL0     C57617   9.354   8.468   0.869  0.3464  0.6718  0.6120
  437MOL0     C57618   9.272   8.445   0.758  0.0710  0.2039  0.2289
  437MOL0     H57619   9.288   8.021   0.308 -1.6923 -0.6427 -1.4305
  437MOL0     H57620   9.235   7.993   0.063  2.3193  0.1835  0.5077
  437MOL0     H57621   9.084   8.003  -0.138 -1.7314  0.6457 -0.7210
  437MOL0     H57622   9.249   8.040  -0.180  0.1025 -0.9242 -2.4542
  437MOL0     H57623   9.006   8.166  -0.325  0.7184  2.4615  0.3030
  437MOL0     H57624   9.112   8.042  -0.389  1.2832  0.9251 -0.5936
  437MOL0     H57625   9.291   8.214  -0.386  0.6784  2.9228 -2.6785
  437MOL0     H57626   9.180   8.323  -0.293  1.5318  1.8474 -1.4438
  437MOL0     H57627   9.145   8.221  -0.572 -2.0201  1.5800  0.5402
  437MOL0     H57628   9.050   8.343  -0.492 -1.6648 -2.6892  0.4186
  437MOL0     H57629   9.355   8.351  -0.578  0.2737 -0.8975 -0.2164
  437MOL0     H57630   9.277   8.477  -0.481 -2.1816 -0.2196 -0.0222
  437MOL0     H57631   9.102   8.510  -0.667 -0.5423  0.8827 -1.5753
  437MOL0     H57632   9.178   8.396  -0.765  1.8773  0.1911 -0.5360
  437MOL0     H57633   9.323   8.648  -0.653  1.8723  2.0848 -1.8041
  437MOL0     H57634   9.386   8.543  -0.776 -1.0934  0.1173 -0.4578
  437MOL0     H57635   9.194   8.594  -0.937 -0.4781  1.6751 -0.3800
  437MOL0     H57636   9.286   8.744  -0.882 -0.3878  1.4055 -1.2081
  437MOL0     H57637   8.934   8.612  -0.864  0.4439  0.9215 -1.9739
  437MOL0     H57638   8.704   8.815  -0.656  2.3510  0.1324  0.0074
  437MOL0     H57639   8.708   8.700  -0.789  0.8150 -0.1211 -0.1523
  437MOL0     H57640   8.764   8.886  -0.939 -1.2081  0.7264 -0.7075
  437MOL0     H57641   8.710   8.996  -0.803 -1.7451  1.1811 -0.0300
  437MOL0     H57642   8.543   8.774  -0.944 -1.2307 -0.8600  1.5707
  437MOL0     H57643   8.508   8.844  -0.793  0.8520  0.5322 -0.1351
  437MOL0     H57644   8.382   8.950  -0.995  0.3577 -0.9516  0.5686
  437MOL0     H57645   8.542   8.999  -1.046  0.8306 -1.9177 -0.3886
  437MOL0     H57646   8.286   9.129  -1.062  3.1367  0.9234 -0.9879
  437MOL0     H57647   8.092   9.250  -1.062 -0.2027 -0.2495 -0.6289
  437MOL0     H57648   7.914   9.667  -0.844  1.2885 -1.8177 -0.0822
  437MOL0     H57649   7.727   9.806  -0.854 -0.4720  0.5391  1.4748
  437MOL0     H57650   7.500   9.884  -0.912  0.2517  1.9333 -0.2356
  437MOL0     H57651   7.543   9.954  -0.758 -0.4529  1.7129 -0.0022
  437MOL0     H57652   7.308   9.930  -0.681 -1.3335 -1.9134  0.0556
  437MOL0     H57653   7.271   9.851  -0.822 -2.1316  0.1605  2.3509
  437MOL0     H57654   7.315  10.049  -0.960  2.1071 -1.7477  0.4801
  437MOL0     H57655   7.354  10.142  -0.818 -0.4014 -0.6080 -0.3022
  437MOL0     H57656   7.092  10.026  -0.872 -0.5485  1.2616  0.2224
  437MOL0     H57657   7.128  10.098  -0.713  2.3996 -0.5008  0.6380
  437MOL0     H57658   7.131  10.229  -0.982  2.9545 -1.9985 -0.7726
  437MOL0     H57659   7.188  10.302  -0.829 -1.8890 -1.6795  0.2660
  437MOL0     H57660   6.947  10.266  -0.738 -1.2796 -2.2257 -0.3025
  437MOL0     H57661   6.911  10.192  -0.892 -0.0335 -0.1971  0.0102
  437MOL0     H57662   7.014  10.462  -0.820  0.2570  0.0450 -0.1192
  437MOL0     H57663   6.965  10.429  -0.994  1.4176  1.3954  0.8978
  437MOL0     H57664   6.776  10.466  -0.760  3.0521  0.3425  0.9066
  437MOL0     H57665   6.736  10.373  -0.907 -2.5578  1.7603  0.2866
  437MOL0     H57666   7.504   9.533  -0.613 -0.2773 -0.1408  0.0563
  437MOL0     H57667   7.709   9.398  -0.587  0.4890  1.7004  0.6250
  437MOL0     H57668   8.166   9.352  -0.642  1.3729 -3.9819  2.5642
  437MOL0     H57669   8.375   9.254  -0.655 -1.0127 -0.9281  0.4805
  437MOL0     H57670   9.105   8.403   0.056 -0.1509 -0.4623 -1.1108
  437MOL0     H57671   9.196   8.435   0.286  1.2399  0.1160 -0.5754
  437MOL0     H57672   9.464   8.206   0.611  0.7293  0.3790 -0.0512
  437MOL0     H57673   9.595   8.229   0.816 -0.0919 -0.4353  1.0342
  437MOL0     H57674   9.734   8.398   0.969 -1.3425  2.6198 -0.3377
  437MOL0     H57675   9.649   8.247   1.042 -2.4122  0.7600  1.9265
  437MOL0     H57676   9.732   8.519   1.172  1.7397  0.3927 -2.3993
  437MOL0     H57677   9.657   8.384   1.254 -0.8199  1.6586 -0.4313
  437MOL0     H57678   9.918   8.364   1.110 -0.4765  1.5758  0.8880
  437MOL0     H57679   9.848   8.236   1.213  1.0384  0.0065  2.7535
  437MOL0     H57680   9.912   8.520   1.311  1.3919  0.6085 -1.8834
  437MOL0     H57681   9.866   8.364   1.408 -3.4482  4.8900  0.6979
  437MOL0     H57682  10.289   8.334   1.282  0.1696  0.0937 -2.5137
  437MOL0     H57683   9.333   8.539   0.948  2.9507  1.8776  0.3368
  437MOL0     H57684   9.181   8.503   0.750  1.4640  2.3590 -0.6307
  438MOL0     O57685   8.050  10.380   2.730 -0.0917  0.2322 -0.5420
  438MOL0     C57686   7.979  10.329   2.810  0.7279 -0.3237 -0.3415
  438MOL0     O57687   7.836  10.344   2.817 -0.7291  0.4495  0.2287
  438MOL0     C57688   7.783  10.422   2.722 -0.0513 -0.3324 -0.2115
  438MOL0     C57689   7.728  10.545   2.767 -0.1812  0.1418  0.2401
  438MOL0     C57690   7.655  10.627   2.683  0.4790 -0.5130 -0.6247
  438MOL0     C57691   7.636  10.592   2.546  0.4265  0.1298  0.7797
  438MOL0     O57692   7.585  10.670   2.451  0.1338  0.0682 -0.1423
  438MOL0     C57693   7.579  10.808   2.484 -0.4041 -0.8237  0.8344
  438MOL0     C57694   7.538  10.889   2.356 -0.1358  0.6500 -0.9979
  438MOL0     C57695   7.618  10.850   2.224 -0.4423  0.0804 -0.1274
  438MOL0     C57696   7.767  10.903   2.226  1.4168 -0.2841  0.5465
  438MOL0     C57697   7.861  10.822   2.132  0.2709 -0.1587 -0.0780
  438MOL0     C57698   8.011  10.873   2.160 -0.2146 -0.9668  0.4242
  438MOL0     C57699   8.111  10.804   2.076  0.1285  0.3935  0.2295
  438MOL0     C57700   8.083  10.835   1.930 -0.7518  0.6975 -0.1997
  438MOL0     N57701   8.206  10.832   1.852 -0.7314 -0.1468 -1.2274
  438MOL0     C57702   8.310  10.738   1.862  0.8505 -0.0510 -0.0245
  438MOL0     C57703   8.400  10.785   1.773  0.7349 -0.1747  0.7516
  438MOL0     C57704   8.524  10.709   1.737  0.0378 -0.3875 -0.0083
  438MOL0     C57705   8.497  10.618   1.621  0.6205  0.3579 -0.3264
  438MOL0     C57706   8.631  10.576   1.564 -0.7911 -0.5649  0.2583
  438MOL0     C57707   8.723  10.482   1.656  1.2117  0.4458  0.3550
  438MOL0     O57708   8.807  10.555   1.747  0.3033 -0.1421 -0.2802
  438MOL0     C57709   8.943  10.567   1.723 -0.1781  0.8257  0.6263
  438MOL0     C57710   9.027  10.594   1.834  0.8886  0.0383  0.1125
  438MOL0     C57711   9.160  10.619   1.821 -0.4786  0.3973  0.2256
  438MOL0     C57712   9.224  10.592   1.695  1.0428  0.7247  0.0300
  438MOL0     C57713   9.374  10.607   1.681 -0.2197  0.3209  0.0149
  438MOL0     O57714   9.437  10.632   1.799  0.1688  0.0560  0.5050
  438MOL0     C57715   9.576  10.608   1.805 -0.1650  1.2852  0.4181
  438MOL0     C57716   9.637  10.491   1.754  0.9132 -0.0436 -0.1376
  438MOL0     C57717   9.771  10.466   1.787 -0.8236 -0.3570 -0.8457
  438MOL0     C57718   9.847  10.566   1.856  0.5634 -0.8799  0.6035
  438MOL0     O57719   9.977  10.547   1.904 -0.2119  0.6598  0.7348
  438MOL0     C57720  10.073  10.468   1.834  0.2353 -0.5856  0.5641
  438MOL0     C57721  10.202  10.549   1.827 -0.4728  0.7270  1.1083
  438MOL0     C57722  10.244  10.612   1.958 -1.4320 -0.4913 -0.2128
  438MOL0     C57723  10.370  10.708   1.939 -0.2751  0.0454  0.3945
  438MOL0     C57724  10.503  10.623   1.912  0.2349  0.1523  0.3636
  438MOL0     C57725  10.624  10.706   1.895 -0.0081 -0.9583 -0.8004
  438MOL0     C57726  10.747  10.614   1.891  0.1480 -0.0218 -0.0907
  438MOL0     C57727  10.879  10.674   1.820  0.0165  0.0784  0.1924
  438MOL0    Cl57728  11.018  10.570   1.861  0.1067  0.0342  0.1437
  438MOL0     C57729   9.777  10.683   1.895  0.0102 -0.5042  0.0518
  438MOL0     C57730   9.645  10.710   1.866 -1.0212  0.9127 -0.5802
  438MOL0     O57731   9.428  10.593   1.574 -0.3961 -0.2198 -0.5744
  438MOL0     C57732   9.132  10.566   1.586 -0.0049  0.0017  0.3340
  438MOL0     C57733   8.997  10.559   1.599 -0.2349 -0.0606 -0.9952
  438MOL0     N57734   8.344  10.894   1.708 -0.4766 -0.2064 -0.6091
  438MOL0     N57735   8.233  10.925   1.752  0.9681  0.6988  0.0335
  438MOL0     C57736   7.698  10.469   2.494  0.8529  0.1355 -1.1834
  438MOL0     C57737   7.755  10.383   2.594 -0.9217 -0.7191  0.3938
  438MOL0     C57738   8.053  10.252   2.916 -0.4642  1.0323  0.7606
  438MOL0     C57739   7.980  10.179   3.008  0.3931 -0.5989 -0.3910
  438MOL0     C57740   8.034  10.105   3.111 -0.1076  0.1366  0.0465
  438MOL0     C57741   8.173  10.097   3.119 -0.7274 -0.8375  0.1550
  438MOL0     O57742   8.245  10.019   3.217 -0.6157 -0.4051  0.2937
  438MOL0     C57743   8.177   9.922   3.308 -0.1550 -0.0151  0.6402
  438MOL0     C57744   8.122   9.805   3.236 -1.2326 -0.8435  0.6230
  438MOL0     C57745   8.096   9.696   3.340  0.2782  0.3877  0.0597
  438MOL0     C57746   8.110   9.549   3.276 -0.2352  0.0385 -0.4138
  438MOL0     C57747   8.260   9.520   3.257  0.1172  0.2419 -0.3909
  438MOL0     C57748   8.370   9.476   3.240  0.9906 -0.3540  1.0527
  438MOL0     C57749   8.251  10.156   3.026  0.4492  0.0808 -0.4855
  438MOL0     C57750   8.195  10.244   2.935  0.2057 -0.0201  0.0742
  438MOL0     H57751   7.749  10.582   2.867 -1.4298  0.5790  0.3541
  438MOL0     H57752   7.633  10.728   2.718 -0.7680 -1.4151  1.4307
  438MOL0     H57753   7.676  10.850   2.512  0.8105 -0.2797 -3.5179
  438MOL0     H57754   7.500  10.821   2.558 -2.3357  2.9084 -1.6233
  438MOL0     H57755   7.543  10.998   2.371  2.7957  0.4758 -0.2224
  438MOL0     H57756   7.431  10.870   2.342 -0.4151 -1.8495  3.0109
  438MOL0     H57757   7.562  10.891   2.139 -1.4690 -2.5268 -0.7984
  438MOL0     H57758   7.623  10.741   2.212  0.2026 -0.0965  1.5646
  438MOL0     H57759   7.758  11.008   2.199  1.7286 -0.8333 -1.9051
  438MOL0     H57760   7.797  10.902   2.331 -0.6141  0.9266  1.1934
  438MOL0     H57761   7.837  10.843   2.027  0.7120  1.7644  0.1533
  438MOL0     H57762   7.858  10.713   2.133  1.7012 -0.2431 -1.1483
  438MOL0     H57763   8.030  10.855   2.267  2.0738  1.0217  0.4331
  438MOL0     H57764   8.018  10.981   2.148  2.3025 -0.9035  1.7985
  438MOL0     H57765   8.214  10.832   2.100  0.6230 -2.6148  2.1199
  438MOL0     H57766   8.113  10.696   2.095  0.9271  0.4077  0.2580
  438MOL0     H57767   8.045  10.938   1.930 -0.5296  0.7868 -1.2278
  438MOL0     H57768   8.018  10.761   1.883  3.4281 -1.0642 -3.8749
  438MOL0     H57769   8.317  10.643   1.914  3.3637 -2.3460 -4.0738
  438MOL0     H57770   8.555  10.641   1.817 -2.6841 -1.4527  0.2402
  438MOL0     H57771   8.597  10.787   1.715 -2.4222  2.3633  1.0619
  438MOL0     H57772   8.444  10.677   1.546  0.2315 -1.5204 -1.6212
  438MOL0     H57773   8.438  10.532   1.656  0.6991  0.0745 -0.8828
  438MOL0     H57774   8.613  10.527   1.468 -2.1489  2.9413 -1.4654
  438MOL0     H57775   8.688  10.666   1.540 -1.9215 -0.2309 -1.3527
  438MOL0     H57776   8.782  10.421   1.586  2.1308  0.2737  1.2483
  438MOL0     H57777   8.657  10.412   1.708  1.5414  0.8327  1.3031
  438MOL0     H57778   8.980  10.609   1.931  1.0038 -1.0473  0.3534
  438MOL0     H57779   9.212  10.643   1.913 -3.1849  1.4004  1.6085
  438MOL0     H57780   9.584  10.424   1.687  1.1528 -0.9230  0.5430
  438MOL0     H57781   9.820  10.372   1.763 -1.8846 -1.0179 -0.5300
  438MOL0     H57782  10.034  10.438   1.737 -0.0349 -1.4476  0.9270
  438MOL0     H57783  10.079  10.383   1.902  0.1932  0.2508  1.6462
  438MOL0     H57784  10.180  10.632   1.759  2.7264  0.2312 -0.7059
  438MOL0     H57785  10.276  10.491   1.772  1.5400  5.7147 -2.2142
  438MOL0     H57786  10.272  10.544   2.039  0.1159  1.3446  0.8727
  438MOL0     H57787  10.158  10.671   1.992 -0.4779  4.1651 -4.6862
  438MOL0     H57788  10.359  10.779   1.857 -1.2748  1.9037  2.0650
  438MOL0     H57789  10.383  10.763   2.033  1.4107  1.6992 -0.7541
  438MOL0     H57790  10.488  10.565   1.820 -0.4734 -0.8339  1.0699
  438MOL0     H57791  10.506  10.558   2.000 -1.1633  0.4338  0.6366
  438MOL0     H57792  10.625  10.776   1.980  1.9667 -4.4276  2.3441
  438MOL0     H57793  10.624  10.761   1.801  1.8931 -0.2276 -0.4232
  438MOL0     H57794  10.784  10.603   1.993 -0.1918  0.7563  0.1235
  438MOL0     H57795  10.721  10.518   1.847  2.3538 -1.0447  0.6928
  438MOL0     H57796  10.886  10.775   1.862  1.8993  0.9451 -2.0179
  438MOL0     H57797  10.875  10.690   1.712 -0.3026  0.7469  0.2952
  438MOL0     H57798   9.826  10.765   1.947 -1.8642 -0.2210  1.4712
  438MOL0     H57799   9.592  10.795   1.907  0.0607  0.8321  1.0803
  438MOL0     H57800   9.172  10.567   1.485  3.5610 -2.4823  1.5077
  438MOL0     H57801   8.925  10.555   1.518 -2.7478  2.3400  0.9118
  438MOL0     H57802   7.694  10.435   2.391  0.2972  0.0945 -1.1482
  438MOL0     H57803   7.796  10.288   2.559  3.3006  1.1834 -0.4596
  438MOL0     H57804   7.873  10.199   3.008  0.2945 -0.7664  2.3577
  438MOL0     H57805   7.966  10.059   3.182 -1.0792 -0.4851 -1.2476
  438MOL0     H57806   8.090   9.964   3.360 -2.1212 -2.7265 -0.2191
  438MOL0     H57807   8.246   9.899   3.390 -0.2478  0.0659  0.7431
  438MOL0     H57808   8.038   9.836   3.174 -0.5667  1.6275  0.8395
  438MOL0     H57809   8.203   9.762   3.175 -1.3629 -1.1702  0.6779
  438MOL0     H57810   7.998   9.713   3.387  0.6916  1.8531  0.4342
  438MOL0     H57811   8.173   9.707   3.416  2.3525 -0.6005 -1.7989
  438MOL0     H57812   8.072   9.468   3.340 -1.4960  0.0633 -1.0983
  438MOL0     H57813   8.058   9.548   3.180 -1.7093  0.6497  0.3535
  438MOL0     H57814   8.465   9.427   3.235  0.1760 -1.9427  0.2777
  438MOL0     H57815   8.358  10.151   3.045  0.2925 -2.8136  0.1803
  438MOL0     H57816   8.251  10.320   2.881 -0.8349  0.9086  0.2782
  439MOL0     O57817   2.781   5.854   6.089 -0.1396 -0.7889  0.0999
  439MOL0     C57818   2.739   5.970   6.079 -0.2626  0.7677  0.1562
  439MOL0     O57819   2.611   6.003   6.054 -0.2282 -0.2912 -0.4274
  439MOL0     C57820   2.528   5.907   5.999 -1.0516  0.6953  0.1235
  439MOL0     C57821   2.416   5.868   6.058 -0.1629  0.1138 -0.2715
  439MOL0     C57822   2.323   5.780   5.993  0.0366 -0.3325 -0.4205
  439MOL0     C57823   2.357   5.730   5.870 -0.1588  0.5034  0.4271
  439MOL0     O57824   2.272   5.652   5.795  0.3021  0.9160  0.1694
  439MOL0     C57825   2.153   5.602   5.849  0.0750  0.8108 -0.0335
  439MOL0     C57826   2.095   5.480   5.772 -0.2391  0.0065  0.4520
  439MOL0     C57827   2.196   5.370   5.722  0.5749  0.0469 -0.4940
  439MOL0     C57828   2.117   5.267   5.643 -0.3098 -0.1710  0.2621
  439MOL0     C57829   2.178   5.129   5.640 -0.1618 -0.9608  0.5795
  439MOL0     C57830   2.325   5.127   5.594  0.1245 -0.3252  0.6673
  439MOL0     C57831   2.339   5.191   5.451 -0.9539 -0.1110  1.0338
  439MOL0     C57832   2.444   5.116   5.358 -0.8973  0.5454 -0.4540
  439MOL0     N57833   2.378   4.998   5.292 -0.2075 -0.2899  1.0796
  439MOL0     C57834   2.372   4.871   5.345  0.4584 -0.8356  0.3145
  439MOL0     C57835   2.342   4.800   5.236 -1.1156  0.2883  0.3314
  439MOL0     C57836   2.327   4.648   5.239  0.4373  1.0746  0.0204
  439MOL0     C57837   2.461   4.584   5.279  0.5140 -0.4830  0.3081
  439MOL0     C57838   2.556   4.585   5.158  0.0996  0.2420 -0.1323
  439MOL0     C57839   2.689   4.520   5.206 -1.6696  0.5898 -0.5766
  439MOL0     O57840   2.754   4.596   5.315 -0.2280  0.6008  0.7440
  439MOL0     C57841   2.888   4.632   5.285 -0.0554 -0.1089  0.4228
  439MOL0     C57842   2.989   4.534   5.264  0.5226 -0.9328  0.3019
  439MOL0     C57843   3.110   4.577   5.217 -0.1083 -0.5031  0.2747
  439MOL0     C57844   3.137   4.707   5.186  0.8436 -0.4037 -0.0937
  439MOL0     C57845   3.266   4.749   5.131 -0.5722 -0.2707  0.0110
  439MOL0     O57846   3.288   4.878   5.102  0.0337 -0.4032  0.2595
  439MOL0     C57847   3.400   4.917   5.044  0.1625 -0.6271 -0.4165
  439MOL0     C57848   3.400   4.996   4.929  0.2862 -1.0109  0.3044
  439MOL0     C57849   3.512   5.039   4.863  0.3902  0.4433  0.7480
  439MOL0     C57850   3.634   5.006   4.909 -0.1360 -0.0697  0.5083
  439MOL0     O57851   3.748   5.037   4.847  0.1281 -0.4393  0.0271
  439MOL0     C57852   3.816   4.934   4.766  0.0205 -0.6293 -0.8052
  439MOL0     C57853   3.968   4.914   4.786  0.1491  0.7580 -0.3467
  439MOL0     C57854   4.033   4.794   4.710  0.0452  0.4823 -0.2579
  439MOL0     C57855   4.179   4.772   4.752  0.2165  0.0540 -0.1042
  439MOL0     C57856   4.267   4.822   4.639 -0.0617  0.0988  0.0375
  439MOL0     C57857   4.411   4.834   4.666 -0.0985  0.8910  0.2178
  439MOL0     C57858   4.484   4.714   4.732  0.5869 -0.9279  0.7356
  439MOL0     C57859   4.630   4.729   4.726 -0.6013 -0.1285  0.4396
  439MOL0    Cl57860   4.682   4.689   4.560  0.2122 -0.3418 -0.1129
  439MOL0     C57861   3.647   4.931   5.028 -0.2281  0.5323  0.2830
  439MOL0     C57862   3.529   4.882   5.086 -0.3983  0.0444  0.6430
  439MOL0     O57863   3.344   4.656   5.097  0.4221 -0.3663 -0.3445
  439MOL0     C57864   3.042   4.802   5.206  0.3516 -1.4416 -0.3541
  439MOL0     C57865   2.913   4.766   5.248  0.4671  0.4643 -0.4646
  439MOL0     N57866   2.342   4.876   5.117 -0.0965  0.4192 -0.4705
  439MOL0     N57867   2.364   4.997   5.156  0.3685  0.0867  0.4579
  439MOL0     C57868   2.488   5.762   5.805  0.8327 -0.2374  0.8763
  439MOL0     C57869   2.569   5.847   5.879  0.0925  0.0247  0.2699
  439MOL0     C57870   2.845   6.073   6.093  0.1160 -0.3079 -0.6928
  439MOL0     C57871   2.983   6.037   6.102 -1.1178 -0.6305 -0.0774
  439MOL0     C57872   3.076   6.139   6.109 -0.0421 -0.3131 -0.0651
  439MOL0     C57873   3.041   6.275   6.107  0.1481  0.5299  0.3696
  439MOL0     O57874   3.127   6.362   6.157 -0.1272  0.2861 -0.1751
  439MOL0     C57875   3.115   6.385   6.299  0.0296  0.4664  0.3296
  439MOL0     C57876   3.260   6.405   6.354 -0.6501  0.0399  0.5848
  439MOL0     C57877   3.278   6.453   6.503  0.8083  1.0383  0.0718
  439MOL0     C57878   3.414   6.524   6.502  0.6813 -0.0516 -0.9209
  439MOL0     C57879   3.454   6.545   6.644 -0.6458  0.7032 -0.1703
  439MOL0     C57880   3.479   6.559   6.762  0.1245  0.6471  0.2039
  439MOL0     C57881   2.904   6.302   6.090  0.0396  0.9056 -0.2659
  439MOL0     C57882   2.810   6.206   6.087 -0.0731  0.3801 -0.2097
  439MOL0     H57883   2.389   5.920   6.150  2.0853 -0.1049  0.5533
  439MOL0     H57884   2.224   5.767   6.035  0.5113  1.9249  1.5948
  439MOL0     H57885   2.073   5.677   5.858 -1.7356 -1.1838  1.5461
  439MOL0     H57886   2.167   5.568   5.952 -0.9918 -0.5607 -0.3240
  439MOL0     H57887   2.038   5.523   5.688  1.0949 -0.9444 -0.9861
  439MOL0     H57888   2.019   5.437   5.837 -0.5779  1.4975  1.0871
  439MOL0     H57889   2.234   5.322   5.813 -0.2210  1.2199  0.4927
  439MOL0     H57890   2.273   5.413   5.657 -0.4863 -0.2777 -2.0071
  439MOL0     H57891   2.019   5.257   5.692 -0.0233 -0.6110  0.7542
  439MOL0     H57892   2.104   5.292   5.537  0.7881  0.4045  0.2477
  439MOL0     H57893   2.106   5.073   5.579 -2.3933  0.2352  1.9723
  439MOL0     H57894   2.170   5.077   5.736 -0.0636 -2.3814 -0.1505
  439MOL0     H57895   2.359   5.023   5.584  1.8896  0.2625  0.1591
  439MOL0     H57896   2.394   5.178   5.662 -1.0455  1.3045  0.6984
  439MOL0     H57897   2.244   5.189   5.397 -1.5722  0.4029  2.0674
  439MOL0     H57898   2.350   5.300   5.456 -1.4245  0.1413 -1.7030
  439MOL0     H57899   2.528   5.070   5.411  0.0236 -2.3084 -3.9816
  439MOL0     H57900   2.469   5.184   5.276 -4.6481  2.5909 -0.1322
  439MOL0     H57901   2.376   4.829   5.444 -1.1712 -1.0761  0.3057
  439MOL0     H57902   2.305   4.616   5.137  1.8211  1.0156 -0.2842
  439MOL0     H57903   2.251   4.622   5.313  0.4025  0.4096 -0.2449
  439MOL0     H57904   2.426   4.483   5.303 -1.1578 -0.2116 -0.8091
  439MOL0     H57905   2.501   4.645   5.360 -0.7803 -0.3721  0.8868
  439MOL0     H57906   2.520   4.536   5.067  1.0093 -0.9810  0.1424
  439MOL0     H57907   2.581   4.689   5.136 -2.2216  0.6445 -1.1656
  439MOL0     H57908   2.759   4.513   5.121 -0.3517  2.4407  0.2804
  439MOL0     H57909   2.657   4.422   5.242  1.3707  0.0488  0.9716
  439MOL0     H57910   2.986   4.427   5.283  1.9951 -1.2254 -0.9509
  439MOL0     H57911   3.186   4.506   5.186  2.2650  2.7238 -2.0142
  439MOL0     H57912   3.301   5.016   4.888 -0.2692 -1.1903  1.5095
  439MOL0     H57913   3.521   5.092   4.769 -0.2366 -0.3733  0.2199
  439MOL0     H57914   3.788   4.974   4.668 -2.3182 -2.2455 -0.9025
  439MOL0     H57915   3.771   4.834   4.770 -0.3580 -0.4199  2.0191
  439MOL0     H57916   3.980   4.880   4.890  0.8566 -0.1519 -0.7184
  439MOL0     H57917   4.031   5.001   4.771  0.5125  0.7161  0.8252
  439MOL0     H57918   4.033   4.824   4.605 -0.1915  5.0349  0.8566
  439MOL0     H57919   3.979   4.701   4.733  1.1108  0.1135  0.8180
  439MOL0     H57920   4.210   4.817   4.847 -0.0296 -1.8502  0.9337
  439MOL0     H57921   4.196   4.665   4.765  2.0527  0.0622 -1.9013
  439MOL0     H57922   4.225   4.917   4.605 -0.9746 -0.6365 -0.9420
  439MOL0     H57923   4.255   4.765   4.546  1.1433  0.2164 -0.2104
  439MOL0     H57924   4.434   4.921   4.729  2.1153  0.8306 -0.4467
  439MOL0     H57925   4.465   4.856   4.574 -0.0140  1.1745  0.3347
  439MOL0     H57926   4.466   4.723   4.840  0.6889 -0.2028  0.7016
  439MOL0     H57927   4.442   4.624   4.688 -1.3228  0.5501 -0.6661
  439MOL0     H57928   4.691   4.664   4.789 -0.1941  1.1458  1.4073
  439MOL0     H57929   4.655   4.830   4.759 -1.1978  0.4253 -0.7382
  439MOL0     H57930   3.741   4.908   5.077 -0.4073 -1.9758 -0.4197
  439MOL0     H57931   3.553   4.818   5.171 -0.3233 -0.5325  0.1925
  439MOL0     H57932   3.063   4.908   5.195  2.1916 -1.8760 -1.5436
  439MOL0     H57933   2.834   4.841   5.251  1.4885  1.5470  1.8734
  439MOL0     H57934   2.518   5.718   5.711 -0.0696 -0.8795  0.8844
  439MOL0     H57935   2.664   5.879   5.839 -0.7724  0.7117 -1.3161
  439MOL0     H57936   3.009   5.932   6.108  0.3874 -0.7325 -4.5342
  439MOL0     H57937   3.183   6.124   6.099 -0.0632  0.9467 -3.9722
  439MOL0     H57938   3.061   6.310   6.358  0.7889 -0.0959  0.3201
  439MOL0     H57939   3.063   6.478   6.325  0.3897  0.2276  2.0538
  439MOL0     H57940   3.324   6.318   6.339 -1.6828 -0.5461 -0.6121
  439MOL0     H57941   3.312   6.482   6.296 -0.8607  1.0734  1.7194
  439MOL0     H57942   3.272   6.362   6.564  1.2107 -0.4544 -1.9723
  439MOL0     H57943   3.201   6.526   6.530  1.3786  1.1567  1.4539
  439MOL0     H57944   3.497   6.471   6.455  0.2763 -3.3913  1.7426
  439MOL0     H57945   3.400   6.624   6.460 -1.5304 -0.1754 -0.6052
  439MOL0     H57946   3.514   6.557   6.863  3.4086  0.2823 -0.8351
  439MOL0     H57947   2.875   6.406   6.107  1.2020  0.7465  4.0324
  439MOL0     H57948   2.704   6.229   6.080  0.5161  2.8254 -3.9266
  440MOL0     O57949  10.828  10.593   2.610  0.7402 -0.5335  0.0587
  440MOL0     C57950  10.856  10.498   2.542  0.4810  0.9178 -1.0793
  440MOL0     O57951  10.761  10.425   2.481 -0.9742  0.0975  0.4429
  440MOL0     C57952  10.632  10.461   2.495 -0.4377 -0.4682  0.4556
  440MOL0     C57953  10.559  10.426   2.613  0.3370  0.7041  0.2541
  440MOL0     C57954  10.425  10.478   2.633  0.6455  0.9369  0.1301
  440MOL0     C57955  10.372  10.566   2.543  0.9837 -0.0720 -0.5497
  440MOL0     O57956  10.260  10.645   2.561 -0.0573 -0.0555  0.1051
  440MOL0     C57957  10.263  10.726   2.685  0.5584  0.0307 -0.6704
  440MOL0     C57958  10.143  10.816   2.697 -0.4055 -0.8697 -0.8964
  440MOL0     C57959  10.013  10.744   2.676 -0.4057 -0.3122 -0.1463
  440MOL0     C57960   9.993  10.606   2.750 -0.0814 -0.0161 -1.1892
  440MOL0     C57961   9.853  10.543   2.736  0.7597 -0.6767 -0.4799
  440MOL0     C57962   9.857  10.423   2.641 -0.3047 -0.0682  0.3252
  440MOL0     C57963   9.905  10.296   2.707 -0.0583 -0.5466 -0.4366
  440MOL0     C57964   9.837  10.174   2.652  0.0508  0.0543 -0.2434
  440MOL0     N57965   9.697  10.171   2.680 -1.0455 -0.1070  1.0229
  440MOL0     C57966   9.612  10.115   2.597  0.8051  0.0582  0.3480
  440MOL0     C57967   9.489  10.158   2.645 -0.0279 -0.5854  0.4997
  440MOL0     C57968   9.351  10.110   2.598  0.1477 -0.3002  0.1735
  440MOL0     C57969   9.338  10.149   2.446  0.0273 -0.1202  0.7116
  440MOL0     C57970   9.264  10.285   2.445  0.1005 -0.7035 -0.0034
  440MOL0     C57971   9.189  10.305   2.314  0.1029  0.5987 -0.3048
  440MOL0     O57972   9.110  10.429   2.320 -0.9738 -0.7508 -0.2178
  440MOL0     C57973   8.983  10.419   2.277 -0.3290 -0.0517  0.0695
  440MOL0     C57974   8.888  10.433   2.372 -0.2269 -0.2295 -0.8895
  440MOL0     C57975   8.757  10.434   2.344  0.5612 -0.4056 -0.1969
  440MOL0     C57976   8.715  10.431   2.212 -0.0277  0.7984  0.5219
  440MOL0     C57977   8.574  10.424   2.179  0.1298 -0.3566 -0.3265
  440MOL0     O57978   8.490  10.366   2.272 -0.6073 -0.7354 -1.0053
  440MOL0     C57979   8.361  10.367   2.254  0.2784 -0.2451 -0.0175
  440MOL0     C57980   8.303  10.256   2.186  0.0162 -0.3767 -0.0895
  440MOL0     C57981   8.165  10.248   2.175  0.0813 -1.1510  0.0378
  440MOL0     C57982   8.082  10.351   2.222  0.2008 -0.7620  1.1037
  440MOL0     O57983   7.947  10.356   2.213  0.1560  0.0449 -0.1794
  440MOL0     C57984   7.872  10.260   2.128  0.5947 -0.2461  0.8948
  440MOL0     C57985   7.883  10.309   1.986 -0.2506 -0.0502 -0.0468
  440MOL0     C57986   7.831  10.445   1.963  0.1404  0.5423 -0.4546
  440MOL0     C57987   7.825  10.481   1.815  0.0198 -0.4820 -0.1814
  440MOL0     C57988   7.946  10.467   1.724 -1.1658 -0.0410  0.2095
  440MOL0     C57989   7.924  10.546   1.589  0.5002 -0.7086 -0.3935
  440MOL0     C57990   7.976  10.683   1.610  0.4491  0.0795 -0.0433
  440MOL0     C57991   7.967  10.763   1.472  0.1759 -0.2122 -0.7238
  440MOL0    Cl57992   7.795  10.789   1.420 -0.1252 -0.2098 -0.2164
  440MOL0     C57993   8.144  10.463   2.285  0.8781 -0.2365  0.3506
  440MOL0     C57994   8.281  10.471   2.292  0.4082 -0.3937  0.9196
  440MOL0     O57995   8.536  10.477   2.069 -0.1313  0.4821  0.5271
  440MOL0     C57996   8.813  10.416   2.103  0.0202  0.2900 -0.2767
  440MOL0     C57997   8.949  10.404   2.139  0.0345 -0.1183  0.9782
  440MOL0     N57998   9.513  10.235   2.753 -0.3739  0.7907 -1.2228
  440MOL0     N57999   9.637  10.249   2.770  0.0703  0.1722 -0.1763
  440MOL0     C58000  10.432  10.581   2.419  0.3352 -0.5344 -0.1245
  440MOL0     C58001  10.563  10.537   2.390 -1.2587 -0.0167  0.2258
  440MOL0     C58002  10.989  10.453   2.561  0.2311 -0.2715 -0.2398
  440MOL0     C58003  11.088  10.536   2.609  0.5789  0.1185  0.3363
  440MOL0     C58004  11.223  10.509   2.574  0.3502 -1.1397 -0.6326
  440MOL0     C58005  11.267  10.383   2.522 -0.8077  0.6910 -0.3186
  440MOL0     O58006  11.399  10.375   2.493 -0.5596  0.0080  0.2626
  440MOL0     C58007  11.458  10.242   2.496 -0.2482 -0.1556  0.4981
  440MOL0     C58008  11.590  10.240   2.554 -0.2666 -0.2120  0.4877
  440MOL0     C58009  11.588  10.206   2.695  0.4137 -0.2903 -0.1279
  440MOL0     C58010  11.728  10.153   2.736  0.0890  0.9734 -0.2644
  440MOL0     C58011  11.835  10.255   2.721  0.2073  0.5231  0.2380
  440MOL0     C58012  11.921  10.336   2.687  0.3314 -0.0613 -0.2151
  440MOL0     C58013  11.165  10.289   2.499 -0.5895  0.0225 -0.5556
  440MOL0     C58014  11.028  10.324   2.514 -1.2245  0.1206 -0.3388
  440MOL0     H58015  10.599  10.362   2.690  2.4280  2.5097  0.7903
  440MOL0     H58016  10.363  10.454   2.719 -3.2028  0.9749 -2.3920
  440MOL0     H58017  10.353  10.787   2.688  0.1400  0.6132  0.9264
  440MOL0     H58018  10.267  10.671   2.779  0.2661  4.7345  2.4159
  440MOL0     H58019  10.152  10.899   2.626 -3.8691  1.3586  0.9957
  440MOL0     H58020  10.139  10.871   2.792 -3.5792  0.8942 -1.9039
  440MOL0     H58021  10.005  10.714   2.572 -0.2077 -1.0333  0.0384
  440MOL0     H58022   9.927  10.807   2.700  0.2819  0.1448  1.1994
  440MOL0     H58023  10.061  10.525   2.724  1.6374 -0.2950  3.2535
  440MOL0     H58024   9.990  10.609   2.860 -1.8205 -1.5499 -1.1502
  440MOL0     H58025   9.789  10.623   2.696 -0.6400 -0.4727  1.9845
  440MOL0     H58026   9.805  10.523   2.832 -0.7320  1.0521 -0.7930
  440MOL0     H58027   9.922  10.442   2.555 -1.9740  3.0675 -0.3958
  440MOL0     H58028   9.757  10.405   2.600 -0.4584  0.4161  0.4862
  440MOL0     H58029  10.013  10.302   2.692 -0.5035 -0.1690 -4.7425
  440MOL0     H58030   9.901  10.306   2.816 -0.2714 -4.0209 -0.0246
  440MOL0     H58031   9.882  10.080   2.685  0.1687  0.3042  0.3137
  440MOL0     H58032   9.845  10.187   2.543 -1.2282 -1.6215 -0.5716
  440MOL0     H58033   9.621  10.042   2.517  1.8232 -0.1073  0.6034
  440MOL0     H58034   9.262  10.151   2.646 -0.9263 -1.2063 -1.0101
  440MOL0     H58035   9.347  10.001   2.613 -0.0944 -0.5131 -1.2993
  440MOL0     H58036   9.271  10.078   2.397 -1.1926  0.7596  1.0568
  440MOL0     H58037   9.428  10.153   2.385 -0.9331 -0.3536 -0.7798
  440MOL0     H58038   9.189  10.296   2.524  2.3975 -4.0509  2.9715
  440MOL0     H58039   9.338  10.366   2.446 -1.3976  0.7913  2.7349
  440MOL0     H58040   9.133  10.215   2.286  2.6264 -1.2979  0.3041
  440MOL0     H58041   9.264  10.304   2.235 -1.4875 -2.6063 -1.9998
  440MOL0     H58042   8.910  10.441   2.477  0.0679  1.7825 -1.0725
  440MOL0     H58043   8.686  10.441   2.425  0.5105  1.2993 -0.3549
  440MOL0     H58044   8.370  10.179   2.150 -1.7836 -1.3686 -1.5037
  440MOL0     H58045   8.119  10.167   2.119 -0.6647  0.3325 -1.5878
  440MOL0     H58046   7.767  10.271   2.159  0.2977 -0.1598 -0.1029
  440MOL0     H58047   7.900  10.155   2.142 -0.2900 -0.6050  0.1068
  440MOL0     H58048   7.815  10.250   1.923  0.2627 -0.3987 -0.2837
  440MOL0     H58049   7.988  10.307   1.955 -0.3953  2.8798 -1.0770
  440MOL0     H58050   7.892  10.519   2.016  0.2039 -0.7149  1.3109
  440MOL0     H58051   7.736  10.456   2.015  0.9374  1.8663  0.7913
  440MOL0     H58052   7.744  10.421   1.772 -0.6910  2.1215 -2.7643
  440MOL0     H58053   7.793  10.585   1.816  2.5188  0.4117  2.6963
  440MOL0     H58054   7.964  10.363   1.694 -2.6514  0.7261 -4.0646
  440MOL0     H58055   8.038  10.493   1.777 -0.2959 -0.9969 -0.7784
  440MOL0     H58056   7.819  10.539   1.561 -0.1050  0.2515  1.4738
  440MOL0     H58057   7.989  10.507   1.510  1.3610  1.6097 -0.9087
  440MOL0     H58058   7.925  10.731   1.694 -0.7164 -2.8161  1.0297
  440MOL0     H58059   8.080  10.679   1.645 -0.8998 -2.1373  4.4126
  440MOL0     H58060   8.036  10.716   1.401  1.7106  0.9476 -0.0735
  440MOL0     H58061   7.999  10.864   1.498  1.4722 -1.3066  2.5256
  440MOL0     H58062   8.092  10.554   2.312  0.7603 -0.2439  0.1547
  440MOL0     H58063   8.320  10.559   2.342  1.7205 -1.3588  1.6619
  440MOL0     H58064   8.778  10.402   2.002 -2.9532  1.7307  0.4169
  440MOL0     H58065   9.021  10.403   2.058 -0.7422 -0.0422  0.2755
  440MOL0     H58066  10.376  10.636   2.345  0.1796 -3.6947 -2.6052
  440MOL0     H58067  10.618  10.564   2.300  2.1580  0.9718  2.3916
  440MOL0     H58068  11.074  10.638   2.644 -1.0102 -0.3288  1.0807
  440MOL0     H58069  11.303  10.579   2.593  0.8000 -2.0560  1.0553
  440MOL0     H58070  11.464  10.207   2.393 -1.8995  1.2740 -0.1243
  440MOL0     H58071  11.389  10.172   2.543  0.0036 -0.9359 -0.2784
  440MOL0     H58072  11.641  10.164   2.494  0.0644 -0.4993  1.1197
  440MOL0     H58073  11.645  10.333   2.537 -0.3374 -0.4904 -1.5410
  440MOL0     H58074  11.514  10.130   2.724  0.1423  0.7300  2.1460
  440MOL0     H58075  11.553  10.295   2.748 -1.8956 -0.6416 -0.9426
  440MOL0     H58076  11.719  10.116   2.839 -1.5846  2.6401  0.2458
  440MOL0     H58077  11.752  10.065   2.677  0.2424  0.3252  0.7308
  440MOL0     H58078  12.010  10.394   2.672  1.3980 -1.4465  0.4221
  440MOL0     H58079  11.191  10.200   2.441 -1.8498 -1.1121  0.5491
  440MOL0     H58080  10.953  10.260   2.469 -0.0482 -0.1186 -2.0636
  441MOL0     O58081   3.906   7.627   4.305 -0.0201 -0.2106  0.0379
  441MOL0     C58082   4.011   7.625   4.241 -0.4096 -0.2183  0.3223
  441MOL0     O58083   4.040   7.538   4.129 -0.9432 -0.0415 -0.3650
  441MOL0     C58084   3.936   7.464   4.091  0.7758 -0.0610  1.2956
  441MOL0     C58085   3.868   7.501   3.972 -0.0184  0.0522 -0.4858
  441MOL0     C58086   3.748   7.428   3.922  0.6283 -1.0765 -0.5051
  441MOL0     C58087   3.698   7.323   4.005 -0.7349 -0.5788  0.5313
  441MOL0     O58088   3.588   7.257   3.948  0.3436  0.0709 -0.5636
  441MOL0     C58089   3.543   7.143   4.013  0.2471  0.2913 -0.6360
  441MOL0     C58090   3.400   7.107   3.958  0.7587  0.2663 -0.0928
  441MOL0     C58091   3.423   7.035   3.827 -1.0873  0.5971 -0.3462
  441MOL0     C58092   3.284   6.989   3.769  0.3196 -0.6816 -0.1562
  441MOL0     C58093   3.318   6.928   3.631  0.0929  0.2188  0.2768
  441MOL0     C58094   3.200   6.851   3.571 -0.1199  0.3479 -0.5923
  441MOL0     C58095   3.242   6.820   3.426 -0.1032 -0.2300  0.7654
  441MOL0     C58096   3.132   6.819   3.319  0.1831  0.6135 -1.0409
  441MOL0     N58097   3.031   6.714   3.317 -0.4665  0.1624  0.6196
  441MOL0     C58098   3.041   6.589   3.371  0.2511 -1.3021 -2.0575
  441MOL0     C58099   2.941   6.524   3.324  1.3818  0.4960  0.4416
  441MOL0     C58100   2.882   6.386   3.370  0.0224 -0.4667 -0.1956
  441MOL0     C58101   2.816   6.403   3.508 -0.5752  0.8571  0.3855
  441MOL0     C58102   2.687   6.484   3.483 -0.6868  0.0196  0.4632
  441MOL0     C58103   2.618   6.531   3.611  0.5189  0.1789 -0.1169
  441MOL0     O58104   2.538   6.424   3.669 -0.5603  0.3873 -0.1168
  441MOL0     C58105   2.419   6.385   3.606  1.2317 -0.0145 -0.7537
  441MOL0     C58106   2.350   6.441   3.502 -0.0150 -0.3636  1.0810
  441MOL0     C58107   2.223   6.392   3.449 -0.8352  0.3983 -0.5795
  441MOL0     C58108   2.153   6.295   3.526  0.5718  0.4227  0.5525
  441MOL0     C58109   2.017   6.243   3.494 -0.1439  0.3496  0.2033
  441MOL0     O58110   1.985   6.119   3.536  0.4571  0.8945  0.5579
  441MOL0     C58111   1.855   6.082   3.518 -0.9873  0.1053 -0.6384
  441MOL0     C58112   1.747   6.165   3.551 -0.6487 -0.2816  0.5999
  441MOL0     C58113   1.621   6.118   3.528  0.2730 -0.0832 -0.2080
  441MOL0     C58114   1.596   5.999   3.463  0.3933  0.3757  0.4819
  441MOL0     O58115   1.469   5.974   3.429  0.3427 -0.7768 -0.3802
  441MOL0     C58116   1.440   5.870   3.332  0.5751 -0.9677 -0.3594
  441MOL0     C58117   1.292   5.878   3.293 -0.8557 -1.1070 -0.1693
  441MOL0     C58118   1.207   5.801   3.392 -0.2560  0.4808  0.9564
  441MOL0     C58119   1.053   5.823   3.365 -0.2525  0.4543 -0.6613
  441MOL0     C58120   0.966   5.720   3.453 -0.0899 -0.1381  1.1908
  441MOL0     C58121   0.809   5.739   3.448  0.4789  0.5420 -0.0010
  441MOL0     C58122   0.749   5.665   3.581 -0.8855  0.3006  1.3084
  441MOL0     C58123   0.611   5.695   3.611  0.8436 -0.0717 -0.2890
  441MOL0    Cl58124   0.505   5.650   3.482 -0.0601 -0.1708 -0.3793
  441MOL0     C58125   1.705   5.914   3.425  0.3999 -0.2500  0.2264
  441MOL0     C58126   1.833   5.963   3.451 -0.0253 -0.0450 -0.6858
  441MOL0     O58127   1.950   6.317   3.421 -0.3039 -0.5428  1.1920
  441MOL0     C58128   2.220   6.241   3.631 -0.0504  1.1587 -0.8526
  441MOL0     C58129   2.360   6.271   3.662 -0.3696 -0.9266 -0.3446
  441MOL0     N58130   2.875   6.606   3.222 -0.3834  0.2882 -0.4631
  441MOL0     N58131   2.927   6.724   3.233  0.1641 -0.0527  0.0084
  441MOL0     C58132   3.764   7.283   4.116  0.8435  0.5850  0.4824
  441MOL0     C58133   3.889   7.346   4.156  0.0438 -0.2166  0.6239
  441MOL0     C58134   4.127   7.701   4.292  0.7794  0.2904  0.0952
  441MOL0     C58135   4.242   7.697   4.212 -0.2538 -0.0630  0.5932
  441MOL0     C58136   4.350   7.780   4.246 -0.2136  0.6918 -0.6824
  441MOL0     C58137   4.346   7.849   4.368 -0.0505  0.6372  0.7201
  441MOL0     O58138   4.467   7.896   4.411 -0.8763  0.0967 -0.9443
  441MOL0     C58139   4.468   7.959   4.536 -0.3599  0.7802 -0.7391
  441MOL0     C58140   4.606   7.959   4.604  0.2820 -0.2289 -0.1126
  441MOL0     C58141   4.656   7.825   4.649 -0.0574  0.3228  0.1941
  441MOL0     C58142   4.646   7.809   4.802 -1.1311  0.6353 -0.2998
  441MOL0     C58143   4.682   7.672   4.836  0.4795  0.0205 -0.2765
  441MOL0     C58144   4.699   7.558   4.864 -0.2037  0.3072  0.5080
  441MOL0     C58145   4.221   7.861   4.439  0.1405 -0.0858  0.7366
  441MOL0     C58146   4.116   7.786   4.399 -0.4100  0.1598  0.2086
  441MOL0     H58147   3.900   7.585   3.911  0.4565  0.0365 -0.2637
  441MOL0     H58148   3.691   7.467   3.838  1.3195  2.8204  0.6555
  441MOL0     H58149   3.535   7.166   4.120  1.2176 -0.2604 -0.4417
  441MOL0     H58150   3.614   7.061   4.003  0.7089  0.4191  1.1553
  441MOL0     H58151   3.332   7.189   3.933  0.4281 -0.3042 -1.1196
  441MOL0     H58152   3.349   7.037   4.025 -0.0214 -0.0672 -1.0158
  441MOL0     H58153   3.486   6.946   3.838 -0.9785  0.1952 -3.4145
  441MOL0     H58154   3.476   7.101   3.758 -1.2889 -1.3707 -2.5005
  441MOL0     H58155   3.232   6.919   3.835  0.0493  1.0711  1.5642
  441MOL0     H58156   3.219   7.077   3.772  0.4368 -0.6265  1.6716
  441MOL0     H58157   3.404   6.860   3.639  1.0833  1.2403 -1.0453
  441MOL0     H58158   3.343   7.014   3.567 -0.8119 -1.4761 -2.5604
  441MOL0     H58159   3.100   6.896   3.569 -0.8339 -1.1676 -0.2813
  441MOL0     H58160   3.189   6.764   3.636  1.1918  0.8198  0.2922
  441MOL0     H58161   3.313   6.895   3.390 -0.7334  0.3127  0.6452
  441MOL0     H58162   3.291   6.723   3.415 -2.7865 -1.7971  1.8246
  441MOL0     H58163   3.177   6.802   3.221  0.3045 -2.6566 -0.5267
  441MOL0     H58164   3.094   6.921   3.328  2.6559  1.4994  0.4196
  441MOL0     H58165   3.111   6.556   3.447  2.5237  1.8936 -2.5455
  441MOL0     H58166   2.966   6.316   3.373  0.6302  0.2567 -0.1190
  441MOL0     H58167   2.806   6.354   3.297 -0.6842  0.5037  0.1000
  441MOL0     H58168   2.895   6.449   3.569  1.1731  1.2299 -2.0074
  441MOL0     H58169   2.791   6.301   3.539 -2.1439  1.0849 -0.0613
  441MOL0     H58170   2.721   6.573   3.428  0.4393  0.1736  1.3852
  441MOL0     H58171   2.623   6.428   3.415 -1.7652  3.5382 -1.7261
  441MOL0     H58172   2.553   6.616   3.588  1.9592  0.6662 -2.7284
  441MOL0     H58173   2.691   6.568   3.683  1.5209 -0.8248 -0.5844
  441MOL0     H58174   2.388   6.535   3.462  0.9902  0.7396  4.3331
  441MOL0     H58175   2.179   6.434   3.360 -1.4600  0.1486 -0.3975
  441MOL0     H58176   1.769   6.257   3.603  0.7213 -1.6450  2.5584
  441MOL0     H58177   1.537   6.183   3.551  1.7476  1.4008  1.2581
  441MOL0     H58178   1.460   5.773   3.378 -1.4946 -0.3166  2.2261
  441MOL0     H58179   1.496   5.882   3.239 -1.4973  1.7387 -1.3963
  441MOL0     H58180   1.284   5.833   3.194  1.5726 -2.9756  0.3994
  441MOL0     H58181   1.250   5.979   3.299  0.9498 -0.2426 -1.1873
  441MOL0     H58182   1.245   5.847   3.484  3.9942  2.1203 -1.3775
  441MOL0     H58183   1.234   5.695   3.393  1.4164  0.6581 -3.4701
  441MOL0     H58184   1.030   5.925   3.396 -1.1901  0.0921 -0.1318
  441MOL0     H58185   1.029   5.821   3.258  2.6183  2.4720 -1.4662
  441MOL0     H58186   1.001   5.723   3.557  1.0929  0.4318  0.8008
  441MOL0     H58187   0.982   5.622   3.408  0.0413  0.5490 -0.2992
  441MOL0     H58188   0.750   5.711   3.360 -0.3034  0.9785  0.3714
  441MOL0     H58189   0.782   5.846   3.453 -2.1162 -0.0244 -0.1880
  441MOL0     H58190   0.756   5.556   3.572  1.0904  0.3836  1.2816
  441MOL0     H58191   0.803   5.688   3.673 -2.6153 -0.6807  2.6331
  441MOL0     H58192   0.601   5.802   3.631  0.9371  0.0099 -0.6668
  441MOL0     H58193   0.576   5.633   3.693  0.4079  1.3849  0.6576
  441MOL0     H58194   1.690   5.820   3.371  0.7405 -0.0289 -0.2623
  441MOL0     H58195   1.925   5.911   3.425  1.2961  0.6149  2.2827
  441MOL0     H58196   2.181   6.156   3.687 -1.9062  3.0159  0.8302
  441MOL0     H58197   2.409   6.227   3.747 -0.3091  1.4776  0.9541
  441MOL0     H58198   3.741   7.190   4.167 -2.1844  1.3122  0.6618
  441MOL0     H58199   3.948   7.305   4.237 -1.7951 -3.4544  0.5113
  441MOL0     H58200   4.248   7.626   4.130 -2.0450 -0.5419  0.8489
  441MOL0     H58201   4.443   7.783   4.192 -0.7160  0.8093 -1.5560
  441MOL0     H58202   4.403   7.914   4.611  1.8121 -2.0862 -0.3935
  441MOL0     H58203   4.428   8.061   4.524 -4.9274 -0.7611 -0.3884
  441MOL0     H58204   4.683   7.987   4.532  0.1042 -2.8581 -1.4417
  441MOL0     H58205   4.594   8.026   4.690  0.7238 -0.1830 -0.0817
  441MOL0     H58206   4.763   7.822   4.622 -0.2057 -0.2538 -0.3816
  441MOL0     H58207   4.604   7.741   4.601  0.4081 -0.0288  0.2932
  441MOL0     H58208   4.725   7.868   4.849 -0.7611  0.8825 -1.2113
  441MOL0     H58209   4.544   7.829   4.837 -1.4713 -1.2614 -0.0823
  441MOL0     H58210   4.731   7.460   4.894 -2.3151  0.1645  2.6041
  441MOL0     H58211   4.213   7.937   4.516 -0.4365  0.1625  0.4426
  441MOL0     H58212   4.024   7.790   4.456 -0.8639 -1.3823 -0.3561
  442MOL0     O58213   7.906   5.265   5.870 -0.7669 -0.3021 -0.4499
  442MOL0     C58214   7.951   5.222   5.765 -0.4819 -0.0328 -0.1026
  442MOL0     O58215   7.898   5.119   5.695 -1.7303  0.3560  0.3881
  442MOL0     C58216   7.784   5.054   5.731  0.0729 -0.0107 -0.9470
  442MOL0     C58217   7.668   5.128   5.776  0.9573 -0.0081  0.5812
  442MOL0     C58218   7.549   5.062   5.808  1.2734  0.7626  0.5643
  442MOL0     C58219   7.535   4.924   5.785 -0.4583 -0.1560 -0.2220
  442MOL0     O58220   7.419   4.843   5.788 -0.2006 -0.8712 -0.2838
  442MOL0     C58221   7.332   4.852   5.899 -0.2572  0.0424  0.1982
  442MOL0     C58222   7.281   4.717   5.931 -0.1614 -0.6486 -0.3000
  442MOL0     C58223   7.174   4.733   6.044  0.0182  1.1405 -0.1720
  442MOL0     C58224   7.067   4.610   6.048 -0.0943  0.4209  0.2853
  442MOL0     C58225   6.962   4.635   6.157  0.2917 -0.0617 -0.2544
  442MOL0     C58226   6.864   4.524   6.175 -0.3457  1.1475  0.1078
  442MOL0     C58227   6.814   4.518   6.321 -0.3989 -0.1589 -0.3110
  442MOL0     C58228   6.681   4.456   6.342  0.0704  0.0843  0.4776
  442MOL0     N58229   6.644   4.467   6.486  0.2536  0.2029 -0.5337
  442MOL0     C58230   6.717   4.406   6.591 -0.3084  0.1639  0.3940
  442MOL0     C58231   6.636   4.418   6.701 -0.6255  0.6534 -0.9117
  442MOL0     C58232   6.668   4.348   6.833  0.1844  0.8669 -0.3583
  442MOL0     C58233   6.820   4.327   6.864  0.0038 -0.1289 -0.2523
  442MOL0     C58234   6.823   4.223   6.978 -0.1002  0.0765 -1.0908
  442MOL0     C58235   6.970   4.208   7.022  0.0675  0.2124 -0.6274
  442MOL0     O58236   7.007   4.092   7.103  0.8618  0.4392  0.0785
  442MOL0     C58237   7.135   4.045   7.119  0.7659  0.5069 -0.1089
  442MOL0     C58238   7.160   3.933   7.192  0.1569 -0.3283 -1.4757
  442MOL0     C58239   7.284   3.877   7.190  0.5410  0.8130 -0.0014
  442MOL0     C58240   7.398   3.937   7.140  0.1330  0.2995  0.0333
  442MOL0     C58241   7.536   3.876   7.141 -0.4340  0.7029 -0.9801
  442MOL0     O58242   7.631   3.922   7.061  0.0862  0.5364 -0.6405
  442MOL0     C58243   7.752   3.861   7.052 -0.2330 -0.0886  0.8284
  442MOL0     C58244   7.787   3.784   6.938  0.0178 -0.2316  0.4041
  442MOL0     C58245   7.914   3.728   6.925 -0.2604  0.0990  0.3089
  442MOL0     C58246   8.011   3.748   7.029 -0.1859  0.7227 -0.9940
  442MOL0     O58247   8.141   3.694   7.028  0.0765  0.3895 -0.5801
  442MOL0     C58248   8.184   3.607   7.126  0.2047  0.5489  0.4675
  442MOL0     C58249   8.320   3.641   7.172 -0.2837  0.4065  0.0591
  442MOL0     C58250   8.409   3.668   7.049 -0.0239 -0.2684 -0.4627
  442MOL0     C58251   8.556   3.649   7.067  0.2035  0.6309  0.1919
  442MOL0     C58252   8.626   3.696   6.935 -0.3819  0.3011  0.8806
  442MOL0     C58253   8.772   3.693   6.972  0.3883 -0.4837  0.3504
  442MOL0     C58254   8.863   3.689   6.859 -0.0566  0.6700 -0.2606
  442MOL0     C58255   8.867   3.830   6.796 -0.4753  0.6410 -0.0030
  442MOL0    Cl58256   8.971   3.819   6.653 -0.0512  0.3326 -0.3036
  442MOL0     C58257   7.966   3.814   7.143 -1.4605  0.1575  1.2850
  442MOL0     C58258   7.839   3.864   7.150 -0.2195 -0.4543  0.2372
  442MOL0     O58259   7.537   3.770   7.206  0.2527  0.3476 -0.6817
  442MOL0     C58260   7.374   4.065   7.077 -0.6481  0.2125 -0.4618
  442MOL0     C58261   7.242   4.109   7.065 -0.9604  0.0383 -0.2135
  442MOL0     N58262   6.519   4.475   6.664  0.4390 -0.0264 -0.0937
  442MOL0     N58263   6.529   4.507   6.540 -0.0403 -0.2320 -0.2601
  442MOL0     C58264   7.641   4.859   5.728  1.0205  0.6298  0.6006
  442MOL0     C58265   7.767   4.919   5.717  0.0482  0.7631 -0.0446
  442MOL0     C58266   8.092   5.241   5.742 -0.6520 -0.2327  0.2077
  442MOL0     C58267   8.172   5.316   5.828 -0.0578 -1.0665  0.2329
  442MOL0     C58268   8.306   5.330   5.804  0.0481  0.7110 -0.1617
  442MOL0     C58269   8.368   5.259   5.703 -0.7300 -0.6317 -0.0689
  442MOL0     O58270   8.502   5.262   5.678 -0.6482 -0.4163 -0.0584
  442MOL0     C58271   8.585   5.365   5.730 -0.3796 -0.7351 -0.7737
  442MOL0     C58272   8.718   5.361   5.665 -0.4926  0.3704  0.6282
  442MOL0     C58273   8.707   5.404   5.515  0.4206 -0.4676  0.8905
  442MOL0     C58274   8.832   5.347   5.441 -0.3433 -0.3075  0.5424
  442MOL0     C58275   8.957   5.399   5.505  1.0156  0.1004  0.1780
  442MOL0     C58276   9.047   5.458   5.565 -0.0573  0.4063  0.3780
  442MOL0     C58277   8.291   5.192   5.613  0.7273  0.0199 -0.3158
  442MOL0     C58278   8.153   5.186   5.626 -0.2853 -0.5924  0.7628
  442MOL0     H58279   7.667   5.236   5.784 -0.2861 -0.1436  3.4030
  442MOL0     H58280   7.461   5.113   5.845  0.9800  0.7531 -0.1106
  442MOL0     H58281   7.244   4.913   5.875  0.1578  0.4809 -0.2389
  442MOL0     H58282   7.388   4.897   5.981  0.4304  0.0067 -0.2425
  442MOL0     H58283   7.365   4.653   5.958 -1.7765 -3.9186 -2.3517
  442MOL0     H58284   7.238   4.670   5.842 -0.8645 -1.3383  0.3973
  442MOL0     H58285   7.113   4.823   6.033 -2.0703 -0.4241 -2.7763
  442MOL0     H58286   7.225   4.736   6.140  1.2839 -1.6268 -0.6750
  442MOL0     H58287   7.015   4.598   5.953  2.4075  3.6294 -1.6711
  442MOL0     H58288   7.120   4.515   6.063 -3.9371 -1.8599  0.7098
  442MOL0     H58289   6.912   4.727   6.130  3.2893  1.2341 -1.9196
  442MOL0     H58290   7.014   4.661   6.250 -1.2428  2.3233  0.0051
  442MOL0     H58291   6.908   4.427   6.148  1.9607  2.1203  0.1174
  442MOL0     H58292   6.782   4.543   6.105 -1.3926  3.2907  1.7992
  442MOL0     H58293   6.881   4.452   6.377 -1.2796 -1.0590 -0.2978
  442MOL0     H58294   6.818   4.620   6.361  0.6100 -0.7540  1.1985
  442MOL0     H58295   6.690   4.348   6.323  2.2060  0.2952  0.0400
  442MOL0     H58296   6.597   4.496   6.285 -0.3134 -0.8906  0.3274
  442MOL0     H58297   6.807   4.346   6.590 -0.8324 -0.9556  4.1666
  442MOL0     H58298   6.618   4.251   6.836  2.7022 -0.5677 -1.3812
  442MOL0     H58299   6.624   4.403   6.917  1.3014  0.6227  0.4114
  442MOL0     H58300   6.858   4.425   6.896 -3.5207  0.5355  2.5988
  442MOL0     H58301   6.881   4.273   6.792  0.0516 -1.5111  0.7749
  442MOL0     H58302   6.757   4.251   7.061 -0.4911 -1.0269 -1.0111
  442MOL0     H58303   6.788   4.130   6.931  1.3898 -1.0327 -0.0665
  442MOL0     H58304   7.000   4.302   7.069  0.2559  0.2400 -0.8040
  442MOL0     H58305   7.026   4.201   6.928 -0.2760 -0.4642 -0.7869
  442MOL0     H58306   7.081   3.886   7.249  1.1751  0.4082  0.6127
  442MOL0     H58307   7.302   3.776   7.223 -0.3041  0.4478 -0.5951
  442MOL0     H58308   7.707   3.764   6.867 -1.9580 -2.4400  3.0453
  442MOL0     H58309   7.933   3.680   6.830  1.1921  0.0555  0.6073
  442MOL0     H58310   8.191   3.507   7.082 -0.9795  1.2184 -1.3445
  442MOL0     H58311   8.113   3.595   7.208  1.8353  2.5069  2.2796
  442MOL0     H58312   8.364   3.562   7.233 -3.3229 -2.1351 -0.7738
  442MOL0     H58313   8.302   3.735   7.224  2.5223  0.5878  0.8202
  442MOL0     H58314   8.390   3.774   7.031 -1.8143 -0.8795 -2.7071
  442MOL0     H58315   8.382   3.615   6.957  1.5246 -1.5055 -0.2402
  442MOL0     H58316   8.598   3.696   7.156 -0.1117  0.2363  0.5534
  442MOL0     H58317   8.576   3.542   7.082  0.2466  0.8034  1.4723
  442MOL0     H58318   8.602   3.799   6.908 -0.2759  0.7348  2.3460
  442MOL0     H58319   8.599   3.628   6.853  0.3999  0.1137  0.7685
  442MOL0     H58320   8.788   3.607   7.038 -1.0434  0.9921  2.7859
  442MOL0     H58321   8.784   3.787   7.026  1.1679 -1.1818  1.4269
  442MOL0     H58322   8.965   3.677   6.896  0.1277  0.0351 -0.9531
  442MOL0     H58323   8.840   3.609   6.787  2.2431  0.6931 -1.0985
  442MOL0     H58324   8.907   3.905   6.865 -3.1070  3.1204 -0.9155
  442MOL0     H58325   8.766   3.868   6.775 -0.2414  0.0755 -2.4127
  442MOL0     H58326   8.039   3.823   7.223  0.7186  1.1770 -0.6935
  442MOL0     H58327   7.814   3.919   7.241 -2.1065  1.2328 -1.2041
  442MOL0     H58328   7.450   4.123   7.024 -1.8897  1.3037 -1.1051
  442MOL0     H58329   7.217   4.195   7.004 -1.9956  0.0554  0.2027
  442MOL0     H58330   7.609   4.760   5.694 -3.7289  2.2864 -0.5249
  442MOL0     H58331   7.853   4.863   5.681 -1.1519 -1.4698  0.3593
  442MOL0     H58332   8.121   5.367   5.909 -1.8210 -0.8558 -0.9497
  442MOL0     H58333   8.364   5.392   5.872  0.6238 -0.7912  0.7697
  442MOL0     H58334   8.605   5.344   5.835 -1.5266  0.7241 -0.2187
  442MOL0     H58335   8.531   5.460   5.718 -1.0100 -0.8862  0.6360
  442MOL0     H58336   8.773   5.439   5.719 -0.5558  0.7828  0.1095
  442MOL0     H58337   8.778   5.271   5.680 -0.5560  0.6221  2.7667
  442MOL0     H58338   8.694   5.512   5.514 -4.0858 -0.7937 -0.8376
  442MOL0     H58339   8.613   5.374   5.468  0.4700 -0.5173  0.8207
  442MOL0     H58340   8.826   5.238   5.454  1.4592 -0.5546 -0.3942
  442MOL0     H58341   8.833   5.364   5.333 -2.6965 -0.0531  0.5078
  442MOL0     H58342   9.130   5.498   5.620  2.5080 -0.9267 -2.2639
  442MOL0     H58343   8.344   5.137   5.537  0.5956  0.3783 -0.6687
  442MOL0     H58344   8.100   5.136   5.545  1.6402 -3.0953  0.9105
  443MOL0     O58345   1.431   7.044   9.509 -0.0490  0.1602 -0.0671
  443MOL0     C58346   1.339   6.989   9.446 -0.6899  0.0783 -0.0479
  443MOL0     O58347   1.342   6.953   9.309  0.2345  0.5602  0.3617
  443MOL0     C58348   1.454   6.976   9.232  0.0417  0.3176 -0.0862
  443MOL0     C58349   1.426   7.009   9.099 -0.2552  0.0073 -0.4585
  443MOL0     C58350   1.523   7.025   9.010 -0.5298 -0.9383  0.4615
  443MOL0     C58351   1.657   7.013   9.043 -0.4145  0.6836  0.0028
  443MOL0     O58352   1.743   7.029   8.941 -0.1966  0.8074 -0.0722
  443MOL0     C58353   1.879   7.057   8.979  0.2303 -0.6006 -0.8067
  443MOL0     C58354   1.952   7.099   8.859 -0.6716  0.5415 -0.1745
  443MOL0     C58355   2.106   7.129   8.874 -0.5077 -0.4819 -0.1402
  443MOL0     C58356   2.147   7.176   8.736 -0.4189  0.2153  0.3039
  443MOL0     C58357   2.298   7.190   8.740 -0.0658  0.7863  1.0984
  443MOL0     C58358   2.364   7.289   8.635 -0.1532  0.3483  0.6298
  443MOL0     C58359   2.340   7.236   8.491  0.2099 -0.5216  1.8315
  443MOL0     C58360   2.445   7.146   8.439 -0.0640 -0.0042  0.1459
  443MOL0     N58361   2.407   7.120   8.297 -0.7971  0.6273  0.3882
  443MOL0     C58362   2.487   7.104   8.182 -0.8138  0.7342  0.2592
  443MOL0     C58363   2.407   7.058   8.083 -0.4876 -0.1845 -0.3899
  443MOL0     C58364   2.450   7.042   7.941 -0.0966  0.0976 -1.3471
  443MOL0     C58365   2.373   6.945   7.848  0.3820  1.4924  0.6800
  443MOL0     C58366   2.372   6.799   7.914 -0.7656  0.1722  0.8957
  443MOL0     C58367   2.525   6.742   7.895  1.3656 -0.1546  0.3175
  443MOL0     O58368   2.554   6.619   7.953  0.5071 -0.0975  0.5453
  443MOL0     C58369   2.487   6.506   7.911  0.0733  0.1076  0.4741
  443MOL0     C58370   2.496   6.397   7.999 -0.6288  0.1323  0.0847
  443MOL0     C58371   2.411   6.285   7.977  0.4227  0.9697 -0.2101
  443MOL0     C58372   2.342   6.257   7.858  0.6059 -0.6830 -0.4522
  443MOL0     C58373   2.259   6.138   7.845 -0.0534 -0.5061  0.8135
  443MOL0     O58374   2.166   6.144   7.738 -0.5800  0.0402  0.3739
  443MOL0     C58375   2.067   6.045   7.725 -0.4409 -0.5185  0.8079
  443MOL0     C58376   1.967   6.045   7.813 -0.3322  0.1131 -0.3685
  443MOL0     C58377   1.868   5.945   7.797  0.0154 -0.4998 -0.2253
  443MOL0     C58378   1.863   5.856   7.683 -0.6776  0.7045  0.2984
  443MOL0     O58379   1.766   5.761   7.662  0.0901  0.5138 -0.1228
  443MOL0     C58380   1.709   5.695   7.776 -0.5096 -0.0395 -0.4612
  443MOL0     C58381   1.596   5.605   7.741  0.6702 -0.1443  1.1339
  443MOL0     C58382   1.505   5.573   7.855 -0.4063  0.5022 -1.0474
  443MOL0     C58383   1.398   5.479   7.821  0.0408 -0.1864  0.2988
  443MOL0     C58384   1.310   5.431   7.943  0.0229 -0.9862  0.7313
  443MOL0     C58385   1.195   5.339   7.916  0.1572  0.0478  0.2747
  443MOL0     C58386   1.236   5.212   7.837 -0.6589 -0.9618  0.3769
  443MOL0     C58387   1.322   5.117   7.913 -0.3261  0.2784 -1.0576
  443MOL0    Cl58388   1.245   5.064   8.074 -0.0406 -0.1070 -0.0880
  443MOL0     C58389   1.963   5.861   7.588  0.2135  0.6770  1.0953
  443MOL0     C58390   2.061   5.956   7.608 -0.2299 -0.3312  0.6125
  443MOL0     O58391   2.269   6.041   7.918 -0.5377  0.5910 -0.2355
  443MOL0     C58392   2.347   6.362   7.766  0.6344  0.3456  0.2856
  443MOL0     C58393   2.408   6.486   7.791 -0.6368 -0.1035  0.0229
  443MOL0     N58394   2.284   7.031   8.136 -0.4170 -0.1170 -0.5293
  443MOL0     N58395   2.289   7.058   8.258 -0.0799  0.2389 -0.3370
  443MOL0     C58396   1.693   6.979   9.175  0.1032 -0.0487 -0.0850
  443MOL0     C58397   1.595   6.962   9.269 -0.1108  0.1722  0.0591
  443MOL0     C58398   1.211   6.958   9.514 -0.2448  0.9230  0.9189
  443MOL0     C58399   1.098   6.910   9.439  0.0887 -0.4907  0.0074
  443MOL0     C58400   0.978   6.886   9.502  0.0701 -0.0720 -0.2599
  443MOL0     C58401   0.965   6.902   9.644  0.1815 -0.1957  0.5688
  443MOL0     O58402   0.851   6.881   9.723  0.3306 -0.6181 -0.0075
  443MOL0     C58403   0.722   6.868   9.660  0.7190  0.8936  0.0934
  443MOL0     C58404   0.710   6.718   9.636  0.2704 -0.6233 -0.5207
  443MOL0     C58405   0.624   6.648   9.748 -0.5052 -1.0294  0.5682
  443MOL0     C58406   0.475   6.671   9.734  0.2626 -1.1020 -0.5633
  443MOL0     C58407   0.396   6.596   9.836  0.2400 -0.6178  0.5610
  443MOL0     C58408   0.339   6.529   9.920 -0.9903  0.1167 -0.0804
  443MOL0     C58409   1.079   6.944   9.718 -0.0066 -0.7614 -0.4117
  443MOL0     C58410   1.199   6.969   9.652  0.4357 -0.4224 -0.0586
  443MOL0     H58411   1.328   7.020   9.054  0.2586  0.1003 -1.5915
  443MOL0     H58412   1.499   7.053   8.908  2.3272  1.8001  0.3818
  443MOL0     H58413   1.921   6.966   9.024 -0.0833 -0.6140 -0.5394
  443MOL0     H58414   1.887   7.137   9.053  1.9692 -1.3526 -0.1130
  443MOL0     H58415   1.907   7.186   8.810 -2.2056 -0.2582 -0.2378
  443MOL0     H58416   1.933   7.018   8.788  0.8124  0.5783 -0.6468
  443MOL0     H58417   2.166   7.042   8.904  0.4909  0.7906  1.7113
  443MOL0     H58418   2.129   7.201   8.953 -1.1155  1.0227 -1.2895
  443MOL0     H58419   2.118   7.113   8.651  0.3346  1.0722 -0.6112
  443MOL0     H58420   2.110   7.277   8.716  0.9852  1.1712  2.2806
  443MOL0     H58421   2.355   7.096   8.739  0.4839  1.1176  0.3273
  443MOL0     H58422   2.324   7.231   8.839  1.7965  0.4327  0.8047
  443MOL0     H58423   2.471   7.305   8.654 -0.0241  3.2568 -1.9125
  443MOL0     H58424   2.311   7.384   8.651 -0.3942  0.0115  1.9508
  443MOL0     H58425   2.245   7.184   8.479 -0.6483  1.5437 -2.0013
  443MOL0     H58426   2.340   7.324   8.426 -0.0746 -3.0127 -1.8807
  443MOL0     H58427   2.456   7.054   8.496  0.7424  0.7026  1.1523
  443MOL0     H58428   2.541   7.197   8.434 -0.1706  0.1410 -0.6160
  443MOL0     H58429   2.591   7.132   8.167 -0.5575 -0.6730 -0.7397
  443MOL0     H58430   2.556   7.017   7.931  0.1214  0.4279 -0.1267
  443MOL0     H58431   2.430   7.134   7.885 -1.6659  0.5999 -0.0562
  443MOL0     H58432   2.419   6.959   7.750  0.9836  3.1687  1.1643
  443MOL0     H58433   2.273   6.989   7.848 -0.4923 -0.4122  1.1905
  443MOL0     H58434   2.343   6.810   8.019  0.0486  1.3748  1.0035
  443MOL0     H58435   2.299   6.738   7.859  1.5086 -2.2764  0.3899
  443MOL0     H58436   2.594   6.816   7.935 -1.1858  3.0997 -0.8193
  443MOL0     H58437   2.550   6.736   7.789  1.9732 -0.7359  0.4886
  443MOL0     H58438   2.552   6.420   8.089  1.4706  0.4541 -1.2092
  443MOL0     H58439   2.407   6.207   8.053  2.3393 -0.0238 -1.0579
  443MOL0     H58440   1.954   6.118   7.893  1.7635  1.3411 -1.0868
  443MOL0     H58441   1.792   5.933   7.874 -0.8927 -1.7989 -1.2728
  443MOL0     H58442   1.667   5.780   7.830 -0.0585 -0.0691 -0.0592
  443MOL0     H58443   1.788   5.655   7.839 -0.7866  1.5717  0.9646
  443MOL0     H58444   1.624   5.522   7.675 -0.0818 -0.6346  1.4138
  443MOL0     H58445   1.531   5.655   7.669  2.6161  0.5957 -0.2072
  443MOL0     H58446   1.469   5.665   7.902 -1.1605  0.4215 -1.4599
  443MOL0     H58447   1.566   5.524   7.932 -0.8073  1.0752 -0.3568
  443MOL0     H58448   1.334   5.525   7.745 -1.8284  0.0876  1.9495
  443MOL0     H58449   1.430   5.391   7.765 -3.1262 -1.9264  0.9371
  443MOL0     H58450   1.269   5.515   7.999 -2.9484 -1.2473 -0.8499
  443MOL0     H58451   1.380   5.376   8.006  1.2937 -2.8922 -2.1510
  443MOL0     H58452   1.108   5.384   7.868  0.9150  0.1500 -1.0412
  443MOL0     H58453   1.154   5.300   8.010 -1.0239  0.1573 -0.1758
  443MOL0     H58454   1.149   5.150   7.815  0.9817 -2.7410 -1.4173
  443MOL0     H58455   1.275   5.231   7.736  1.8220 -2.7392  0.9092
  443MOL0     H58456   1.419   5.158   7.942 -0.2278  1.5276 -3.0269
  443MOL0     H58457   1.334   5.028   7.850 -1.9247 -0.7402 -0.0284
  443MOL0     H58458   1.960   5.793   7.504  2.5335  0.4145  1.1489
  443MOL0     H58459   2.123   5.993   7.527  0.3571  1.7668  1.9394
  443MOL0     H58460   2.303   6.344   7.669  0.1387 -3.4753  1.0569
  443MOL0     H58461   2.389   6.569   7.724  0.3961 -2.1927 -3.1038
  443MOL0     H58462   1.789   6.944   9.212 -1.0956 -1.6454  1.7024
  443MOL0     H58463   1.615   6.922   9.368 -2.6137  0.4243  0.7398
  443MOL0     H58464   1.110   6.899   9.332  2.0280  2.0602 -0.1624
  443MOL0     H58465   0.885   6.859   9.454 -0.1551 -0.3243  0.3109
  443MOL0     H58466   0.721   6.914   9.561  1.4720 -0.9379 -0.8343
  443MOL0     H58467   0.647   6.921   9.719  0.7211  1.5452 -0.4791
  443MOL0     H58468   0.657   6.696   9.543 -0.1391 -2.6054  0.1273
  443MOL0     H58469   0.806   6.667   9.637 -1.1041 -3.4275 -1.3013
  443MOL0     H58470   0.661   6.672   9.848  0.2335  0.6647 -0.0960
  443MOL0     H58471   0.641   6.542   9.727  1.3939 -0.2735 -2.2937
  443MOL0     H58472   0.460   6.776   9.760  3.2191 -1.4753  3.9884
  443MOL0     H58473   0.431   6.654   9.636  0.2846 -3.0641 -0.2828
  443MOL0     H58474   0.306   6.465   9.999 -0.7879  0.6462  0.4449
  443MOL0     H58475   1.069   6.954   9.826 -1.5231 -0.2338 -0.5750
  443MOL0     H58476   1.283   7.000   9.713  0.1912  1.8257 -0.7687
  444MOL0     O58477   9.649   8.115   2.521  0.6524 -0.0504  0.0490
  444MOL0     C58478   9.600   8.228   2.546 -0.3411 -0.6809  0.9181
  444MOL0     O58479   9.652   8.321   2.631 -0.0464 -0.3218 -0.5144
  444MOL0     C58480   9.774   8.270   2.686  0.6435  0.1566  0.4380
  444MOL0     C58481   9.892   8.303   2.629 -0.3207 -0.0583  0.0841
  444MOL0     C58482  10.013   8.269   2.681 -0.3610 -0.3168  0.0635
  444MOL0     C58483  10.022   8.176   2.786  0.2559  0.5342 -0.4341
  444MOL0     O58484  10.153   8.142   2.825  0.3296  0.5322  0.0602
  444MOL0     C58485  10.161   8.026   2.905  1.0245 -0.1972 -0.6292
  444MOL0     C58486  10.298   7.983   2.932  0.0752  0.3857  0.9863
  444MOL0     C58487  10.367   7.921   2.804 -0.4195 -0.1091  0.9103
  444MOL0     C58488  10.522   7.914   2.827 -0.2168  1.0930  0.3753
  444MOL0     C58489  10.590   7.831   2.721  0.1353 -1.0725  0.0497
  444MOL0     C58490  10.634   7.925   2.603  0.0520 -0.1640 -0.0432
  444MOL0     C58491  10.681   7.843   2.488 -0.7427  0.1071  0.5998
  444MOL0     C58492  10.757   7.906   2.368 -0.4920 -1.1831  0.6967
  444MOL0     N58493  10.700   8.046   2.323  0.4827  0.4214 -0.3538
  444MOL0     C58494  10.569   8.080   2.283 -0.5138  0.5566  0.4292
  444MOL0     C58495  10.565   8.217   2.284  0.0495 -0.2623 -0.1623
  444MOL0     C58496  10.449   8.309   2.251 -0.1955 -0.2909  0.0082
  444MOL0     C58497  10.490   8.400   2.140  1.2248  0.2307  0.9131
  444MOL0     C58498  10.377   8.488   2.092 -0.1219  0.8763 -0.3945
  444MOL0     C58499  10.425   8.539   1.946 -0.2991  0.2821 -0.7471
  444MOL0     O58500  10.358   8.664   1.911 -0.3719 -0.9296 -0.4046
  444MOL0     C58501  10.240   8.668   1.854 -0.7807 -0.3511  1.4849
  444MOL0     C58502  10.200   8.793   1.798 -0.2647 -0.2135 -0.5809
  444MOL0     C58503  10.077   8.803   1.740  0.7506 -0.0563  0.0506
  444MOL0     C58504  10.003   8.695   1.703 -0.8365  0.3687  0.5430
  444MOL0     C58505   9.873   8.705   1.626 -0.1636 -0.0894 -0.5483
  444MOL0     O58506   9.816   8.825   1.631  0.0762 -0.1981  0.7038
  444MOL0     C58507   9.690   8.832   1.576 -0.1972  0.1802  0.9336
  444MOL0     C58508   9.584   8.876   1.658 -1.2367  0.0329  0.6567
  444MOL0     C58509   9.456   8.895   1.594 -0.7576 -0.1927  0.7174
  444MOL0     C58510   9.438   8.859   1.466  0.6812 -0.0781 -0.7539
  444MOL0     O58511   9.319   8.896   1.415  0.0298  0.6239  0.3239
  444MOL0     C58512   9.209   8.817   1.441  0.4945 -0.8964 -0.2637
  444MOL0     C58513   9.120   8.841   1.323  0.8950  0.9474 -0.2931
  444MOL0     C58514   9.010   8.744   1.307  0.0715 -0.4404  0.2184
  444MOL0     C58515   8.904   8.742   1.412  0.2357  0.6143 -0.1428
  444MOL0     C58516   8.808   8.851   1.421  0.3024 -0.4045  0.6835
  444MOL0     C58517   8.693   8.812   1.517 -0.0120 -0.1084 -0.1044
  444MOL0     C58518   8.729   8.811   1.664 -0.3233 -0.5875 -0.5117
  444MOL0     C58519   8.612   8.773   1.760 -0.1724  0.4600  0.5544
  444MOL0    Cl58520   8.566   8.610   1.726  0.6340 -0.2242  0.1294
  444MOL0     C58521   9.546   8.821   1.386  0.6650  0.2705 -0.4356
  444MOL0     C58522   9.670   8.808   1.440  0.2432  0.1470 -0.5270
  444MOL0     O58523   9.836   8.608   1.566 -0.4740  0.7158  0.0314
  444MOL0     C58524  10.050   8.573   1.754  1.4117 -0.4316 -0.5661
  444MOL0     C58525  10.161   8.558   1.834  0.1074 -0.2869 -0.9380
  444MOL0     N58526  10.676   8.261   2.348 -0.5829 -0.3047  0.0708
  444MOL0     N58527  10.759   8.162   2.354  0.0137 -0.4100 -0.4228
  444MOL0     C58528   9.903   8.133   2.847 -0.5428 -0.2954  0.0088
  444MOL0     C58529   9.783   8.194   2.807  0.3924 -0.6616  0.3582
  444MOL0     C58530   9.490   8.287   2.459 -0.1721  0.0211 -0.6292
  444MOL0     C58531   9.460   8.430   2.464 -1.0150  0.0786  0.3019
  444MOL0     C58532   9.346   8.484   2.403  0.7562  0.1116  0.0952
  444MOL0     C58533   9.260   8.402   2.337  0.8627  0.7509  0.1080
  444MOL0     O58534   9.158   8.473   2.283  0.3574  0.9688 -0.5257
  444MOL0     C58535   9.076   8.413   2.179 -0.1184  0.6623  0.1938
  444MOL0     C58536   8.977   8.509   2.127  0.2542 -0.6703  0.3384
  444MOL0     C58537   9.038   8.647   2.065  0.5661  0.4208 -0.0397
  444MOL0     C58538   8.979   8.688   1.924 -0.4732 -0.1895  0.0193
  444MOL0     C58539   9.009   8.599   1.814 -0.1536  0.4814  0.8014
  444MOL0     C58540   9.032   8.545   1.709 -0.1072  0.3032 -0.0900
  444MOL0     C58541   9.295   8.269   2.322  0.3864  0.2821 -0.0359
  444MOL0     C58542   9.401   8.208   2.385 -0.8523 -0.2480  0.1437
  444MOL0     H58543   9.899   8.352   2.532  1.0614  1.0292  0.6937
  444MOL0     H58544  10.100   8.308   2.631 -0.0443 -2.2540 -0.9777
  444MOL0     H58545  10.107   7.940   2.866  0.6638 -0.1326 -0.2831
  444MOL0     H58546  10.131   8.058   3.006 -0.0934  0.0068 -1.0140
  444MOL0     H58547  10.299   7.907   3.010  0.0860 -1.1399 -0.4314
  444MOL0     H58548  10.357   8.058   2.985  1.4058 -2.0200  3.0971
  444MOL0     H58549  10.366   7.983   2.713  1.8817 -3.1302 -1.3924
  444MOL0     H58550  10.323   7.824   2.777 -1.0953 -0.7751  4.0497
  444MOL0     H58551  10.566   8.014   2.831  0.9919  0.5445  1.8342
  444MOL0     H58552  10.532   7.865   2.925  0.4962  2.1264  0.8497
  444MOL0     H58553  10.530   7.744   2.692 -0.1483 -1.4710  1.7580
  444MOL0     H58554  10.672   7.787   2.779 -0.6732  0.3603  2.3994
  444MOL0     H58555  10.713   7.995   2.633  0.7785 -1.1668  0.4711
  444MOL0     H58556  10.557   7.993   2.567  3.1472  3.0347 -1.2259
  444MOL0     H58557  10.756   7.775   2.528  3.0301  1.8537 -2.6877
  444MOL0     H58558  10.596   7.791   2.444 -0.9118  1.4560 -0.7963
  444MOL0     H58559  10.754   7.837   2.283  2.8656 -0.5395 -0.0624
  444MOL0     H58560  10.862   7.923   2.394 -0.1306  1.0179 -1.8104
  444MOL0     H58561  10.485   8.016   2.260  0.3686 -1.0246  1.4133
  444MOL0     H58562  10.432   8.384   2.329  2.4270  0.4731 -0.0738
  444MOL0     H58563  10.364   8.243   2.231  1.1734 -1.6834 -1.4427
  444MOL0     H58564  10.513   8.333   2.056 -0.7443  0.0415  0.4726
  444MOL0     H58565  10.577   8.457   2.174  1.5147 -0.2416  0.9794
  444MOL0     H58566  10.286   8.429   2.073 -1.3188  3.0099 -1.7444
  444MOL0     H58567  10.356   8.566   2.165 -2.0991 -1.5827  1.8388
  444MOL0     H58568  10.391   8.461   1.877  0.4757 -1.6176  0.9355
  444MOL0     H58569  10.534   8.541   1.940 -0.2991 -0.5508 -1.2849
  444MOL0     H58570  10.260   8.878   1.827 -0.6298 -0.7198  1.9330
  444MOL0     H58571  10.039   8.902   1.716 -0.5281 -0.5216  0.0935
  444MOL0     H58572   9.600   8.893   1.764  0.9446  2.5381  0.0218
  444MOL0     H58573   9.372   8.931   1.652 -1.2510 -1.0480  0.5536
  444MOL0     H58574   9.164   8.841   1.537 -0.4285 -0.7616 -0.7188
  444MOL0     H58575   9.247   8.715   1.437  2.4275 -0.2243 -4.0973
  444MOL0     H58576   9.184   8.826   1.236  0.4235  0.4798 -0.5644
  444MOL0     H58577   9.076   8.941   1.326 -0.3896  0.4193  3.1080
  444MOL0     H58578   9.061   8.647   1.312 -2.0546 -1.6041  0.7747
  444MOL0     H58579   8.966   8.750   1.206 -1.2235  2.6728  0.8721
  444MOL0     H58580   8.845   8.655   1.382  1.0894  0.2598 -0.8424
  444MOL0     H58581   8.945   8.726   1.512 -0.9255  2.1742  0.6256
  444MOL0     H58582   8.780   8.875   1.318  2.4552  2.1692  0.5787
  444MOL0     H58583   8.855   8.944   1.453  0.6398 -0.3265 -0.0318
  444MOL0     H58584   8.655   8.711   1.499  3.0430 -1.3960  0.1947
  444MOL0     H58585   8.600   8.866   1.497  0.3894  1.1820  1.3193
  444MOL0     H58586   8.805   8.738   1.693  0.0568  0.8221  2.3648
  444MOL0     H58587   8.774   8.906   1.696 -3.4387  0.1001  2.3893
  444MOL0     H58588   8.527   8.836   1.730  0.8105  1.1472 -0.8792
  444MOL0     H58589   8.643   8.786   1.864 -1.6139  1.8789  0.8440
  444MOL0     H58590   9.529   8.821   1.279  0.9747 -0.3853 -0.4902
  444MOL0     H58591   9.746   8.763   1.376 -0.7341  0.7006 -2.1463
  444MOL0     H58592   9.981   8.489   1.750  0.4312  0.2910  0.4070
  444MOL0     H58593  10.191   8.465   1.881  2.6087  0.8988 -0.0404
  444MOL0     H58594   9.890   8.062   2.928 -1.0648 -1.2417 -0.8755
  444MOL0     H58595   9.682   8.193   2.846 -1.3481  1.3816 -3.4484
  444MOL0     H58596   9.534   8.493   2.513 -1.9253  1.3108  0.1230
  444MOL0     H58597   9.331   8.592   2.407 -0.4750 -0.0723  1.3099
  444MOL0     H58598   9.012   8.333   2.218 -1.2259  0.7680 -1.3209
  444MOL0     H58599   9.143   8.399   2.094  0.2397  2.9270  0.0350
  444MOL0     H58600   8.912   8.456   2.058  1.3681 -3.3184  1.2120
  444MOL0     H58601   8.913   8.541   2.210  0.3319 -0.1462  0.2002
  444MOL0     H58602   9.146   8.652   2.048  0.4013 -1.2844 -2.1141
  444MOL0     H58603   9.013   8.728   2.134  0.3441  0.6218 -0.3552
  444MOL0     H58604   8.871   8.689   1.940 -0.1181  0.7250  2.9950
  444MOL0     H58605   9.020   8.786   1.898  0.8739  0.5779  4.2794
  444MOL0     H58606   9.043   8.491   1.617 -2.0379 -0.3916  0.0319
  444MOL0     H58607   9.225   8.210   2.263  1.5668 -1.5585  0.3228
  444MOL0     H58608   9.418   8.101   2.381  2.2908  0.1909 -2.0326
  445MOL0     O58609  11.073   8.794   9.210 -1.0634  0.8449  0.0247
  445MOL0     C58610  11.171   8.824   9.138 -1.1169 -0.5006  0.6909
  445MOL0     O58611  11.162   8.853   8.999  0.4929 -0.6135 -0.2074
  445MOL0     C58612  11.042   8.828   8.943  1.1688  0.9811 -0.3089
  445MOL0     C58613  10.992   8.928   8.862  0.7578  0.0675 -0.1517
  445MOL0     C58614  10.884   8.902   8.780  0.2556  0.4317 -0.2867
  445MOL0     C58615  10.830   8.771   8.784  0.6469  0.6268  0.0372
  445MOL0     O58616  10.728   8.722   8.700 -0.4299  0.7293  0.2378
  445MOL0     C58617  10.709   8.791   8.570 -0.7413 -0.3821 -0.6071
  445MOL0     C58618  10.621   8.703   8.482 -0.8732  0.2557 -0.9635
  445MOL0     C58619  10.582   8.775   8.355  0.3279  0.6592  0.9623
  445MOL0     C58620  10.518   8.674   8.263  0.0290  0.6808 -0.0335
  445MOL0     C58621  10.484   8.735   8.127  0.4600  0.3269 -0.1064
  445MOL0     C58622  10.387   8.650   8.039 -1.0474 -0.0963 -0.4698
  445MOL0     C58623  10.381   8.708   7.896 -0.3978  0.1294 -0.4193
  445MOL0     C58624  10.243   8.676   7.824 -0.4333 -0.4155 -0.2444
  445MOL0     N58625  10.209   8.802   7.747 -0.0226 -0.0478  1.2175
  445MOL0     C58626  10.089   8.853   7.716  0.1570 -1.5600 -0.5597
  445MOL0     C58627  10.097   8.968   7.639  0.0189  0.5324  0.1024
  445MOL0     C58628   9.995   9.067   7.585  0.0709 -0.5191  0.2604
  445MOL0     C58629   9.844   9.041   7.617 -0.6551  0.0869 -0.2980
  445MOL0     C58630   9.819   9.068   7.767 -0.3894  0.0985  0.5391
  445MOL0     C58631   9.668   9.065   7.806  0.8390 -0.2933 -1.9019
  445MOL0     O58632   9.599   9.179   7.761  0.6816  1.4603 -0.0509
  445MOL0     C58633   9.460   9.189   7.760 -0.3175  0.0297 -0.7978
  445MOL0     C58634   9.373   9.089   7.800  0.4239  0.2294 -0.3968
  445MOL0     C58635   9.237   9.103   7.800  0.1205  0.3053 -0.0500
  445MOL0     C58636   9.176   9.213   7.727  0.6801  0.4646  1.3366
  445MOL0     C58637   9.030   9.209   7.708 -0.1150 -0.7437 -0.1651
  445MOL0     O58638   8.966   9.093   7.741  0.4791 -0.3148 -0.2228
  445MOL0     C58639   8.829   9.082   7.759 -0.4262 -0.5452  0.1966
  445MOL0     C58640   8.763   8.963   7.738 -0.2160 -0.8888 -0.4616
  445MOL0     C58641   8.632   8.943   7.753 -0.3746 -0.6747 -0.3071
  445MOL0     C58642   8.546   9.048   7.784  0.3893 -0.1337  0.2978
  445MOL0     O58643   8.410   9.018   7.797 -0.1312 -0.4889  0.0541
  445MOL0     C58644   8.330   9.095   7.891 -0.2281  1.1297 -0.0678
  445MOL0     C58645   8.194   9.014   7.919 -1.0873 -0.4799 -0.1686
  445MOL0     C58646   8.080   9.071   7.835  0.3724  0.5419  0.1779
  445MOL0     C58647   8.115   9.089   7.678 -0.0693  0.0901  0.8764
  445MOL0     C58648   7.993   9.057   7.585  0.0390  0.4721  0.8638
  445MOL0     C58649   7.853   9.098   7.640 -0.0286 -0.3055 -0.2068
  445MOL0     C58650   7.846   9.248   7.670 -0.3511 -0.0169 -0.5762
  445MOL0     C58651   7.719   9.304   7.726  0.4094 -0.0319  0.1963
  445MOL0    Cl58652   7.588   9.254   7.621  0.2707  0.2102 -0.3533
  445MOL0     C58653   8.608   9.177   7.801 -0.2661 -0.2896 -0.8139
  445MOL0     C58654   8.743   9.190   7.783 -0.0774 -0.5039 -0.0541
  445MOL0     O58655   8.979   9.312   7.661  0.0469 -0.8068  0.1250
  445MOL0     C58656   9.261   9.314   7.674  0.6252  0.2290 -0.1527
  445MOL0     C58657   9.404   9.298   7.689  0.4964  0.2399 -0.3247
  445MOL0     N58658  10.233   8.956   7.606 -0.4556  0.6971  0.1978
  445MOL0     N58659  10.297   8.871   7.670 -0.2424 -0.6323 -0.1472
  445MOL0     C58660  10.880   8.668   8.866  0.3172 -0.2247  1.4114
  445MOL0     C58661  10.991   8.694   8.939  0.3937 -0.1038 -0.4356
  445MOL0     C58662  11.312   8.819   9.188  0.6288  0.0853  0.6927
  445MOL0     C58663  11.326   8.801   9.324 -1.4585  0.6063 -0.7499
  445MOL0     C58664  11.450   8.827   9.387  0.7011 -0.4534  0.4704
  445MOL0     C58665  11.557   8.849   9.314  0.0221  0.0269 -0.1766
  445MOL0     O58666  11.673   8.855   9.385 -0.8658  0.4765 -0.3039
  445MOL0     C58667  11.792   8.924   9.331  0.4820  0.2156  0.3369
  445MOL0     C58668  11.915   8.901   9.413 -0.5333  0.6088  0.8870
  445MOL0     C58669  11.987   8.772   9.367 -0.7649 -0.1667 -0.6669
  445MOL0     C58670  11.922   8.638   9.413 -0.3177  0.3850 -0.0045
  445MOL0     C58671  12.013   8.525   9.382 -0.6604  0.2261  0.3088
  445MOL0     C58672  12.134   8.371   9.374 -0.0514  0.3081  0.0491
  445MOL0     C58673  11.551   8.843   9.177 -0.3509  0.3981  0.0943
  445MOL0     C58674  11.425   8.835   9.112 -0.2623 -0.2010  0.0979
  445MOL0     H58675  11.033   9.028   8.858  3.2067 -0.8991 -1.1588
  445MOL0     H58676  10.844   8.976   8.712 -2.8698 -0.5346  0.2910
  445MOL0     H58677  10.808   8.805   8.525 -0.0464  0.6738  1.1557
  445MOL0     H58678  10.655   8.885   8.586 -0.6305 -0.6757  1.8249
  445MOL0     H58679  10.537   8.681   8.548  1.2136  0.3941  1.9349
  445MOL0     H58680  10.668   8.605   8.474  0.8222  0.8345  1.0210
  445MOL0     H58681  10.671   8.814   8.304 -0.1382 -0.4592 -0.8113
  445MOL0     H58682  10.516   8.861   8.368 -3.0440 -1.7688  1.2878
  445MOL0     H58683  10.594   8.596   8.251 -0.7808 -0.6991  2.8923
  445MOL0     H58684  10.431   8.634   8.316 -0.0905 -1.7420 -1.9013
  445MOL0     H58685  10.579   8.747   8.074  0.0154  1.7322 -0.6440
  445MOL0     H58686  10.434   8.832   8.135 -3.5333 -1.5145 -0.1894
  445MOL0     H58687  10.289   8.661   8.087 -0.6317 -2.7044  1.1676
  445MOL0     H58688  10.420   8.546   8.037 -1.2611 -0.1829  0.2075
  445MOL0     H58689  10.407   8.814   7.892  1.0441 -0.2382 -1.9485
  445MOL0     H58690  10.456   8.659   7.833 -2.6317 -3.0115 -0.8633
  445MOL0     H58691  10.167   8.668   7.903  0.0523  1.5317  0.4709
  445MOL0     H58692  10.258   8.585   7.766  1.3589 -0.4527  0.2178
  445MOL0     H58693   9.990   8.817   7.742 -0.9939  1.3782 -0.4766
  445MOL0     H58694   9.998   9.073   7.476  0.6597  1.9397  0.3615
  445MOL0     H58695  10.025   9.169   7.612 -2.1332  0.2467  0.0644
  445MOL0     H58696   9.828   8.936   7.593  1.2405  0.4032 -3.3353
  445MOL0     H58697   9.779   9.101   7.553  0.4949  0.3293 -1.2638
  445MOL0     H58698   9.869   8.987   7.821 -0.5788 -0.4188 -0.0462
  445MOL0     H58699   9.864   9.162   7.799 -2.6479  1.7611 -0.9185
  445MOL0     H58700   9.658   9.058   7.915 -2.4365  2.6386 -1.8364
  445MOL0     H58701   9.619   8.978   7.761 -0.5294 -1.9252  2.2541
  445MOL0     H58702   9.408   8.993   7.839 -1.1510 -0.3461 -0.2891
  445MOL0     H58703   9.173   9.033   7.853 -1.1396  1.7362  0.3971
  445MOL0     H58704   8.816   8.870   7.722 -2.4342 -2.2234 -0.4324
  445MOL0     H58705   8.587   8.845   7.744 -2.1025 -0.2991  2.8413
  445MOL0     H58706   8.305   9.186   7.836  0.1254  0.5545 -1.2121
  445MOL0     H58707   8.383   9.122   7.983  2.6934 -1.1913 -0.8995
  445MOL0     H58708   8.165   9.014   8.025 -4.5774 -3.1160 -0.9032
  445MOL0     H58709   8.215   8.912   7.886  4.7129  0.8662 -1.8028
  445MOL0     H58710   8.041   9.163   7.879  0.6822  0.8759 -0.2314
  445MOL0     H58711   7.999   8.998   7.837  0.2504  0.6369 -0.7193
  445MOL0     H58712   8.147   9.193   7.668  1.4546 -0.5035 -0.9848
  445MOL0     H58713   8.201   9.036   7.634  0.2120  0.9220  0.4102
  445MOL0     H58714   7.979   8.949   7.571 -0.5137  0.9187 -3.6639
  445MOL0     H58715   8.011   9.101   7.486 -0.6889 -3.4464 -1.2043
  445MOL0     H58716   7.830   9.044   7.732 -0.2455  1.2489  0.6798
  445MOL0     H58717   7.785   9.065   7.560  0.2846 -1.3494 -0.0644
  445MOL0     H58718   7.926   9.288   7.733 -2.2636  4.6934 -0.7383
  445MOL0     H58719   7.859   9.281   7.567 -0.8804 -1.5010 -1.1417
  445MOL0     H58720   7.727   9.413   7.733  1.4243 -0.0878  0.0051
  445MOL0     H58721   7.694   9.258   7.822  0.0639 -1.6749 -0.6518
  445MOL0     H58722   8.551   9.269   7.813  0.6949  0.1624  0.5666
  445MOL0     H58723   8.783   9.291   7.790  1.0449 -0.8061 -1.6846
  445MOL0     H58724   9.218   9.403   7.628 -0.3673 -0.7984 -1.3095
  445MOL0     H58725   9.463   9.370   7.633  3.3482 -2.6006 -1.2900
  445MOL0     H58726  10.861   8.563   8.847  2.4053 -0.3388 -0.5677
  445MOL0     H58727  11.038   8.613   8.994  1.4701 -0.0239 -1.2146
  445MOL0     H58728  11.239   8.787   9.388  0.1345  1.8901  1.8797
  445MOL0     H58729  11.463   8.826   9.495  3.8794 -1.4685  0.1718
  445MOL0     H58730  11.775   9.032   9.331 -0.6911  0.0439  0.0649
  445MOL0     H58731  11.803   8.892   9.227 -3.5701  1.6905 -0.7148
  445MOL0     H58732  11.975   8.990   9.433 -0.3366  1.0878 -1.5427
  445MOL0     H58733  11.880   8.885   9.515 -1.0706 -0.8745  0.4911
  445MOL0     H58734  12.084   8.783   9.416 -1.4133  1.7486  0.2623
  445MOL0     H58735  11.996   8.771   9.258  1.3741 -1.4150 -0.5543
  445MOL0     H58736  11.883   8.639   9.515 -4.5454 -1.7048 -1.3743
  445MOL0     H58737  11.835   8.624   9.349 -1.4453 -1.2810  1.7763
  445MOL0     H58738  12.207   8.293   9.386  0.5139  0.3950 -2.3030
  445MOL0     H58739  11.637   8.860   9.112  0.8651 -2.5891  0.7431
  445MOL0     H58740  11.398   8.860   9.010  3.3698 -1.2975 -1.3061
  446MOL0     O58741   4.168   9.615   3.683 -0.6303 -0.1537 -0.2517
  446MOL0     C58742   4.234   9.511   3.663  0.3057 -0.9288  0.8755
  446MOL0     O58743   4.230   9.394   3.737 -0.2870 -0.3112 -0.6848
  446MOL0     C58744   4.139   9.366   3.838 -0.1290 -0.3027  0.7864
  446MOL0     C58745   4.174   9.248   3.898  1.0287  0.5355  0.0115
  446MOL0     C58746   4.105   9.195   4.005 -0.4939 -0.3241  0.5084
  446MOL0     C58747   4.005   9.273   4.064  0.1641  0.6739  0.2690
  446MOL0     O58748   3.941   9.237   4.181  0.4643 -0.4432 -0.1105
  446MOL0     C58749   3.965   9.107   4.237  0.2794 -0.2649  0.0972
  446MOL0     C58750   3.871   9.100   4.361  0.4089  0.1052 -0.9787
  446MOL0     C58751   3.723   9.060   4.335 -0.0652  0.4157 -0.8076
  446MOL0     C58752   3.650   9.185   4.275 -0.1868 -0.6843 -1.3930
  446MOL0     C58753   3.498   9.183   4.298  0.3446  1.2606 -0.3126
  446MOL0     C58754   3.421   9.060   4.226 -0.2371  0.5634 -0.1694
  446MOL0     C58755   3.272   9.081   4.184 -0.0993 -0.4719 -0.4312
  446MOL0     C58756   3.185   9.089   4.317  0.5613 -0.6140  0.1769
  446MOL0     N58757   3.049   9.127   4.305 -0.0762  0.0990  0.4485
  446MOL0     C58758   3.012   9.250   4.267 -0.0114  0.7357  0.4395
  446MOL0     C58759   2.883   9.237   4.236 -0.2177 -0.1031  0.5038
  446MOL0     C58760   2.766   9.337   4.204 -0.0503 -0.2500  1.0131
  446MOL0     C58761   2.796   9.480   4.242 -0.4197  0.8569 -0.1552
  446MOL0     C58762   2.830   9.502   4.389 -0.3366  0.2045 -0.4029
  446MOL0     C58763   2.722   9.455   4.492 -0.2431 -0.5146 -0.1414
  446MOL0     O58764   2.601   9.513   4.450  0.5742 -0.4623 -0.4083
  446MOL0     C58765   2.481   9.485   4.514 -0.4034  0.0105 -0.0913
  446MOL0     C58766   2.375   9.561   4.483  0.1954 -0.3469 -0.1642
  446MOL0     C58767   2.255   9.556   4.548  0.1500  0.3000  0.1264
  446MOL0     C58768   2.230   9.463   4.645 -0.1122  0.1796 -1.0769
  446MOL0     C58769   2.103   9.466   4.727 -0.0522 -0.2197 -1.2756
  446MOL0     O58770   2.106   9.409   4.851 -0.4416 -0.2491 -0.0891
  446MOL0     C58771   1.992   9.393   4.927 -0.4483 -1.2384 -0.5017
  446MOL0     C58772   1.993   9.460   5.054  0.1106  1.2215  0.6390
  446MOL0     C58773   1.873   9.461   5.136  0.2155 -0.0717 -0.7532
  446MOL0     C58774   1.768   9.381   5.107  0.9866  0.8305  0.5849
  446MOL0     O58775   1.657   9.384   5.178  0.4648  0.4012 -1.0112
  446MOL0     C58776   1.609   9.257   5.232  0.1831 -0.1395  0.3849
  446MOL0     C58777   1.702   9.203   5.342 -0.6625  0.6473 -0.2136
  446MOL0     C58778   1.746   9.307   5.450 -0.3652  0.0020 -1.2802
  446MOL0     C58779   1.886   9.273   5.501 -0.2302 -0.5444 -0.9967
  446MOL0     C58780   1.924   9.385   5.604  0.5998 -0.1956  0.1831
  446MOL0     C58781   2.043   9.349   5.682  0.1605 -0.6224  0.6006
  446MOL0     C58782   2.087   9.464   5.774 -0.5337 -0.2616  0.3397
  446MOL0     C58783   2.139   9.420   5.914  0.4989  0.6664 -0.1762
  446MOL0    Cl58784   2.017   9.337   6.013  0.0215 -0.3138 -0.1374
  446MOL0     C58785   1.774   9.299   4.993  0.4744 -0.6520 -0.0323
  446MOL0     C58786   1.879   9.310   4.900 -0.7565  0.0532 -0.9977
  446MOL0     O58787   2.006   9.524   4.685  0.6630  0.2813  0.3575
  446MOL0     C58788   2.340   9.390   4.683 -0.0130  0.4773 -0.0196
  446MOL0     C58789   2.465   9.408   4.629  0.2517  0.2481  0.9162
  446MOL0     N58790   2.846   9.105   4.238 -0.0679  0.0769 -0.6077
  446MOL0     N58791   2.941   9.038   4.293 -0.5438 -0.9047  0.5518
  446MOL0     C58792   3.959   9.389   3.995  0.0350 -1.3532  0.4462
  446MOL0     C58793   4.025   9.440   3.880  0.3318  0.4057  0.3026
  446MOL0     C58794   4.326   9.539   3.552  0.0348 -0.4112  0.2711
  446MOL0     C58795   4.310   9.629   3.448 -0.2096 -0.8950  0.3521
  446MOL0     C58796   4.409   9.634   3.342  1.0253  0.6738  0.9550
  446MOL0     C58797   4.517   9.542   3.337 -0.0279 -0.1475 -0.2468
  446MOL0     O58798   4.611   9.551   3.230  0.2872 -0.1087 -0.0390
  446MOL0     C58799   4.715   9.462   3.206 -0.0193 -0.1338  0.1422
  446MOL0     C58800   4.674   9.332   3.129  0.4633  0.1674  0.5767
  446MOL0     C58801   4.789   9.234   3.121  0.2089 -0.1968  0.5644
  446MOL0     C58802   4.903   9.272   3.028 -0.7959 -0.2425  0.1133
  446MOL0     C58803   5.016   9.180   3.029  0.4347  0.4759 -0.4293
  446MOL0     C58804   5.109   9.107   3.006  0.1742  0.4075  0.1960
  446MOL0     C58805   4.536   9.454   3.436 -0.2780  0.2643  0.3025
  446MOL0     C58806   4.442   9.456   3.545 -0.0621  0.3637 -0.0514
  446MOL0     H58807   4.242   9.174   3.858 -0.9117 -1.2454 -0.1376
  446MOL0     H58808   4.134   9.094   4.033  0.6507  0.0157  0.5697
  446MOL0     H58809   4.059   9.069   4.276  0.6590  0.0168 -0.5194
  446MOL0     H58810   3.937   9.040   4.154  0.3383  3.2237 -2.9803
  446MOL0     H58811   3.883   9.190   4.421  1.8641 -1.1363  0.7107
  446MOL0     H58812   3.908   9.018   4.424 -0.2416  0.0270 -0.6945
  446MOL0     H58813   3.676   9.032   4.430 -1.9260 -2.3331 -2.4043
  446MOL0     H58814   3.699   8.977   4.268 -1.6248 -0.3131  0.5846
  446MOL0     H58815   3.688   9.270   4.333  4.2316 -3.9741  1.0803
  446MOL0     H58816   3.671   9.200   4.168 -0.9379  1.0794 -1.3335
  446MOL0     H58817   3.461   9.284   4.277 -0.5641  1.3812  1.5965
  446MOL0     H58818   3.492   9.188   4.407  3.2194  0.5088 -0.0435
  446MOL0     H58819   3.423   8.979   4.300 -1.9638  0.8599  0.2523
  446MOL0     H58820   3.479   9.025   4.140 -1.4251 -1.5591 -0.1814
  446MOL0     H58821   3.264   9.175   4.130  2.4999 -0.5501 -1.0703
  446MOL0     H58822   3.236   9.000   4.120 -1.6573  0.1501 -0.3889
  446MOL0     H58823   3.231   9.161   4.385  1.6185 -2.1174  1.1223
  446MOL0     H58824   3.189   8.991   4.366 -4.9810 -0.6212  1.3261
  446MOL0     H58825   3.083   9.332   4.264  1.6913 -0.6832 -0.9459
  446MOL0     H58826   2.672   9.301   4.247  0.0098 -0.5944  0.8588
  446MOL0     H58827   2.762   9.332   4.095 -1.8943 -0.1990  1.0437
  446MOL0     H58828   2.707   9.533   4.209 -0.9278  0.0547 -0.1061
  446MOL0     H58829   2.879   9.523   4.185  0.3922 -0.0200  0.3307
  446MOL0     H58830   2.925   9.452   4.411 -0.6328  0.7717  2.4850
  446MOL0     H58831   2.844   9.610   4.398 -0.4180  1.0755 -6.5558
  446MOL0     H58832   2.754   9.503   4.585  1.7089  0.9266 -1.4791
  446MOL0     H58833   2.720   9.346   4.491 -1.7483 -0.5275 -1.8212
  446MOL0     H58834   2.386   9.643   4.412  1.2274  0.9558  1.4323
  446MOL0     H58835   2.186   9.624   4.501 -0.1409 -2.5435 -4.1246
  446MOL0     H58836   2.085   9.506   5.089  1.2600 -1.0679  0.7436
  446MOL0     H58837   1.875   9.516   5.229  1.2307 -2.2941  0.6048
  446MOL0     H58838   1.590   9.196   5.144  2.9631 -1.6502  0.7019
  446MOL0     H58839   1.510   9.283   5.268  0.5296  1.8105  0.0768
  446MOL0     H58840   1.789   9.154   5.299 -0.9031 -0.5936  0.6511
  446MOL0     H58841   1.650   9.119   5.389  0.9417  0.4104  1.2195
  446MOL0     H58842   1.678   9.279   5.531  1.1919 -2.1719 -0.6239
  446MOL0     H58843   1.743   9.413   5.425  1.9784  2.1749  5.4822
  446MOL0     H58844   1.877   9.178   5.556 -2.2186  1.2603  2.0956
  446MOL0     H58845   1.962   9.263   5.422 -0.8739 -1.4982 -1.5218
  446MOL0     H58846   1.843   9.404   5.675  2.6853  1.3017  2.3262
  446MOL0     H58847   1.946   9.478   5.551 -0.3314 -1.4396 -2.5984
  446MOL0     H58848   2.121   9.339   5.606 -1.0758  1.1836 -0.9855
  446MOL0     H58849   2.021   9.256   5.735 -3.5497  0.6915  1.6659
  446MOL0     H58850   2.176   9.504   5.725  0.5789  0.1213  2.5586
  446MOL0     H58851   2.015   9.544   5.793  1.2104  1.6144 -0.5402
  446MOL0     H58852   2.195   9.496   5.968  3.5309 -0.0612 -2.0253
  446MOL0     H58853   2.219   9.351   5.884 -2.3591 -2.6741 -0.7426
  446MOL0     H58854   1.692   9.234   4.961 -0.7127  0.2135  1.1499
  446MOL0     H58855   1.883   9.247   4.812  0.6305  1.1026 -1.7161
  446MOL0     H58856   2.329   9.318   4.764 -2.1982 -2.3626 -2.5760
  446MOL0     H58857   2.558   9.367   4.670  1.8011  2.1542 -0.5062
  446MOL0     H58858   3.880   9.448   4.041  0.8230  1.1071 -1.1016
  446MOL0     H58859   3.997   9.536   3.837 -0.3072  2.3354  4.4490
  446MOL0     H58860   4.217   9.677   3.417  0.6871  0.2047 -0.7787
  446MOL0     H58861   4.389   9.702   3.260  3.5776  0.4701  0.1051
  446MOL0     H58862   4.771   9.433   3.296  1.0143 -1.3262 -0.8467
  446MOL0     H58863   4.784   9.522   3.145 -0.7978  1.3419  0.6496
  446MOL0     H58864   4.605   9.270   3.187 -0.2753  2.0565  1.8309
  446MOL0     H58865   4.630   9.354   3.031  1.0924 -1.4305 -0.0931
  446MOL0     H58866   4.753   9.133   3.098  3.9677 -1.2495 -1.7867
  446MOL0     H58867   4.829   9.243   3.222 -0.9140 -1.1405  1.1108
  446MOL0     H58868   4.870   9.295   2.927  2.9212 -0.9003 -1.4272
  446MOL0     H58869   4.951   9.362   3.067  0.0274 -0.4277 -0.4480
  446MOL0     H58870   5.190   9.038   2.989 -1.4989 -1.5094 -0.4222
  446MOL0     H58871   4.616   9.381   3.435  1.2589  1.7936  2.3225
  446MOL0     H58872   4.461   9.386   3.626 -2.2257  1.7629  1.7650
  447MOL0     O58873   6.396   0.603   8.509 -0.6404 -0.1338 -0.7085
  447MOL0     C58874   6.298   0.568   8.575 -0.0839  0.4686 -0.2383
  447MOL0     O58875   6.299   0.455   8.656  0.5227 -0.5397 -0.0750
  447MOL0     C58876   6.422   0.390   8.671 -0.7036  0.6548 -0.8990
  447MOL0     C58877   6.423   0.255   8.652 -0.6939  0.2198 -0.1401
  447MOL0     C58878   6.533   0.175   8.668 -0.0085  0.5133 -0.1554
  447MOL0     C58879   6.653   0.237   8.717 -0.3411  0.3467  0.0515
  447MOL0     O58880   6.770   0.162   8.729 -0.1158 -0.5616  0.3016
  447MOL0     C58881   6.893   0.222   8.690 -0.1356 -0.1852 -0.2238
  447MOL0     C58882   7.001   0.118   8.702 -0.5328  0.4858 -0.1762
  447MOL0     C58883   7.138   0.185   8.683 -0.3174  0.0489 -0.2079
  447MOL0     C58884   7.242   0.079   8.705  0.4502 -0.5782 -0.1381
  447MOL0     C58885   7.372   0.142   8.691 -0.9529 -0.1522 -0.4106
  447MOL0     C58886   7.447   0.168   8.828 -0.0850  0.1127  0.2449
  447MOL0     C58887   7.591   0.209   8.790 -0.4033 -0.4151 -0.7057
  447MOL0     C58888   7.689   0.083   8.802  0.4632 -0.4365 -0.8687
  447MOL0     N58889   7.830   0.113   8.758 -0.0534 -0.2856  0.0510
  447MOL0     C58890   7.939   0.119   8.842 -0.0785 -0.3975 -0.5634
  447MOL0     C58891   8.040   0.139   8.759  0.2622  0.3143  0.3270
  447MOL0     C58892   8.184   0.165   8.794 -0.0471 -0.2349  0.6926
  447MOL0     C58893   8.274   0.035   8.778  1.5055  0.0206  0.5924
  447MOL0     C58894   8.258  -0.020   8.629  0.2014  0.2843  0.3675
  447MOL0     C58895   8.311   0.067   8.516 -0.1821  0.6104  0.2560
  447MOL0     O58896   8.322  -0.006   8.393 -0.7277  0.5097 -0.4838
  447MOL0     C58897   8.207  -0.033   8.315 -0.1408  0.3750  0.0849
  447MOL0     C58898   8.196  -0.147   8.228 -0.5725 -0.6627 -1.0906
  447MOL0     C58899   8.083  -0.171   8.157 -0.7837  0.0073  0.4121
  447MOL0     C58900   7.976  -0.086   8.159  0.1596  0.4093  0.0087
  447MOL0     C58901   7.856  -0.112   8.080  0.0782 -1.1058 -0.1782
  447MOL0     O58902   7.783   0.004   8.047 -0.0719  0.5973 -0.2285
  447MOL0     C58903   7.661   0.003   7.989 -0.4420 -0.0281 -0.5735
  447MOL0     C58904   7.567  -0.099   8.007 -1.1928  0.7176 -0.4582
  447MOL0     C58905   7.438  -0.083   7.952  0.4779  1.0875 -0.8007
  447MOL0     C58906   7.398   0.040   7.893 -0.1166  0.8682 -0.6706
  447MOL0     O58907   7.274   0.053   7.848  0.1220 -0.2837 -0.2834
  447MOL0     C58908   7.190  -0.053   7.811  0.2767 -0.1514 -0.4061
  447MOL0     C58909   7.061   0.002   7.733 -0.5867  0.3356  0.0359
  447MOL0     C58910   6.979   0.073   7.829  0.3958  0.0684 -0.1951
  447MOL0     C58911   6.858   0.150   7.772 -0.7467 -0.1109  0.5953
  447MOL0     C58912   6.749   0.056   7.700 -0.3504  0.2557  0.3875
  447MOL0     C58913   6.703  -0.072   7.772  0.4181  0.2142 -0.2315
  447MOL0     C58914   6.647  -0.044   7.910  0.2699  0.1931  0.1972
  447MOL0     C58915   6.573  -0.166   7.967 -0.2947  0.3404  0.2084
  447MOL0    Cl58916   6.444  -0.227   7.863 -0.1600  0.1629  0.0951
  447MOL0     C58917   7.483   0.148   7.890 -0.0815 -0.5883  0.4543
  447MOL0     C58918   7.618   0.130   7.937  1.0806 -0.3025  1.3159
  447MOL0     O58919   7.847  -0.214   8.015  0.2339 -1.1125  0.5441
  447MOL0     C58920   7.985   0.021   8.244  0.8236 -0.1937 -1.1028
  447MOL0     C58921   8.094   0.057   8.314 -0.2338  0.5849  0.7413
  447MOL0     N58922   7.993   0.154   8.625 -0.5629  0.1845 -0.0367
  447MOL0     N58923   7.867   0.127   8.629 -0.1645 -0.1498 -0.5564
  447MOL0     C58924   6.659   0.377   8.738  0.0859 -0.1938  0.2739
  447MOL0     C58925   6.543   0.452   8.716 -0.3090  0.2178  0.0765
  447MOL0     C58926   6.173   0.650   8.555  0.0997  0.5017  0.2106
  447MOL0     C58927   6.055   0.603   8.619  0.2236 -0.4250  0.2684
  447MOL0     C58928   5.935   0.671   8.604  0.5026  0.1761 -0.1516
  447MOL0     C58929   5.931   0.796   8.524  0.6323  0.6222 -0.4434
  447MOL0     O58930   5.817   0.867   8.525  0.1395 -0.0408  0.4714
  447MOL0     C58931   5.700   0.801   8.477 -0.0256  0.6784 -0.3763
  447MOL0     C58932   5.647   0.875   8.348  0.1358 -0.5297 -0.0879
  447MOL0     C58933   5.500   0.837   8.309  0.1974  0.8642 -1.1880
  447MOL0     C58934   5.446   0.912   8.182  0.4286 -0.8457 -0.2136
  447MOL0     C58935   5.470   1.053   8.200 -0.7452  0.2362 -0.2506
  447MOL0     C58936   5.500   1.170   8.218  1.0935  0.8567 -0.5707
  447MOL0     C58937   6.049   0.840   8.461 -0.2052  0.0059 -1.4228
  447MOL0     C58938   6.167   0.772   8.472 -0.1293  0.2441 -1.2096
  447MOL0     H58939   6.340   0.212   8.597  0.8171  1.0314 -3.3250
  447MOL0     H58940   6.524   0.070   8.641  0.9152  0.4122 -0.1011
  447MOL0     H58941   6.908   0.310   8.753 -1.7809 -1.2114  1.7043
  447MOL0     H58942   6.881   0.245   8.584  1.2507 -0.0477 -0.3659
  447MOL0     H58943   6.982   0.030   8.640 -1.3721  0.8394 -0.4357
  447MOL0     H58944   7.002   0.072   8.801 -1.3466  2.4441  0.7807
  447MOL0     H58945   7.150   0.275   8.745 -2.1641 -0.2699  0.6769
  447MOL0     H58946   7.142   0.218   8.579 -0.8175  0.3849 -0.1235
  447MOL0     H58947   7.227   0.026   8.800 -0.9583  1.2534  0.7212
  447MOL0     H58948   7.234  -0.002   8.632  2.0295 -0.5932 -0.3274
  447MOL0     H58949   7.363   0.235   8.634 -2.8430 -1.8831 -3.1372
  447MOL0     H58950   7.436   0.081   8.626 -0.5634  1.0264 -1.1679
  447MOL0     H58951   7.454   0.078   8.890  2.3741 -0.0411 -0.1626
  447MOL0     H58952   7.390   0.239   8.889  0.1816  2.3105 -1.9050
  447MOL0     H58953   7.610   0.243   8.688  1.0920  2.3962  0.3746
  447MOL0     H58954   7.640   0.287   8.850 -0.4043 -1.2309  0.3802
  447MOL0     H58955   7.645   0.010   8.734 -0.8058 -0.9675  0.4680
  447MOL0     H58956   7.689   0.033   8.899  1.0234  0.0852 -0.5975
  447MOL0     H58957   7.948   0.098   8.948 -1.1812  1.5259 -0.0554
  447MOL0     H58958   8.205   0.218   8.888  1.7639  0.5116 -0.0678
  447MOL0     H58959   8.218   0.241   8.724 -2.5685 -0.9782 -1.4835
  447MOL0     H58960   8.260  -0.044   8.853 -0.9082 -0.8410 -0.6418
  447MOL0     H58961   8.373   0.079   8.792  1.1075  1.2202 -0.1411
  447MOL0     H58962   8.325  -0.105   8.616  0.2208  0.5987 -2.2448
  447MOL0     H58963   8.156  -0.050   8.602 -1.2268  4.0417  0.9253
  447MOL0     H58964   8.413   0.098   8.541 -0.3929  0.9013  0.7616
  447MOL0     H58965   8.254   0.160   8.516 -1.2795 -0.0225 -0.4263
  447MOL0     H58966   8.281  -0.214   8.219 -0.3913 -0.3686 -1.6084
  447MOL0     H58967   8.084  -0.259   8.094 -3.7849  1.7869 -2.4443
  447MOL0     H58968   7.578  -0.195   8.057  0.1218 -0.1044 -2.2359
  447MOL0     H58969   7.370  -0.167   7.947 -0.6000  1.6443  2.3740
  447MOL0     H58970   7.148  -0.106   7.897 -1.7141  1.0279 -0.6046
  447MOL0     H58971   7.249  -0.121   7.749 -0.3418 -0.6728 -0.4282
  447MOL0     H58972   7.000  -0.079   7.693 -1.3109  0.9911 -0.2105
  447MOL0     H58973   7.096   0.065   7.651  0.6494  1.2243  1.1928
  447MOL0     H58974   7.028   0.151   7.888 -1.4424 -1.2210  3.2742
  447MOL0     H58975   6.943   0.003   7.904 -1.3340  1.9305  0.8331
  447MOL0     H58976   6.805   0.193   7.857 -0.5615 -2.3124  1.9067
  447MOL0     H58977   6.889   0.228   7.702 -0.5230  1.7557  2.6529
  447MOL0     H58978   6.780   0.027   7.599  2.0349 -0.7452  1.3490
  447MOL0     H58979   6.663   0.121   7.682  0.5296  1.5308  0.6515
  447MOL0     H58980   6.780  -0.147   7.793 -0.2036 -0.2645  0.3791
  447MOL0     H58981   6.637  -0.119   7.699 -0.9612  0.9006  0.5413
  447MOL0     H58982   6.736  -0.020   7.969  1.2407 -0.5039 -0.9674
  447MOL0     H58983   6.584   0.046   7.909 -2.4045 -1.5477 -1.2151
  447MOL0     H58984   6.542  -0.146   8.070 -0.9658  0.6904 -0.0580
  447MOL0     H58985   6.648  -0.244   7.983  0.1623  1.0226  1.5488
  447MOL0     H58986   7.447   0.243   7.852 -0.1960 -0.5765  0.5933
  447MOL0     H58987   7.677   0.221   7.940  1.8875 -0.8435  3.0560
  447MOL0     H58988   7.897   0.083   8.255  1.3000  0.4074 -0.5870
  447MOL0     H58989   8.096   0.153   8.365 -0.4446  0.9062  0.1515
  447MOL0     H58990   6.752   0.424   8.766  0.8865 -2.9002  2.5688
  447MOL0     H58991   6.549   0.559   8.733 -0.7558  0.3999 -0.8264
  447MOL0     H58992   6.060   0.515   8.682  2.4463  0.6083  1.6304
  447MOL0     H58993   5.845   0.636   8.654 -0.4078 -0.1214 -1.9148
  447MOL0     H58994   5.622   0.810   8.553 -0.1348 -0.6207 -0.3119
  447MOL0     H58995   5.710   0.693   8.471  0.7205  0.5691  1.8966
  447MOL0     H58996   5.645   0.982   8.371  2.5022 -0.6996  1.2143
  447MOL0     H58997   5.720   0.876   8.267  1.3923  0.5568  1.0077
  447MOL0     H58998   5.441   0.858   8.399  1.4608  0.4870 -0.2528
  447MOL0     H58999   5.490   0.729   8.292 -0.4360  0.3608  1.8680
  447MOL0     H59000   5.508   0.879   8.098 -0.9479 -0.2881 -1.5029
  447MOL0     H59001   5.337   0.904   8.171  0.1219  0.6811  1.3229
  447MOL0     H59002   5.509   1.276   8.237  0.9200  0.6576  0.7281
  447MOL0     H59003   6.052   0.938   8.416  2.0286  2.5641  3.5022
  447MOL0     H59004   6.266   0.800   8.435  1.8709 -1.1380  2.5595
  448MOL0     O59005   8.104   0.998   5.548  0.0028  0.4095 -0.4214
  448MOL0     C59006   8.101   0.961   5.430  0.1199  0.6633 -0.2354
  448MOL0     O59007   8.016   1.002   5.331 -0.1580  0.0389 -0.4175
  448MOL0     C59008   7.911   1.069   5.378  0.4144 -0.9353  0.5688
  448MOL0     C59009   7.910   1.209   5.399 -0.1065 -0.6501 -0.2959
  448MOL0     C59010   7.789   1.267   5.432 -0.6760 -0.1985  0.1475
  448MOL0     C59011   7.671   1.195   5.443  0.0898 -0.7453 -0.6564
  448MOL0     O59012   7.569   1.285   5.455  0.5983 -0.1956  0.9022
  448MOL0     C59013   7.444   1.235   5.491 -0.2279 -0.5653 -0.0261
  448MOL0     C59014   7.328   1.341   5.538 -0.4976  0.1737  0.3157
  448MOL0     C59015   7.197   1.266   5.579  0.2756 -0.4287 -0.1927
  448MOL0     C59016   7.093   1.374   5.594  0.3887 -1.0132 -0.5077
  448MOL0     C59017   6.957   1.308   5.626 -0.1750 -0.1232  0.6122
  448MOL0     C59018   6.839   1.412   5.639  0.9520 -0.9887  0.0671
  448MOL0     C59019   6.709   1.345   5.649  1.3760  0.0314  0.0716
  448MOL0     C59020   6.694   1.284   5.786  0.3035 -0.1139  0.1696
  448MOL0     N59021   6.652   1.383   5.882  0.2735  0.7387 -0.0224
  448MOL0     C59022   6.523   1.421   5.888  0.1440 -0.9822 -1.3861
  448MOL0     C59023   6.523   1.505   5.999  0.3298 -0.5939  0.0968
  448MOL0     C59024   6.406   1.577   6.052  0.1125  0.1807  0.7806
  448MOL0     C59025   6.430   1.670   6.169 -0.0375 -0.5841 -0.0832
  448MOL0     C59026   6.454   1.593   6.303  0.8249 -0.4583  0.2461
  448MOL0     C59027   6.319   1.542   6.369  0.0328 -0.0405 -0.0839
  448MOL0     O59028   6.340   1.519   6.511 -0.1868  0.0496  0.1006
  448MOL0     C59029   6.246   1.479   6.597 -0.2482 -0.0075 -0.3021
  448MOL0     C59030   6.256   1.512   6.734 -1.2099 -0.5621  0.0016
  448MOL0     C59031   6.159   1.480   6.830  0.1780 -0.3531 -0.6007
  448MOL0     C59032   6.038   1.425   6.787 -1.1154 -0.4745  0.2461
  448MOL0     C59033   5.928   1.408   6.879  0.5149  0.0976 -0.4508
  448MOL0     O59034   5.920   1.503   6.971 -0.0548 -0.3656 -0.2226
  448MOL0     C59035   5.801   1.513   7.027  0.2611  0.0033 -0.0300
  448MOL0     C59036   5.697   1.591   6.979  0.0919  0.4306  0.3741
  448MOL0     C59037   5.586   1.597   7.046  0.3653 -0.7933 -0.3820
  448MOL0     C59038   5.568   1.543   7.175  0.6523  1.1763 -0.7676
  448MOL0     O59039   5.452   1.555   7.251  0.0706 -0.0570 -0.7667
  448MOL0     C59040   5.370   1.658   7.216  0.2531 -0.4087 -0.5695
  448MOL0     C59041   5.271   1.663   7.325  0.3890  0.4292  0.6408
  448MOL0     C59042   5.191   1.534   7.341 -0.1648  0.2940 -0.1809
  448MOL0     C59043   5.081   1.539   7.456 -0.2110 -0.7745 -0.1213
  448MOL0     C59044   4.992   1.411   7.456 -0.3936 -0.0467  1.0353
  448MOL0     C59045   4.900   1.420   7.590  1.0455  1.2802  0.4004
  448MOL0     C59046   4.777   1.337   7.592  0.4744  0.3292 -1.0539
  448MOL0     C59047   4.796   1.191   7.554 -0.0490  0.3032 -0.2696
  448MOL0    Cl59048   4.750   1.180   7.380  0.1689  0.6440 -0.1005
  448MOL0     C59049   5.672   1.464   7.227  0.4392 -0.9765  0.3312
  448MOL0     C59050   5.785   1.451   7.152 -0.5073  0.1216  0.2746
  448MOL0     O59051   5.850   1.315   6.867  0.1093 -0.0190  0.2166
  448MOL0     C59052   6.017   1.399   6.647  0.1540 -0.4815 -0.0863
  448MOL0     C59053   6.121   1.431   6.556 -0.3697 -0.3759 -0.0073
  448MOL0     N59054   6.653   1.513   6.046  0.3734  1.0372 -0.5111
  448MOL0     N59055   6.730   1.443   5.969  0.3980  0.4871 -0.1628
  448MOL0     C59056   7.670   1.058   5.429 -0.1267 -0.6477 -1.3391
  448MOL0     C59057   7.792   0.997   5.395 -0.0008  0.4773 -0.8696
  448MOL0     C59058   8.187   0.851   5.397 -0.2513  0.0311  0.6638
  448MOL0     C59059   8.214   0.836   5.256 -0.4638 -0.8910  0.1313
  448MOL0     C59060   8.307   0.743   5.208  0.0309 -0.3239  0.1895
  448MOL0     C59061   8.372   0.663   5.296  0.1421  0.3054  0.3784
  448MOL0     O59062   8.441   0.542   5.262 -0.8549 -0.3376 -0.3235
  448MOL0     C59063   8.535   0.558   5.164 -0.6137  0.5656  0.5000
  448MOL0     C59064   8.628   0.434   5.162 -0.2254 -0.1685 -0.2720
  448MOL0     C59065   8.698   0.433   5.294  0.4666  0.8491 -0.4941
  448MOL0     C59066   8.809   0.321   5.294 -0.3220 -0.8824  0.0284
  448MOL0     C59067   8.851   0.282   5.427  0.6611  0.2612  0.0693
  448MOL0     C59068   8.884   0.243   5.536  0.2995 -0.7278 -0.6562
  448MOL0     C59069   8.347   0.676   5.435  1.0645 -0.8497  0.5459
  448MOL0     C59070   8.252   0.773   5.487 -0.2128 -0.2562  0.2573
  448MOL0     H59071   8.006   1.260   5.394 -1.1390  1.5423  0.8104
  448MOL0     H59072   7.782   1.375   5.442  3.3686  0.3595 -1.4282
  448MOL0     H59073   7.457   1.166   5.575 -2.2444 -3.5426 -1.9494
  448MOL0     H59074   7.399   1.173   5.412 -1.9252 -0.1768  0.5984
  448MOL0     H59075   7.319   1.401   5.448  0.0895  0.6283  0.5556
  448MOL0     H59076   7.364   1.410   5.616  0.4209 -1.8590  1.8038
  448MOL0     H59077   7.238   1.224   5.672  2.2344 -0.2692 -0.9297
  448MOL0     H59078   7.166   1.193   5.504 -0.9138 -1.8866  1.6112
  448MOL0     H59079   7.120   1.429   5.685 -3.0169 -4.5206  2.9939
  448MOL0     H59080   7.102   1.444   5.511 -0.9622  0.9510  0.9143
  448MOL0     H59081   6.967   1.262   5.725 -1.0441 -1.5336  0.0580
  448MOL0     H59082   6.943   1.223   5.560  1.5968 -1.4016  1.7796
  448MOL0     H59083   6.846   1.491   5.563 -1.9555 -0.1550  0.5437
  448MOL0     H59084   6.856   1.467   5.731  1.8502 -0.1832 -0.5617
  448MOL0     H59085   6.627   1.413   5.623 -0.6442 -2.9533 -1.9356
  448MOL0     H59086   6.695   1.263   5.578  1.4309  1.0482 -1.1558
  448MOL0     H59087   6.791   1.244   5.818  2.2961 -0.2794 -5.1074
  448MOL0     H59088   6.626   1.198   5.783  0.4977 -0.2438 -1.3327
  448MOL0     H59089   6.450   1.391   5.813  1.8214 -0.2444 -3.4284
  448MOL0     H59090   6.329   1.503   6.078 -0.7006  1.9494  3.9087
  448MOL0     H59091   6.375   1.637   5.966 -0.5511  0.4936  1.2260
  448MOL0     H59092   6.343   1.736   6.176 -0.8316 -1.6421  0.3454
  448MOL0     H59093   6.512   1.739   6.149  0.5578 -1.2221  0.1314
  448MOL0     H59094   6.521   1.507   6.287  2.1511  0.7316 -0.8338
  448MOL0     H59095   6.510   1.657   6.371  2.1590  0.0814 -1.3067
  448MOL0     H59096   6.287   1.452   6.315 -0.9237  0.1637  0.1246
  448MOL0     H59097   6.231   1.604   6.347 -1.6987 -2.4270 -0.3224
  448MOL0     H59098   6.348   1.558   6.767 -1.3645 -1.7155  2.2782
  448MOL0     H59099   6.174   1.493   6.936 -0.2748 -3.8258 -0.0018
  448MOL0     H59100   5.714   1.641   6.884  1.2341  1.1183  0.9102
  448MOL0     H59101   5.501   1.651   7.006 -1.7442 -2.3112  1.7886
  448MOL0     H59102   5.323   1.629   7.122  1.7498  2.1389 -2.2022
  448MOL0     H59103   5.417   1.756   7.204 -0.6441  0.0741 -0.3098
  448MOL0     H59104   5.205   1.747   7.302  0.1879 -0.4501 -2.4999
  448MOL0     H59105   5.319   1.680   7.422  0.4479  3.1830  0.2003
  448MOL0     H59106   5.261   1.451   7.357  1.0769  0.2968 -4.2994
  448MOL0     H59107   5.140   1.506   7.248 -0.9052  0.3890  0.1906
  448MOL0     H59108   5.135   1.560   7.549 -3.5121 -0.1123  1.7853
  448MOL0     H59109   5.016   1.623   7.432  0.9881 -0.4225 -2.3810
  448MOL0     H59110   5.049   1.318   7.443  0.9598  1.1599 -3.0876
  448MOL0     H59111   4.920   1.410   7.373  1.6994 -1.2302 -0.8540
  448MOL0     H59112   4.864   1.522   7.610 -0.9146  0.9482 -1.1255
  448MOL0     H59113   4.956   1.402   7.682 -0.7022  2.0685  1.6692
  448MOL0     H59114   4.748   1.336   7.697  0.2999 -0.2174 -1.1043
  448MOL0     H59115   4.694   1.384   7.538  1.2881  0.6668 -2.0458
  448MOL0     H59116   4.737   1.121   7.614  2.2349 -0.1350  1.5889
  448MOL0     H59117   4.902   1.170   7.573  0.3144  0.6828 -1.7576
  448MOL0     H59118   5.667   1.418   7.325 -0.9904  0.7877  1.1325
  448MOL0     H59119   5.863   1.389   7.196  0.7772  2.4978  1.5729
  448MOL0     H59120   5.926   1.350   6.614  0.9191 -2.4848  0.6331
  448MOL0     H59121   6.106   1.406   6.452 -2.1234 -0.0140  0.1138
  448MOL0     H59122   7.581   0.998   5.446  0.4876 -1.0595  0.6388
  448MOL0     H59123   7.806   0.890   5.393  1.4005  0.5096  2.0427
  448MOL0     H59124   8.175   0.907   5.184 -1.2109 -0.1303  1.2583
  448MOL0     H59125   8.318   0.733   5.100  1.4929  0.1649  0.2690
  448MOL0     H59126   8.593   0.650   5.175 -2.3324  1.5906  1.2661
  448MOL0     H59127   8.481   0.564   5.069  0.1979 -0.0876 -0.0206
  448MOL0     H59128   8.575   0.338   5.160  1.8882 -1.5372  2.1843
  448MOL0     H59129   8.692   0.424   5.074  0.4529 -0.5878  0.2559
  448MOL0     H59130   8.626   0.411   5.374  1.5417  1.0558  0.5716
  448MOL0     H59131   8.751   0.526   5.319  0.4936  0.3238  1.5957
  448MOL0     H59132   8.780   0.232   5.237  2.0874 -1.5301 -0.3013
  448MOL0     H59133   8.898   0.366   5.249 -0.5744  1.6076  1.8471
  448MOL0     H59134   8.874   0.209   5.637 -1.5201 -1.4499 -1.0472
  448MOL0     H59135   8.380   0.601   5.506  1.9324 -2.4757 -1.4619
  448MOL0     H59136   8.246   0.782   5.595  1.1771 -1.0890  0.4283
  449MOL0     O59137   3.078   3.763   9.090  0.2317 -0.0521  0.5183
  449MOL0     C59138   3.117   3.826   9.186 -0.0669  0.6344  0.8002
  449MOL0     O59139   3.249   3.842   9.218  0.5597  0.4195  0.1251
  449MOL0     C59140   3.351   3.792   9.146  0.4094  0.2001 -0.6558
  449MOL0     C59141   3.361   3.656   9.105 -0.1934 -0.5859  0.0868
  449MOL0     C59142   3.474   3.601   9.051 -0.9287  0.4195 -0.2045
  449MOL0     C59143   3.589   3.683   9.037 -0.2154  0.3993 -0.0014
  449MOL0     O59144   3.707   3.643   8.979 -0.4203  0.3914  0.0210
  449MOL0     C59145   3.730   3.526   8.913 -0.3786 -0.4575 -0.5020
  449MOL0     C59146   3.880   3.519   8.885  0.0519 -1.0363 -0.2031
  449MOL0     C59147   3.957   3.493   9.012 -0.1280  1.2109 -0.5065
  449MOL0     C59148   4.104   3.447   8.980 -0.0147 -0.2024 -0.0485
  449MOL0     C59149   4.199   3.478   9.098  0.3214  0.0419  0.1664
  449MOL0     C59150   4.313   3.391   9.091 -0.3230 -0.3823  0.5284
  449MOL0     C59151   4.406   3.426   9.209  0.6037 -1.1487  0.1223
  449MOL0     C59152   4.539   3.342   9.218 -0.1843  0.2818  0.9719
  449MOL0     N59153   4.500   3.209   9.255 -0.4928  0.3449 -0.0241
  449MOL0     C59154   4.497   3.157   9.384  0.3721 -0.4349 -0.4865
  449MOL0     C59155   4.483   3.024   9.363  0.7400 -0.5404  0.6047
  449MOL0     C59156   4.491   2.946   9.487  0.5570 -0.2098  0.2607
  449MOL0     C59157   4.630   2.886   9.503  0.4784 -0.3368  0.3156
  449MOL0     C59158   4.655   2.855   9.658  0.0633 -0.0350 -0.3850
  449MOL0     C59159   4.568   2.755   9.726  0.3265 -0.4786  0.1287
  449MOL0     O59160   4.590   2.635   9.657 -0.0712  0.4597 -0.1575
  449MOL0     C59161   4.490   2.548   9.646  0.0137  0.0217 -0.2051
  449MOL0     C59162   4.349   2.578   9.652  0.3243  1.0484 -0.4077
  449MOL0     C59163   4.249   2.476   9.628 -0.3595  0.3579 -0.7226
  449MOL0     C59164   4.292   2.340   9.609  0.0923  0.2953  0.4033
  449MOL0     C59165   4.190   2.227   9.616  0.0872  0.4005  0.2137
  449MOL0     O59166   4.231   2.117   9.555 -0.2738  0.4680  0.7141
  449MOL0     C59167   4.147   2.013   9.556 -0.4099 -0.2098 -0.9218
  449MOL0     C59168   4.210   1.885   9.577  0.7038  0.2631 -0.4831
  449MOL0     C59169   4.138   1.764   9.560  0.1125  0.4480 -0.9826
  449MOL0     C59170   4.002   1.768   9.540 -0.1661  0.7266  0.5058
  449MOL0     O59171   3.923   1.659   9.529  0.0999  0.2625 -0.1031
  449MOL0     C59172   3.943   1.531   9.584  0.0857  0.0021 -0.1517
  449MOL0     C59173   3.931   1.545   9.738 -0.1486  0.4149  0.3922
  449MOL0     C59174   3.789   1.553   9.796  0.5470 -0.3647 -0.3760
  449MOL0     C59175   3.800   1.557   9.952  0.2151  0.5858 -0.2947
  449MOL0     C59176   3.663   1.516  10.024  0.4485 -0.3777  0.0374
  449MOL0     C59177   3.539   1.581   9.960 -0.9746 -0.5235  0.2971
  449MOL0     C59178   3.414   1.526  10.028 -0.2520  0.5726 -0.3793
  449MOL0     C59179   3.308   1.529   9.913 -0.3104 -0.2266  0.0114
  449MOL0    Cl59180   3.132   1.522   9.971  0.1169  0.0173  0.6185
  449MOL0     C59181   3.942   1.894   9.513  0.6745  1.1919  0.3444
  449MOL0     C59182   4.010   2.014   9.522  0.6103 -0.2850  0.0154
  449MOL0     O59183   4.085   2.241   9.676  0.0134 -1.0611 -1.2857
  449MOL0     C59184   4.428   2.309   9.593 -0.5296  0.5042  0.8438
  449MOL0     C59185   4.525   2.416   9.609  0.0438 -0.4102 -0.1066
  449MOL0     N59186   4.481   2.999   9.231 -0.3472 -0.4541  1.0697
  449MOL0     N59187   4.486   3.107   9.167  1.1283 -0.8663  0.9956
  449MOL0     C59188   3.576   3.820   9.065 -0.7418  0.4482  0.3183
  449MOL0     C59189   3.463   3.875   9.125  0.1546 -0.1000 -0.4597
  449MOL0     C59190   3.012   3.878   9.270 -0.0671 -0.6314 -0.6069
  449MOL0     C59191   2.880   3.878   9.231  0.9730 -0.1312  0.5111
  449MOL0     C59192   2.779   3.924   9.301 -0.4416  0.2147  0.1937
  449MOL0     C59193   2.799   3.989   9.424  0.2611 -0.3447 -0.1901
  449MOL0     O59194   2.697   4.040   9.496  1.0124 -0.5022 -0.8973
  449MOL0     C59195   2.560   4.056   9.442 -1.4368  1.1359  0.8350
  449MOL0     C59196   2.469   4.115   9.541  0.1020 -0.0301  0.6147
  449MOL0     C59197   2.328   4.111   9.483 -0.1463 -0.3353 -0.0429
  449MOL0     C59198   2.220   4.189   9.569 -0.8734 -0.1882  0.0904
  449MOL0     C59199   2.102   4.181   9.495  0.8985 -0.4768  0.3319
  449MOL0     C59200   2.008   4.191   9.420  0.0998  0.0091  0.3570
  449MOL0     C59201   2.928   3.986   9.478  0.7697  0.3694  0.2577
  449MOL0     C59202   3.039   3.932   9.400 -0.3782 -0.2600 -0.4151
  449MOL0     H59203   3.274   3.593   9.115 -2.2151  2.2436  1.8022
  449MOL0     H59204   3.474   3.497   9.022 -1.9230 -0.0053  1.1725
  449MOL0     H59205   3.665   3.533   8.825 -2.2929  0.9108  0.9471
  449MOL0     H59206   3.693   3.446   8.978  0.9067 -0.7113 -0.0454
  449MOL0     H59207   3.914   3.605   8.828 -0.5892 -0.7036 -0.0949
  449MOL0     H59208   3.898   3.434   8.818 -1.3696 -1.6233  0.1090
  449MOL0     H59209   3.903   3.416   9.068  0.6762  0.8170 -0.2612
  449MOL0     H59210   3.954   3.592   9.060  0.0766  0.3233  1.4271
  449MOL0     H59211   4.120   3.341   8.957  1.5677 -0.1518  0.7067
  449MOL0     H59212   4.119   3.508   8.890  1.8512 -1.8146 -0.9209
  449MOL0     H59213   4.151   3.463   9.195  0.9826 -2.4926  0.1875
  449MOL0     H59214   4.232   3.582   9.088 -2.6714  0.9356 -1.4333
  449MOL0     H59215   4.366   3.414   8.998  1.7049  1.7639  2.1111
  449MOL0     H59216   4.290   3.285   9.077  2.8901 -1.1739  0.3986
  449MOL0     H59217   4.440   3.529   9.192  1.6337 -2.0760 -4.9180
  449MOL0     H59218   4.351   3.416   9.303 -0.8688  1.7507 -0.3151
  449MOL0     H59219   4.606   3.376   9.298  1.9192  0.7972 -0.9048
  449MOL0     H59220   4.587   3.341   9.120 -0.8791  1.4053  0.5956
  449MOL0     H59221   4.505   3.201   9.483 -0.5993 -0.9031 -0.1917
  449MOL0     H59222   4.406   2.878   9.487  0.0843  0.3491 -0.8798
  449MOL0     H59223   4.462   3.006   9.574  1.9292  0.1200  0.5141
  449MOL0     H59224   4.706   2.953   9.462 -0.0153 -1.7213 -3.1782
  449MOL0     H59225   4.641   2.791   9.448  1.9500 -1.1273  1.8676
  449MOL0     H59226   4.755   2.809   9.656  0.0317 -0.1658  0.5847
  449MOL0     H59227   4.658   2.945   9.720 -1.7048 -0.4433  0.3396
  449MOL0     H59228   4.465   2.790   9.716 -0.2310 -2.3830 -1.6968
  449MOL0     H59229   4.587   2.750   9.834  0.1828 -3.0418  0.0876
  449MOL0     H59230   4.308   2.678   9.660  0.8073  1.2169  0.0034
  449MOL0     H59231   4.145   2.506   9.624 -0.0895  1.5041 -5.7637
  449MOL0     H59232   4.316   1.874   9.597  0.5575  2.1105  1.6816
  449MOL0     H59233   4.195   1.677   9.590 -0.6823 -0.1558 -1.1823
  449MOL0     H59234   4.043   1.498   9.556 -0.3758 -0.8740 -0.8454
  449MOL0     H59235   3.880   1.449   9.547 -0.0419  0.1337 -0.2283
  449MOL0     H59236   3.998   1.627   9.768 -1.8301  1.7514  0.6628
  449MOL0     H59237   3.977   1.453   9.775  0.7198  0.8259  0.3750
  449MOL0     H59238   3.745   1.459   9.762  0.3093 -0.6684  0.7328
  449MOL0     H59239   3.735   1.641   9.758 -1.4386 -0.7620  1.3448
  449MOL0     H59240   3.879   1.499  10.001 -3.4474 -3.1339  1.8979
  449MOL0     H59241   3.818   1.662   9.976 -2.2239  1.3894 -1.6271
  449MOL0     H59242   3.661   1.550  10.128 -3.0004 -2.4275  0.7993
  449MOL0     H59243   3.654   1.407  10.020 -2.3416 -0.2946  1.3712
  449MOL0     H59244   3.542   1.537   9.859 -0.6247  1.4014 -0.5851
  449MOL0     H59245   3.544   1.689   9.947 -0.1209 -0.1909  2.8310
  449MOL0     H59246   3.426   1.423  10.063 -1.7171  0.5797  0.2166
  449MOL0     H59247   3.374   1.593  10.104  0.2326  0.2069  0.2080
  449MOL0     H59248   3.319   1.444   9.845 -2.5869  0.2524 -1.0424
  449MOL0     H59249   3.323   1.626   9.864  0.2262  0.1485  0.9048
  449MOL0     H59250   3.836   1.892   9.492  0.8607 -1.2542 -0.7504
  449MOL0     H59251   3.965   2.111   9.507  3.1845  0.7966 -1.4574
  449MOL0     H59252   4.463   2.208   9.573 -1.2635  0.1425  1.3266
  449MOL0     H59253   4.627   2.392   9.583  0.3150 -0.0290  0.5785
  449MOL0     H59254   3.666   3.880   9.058  0.5354 -1.3229  0.7687
  449MOL0     H59255   3.467   3.979   9.156 -0.7473 -0.0674 -0.4165
  449MOL0     H59256   2.860   3.840   9.132  2.7501  0.6111 -0.1903
  449MOL0     H59257   2.685   3.901   9.251  0.1328  0.1568 -0.8974
  449MOL0     H59258   2.519   3.954   9.439 -3.1424  1.7876 -1.2226
  449MOL0     H59259   2.554   4.086   9.337  1.2327 -0.8779 -0.0297
  449MOL0     H59260   2.479   4.060   9.636  1.9286 -0.6111  0.1162
  449MOL0     H59261   2.497   4.217   9.567  0.2589 -0.2905  1.5111
  449MOL0     H59262   2.296   4.007   9.484 -0.5665 -0.2076  1.1316
  449MOL0     H59263   2.331   4.146   9.379  0.4308  0.7423  0.3238
  449MOL0     H59264   2.214   4.141   9.667 -0.5691  0.7489  0.5791
  449MOL0     H59265   2.256   4.292   9.579 -1.4648  0.0938 -0.6257
  449MOL0     H59266   1.924   4.209   9.355 -0.2653 -3.3457 -0.3096
  449MOL0     H59267   2.967   4.019   9.574  0.2140 -1.7598  1.2752
  449MOL0     H59268   3.138   3.942   9.442 -1.1428  1.1901  1.1705
  450MOL0     O59269   2.979   2.617   9.250  0.7908  0.1562 -0.0659
  450MOL0     C59270   2.998   2.530   9.159  0.1501  0.9594 -0.5279
  450MOL0     O59271   2.898   2.471   9.090  0.6588 -0.1117  0.6399
  450MOL0     C59272   2.767   2.504   9.125 -0.0052  0.2449 -0.3085
  450MOL0     C59273   2.688   2.396   9.175 -0.7977 -0.0519  0.8324
  450MOL0     C59274   2.552   2.414   9.204  0.0216  0.3372  0.0203
  450MOL0     C59275   2.491   2.538   9.187  0.5251  0.2341 -0.9902
  450MOL0     O59276   2.355   2.565   9.211 -0.7813  0.3234 -0.0555
  450MOL0     C59277   2.273   2.463   9.258 -0.2724 -0.5370  0.1850
  450MOL0     C59278   2.126   2.520   9.285 -0.0253  0.0854 -1.3402
  450MOL0     C59279   2.002   2.420   9.280 -0.5060  0.0212  0.4247
  450MOL0     C59280   2.044   2.288   9.342  0.9890 -0.0302  0.5912
  450MOL0     C59281   1.929   2.192   9.336  0.4148  0.0419  0.6035
  450MOL0     C59282   1.944   2.093   9.455  1.6286 -0.5008 -0.0978
  450MOL0     C59283   2.070   2.010   9.452  0.6907  0.3956  0.0102
  450MOL0     C59284   2.063   1.901   9.348 -0.4365  0.0019  0.1357
  450MOL0     N59285   2.153   1.797   9.376 -0.4803 -0.6316 -0.7115
  450MOL0     C59286   2.292   1.803   9.368 -0.5978 -0.1542  0.1188
  450MOL0     C59287   2.339   1.699   9.435  0.5021 -0.7301 -0.1832
  450MOL0     C59288   2.468   1.658   9.491 -0.9201  0.1349 -0.3518
  450MOL0     C59289   2.602   1.702   9.424  0.7404 -0.1381  0.0097
  450MOL0     C59290   2.730   1.643   9.492 -0.1014 -0.8809 -0.3664
  450MOL0     C59291   2.859   1.696   9.434  0.7697  0.3509  0.4697
  450MOL0     O59292   2.970   1.663   9.515  0.0997  0.2132 -0.0847
  450MOL0     C59293   3.093   1.710   9.473  0.1316  0.1139  0.8436
  450MOL0     C59294   3.196   1.710   9.565  0.0204 -0.3122 -0.2375
  450MOL0     C59295   3.320   1.767   9.544  0.0066  0.5755  1.1263
  450MOL0     C59296   3.355   1.822   9.420  0.0585  0.2824  0.3961
  450MOL0     C59297   3.486   1.881   9.380 -0.1460  1.1256 -0.7901
  450MOL0     O59298   3.499   1.926   9.258 -0.9412  0.1556 -0.9939
  450MOL0     C59299   3.619   1.972   9.219  0.1143 -1.6114 -0.5506
  450MOL0     C59300   3.664   2.099   9.268 -0.2087 -0.5523 -0.3311
  450MOL0     C59301   3.790   2.153   9.226  0.4782 -0.8874 -0.2461
  450MOL0     C59302   3.866   2.084   9.132  0.3872 -0.2718  0.0451
  450MOL0     O59303   3.987   2.152   9.105  0.5312  0.4744 -0.1540
  450MOL0     C59304   4.089   2.051   9.066 -0.0695 -0.2949  1.3081
  450MOL0     C59305   4.226   2.124   9.080  0.2892  0.7777  0.0120
  450MOL0     C59306   4.253   2.238   8.984 -0.0229  0.1797  0.4855
  450MOL0     C59307   4.269   2.178   8.845  0.0476 -0.3421  0.1122
  450MOL0     C59308   4.304   2.306   8.758 -0.6286  0.0003  0.0111
  450MOL0     C59309   4.445   2.373   8.793  0.6095  0.9116  0.8757
  450MOL0     C59310   4.512   2.445   8.680 -0.2549  0.4316 -0.1501
  450MOL0     C59311   4.609   2.547   8.727  1.0554 -0.2193  0.5401
  450MOL0    Cl59312   4.748   2.483   8.820  0.4554  0.3917  0.3687
  450MOL0     C59313   3.817   1.964   9.080 -0.1124  0.1582  1.1283
  450MOL0     C59314   3.692   1.914   9.120  0.5162  0.4269  0.4000
  450MOL0     O59315   3.576   1.878   9.466  0.0618  0.6869 -0.5381
  450MOL0     C59316   3.253   1.815   9.322  0.1987 -0.5153  0.9814
  450MOL0     C59317   3.132   1.759   9.346  0.2055  0.2068 -0.0636
  450MOL0     N59318   2.228   1.633   9.486 -0.5324  0.3570  1.5834
  450MOL0     N59319   2.115   1.680   9.441 -0.6030 -0.4537  0.0504
  450MOL0     C59320   2.568   2.644   9.151  0.6262 -0.1664  0.3791
  450MOL0     C59321   2.710   2.628   9.121  1.0589  0.4374 -0.5781
  450MOL0     C59322   3.129   2.515   9.101  0.8674 -0.6183 -0.0826
  450MOL0     C59323   3.162   2.426   8.996  0.7522  0.1314  0.1624
  450MOL0     C59324   3.298   2.409   8.954 -0.4271 -0.6196 -0.5613
  450MOL0     C59325   3.395   2.484   9.010  0.2632  0.4045  0.1813
  450MOL0     O59326   3.529   2.473   8.968  0.3003  0.2272  0.5590
  450MOL0     C59327   3.587   2.351   9.012  0.1563 -0.6129  0.3031
  450MOL0     C59328   3.712   2.323   8.925  0.6709  0.5080 -0.7642
  450MOL0     C59329   3.683   2.298   8.772  0.1354  0.4651 -0.4992
  450MOL0     C59330   3.816   2.309   8.696  0.4980 -0.1272 -0.2186
  450MOL0     C59331   3.885   2.179   8.703 -0.4411 -0.7784  0.3013
  450MOL0     C59332   3.942   2.071   8.702 -0.2709  0.2257 -0.3870
  450MOL0     C59333   3.369   2.579   9.110 -0.0688  0.2916 -0.1847
  450MOL0     C59334   3.239   2.583   9.160 -0.3835 -0.2793  0.8253
  450MOL0     H59335   2.729   2.296   9.183  1.5848  0.9334  1.7106
  450MOL0     H59336   2.490   2.329   9.233 -1.6085  1.5840  0.3911
  450MOL0     H59337   2.315   2.425   9.351 -0.0454 -0.7104  0.0108
  450MOL0     H59338   2.266   2.388   9.179  3.3232  0.9933 -1.8264
  450MOL0     H59339   2.104   2.605   9.219 -2.9691 -0.6035 -1.3975
  450MOL0     H59340   2.132   2.568   9.383 -0.6843  2.8215 -2.5390
  450MOL0     H59341   1.981   2.394   9.176  0.4701 -0.1010  0.2568
  450MOL0     H59342   1.917   2.472   9.326  1.7206  3.8786  0.5379
  450MOL0     H59343   2.130   2.249   9.287 -0.2576  0.2304 -1.6526
  450MOL0     H59344   2.066   2.303   9.448  2.0608 -0.9746  0.5250
  450MOL0     H59345   1.922   2.149   9.236 -1.8403  0.6109  0.4696
  450MOL0     H59346   1.831   2.237   9.356 -1.4139 -2.6939 -1.5656
  450MOL0     H59347   1.863   2.019   9.453  0.8508  0.3276  0.1610
  450MOL0     H59348   1.940   2.145   9.551  3.1607 -0.8406  0.1733
  450MOL0     H59349   2.155   2.074   9.426  0.8187  0.6832  1.1203
  450MOL0     H59350   2.076   1.962   9.550 -0.9274 -0.6977 -0.3972
  450MOL0     H59351   2.076   1.929   9.243 -0.8001  2.0938  0.6091
  450MOL0     H59352   1.962   1.857   9.348  0.6137 -2.6396 -0.5075
  450MOL0     H59353   2.349   1.890   9.337  2.3585 -2.0605 -0.1471
  450MOL0     H59354   2.466   1.549   9.494 -2.7324  0.1755  2.0055
  450MOL0     H59355   2.480   1.699   9.591  2.6218  0.4878 -0.7873
  450MOL0     H59356   2.615   1.808   9.444 -0.1611  0.0594 -0.3588
  450MOL0     H59357   2.602   1.680   9.316 -1.8042 -0.2302 -0.0382
  450MOL0     H59358   2.733   1.686   9.592  2.0477  2.1094 -1.5745
  450MOL0     H59359   2.733   1.534   9.501 -0.4403 -0.8709 -0.1057
  450MOL0     H59360   2.844   1.799   9.401 -1.5765 -0.3217 -0.7688
  450MOL0     H59361   2.868   1.655   9.333 -0.5646 -0.2073  0.5605
  450MOL0     H59362   3.176   1.697   9.671 -2.7943 -1.9286 -0.8771
  450MOL0     H59363   3.396   1.777   9.621  2.0235  0.1310 -0.7031
  450MOL0     H59364   3.604   2.145   9.346  2.1732 -0.9612  1.8629
  450MOL0     H59365   3.832   2.244   9.268  1.4400 -1.1560 -0.5957
  450MOL0     H59366   4.070   2.029   8.961  0.8819  2.8548  0.3570
  450MOL0     H59367   4.092   1.958   9.124  0.7726 -2.0903 -1.4375
  450MOL0     H59368   4.306   2.049   9.077 -0.8970 -0.5089 -0.8203
  450MOL0     H59369   4.232   2.176   9.176 -2.5585  0.1567  0.6244
  450MOL0     H59370   4.348   2.288   9.006  0.0678 -0.0408  0.5918
  450MOL0     H59371   4.174   2.314   8.996  0.5175  0.4571  2.6614
  450MOL0     H59372   4.348   2.103   8.836  0.3658 -0.0694  0.5893
  450MOL0     H59373   4.178   2.129   8.809 -0.0496 -0.2411  0.2228
  450MOL0     H59374   4.229   2.385   8.771  1.6120  1.8959  2.5739
  450MOL0     H59375   4.303   2.263   8.657 -0.1166  0.2123 -0.0892
  450MOL0     H59376   4.514   2.293   8.822  2.7207  3.1034  2.4462
  450MOL0     H59377   4.435   2.432   8.885 -0.0185  0.4646  1.0989
  450MOL0     H59378   4.550   2.374   8.606  1.4039  1.2747 -0.1289
  450MOL0     H59379   4.434   2.492   8.619 -1.2333 -0.5218  0.3060
  450MOL0     H59380   4.565   2.637   8.771 -2.5713 -0.0908 -2.8023
  450MOL0     H59381   4.650   2.587   8.634 -0.7222  3.7676  1.2668
  450MOL0     H59382   3.865   1.895   9.011 -0.9972 -1.0539  1.6943
  450MOL0     H59383   3.667   1.811   9.098  2.1574 -0.2634  1.5953
  450MOL0     H59384   3.272   1.843   9.219  1.5390  2.7989  1.9855
  450MOL0     H59385   3.062   1.759   9.263 -0.8068  3.7287  0.6169
  450MOL0     H59386   2.516   2.740   9.148 -0.4805 -0.7400  0.7722
  450MOL0     H59387   2.766   2.719   9.103  2.5021  0.0015  1.4062
  450MOL0     H59388   3.083   2.362   8.957  1.4309 -0.3625 -0.4385
  450MOL0     H59389   3.329   2.335   8.882  1.2949 -1.3256  0.8305
  450MOL0     H59390   3.521   2.265   9.025 -1.7140  0.8295  0.7423
  450MOL0     H59391   3.628   2.369   9.111  3.2714 -1.2111 -0.7647
  450MOL0     H59392   3.775   2.410   8.947 -2.6553  2.0746  4.6310
  450MOL0     H59393   3.755   2.232   8.965 -2.0421  0.2812  2.0723
  450MOL0     H59394   3.622   2.382   8.739  0.2746  0.1604 -1.5652
  450MOL0     H59395   3.629   2.209   8.739  0.7930  0.2794 -1.0956
  450MOL0     H59396   3.802   2.350   8.595  0.2494  2.8968  0.9598
  450MOL0     H59397   3.877   2.391   8.734  0.3837 -1.2099  2.5378
  450MOL0     H59398   4.002   1.982   8.700  1.2084  1.1954 -1.1547
  450MOL0     H59399   3.441   2.643   9.161 -0.3586 -0.8783  1.7964
  450MOL0     H59400   3.220   2.648   9.244 -4.6270  1.2893 -1.0667
  451MOL0     O59401   8.347   8.425   4.655  0.5804 -0.3739  0.1439
  451MOL0     C59402   8.374   8.515   4.578 -0.2634  0.4044  0.3444
  451MOL0     O59403   8.275   8.585   4.508  0.2269  0.0597  0.3651
  451MOL0     C59404   8.142   8.563   4.523 -1.2417  0.3241  0.5441
  451MOL0     C59405   8.073   8.467   4.442 -1.6523  0.3065 -0.7223
  451MOL0     C59406   7.940   8.443   4.459 -0.0176  1.0734  0.1932
  451MOL0     C59407   7.860   8.525   4.546 -0.5739 -0.0817  0.7103
  451MOL0     O59408   7.722   8.508   4.551 -0.2620 -0.1365  0.2757
  451MOL0     C59409   7.679   8.408   4.641  0.2246 -0.3518  0.0493
  451MOL0     C59410   7.533   8.395   4.614 -0.5911  0.6248 -0.1230
  451MOL0     C59411   7.476   8.321   4.730  0.3841  0.6512 -0.0873
  451MOL0     C59412   7.332   8.288   4.705  0.0464  0.4133  1.0247
  451MOL0     C59413   7.273   8.260   4.841 -0.0798  1.0433  0.5736
  451MOL0     C59414   7.125   8.219   4.855 -1.2308 -0.8646  0.8741
  451MOL0     C59415   7.078   8.199   4.994  0.2500 -0.6007  0.2701
  451MOL0     C59416   6.918   8.194   4.994  0.6157  0.0485 -0.5436
  451MOL0     N59417   6.837   8.321   4.985 -0.6570  0.7006 -0.4737
  451MOL0     C59418   6.860   8.450   5.041 -0.3166 -0.0288 -0.1695
  451MOL0     C59419   6.754   8.526   4.994 -0.7249  0.0140  0.9482
  451MOL0     C59420   6.736   8.674   5.025 -0.3875 -0.2663  1.0742
  451MOL0     C59421   6.595   8.722   5.003  0.6511 -0.2956  0.2765
  451MOL0     C59422   6.503   8.662   5.118 -0.9580 -0.1808  0.3734
  451MOL0     C59423   6.367   8.652   5.057 -0.0603 -0.2830  0.4592
  451MOL0     O59424   6.285   8.579   5.162 -0.4662 -0.5622  0.0156
  451MOL0     C59425   6.146   8.593   5.140 -0.0492  0.3650  0.5872
  451MOL0     C59426   6.072   8.545   5.253 -0.4549 -0.3463 -0.0298
  451MOL0     C59427   5.935   8.534   5.233 -0.0819  0.0676 -0.3420
  451MOL0     C59428   5.873   8.574   5.110  0.2527 -0.2881  0.3767
  451MOL0     C59429   5.725   8.564   5.087  0.2938  0.2584  0.5083
  451MOL0     O59430   5.678   8.612   4.968 -0.6004 -0.0432 -0.1643
  451MOL0     C59431   5.543   8.638   4.961 -0.6723 -0.3484 -0.9456
  451MOL0     C59432   5.511   8.764   4.901 -0.8195 -0.1447  0.9269
  451MOL0     C59433   5.385   8.801   4.867  0.8860  0.6964  0.1601
  451MOL0     C59434   5.276   8.712   4.896 -0.6393  0.8174  0.2900
  451MOL0     O59435   5.144   8.738   4.879  0.2893 -0.0123  0.6871
  451MOL0     C59436   5.120   8.739   4.740  0.9076  0.5771 -0.1727
  451MOL0     C59437   4.969   8.728   4.727 -0.2596  0.0391 -0.6319
  451MOL0     C59438   4.936   8.616   4.620 -0.0508 -0.1346  0.2515
  451MOL0     C59439   4.945   8.475   4.702 -0.3789  0.0907  0.6684
  451MOL0     C59440   4.826   8.444   4.785  1.7106  0.0162  0.6005
  451MOL0     C59441   4.710   8.390   4.711  0.0064 -0.1515  0.3227
  451MOL0     C59442   4.586   8.378   4.794  0.2907  0.1724  0.6848
  451MOL0     C59443   4.461   8.364   4.703 -0.0638 -0.1056 -0.9084
  451MOL0    Cl59444   4.322   8.346   4.806 -0.3943 -0.0609 -0.4821
  451MOL0     C59445   5.304   8.587   4.956 -0.8048  0.8065 -0.5237
  451MOL0     C59446   5.439   8.548   4.987 -0.4916 -0.2968 -0.3744
  451MOL0     O59447   5.658   8.521   5.179 -0.1735  0.1674 -0.3615
  451MOL0     C59448   5.953   8.615   5.003  0.5164 -1.0073 -0.2697
  451MOL0     C59449   6.092   8.627   5.018 -0.2874 -0.0087  0.4981
  451MOL0     N59450   6.672   8.445   4.911 -0.3955 -1.0580  0.0637
  451MOL0     N59451   6.716   8.327   4.913  0.4647 -0.7982 -0.1638
  451MOL0     C59452   7.933   8.630   4.615 -0.7688  0.5587 -0.0413
  451MOL0     C59453   8.066   8.640   4.611  0.0726 -0.3963  0.6678
  451MOL0     C59454   8.514   8.526   4.523  0.7247  0.5337  0.8554
  451MOL0     C59455   8.536   8.613   4.403 -0.4370  0.8523 -0.6311
  451MOL0     C59456   8.666   8.610   4.345 -0.3424 -0.4429  0.0339
  451MOL0     C59457   8.768   8.538   4.408 -0.2864  0.3257 -0.0812
  451MOL0     O59458   8.902   8.552   4.376  0.0378  0.3699 -0.3507
  451MOL0     C59459   8.956   8.661   4.299  0.2554 -1.0066  0.3797
  451MOL0     C59460   9.087   8.629   4.224 -0.4994 -0.0877  0.4231
  451MOL0     C59461   9.202   8.566   4.309  0.5266 -0.1741 -0.0991
  451MOL0     C59462   9.275   8.462   4.221  0.2157  1.0703  0.3175
  451MOL0     C59463   9.418   8.435   4.266  0.6875  0.6351 -0.0688
  451MOL0     C59464   9.524   8.396   4.320 -0.4228 -0.3846 -0.7215
  451MOL0     C59465   8.740   8.451   4.510  0.5115  0.8493  0.6214
  451MOL0     C59466   8.617   8.448   4.573  1.4439 -0.5606  0.4711
  451MOL0     H59467   8.142   8.401   4.389  1.0765  0.2344  2.5651
  451MOL0     H59468   7.909   8.356   4.401  1.0021  0.5719  0.3768
  451MOL0     H59469   7.703   8.434   4.744 -1.5317 -2.3610  1.0577
  451MOL0     H59470   7.730   8.314   4.617 -0.5479 -0.6195 -0.6196
  451MOL0     H59471   7.526   8.342   4.519  1.0755 -0.2413  0.2076
  451MOL0     H59472   7.483   8.492   4.611 -1.5646  0.1124 -2.0682
  451MOL0     H59473   7.486   8.376   4.824  0.2984  0.0051  0.3042
  451MOL0     H59474   7.538   8.233   4.748  4.6302  3.1335 -1.1732
  451MOL0     H59475   7.276   8.370   4.659  2.6985  2.0824  0.5566
  451MOL0     H59476   7.322   8.200   4.641  1.1589  1.4244 -0.6106
  451MOL0     H59477   7.280   8.349   4.904  1.5711  0.8596  0.6965
  451MOL0     H59478   7.342   8.186   4.883 -0.5369  0.1438 -0.2177
  451MOL0     H59479   7.102   8.124   4.807 -1.9689 -0.5171  0.5142
  451MOL0     H59480   7.058   8.292   4.809 -1.0457 -0.9056  0.5401
  451MOL0     H59481   7.124   8.110   5.036  0.7408 -0.3869  0.1918
  451MOL0     H59482   7.100   8.285   5.059  0.4691 -1.4885  1.4046
  451MOL0     H59483   6.910   8.161   5.098  1.7766  2.2967  0.3445
  451MOL0     H59484   6.891   8.113   4.926  1.5477 -0.3849 -0.4222
  451MOL0     H59485   6.940   8.490   5.102 -0.8769  0.3250  0.3515
  451MOL0     H59486   6.810   8.741   4.980  0.5243 -0.9085  1.5865
  451MOL0     H59487   6.758   8.683   5.132 -0.8293  4.3039  0.9986
  451MOL0     H59488   6.562   8.692   4.903  1.7159 -0.1692 -0.1163
  451MOL0     H59489   6.582   8.830   5.000 -1.1040 -0.4904 -1.7596
  451MOL0     H59490   6.524   8.560   5.151 -0.6897  0.5457  2.5541
  451MOL0     H59491   6.505   8.719   5.211  0.2600  0.8213 -0.2412
  451MOL0     H59492   6.378   8.584   4.972  1.1058 -2.4380  2.2101
  451MOL0     H59493   6.334   8.753   5.035  2.9521  1.2624  2.3926
  451MOL0     H59494   6.121   8.518   5.346 -1.8577 -1.0020  0.5508
  451MOL0     H59495   5.868   8.502   5.313  1.4095  0.0774  0.9730
  451MOL0     H59496   5.588   8.832   4.867 -0.7499 -0.7066 -0.0848
  451MOL0     H59497   5.371   8.900   4.826  0.4657  2.4403  4.1190
  451MOL0     H59498   5.171   8.652   4.699  0.7838  0.0191  0.8103
  451MOL0     H59499   5.144   8.838   4.700 -4.3313  3.6433  2.9732
  451MOL0     H59500   4.946   8.830   4.695  0.3642  1.5226  3.1531
  451MOL0     H59501   4.913   8.694   4.814 -0.6286 -0.0223 -0.8921
  451MOL0     H59502   5.004   8.622   4.535 -1.7423  2.2676 -1.0565
  451MOL0     H59503   4.841   8.628   4.566  0.3671  1.7053 -0.1407
  451MOL0     H59504   4.956   8.391   4.633 -0.7263 -2.1411  3.1756
  451MOL0     H59505   5.032   8.485   4.768 -0.1448  0.1370  0.3555
  451MOL0     H59506   4.794   8.516   4.860 -3.6872  0.4439 -1.6393
  451MOL0     H59507   4.848   8.355   4.846  1.8597 -1.4885 -1.5190
  451MOL0     H59508   4.741   8.297   4.662  0.1609  0.3718 -0.6037
  451MOL0     H59509   4.679   8.450   4.624 -0.1001 -0.1864  0.3369
  451MOL0     H59510   4.599   8.295   4.864 -4.6922 -0.0573  1.6885
  451MOL0     H59511   4.562   8.468   4.851 -2.3029  0.0396 -0.0921
  451MOL0     H59512   4.483   8.273   4.648  2.3828  0.5142 -1.0561
  451MOL0     H59513   4.437   8.457   4.651  0.2836  2.3750  2.9266
  451MOL0     H59514   5.221   8.519   4.972 -0.6018  0.9839  1.5044
  451MOL0     H59515   5.457   8.446   5.020 -1.2112 -1.2215 -2.6553
  451MOL0     H59516   5.909   8.640   4.907 -0.9018  0.0859  0.6244
  451MOL0     H59517   6.150   8.646   4.928 -1.9713 -0.4433 -0.7148
  451MOL0     H59518   7.879   8.705   4.673 -2.6041 -0.2985 -0.6010
  451MOL0     H59519   8.121   8.719   4.662 -0.1165 -0.1756  0.5343
  451MOL0     H59520   8.451   8.668   4.364 -0.2210  2.3121  0.8713
  451MOL0     H59521   8.683   8.659   4.250 -0.4158 -0.7465 -0.1386
  451MOL0     H59522   8.975   8.755   4.352  2.9884  0.4821 -2.9197
  451MOL0     H59523   8.885   8.691   4.222  1.6539  0.2972 -0.4720
  451MOL0     H59524   9.069   8.568   4.135  2.7787 -2.8286  1.4303
  451MOL0     H59525   9.121   8.728   4.192 -1.8550 -0.2201 -1.6171
  451MOL0     H59526   9.164   8.531   4.405  0.7465 -0.5382 -0.1457
  451MOL0     H59527   9.274   8.647   4.323  1.6010 -0.5438 -2.7981
  451MOL0     H59528   9.221   8.367   4.222  2.7630 -0.4939  2.0209
  451MOL0     H59529   9.289   8.502   4.120  1.9831  0.5642  0.3161
  451MOL0     H59530   9.606   8.352   4.373  0.6800  1.7223 -0.5738
  451MOL0     H59531   8.816   8.388   4.554  0.4766  1.4198  1.5242
  451MOL0     H59532   8.602   8.399   4.669  2.3115 -0.0695  0.8626
  452MOL0     O59533   0.475  10.364   3.467  0.1321 -0.1513 -0.6354
  452MOL0     C59534   0.462  10.348   3.348  0.0425  0.7946  0.9379
  452MOL0     O59535   0.563  10.321   3.261  0.2380  0.0152  0.4739
  452MOL0     C59536   0.689  10.347   3.294 -0.5169 -0.0816  0.0894
  452MOL0     C59537   0.727  10.461   3.367  0.2634 -0.2561  0.0876
  452MOL0     C59538   0.863  10.484   3.404 -0.1571  0.1937  0.0971
  452MOL0     C59539   0.963  10.399   3.356  0.1677 -0.6611 -0.6513
  452MOL0     O59540   1.097  10.418   3.363 -0.5952  0.1962 -0.0978
  452MOL0     C59541   1.143  10.483   3.478 -0.4730 -1.0433  0.5173
  452MOL0     C59542   1.292  10.449   3.481  0.5940  0.0525 -0.5552
  452MOL0     C59543   1.366  10.556   3.571 -0.5558  0.6805 -0.4362
  452MOL0     C59544   1.510  10.514   3.610  0.1387 -0.4030  0.0319
  452MOL0     C59545   1.598  10.627   3.652 -0.0755  0.7212  0.1537
  452MOL0     C59546   1.732  10.580   3.696 -0.2572  0.4795 -0.6653
  452MOL0     C59547   1.842  10.678   3.661 -0.9359 -0.4053 -0.4034
  452MOL0     C59548   1.892  10.677   3.515 -1.1264 -0.8158 -0.8203
  452MOL0     N59549   1.944  10.814   3.484 -0.6791 -0.0173 -0.8002
  452MOL0     C59550   2.070  10.853   3.506 -1.2361  0.7156 -0.5593
  452MOL0     C59551   2.074  10.982   3.476 -1.0072 -0.5151 -0.3706
  452MOL0     C59552   2.187  11.090   3.479  0.3264  0.6371 -0.4762
  452MOL0     C59553   2.268  11.065   3.604  0.3585  0.8699 -0.0774
  452MOL0     C59554   2.376  10.961   3.575  0.1278 -0.3599 -0.6941
  452MOL0     C59555   2.442  10.880   3.693 -0.2323  0.6096 -0.6123
  452MOL0     O59556   2.508  10.960   3.803  0.1225  0.6197 -0.1736
  452MOL0     C59557   2.620  11.029   3.779 -0.5819 -0.1245  0.1487
  452MOL0     C59558   2.686  11.043   3.661  0.5129  0.4849  0.8252
  452MOL0     C59559   2.786  11.125   3.642  0.0842 -1.1021  0.6363
  452MOL0     C59560   2.827  11.210   3.751  0.8780 -0.1901  1.2914
  452MOL0     C59561   2.932  11.317   3.727  0.6652  1.1679  0.8097
  452MOL0     O59562   2.960  11.398   3.827  0.0345  0.1730 -0.3184
  452MOL0     C59563   3.047  11.500   3.807  0.8288 -0.4765 -0.6519
  452MOL0     C59564   3.176  11.490   3.863 -0.4136  0.4603 -0.4583
  452MOL0     C59565   3.276  11.578   3.824 -0.2379 -0.3687  1.1192
  452MOL0     C59566   3.256  11.686   3.740  0.4174  1.4521  0.4231
  452MOL0     O59567   3.356  11.778   3.709 -0.1037 -0.9345 -0.5961
  452MOL0     C59568   3.476  11.720   3.653  0.0721 -0.5619  0.5478
  452MOL0     C59569   3.534  11.815   3.557 -0.4314 -0.4052 -0.5392
  452MOL0     C59570   3.582  11.945   3.634 -0.0413 -0.1187  0.0716
  452MOL0     C59571   3.705  11.994   3.554  0.0053 -0.2497  0.2267
  452MOL0     C59572   3.768  12.102   3.635  0.4116 -0.1681  0.0560
  452MOL0     C59573   3.839  12.216   3.557  0.5402 -0.2386 -0.4524
  452MOL0     C59574   3.906  12.301   3.662  0.7540 -0.0722 -0.7853
  452MOL0     C59575   3.971  12.432   3.598 -1.4371  0.1527 -0.2947
  452MOL0    Cl59576   4.117  12.377   3.510  0.1014  0.2086 -0.0821
  452MOL0     C59577   3.129  11.689   3.682  0.7352  0.1494  0.5100
  452MOL0     C59578   3.028  11.599   3.716  1.1133 -0.1954  0.4391
  452MOL0     O59579   2.998  11.307   3.625  0.1814  0.6375 -0.4032
  452MOL0     C59580   2.761  11.200   3.873 -0.8743 -0.7042 -0.4403
  452MOL0     C59581   2.656  11.112   3.883  0.0458  0.0230  0.4919
  452MOL0     N59582   1.947  11.021   3.437  0.5892  0.0340 -0.3243
  452MOL0     N59583   1.874  10.915   3.432  0.9370  0.1427  0.6996
  452MOL0     C59584   0.923  10.286   3.277  0.1815 -0.5736 -0.0646
  452MOL0     C59585   0.791  10.265   3.243 -0.6967  0.6707  0.7355
  452MOL0     C59586   0.325  10.349   3.283  0.5095  1.0734 -0.4692
  452MOL0     C59587   0.226  10.420   3.350  0.5798 -0.0661  0.6246
  452MOL0     C59588   0.105  10.445   3.284 -0.3206 -0.1470 -0.8309
  452MOL0     C59589   0.068  10.380   3.160 -0.3385 -0.2738  0.1725
  452MOL0     O59590  -0.055  10.392   3.104 -0.2147 -0.0683 -0.2157
  452MOL0     C59591  -0.144  10.494   3.143 -0.4744 -0.1455 -0.4465
  452MOL0     C59592  -0.246  10.518   3.031  0.0696 -0.0744  0.6635
  452MOL0     C59593  -0.337  10.400   3.005  0.3355  1.2012 -0.3750
  452MOL0     C59594  -0.444  10.412   2.885  0.4081 -0.3351 -1.1119
  452MOL0     C59595  -0.564  10.327   2.892  0.5158  0.1822 -0.3426
  452MOL0     C59596  -0.661  10.247   2.884 -0.3513  0.4149  0.8667
  452MOL0     C59597   0.159  10.303   3.094 -0.0037 -0.9718 -0.0341
  452MOL0     C59598   0.286  10.286   3.162  0.3158  0.2291  0.3588
  452MOL0     H59599   0.659  10.541   3.395  2.3825  0.3765  4.2636
  452MOL0     H59600   0.900  10.575   3.449 -2.1330  0.3141  1.6309
  452MOL0     H59601   1.096  10.439   3.567  0.8813 -0.7549  1.4137
  452MOL0     H59602   1.118  10.589   3.472  2.1048 -0.3759  0.6249
  452MOL0     H59603   1.336  10.461   3.382 -3.3101  0.2633 -2.4283
  452MOL0     H59604   1.305  10.349   3.524  0.4643 -0.1501 -0.9866
  452MOL0     H59605   1.313  10.579   3.664 -0.9502 -4.1193  0.8150
  452MOL0     H59606   1.365  10.652   3.519  2.3122  1.6751  1.1742
  452MOL0     H59607   1.502  10.457   3.703 -0.5519 -2.3430 -1.1427
  452MOL0     H59608   1.552  10.454   3.528  1.2202  0.5225 -0.1167
  452MOL0     H59609   1.553  10.671   3.741 -3.7749  4.0343 -2.9290
  452MOL0     H59610   1.603  10.706   3.576 -2.9006 -1.4288 -2.5079
  452MOL0     H59611   1.762  10.486   3.649 -0.9753  0.3962 -0.9679
  452MOL0     H59612   1.737  10.558   3.803 -2.1015 -0.1481 -0.6783
  452MOL0     H59613   1.810  10.775   3.699 -0.7639 -1.6510  3.3381
  452MOL0     H59614   1.930  10.681   3.726 -1.3218  0.7985  0.0907
  452MOL0     H59615   1.804  10.656   3.453 -1.4099 -1.4969 -0.1991
  452MOL0     H59616   1.971  10.603   3.503  0.6581  0.8111  0.2988
  452MOL0     H59617   2.144  10.784   3.545 -1.6205 -0.9198 -2.5500
  452MOL0     H59618   2.126  11.181   3.481 -3.3075 -1.5358  3.4433
  452MOL0     H59619   2.246  11.082   3.387  3.1824  3.1758  0.9435
  452MOL0     H59620   2.204  11.037   3.688  1.0762  0.2778  0.2851
  452MOL0     H59621   2.325  11.155   3.629  0.5568  1.2766 -1.8451
  452MOL0     H59622   2.327  10.881   3.520 -0.2619 -0.7060  0.1393
  452MOL0     H59623   2.450  11.019   3.519  0.5291  0.9492  1.1018
  452MOL0     H59624   2.519  10.820   3.646  1.5112  1.2769  1.2498
  452MOL0     H59625   2.377  10.811   3.748  1.6501 -0.2496  0.6374
  452MOL0     H59626   2.652  10.979   3.580 -0.2423  1.1010  0.6441
  452MOL0     H59627   2.831  11.140   3.545 -1.3737  1.4783  0.2487
  452MOL0     H59628   3.210  11.408   3.925  1.3718 -1.1754 -3.3380
  452MOL0     H59629   3.375  11.572   3.868 -0.5640  1.0953  2.1027
  452MOL0     H59630   3.447  11.629   3.600 -1.4779 -0.9052  1.8975
  452MOL0     H59631   3.550  11.695   3.730  1.2129  2.1790  0.4647
  452MOL0     H59632   3.460  11.848   3.483 -0.3541  1.9780  0.3742
  452MOL0     H59633   3.624  11.770   3.514 -0.3706 -1.2218  0.4206
  452MOL0     H59634   3.614  11.917   3.735 -0.1001 -2.8376 -0.6106
  452MOL0     H59635   3.502  12.020   3.631 -0.5128 -0.4517  2.3004
  452MOL0     H59636   3.775  11.914   3.528 -0.3147 -0.2833 -0.5291
  452MOL0     H59637   3.678  12.033   3.456  1.8538 -1.7600 -0.9438
  452MOL0     H59638   3.838  12.047   3.699 -0.7412 -3.3277 -1.1983
  452MOL0     H59639   3.693  12.153   3.696  1.3470  0.4357  0.7429
  452MOL0     H59640   3.781  12.281   3.492 -1.6749  0.7038  2.2902
  452MOL0     H59641   3.916  12.164   3.498  0.2564  0.9219 -1.9099
  452MOL0     H59642   3.836  12.343   3.735  1.0193  2.2143 -1.7443
  452MOL0     H59643   3.985  12.252   3.719  0.7652 -0.2775 -0.9782
  452MOL0     H59644   3.990  12.501   3.682  1.5457 -0.5393 -0.2980
  452MOL0     H59645   3.908  12.489   3.530 -1.4209  1.0164  0.3942
  452MOL0     H59646   3.099  11.761   3.606 -1.2958 -1.4567 -0.3176
  452MOL0     H59647   2.929  11.598   3.670  1.0159 -0.8148  0.6484
  452MOL0     H59648   2.794  11.252   3.962  1.0385 -1.4842 -0.6469
  452MOL0     H59649   2.599  11.121   3.975  2.3625  1.0225  1.8953
  452MOL0     H59650   1.002  10.217   3.249  2.0093  1.6475 -0.7807
  452MOL0     H59651   0.750  10.177   3.195  1.0419  0.9672 -1.4310
  452MOL0     H59652   0.235  10.476   3.443 -0.0303  0.6382  0.2780
  452MOL0     H59653   0.041  10.520   3.330 -0.6727 -1.7197  1.4374
  452MOL0     H59654  -0.103  10.592   3.169  2.9302 -1.6521  0.3916
  452MOL0     H59655  -0.190  10.452   3.233  0.1125  2.0093  0.9306
  452MOL0     H59656  -0.308  10.605   3.055  1.1349  0.2437  2.5197
  452MOL0     H59657  -0.193  10.535   2.937 -0.8586  0.3683  0.2079
  452MOL0     H59658  -0.392  10.384   3.098 -1.4261 -1.1714 -1.6995
  452MOL0     H59659  -0.267  10.322   2.973  1.5156 -0.0762  4.4867
  452MOL0     H59660  -0.471  10.517   2.870  3.8374  0.5294 -1.9653
  452MOL0     H59661  -0.400  10.378   2.791  1.1358 -0.6173 -0.6808
  452MOL0     H59662  -0.738  10.173   2.878 -2.4917  2.2680  3.1484
  452MOL0     H59663   0.140  10.261   2.995 -1.4060 -0.9324  0.2050
  452MOL0     H59664   0.366  10.236   3.108  2.1949  3.1716  0.2020
  453MOL0     O59665  11.300   4.824   7.664  0.8000 -0.0314  0.7078
  453MOL0     C59666  11.370   4.914   7.703 -0.2383  0.2632  0.0838
  453MOL0     O59667  11.330   5.041   7.744 -1.1976 -0.2144 -0.1768
  453MOL0     C59668  11.206   5.075   7.769  0.3294 -1.1279  0.1634
  453MOL0     C59669  11.112   4.990   7.824  0.5422  0.4985 -0.4436
  453MOL0     C59670  10.978   5.032   7.854  0.0378  0.1623  0.3161
  453MOL0     C59671  10.954   5.171   7.860 -0.3501  0.5087 -0.0507
  453MOL0     O59672  10.836   5.204   7.922  0.2225  0.2239  0.1596
  453MOL0     C59673  10.790   5.341   7.907 -0.5790  0.4452 -1.1926
  453MOL0     C59674  10.649   5.332   7.948 -0.0289 -0.5541 -0.0959
  453MOL0     C59675  10.593   5.475   7.924 -1.6590 -0.5374 -0.6303
  453MOL0     C59676  10.434   5.483   7.924  0.0454  0.1033  0.2319
  453MOL0     C59677  10.386   5.624   7.906  0.2279  0.6339 -0.1796
  453MOL0     C59678  10.423   5.724   8.017  0.8178  0.1831 -0.1039
  453MOL0     C59679  10.436   5.874   7.979 -0.1745 -0.1268 -0.3567
  453MOL0     C59680  10.308   5.957   7.947  0.6298  0.7692  0.8020
  453MOL0     N59681  10.232   5.922   7.820  0.4855  0.3667 -1.2081
  453MOL0     C59682  10.120   5.844   7.818 -0.5977 -0.7034  0.8384
  453MOL0     C59683  10.070   5.870   7.693 -0.4283  0.3066 -0.0218
  453MOL0     C59684   9.944   5.820   7.625 -0.3696  0.8301  0.1883
  453MOL0     C59685   9.819   5.898   7.641 -0.0275  0.8496 -0.4763
  453MOL0     C59686   9.720   5.832   7.545  0.2535 -0.5120  0.8303
  453MOL0     C59687   9.586   5.916   7.528  0.3369  0.8669  0.0373
  453MOL0     O59688   9.506   5.860   7.413 -0.0637 -0.4373 -0.9516
  453MOL0     C59689   9.367   5.863   7.418  0.0263  1.2029 -0.1732
  453MOL0     C59690   9.302   5.771   7.338  0.5048  0.1555 -0.4519
  453MOL0     C59691   9.164   5.757   7.336  0.1471 -0.0123 -0.6802
  453MOL0     C59692   9.091   5.839   7.425 -0.8537  0.2986  0.4662
  453MOL0     C59693   8.943   5.831   7.434 -0.0720 -0.4006  0.4051
  453MOL0     O59694   8.879   5.912   7.516 -0.3911 -0.2296  0.4909
  453MOL0     C59695   8.738   5.916   7.515  1.1076  0.1564  0.9114
  453MOL0     C59696   8.673   5.841   7.617  0.2151  0.2636  0.2512
  453MOL0     C59697   8.535   5.855   7.622  1.0486  0.2519  0.2024
  453MOL0     C59698   8.465   5.949   7.537 -0.3120  0.5673  0.4340
  453MOL0     O59699   8.335   5.970   7.566  0.1743 -0.6008 -0.8704
  453MOL0     C59700   8.251   6.049   7.485 -0.6971 -0.0422  0.0055
  453MOL0     C59701   8.113   6.012   7.536  0.7092 -0.2312 -0.1892
  453MOL0     C59702   8.006   6.090   7.467  0.7254 -0.0022 -0.4719
  453MOL0     C59703   7.864   6.076   7.530 -0.1460  0.9638 -0.1204
  453MOL0     C59704   7.771   6.189   7.475 -0.4578  0.0587 -0.5761
  453MOL0     C59705   7.619   6.146   7.456 -0.7463 -0.3340 -0.4246
  453MOL0     C59706   7.534   6.271   7.437 -0.8216 -1.0582 -0.3353
  453MOL0     C59707   7.406   6.216   7.399  0.6187  0.7610  0.1180
  453MOL0    Cl59708   7.281   6.336   7.355  0.4538  0.0389 -0.1948
  453MOL0     C59709   8.535   6.008   7.433 -0.4468  0.2659 -0.2212
  453MOL0     C59710   8.673   6.001   7.422  0.3058  0.6239 -0.1814
  453MOL0     O59711   8.891   5.769   7.347 -0.5908  0.5726  0.5237
  453MOL0     C59712   9.157   5.934   7.510 -0.4729 -0.7219  0.4133
  453MOL0     C59713   9.299   5.943   7.507  1.0543  0.1135  0.3300
  453MOL0     N59714  10.151   5.962   7.626 -0.2736 -0.9832 -0.6196
  453MOL0     N59715  10.257   5.986   7.712  0.5413 -0.0545  0.3371
  453MOL0     C59716  11.048   5.258   7.809  0.3777  0.2107 -0.6562
  453MOL0     C59717  11.170   5.212   7.768 -0.4308 -0.3621  0.0377
  453MOL0     C59718  11.520   4.889   7.712 -0.1819 -0.5841  0.2905
  453MOL0     C59719  11.576   4.774   7.661  0.0373  0.4056  0.5244
  453MOL0     C59720  11.711   4.752   7.670 -0.2700 -0.1329  0.6383
  453MOL0     C59721  11.800   4.846   7.736  0.6371 -0.4508 -0.8966
  453MOL0     O59722  11.936   4.815   7.737  0.4077 -0.1467  0.3940
  453MOL0     C59723  12.012   4.868   7.837  0.7017 -0.0293 -0.3877
  453MOL0     C59724  12.154   4.819   7.819  0.5286  0.3478 -0.1618
  453MOL0     C59725  12.256   4.916   7.861  0.9346  0.9581 -0.4578
  453MOL0     C59726  12.387   4.853   7.870  0.0424 -0.6144  0.5430
  453MOL0     C59727  12.451   4.827   7.749 -0.1905  0.0911 -0.4942
  453MOL0     C59728  12.467   4.774   7.645 -0.7129 -0.2981 -0.3796
  453MOL0     C59729  11.736   4.958   7.788 -0.5762 -0.8770  0.6498
  453MOL0     C59730  11.601   4.987   7.777 -0.0645 -0.9332  0.1208
  453MOL0     H59731  11.134   4.885   7.838 -0.7037  0.0903 -1.3407
  453MOL0     H59732  10.916   4.951   7.892 -1.7222  0.4080 -1.8117
  453MOL0     H59733  10.809   5.379   7.806  1.7880 -1.0662 -1.4147
  453MOL0     H59734  10.834   5.409   7.982  3.4140 -2.5763 -0.4104
  453MOL0     H59735  10.631   5.310   8.054  1.1344 -2.4149 -0.2454
  453MOL0     H59736  10.590   5.257   7.895 -0.2616 -0.8614  0.5815
  453MOL0     H59737  10.621   5.509   7.823 -2.7871  0.1788 -0.7243
  453MOL0     H59738  10.636   5.539   8.002 -0.8687 -1.2931 -0.4336
  453MOL0     H59739  10.387   5.417   7.850 -0.7454  0.2744  0.5706
  453MOL0     H59740  10.397   5.465   8.025 -0.9172  2.4618  0.3703
  453MOL0     H59741  10.277   5.617   7.912  0.3009  0.6517  1.7461
  453MOL0     H59742  10.407   5.665   7.807 -3.8078  0.7542 -1.1741
  453MOL0     H59743  10.512   5.691   8.072 -0.0170  0.7061  1.6382
  453MOL0     H59744  10.347   5.734   8.095  1.0949  2.7750 -0.0619
  453MOL0     H59745  10.473   5.925   8.069 -1.0398 -1.7342  0.9642
  453MOL0     H59746  10.508   5.893   7.898  1.6583  1.1148  1.4649
  453MOL0     H59747  10.329   6.063   7.927  0.3395  0.5188 -0.9246
  453MOL0     H59748  10.245   5.958   8.036  0.7275 -0.2618  0.8921
  453MOL0     H59749  10.082   5.788   7.902 -0.1460 -0.9399  0.8926
  453MOL0     H59750   9.924   5.720   7.662 -0.9356  0.5080 -0.9329
  453MOL0     H59751   9.965   5.815   7.517 -1.4539 -3.6012 -0.0056
  453MOL0     H59752   9.846   6.003   7.624  0.9979  0.3513 -2.1821
  453MOL0     H59753   9.774   5.887   7.740 -1.5476  1.5495 -1.0473
  453MOL0     H59754   9.759   5.833   7.443  1.1090 -1.1237  1.1413
  453MOL0     H59755   9.680   5.736   7.580 -3.4817  0.7980  0.5471
  453MOL0     H59756   9.613   6.021   7.514  1.7164  0.4654 -0.4564
  453MOL0     H59757   9.528   5.912   7.620 -0.8228  0.4875 -0.6885
  453MOL0     H59758   9.366   5.714   7.272  3.0801 -1.4994  3.1318
  453MOL0     H59759   9.112   5.681   7.279 -1.4546  1.5201 -1.3552
  453MOL0     H59760   8.740   5.780   7.677  0.4630  1.9062  1.7107
  453MOL0     H59761   8.485   5.814   7.709 -1.8824  3.8225  0.4611
  453MOL0     H59762   8.263   6.020   7.380  3.4649  1.5646 -0.1781
  453MOL0     H59763   8.266   6.157   7.494 -0.6467 -0.1151  0.8079
  453MOL0     H59764   8.110   6.039   7.642  4.1521 -0.6725  0.1441
  453MOL0     H59765   8.089   5.906   7.531  1.3645 -0.4221  0.4783
  453MOL0     H59766   7.998   6.066   7.361 -0.6985 -1.2012 -0.1373
  453MOL0     H59767   8.024   6.198   7.472  0.1424  0.0473  0.9786
  453MOL0     H59768   7.824   5.978   7.500 -2.5219  2.3336 -1.6873
  453MOL0     H59769   7.869   6.077   7.639  0.7159 -1.2721 -0.0739
  453MOL0     H59770   7.801   6.213   7.373  4.9844 -0.3859  0.6287
  453MOL0     H59771   7.775   6.278   7.538 -1.6452  1.1081 -1.8999
  453MOL0     H59772   7.590   6.102   7.552 -1.9005  0.3277 -0.4564
  453MOL0     H59773   7.623   6.074   7.373  2.2038 -0.6368 -0.1522
  453MOL0     H59774   7.522   6.336   7.524  1.7118 -1.5429  0.4678
  453MOL0     H59775   7.588   6.321   7.355 -1.8982 -1.9779 -1.6439
  453MOL0     H59776   7.359   6.165   7.484  0.0435  1.4044  0.1971
  453MOL0     H59777   7.420   6.138   7.324  2.2713  0.2443  0.9300
  453MOL0     H59778   8.490   6.084   7.370  0.4515 -0.9394 -2.4115
  453MOL0     H59779   8.726   6.058   7.346 -0.6631  0.3685 -1.0584
  453MOL0     H59780   9.116   6.010   7.576 -0.3978  0.6640 -1.0858
  453MOL0     H59781   9.351   6.020   7.563  0.6018  2.5815 -2.3988
  453MOL0     H59782  11.032   5.365   7.821 -2.9944 -0.2767  0.1349
  453MOL0     H59783  11.246   5.285   7.742 -0.5143  0.4650  1.9299
  453MOL0     H59784  11.509   4.699   7.619 -0.5896  1.1215  0.2305
  453MOL0     H59785  11.743   4.658   7.625 -1.3431 -0.6029  0.8397
  453MOL0     H59786  11.970   4.831   7.931 -0.3302 -2.3240 -1.6609
  453MOL0     H59787  12.021   4.977   7.833 -1.3516  0.1449 -1.4698
  453MOL0     H59788  12.148   4.741   7.895 -3.6211 -0.2578 -0.9065
  453MOL0     H59789  12.171   4.785   7.716 -2.5998  2.6997 -1.6206
  453MOL0     H59790  12.225   4.954   7.959 -0.2424  0.5850 -0.6604
  453MOL0     H59791  12.232   5.002   7.797 -1.5782  0.1344 -0.7302
  453MOL0     H59792  12.451   4.905   7.942 -1.3378 -2.5977  3.3988
  453MOL0     H59793  12.382   4.756   7.920  0.6493 -1.7706 -1.5124
  453MOL0     H59794  12.482   4.732   7.547 -0.1909  4.0381 -2.3799
  453MOL0     H59795  11.785   5.041   7.838 -1.7983  1.0002 -1.1648
  453MOL0     H59796  11.560   5.079   7.818  1.7891  1.8076 -3.5358
  454MOL0     O59797   3.350   3.371   5.445 -0.6889  0.4243 -1.0602
  454MOL0     C59798   3.369   3.486   5.419  0.0454 -0.5088 -0.2754
  454MOL0     O59799   3.272   3.582   5.409  0.2444  0.3698 -0.3602
  454MOL0     C59800   3.137   3.545   5.407  0.0273  0.0767 -0.4288
  454MOL0     C59801   3.057   3.630   5.470  0.2995 -0.3052  0.6923
  454MOL0     C59802   2.920   3.628   5.454 -0.1430 -1.0437 -1.2322
  454MOL0     C59803   2.855   3.517   5.399 -0.5400  0.2313  0.5725
  454MOL0     O59804   2.720   3.499   5.397  0.2729 -0.4715 -0.1344
  454MOL0     C59805   2.640   3.546   5.506 -0.5269  0.5608 -0.2375
  454MOL0     C59806   2.688   3.503   5.647 -0.2868 -1.2554  0.3566
  454MOL0     C59807   2.570   3.535   5.744 -0.9919 -0.1427  0.6283
  454MOL0     C59808   2.616   3.557   5.888 -0.2048 -0.6840 -0.0269
  454MOL0     C59809   2.511   3.602   5.987 -0.6659  0.7509 -0.3751
  454MOL0     C59810   2.427   3.485   6.038 -0.3243  0.8151  0.4585
  454MOL0     C59811   2.312   3.523   6.131 -0.7687  0.2953  0.2676
  454MOL0     C59812   2.327   3.636   6.226 -0.8014  0.0573  0.4124
  454MOL0     N59813   2.208   3.660   6.302 -0.4810  0.2799 -1.0207
  454MOL0     C59814   2.199   3.620   6.435  0.1563 -0.3022  1.4500
  454MOL0     C59815   2.079   3.660   6.472  0.1102  0.0091 -0.7673
  454MOL0     C59816   2.024   3.642   6.612  0.3788 -0.2011 -0.3043
  454MOL0     C59817   1.871   3.682   6.619  0.0478 -0.5377  0.1456
  454MOL0     C59818   1.800   3.657   6.753 -0.5160 -0.3222 -0.0658
  454MOL0     C59819   1.649   3.684   6.730 -0.7619  0.8580  0.4815
  454MOL0     O59820   1.589   3.591   6.646  0.8636  0.5869  0.3089
  454MOL0     C59821   1.457   3.595   6.630  0.3009 -0.0550 -0.5537
  454MOL0     C59822   1.401   3.483   6.573 -0.3942  0.6085  0.0543
  454MOL0     C59823   1.260   3.474   6.558  0.1703 -0.9691 -0.5071
  454MOL0     C59824   1.175   3.572   6.599 -0.1033 -0.8258 -0.1925
  454MOL0     C59825   1.029   3.579   6.564 -0.1342 -0.2982 -0.6700
  454MOL0     O59826   0.994   3.470   6.493 -1.8212 -0.1050 -0.2240
  454MOL0     C59827   0.866   3.430   6.477  0.5892 -0.4558  0.2660
  454MOL0     C59828   0.860   3.316   6.405  0.0888  0.3286  0.1432
  454MOL0     C59829   0.750   3.222   6.409 -0.3815  0.9409  0.7907
  454MOL0     C59830   0.633   3.282   6.460  0.5793 -0.6714 -0.2750
  454MOL0     O59831   0.506   3.235   6.444  0.2296 -0.3586 -0.2932
  454MOL0     C59832   0.500   3.101   6.409  0.2964  0.1637  0.1597
  454MOL0     C59833   0.352   3.068   6.411  0.6359 -0.0360  0.1167
  454MOL0     C59834   0.295   3.062   6.553  0.3006 -0.0683 -0.4614
  454MOL0     C59835   0.148   3.015   6.559  0.0819 -0.2879  0.8828
  454MOL0     C59836   0.096   3.009   6.699  0.3055  0.0626 -0.2140
  454MOL0     C59837   0.058   3.150   6.748 -0.2715  0.7475 -0.2762
  454MOL0     C59838   0.035   3.162   6.898  0.0116  0.1131  0.2192
  454MOL0     C59839   0.168   3.163   6.971  0.1943  0.3895  0.4730
  454MOL0    Cl59840   0.188   3.003   7.051  0.4128 -0.2625 -0.1131
  454MOL0     C59841   0.637   3.403   6.528  0.5249 -0.1698  0.4073
  454MOL0     C59842   0.754   3.478   6.540 -0.1963  0.8278  0.3760
  454MOL0     O59843   0.957   3.674   6.583  0.9756 -0.5213  0.5261
  454MOL0     C59844   1.236   3.691   6.655  0.3782  0.1913  0.5564
  454MOL0     C59845   1.377   3.698   6.681 -0.2936  0.0401  0.8838
  454MOL0     N59846   2.022   3.715   6.359  0.3461  0.7197 -0.1847
  454MOL0     N59847   2.099   3.721   6.267 -0.1924  0.8313  0.4451
  454MOL0     C59848   2.938   3.424   5.343 -1.2475 -0.4467  0.8354
  454MOL0     C59849   3.078   3.441   5.341  0.2876 -0.0457  0.0125
  454MOL0     C59850   3.505   3.524   5.374  0.0909  0.1315  0.1040
  454MOL0     C59851   3.543   3.656   5.340  0.7163  0.7184 -0.7087
  454MOL0     C59852   3.670   3.686   5.307  0.1277  0.7363  0.2082
  454MOL0     C59853   3.779   3.591   5.302  0.6995  0.0303 -0.2923
  454MOL0     O59854   3.905   3.617   5.259  0.0498  0.1583  0.8861
  454MOL0     C59855   3.946   3.740   5.206 -0.4478  0.0292  0.1023
  454MOL0     C59856   4.092   3.735   5.147  0.1029 -0.2448  0.1060
  454MOL0     C59857   4.209   3.764   5.241  0.8017  0.9566  0.0280
  454MOL0     C59858   4.207   3.690   5.378  0.3362  0.6256 -0.2236
  454MOL0     C59859   4.332   3.690   5.460 -0.3973  1.2913 -0.1085
  454MOL0     C59860   4.420   3.694   5.544 -0.9335  0.2061  0.5519
  454MOL0     C59861   3.750   3.466   5.357  0.2318 -0.6086 -0.0703
  454MOL0     C59862   3.612   3.431   5.391 -0.0150 -0.3205 -0.5951
  454MOL0     H59863   3.094   3.707   5.537  1.0021 -0.0471  0.0252
  454MOL0     H59864   2.862   3.708   5.497 -0.8244  0.6755 -4.9458
  454MOL0     H59865   2.538   3.510   5.491 -0.1097 -0.6526 -0.2631
  454MOL0     H59866   2.633   3.654   5.488  2.7663  0.7093 -1.3107
  454MOL0     H59867   2.778   3.560   5.669 -1.8106  2.0016 -1.2162
  454MOL0     H59868   2.715   3.397   5.652  0.0870 -1.1947 -0.3747
  454MOL0     H59869   2.501   3.451   5.739 -0.4412 -0.5323 -2.4035
  454MOL0     H59870   2.520   3.626   5.709 -0.5223  0.0623  0.4719
  454MOL0     H59871   2.656   3.460   5.921  0.1654 -0.5381 -0.0428
  454MOL0     H59872   2.698   3.629   5.896 -0.8237  0.0585 -0.2547
  454MOL0     H59873   2.452   3.685   5.946 -0.7420  0.4577 -0.8807
  454MOL0     H59874   2.566   3.637   6.074  2.1776 -0.5276 -1.5381
  454MOL0     H59875   2.496   3.414   6.085 -2.4773 -1.4840  0.3434
  454MOL0     H59876   2.388   3.421   5.959  1.2004 -2.0077  1.8397
  454MOL0     H59877   2.215   3.529   6.081 -0.0547 -0.1971 -1.2200
  454MOL0     H59878   2.300   3.436   6.195  1.9807 -0.3320  0.0299
  454MOL0     H59879   2.333   3.737   6.183  3.2311  0.8372  2.4122
  454MOL0     H59880   2.409   3.617   6.295 -0.6088  0.6446  0.3498
  454MOL0     H59881   2.277   3.566   6.488 -0.2730 -3.7901 -1.1530
  454MOL0     H59882   2.076   3.718   6.670 -0.3397  0.3128 -0.3322
  454MOL0     H59883   2.031   3.539   6.648 -3.3056 -0.0770  1.1586
  454MOL0     H59884   1.826   3.619   6.542  1.5904 -3.0825  1.1699
  454MOL0     H59885   1.854   3.785   6.589 -3.8694 -0.7717  1.1415
  454MOL0     H59886   1.804   3.553   6.786 -2.1860 -0.2347  0.5212
  454MOL0     H59887   1.843   3.720   6.831  0.4508 -0.5199 -0.4210
  454MOL0     H59888   1.635   3.779   6.677  1.0922  1.6921  1.3838
  454MOL0     H59889   1.606   3.683   6.831 -2.6346  0.1725 -0.2705
  454MOL0     H59890   1.461   3.419   6.508 -2.1465 -2.1994  1.0313
  454MOL0     H59891   1.212   3.382   6.527  2.0596 -2.2526  0.1695
  454MOL0     H59892   0.956   3.286   6.366  0.3293 -0.6894  1.4602
  454MOL0     H59893   0.763   3.127   6.358  0.8376  2.7780 -2.6605
  454MOL0     H59894   0.552   3.021   6.461  4.0523  0.3442 -2.8300
  454MOL0     H59895   0.517   3.097   6.301  3.8941  0.9686  0.5782
  454MOL0     H59896   0.331   2.968   6.372 -4.0740  0.2037  1.4482
  454MOL0     H59897   0.292   3.133   6.347  1.5775 -1.8300 -2.7369
  454MOL0     H59898   0.311   3.153   6.613 -2.2353  0.4443 -0.4363
  454MOL0     H59899   0.349   2.978   6.597  0.7153  0.7752  0.7176
  454MOL0     H59900   0.081   3.072   6.494 -0.7253 -0.5317  1.4979
  454MOL0     H59901   0.134   2.920   6.507 -0.3271  1.6485 -2.9353
  454MOL0     H59902   0.171   2.966   6.766  0.0185  0.3605  0.3116
  454MOL0     H59903   0.005   2.951   6.715 -0.2724  1.3654  1.6077
  454MOL0     H59904  -0.038   3.170   6.700 -0.0395  1.5341 -0.4273
  454MOL0     H59905   0.133   3.225   6.720  2.0225 -0.6493  1.6834
  454MOL0     H59906  -0.024   3.254   6.909  1.4636  1.2427 -1.0570
  454MOL0     H59907  -0.033   3.081   6.925  0.1086 -1.3690 -3.4398
  454MOL0     H59908   0.175   3.248   7.040 -1.6896 -0.2548  1.5467
  454MOL0     H59909   0.250   3.175   6.901  0.5525  0.3673  0.8818
  454MOL0     H59910   0.547   3.451   6.566  1.5186  0.9810  1.3758
  454MOL0     H59911   0.751   3.577   6.585  2.6653  1.6931 -1.0986
  454MOL0     H59912   1.167   3.765   6.694  1.0978  0.2040  1.8785
  454MOL0     H59913   1.406   3.778   6.748  0.2054 -0.2301  0.9923
  454MOL0     H59914   2.898   3.338   5.290  1.4140 -0.6663 -1.0695
  454MOL0     H59915   3.144   3.382   5.278  0.8052  1.9942 -1.4441
  454MOL0     H59916   3.464   3.730   5.340 -3.3968 -3.1725  1.3023
  454MOL0     H59917   3.697   3.789   5.287  0.3898  0.8900  1.3035
  454MOL0     H59918   3.937   3.820   5.281  5.2279  1.2430 -0.0573
  454MOL0     H59919   3.876   3.779   5.131 -2.1129  2.0589  2.5274
  454MOL0     H59920   4.106   3.641   5.092 -0.5410  0.5960 -1.5530
  454MOL0     H59921   4.094   3.808   5.066 -2.0304  0.3865  0.5726
  454MOL0     H59922   4.215   3.871   5.264  2.6485  0.8229  0.3412
  454MOL0     H59923   4.302   3.743   5.187  0.5234  2.1925 -0.9924
  454MOL0     H59924   4.136   3.746   5.439  1.1726  0.1386  1.2519
  454MOL0     H59925   4.161   3.591   5.373 -0.1947  0.9301 -2.1569
  454MOL0     H59926   4.502   3.696   5.612 -0.4758 -0.2754  0.0281
  454MOL0     H59927   3.835   3.401   5.374 -0.5038 -1.5068  0.2434
  454MOL0     H59928   3.606   3.340   5.451  0.7735  1.1521  1.8543
  455MOL0     O59929   6.696   3.903   7.679  0.4322  0.5251 -0.5673
  455MOL0     C59930   6.707   3.888   7.799 -0.3151  0.2900 -0.8793
  455MOL0     O59931   6.810   3.820   7.862  0.4997 -0.1591 -0.2729
  455MOL0     C59932   6.932   3.807   7.809 -0.8292  0.7227  0.7307
  455MOL0     C59933   6.981   3.868   7.685 -1.0376  0.3595 -0.5277
  455MOL0     C59934   7.109   3.827   7.631  0.0729 -0.4660 -0.9027
  455MOL0     C59935   7.185   3.731   7.688  0.0892 -0.1475 -0.8274
  455MOL0     O59936   7.310   3.685   7.651  0.5330  0.2513 -0.2487
  455MOL0     C59937   7.365   3.727   7.533  0.0400 -0.4410  0.9480
  455MOL0     C59938   7.458   3.842   7.545  0.3724  0.1423 -0.4352
  455MOL0     C59939   7.595   3.818   7.608 -0.3765  0.1003 -0.5548
  455MOL0     C59940   7.679   3.697   7.532 -0.3698 -0.6635 -0.1240
  455MOL0     C59941   7.818   3.709   7.583 -0.4869  1.1059  0.2600
  455MOL0     C59942   7.869   3.560   7.585  0.2458 -0.0537  0.1126
  455MOL0     C59943   8.001   3.548   7.655  0.3649 -0.2643 -0.0960
  455MOL0     C59944   8.058   3.403   7.655  0.2860  0.0913  0.3063
  455MOL0     N59945   8.109   3.362   7.524 -0.3636  0.4464  1.1234
  455MOL0     C59946   8.049   3.281   7.428  0.0104 -0.9798  1.2091
  455MOL0     C59947   8.148   3.272   7.329  0.7265  0.6683  0.8281
  455MOL0     C59948   8.134   3.195   7.194  0.6982 -0.4942 -0.4037
  455MOL0     C59949   8.001   3.120   7.173 -0.5823 -0.1515 -0.3357
  455MOL0     C59950   8.023   3.016   7.066 -0.6001 -0.1605 -0.3954
  455MOL0     C59951   7.877   2.980   7.024 -0.0502 -0.6109 -0.5060
  455MOL0     O59952   7.812   2.900   7.130  0.0615  0.5485 -0.0069
  455MOL0     C59953   7.674   2.890   7.121 -0.5860  0.2494  0.7430
  455MOL0     C59954   7.603   2.918   7.008  0.4411 -0.0262  0.7550
  455MOL0     C59955   7.468   2.915   7.003  0.7788 -0.0159 -1.2474
  455MOL0     C59956   7.388   2.907   7.123 -0.5045  0.6986  1.1084
  455MOL0     C59957   7.246   2.929   7.113  0.6402 -0.8745  0.1201
  455MOL0     O59958   7.183   2.926   7.227  0.8423  0.0624 -0.2269
  455MOL0     C59959   7.041   2.906   7.223  0.7225  0.1096 -0.1406
  455MOL0     C59960   6.982   2.784   7.185 -0.6874 -1.2722 -0.6087
  455MOL0     C59961   6.841   2.767   7.203  0.0965  0.3493  0.0584
  455MOL0     C59962   6.758   2.873   7.225 -1.1084 -1.3709  0.4959
  455MOL0     O59963   6.627   2.865   7.216  0.2375 -0.1744 -0.2430
  455MOL0     C59964   6.557   2.751   7.279 -0.2264 -1.2904  0.2526
  455MOL0     C59965   6.401   2.783   7.275  0.3600 -0.0015 -1.0810
  455MOL0     C59966   6.322   2.688   7.359 -0.1492 -0.4437  0.1296
  455MOL0     C59967   6.179   2.727   7.381  0.1808  1.1135  0.1964
  455MOL0     C59968   6.098   2.629   7.457  0.6678  0.1024 -0.1027
  455MOL0     C59969   5.950   2.676   7.498 -0.5046  0.1331 -0.1601
  455MOL0     C59970   5.961   2.810   7.582  0.2075 -0.0960  0.4102
  455MOL0     C59971   5.824   2.838   7.641 -0.0011  0.6010 -0.1110
  455MOL0    Cl59972   5.813   3.013   7.665  0.1899 -0.1823  0.4012
  455MOL0     C59973   6.815   3.006   7.240  0.2015  0.5604 -0.5436
  455MOL0     C59974   6.954   3.022   7.246 -0.3558  1.0875 -0.9701
  455MOL0     O59975   7.190   2.934   7.003  0.1257  0.0997 -0.3134
  455MOL0     C59976   7.460   2.880   7.244  0.4281 -0.1397 -0.4507
  455MOL0     C59977   7.593   2.856   7.231 -0.1767  0.4808  0.0205
  455MOL0     N59978   8.263   3.327   7.373  0.1824  0.0062 -0.1151
  455MOL0     N59979   8.238   3.389   7.481 -0.3217  0.6046 -0.4852
  455MOL0     C59980   7.142   3.672   7.807 -0.4889 -0.2642 -0.9232
  455MOL0     C59981   7.025   3.719   7.873  1.0793 -0.4063  0.3656
  455MOL0     C59982   6.585   3.925   7.882 -0.4754  0.5758  0.0020
  455MOL0     C59983   6.495   4.018   7.829  0.3132  0.1886  0.2718
  455MOL0     C59984   6.384   4.053   7.900  0.0533 -1.3529 -0.0378
  455MOL0     C59985   6.357   3.997   8.034  0.4295  0.5140 -0.0397
  455MOL0     O59986   6.244   4.032   8.104  0.2813  0.3133 -0.8525
  455MOL0     C59987   6.224   3.972   8.226  0.6549 -0.1186 -0.3839
  455MOL0     C59988   6.155   4.060   8.330 -0.4402  0.5718  0.3359
  455MOL0     C59989   6.030   4.110   8.261  0.7149  0.1382  0.3275
  455MOL0     C59990   5.936   4.185   8.355 -0.2287 -0.4166 -0.3212
  455MOL0     C59991   5.950   4.330   8.335 -1.0613  0.7002  0.6879
  455MOL0     C59992   5.964   4.453   8.324 -0.2631 -1.0511  0.0107
  455MOL0     C59993   6.445   3.895   8.073 -0.5694  0.1295 -1.2491
  455MOL0     C59994   6.551   3.855   8.000 -0.5352  0.2406  0.3558
  455MOL0     H59995   6.916   3.943   7.640 -0.4814  1.0322 -0.2328
  455MOL0     H59996   7.155   3.874   7.545  0.2875  2.6274  0.7378
  455MOL0     H59997   7.287   3.764   7.465  1.9824  0.1694 -1.0513
  455MOL0     H59998   7.417   3.644   7.485  0.0710 -1.5140  2.7318
  455MOL0     H59999   7.403   3.913   7.607  1.3998 -2.4585  3.8680
  455MOL0     H60000   7.468   3.876   7.441  1.4751  3.3573  0.6355
  455MOL0     H60001   7.579   3.779   7.709 -0.0996 -0.9468 -0.9016
  455MOL0     H60002   7.648   3.913   7.620  0.5336 -0.2577 -1.6366
  455MOL0     H60003   7.640   3.601   7.567  0.2815 -1.2360 -0.9139
  455MOL0     H60004   7.672   3.699   7.422 -0.6534  1.3602 -0.1063
  455MOL0     H60005   7.821   3.759   7.680  2.0230  1.7084 -0.0752
  455MOL0     H60006   7.885   3.763   7.515  0.7044 -1.8186 -1.0284
  455MOL0     H60007   7.882   3.519   7.485  0.6420  1.5341 -0.5157
  455MOL0     H60008   7.807   3.493   7.646  2.7895 -0.7305  2.1026
  455MOL0     H60009   8.075   3.615   7.609 -0.0291 -0.1951 -0.6289
  455MOL0     H60010   7.991   3.585   7.758  1.4209  0.2937 -0.1759
  455MOL0     H60011   7.976   3.342   7.693 -1.7363  0.6597 -2.7864
  455MOL0     H60012   8.144   3.398   7.722 -0.5489  0.9489  1.4820
  455MOL0     H60013   7.947   3.246   7.425 -0.8813  1.1773  3.3382
  455MOL0     H60014   8.212   3.120   7.178 -1.0603 -2.7915  1.0885
  455MOL0     H60015   8.157   3.275   7.122  1.9997  1.6661  2.2289
  455MOL0     H60016   7.930   3.202   7.157  1.8527  2.0206 -0.7305
  455MOL0     H60017   7.986   3.076   7.272 -1.3712 -1.4358 -1.0008
  455MOL0     H60018   8.062   3.073   6.982  1.4745  1.8367  1.7950
  455MOL0     H60019   8.087   2.932   7.095 -0.7043  0.2443  1.0600
  455MOL0     H60020   7.860   2.921   6.933 -4.1013 -0.4520 -0.0410
  455MOL0     H60021   7.824   3.072   6.997  1.0195 -0.0284 -0.7022
  455MOL0     H60022   7.657   2.928   6.914  1.0224  0.3465  1.1223
  455MOL0     H60023   7.419   2.917   6.905  0.6908 -2.8922 -1.3510
  455MOL0     H60024   7.046   2.702   7.156  3.3117  0.5167  2.2342
  455MOL0     H60025   6.795   2.672   7.179 -0.7952 -0.1021  3.1946
  455MOL0     H60026   6.595   2.741   7.382 -2.2159 -0.7267  1.0789
  455MOL0     H60027   6.580   2.666   7.215 -1.4581  0.9958 -3.5034
  455MOL0     H60028   6.361   2.774   7.174 -0.1331  1.4812 -1.0404
  455MOL0     H60029   6.392   2.881   7.321  0.7780 -1.1138  1.5499
  455MOL0     H60030   6.371   2.687   7.457 -0.7198 -0.3323  0.4204
  455MOL0     H60031   6.325   2.584   7.324 -0.7611 -0.2910 -0.3974
  455MOL0     H60032   6.182   2.820   7.437  0.7117 -0.2147  2.4888
  455MOL0     H60033   6.136   2.744   7.282 -1.2113  2.0863  0.9411
  455MOL0     H60034   6.153   2.588   7.542 -0.3740 -0.2619  0.4018
  455MOL0     H60035   6.081   2.544   7.390 -1.1041  0.3470  0.0064
  455MOL0     H60036   5.909   2.590   7.550  1.6532 -0.6608  0.3434
  455MOL0     H60037   5.884   2.686   7.412 -2.4783  1.3187  1.4101
  455MOL0     H60038   6.042   2.790   7.653  4.3849  0.8382 -3.5904
  455MOL0     H60039   5.983   2.887   7.508  0.8596 -1.4320 -0.8244
  455MOL0     H60040   5.809   2.795   7.741 -3.9407 -0.8420 -1.1320
  455MOL0     H60041   5.734   2.810   7.585  0.4349 -0.7702 -0.1630
  455MOL0     H60042   6.747   3.083   7.275 -0.3119 -0.4652  0.7711
  455MOL0     H60043   6.990   3.116   7.287 -0.2199  0.5410  0.2019
  455MOL0     H60044   7.402   2.876   7.335 -1.7224 -0.3886 -1.7569
  455MOL0     H60045   7.632   2.839   7.330  1.0768 -0.7183 -0.6549
  455MOL0     H60046   7.201   3.591   7.849 -2.3655 -0.5386  1.4106
  455MOL0     H60047   7.004   3.654   7.958  2.9625 -1.0497  0.3936
  455MOL0     H60048   6.520   4.066   7.735  1.5119 -2.8558 -1.1006
  455MOL0     H60049   6.318   4.135   7.874 -1.0895 -2.4838 -0.7864
  455MOL0     H60050   6.312   3.953   8.288 -0.3175  0.7147  1.3053
  455MOL0     H60051   6.170   3.878   8.212  0.4416  0.0872 -0.9620
  455MOL0     H60052   6.146   4.002   8.422  1.4055  0.3459  0.4035
  455MOL0     H60053   6.210   4.151   8.354  2.3878 -0.8383 -0.3976
  455MOL0     H60054   5.970   4.029   8.217 -1.6043  1.4224  0.9375
  455MOL0     H60055   6.061   4.171   8.176  2.0116  2.0731  2.0926
  455MOL0     H60056   5.832   4.154   8.365 -0.7762  1.7724  1.4051
  455MOL0     H60057   5.964   4.174   8.461 -0.3196  0.4226 -0.2057
  455MOL0     H60058   5.983   4.558   8.323  0.5726 -1.1952  0.2434
  455MOL0     H60059   6.421   3.835   8.160  0.7451  1.1221 -0.1685
  455MOL0     H60060   6.612   3.771   8.031 -1.2393 -0.4193 -0.0103
  456MOL0     O60061   7.030   4.689   2.316 -0.1147  0.4463  0.4632
  456MOL0     C60062   7.096   4.636   2.223 -0.6707 -0.5781 -0.3266
  456MOL0     O60063   7.049   4.635   2.085  0.1013 -0.7315 -0.2925
  456MOL0     C60064   6.934   4.706   2.067 -0.8791  0.7985  0.3774
  456MOL0     C60065   6.819   4.628   2.068 -0.8257  0.2500  1.1287
  456MOL0     C60066   6.694   4.688   2.023 -0.0061  0.2074 -1.1245
  456MOL0     C60067   6.688   4.821   1.996  0.0001  0.2914 -0.2303
  456MOL0     O60068   6.569   4.868   1.966  0.1243 -0.0220  0.7441
  456MOL0     C60069   6.534   5.004   1.983  0.0066 -0.0536 -0.6767
  456MOL0     C60070   6.477   5.036   2.110  0.3815  0.1708  0.0248
  456MOL0     C60071   6.347   4.956   2.157  0.2722  0.3141 -1.0386
  456MOL0     C60072   6.297   4.993   2.307  0.1709  0.3167  0.4332
  456MOL0     C60073   6.218   4.882   2.381 -0.4187 -0.0075 -0.2552
  456MOL0     C60074   6.107   4.943   2.461 -1.0386  0.8777 -0.0253
  456MOL0     C60075   6.037   4.851   2.563 -0.1027  0.2898 -0.9052
  456MOL0     C60076   5.919   4.774   2.513 -0.2085 -0.0294 -0.9331
  456MOL0     N60077   5.792   4.837   2.510  0.8481  0.4467 -0.7614
  456MOL0     C60078   5.755   4.921   2.408 -0.2062  0.1235 -0.2337
  456MOL0     C60079   5.636   4.970   2.455 -0.0209 -0.3293 -0.3593
  456MOL0     C60080   5.550   5.060   2.366  0.0099 -0.0721  0.3741
  456MOL0     C60081   5.430   4.974   2.308  0.4545 -1.0916 -0.4788
  456MOL0     C60082   5.310   4.967   2.413 -0.3124 -0.4718  1.0856
  456MOL0     C60083   5.226   5.093   2.413 -0.0728  0.3463  0.3668
  456MOL0     O60084   5.146   5.110   2.293 -0.2601  0.0818  0.5820
  456MOL0     C60085   5.036   5.031   2.259 -0.1247  0.8261 -0.5998
  456MOL0     C60086   4.985   5.025   2.126 -0.0279  0.4188  0.2288
  456MOL0     C60087   4.870   4.953   2.087  0.1103  0.1546 -0.5966
  456MOL0     C60088   4.799   4.869   2.185 -0.1731  1.0935 -0.1251
  456MOL0     C60089   4.683   4.796   2.157 -0.8089 -0.1923  0.2142
  456MOL0     O60090   4.609   4.838   2.047 -0.4942  0.1230  0.4381
  456MOL0     C60091   4.486   4.778   2.041  0.1186  1.1034  0.0784
  456MOL0     C60092   4.445   4.702   1.922  0.4619  0.5150 -0.2276
  456MOL0     C60093   4.323   4.634   1.909  0.3540  0.7228  0.0627
  456MOL0     C60094   4.230   4.640   2.014  0.3636 -0.0335  0.0048
  456MOL0     O60095   4.111   4.569   2.014  0.1319  0.4316 -0.1200
  456MOL0     C60096   4.098   4.442   1.943  0.0303 -0.2903 -0.0422
  456MOL0     C60097   3.975   4.358   1.984  0.1992  0.1813 -0.3543
  456MOL0     C60098   3.853   4.441   1.950  0.5800 -0.0894 -0.2829
  456MOL0     C60099   3.713   4.367   1.976 -0.5446 -0.1500 -0.4924
  456MOL0     C60100   3.662   4.313   1.838  0.0786  0.0321 -0.0135
  456MOL0     C60101   3.535   4.224   1.845  0.1333  0.2447 -0.1778
  456MOL0     C60102   3.487   4.186   1.701  0.1382 -0.2455 -0.0059
  456MOL0     C60103   3.353   4.127   1.691  1.0006 -1.5319 -1.0302
  456MOL0    Cl60104   3.327   4.050   1.535 -0.0639 -0.0059  0.1145
  456MOL0     C60105   4.257   4.720   2.124  0.3299  0.2866 -0.1570
  456MOL0     C60106   4.382   4.792   2.136  0.7537  0.7958 -0.0330
  456MOL0     O60107   4.657   4.701   2.226  0.5420 -0.6370  0.0635
  456MOL0     C60108   4.858   4.872   2.317  0.0511  1.1285  0.6683
  456MOL0     C60109   4.969   4.956   2.354  0.0035  1.0614  0.0988
  456MOL0     N60110   5.614   4.928   2.587 -0.0957 -1.0268  0.8411
  456MOL0     N60111   5.707   4.841   2.619 -0.3795 -0.4215  0.3337
  456MOL0     C60112   6.803   4.909   2.019 -0.5189  0.8140  0.2597
  456MOL0     C60113   6.923   4.849   2.046 -0.5675 -0.5154  0.0770
  456MOL0     C60114   7.227   4.568   2.251  0.1747 -0.0368  0.0903
  456MOL0     C60115   7.292   4.582   2.377 -0.6221 -0.5180  0.8568
  456MOL0     C60116   7.396   4.497   2.410 -0.5118 -0.1363  1.3066
  456MOL0     C60117   7.456   4.414   2.315  0.2361  0.8291 -1.1479
  456MOL0     O60118   7.561   4.331   2.340 -0.3740  0.5105  0.8821
  456MOL0     C60119   7.583   4.283   2.474  0.3451  0.0413 -0.6353
  456MOL0     C60120   7.487   4.179   2.515  0.1413 -0.3140  0.1265
  456MOL0     C60121   7.471   4.147   2.664  0.0913 -1.0604  0.7296
  456MOL0     C60122   7.358   4.048   2.683 -0.0519  0.0664 -0.7152
  456MOL0     C60123   7.365   4.012   2.830 -0.8208 -0.6919  0.6952
  456MOL0     C60124   7.376   3.988   2.941 -0.0709 -0.0123  0.4606
  456MOL0     C60125   7.396   4.402   2.183  0.6491  0.7342 -0.8881
  456MOL0     C60126   7.281   4.484   2.157  0.4765  0.5938 -0.1712
  456MOL0     H60127   6.818   4.520   2.077  0.8269  0.2162  1.1400
  456MOL0     H60128   6.601   4.632   2.025 -0.3413  0.7799  0.4828
  456MOL0     H60129   6.456   5.016   1.907 -2.0962 -0.0297  1.3776
  456MOL0     H60130   6.612   5.069   1.942  1.8776 -1.6408  0.1941
  456MOL0     H60131   6.456   5.143   2.105 -0.1334  0.0154 -2.0081
  456MOL0     H60132   6.549   5.019   2.191  0.3416  2.7650  0.6848
  456MOL0     H60133   6.371   4.850   2.150 -1.3367 -0.0881 -0.8415
  456MOL0     H60134   6.265   4.976   2.087 -0.9094 -2.3767 -0.5569
  456MOL0     H60135   6.383   5.018   2.369  0.1018  0.7392  0.3582
  456MOL0     H60136   6.222   5.071   2.293 -0.1017 -0.3786 -2.6366
  456MOL0     H60137   6.283   4.816   2.438  0.1835 -1.1532 -2.1646
  456MOL0     H60138   6.180   4.817   2.302  3.0487 -0.6981 -1.5349
  456MOL0     H60139   6.032   4.980   2.390 -1.6388  0.1562  0.2234
  456MOL0     H60140   6.156   5.018   2.524 -3.0151  0.2014  2.5005
  456MOL0     H60141   6.112   4.782   2.602  1.1138  1.1448 -1.6829
  456MOL0     H60142   6.017   4.915   2.649  2.7349  4.0081 -2.7341
  456MOL0     H60143   5.910   4.687   2.580  2.2182  1.4888  1.5353
  456MOL0     H60144   5.935   4.734   2.412 -1.5232 -1.3511 -0.6639
  456MOL0     H60145   5.800   4.937   2.310 -1.3010 -2.9450 -1.3681
  456MOL0     H60146   5.624   5.095   2.293 -0.5965 -2.3812 -1.4617
  456MOL0     H60147   5.504   5.140   2.425 -2.9199 -2.9451  2.3338
  456MOL0     H60148   5.464   4.875   2.276 -0.2678 -0.4099 -3.7419
  456MOL0     H60149   5.386   5.028   2.224  1.5609 -0.2003 -0.5140
  456MOL0     H60150   5.245   4.882   2.388  0.6829 -0.6901 -0.9491
  456MOL0     H60151   5.350   4.948   2.513 -2.3346 -2.8853  1.5327
  456MOL0     H60152   5.294   5.178   2.419  1.0729 -0.5939  1.1772
  456MOL0     H60153   5.156   5.091   2.498 -0.8817  0.2301 -0.2873
  456MOL0     H60154   5.029   5.089   2.051 -0.4800  3.5197  2.3858
  456MOL0     H60155   4.832   4.954   1.986  0.8098 -0.3092 -0.8715
  456MOL0     H60156   4.522   4.685   1.847 -1.2640 -1.3737 -1.6887
  456MOL0     H60157   4.318   4.572   1.820 -1.3713  0.0957  0.5550
  456MOL0     H60158   4.183   4.378   1.968 -0.8185  0.2026  5.2253
  456MOL0     H60159   4.087   4.483   1.842 -1.8609  1.3880  0.7793
  456MOL0     H60160   3.988   4.316   2.084 -0.9119  3.1018  1.1430
  456MOL0     H60161   3.969   4.267   1.923 -0.8380 -2.1126  2.8621
  456MOL0     H60162   3.850   4.477   1.847 -2.1074  2.4672  0.5496
  456MOL0     H60163   3.846   4.531   2.012 -0.4115 -1.0235  1.0065
  456MOL0     H60164   3.726   4.291   2.054 -0.9618  2.9169  2.8361
  456MOL0     H60165   3.640   4.431   2.026  1.4896 -0.2421  2.9640
  456MOL0     H60166   3.748   4.256   1.801  0.0240 -0.5392  0.7000
  456MOL0     H60167   3.644   4.398   1.772 -5.8315 -1.8818 -1.4242
  456MOL0     H60168   3.454   4.271   1.902  2.0030 -0.4680  3.2669
  456MOL0     H60169   3.549   4.135   1.906  0.4832 -0.8901 -1.8642
  456MOL0     H60170   3.506   4.263   1.626  1.4194  2.8274  3.2268
  456MOL0     H60171   3.564   4.114   1.671  0.7500  0.2882  0.2657
  456MOL0     H60172   3.263   4.189   1.700  0.7007 -2.0384 -0.4431
  456MOL0     H60173   3.343   4.060   1.777  2.3773 -1.2044 -0.6043
  456MOL0     H60174   4.183   4.744   2.200  0.9455 -1.0240  0.9168
  456MOL0     H60175   4.382   4.852   2.226 -1.6731 -0.7743  1.1164
  456MOL0     H60176   4.811   4.815   2.396  0.4849 -0.8168 -0.4264
  456MOL0     H60177   5.004   4.942   2.456 -0.0201 -2.9485 -0.2726
  456MOL0     H60178   6.796   5.017   2.014  1.3703  0.9439 -0.4407
  456MOL0     H60179   7.011   4.912   2.040 -1.1730  0.2066 -1.8169
  456MOL0     H60180   7.250   4.636   2.461 -2.5005  0.8303 -0.8224
  456MOL0     H60181   7.431   4.506   2.513  0.1208  0.3468  1.0540
  456MOL0     H60182   7.584   4.370   2.542 -3.6177  0.4107 -0.8292
  456MOL0     H60183   7.676   4.228   2.492  0.9492  0.9524 -0.9006
  456MOL0     H60184   7.388   4.209   2.482  2.3731  5.3363 -2.9240
  456MOL0     H60185   7.509   4.088   2.458  3.3669 -1.0064  2.2211
  456MOL0     H60186   7.459   4.240   2.721  3.4916  1.9825 -2.9375
  456MOL0     H60187   7.566   4.112   2.704  1.2945  1.2235  0.0716
  456MOL0     H60188   7.258   4.084   2.655  0.5279  1.1806 -1.4398
  456MOL0     H60189   7.378   3.968   2.611  1.3682  1.2184 -1.6675
  456MOL0     H60190   7.378   3.944   3.039  0.1790 -0.7528  0.1309
  456MOL0     H60191   7.454   4.346   2.111 -1.5567 -1.3131 -1.1725
  456MOL0     H60192   7.236   4.483   2.058 -0.0589 -2.3684  0.0089
  457MOL0     O60193   3.568   5.679   7.976  0.6170  1.1914  1.0198
  457MOL0     C60194   3.672   5.638   8.020  1.0454 -0.6175 -0.0475
  457MOL0     O60195   3.678   5.542   8.118 -0.2419  0.5974  0.3591
  457MOL0     C60196   3.576   5.487   8.186  0.3516  0.6511  0.1474
  457MOL0     C60197   3.533   5.360   8.158 -0.6295  0.2982 -0.1768
  457MOL0     C60198   3.422   5.308   8.226 -0.0300  0.8924 -0.1803
  457MOL0     C60199   3.363   5.374   8.339 -0.8405  0.2878 -0.1861
  457MOL0     O60200   3.254   5.337   8.408  0.4667  0.2932 -0.6780
  457MOL0     C60201   3.247   5.197   8.449 -0.9408  0.2262 -0.2149
  457MOL0     C60202   3.126   5.169   8.530 -0.4599  0.1705 -0.6868
  457MOL0     C60203   3.140   5.030   8.601 -0.2376  0.1025 -0.4511
  457MOL0     C60204   3.033   5.009   8.706  0.4457 -0.3184  0.0810
  457MOL0     C60205   3.021   4.870   8.771 -0.3501  0.0077 -0.5585
  457MOL0     C60206   2.996   4.766   8.668 -0.3896  0.2304 -0.1282
  457MOL0     C60207   2.972   4.627   8.722 -0.6422  0.5375  0.1871
  457MOL0     C60208   3.078   4.571   8.829 -0.3077 -0.0197 -0.4696
  457MOL0     N60209   3.054   4.434   8.866  0.3722 -0.4286 -0.0602
  457MOL0     C60210   3.038   4.326   8.786 -0.3065 -0.1826  0.2267
  457MOL0     C60211   2.963   4.235   8.860  0.4603 -0.2776  0.3191
  457MOL0     C60212   2.911   4.102   8.825 -0.0071  0.0807  0.3247
  457MOL0     C60213   2.764   4.083   8.872  0.2479 -0.0439 -0.8144
  457MOL0     C60214   2.709   3.946   8.840  0.1815  0.5026 -0.8649
  457MOL0     C60215   2.556   3.935   8.850  1.2479 -0.8404 -0.2202
  457MOL0     O60216   2.511   3.935   8.988 -0.3969 -0.1596 -0.0293
  457MOL0     C60217   2.378   3.915   9.011  0.4234 -0.0705  1.1723
  457MOL0     C60218   2.314   3.998   9.101  0.7615 -0.2011  0.6021
  457MOL0     C60219   2.179   3.970   9.139 -0.7478 -0.1363  0.3663
  457MOL0     C60220   2.106   3.856   9.099  0.1375  0.5293  0.3534
  457MOL0     C60221   1.963   3.835   9.139 -0.8402 -0.5064 -0.2062
  457MOL0     O60222   1.913   3.701   9.134  0.3933 -0.5178 -0.1981
  457MOL0     C60223   1.784   3.681   9.179 -0.6357 -0.3545 -0.3280
  457MOL0     C60224   1.686   3.706   9.091 -0.0747  0.8290  0.2225
  457MOL0     C60225   1.557   3.654   9.107 -0.3917 -0.7208  0.1304
  457MOL0     C60226   1.531   3.576   9.225 -0.3236 -0.4606 -0.1545
  457MOL0     O60227   1.408   3.525   9.248 -0.0275 -0.0358  0.1081
  457MOL0     C60228   1.397   3.400   9.176  0.3587 -0.3688 -0.1368
  457MOL0     C60229   1.260   3.336   9.180 -0.1720  0.3633  0.3602
  457MOL0     C60230   1.226   3.233   9.059  0.0365 -0.7092 -0.0438
  457MOL0     C60231   1.078   3.243   9.023  0.8038  0.1086 -1.0839
  457MOL0     C60232   0.984   3.219   9.140  0.3821  0.4232 -0.3945
  457MOL0     C60233   0.838   3.240   9.095 -0.4297  1.3113  0.3633
  457MOL0     C60234   0.731   3.195   9.198 -0.0145  1.1474 -0.1086
  457MOL0     C60235   0.585   3.202   9.151 -0.5004  0.8248  0.2380
  457MOL0    Cl60236   0.517   3.351   9.211  0.2783 -0.0582 -0.3718
  457MOL0     C60237   1.638   3.554   9.323 -0.0772 -0.0828  0.6946
  457MOL0     C60238   1.768   3.605   9.293 -0.5905  0.5183  0.1312
  457MOL0     O60239   1.898   3.932   9.183 -0.8866  0.3719  0.2724
  457MOL0     C60240   2.187   3.759   9.032 -0.2823 -0.1920 -0.6595
  457MOL0     C60241   2.312   3.797   8.983  0.4880  0.0256  0.3964
  457MOL0     N60242   2.943   4.296   8.986  0.1098 -0.5766  0.4532
  457MOL0     N60243   2.998   4.415   8.988  0.1764 -0.5355  0.4506
  457MOL0     C60244   3.418   5.501   8.362 -0.0820 -0.0438  0.3323
  457MOL0     C60245   3.514   5.556   8.288  0.3904 -0.9524 -0.6672
  457MOL0     C60246   3.803   5.693   7.966  0.8760  0.1929  1.0086
  457MOL0     C60247   3.921   5.608   7.968  0.6355 -0.4849 -0.3547
  457MOL0     C60248   4.040   5.657   7.913 -0.7265 -0.0846  0.6338
  457MOL0     C60249   4.038   5.779   7.841 -0.6554  0.4631  0.3656
  457MOL0     O60250   4.160   5.809   7.790 -0.0343  0.0416 -0.1086
  457MOL0     C60251   4.157   5.891   7.676  0.6359 -0.8379  0.7791
  457MOL0     C60252   4.300   5.891   7.616 -0.6799 -0.8585  0.0463
  457MOL0     C60253   4.411   5.952   7.704 -0.1970 -0.2129 -0.0866
  457MOL0     C60254   4.545   5.962   7.641 -0.0060  0.0597  0.8072
  457MOL0     C60255   4.653   5.991   7.734  0.3054  0.7084 -0.5034
  457MOL0     C60256   4.732   6.038   7.810 -0.6792  0.1858 -0.0754
  457MOL0     C60257   3.927   5.856   7.838 -0.2700 -0.3430  0.1399
  457MOL0     C60258   3.805   5.813   7.887 -0.2784 -0.1014  0.0296
  457MOL0     H60259   3.557   5.302   8.070 -2.6019  1.3059 -1.4376
  457MOL0     H60260   3.389   5.210   8.193  0.3363 -0.0141  1.9652
  457MOL0     H60261   3.330   5.180   8.518 -1.4865  3.7378  1.5211
  457MOL0     H60262   3.258   5.135   8.359  4.1433  0.1078  0.1920
  457MOL0     H60263   3.036   5.181   8.468 -1.1863  1.0339  0.4761
  457MOL0     H60264   3.124   5.250   8.603  0.9569  1.1196 -1.6467
  457MOL0     H60265   3.234   5.019   8.656  1.0933  2.1034 -2.1554
  457MOL0     H60266   3.131   4.948   8.529 -3.9562 -2.8600  2.9197
  457MOL0     H60267   3.047   5.073   8.793  1.2925  0.1592 -0.3976
  457MOL0     H60268   2.928   5.030   8.681 -0.2437 -3.3195 -0.0153
  457MOL0     H60269   2.939   4.878   8.843  1.4413  1.8271  1.3924
  457MOL0     H60270   3.107   4.832   8.826 -2.2103 -1.5806  1.4294
  457MOL0     H60271   3.073   4.768   8.590 -0.4275  3.5818 -0.2136
  457MOL0     H60272   2.903   4.795   8.619 -1.1880 -0.4510  0.9427
  457MOL0     H60273   2.873   4.614   8.767 -0.3657  0.4785  0.7864
  457MOL0     H60274   2.965   4.555   8.640 -1.2697 -0.7363  1.3126
  457MOL0     H60275   3.085   4.634   8.918 -0.9862 -0.5629 -0.0284
  457MOL0     H60276   3.183   4.574   8.796  0.2751 -0.2341  1.2336
  457MOL0     H60277   3.082   4.330   8.687 -0.9351  1.4036 -0.0227
  457MOL0     H60278   2.977   4.025   8.867  2.5502  1.9164 -0.0506
  457MOL0     H60279   2.909   4.078   8.718  1.6659 -0.7178  0.4241
  457MOL0     H60280   2.709   4.163   8.822  2.8859  1.4217 -1.5846
  457MOL0     H60281   2.762   4.104   8.979 -1.5185 -3.4044 -0.0322
  457MOL0     H60282   2.740   3.923   8.738 -0.9721  0.5153 -1.2320
  457MOL0     H60283   2.750   3.869   8.906  1.0306 -2.0736 -4.1109
  457MOL0     H60284   2.512   3.846   8.805 -1.0685 -0.0457  0.3269
  457MOL0     H60285   2.515   4.019   8.791  0.3975 -1.1073 -0.0283
  457MOL0     H60286   2.374   4.083   9.133 -0.9466  1.0100  0.7079
  457MOL0     H60287   2.131   4.032   9.214 -0.4207 -0.3837  0.7840
  457MOL0     H60288   1.707   3.752   8.995 -2.1725 -1.5870 -1.5235
  457MOL0     H60289   1.484   3.674   9.029  0.1457 -5.8260 -2.0345
  457MOL0     H60290   1.473   3.332   9.217  1.2584  2.6317  3.7039
  457MOL0     H60291   1.422   3.413   9.070  0.7801  0.6724  0.0837
  457MOL0     H60292   1.184   3.415   9.185  2.4176  3.0330  0.1342
  457MOL0     H60293   1.259   3.277   9.272 -1.3191  1.9441  1.4051
  457MOL0     H60294   1.246   3.125   9.062 -1.4024 -1.2161 -3.6587
  457MOL0     H60295   1.282   3.267   8.972 -1.3089  2.5268  0.2276
  457MOL0     H60296   1.075   3.340   8.972  2.5678  0.2952 -0.9166
  457MOL0     H60297   1.062   3.171   8.942 -0.7936  0.6949 -1.3247
  457MOL0     H60298   1.018   3.268   9.232 -0.3519 -0.5147  0.3891
  457MOL0     H60299   0.998   3.113   9.163  1.2681  0.4292 -0.8659
  457MOL0     H60300   0.820   3.202   8.995 -2.6518 -0.6788  1.4194
  457MOL0     H60301   0.844   3.350   9.091  0.8809  1.2256 -0.9319
  457MOL0     H60302   0.743   3.088   9.213 -2.0330  0.7551 -1.0177
  457MOL0     H60303   0.735   3.247   9.295 -0.5337 -3.1377  2.4698
  457MOL0     H60304   0.528   3.114   9.183  0.2794 -0.9073 -2.6969
  457MOL0     H60305   0.569   3.203   9.042 -1.9674  0.6554  0.4307
  457MOL0     H60306   1.604   3.495   9.408  3.4180  0.2424  2.4828
  457MOL0     H60307   1.849   3.598   9.365 -1.1900  1.1209  0.8714
  457MOL0     H60308   2.159   3.658   9.004 -0.6007  0.6548 -3.8122
  457MOL0     H60309   2.380   3.738   8.922 -1.0374 -2.6216  1.1144
  457MOL0     H60310   3.359   5.559   8.432 -2.2111  1.0172 -2.1597
  457MOL0     H60311   3.555   5.656   8.298  2.0358 -1.4908 -1.5092
  457MOL0     H60312   3.914   5.519   8.031 -2.0482  0.2068  0.4594
  457MOL0     H60313   4.140   5.618   7.925 -0.0650  1.9574  2.4854
  457MOL0     H60314   4.141   5.999   7.692  0.0099 -0.5592 -1.4119
  457MOL0     H60315   4.078   5.858   7.609  1.1741 -0.2570 -0.1629
  457MOL0     H60316   4.330   5.791   7.583 -2.1040 -0.7935 -1.5887
  457MOL0     H60317   4.293   5.947   7.522 -1.6288 -3.6424 -1.6796
  457MOL0     H60318   4.421   5.897   7.798  0.7415  1.2459  0.6963
  457MOL0     H60319   4.382   6.057   7.713  1.1761  0.1241  0.5888
  457MOL0     H60320   4.569   5.871   7.586 -1.3848 -2.0777  3.4829
  457MOL0     H60321   4.559   6.051   7.579  3.1940 -1.8004 -1.4326
  457MOL0     H60322   4.806   6.071   7.879  2.7145 -3.0544 -1.8407
  457MOL0     H60323   3.938   5.956   7.797  1.5496 -0.9570 -0.9927
  457MOL0     H60324   3.714   5.870   7.873 -1.3647 -1.3499  1.6750
  458MOL0     O60325   5.703   4.891   0.563 -1.0044  0.2009 -0.2931
  458MOL0     C60326   5.762   4.989   0.613 -0.7773  0.3619  0.4445
  458MOL0     O60327   5.714   5.069   0.713 -0.0001 -0.3211 -0.3056
  458MOL0     C60328   5.592   5.042   0.770 -1.2847 -0.1346 -0.6479
  458MOL0     C60329   5.519   5.159   0.790  0.7153 -0.2377  0.9836
  458MOL0     C60330   5.391   5.148   0.843 -0.8233 -0.7892  0.0895
  458MOL0     C60331   5.341   5.019   0.878 -0.5061 -0.4494 -0.5036
  458MOL0     O60332   5.210   5.010   0.921  1.5081 -0.5514 -0.6181
  458MOL0     C60333   5.116   5.117   0.917 -0.2783 -0.6027  0.0674
  458MOL0     C60334   4.990   5.066   0.985  0.7027 -0.7569  0.8530
  458MOL0     C60335   5.010   5.016   1.123 -0.2605 -0.1754  0.5133
  458MOL0     C60336   5.040   5.138   1.217 -0.6809 -0.3318  0.6766
  458MOL0     C60337   5.032   5.120   1.364  0.2779 -0.4001  0.0313
  458MOL0     C60338   5.059   5.245   1.455  1.4831 -0.2918  0.0392
  458MOL0     C60339   5.128   5.212   1.584 -0.7133 -0.0097 -0.3865
  458MOL0     C60340   5.045   5.108   1.672  0.2723 -0.0078 -0.4268
  458MOL0     N60341   4.905   5.138   1.674  0.0216  0.1166 -0.4558
  458MOL0     C60342   4.857   5.253   1.731 -0.9948  0.8401  0.2556
  458MOL0     C60343   4.722   5.251   1.707  0.0968 -0.0838 -0.2809
  458MOL0     C60344   4.621   5.352   1.750 -0.5071  0.5247  0.4293
  458MOL0     C60345   4.477   5.298   1.758  0.3781 -0.2334  0.4228
  458MOL0     C60346   4.372   5.390   1.807  0.1487 -0.3033  0.2208
  458MOL0     C60347   4.236   5.315   1.793 -0.0078  0.1115 -0.3798
  458MOL0     O60348   4.136   5.402   1.855  0.3667 -0.1612  0.1875
  458MOL0     C60349   4.018   5.350   1.903  0.5502  0.0688 -0.7223
  458MOL0     C60350   3.969   5.223   1.886  0.0756 -0.3601  0.2332
  458MOL0     C60351   3.841   5.185   1.941  0.4700  0.6614  0.5300
  458MOL0     C60352   3.770   5.285   2.011 -0.6348 -0.4130  0.6073
  458MOL0     C60353   3.654   5.250   2.079 -0.1021 -0.6130  0.0498
  458MOL0     O60354   3.627   5.117   2.101  0.1617 -0.1283  0.4444
  458MOL0     C60355   3.503   5.075   2.148 -0.6313 -0.9649 -0.7584
  458MOL0     C60356   3.401   5.047   2.057  0.4674  0.0478  0.0445
  458MOL0     C60357   3.277   5.012   2.099  0.2476 -0.1306 -0.0901
  458MOL0     C60358   3.249   4.986   2.235 -0.3867  0.5688  0.4201
  458MOL0     O60359   3.124   4.956   2.277  0.1167  1.1832 -0.1429
  458MOL0     C60360   3.015   5.042   2.236 -0.1875  0.7146  0.5680
  458MOL0     C60361   2.892   4.996   2.313  0.7640  0.8176  0.2568
  458MOL0     C60362   2.790   5.111   2.336  0.7167  0.4372  0.7788
  458MOL0     C60363   2.660   5.050   2.386 -0.1723  0.0529 -0.4656
  458MOL0     C60364   2.566   5.166   2.428 -0.6130 -0.9759  0.1212
  458MOL0     C60365   2.480   5.215   2.308 -0.6319 -0.0683 -1.0008
  458MOL0     C60366   2.375   5.315   2.350  0.7513 -0.2689  0.1783
  458MOL0     C60367   2.234   5.259   2.322  0.3018 -0.0382  0.3283
  458MOL0    Cl60368   2.148   5.354   2.190  0.2160 -0.0258  0.1085
  458MOL0     C60369   3.358   4.994   2.325  0.2474  0.2897  0.8145
  458MOL0     C60370   3.476   5.047   2.285 -0.6626 -0.2355  0.7056
  458MOL0     O60371   3.572   5.342   2.106 -1.0272  0.5460 -0.3640
  458MOL0     C60372   3.832   5.407   2.042 -0.4611  0.3018  0.7486
  458MOL0     C60373   3.951   5.441   1.987  0.0073  0.6393  1.6791
  458MOL0     N60374   4.692   5.131   1.634  0.1726  0.5096 -0.4621
  458MOL0     N60375   4.802   5.075   1.614  0.1539  0.3626  0.9442
  458MOL0     C60376   5.429   4.905   0.867  0.1224 -0.2537  0.4471
  458MOL0     C60377   5.551   4.913   0.807 -0.9588  0.4848  0.9970
  458MOL0     C60378   5.903   5.016   0.561 -0.0349  0.4282  0.2520
  458MOL0     C60379   6.002   5.094   0.619 -0.0129  0.0027 -0.8495
  458MOL0     C60380   6.135   5.094   0.576  0.4004 -0.1547  0.1837
  458MOL0     C60381   6.170   5.003   0.473  0.0103  0.1615 -0.2877
  458MOL0     O60382   6.304   4.994   0.441  0.7796  0.2880 -0.5939
  458MOL0     C60383   6.340   4.929   0.318  0.6009  0.3236 -0.6513
  458MOL0     C60384   6.286   4.999   0.188  0.4006 -0.2295 -0.1116
  458MOL0     C60385   6.339   4.937   0.056  0.5066 -0.0533 -0.6355
  458MOL0     C60386   6.326   4.786   0.045  0.1365  0.1040 -0.3899
  458MOL0     C60387   6.189   4.740   0.050 -0.5633  0.1360  0.2765
  458MOL0     C60388   6.075   4.691   0.064  0.0510 -0.1165 -1.3733
  458MOL0     C60389   6.072   4.933   0.403  0.1900 -0.4508 -0.5729
  458MOL0     C60390   5.942   4.938   0.449  0.1005 -0.0610  0.0869
  458MOL0     H60391   5.562   5.255   0.766 -0.5309  0.3891  1.2004
  458MOL0     H60392   5.342   5.244   0.845  1.5967  0.5946 -1.5079
  458MOL0     H60393   5.107   5.143   0.811 -0.8003 -3.3648 -0.6642
  458MOL0     H60394   5.151   5.206   0.969  0.4054  0.2319 -1.7381
  458MOL0     H60395   4.954   4.983   0.924 -2.1039  0.9149  0.0159
  458MOL0     H60396   4.907   5.137   0.983  0.6907 -0.7607  1.1599
  458MOL0     H60397   5.089   4.943   1.136 -0.7959 -0.7893  0.3500
  458MOL0     H60398   4.917   4.967   1.152 -0.8745  0.0961 -0.9373
  458MOL0     H60399   5.136   5.185   1.194 -0.8894 -0.6318 -0.9545
  458MOL0     H60400   4.962   5.209   1.186  1.0719  0.6695 -1.6863
  458MOL0     H60401   5.093   5.038   1.402 -1.6313 -2.2842 -0.7891
  458MOL0     H60402   4.933   5.077   1.381  2.0734 -4.4821  1.5294
  458MOL0     H60403   4.963   5.294   1.477  0.5320 -1.7487 -0.6919
  458MOL0     H60404   5.110   5.319   1.393 -1.4291  2.6662  0.9060
  458MOL0     H60405   5.222   5.161   1.564  2.1753  3.3757  2.9885
  458MOL0     H60406   5.146   5.292   1.657  2.2166 -1.4856  0.6474
  458MOL0     H60407   5.084   5.121   1.773 -2.8277 -0.2921  0.9259
  458MOL0     H60408   5.070   5.005   1.644 -2.8345 -1.4530  1.5450
  458MOL0     H60409   4.918   5.332   1.775 -1.1847  0.9714  0.2859
  458MOL0     H60410   4.621   5.434   1.677  4.2257  1.1700  0.8772
  458MOL0     H60411   4.645   5.388   1.850 -0.1083 -0.8474  0.8459
  458MOL0     H60412   4.479   5.202   1.811  0.1511 -3.2357 -4.4248
  458MOL0     H60413   4.442   5.279   1.657  0.6059  1.4049  0.0107
  458MOL0     H60414   4.397   5.429   1.906 -0.2077  1.6334 -0.4200
  458MOL0     H60415   4.360   5.479   1.745  0.5430  0.8770  1.7737
  458MOL0     H60416   4.240   5.221   1.849  0.5962  0.8587  0.8802
  458MOL0     H60417   4.216   5.297   1.687  0.0491 -0.2478 -0.3323
  458MOL0     H60418   4.023   5.156   1.820 -0.2083 -1.4478  1.0755
  458MOL0     H60419   3.803   5.089   1.907 -0.3071  0.7605  1.0941
  458MOL0     H60420   3.419   5.065   1.952  1.1672  3.4227  0.6241
  458MOL0     H60421   3.203   5.014   2.020 -0.4540 -0.4944  0.5461
  458MOL0     H60422   2.994   5.026   2.130  0.3948 -0.2027  0.5753
  458MOL0     H60423   3.043   5.143   2.267 -0.0886 -0.0984  3.4976
  458MOL0     H60424   2.921   4.958   2.411 -0.5387  2.3370  1.2953
  458MOL0     H60425   2.851   4.916   2.251  1.0434  1.2304 -0.4652
  458MOL0     H60426   2.764   5.167   2.246 -3.0827 -0.0056  1.4522
  458MOL0     H60427   2.831   5.179   2.412 -3.7248  2.1456  1.9448
  458MOL0     H60428   2.617   4.985   2.309 -2.0979  0.6284  0.0737
  458MOL0     H60429   2.679   4.992   2.476  0.9788 -0.1441 -0.8235
  458MOL0     H60430   2.632   5.243   2.467  1.4059 -3.5156  2.0882
  458MOL0     H60431   2.495   5.136   2.506  2.4265 -3.2285  2.2369
  458MOL0     H60432   2.425   5.125   2.281 -1.0531  0.2188 -1.0999
  458MOL0     H60433   2.544   5.258   2.231 -1.8069  2.1955 -0.8022
  458MOL0     H60434   2.382   5.329   2.458  0.5556  0.4768  0.1035
  458MOL0     H60435   2.399   5.410   2.301  1.7902 -0.6445 -0.0781
  458MOL0     H60436   2.182   5.256   2.418  0.2130  1.1736  0.3316
  458MOL0     H60437   2.237   5.154   2.291  0.1284  0.6087 -2.0864
  458MOL0     H60438   3.346   4.960   2.427 -0.8201 -0.2567  0.5235
  458MOL0     H60439   3.550   5.056   2.364  0.4326 -1.5673 -0.1114
  458MOL0     H60440   3.784   5.485   2.101 -2.7538 -0.2573 -0.2632
  458MOL0     H60441   3.997   5.538   2.001  1.3526  0.1133  1.1070
  458MOL0     H60442   5.397   4.804   0.889  1.4627 -1.1074 -1.2519
  458MOL0     H60443   5.612   4.826   0.786 -0.3120  0.9322  0.9837
  458MOL0     H60444   5.977   5.155   0.705  1.8527 -1.0977  0.5354
  458MOL0     H60445   6.211   5.149   0.630  1.2588 -3.0222  2.1174
  458MOL0     H60446   6.307   4.825   0.318  0.0761  0.4831 -1.3907
  458MOL0     H60447   6.449   4.926   0.313  0.7828  0.9991  1.6279
  458MOL0     H60448   6.177   5.002   0.186  0.3335 -2.1086 -1.0056
  458MOL0     H60449   6.324   5.102   0.180 -0.7954  0.3065  0.8233
  458MOL0     H60450   6.448   4.950   0.061  0.6940 -1.8180  1.1980
  458MOL0     H60451   6.294   4.990  -0.029 -1.2105  2.3852  1.6183
  458MOL0     H60452   6.365   4.749  -0.050  0.5858 -0.6314  0.0779
  458MOL0     H60453   6.384   4.744   0.127  0.6421 -2.5507 -1.9766
  458MOL0     H60454   5.976   4.653   0.075 -0.5845  1.8033  0.0876
  458MOL0     H60455   6.081   4.875   0.311  0.9556 -0.1542 -0.6913
  458MOL0     H60456   5.871   4.871   0.403 -0.6756 -1.4774  3.1448
  459MOL0     O60457   0.951   4.163   3.542  0.4490  0.6737  0.3727
  459MOL0     C60458   1.034   4.113   3.622  0.4414  0.0990  0.6542
  459MOL0     O60459   1.011   4.015   3.713  0.3464  0.2208  1.0076
  459MOL0     C60460   0.885   3.951   3.707  0.0827  0.4028  0.2466
  459MOL0     C60461   0.883   3.811   3.706 -0.1697 -0.4245 -0.4838
  459MOL0     C60462   0.759   3.754   3.725  0.2129 -0.3475  0.1405
  459MOL0     C60463   0.635   3.827   3.733 -0.0633 -0.1833  1.1308
  459MOL0     O60464   0.513   3.756   3.738  0.4983  0.1091  0.4743
  459MOL0     C60465   0.415   3.784   3.843  0.8037  0.7271 -0.1786
  459MOL0     C60466   0.318   3.668   3.863  1.7354  0.0877 -0.3447
  459MOL0     C60467   0.222   3.620   3.751  0.5135  0.0139  0.4932
  459MOL0     C60468   0.140   3.498   3.809 -0.0751  0.1207 -0.4022
  459MOL0     C60469   0.115   3.400   3.701  0.3234  0.5765  0.6514
  459MOL0     C60470  -0.012   3.448   3.623  0.1710  0.7220  0.2154
  459MOL0     C60471  -0.138   3.375   3.685 -1.0766 -0.0258  1.1186
  459MOL0     C60472  -0.139   3.224   3.647  0.8079  0.1459 -0.5903
  459MOL0     N60473  -0.273   3.176   3.688 -0.0872 -0.4762  0.4089
  459MOL0     C60474  -0.395   3.187   3.625 -0.1359 -0.5357 -0.6577
  459MOL0     C60475  -0.474   3.112   3.705  1.1228  0.5162  0.9683
  459MOL0     C60476  -0.615   3.066   3.671 -0.3175 -0.5021  0.1190
  459MOL0     C60477  -0.720   3.185   3.686 -0.5139  0.5102 -0.2237
  459MOL0     C60478  -0.854   3.149   3.631 -0.2016 -0.5579  0.4790
  459MOL0     C60479  -0.929   3.035   3.681  1.3721  0.5362  0.1815
  459MOL0     O60480  -1.034   3.078   3.765 -0.0382  0.5373 -0.2291
  459MOL0     C60481  -1.167   3.084   3.710 -0.5214 -0.4481 -0.8360
  459MOL0     C60482  -1.270   3.050   3.792  0.5497  0.0903 -0.0403
  459MOL0     C60483  -1.409   3.054   3.751  0.6337 -0.5603  0.2216
  459MOL0     C60484  -1.445   3.098   3.622  0.4810  0.1969  0.1472
  459MOL0     C60485  -1.586   3.079   3.577  0.3884  0.6399  0.3399
  459MOL0     O60486  -1.678   3.042   3.680  0.6324 -0.1534 -0.6424
  459MOL0     C60487  -1.820   3.050   3.675 -0.3980 -0.6082  0.2908
  459MOL0     C60488  -1.888   3.129   3.576  0.0106  0.5071 -0.2875
  459MOL0     C60489  -2.024   3.134   3.573 -0.4194  0.1711 -0.5510
  459MOL0     C60490  -2.103   3.073   3.670 -0.2097  0.4514  0.1268
  459MOL0     O60491  -2.238   3.072   3.663  0.7579  0.3860 -0.3534
  459MOL0     C60492  -2.320   3.010   3.763 -0.0250 -0.4060  1.0497
  459MOL0     C60493  -2.455   3.074   3.762 -0.2409 -0.0933  0.8538
  459MOL0     C60494  -2.520   3.043   3.624 -1.0618  0.4052  0.6923
  459MOL0     C60495  -2.652   3.109   3.617  1.1425  0.4144  0.4992
  459MOL0     C60496  -2.720   3.100   3.479 -0.4128  1.0043  0.5849
  459MOL0     C60497  -2.860   3.158   3.475  0.9641 -0.0837  0.9578
  459MOL0     C60498  -2.970   3.062   3.546 -0.7562 -0.2979  0.4230
  459MOL0     C60499  -3.111   3.120   3.549  0.2212 -0.0797  0.1821
  459MOL0    Cl60500  -3.194   3.075   3.400  0.0275  0.2111  0.1899
  459MOL0     C60501  -2.037   3.001   3.774 -0.2990 -0.1751 -0.6379
  459MOL0     C60502  -1.898   2.986   3.771 -0.6257 -0.5822 -0.5290
  459MOL0     O60503  -1.611   3.076   3.457 -0.2768  0.2054 -0.1004
  459MOL0     C60504  -1.337   3.138   3.537  0.6457 -0.6177 -1.0070
  459MOL0     C60505  -1.201   3.142   3.582  0.3801  0.9399  0.7582
  459MOL0     N60506  -0.401   3.051   3.804  0.6339 -0.0957  0.4241
  459MOL0     N60507  -0.286   3.109   3.802 -1.0635  0.4715 -0.5479
  459MOL0     C60508   0.639   3.974   3.740 -0.4273  0.3716 -0.4467
  459MOL0     C60509   0.769   4.037   3.725 -0.3120 -0.4327  0.4519
  459MOL0     C60510   1.164   4.184   3.641 -0.6444  0.1865 -0.4974
  459MOL0     C60511   1.197   4.313   3.587 -0.0630 -0.3406 -0.7210
  459MOL0     C60512   1.322   4.375   3.605 -0.2158 -0.3729 -0.9451
  459MOL0     C60513   1.424   4.309   3.671  0.3317  0.2247 -0.1730
  459MOL0     O60514   1.540   4.366   3.691  0.6101  0.6480 -0.1822
  459MOL0     C60515   1.571   4.504   3.648  1.1633  0.3783 -0.3481
  459MOL0     C60516   1.724   4.516   3.655  0.8291  0.0078 -0.2670
  459MOL0     C60517   1.773   4.525   3.797 -0.1489  0.3888  0.1382
  459MOL0     C60518   1.922   4.588   3.805 -0.2978 -0.0825  0.5157
  459MOL0     C60519   1.991   4.582   3.932  0.1114  0.6955 -0.4082
  459MOL0     C60520   2.047   4.584   4.040  0.2283  0.3654 -0.6386
  459MOL0     C60521   1.397   4.180   3.718 -0.1171  0.0955 -0.3462
  459MOL0     C60522   1.278   4.113   3.700 -0.2066 -0.5469 -0.3403
  459MOL0     H60523   0.971   3.748   3.707 -0.1286 -0.4237 -1.7707
  459MOL0     H60524   0.740   3.652   3.756  0.5134 -0.7113 -0.8382
  459MOL0     H60525   0.350   3.866   3.813 -1.2014  0.2484  2.4672
  459MOL0     H60526   0.471   3.789   3.937  0.6317  1.8029 -0.1222
  459MOL0     H60527   0.263   3.712   3.947  3.2463  0.8262  0.2865
  459MOL0     H60528   0.367   3.573   3.887 -0.4407 -0.9377  0.3760
  459MOL0     H60529   0.284   3.578   3.670  1.9380 -1.5732  2.3150
  459MOL0     H60530   0.160   3.701   3.713 -0.7344 -1.1440 -0.0263
  459MOL0     H60531   0.200   3.444   3.883  0.9166 -0.9559 -1.9238
  459MOL0     H60532   0.049   3.532   3.858  1.0522 -1.0590  2.7424
  459MOL0     H60533   0.105   3.303   3.750  2.7266 -0.0679  0.0268
  459MOL0     H60534   0.201   3.396   3.633 -1.1055  0.3773 -1.2113
  459MOL0     H60535  -0.004   3.431   3.515 -0.3413 -2.9261  0.6016
  459MOL0     H60536  -0.014   3.555   3.645 -1.8104  0.7357  0.0849
  459MOL0     H60537  -0.148   3.373   3.794 -1.6495 -0.7467  1.0652
  459MOL0     H60538  -0.231   3.418   3.646 -0.3466  1.5717  1.0550
  459MOL0     H60539  -0.061   3.165   3.696  1.8744  1.5720 -0.4856
  459MOL0     H60540  -0.129   3.204   3.540 -0.4358  1.1641 -0.9246
  459MOL0     H60541  -0.414   3.238   3.531 -3.9682  0.0914  0.2765
  459MOL0     H60542  -0.634   2.982   3.738  0.0188 -0.6687  0.0120
  459MOL0     H60543  -0.615   3.025   3.569  2.6365 -1.8299  0.5330
  459MOL0     H60544  -0.687   3.275   3.633 -0.3567 -0.1750 -1.3248
  459MOL0     H60545  -0.729   3.211   3.791 -0.4575 -1.3719  0.2804
  459MOL0     H60546  -0.914   3.241   3.628 -0.9303 -0.8808  2.7238
  459MOL0     H60547  -0.835   3.128   3.526 -0.9860  2.3219 -0.3474
  459MOL0     H60548  -0.868   2.972   3.747  1.5962  1.8627  1.2773
  459MOL0     H60549  -0.972   2.965   3.609  0.6238 -0.9170  1.9382
  459MOL0     H60550  -1.258   3.009   3.892 -0.4860 -1.2511 -0.4376
  459MOL0     H60551  -1.485   3.021   3.821  0.0979 -0.0561 -0.1072
  459MOL0     H60552  -1.829   3.186   3.505 -1.3645  1.1709 -0.9478
  459MOL0     H60553  -2.065   3.180   3.484  1.9990  0.6558 -1.5014
  459MOL0     H60554  -2.301   3.032   3.868  1.6382 -2.2811  1.2111
  459MOL0     H60555  -2.334   2.906   3.731  0.2407 -0.5291  1.3250
  459MOL0     H60556  -2.445   3.181   3.780  0.6152  0.9405 -4.2596
  459MOL0     H60557  -2.520   3.021   3.833  0.7879 -0.8488  1.2612
  459MOL0     H60558  -2.524   2.936   3.604  2.6922  0.4371 -0.9733
  459MOL0     H60559  -2.454   3.082   3.546  0.2451  1.8512  2.4471
  459MOL0     H60560  -2.715   3.058   3.690 -1.3111  0.6802 -1.3089
  459MOL0     H60561  -2.652   3.215   3.645 -0.2649  0.1670  1.5200
  459MOL0     H60562  -2.707   3.003   3.432  0.0247  2.3321 -2.2121
  459MOL0     H60563  -2.662   3.162   3.411 -1.3072  0.2048 -0.9635
  459MOL0     H60564  -2.907   3.170   3.377  0.4192 -1.8072  0.9792
  459MOL0     H60565  -2.871   3.257   3.521 -2.2151  1.7766 -3.1708
  459MOL0     H60566  -2.971   2.968   3.490 -0.4557  0.4984 -0.9679
  459MOL0     H60567  -2.941   3.045   3.650  0.3630  0.0220  0.1803
  459MOL0     H60568  -3.103   3.226   3.574 -2.1861 -0.3480  2.4825
  459MOL0     H60569  -3.164   3.085   3.638 -1.7065  2.7314  0.2888
  459MOL0     H60570  -2.101   2.959   3.851 -0.4183  0.3380 -0.4522
  459MOL0     H60571  -1.846   2.932   3.849  1.9407  2.2294 -0.1206
  459MOL0     H60572  -1.362   3.158   3.434 -2.1993  2.0851  0.0466
  459MOL0     H60573  -1.129   3.170   3.506  0.2496  3.8188  1.5725
  459MOL0     H60574   0.545   4.030   3.736 -0.3717  0.4022 -2.1574
  459MOL0     H60575   0.771   4.146   3.730  0.1805 -0.3175 -1.4259
  459MOL0     H60576   1.121   4.370   3.535  0.0852  0.6534  0.1102
  459MOL0     H60577   1.330   4.476   3.565  3.5382  0.4528  1.4293
  459MOL0     H60578   1.524   4.563   3.728 -2.7647 -0.6971 -1.6238
  459MOL0     H60579   1.533   4.532   3.549 -0.9415 -2.1073 -0.3318
  459MOL0     H60580   1.773   4.439   3.594  0.5691  0.5734 -1.2084
  459MOL0     H60581   1.760   4.606   3.604  3.2866 -1.2168 -0.8635
  459MOL0     H60582   1.775   4.424   3.838 -1.3627  0.2792 -0.0338
  459MOL0     H60583   1.708   4.579   3.866  3.6716 -0.2513  4.7866
  459MOL0     H60584   1.991   4.539   3.735  0.4472  0.9828  0.4803
  459MOL0     H60585   1.917   4.695   3.784  1.3689 -0.4093 -1.9054
  459MOL0     H60586   2.107   4.566   4.127  1.2566 -0.9681 -1.5695
  459MOL0     H60587   1.476   4.125   3.769  0.9994  1.4976 -0.4713
  459MOL0     H60588   1.264   4.013   3.741 -0.4463 -0.5341 -0.3915
  460MOL0     O60589   1.180  11.059   5.931 -0.1201 -0.0606  0.3641
  460MOL0     C60590   1.279  11.021   5.861 -0.1304  0.1346  1.4248
  460MOL0     O60591   1.307  11.069   5.738  0.2625 -0.0497  0.2874
  460MOL0     C60592   1.222  11.161   5.686  0.0150  0.8455 -1.1426
  460MOL0     C60593   1.231  11.296   5.708 -0.5231  0.3813  0.0079
  460MOL0     C60594   1.142  11.380   5.650 -0.2225 -0.9111  0.3496
  460MOL0     C60595   1.034  11.342   5.569 -0.4771 -0.0215  0.0227
  460MOL0     O60596   0.933  11.424   5.527 -0.6945 -0.6341  0.4306
  460MOL0     C60597   0.878  11.518   5.627  0.0324 -0.2842 -0.2865
  460MOL0     C60598   0.761  11.572   5.565  0.5787 -0.1050  0.1629
  460MOL0     C60599   0.684  11.680   5.637  0.2159 -0.2204 -0.6344
  460MOL0     C60600   0.576  11.752   5.566  0.3363  0.1913 -0.1770
  460MOL0     C60601   0.454  11.658   5.539 -0.2968 -0.6091  0.1230
  460MOL0     C60602   0.323  11.742   5.518  0.4218 -0.3743 -0.2902
  460MOL0     C60603   0.207  11.648   5.524 -0.3405 -0.6991 -0.0250
  460MOL0     C60604   0.079  11.729   5.522 -0.2604 -0.9852 -0.8534
  460MOL0     N60605  -0.040  11.649   5.533 -0.9472  0.2692  0.6840
  460MOL0     C60606  -0.123  11.635   5.642 -0.9786  0.2055  0.0243
  460MOL0     C60607  -0.215  11.553   5.600  0.0869 -0.0820  0.7417
  460MOL0     C60608  -0.325  11.505   5.691 -0.0536  0.0556  0.3306
  460MOL0     C60609  -0.459  11.559   5.619  0.0826  0.2715  0.0529
  460MOL0     C60610  -0.577  11.588   5.712 -0.4092  0.6965  0.0869
  460MOL0     C60611  -0.692  11.659   5.656 -0.3268 -0.1464  0.4270
  460MOL0     O60612  -0.756  11.575   5.555  0.0016  0.4640 -0.1885
  460MOL0     C60613  -0.897  11.595   5.528  0.7140 -0.0742 -0.6044
  460MOL0     C60614  -0.965  11.712   5.568  0.0791 -0.4593 -0.3511
  460MOL0     C60615  -1.099  11.726   5.532 -0.1177 -0.2748  0.3091
  460MOL0     C60616  -1.165  11.630   5.454 -0.0062 -0.1497  0.0833
  460MOL0     C60617  -1.316  11.650   5.422  0.2365  0.3742  0.0314
  460MOL0     O60618  -1.374  11.745   5.491  0.5946  0.6550 -0.5662
  460MOL0     C60619  -1.509  11.768   5.471 -0.4159 -0.2186 -0.1836
  460MOL0     C60620  -1.610  11.674   5.434 -0.6460  0.1888  0.9136
  460MOL0     C60621  -1.750  11.703   5.437  0.5909  0.3178 -1.5815
  460MOL0     C60622  -1.788  11.832   5.482  0.8576 -0.0123  0.0952
  460MOL0     O60623  -1.921  11.882   5.495  0.3869  0.1499  0.1426
  460MOL0     C60624  -2.030  11.835   5.415  0.3588  0.5084  0.6679
  460MOL0     C60625  -2.168  11.833   5.490  0.0601 -0.8671 -0.2964
  460MOL0     C60626  -2.179  11.948   5.582 -0.3986  0.2226 -0.0852
  460MOL0     C60627  -2.324  11.953   5.612 -1.0821  0.1436 -0.2040
  460MOL0     C60628  -2.403  12.045   5.506  0.7296  0.0858  0.1010
  460MOL0     C60629  -2.547  12.064   5.564  0.4516 -0.8789 -0.4744
  460MOL0     C60630  -2.649  12.115   5.470 -0.2556  0.0317  0.2407
  460MOL0     C60631  -2.615  12.251   5.397 -0.0942  0.3683  0.1619
  460MOL0    Cl60632  -2.750  12.301   5.292 -0.1163 -0.1717 -0.1640
  460MOL0     C60633  -1.687  11.929   5.509  0.6825  1.3154  0.6940
  460MOL0     C60634  -1.549  11.895   5.494 -0.5910 -0.4407  0.2299
  460MOL0     O60635  -1.369  11.574   5.346  0.4354 -0.6718  0.3317
  460MOL0     C60636  -1.093  11.525   5.409 -0.8996  0.1002 -0.4753
  460MOL0     C60637  -0.961  11.502   5.442 -0.3080 -0.6770 -0.8514
  460MOL0     N60638  -0.197  11.521   5.469 -0.2345  0.7227  0.4087
  460MOL0     N60639  -0.083  11.577   5.431  0.2515  0.3827  0.4086
  460MOL0     C60640   1.013  11.199   5.566 -0.1038 -0.3027  1.1199
  460MOL0     C60641   1.108  11.113   5.615 -0.3214 -0.3569 -0.0499
  460MOL0     C60642   1.359  10.902   5.903  0.4701  0.6810  0.2950
  460MOL0     C60643   1.448  10.843   5.818  0.2410 -0.7982  0.4332
  460MOL0     C60644   1.535  10.745   5.861 -0.8587 -0.1342 -0.4457
  460MOL0     C60645   1.516  10.691   5.991 -0.0275  0.0182  0.1071
  460MOL0     O60646   1.594  10.596   6.056 -0.0310  0.2046  0.1751
  460MOL0     C60647   1.727  10.561   6.015  0.7157 -1.0951  0.2675
  460MOL0     C60648   1.807  10.518   6.135  0.1143  0.4340  0.3727
  460MOL0     C60649   1.893  10.625   6.202  0.7123  0.3416 -0.0298
  460MOL0     C60650   2.033  10.654   6.139 -0.4714  0.1266  0.2418
  460MOL0     C60651   2.101  10.760   6.222 -0.6021  0.3056  0.8528
  460MOL0     C60652   2.164  10.847   6.280  0.4162 -0.0774  0.1139
  460MOL0     C60653   1.400  10.735   6.067  0.0201 -0.1525  0.0124
  460MOL0     C60654   1.328  10.843   6.026  0.6330 -0.4655 -0.7421
  460MOL0     H60655   1.314  11.331   5.769  0.5537 -0.9826 -0.6323
  460MOL0     H60656   1.163  11.486   5.664  0.5670 -1.1915  1.4551
  460MOL0     H60657   0.952  11.591   5.659 -1.4196  0.2568  2.0055
  460MOL0     H60658   0.850  11.470   5.721 -1.9083  1.4893  0.0960
  460MOL0     H60659   0.690  11.489   5.552  1.2834 -0.9184  1.2930
  460MOL0     H60660   0.791  11.620   5.472 -2.2453 -2.2498 -2.0491
  460MOL0     H60661   0.755  11.760   5.658 -1.5004  1.5301 -1.1122
  460MOL0     H60662   0.646  11.640   5.731  1.8976 -2.4681 -0.8366
  460MOL0     H60663   0.556  11.836   5.634  1.8506  2.1540 -1.9995
  460MOL0     H60664   0.622  11.798   5.478  2.8981 -0.0312  0.9594
  460MOL0     H60665   0.456  11.603   5.633  1.2879  1.3830  1.3325
  460MOL0     H60666   0.471  11.592   5.453  0.4598 -2.1262  1.3993
  460MOL0     H60667   0.320  11.806   5.429  2.6137  2.7386  1.6509
  460MOL0     H60668   0.306  11.808   5.604 -0.6166  1.8280 -2.0614
  460MOL0     H60669   0.200  11.572   5.446 -1.2576 -1.0867  0.4079
  460MOL0     H60670   0.197  11.598   5.621 -2.8803 -2.7325 -1.2158
  460MOL0     H60671   0.079  11.788   5.430  0.5547  1.1840  0.4517
  460MOL0     H60672   0.080  11.797   5.609 -0.4117 -0.3349 -1.3534
  460MOL0     H60673  -0.117  11.686   5.738 -3.3524  1.6701 -0.4988
  460MOL0     H60674  -0.313  11.550   5.789  1.8128 -1.4835  0.8688
  460MOL0     H60675  -0.321  11.395   5.691  0.5283  0.0034 -2.1372
  460MOL0     H60676  -0.480  11.480   5.546  2.0672 -0.0290 -0.2592
  460MOL0     H60677  -0.439  11.651   5.563 -1.2531  0.4241 -0.2253
  460MOL0     H60678  -0.610  11.505   5.774 -1.4220  1.8840  1.2075
  460MOL0     H60679  -0.540  11.659   5.787 -0.9421  2.5162 -1.2739
  460MOL0     H60680  -0.655  11.758   5.626 -0.9268 -0.7010 -2.3766
  460MOL0     H60681  -0.757  11.673   5.743  0.6473  0.0747  1.1435
  460MOL0     H60682  -0.919  11.790   5.628  1.4298 -2.2226  1.0244
  460MOL0     H60683  -1.153  11.814   5.565 -1.6379 -1.1328  0.2021
  460MOL0     H60684  -1.576  11.572   5.427  4.1428  1.6163  0.1894
  460MOL0     H60685  -1.831  11.636   5.410 -0.6711 -0.1023  2.5852
  460MOL0     H60686  -2.012  11.736   5.372  1.9838  1.3399 -0.7245
  460MOL0     H60687  -2.039  11.904   5.330  3.5002  0.3110  0.0853
  460MOL0     H60688  -2.171  11.746   5.557 -2.5775 -0.6189 -0.0015
  460MOL0     H60689  -2.249  11.839   5.417 -0.1863 -0.2230  0.0204
  460MOL0     H60690  -2.140  12.038   5.534 -1.7377 -0.1704 -2.0488
  460MOL0     H60691  -2.123  11.917   5.671 -0.1343  0.1732 -0.2686
  460MOL0     H60692  -2.367  11.853   5.612 -0.4586 -0.4890 -6.0006
  460MOL0     H60693  -2.332  12.009   5.706 -0.7641  0.7629 -0.5366
  460MOL0     H60694  -2.411  11.978   5.420  0.1037 -1.6904  1.4755
  460MOL0     H60695  -2.348  12.137   5.487 -1.2849  1.9161  2.4610
  460MOL0     H60696  -2.556  12.124   5.655 -3.3346 -1.1966 -0.4430
  460MOL0     H60697  -2.585  11.967   5.596  2.3415 -0.7368  2.4721
  460MOL0     H60698  -2.672  12.034   5.399  2.4394 -0.5216 -0.1100
  460MOL0     H60699  -2.735  12.140   5.533 -0.0494  0.3813  0.3844
  460MOL0     H60700  -2.516  12.237   5.352  0.5097 -0.9436  1.7631
  460MOL0     H60701  -2.595  12.330   5.470 -0.5750  1.5979 -1.0067
  460MOL0     H60702  -1.702  12.031   5.543  0.0079  0.8351  1.8972
  460MOL0     H60703  -1.471  11.968   5.510 -0.8449 -0.1716  0.2332
  460MOL0     H60704  -1.145  11.454   5.346  1.2869 -0.6122 -1.5648
  460MOL0     H60705  -0.911  11.413   5.405  0.1229 -1.5272  1.5398
  460MOL0     H60706   0.927  11.156   5.516  1.4313 -0.1350 -1.9198
  460MOL0     H60707   1.094  11.006   5.607  0.4857 -0.4950  0.3141
  460MOL0     H60708   1.465  10.877   5.717 -1.3192 -1.8277 -0.2281
  460MOL0     H60709   1.615  10.715   5.794  2.1585  2.9053  1.4003
  460MOL0     H60710   1.777  10.642   5.962 -1.9302  0.4935  0.0287
  460MOL0     H60711   1.718  10.477   5.946 -3.6611  0.5641 -1.5042
  460MOL0     H60712   1.740  10.492   6.217  0.3045 -0.6778  0.1810
  460MOL0     H60713   1.849  10.418   6.126 -0.4291  0.1548  0.9062
  460MOL0     H60714   1.915  10.601   6.306  1.3102  2.8647  0.4914
  460MOL0     H60715   1.834  10.715   6.221  2.2148  2.0448 -2.7292
  460MOL0     H60716   2.097  10.565   6.136  0.8023  1.0219 -0.1293
  460MOL0     H60717   2.028  10.696   6.038  1.4497 -1.6607 -0.6790
  460MOL0     H60718   2.233  10.914   6.328 -0.0671 -0.1587  0.9296
  460MOL0     H60719   1.379  10.699   6.167  2.4108 -1.6249  0.0592
  460MOL0     H60720   1.240  10.881   6.078 -0.3022 -2.9443 -0.3691
  461MOL0     O60721   1.124   6.589   5.796 -0.3463 -0.2346  0.1074
  461MOL0     C60722   1.043   6.632   5.879 -0.1618 -0.1539 -0.3599
  461MOL0     O60723   1.074   6.701   5.994  0.5658  0.4293  0.2446
  461MOL0     C60724   1.202   6.737   6.015 -0.1196  0.6900 -0.0101
  461MOL0     C60725   1.270   6.817   5.921 -0.1084 -0.1784 -0.6671
  461MOL0     C60726   1.405   6.833   5.951 -0.2327  0.0276 -1.0004
  461MOL0     C60727   1.480   6.765   6.055 -0.2023  1.0799 -0.2606
  461MOL0     O60728   1.620   6.764   6.063  0.3897  0.2774  0.5184
  461MOL0     C60729   1.704   6.663   6.004 -0.0187 -0.7206 -0.4279
  461MOL0     C60730   1.824   6.644   6.102  0.3172 -0.7448  0.0467
  461MOL0     C60731   1.927   6.753   6.086  0.7254  0.1851  0.1326
  461MOL0     C60732   2.033   6.716   5.976  0.1503 -0.2387 -0.5889
  461MOL0     C60733   2.139   6.825   5.930 -0.3181 -0.1840  0.6863
  461MOL0     C60734   2.242   6.834   6.040  0.6456 -0.6924  0.7991
  461MOL0     C60735   2.355   6.922   5.998 -0.4971  0.4448 -0.2800
  461MOL0     C60736   2.344   7.080   5.974  0.8358  0.2635 -0.5878
  461MOL0     N60737   2.267   7.157   6.079  0.3906 -0.2138  0.2202
  461MOL0     C60738   2.130   7.162   6.102  0.1474 -0.0709  0.7641
  461MOL0     C60739   2.112   7.217   6.221 -0.1394 -0.1328 -0.1103
  461MOL0     C60740   1.977   7.254   6.282  0.4113  0.4135 -0.2853
  461MOL0     C60741   1.870   7.140   6.284 -0.3311  0.5988 -0.1560
  461MOL0     C60742   1.745   7.183   6.341 -0.0336 -0.2012 -1.0755
  461MOL0     C60743   1.631   7.086   6.328  0.1502  0.3858  0.7564
  461MOL0     O60744   1.531   7.161   6.393  0.6470 -0.0483 -0.4733
  461MOL0     C60745   1.419   7.103   6.415 -0.0072 -0.0525  0.0872
  461MOL0     C60746   1.348   7.034   6.314 -0.3168  0.9436  0.1252
  461MOL0     C60747   1.213   6.998   6.326 -1.2519 -0.0319 -0.1500
  461MOL0     C60748   1.150   6.999   6.443 -0.1425 -0.2832 -0.0748
  461MOL0     C60749   1.015   6.958   6.456 -0.4259  0.5779  0.4382
  461MOL0     O60750   0.979   6.856   6.368  0.2050 -0.0766  0.9592
  461MOL0     C60751   0.845   6.816   6.349 -0.1100 -0.8033  1.1093
  461MOL0     C60752   0.752   6.900   6.283 -0.3176  0.2662  0.0360
  461MOL0     C60753   0.624   6.860   6.269  0.7403  0.2728 -0.3527
  461MOL0     C60754   0.580   6.730   6.303 -0.3091 -0.2736 -0.8142
  461MOL0     O60755   0.451   6.701   6.262 -0.8132 -0.1816 -0.1342
  461MOL0     C60756   0.380   6.626   6.357  0.2041  0.2283  0.3797
  461MOL0     C60757   0.255   6.558   6.288  0.6738 -0.7096  0.2540
  461MOL0     C60758   0.149   6.668   6.243  0.3061 -0.5084  0.2862
  461MOL0     C60759   0.024   6.592   6.211  0.2275  0.5003  0.4024
  461MOL0     C60760  -0.091   6.663   6.132 -0.4812 -0.1190 -0.0949
  461MOL0     C60761  -0.206   6.566   6.134  0.3603  0.0959 -0.4872
  461MOL0     C60762  -0.319   6.615   6.036 -0.2764 -0.3797 -0.6258
  461MOL0     C60763  -0.448   6.535   6.063  0.5564 -0.2093 -0.6472
  461MOL0    Cl60764  -0.580   6.602   5.971 -0.1691  0.1476 -0.1579
  461MOL0     C60765   0.664   6.644   6.373  0.7339 -0.7488 -0.4140
  461MOL0     C60766   0.795   6.691   6.392 -1.6004  0.1504 -0.1778
  461MOL0     O60767   0.942   7.009   6.531 -0.3029 -0.2419 -0.7863
  461MOL0     C60768   1.220   7.057   6.556 -0.1957  1.1851  0.1747
  461MOL0     C60769   1.351   7.117   6.534  0.3987 -1.1038 -0.2704
  461MOL0     N60770   2.238   7.215   6.280  0.0198 -0.0808  0.1148
  461MOL0     N60771   2.329   7.186   6.196  0.1703 -0.2226  0.8778
  461MOL0     C60772   1.408   6.677   6.135  0.6181  0.1678  1.0467
  461MOL0     C60773   1.268   6.663   6.106 -0.0475  0.2875  0.4791
  461MOL0     C60774   0.900   6.606   5.864 -0.6285 -0.2527 -0.2581
  461MOL0     C60775   0.859   6.526   5.757 -0.3805  0.5235 -1.0040
  461MOL0     C60776   0.723   6.528   5.721 -0.0839 -0.5420 -0.3569
  461MOL0     C60777   0.622   6.578   5.805  0.2434 -0.2629  0.2157
  461MOL0     O60778   0.494   6.546   5.776 -0.1631  0.5156  0.1057
  461MOL0     C60779   0.397   6.555   5.884 -0.1624  0.8126  0.7865
  461MOL0     C60780   0.262   6.491   5.844  0.3753  0.5773  0.5422
  461MOL0     C60781   0.191   6.572   5.738  0.7409  0.1197 -0.1040
  461MOL0     C60782   0.051   6.515   5.724  0.2268  0.0492  0.6298
  461MOL0     C60783  -0.020   6.605   5.635  0.6479 -0.0871  0.3999
  461MOL0     C60784  -0.083   6.665   5.550 -0.0962 -0.1864 -0.0399
  461MOL0     C60785   0.663   6.653   5.920  0.8667 -0.9696 -0.6064
  461MOL0     C60786   0.801   6.657   5.947 -0.5127  0.0388 -0.0640
  461MOL0     H60787   1.230   6.858   5.828  0.0964  1.4859 -0.0552
  461MOL0     H60788   1.460   6.900   5.885  2.8563 -2.5251 -1.2893
  461MOL0     H60789   1.732   6.702   5.905 -0.1054  1.6000  0.4070
  461MOL0     H60790   1.654   6.565   6.007  0.3653 -0.9049  0.0120
  461MOL0     H60791   1.864   6.543   6.086  0.1647 -0.2121 -6.5158
  461MOL0     H60792   1.778   6.638   6.201  1.8668  0.0317  0.8378
  461MOL0     H60793   1.967   6.770   6.186  0.3204 -2.1548  0.7404
  461MOL0     H60794   1.882   6.850   6.060 -0.1699 -0.5127 -1.0306
  461MOL0     H60795   2.074   6.616   5.995 -0.6705 -0.6457 -0.9065
  461MOL0     H60796   1.968   6.701   5.889 -1.1627 -0.2095  0.3693
  461MOL0     H60797   2.104   6.928   5.918 -0.9964 -0.1925  2.2862
  461MOL0     H60798   2.196   6.803   5.840  1.8965  3.8710  0.8696
  461MOL0     H60799   2.278   6.733   6.063  1.9011 -0.3138  0.5977
  461MOL0     H60800   2.206   6.877   6.133  1.8143 -0.5476  1.2084
  461MOL0     H60801   2.428   6.910   6.079  0.1880  0.7240 -0.8482
  461MOL0     H60802   2.401   6.882   5.908  1.7276  1.4098  0.3661
  461MOL0     H60803   2.291   7.107   5.882 -0.1105  1.7647  0.3675
  461MOL0     H60804   2.446   7.121   5.970  1.4317 -1.1559 -0.6015
  461MOL0     H60805   2.041   7.145   6.043 -2.0863 -1.7423  4.2500
  461MOL0     H60806   1.944   7.347   6.236 -1.4612  0.8663  1.8102
  461MOL0     H60807   1.993   7.277   6.388  0.2715  1.2916 -0.4520
  461MOL0     H60808   1.908   7.065   6.354  2.1153  1.6166 -0.3092
  461MOL0     H60809   1.852   7.099   6.184  1.1447 -2.5260  0.7485
  461MOL0     H60810   1.754   7.202   6.449  1.0102  0.2919 -1.2433
  461MOL0     H60811   1.721   7.280   6.297 -1.1331  1.8094  3.3102
  461MOL0     H60812   1.640   6.988   6.377 -1.2732  0.5658  1.4213
  461MOL0     H60813   1.591   7.070   6.228 -1.3049 -1.1103  1.5196
  461MOL0     H60814   1.379   7.044   6.210 -1.1448  3.6396  0.0634
  461MOL0     H60815   1.164   6.958   6.238 -2.2492  1.9844 -0.5706
  461MOL0     H60816   0.779   6.995   6.238 -3.2831 -0.0864 -2.8696
  461MOL0     H60817   0.554   6.931   6.226 -0.8975 -1.0290  0.0363
  461MOL0     H60818   0.355   6.704   6.429  4.7772  2.4368 -0.0749
  461MOL0     H60819   0.445   6.548   6.395  0.4613  0.0036 -0.5065
  461MOL0     H60820   0.204   6.500   6.365 -0.7155 -0.8262 -0.7088
  461MOL0     H60821   0.294   6.502   6.202  0.8448 -1.1570  0.6185
  461MOL0     H60822   0.176   6.717   6.149 -0.0320 -1.5190 -0.3525
  461MOL0     H60823   0.128   6.739   6.324  3.7999 -1.5398  2.3138
  461MOL0     H60824   0.046   6.510   6.141  0.6266  1.8941 -1.1662
  461MOL0     H60825  -0.019   6.554   6.304  0.2803 -1.3368 -0.2758
  461MOL0     H60826  -0.059   6.687   6.030 -0.5064 -0.5663 -0.2096
  461MOL0     H60827  -0.104   6.752   6.194  3.6779 -1.3509  3.0303
  461MOL0     H60828  -0.257   6.555   6.230  1.8205 -0.9751  0.1936
  461MOL0     H60829  -0.169   6.467   6.106  0.8570 -0.3112  1.4800
  461MOL0     H60830  -0.349   6.715   6.070  0.8354  0.2604 -1.4531
  461MOL0     H60831  -0.280   6.612   5.934  0.6564 -1.6123 -0.2623
  461MOL0     H60832  -0.480   6.535   6.168 -0.6797 -0.4581 -1.0115
  461MOL0     H60833  -0.438   6.427   6.048 -1.0748 -0.3515 -0.9539
  461MOL0     H60834   0.639   6.541   6.396 -1.8321 -0.1471 -0.2165
  461MOL0     H60835   0.853   6.625   6.455 -2.8983  0.3187  1.2601
  461MOL0     H60836   1.177   7.063   6.656 -0.7691  0.8550 -0.0484
  461MOL0     H60837   1.401   7.174   6.612  0.2881 -0.6629 -0.5125
  461MOL0     H60838   1.455   6.634   6.223  1.7147 -0.1030  0.3492
  461MOL0     H60839   1.212   6.591   6.163 -1.0851  2.8058  2.8685
  461MOL0     H60840   0.931   6.479   5.690 -0.9259 -2.8915  0.5965
  461MOL0     H60841   0.690   6.475   5.632 -1.8114  2.0511 -1.3920
  461MOL0     H60842   0.388   6.659   5.916 -0.2694  0.3855  2.1744
  461MOL0     H60843   0.441   6.486   5.956  0.0541  1.5655  1.3865
  461MOL0     H60844   0.264   6.387   5.810 -1.2051  1.2400 -1.7976
  461MOL0     H60845   0.196   6.494   5.931  0.2862 -2.6643  0.7035
  461MOL0     H60846   0.240   6.577   5.640 -1.4316  2.0430 -1.1697
  461MOL0     H60847   0.190   6.676   5.770  1.4506  0.2578 -0.5028
  461MOL0     H60848   0.058   6.415   5.680 -0.2200  0.7139 -1.0426
  461MOL0     H60849   0.000   6.508   5.820  1.2975  0.4079  1.2407
  461MOL0     H60850  -0.140   6.710   5.472  0.2890 -0.7654 -0.6701
  461MOL0     H60851   0.592   6.694   5.992 -0.0666 -0.4505 -1.7860
  461MOL0     H60852   0.833   6.713   6.034  0.7984 -1.1172  0.2434
  462MOL0     O60853   8.629   3.877   1.558  0.5141  0.1399 -0.0505
  462MOL0     C60854   8.713   3.930   1.491 -0.3257 -0.1066  0.5371
  462MOL0     O60855   8.690   4.026   1.398 -0.2666  0.0899  0.2318
  462MOL0     C60856   8.575   4.090   1.403 -0.1114  0.3775 -0.4185
  462MOL0     C60857   8.510   4.142   1.506  0.4567 -0.7461 -0.3577
  462MOL0     C60858   8.398   4.230   1.493  0.7485  0.0059 -0.6364
  462MOL0     C60859   8.339   4.264   1.372  0.3178  0.3752 -0.0672
  462MOL0     O60860   8.231   4.349   1.377  0.0106 -0.0585  0.2889
  462MOL0     C60861   8.135   4.348   1.273  0.2225 -0.3850 -0.0629
  462MOL0     C60862   8.002   4.396   1.327 -0.2501 -0.5462 -0.6421
  462MOL0     C60863   7.915   4.453   1.211 -0.3167 -0.2403 -0.1713
  462MOL0     C60864   7.767   4.499   1.243  0.0971  0.4374 -0.5358
  462MOL0     C60865   7.741   4.591   1.368  0.1297  0.3743  0.2680
  462MOL0     C60866   7.798   4.725   1.353  0.0189 -0.0856 -0.4044
  462MOL0     C60867   7.794   4.820   1.474 -0.6436 -0.5508 -0.1047
  462MOL0     C60868   7.829   4.971   1.440 -0.3140  0.4951 -0.4463
  462MOL0     N60869   7.810   5.059   1.551  0.3100  0.3164 -0.2999
  462MOL0     C60870   7.913   5.105   1.626 -0.2803 -0.2511 -0.2141
  462MOL0     C60871   7.863   5.191   1.715  0.6613 -0.5851 -0.2870
  462MOL0     C60872   7.946   5.281   1.801  0.0674 -0.0001 -0.2016
  462MOL0     C60873   8.035   5.371   1.705  0.3820  0.7580  0.0662
  462MOL0     C60874   8.036   5.521   1.734 -0.9169  0.2114  0.3815
  462MOL0     C60875   7.928   5.595   1.668 -0.0241 -0.2152 -0.1896
  462MOL0     O60876   7.827   5.584   1.776  0.0235 -0.0984  0.5214
  462MOL0     C60877   7.703   5.623   1.736  0.0451 -0.9195  1.1345
  462MOL0     C60878   7.600   5.555   1.792 -0.8610 -0.2465 -0.4865
  462MOL0     C60879   7.468   5.595   1.770  0.2271  0.2217  0.4145
  462MOL0     C60880   7.437   5.691   1.686 -0.4966  0.3084 -0.5294
  462MOL0     C60881   7.300   5.736   1.642 -0.6206  0.3167  0.0504
  462MOL0     O60882   7.298   5.870   1.607 -0.7397 -0.5683 -0.5068
  462MOL0     C60883   7.201   5.922   1.528  0.1232 -0.3047 -0.4588
  462MOL0     C60884   7.121   6.032   1.581  0.8950 -0.2717 -0.3964
  462MOL0     C60885   7.033   6.099   1.488  0.3313  0.0998  0.2482
  462MOL0     C60886   7.029   6.058   1.354  0.3426  0.1343  0.2892
  462MOL0     O60887   6.940   6.108   1.257 -0.9684 -0.4515 -0.1458
  462MOL0     C60888   6.848   6.205   1.302 -0.2546  0.2994 -0.0326
  462MOL0     C60889   6.741   6.243   1.193 -0.0165  0.4002 -0.3641
  462MOL0     C60890   6.659   6.369   1.236 -0.3759 -0.9186 -0.3842
  462MOL0     C60891   6.551   6.409   1.128  0.7153 -1.5843 -0.1938
  462MOL0     C60892   6.467   6.287   1.092 -0.2647  0.0750  0.4043
  462MOL0     C60893   6.404   6.223   1.218 -0.7082  0.3846  0.2635
  462MOL0     C60894   6.333   6.106   1.184 -0.6116  0.6234 -0.4431
  462MOL0     C60895   6.206   6.133   1.100 -0.0822 -0.1895 -0.2134
  462MOL0    Cl60896   6.231   6.106   0.928  0.0468 -0.1439  0.3069
  462MOL0     C60897   7.108   5.954   1.314 -0.4572 -0.1813 -0.5412
  462MOL0     C60898   7.206   5.884   1.395  1.0653 -0.4326  1.0636
  462MOL0     O60899   7.210   5.655   1.637  0.3222  0.0502 -0.2906
  462MOL0     C60900   7.545   5.773   1.634 -0.2092  0.7839  0.5612
  462MOL0     C60901   7.678   5.734   1.651 -0.7641  0.2044  1.1669
  462MOL0     N60902   7.724   5.190   1.691  0.4541  0.2828 -0.1415
  462MOL0     N60903   7.693   5.107   1.603 -0.7163  0.2524  1.1762
  462MOL0     C60904   8.407   4.206   1.260 -0.3751  0.1825  0.3384
  462MOL0     C60905   8.525   4.129   1.277 -0.7635  0.1984 -0.8299
  462MOL0     C60906   8.849   3.870   1.520 -0.3500  0.3726  0.7940
  462MOL0     C60907   8.962   3.937   1.466 -0.7603 -0.1155  0.3612
  462MOL0     C60908   9.093   3.883   1.498  1.5118 -0.3595  1.4619
  462MOL0     C60909   9.106   3.782   1.579  0.7085 -0.6137  1.0670
  462MOL0     O60910   9.223   3.733   1.625 -0.5284  0.8012 -0.1183
  462MOL0     C60911   9.351   3.787   1.593 -0.3885 -0.3268  0.4021
  462MOL0     C60912   9.464   3.687   1.637  0.7728  0.2614  0.2709
  462MOL0     C60913   9.450   3.568   1.547  0.1195  0.1303  0.1028
  462MOL0     C60914   9.574   3.467   1.562  0.1095 -1.1222  0.3258
  462MOL0     C60915   9.695   3.527   1.481  0.8940  0.7626  0.3381
  462MOL0     C60916   9.794   3.564   1.422  0.1537 -0.5153 -0.8689
  462MOL0     C60917   9.003   3.716   1.630  0.4930  1.4855 -0.2330
  462MOL0     C60918   8.870   3.754   1.593  0.4138 -0.5512  0.2428
  462MOL0     H60919   8.564   4.128   1.599  2.1991  2.9400 -0.6527
  462MOL0     H60920   8.361   4.268   1.587  0.7797 -1.2112 -0.1100
  462MOL0     H60921   8.132   4.246   1.232  1.9332 -0.8162  0.8057
  462MOL0     H60922   8.156   4.421   1.194  1.2211  0.9501  1.4003
  462MOL0     H60923   8.016   4.475   1.402 -1.4342  2.2794 -3.1827
  462MOL0     H60924   7.955   4.322   1.392 -0.2420 -0.6174 -0.7172
  462MOL0     H60925   7.913   4.377   1.132 -2.6173  0.0300 -0.4244
  462MOL0     H60926   7.964   4.543   1.172  0.4276 -1.0820 -1.2709
  462MOL0     H60927   7.724   4.546   1.154  1.5527  2.5436 -0.1999
  462MOL0     H60928   7.714   4.404   1.259 -0.1534  0.1732 -2.5966
  462MOL0     H60929   7.783   4.552   1.462 -0.5200  2.6481  1.6015
  462MOL0     H60930   7.633   4.607   1.373 -1.1823 -4.3044 -4.1655
  462MOL0     H60931   7.753   4.766   1.263 -0.8446 -1.0386 -0.4335
  462MOL0     H60932   7.904   4.720   1.327 -0.0041  3.5631 -1.6166
  462MOL0     H60933   7.695   4.814   1.520  0.1084 -0.1574  1.6817
  462MOL0     H60934   7.861   4.774   1.548 -1.9811 -3.2541 -0.4439
  462MOL0     H60935   7.766   5.006   1.359 -0.1445  0.0387 -0.7814
  462MOL0     H60936   7.932   4.969   1.405  0.0348  0.8906  0.5355
  462MOL0     H60937   8.016   5.071   1.620 -0.4587 -0.5489 -3.3503
  462MOL0     H60938   8.011   5.227   1.870 -1.5494  0.4792  1.7991
  462MOL0     H60939   7.878   5.353   1.849 -0.8070 -0.5462 -0.5826
  462MOL0     H60940   8.009   5.359   1.599  3.2345 -2.4499 -0.4302
  462MOL0     H60941   8.135   5.328   1.715  0.5015  0.7898 -0.8566
  462MOL0     H60942   8.049   5.538   1.841 -2.0845 -1.1620  0.7747
  462MOL0     H60943   8.128   5.553   1.684  0.0481 -2.4855  0.2105
  462MOL0     H60944   7.892   5.546   1.578  0.1718  0.7599 -0.8084
  462MOL0     H60945   7.945   5.701   1.648  2.2537 -0.2647  1.0355
  462MOL0     H60946   7.623   5.463   1.844  2.2207  2.4877  3.6112
  462MOL0     H60947   7.384   5.543   1.816 -0.8053  0.7110 -0.8712
  462MOL0     H60948   7.137   6.060   1.685 -2.2493 -0.4091  0.2483
  462MOL0     H60949   6.970   6.176   1.532  0.7373  0.5902 -0.0165
  462MOL0     H60950   6.910   6.292   1.328  1.3900  0.2905 -3.3281
  462MOL0     H60951   6.794   6.176   1.392  0.0365 -0.5111 -0.1093
  462MOL0     H60952   6.676   6.156   1.200 -0.0659  0.3087 -1.7006
  462MOL0     H60953   6.784   6.241   1.093  2.3392 -1.4868  0.5766
  462MOL0     H60954   6.731   6.449   1.254  1.7157 -3.3592  3.5351
  462MOL0     H60955   6.612   6.343   1.331  2.0686 -0.7610  0.9200
  462MOL0     H60956   6.483   6.480   1.177  0.8622 -1.5781  0.0056
  462MOL0     H60957   6.598   6.450   1.038  0.3802  1.2539  0.8179
  462MOL0     H60958   6.531   6.209   1.049 -1.8971 -0.9598 -0.2248
  462MOL0     H60959   6.393   6.310   1.014  1.5376 -0.5264 -1.5957
  462MOL0     H60960   6.336   6.290   1.272 -1.2425 -2.1853  3.0682
  462MOL0     H60961   6.494   6.201   1.277 -1.4821 -1.5269  0.8068
  462MOL0     H60962   6.394   6.047   1.115 -0.3625  0.0254  0.2684
  462MOL0     H60963   6.308   6.042   1.269  0.3662  0.2631 -0.4125
  462MOL0     H60964   6.162   6.230   1.124  1.4379  0.8393 -1.4067
  462MOL0     H60965   6.138   6.056   1.137 -3.7105  2.4434 -0.8379
  462MOL0     H60966   7.108   5.922   1.210  0.4665 -1.7370 -0.1101
  462MOL0     H60967   7.275   5.815   1.348 -1.8839 -1.0114 -2.8603
  462MOL0     H60968   7.525   5.853   1.564  0.1526  1.5807  1.3475
  462MOL0     H60969   7.752   5.796   1.601  0.2091 -1.1570  0.8549
  462MOL0     H60970   8.374   4.213   1.157  2.3258 -2.5464 -0.8876
  462MOL0     H60971   8.578   4.093   1.190 -0.5243  1.0652 -1.0510
  462MOL0     H60972   8.959   4.016   1.391 -2.4809 -3.8980 -4.0812
  462MOL0     H60973   9.179   3.935   1.457 -1.9667  3.6016 -1.6645
  462MOL0     H60974   9.375   3.882   1.642 -1.4590 -0.2301  0.7601
  462MOL0     H60975   9.369   3.794   1.485  0.2362 -0.6256  0.4793
  462MOL0     H60976   9.563   3.734   1.641  1.2696 -0.6656 -0.4801
  462MOL0     H60977   9.434   3.661   1.738 -1.2607  0.7146 -0.1791
  462MOL0     H60978   9.450   3.601   1.443 -0.7638  1.0678  0.3850
  462MOL0     H60979   9.359   3.509   1.556  0.5297 -0.2087  3.1122
  462MOL0     H60980   9.599   3.454   1.667 -2.6336  0.2334  1.2488
  462MOL0     H60981   9.568   3.368   1.516  2.5495 -1.6610  1.0506
  462MOL0     H60982   9.892   3.586   1.383  1.0579  1.4270  2.2077
  462MOL0     H60983   9.007   3.621   1.684 -1.7573  1.0052 -0.7761
  462MOL0     H60984   8.788   3.708   1.647 -0.5444 -1.8826 -2.1823
  463MOL0     O60985   1.048   5.250   2.768  0.3788 -0.1843 -0.1426
  463MOL0     C60986   1.119   5.225   2.667 -0.0583 -0.5128 -1.0904
  463MOL0     O60987   1.064   5.199   2.549 -0.5375  0.5026 -0.6614
  463MOL0     C60988   0.938   5.154   2.534  0.3613  0.2109 -0.3012
  463MOL0     C60989   0.853   5.180   2.423  0.5225  0.2340 -0.2124
  463MOL0     C60990   0.720   5.146   2.422  0.1599 -0.6164  0.7345
  463MOL0     C60991   0.658   5.062   2.515 -0.3331  0.7673 -0.0883
  463MOL0     O60992   0.525   5.041   2.504  0.1093  0.0633 -0.6076
  463MOL0     C60993   0.442   5.056   2.618  0.0057  0.1192  0.1109
  463MOL0     C60994   0.369   4.922   2.654  0.0832 -0.3163 -0.0200
  463MOL0     C60995   0.254   4.950   2.748  0.5539  0.0073  0.2355
  463MOL0     C60996   0.293   4.980   2.891  0.0849  0.1119 -0.3408
  463MOL0     C60997   0.163   5.008   2.972 -0.4667  0.3143 -0.2195
  463MOL0     C60998   0.198   5.087   3.091  0.5249  0.7169  0.7962
  463MOL0     C60999   0.072   5.136   3.156  0.1304 -1.1362  0.0971
  463MOL0     C61000  -0.008   5.236   3.073 -0.7200 -0.2524  0.1470
  463MOL0     N61001  -0.110   5.313   3.151 -0.3186 -0.4291  0.5725
  463MOL0     C61002  -0.092   5.445   3.189  0.9412 -0.0910 -1.2775
  463MOL0     C61003  -0.221   5.485   3.218 -0.1442 -0.4284 -0.2499
  463MOL0     C61004  -0.270   5.614   3.277  0.8330  0.3192 -0.9461
  463MOL0     C61005  -0.208   5.632   3.411  0.1943  0.0009 -0.3441
  463MOL0     C61006  -0.214   5.512   3.512 -0.5061 -0.6365  0.5864
  463MOL0     C61007  -0.128   5.546   3.633  0.9383  0.8654 -0.4100
  463MOL0     O61008  -0.097   5.423   3.707  0.5092  0.3053  0.4722
  463MOL0     C61009   0.007   5.337   3.676 -0.3577 -1.1076 -0.2821
  463MOL0     C61010   0.047   5.241   3.768 -1.0077  0.3155  0.1973
  463MOL0     C61011   0.156   5.150   3.745  0.0015 -0.2377  0.6185
  463MOL0     C61012   0.229   5.165   3.619  0.0339 -0.6659  0.2193
  463MOL0     C61013   0.333   5.067   3.574  0.0792  0.2811 -0.1671
  463MOL0     O61014   0.379   5.065   3.442  0.1778 -0.2675 -0.8901
  463MOL0     C61015   0.511   5.014   3.405 -0.0130 -1.2128  0.2919
  463MOL0     C61016   0.534   5.010   3.270 -1.1817 -0.5765  0.9198
  463MOL0     C61017   0.657   4.969   3.214 -0.4786  0.8077  0.0849
  463MOL0     C61018   0.767   4.929   3.296 -0.1818  1.3577  0.1246
  463MOL0     O61019   0.889   4.876   3.251  0.7731  0.6489  0.4769
  463MOL0     C61020   0.927   4.926   3.120 -0.2787  0.1203 -0.6985
  463MOL0     C61021   1.077   4.946   3.131  0.1796 -0.5360  0.3589
  463MOL0     C61022   1.155   4.953   2.999  0.1653 -0.0144  0.0441
  463MOL0     C61023   1.302   4.932   3.020 -0.2112 -0.0934 -0.4739
  463MOL0     C61024   1.399   4.954   2.896  0.4154 -0.0047 -0.5523
  463MOL0     C61025   1.531   5.026   2.923 -0.1148 -0.4368 -0.2754
  463MOL0     C61026   1.622   4.937   3.002  0.3084 -0.1154  0.1238
  463MOL0     C61027   1.747   5.006   3.032 -0.2402 -0.1064  0.3459
  463MOL0    Cl61028   1.849   5.002   2.882  0.2354  0.0479  0.2191
  463MOL0     C61029   0.727   4.931   3.437 -1.1831  0.8526 -1.0012
  463MOL0     C61030   0.610   4.973   3.492  0.4563 -0.1636  0.2203
  463MOL0     O61031   0.365   4.983   3.659  0.1566 -0.2986 -0.1629
  463MOL0     C61032   0.191   5.256   3.526 -0.0205 -0.2874  0.5041
  463MOL0     C61033   0.081   5.344   3.556 -0.6207 -0.6045 -0.3883
  463MOL0     N61034  -0.309   5.383   3.191 -0.8509 -0.8826  0.5488
  463MOL0     N61035  -0.238   5.280   3.150  0.6182 -0.1379 -0.3103
  463MOL0     C61036   0.746   5.013   2.612  0.3390  0.2889  0.4335
  463MOL0     C61037   0.881   5.061   2.623  0.4742  0.3556  0.9591
  463MOL0     C61038   1.259   5.254   2.658 -0.6357 -0.5409  0.1892
  463MOL0     C61039   1.338   5.282   2.770  0.0846  0.7079  0.3344
  463MOL0     C61040   1.475   5.308   2.765 -1.0397 -0.1013  0.4343
  463MOL0     C61041   1.544   5.294   2.643  0.6827  0.4504 -0.5759
  463MOL0     O61042   1.679   5.323   2.622  0.0061 -0.8251 -1.1899
  463MOL0     C61043   1.761   5.348   2.741 -0.2746 -0.1390  0.8387
  463MOL0     C61044   1.774   5.495   2.766 -0.4845 -0.8002  1.3570
  463MOL0     C61045   1.858   5.560   2.643 -0.1562 -0.2055  0.0818
  463MOL0     C61046   1.960   5.673   2.674 -0.0812 -1.0308  0.2750
  463MOL0     C61047   1.904   5.806   2.713  1.0541  0.4611  0.7149
  463MOL0     C61048   1.860   5.913   2.752  0.0272 -1.0082 -0.0863
  463MOL0     C61049   1.474   5.257   2.531 -1.0818  0.2623 -0.1944
  463MOL0     C61050   1.333   5.235   2.537  0.6268  0.4178  0.3308
  463MOL0     H61051   0.894   5.251   2.351 -0.5491  3.5984  2.2602
  463MOL0     H61052   0.664   5.189   2.339 -1.7172 -2.0816  1.1717
  463MOL0     H61053   0.368   5.128   2.583 -0.1690 -0.1198 -0.0186
  463MOL0     H61054   0.488   5.116   2.697  3.8183  2.1702 -3.3242
  463MOL0     H61055   0.434   4.850   2.704  0.5504  0.9235  1.2179
  463MOL0     H61056   0.322   4.868   2.571  0.1278 -0.4042  0.0114
  463MOL0     H61057   0.191   4.861   2.743 -0.3334  0.6481 -4.2410
  463MOL0     H61058   0.202   5.036   2.704  1.8846 -0.2553 -2.0117
  463MOL0     H61059   0.353   4.898   2.933 -2.8148 -2.6936 -1.2822
  463MOL0     H61060   0.360   5.066   2.879 -0.8699  1.4035  2.4736
  463MOL0     H61061   0.129   4.913   3.014  0.1960  0.7349  1.3717
  463MOL0     H61062   0.102   5.072   2.908 -2.1739  0.2591  1.2911
  463MOL0     H61063   0.272   5.167   3.078  0.4851  0.6292 -0.0522
  463MOL0     H61064   0.241   5.017   3.163 -2.7242 -1.9836  0.3646
  463MOL0     H61065   0.001   5.065   3.197 -0.6126 -0.1296  0.6017
  463MOL0     H61066   0.110   5.190   3.244 -1.8956  2.0498 -0.8094
  463MOL0     H61067  -0.064   5.189   2.991  0.7711  0.5063 -1.3599
  463MOL0     H61068   0.058   5.309   3.026 -2.2339  0.6663 -0.6336
  463MOL0     H61069  -0.003   5.503   3.210 -0.5026  0.8247  3.5186
  463MOL0     H61070  -0.379   5.623   3.283  0.4627 -3.5520  2.8297
  463MOL0     H61071  -0.230   5.702   3.226 -0.6808  2.5625  1.4520
  463MOL0     H61072  -0.254   5.715   3.466  1.8677 -0.8463  2.5910
  463MOL0     H61073  -0.105   5.667   3.396 -0.2162  1.2798 -0.3158
  463MOL0     H61074  -0.317   5.498   3.547 -1.1679 -0.2031 -1.1160
  463MOL0     H61075  -0.174   5.420   3.469  1.0126 -1.2971  3.1807
  463MOL0     H61076  -0.173   5.621   3.698 -0.9828  1.6567 -2.5329
  463MOL0     H61077  -0.030   5.589   3.610  1.6490 -0.0495  0.7946
  463MOL0     H61078  -0.005   5.260   3.861 -1.1876  0.7371  0.0132
  463MOL0     H61079   0.176   5.084   3.829  0.3301 -0.5056  0.3314
  463MOL0     H61080   0.464   5.053   3.199  0.6800  1.3106  0.1411
  463MOL0     H61081   0.664   4.962   3.106  2.6907 -1.6471  0.2798
  463MOL0     H61082   0.874   5.009   3.074  0.2560 -1.2025 -3.9732
  463MOL0     H61083   0.912   4.845   3.048  0.9519 -0.7841  0.0087
  463MOL0     H61084   1.111   4.851   3.175 -0.9782  0.0594  2.7594
  463MOL0     H61085   1.082   5.029   3.202 -1.0055  1.1137 -1.3936
  463MOL0     H61086   1.142   5.050   2.951 -0.9161 -0.2219 -0.1078
  463MOL0     H61087   1.125   4.870   2.934 -0.9963 -0.5239  1.1899
  463MOL0     H61088   1.325   5.004   3.099 -1.0699  2.1933 -2.2059
  463MOL0     H61089   1.323   4.835   3.065 -0.9940  0.1334  0.4258
  463MOL0     H61090   1.344   5.021   2.830 -1.9129 -0.3441  0.9319
  463MOL0     H61091   1.412   4.858   2.845  1.5393  0.6033 -1.4857
  463MOL0     H61092   1.505   5.119   2.974 -1.6482  0.5458 -2.6689
  463MOL0     H61093   1.575   5.067   2.831  2.0065 -1.1182  0.3709
  463MOL0     H61094   1.577   4.927   3.101 -0.0779 -1.8154 -0.1964
  463MOL0     H61095   1.636   4.837   2.961 -1.7451  0.1698 -1.4608
  463MOL0     H61096   1.799   4.955   3.114  1.9092  1.1329 -0.1654
  463MOL0     H61097   1.728   5.106   3.072 -0.2658  0.9536 -2.1687
  463MOL0     H61098   0.802   4.897   3.507 -0.7305  0.1517 -1.8128
  463MOL0     H61099   0.608   4.964   3.601 -1.2607 -0.9550  0.1429
  463MOL0     H61100   0.237   5.276   3.430 -2.5136  0.2210 -0.6686
  463MOL0     H61101   0.056   5.424   3.487  2.6271 -0.6984 -1.8713
  463MOL0     H61102   0.697   4.952   2.688 -3.2256 -0.7721 -2.4569
  463MOL0     H61103   0.938   5.033   2.711  0.8969 -0.9717  0.2849
  463MOL0     H61104   1.296   5.285   2.870 -1.8028  3.9664 -0.3980
  463MOL0     H61105   1.528   5.349   2.849 -0.2267 -0.2755  0.0135
  463MOL0     H61106   1.861   5.306   2.734 -0.4776 -0.7688  1.6306
  463MOL0     H61107   1.716   5.302   2.830 -0.3536 -3.4710 -0.7882
  463MOL0     H61108   1.681   5.548   2.790 -1.1333 -2.0537  1.6820
  463MOL0     H61109   1.840   5.486   2.853  0.3372  0.0818  0.8496
  463MOL0     H61110   1.788   5.615   2.579 -0.0400  0.0127  0.1404
  463MOL0     H61111   1.919   5.491   2.585  1.0010  0.2123  0.7597
  463MOL0     H61112   2.015   5.643   2.763  1.3008 -1.2752 -0.6296
  463MOL0     H61113   2.032   5.693   2.594 -1.9269 -0.1359 -1.2329
  463MOL0     H61114   1.821   6.010   2.776  2.9242 -0.3651  2.9226
  463MOL0     H61115   1.527   5.265   2.436 -2.9664 -0.2641 -1.3469
  463MOL0     H61116   1.283   5.200   2.447  3.0305 -0.8577 -0.5798
  464MOL0     O61117   1.553   5.465   5.825  0.0443  0.0615  0.2425
  464MOL0     C61118   1.488   5.453   5.931 -0.5240  0.0560 -0.2915
  464MOL0     O61119   1.517   5.504   6.053 -0.2202 -0.0742  0.2047
  464MOL0     C61120   1.647   5.538   6.084  0.0149  0.0328 -0.5769
  464MOL0     C61121   1.694   5.670   6.085 -0.0172 -0.0123 -0.9297
  464MOL0     C61122   1.826   5.697   6.115 -0.1892  0.6595  0.5665
  464MOL0     C61123   1.918   5.594   6.149  0.3650  0.9209  0.2865
  464MOL0     O61124   2.048   5.618   6.180  0.4654  0.0087 -0.9258
  464MOL0     C61125   2.072   5.721   6.278  0.4381  0.3876  0.4503
  464MOL0     C61126   2.173   5.673   6.384 -0.5928  0.4467 -0.1093
  464MOL0     C61127   2.319   5.659   6.339  0.2797  0.3917 -0.5621
  464MOL0     C61128   2.407   5.598   6.443 -0.6767  0.6133  0.0339
  464MOL0     C61129   2.564   5.623   6.419 -0.0721 -0.6709  0.8674
  464MOL0     C61130   2.622   5.533   6.306  1.3080 -0.6432  0.5531
  464MOL0     C61131   2.767   5.530   6.325  1.1982  0.2282  0.5713
  464MOL0     C61132   2.828   5.458   6.443  0.0048  0.7090  0.2107
  464MOL0     N61133   2.754   5.337   6.481  0.4949 -0.0709 -0.6133
  464MOL0     C61134   2.819   5.214   6.467  0.7218 -0.3240  0.3363
  464MOL0     C61135   2.735   5.127   6.521 -0.7198  0.2980 -0.1238
  464MOL0     C61136   2.737   4.972   6.523  0.3661 -0.4795  1.3515
  464MOL0     C61137   2.777   4.913   6.384 -0.3393  0.0359 -0.3069
  464MOL0     C61138   2.736   4.766   6.366 -0.3912 -0.3550 -0.7646
  464MOL0     C61139   2.771   4.727   6.220 -0.3794 -0.5554 -0.4223
  464MOL0     O61140   2.700   4.783   6.107 -0.0769  0.1489 -0.2651
  464MOL0     C61141   2.576   4.740   6.064 -0.6060 -0.3560  0.4760
  464MOL0     C61142   2.517   4.622   6.112 -0.3035 -0.3839 -0.0637
  464MOL0     C61143   2.397   4.577   6.056 -0.7388  0.4254  0.0138
  464MOL0     C61144   2.327   4.656   5.963  0.3290 -0.5381  0.3798
  464MOL0     C61145   2.195   4.602   5.914  0.9633 -0.5462 -0.2061
  464MOL0     O61146   2.134   4.497   5.988  0.8461 -0.5850  0.6150
  464MOL0     C61147   2.007   4.449   5.965 -0.1572  0.2397 -0.4571
  464MOL0     C61148   1.977   4.311   6.005  0.5331 -0.8940 -0.0560
  464MOL0     C61149   1.844   4.266   6.008  0.6837 -0.4572 -0.7130
  464MOL0     C61150   1.739   4.353   5.983 -0.0568 -0.4289 -0.2688
  464MOL0     O61151   1.614   4.304   6.009  0.0864  0.1518 -0.1158
  464MOL0     C61152   1.490   4.377   5.981 -0.0298  0.2768  0.4026
  464MOL0     C61153   1.376   4.278   5.996 -0.7505  0.0648 -0.8908
  464MOL0     C61154   1.239   4.341   6.019 -0.5422 -0.3185 -0.2680
  464MOL0     C61155   1.120   4.266   5.958  0.1731 -0.1738 -0.4311
  464MOL0     C61156   0.997   4.321   6.037 -0.2920 -0.3157 -0.3314
  464MOL0     C61157   0.856   4.299   5.972  0.4619 -0.4013 -0.3420
  464MOL0     C61158   0.748   4.304   6.081  0.1152 -0.3370  0.9391
  464MOL0     C61159   0.688   4.165   6.103 -0.6741 -0.6547 -0.1832
  464MOL0    Cl61160   0.599   4.110   5.958 -0.3906  0.2030  0.2490
  464MOL0     C61161   1.771   4.478   5.925  0.1604 -0.3537 -0.1202
  464MOL0     C61162   1.901   4.523   5.911 -0.4784  0.0536 -0.1052
  464MOL0     O61163   2.150   4.661   5.816  0.2104  0.6197 -0.2439
  464MOL0     C61164   2.389   4.767   5.909 -0.3627 -1.3425 -0.2303
  464MOL0     C61165   2.514   4.806   5.958  0.3456 -0.3432 -1.0739
  464MOL0     N61166   2.631   5.199   6.569  0.2411  0.3034 -0.3114
  464MOL0     N61167   2.636   5.330   6.540  0.3696 -0.3230  0.0692
  464MOL0     C61168   1.872   5.464   6.140 -0.7664  0.2345 -0.0156
  464MOL0     C61169   1.738   5.430   6.114 -0.0387 -0.6231 -0.2251
  464MOL0     C61170   1.363   5.374   5.932  0.7242 -0.0362 -1.4207
  464MOL0     C61171   1.286   5.362   5.820 -0.8599 -0.2903 -0.8802
  464MOL0     C61172   1.181   5.261   5.823 -0.1814 -0.7687 -0.2140
  464MOL0     C61173   1.151   5.185   5.940  0.1164 -0.2117  0.0384
  464MOL0     O61174   1.046   5.097   5.927 -0.3823 -0.3988 -0.2419
  464MOL0     C61175   0.969   5.082   6.047 -0.2870  0.3261  0.4664
  464MOL0     C61176   0.860   5.190   6.035  0.3696  0.0990 -0.6695
  464MOL0     C61177   0.781   5.187   5.901 -0.1640  0.0971  0.4044
  464MOL0     C61178   0.688   5.317   5.893  0.6908  0.3989 -0.8406
  464MOL0     C61179   0.592   5.305   5.782 -0.3643 -0.4765 -0.2395
  464MOL0     C61180   0.515   5.318   5.690 -0.8433  0.4612  0.6905
  464MOL0     C61181   1.227   5.201   6.057  0.3095 -0.6998 -0.2889
  464MOL0     C61182   1.335   5.290   6.049 -0.2428  0.2065  0.4486
  464MOL0     H61183   1.635   5.755   6.052 -0.1627  0.1477 -0.2733
  464MOL0     H61184   1.866   5.795   6.093  1.3576  0.0947  0.7563
  464MOL0     H61185   1.978   5.751   6.325 -0.5919 -1.9526 -0.0196
  464MOL0     H61186   2.107   5.816   6.237 -2.1618  1.4371  0.4448
  464MOL0     H61187   2.137   5.580   6.428 -2.5397  0.2271 -2.0016
  464MOL0     H61188   2.169   5.754   6.458 -0.2749 -1.6280  2.3185
  464MOL0     H61189   2.359   5.756   6.309  2.8255  0.4566  2.4814
  464MOL0     H61190   2.326   5.593   6.253  0.5927  1.0396 -1.0417
  464MOL0     H61191   2.385   5.631   6.545  3.1723  4.4377 -0.0984
  464MOL0     H61192   2.389   5.490   6.443  3.6468 -0.2854  0.2524
  464MOL0     H61193   2.624   5.609   6.509  1.1843 -0.0558  0.1475
  464MOL0     H61194   2.571   5.726   6.383  1.1315 -1.1646 -0.3955
  464MOL0     H61195   2.602   5.567   6.204 -1.1795  0.9399  1.4850
  464MOL0     H61196   2.584   5.431   6.322 -0.7420  0.1464  1.0742
  464MOL0     H61197   2.809   5.474   6.241  1.0015 -0.0336  0.6428
  464MOL0     H61198   2.811   5.630   6.322 -2.4315  1.9859 -0.8617
  464MOL0     H61199   2.850   5.527   6.525  1.0746 -1.0863  1.5090
  464MOL0     H61200   2.929   5.422   6.420  0.4917  0.5093  2.3928
  464MOL0     H61201   2.916   5.202   6.419 -0.2337 -1.2568 -1.4960
  464MOL0     H61202   2.634   4.951   6.552 -0.6995  0.5514 -1.4534
  464MOL0     H61203   2.809   4.930   6.594  2.6342  2.6055  1.0628
  464MOL0     H61204   2.887   4.913   6.378 -0.0946 -0.9567  2.5603
  464MOL0     H61205   2.728   4.979   6.312 -0.1954  2.0956  1.3848
  464MOL0     H61206   2.798   4.716   6.441 -1.4820 -1.1875 -0.3946
  464MOL0     H61207   2.633   4.739   6.391 -1.3464  4.5567  1.9454
  464MOL0     H61208   2.751   4.621   6.206 -3.6453 -0.1467  0.1550
  464MOL0     H61209   2.879   4.735   6.212 -0.2676 -1.0766  0.3799
  464MOL0     H61210   2.568   4.563   6.188  1.0587  0.8504  0.0293
  464MOL0     H61211   2.340   4.494   6.095 -1.5405  0.7432 -0.4508
  464MOL0     H61212   2.054   4.245   6.045 -1.9923 -3.3081  1.1888
  464MOL0     H61213   1.818   4.165   6.040 -1.1229  0.6393  1.6007
  464MOL0     H61214   1.495   4.433   5.887  0.4264  3.7902  2.3479
  464MOL0     H61215   1.474   4.462   6.048  0.6798  0.4524  0.3557
  464MOL0     H61216   1.403   4.211   6.079 -4.2687 -0.7130 -0.2306
  464MOL0     H61217   1.376   4.218   5.905  1.1859 -1.0911 -0.1889
  464MOL0     H61218   1.235   4.436   5.965  0.4144 -1.4836 -2.5817
  464MOL0     H61219   1.219   4.363   6.124 -1.6412  0.6648 -0.6645
  464MOL0     H61220   1.104   4.286   5.852  1.4545 -2.7834 -1.2081
  464MOL0     H61221   1.117   4.157   5.968  1.3257 -0.5389 -3.2301
  464MOL0     H61222   1.015   4.426   6.059  2.7902 -0.9471  0.5646
  464MOL0     H61223   0.990   4.266   6.131  0.5964 -0.3234 -0.2635
  464MOL0     H61224   0.855   4.201   5.925  0.4422 -0.9913  0.8381
  464MOL0     H61225   0.831   4.373   5.896 -2.8419 -0.1552  0.8282
  464MOL0     H61226   0.779   4.348   6.176 -0.2833 -1.6357  1.6954
  464MOL0     H61227   0.660   4.361   6.051  1.3367  1.1543  0.0594
  464MOL0     H61228   0.623   4.169   6.191  2.6639 -0.3668  2.4828
  464MOL0     H61229   0.775   4.104   6.127  1.1551  2.1659  0.9006
  464MOL0     H61230   1.691   4.548   5.903 -0.5515 -0.2521  2.4802
  464MOL0     H61231   1.925   4.624   5.882 -2.0323 -0.0572 -1.9450
  464MOL0     H61232   2.335   4.836   5.844 -0.2935 -2.7335 -1.8436
  464MOL0     H61233   2.553   4.903   5.931  0.3069 -0.2246 -0.7087
  464MOL0     H61234   1.938   5.380   6.158 -2.1768 -0.7634  0.7269
  464MOL0     H61235   1.710   5.325   6.122  1.6170 -0.9739  1.9510
  464MOL0     H61236   1.296   5.417   5.727 -2.2881  0.4262 -0.6332
  464MOL0     H61237   1.112   5.246   5.741 -0.9932  0.9400  0.0947
  464MOL0     H61238   1.012   5.092   6.148 -1.3881 -0.7845  1.0769
  464MOL0     H61239   0.932   4.979   6.051 -1.8443  0.8834  1.4174
  464MOL0     H61240   0.787   5.173   6.115 -1.4337 -0.2558 -2.3172
  464MOL0     H61241   0.921   5.279   6.054  2.0909 -0.6521 -2.4604
  464MOL0     H61242   0.715   5.101   5.914  0.8642 -0.6913  0.5630
  464MOL0     H61243   0.845   5.191   5.812 -2.9793  3.5513 -1.7151
  464MOL0     H61244   0.623   5.319   5.981  0.5438 -3.4484 -0.7095
  464MOL0     H61245   0.760   5.399   5.896  3.3088 -1.7699  2.9698
  464MOL0     H61246   0.450   5.340   5.608  0.0773 -2.6539 -1.0584
  464MOL0     H61247   1.216   5.134   6.142 -2.3231  0.1610  0.1511
  464MOL0     H61248   1.403   5.298   6.133 -0.5076 -3.2138  1.1522
  465MOL0     O61249   6.301   0.089   5.985 -0.2628 -0.5841  0.1862
  465MOL0     C61250   6.280   0.122   5.870  0.0479  0.0965 -0.1269
  465MOL0     O61251   6.158   0.122   5.806  0.1144 -0.1233 -1.1944
  465MOL0     C61252   6.039   0.058   5.839  0.2146  1.0945  0.5516
  465MOL0     C61253   5.920   0.079   5.771  0.1594  0.1287 -0.4576
  465MOL0     C61254   5.798   0.013   5.799 -0.1052 -0.3688 -0.5969
  465MOL0     C61255   5.793  -0.070   5.912  0.3303 -0.1660  0.6747
  465MOL0     O61256   5.667  -0.120   5.945 -0.0835 -0.9415  0.1443
  465MOL0     C61257   5.652  -0.208   6.060  0.1325 -0.6141  0.1243
  465MOL0     C61258   5.511  -0.264   6.077 -0.2690 -0.3936  1.1554
  465MOL0     C61259   5.461  -0.364   5.975  0.1524 -0.6780  1.2799
  465MOL0     C61260   5.336  -0.444   6.019  0.7693 -0.2225 -0.2368
  465MOL0     C61261   5.233  -0.331   6.032  0.2515  0.5060  0.1022
  465MOL0     C61262   5.089  -0.392   6.044 -1.4265 -0.2040 -0.5895
  465MOL0     C61263   5.071  -0.494   6.153 -0.6694 -0.4522  0.5658
  465MOL0     C61264   4.924  -0.518   6.173  0.3178 -0.3622  0.7980
  465MOL0     N61265   4.881  -0.598   6.288  0.7492  1.0758  0.2718
  465MOL0     C61266   4.805  -0.561   6.402 -0.1548 -0.3459 -0.0164
  465MOL0     C61267   4.770  -0.676   6.465  0.1964  0.1513  0.0785
  465MOL0     C61268   4.674  -0.681   6.579  0.8768 -0.1607  0.5722
  465MOL0     C61269   4.562  -0.774   6.557  0.1543  0.0432 -0.5899
  465MOL0     C61270   4.475  -0.773   6.687 -0.9494  0.2339 -0.2353
  465MOL0     C61271   4.339  -0.827   6.653  0.4508  0.8800  1.2425
  465MOL0     O61272   4.258  -0.822   6.771 -0.9558  0.1045 -0.3192
  465MOL0     C61273   4.127  -0.862   6.768 -0.7696 -0.9253 -0.3034
  465MOL0     C61274   4.049  -0.828   6.873  0.4880 -0.6387 -0.1308
  465MOL0     C61275   3.922  -0.893   6.897 -0.4369  0.4272  0.2061
  465MOL0     C61276   3.875  -0.981   6.803 -0.3588 -0.1295  0.4069
  465MOL0     C61277   3.745  -1.051   6.820 -0.7885  0.5500 -0.2470
  465MOL0     O61278   3.704  -1.139   6.720 -0.6792 -0.0106  0.2320
  465MOL0     C61279   3.582  -1.197   6.696 -0.2001  0.4417 -0.2898
  465MOL0     C61280   3.593  -1.316   6.622 -0.1941  0.5033  0.1334
  465MOL0     C61281   3.479  -1.383   6.576  0.5603  0.3900  0.0519
  465MOL0     C61282   3.349  -1.338   6.607  0.0615  0.2623  1.0676
  465MOL0     O61283   3.228  -1.392   6.559 -0.6951 -0.6181 -0.4474
  465MOL0     C61284   3.219  -1.506   6.473 -0.2103 -0.1867  0.0386
  465MOL0     C61285   3.079  -1.534   6.429  0.8951 -0.3790 -0.3935
  465MOL0     C61286   2.995  -1.610   6.531 -0.1077  0.1443  0.0314
  465MOL0     C61287   2.850  -1.608   6.503  0.2138  0.3670  0.4123
  465MOL0     C61288   2.778  -1.671   6.618 -0.0624 -0.1682 -0.9434
  465MOL0     C61289   2.646  -1.740   6.570  0.1790  0.4906 -0.0542
  465MOL0     C61290   2.533  -1.703   6.664 -0.1227 -0.2697  0.1332
  465MOL0     C61291   2.406  -1.758   6.625  0.9934  0.2147  0.5660
  465MOL0    Cl61292   2.330  -1.671   6.497  0.1545 -0.2479  0.0058
  465MOL0     C61293   3.340  -1.220   6.687 -0.5951  0.1472 -0.7258
  465MOL0     C61294   3.452  -1.152   6.730 -1.1059 -0.6283  0.3882
  465MOL0     O61295   3.681  -1.011   6.917 -0.8207  0.0966  0.6654
  465MOL0     C61296   3.957  -1.001   6.683 -0.1323  0.4210 -0.9924
  465MOL0     C61297   4.080  -0.943   6.671 -0.0818  0.3792 -0.0776
  465MOL0     N61298   4.807  -0.780   6.379  1.0826 -0.3042  0.6694
  465MOL0     N61299   4.875  -0.742   6.278 -0.4593  0.5258  0.1763
  465MOL0     C61300   5.909  -0.099   5.983 -0.0822  0.2643  0.6248
  465MOL0     C61301   6.031  -0.038   5.942 -0.1693 -0.4162  0.1974
  465MOL0     C61302   6.397   0.187   5.799 -0.2710 -0.2561  0.4646
  465MOL0     C61303   6.377   0.227   5.666  0.6196  0.8259  0.3877
  465MOL0     C61304   6.483   0.296   5.594 -0.2264  0.6232 -0.7264
  465MOL0     C61305   6.596   0.344   5.664 -0.5717 -0.0551  0.9683
  465MOL0     O61306   6.693   0.426   5.619  0.3496 -0.2498 -0.0433
  465MOL0     C61307   6.687   0.463   5.477  0.1256  0.3964 -0.3267
  465MOL0     C61308   6.821   0.526   5.436 -0.1537 -0.4146 -0.2489
  465MOL0     C61309   6.822   0.585   5.302  0.2185 -0.1300 -0.1677
  465MOL0     C61310   6.964   0.609   5.253  0.8523  0.7516  0.5169
  465MOL0     C61311   7.042   0.701   5.335 -0.5736  0.7079  0.5327
  465MOL0     C61312   7.087   0.798   5.386  0.1682 -0.0688 -1.3933
  465MOL0     C61313   6.612   0.293   5.784  0.5775 -0.3931  0.0791
  465MOL0     C61314   6.519   0.217   5.859  0.4301 -0.5812 -0.1765
  465MOL0     H61315   5.930   0.160   5.700  3.2241  0.0474 -0.2312
  465MOL0     H61316   5.717   0.032   5.731 -1.5084  2.8930  1.7284
  465MOL0     H61317   5.665  -0.151   6.153 -2.6662  1.8904 -0.8420
  465MOL0     H61318   5.719  -0.293   6.051 -1.5217 -1.9784  0.2000
  465MOL0     H61319   5.447  -0.175   6.083  0.1310  0.3057 -2.3625
  465MOL0     H61320   5.509  -0.311   6.175 -1.8582  0.0948  1.3850
  465MOL0     H61321   5.540  -0.439   5.970 -0.1442 -1.1055  2.4939
  465MOL0     H61322   5.436  -0.310   5.883 -0.5220  1.4619  2.6600
  465MOL0     H61323   5.313  -0.524   5.948 -1.6621  0.2372 -0.0470
  465MOL0     H61324   5.354  -0.487   6.117  1.9939 -1.3420 -0.9131
  465MOL0     H61325   5.217  -0.264   5.947 -2.7054  0.3225  0.4037
  465MOL0     H61326   5.256  -0.264   6.115  1.3551  1.3980 -0.8925
  465MOL0     H61327   5.051  -0.439   5.953 -0.2947  1.3485 -1.9176
  465MOL0     H61328   5.025  -0.304   6.057 -1.8215 -0.4129 -1.0778
  465MOL0     H61329   5.120  -0.587   6.123 -0.8219 -1.3640  2.9480
  465MOL0     H61330   5.107  -0.455   6.249 -0.1914 -2.1652  1.1225
  465MOL0     H61331   4.881  -0.561   6.083  1.3318 -0.7199  0.4650
  465MOL0     H61332   4.874  -0.422   6.186 -1.7426 -1.0605 -1.2935
  465MOL0     H61333   4.779  -0.461   6.435 -0.2306 -0.1940 -0.5263
  465MOL0     H61334   4.632  -0.580   6.591 -2.8477 -1.2590 -1.4339
  465MOL0     H61335   4.732  -0.715   6.665  0.5313 -0.1700  0.8004
  465MOL0     H61336   4.590  -0.877   6.537 -0.9340 -0.5776  0.9151
  465MOL0     H61337   4.489  -0.731   6.487 -0.0222 -1.5945 -1.4437
  465MOL0     H61338   4.515  -0.833   6.769 -1.0523  1.4188  0.6984
  465MOL0     H61339   4.470  -0.667   6.714 -2.6203  0.4843 -1.3168
  465MOL0     H61340   4.356  -0.921   6.600 -1.3834  1.8527 -1.3085
  465MOL0     H61341   4.299  -0.754   6.581  0.0326  3.3741  3.8077
  465MOL0     H61342   4.084  -0.758   6.947  1.7869 -2.0896  0.6717
  465MOL0     H61343   3.868  -0.867   6.988 -1.2624 -0.7880  0.0909
  465MOL0     H61344   3.692  -1.352   6.596  0.3298  1.4205  0.7759
  465MOL0     H61345   3.488  -1.474   6.517 -3.4308 -0.8213  0.9770
  465MOL0     H61346   3.268  -1.592   6.518  0.6923 -0.2653 -1.0623
  465MOL0     H61347   3.284  -1.483   6.388  1.4667 -0.5288  1.1855
  465MOL0     H61348   3.083  -1.596   6.339 -2.0067 -1.0136 -0.2004
  465MOL0     H61349   3.039  -1.435   6.408  1.3954  0.6430  2.8429
  465MOL0     H61350   3.010  -1.561   6.627 -0.1646 -2.2068  1.3214
  465MOL0     H61351   3.032  -1.713   6.540  0.3828  0.4964  4.2866
  465MOL0     H61352   2.806  -1.511   6.479  0.1206  0.0871 -0.6189
  465MOL0     H61353   2.832  -1.673   6.417  0.1847 -1.8990  2.0436
  465MOL0     H61354   2.760  -1.598   6.697  1.0754  0.6071 -1.3792
  465MOL0     H61355   2.840  -1.755   6.651  0.9232  0.3228 -1.5059
  465MOL0     H61356   2.660  -1.848   6.578 -0.5160  0.5323  2.8864
  465MOL0     H61357   2.622  -1.718   6.466  1.8444  0.8964 -0.3897
  465MOL0     H61358   2.563  -1.759   6.754  0.6200 -0.7219 -0.3887
  465MOL0     H61359   2.522  -1.595   6.676 -1.8851 -0.4504  0.4449
  465MOL0     H61360   2.334  -1.777   6.705 -0.8628  2.6160 -0.4332
  465MOL0     H61361   2.418  -1.860   6.587 -3.2914  0.2188 -1.2734
  465MOL0     H61362   3.241  -1.182   6.713  0.4496  1.9105  1.0026
  465MOL0     H61363   3.444  -1.054   6.777  0.9813  0.6952 -1.8235
  465MOL0     H61364   3.927  -1.059   6.596  1.6938 -3.1884  0.5589
  465MOL0     H61365   4.145  -0.962   6.586  0.3303 -1.5460  0.6221
  465MOL0     H61366   5.903  -0.156   6.075  0.7999 -0.4984  0.2169
  465MOL0     H61367   6.109  -0.070   6.010  1.0049  1.6188 -0.1070
  465MOL0     H61368   6.291   0.184   5.616  1.1174 -3.2756  2.5764
  465MOL0     H61369   6.456   0.339   5.498  2.8425  1.3413 -1.3710
  465MOL0     H61370   6.611   0.541   5.478 -0.3277 -0.0440  0.8794
  465MOL0     H61371   6.644   0.384   5.415 -0.8954  0.5706  0.1343
  465MOL0     H61372   6.831   0.607   5.508  0.0680 -1.6774  1.2000
  465MOL0     H61373   6.907   0.462   5.456 -2.2297 -3.3824 -0.0418
  465MOL0     H61374   6.771   0.682   5.301 -0.8764 -0.6683 -2.1993
  465MOL0     H61375   6.763   0.532   5.227 -1.3420  2.4845 -0.9445
  465MOL0     H61376   7.005   0.508   5.253 -2.9884 -0.9843  0.2468
  465MOL0     H61377   6.951   0.638   5.149 -1.4120  1.1113  0.8369
  465MOL0     H61378   7.105   0.903   5.403 -1.2243  0.2870 -1.9434
  465MOL0     H61379   6.703   0.326   5.834  1.3835 -2.5211  0.1081
  465MOL0     H61380   6.540   0.182   5.960 -0.6468  2.9215  1.4248
  466MOL0     O61381   3.366   8.598   4.794 -0.9472 -0.8689 -0.1615
  466MOL0     C61382   3.405   8.568   4.905 -0.0179 -0.2491 -0.2296
  466MOL0     O61383   3.338   8.592   5.015  0.2135 -0.0989  0.5708
  466MOL0     C61384   3.206   8.627   4.987 -0.1737 -0.7137  0.3456
  466MOL0     C61385   3.106   8.526   4.985 -1.0363  0.1202  0.2055
  466MOL0     C61386   2.975   8.547   4.940  0.2762 -0.5865 -0.0083
  466MOL0     C61387   2.931   8.680   4.930  0.8700 -0.6637 -0.0607
  466MOL0     O61388   2.799   8.715   4.914 -0.1472  0.0113  0.3452
  466MOL0     C61389   2.755   8.721   4.779 -0.9285 -0.2994  0.0958
  466MOL0     C61390   2.637   8.619   4.754 -0.5411 -0.6280 -0.9526
  466MOL0     C61391   2.504   8.666   4.808  0.6911 -0.4716  0.2849
  466MOL0     C61392   2.384   8.593   4.736 -0.2352 -0.1671  0.4200
  466MOL0     C61393   2.255   8.627   4.813 -0.1261 -0.0330 -0.1242
  466MOL0     C61394   2.129   8.545   4.775  0.8779  0.6469  0.1309
  466MOL0     C61395   2.016   8.602   4.853  0.8202  0.4808  0.1308
  466MOL0     C61396   1.879   8.551   4.798 -1.0561 -0.1804  0.4790
  466MOL0     N61397   1.864   8.409   4.794 -0.1112 -0.1644  0.6456
  466MOL0     C61398   1.876   8.320   4.896  0.4553  0.4686  0.7362
  466MOL0     C61399   1.862   8.196   4.838  0.8921 -0.1178 -0.1188
  466MOL0     C61400   1.860   8.064   4.915 -0.9776  0.2211 -0.1112
  466MOL0     C61401   2.003   7.998   4.949  0.1794 -0.1579 -0.5033
  466MOL0     C61402   2.098   8.117   4.988 -0.1576 -0.0747 -0.2988
  466MOL0     C61403   2.240   8.068   5.006 -1.5915  0.0689 -0.5425
  466MOL0     O61404   2.314   8.182   5.029  0.0196 -1.4849 -0.4799
  466MOL0     C61405   2.450   8.170   5.069  1.2480 -1.7860  0.0262
  466MOL0     C61406   2.512   8.296   5.085 -0.1896  0.1693 -0.8234
  466MOL0     C61407   2.650   8.300   5.111  0.3127 -0.7540  0.0304
  466MOL0     C61408   2.711   8.173   5.128 -0.7703 -1.0907 -0.1637
  466MOL0     C61409   2.858   8.175   5.162 -0.6287  0.5904 -0.5658
  466MOL0     O61410   2.940   8.289   5.185 -0.3432  0.9953 -0.4059
  466MOL0     C61411   3.077   8.272   5.207  0.9402  0.3372 -0.0936
  466MOL0     C61412   3.129   8.318   5.330 -0.4680  1.1795 -0.1907
  466MOL0     C61413   3.262   8.306   5.367  0.1000  0.3994  0.5835
  466MOL0     C61414   3.352   8.254   5.270  0.3937 -0.6449  1.2042
  466MOL0     O61415   3.491   8.243   5.291  0.3877  0.5226 -0.5277
  466MOL0     C61416   3.540   8.258   5.427 -0.2559  0.3617 -0.2317
  466MOL0     C61417   3.691   8.213   5.444  1.1065  0.5553  0.0673
  466MOL0     C61418   3.750   8.257   5.581  0.5368  0.0436 -0.7697
  466MOL0     C61419   3.895   8.211   5.586 -0.5547 -0.0090 -0.5844
  466MOL0     C61420   3.953   8.232   5.721 -0.8161 -0.6976 -0.6448
  466MOL0     C61421   4.038   8.112   5.765  0.5540  0.5415 -0.4496
  466MOL0     C61422   3.965   7.974   5.791 -0.4194 -0.7219  0.2573
  466MOL0     C61423   4.059   7.875   5.856  0.2639 -0.5620 -0.0282
  466MOL0    Cl61424   4.170   7.793   5.746  0.5382 -0.1968  0.7626
  466MOL0     C61425   3.305   8.208   5.148  0.2303  0.0203 -0.5481
  466MOL0     C61426   3.165   8.216   5.113  0.4728  0.0487 -0.2655
  466MOL0     O61427   2.904   8.064   5.182  0.4791  0.1307 -0.8864
  466MOL0     C61428   2.645   8.054   5.115 -0.1115 -0.4729 -0.2614
  466MOL0     C61429   2.515   8.052   5.090 -0.0477 -0.6762  0.1043
  466MOL0     N61430   1.839   8.210   4.700 -1.0688  0.6956 -0.9005
  466MOL0     N61431   1.842   8.335   4.677 -0.6243  0.2917  0.3523
  466MOL0     C61432   3.021   8.786   4.953  0.8361  1.0245  1.3682
  466MOL0     C61433   3.157   8.760   4.978 -1.3006  0.2361  1.2384
  466MOL0     C61434   3.540   8.504   4.917  0.0105 -0.3005 -0.4080
  466MOL0     C61435   3.589   8.468   5.050 -0.2318 -0.2882  0.5144
  466MOL0     C61436   3.709   8.391   5.064  0.0153 -0.1442  0.0567
  466MOL0     C61437   3.790   8.372   4.952 -0.2881 -0.1309 -0.0268
  466MOL0     O61438   3.914   8.309   4.970 -0.3611  0.3750  0.2702
  466MOL0     C61439   3.952   8.206   4.879 -0.4273 -0.6944 -0.2957
  466MOL0     C61440   3.880   8.074   4.902 -0.9711  0.3157  0.4234
  466MOL0     C61441   3.936   7.962   4.813  0.4315  0.1561 -0.5040
  466MOL0     C61442   3.876   7.825   4.856 -0.1269  1.0068 -0.7037
  466MOL0     C61443   3.846   7.750   4.734  0.3263 -0.4305  0.4095
  466MOL0     C61444   3.811   7.684   4.643  0.2223 -0.2540  1.3850
  466MOL0     C61445   3.750   8.423   4.828  0.9627 -0.1147  0.2099
  466MOL0     C61446   3.628   8.480   4.808  0.3197 -0.4565  0.6096
  466MOL0     H61447   3.130   8.423   5.009 -1.0447  0.1117  0.1792
  466MOL0     H61448   2.915   8.457   4.942 -0.3832 -0.1894 -1.1245
  466MOL0     H61449   2.835   8.697   4.709 -3.1029  1.8993 -3.4807
  466MOL0     H61450   2.727   8.824   4.756  4.7271  2.1354  2.2843
  466MOL0     H61451   2.660   8.521   4.796 -0.9628 -1.4996 -2.6580
  466MOL0     H61452   2.641   8.596   4.647  2.1139  0.2456 -1.1235
  466MOL0     H61453   2.501   8.772   4.783 -0.6725 -0.1818  1.5564
  466MOL0     H61454   2.502   8.641   4.914 -0.0350 -0.6348  0.2366
  466MOL0     H61455   2.369   8.638   4.638  1.7872 -0.9411 -0.2842
  466MOL0     H61456   2.400   8.485   4.728  0.1697 -0.2034  1.5536
  466MOL0     H61457   2.231   8.732   4.796  0.0205 -0.1511 -1.0982
  466MOL0     H61458   2.264   8.615   4.921 -1.2806  0.8886  0.0973
  466MOL0     H61459   2.140   8.438   4.796  1.4492  1.0908  2.3619
  466MOL0     H61460   2.113   8.557   4.668  0.5990 -0.7023 -0.0020
  466MOL0     H61461   2.039   8.563   4.953  0.7336 -0.1292 -0.0803
  466MOL0     H61462   2.019   8.711   4.852 -0.2933  0.5374  1.1471
  466MOL0     H61463   1.884   8.589   4.695 -0.0150 -0.5661  0.3662
  466MOL0     H61464   1.793   8.593   4.850 -0.9207 -0.6560  1.1063
  466MOL0     H61465   1.894   8.329   5.002  2.1315  0.2664  0.5037
  466MOL0     H61466   1.800   7.987   4.864  1.5925 -1.7583 -0.3169
  466MOL0     H61467   1.802   8.070   5.008 -0.4640 -1.0012  0.3071
  466MOL0     H61468   2.042   7.944   4.862 -4.2336 -1.7952 -1.7421
  466MOL0     H61469   1.996   7.930   5.035  1.5063  1.0127  0.5868
  466MOL0     H61470   2.096   8.191   4.908 -0.8529 -0.5492 -0.7336
  466MOL0     H61471   2.070   8.159   5.085  0.4067  0.2007 -0.2515
  466MOL0     H61472   2.290   8.029   4.917 -0.1060 -2.2348  1.1957
  466MOL0     H61473   2.243   7.989   5.081 -0.5341  1.6255  1.1383
  466MOL0     H61474   2.459   8.389   5.065 -1.4913 -0.9955 -3.2236
  466MOL0     H61475   2.699   8.394   5.135  1.1245 -1.0649 -0.3853
  466MOL0     H61476   3.054   8.361   5.395  0.5274 -1.2554  2.7993
  466MOL0     H61477   3.286   8.349   5.464  2.4164  2.4925 -0.7666
  466MOL0     H61478   3.481   8.204   5.502  0.4096  0.5777  0.4585
  466MOL0     H61479   3.537   8.366   5.448 -1.0300  0.9551 -3.0319
  466MOL0     H61480   3.760   8.232   5.362 -0.4021 -0.4381 -1.4833
  466MOL0     H61481   3.696   8.104   5.439  2.0767  0.6483 -1.5439
  466MOL0     H61482   3.699   8.193   5.654  0.9291  0.0405 -0.5010
  466MOL0     H61483   3.736   8.362   5.608 -1.2562 -0.8181  2.1393
  466MOL0     H61484   3.903   8.106   5.557 -0.1329  0.0324 -0.6230
  466MOL0     H61485   3.940   8.271   5.506 -3.2144  0.6213 -1.7309
  466MOL0     H61486   3.875   8.250   5.796  0.0536 -2.2496  0.7157
  466MOL0     H61487   4.024   8.314   5.709  3.3902 -3.4439  2.6120
  466MOL0     H61488   4.068   8.133   5.868 -1.7946 -2.5575  1.0367
  466MOL0     H61489   4.129   8.096   5.706  0.2221 -0.0314 -0.8098
  466MOL0     H61490   3.884   8.003   5.858 -0.3255  1.0326 -0.3225
  466MOL0     H61491   3.917   7.931   5.702 -0.7005  0.5202 -0.2126
  466MOL0     H61492   3.992   7.801   5.900  1.1585 -2.0962 -1.1147
  466MOL0     H61493   4.123   7.918   5.934 -1.1663  0.1377  0.7806
  466MOL0     H61494   3.386   8.175   5.085 -0.2884 -3.6945  0.4872
  466MOL0     H61495   3.129   8.179   5.017  2.8683 -0.9382 -0.8526
  466MOL0     H61496   2.694   7.957   5.122  3.6930  1.3659  1.4170
  466MOL0     H61497   2.462   7.960   5.067 -2.3027  0.9495 -1.6751
  466MOL0     H61498   2.990   8.889   4.965  0.2400  1.0693 -0.2592
  466MOL0     H61499   3.222   8.845   4.994 -0.5486  0.3681 -1.8894
  466MOL0     H61500   3.534   8.485   5.141  4.2697  1.1776  3.3087
  466MOL0     H61501   3.733   8.346   5.160 -1.0695 -2.9503 -0.8793
  466MOL0     H61502   4.060   8.192   4.893 -0.2836  1.4005  1.0846
  466MOL0     H61503   3.949   8.238   4.774 -1.4534  1.8195  0.4572
  466MOL0     H61504   3.882   8.033   5.004  1.6230 -2.3278 -0.5666
  466MOL0     H61505   3.772   8.077   4.882 -0.9279 -1.4633 -0.2502
  466MOL0     H61506   4.044   7.952   4.822  0.4314 -0.8122 -1.3496
  466MOL0     H61507   3.920   7.983   4.707  0.1005  0.5699 -0.3764
  466MOL0     H61508   3.949   7.773   4.917 -0.4156 -0.6205 -1.6952
  466MOL0     H61509   3.781   7.830   4.910  0.4223 -0.2825  0.4292
  466MOL0     H61510   3.793   7.631   4.552  0.9544  0.3428  0.8837
  466MOL0     H61511   3.822   8.416   4.746  0.3568 -2.2571 -0.1839
  466MOL0     H61512   3.611   8.522   4.710 -0.1785  2.4500  1.8250
  467MOL0     O61513   0.293   2.910   2.281  0.7552  0.2124  0.5732
  467MOL0     C61514   0.370   2.936   2.371 -0.5934  0.5155 -0.1585
  467MOL0     O61515   0.345   2.917   2.507 -0.1569 -0.3937  0.4046
  467MOL0     C61516   0.215   2.909   2.542  0.1557  0.7379  0.5130
  467MOL0     C61517   0.152   2.783   2.538  0.0669 -0.3220 -0.5752
  467MOL0     C61518   0.016   2.764   2.567  0.6324  0.2285  0.5130
  467MOL0     C61519  -0.044   2.870   2.630  0.5209 -0.4524  0.5110
  467MOL0     O61520  -0.165   2.865   2.683  0.1473  0.2648 -0.5282
  467MOL0     C61521  -0.169   2.768   2.791 -0.6865 -0.5227 -1.1346
  467MOL0     C61522  -0.261   2.656   2.759  0.2836  1.0703 -0.4480
  467MOL0     C61523  -0.399   2.713   2.747 -0.3354 -0.8119 -0.0234
  467MOL0     C61524  -0.513   2.610   2.742 -0.4119 -0.4667  0.5117
  467MOL0     C61525  -0.556   2.572   2.880 -0.7453  0.2169  0.3938
  467MOL0     C61526  -0.700   2.515   2.890  0.6386  0.0618 -1.1083
  467MOL0     C61527  -0.800   2.620   2.835  0.5395 -0.1119 -1.2079
  467MOL0     C61528  -0.923   2.607   2.928 -0.1647 -1.0498  0.5660
  467MOL0     N61529  -1.021   2.503   2.891  0.0049  0.1804  0.1810
  467MOL0     C61530  -1.150   2.518   2.842  0.1250  0.6493 -0.6605
  467MOL0     C61531  -1.187   2.397   2.788  0.1167 -0.2172 -0.4200
  467MOL0     C61532  -1.309   2.377   2.703  0.0702  0.3622  0.0189
  467MOL0     C61533  -1.439   2.358   2.780  0.3871  0.9516  0.3049
  467MOL0     C61534  -1.558   2.299   2.701  0.0326  0.5815 -0.2799
  467MOL0     C61535  -1.680   2.249   2.770 -0.4233  0.9900 -0.1635
  467MOL0     O61536  -1.727   2.314   2.893  0.1888  0.1460  0.0150
  467MOL0     C61537  -1.860   2.290   2.925 -0.0133  0.0711 -0.7756
  467MOL0     C61538  -1.937   2.183   2.887 -0.1973 -0.4279  1.4393
  467MOL0     C61539  -2.075   2.177   2.919 -0.7953  0.2086  0.5475
  467MOL0     C61540  -2.136   2.270   3.005 -0.2132 -0.4488 -0.2247
  467MOL0     C61541  -2.277   2.258   3.038 -0.7791 -0.0053 -1.1797
  467MOL0     O61542  -2.373   2.206   2.955 -0.2649 -0.5778  0.6302
  467MOL0     C61543  -2.505   2.252   2.971  1.1007 -0.1732  0.2827
  467MOL0     C61544  -2.544   2.374   2.906  0.5549  0.9120  0.0032
  467MOL0     C61545  -2.667   2.421   2.933  0.8018 -0.6423  0.0680
  467MOL0     C61546  -2.755   2.354   3.020 -0.6464 -0.0561  1.1880
  467MOL0     O61547  -2.880   2.414   3.037  0.2146  1.1964  0.3126
  467MOL0     C61548  -2.878   2.519   3.139 -0.8176 -0.1579  0.4664
  467MOL0     C61549  -3.017   2.547   3.192 -0.0463  0.0464  0.5509
  467MOL0     C61550  -3.113   2.423   3.196  0.2700  0.3085 -0.1299
  467MOL0     C61551  -3.246   2.479   3.247  0.2769  0.0588 -0.5166
  467MOL0     C61552  -3.346   2.360   3.264 -1.0297  0.3618  0.5764
  467MOL0     C61553  -3.496   2.403   3.270  0.3317  0.0745  0.5867
  467MOL0     C61554  -3.530   2.456   3.125 -0.0794  0.2345 -0.0536
  467MOL0     C61555  -3.682   2.453   3.104  0.9222 -0.7404  0.3483
  467MOL0    Cl61556  -3.761   2.594   3.186  0.0618 -0.1387  0.8175
  467MOL0     C61557  -2.710   2.234   3.079  0.5709 -0.2542 -0.2362
  467MOL0     C61558  -2.588   2.177   3.055 -0.0297 -0.3383 -0.4400
  467MOL0     O61559  -2.305   2.301   3.153  0.0832  0.4512 -0.1409
  467MOL0     C61560  -2.054   2.360   3.071 -0.5655 -0.0955 -0.2098
  467MOL0     C61561  -1.915   2.376   3.018  0.6255  0.5431 -0.6344
  467MOL0     N61562  -1.079   2.318   2.797  0.0288  0.6996  0.2775
  467MOL0     N61563  -0.984   2.374   2.866  0.7726  0.2908 -0.1161
  467MOL0     C61564   0.015   3.001   2.619  0.4494  0.0247  0.1263
  467MOL0     C61565   0.138   3.023   2.563 -0.4419  0.3485 -0.8981
  467MOL0     C61566   0.512   2.958   2.328  0.4507 -0.8026 -0.7236
  467MOL0     C61567   0.617   2.973   2.413  0.1984 -0.0333  0.0631
  467MOL0     C61568   0.753   2.988   2.376  0.8716 -0.3052  0.1224
  467MOL0     C61569   0.785   2.988   2.242  0.7169 -0.3496 -0.1284
  467MOL0     O61570   0.912   2.998   2.196  0.0087 -0.4676 -0.9690
  467MOL0     C61571   0.949   3.138   2.177  0.1184 -0.3365 -0.1591
  467MOL0     C61572   1.081   3.137   2.102  0.3113  0.3010  0.1989
  467MOL0     C61573   1.184   3.026   2.155  1.0802  0.8322 -0.0952
  467MOL0     C61574   1.331   3.056   2.124  1.4322 -0.1223  0.3490
  467MOL0     C61575   1.340   3.097   1.982 -0.1728 -0.3532  0.4474
  467MOL0     C61576   1.344   3.132   1.865  0.7969  0.3999 -0.3387
  467MOL0     C61577   0.677   2.980   2.154 -0.1429  0.4278 -0.0895
  467MOL0     C61578   0.546   2.960   2.196  0.1455  0.2843 -0.6098
  467MOL0     H61579   0.210   2.697   2.504 -1.3368 -1.2375 -0.7312
  467MOL0     H61580  -0.027   2.667   2.548 -0.4574  0.5200  1.3857
  467MOL0     H61581  -0.206   2.818   2.881  0.5313 -1.7157  0.0729
  467MOL0     H61582  -0.073   2.739   2.835 -1.2940  0.4550  0.9532
  467MOL0     H61583  -0.241   2.576   2.830  0.8512  1.0374 -0.6380
  467MOL0     H61584  -0.226   2.609   2.667  1.3433  0.5901  0.1889
  467MOL0     H61585  -0.397   2.772   2.655  2.6202 -1.5493 -0.5284
  467MOL0     H61586  -0.412   2.782   2.831  4.3897  3.8704 -2.5479
  467MOL0     H61587  -0.595   2.661   2.691 -1.2400 -2.0244  0.2384
  467MOL0     H61588  -0.482   2.532   2.672  0.9116 -1.0760  1.7269
  467MOL0     H61589  -0.548   2.663   2.940  3.4337 -1.4523  2.7613
  467MOL0     H61590  -0.484   2.499   2.917  2.7872  1.9670 -2.4551
  467MOL0     H61591  -0.725   2.466   2.984  1.0988 -0.5702 -1.3068
  467MOL0     H61592  -0.708   2.419   2.839 -1.6846 -0.6490  0.4396
  467MOL0     H61593  -0.756   2.719   2.842  1.1266 -0.3090 -2.0263
  467MOL0     H61594  -0.819   2.596   2.730  0.0493  0.5518 -1.2730
  467MOL0     H61595  -0.977   2.699   2.903  1.3182  0.1807  1.6909
  467MOL0     H61596  -0.893   2.599   3.033  0.0112  0.8609  0.6853
  467MOL0     H61597  -1.222   2.599   2.837 -1.7930 -1.0286 -2.6229
  467MOL0     H61598  -1.285   2.278   2.663  0.4004  0.5487 -0.2538
  467MOL0     H61599  -1.319   2.453   2.625 -1.7300 -1.2180 -1.3873
  467MOL0     H61600  -1.475   2.453   2.822 -0.1323 -0.5759  3.6650
  467MOL0     H61601  -1.429   2.293   2.868 -3.2883  0.9103  0.8558
  467MOL0     H61602  -1.588   2.374   2.627 -0.0792  1.6413  0.7948
  467MOL0     H61603  -1.523   2.212   2.646 -0.0572  0.2247  0.2167
  467MOL0     H61604  -1.646   2.148   2.793  0.2765 -0.0277 -4.7739
  467MOL0     H61605  -1.765   2.231   2.704 -1.6076  2.6824  0.8089
  467MOL0     H61606  -1.891   2.123   2.809  0.5882  0.9979  0.7752
  467MOL0     H61607  -2.138   2.099   2.876  0.1536  0.2416 -0.9612
  467MOL0     H61608  -2.466   2.427   2.852  1.8561  0.2289  1.1297
  467MOL0     H61609  -2.697   2.515   2.888 -0.1949  0.0248  2.0510
  467MOL0     H61610  -2.828   2.604   3.093  1.7288 -0.6010  2.1997
  467MOL0     H61611  -2.813   2.496   3.224  0.5990 -1.9842 -1.0095
  467MOL0     H61612  -3.050   2.622   3.120  4.3524 -0.0483 -1.9027
  467MOL0     H61613  -3.008   2.587   3.293 -0.3464  0.6686  0.3375
  467MOL0     H61614  -3.086   2.339   3.261  3.4902  1.5476  0.3035
  467MOL0     H61615  -3.124   2.389   3.092  1.6582  1.9075 -0.8435
  467MOL0     H61616  -3.245   2.532   3.343 -3.7745 -0.6970  0.1375
  467MOL0     H61617  -3.289   2.549   3.174 -1.6179 -0.0118  0.4557
  467MOL0     H61618  -3.329   2.321   3.365  2.6478 -0.0229 -0.0421
  467MOL0     H61619  -3.319   2.283   3.192  0.2527 -2.1904  3.5519
  467MOL0     H61620  -3.515   2.488   3.338  1.5860  0.0391  1.0029
  467MOL0     H61621  -3.564   2.322   3.298  0.8511 -0.9131 -0.9271
  467MOL0     H61622  -3.480   2.549   3.099  3.9436 -1.4687  0.9071
  467MOL0     H61623  -3.492   2.380   3.056 -1.9677 -0.7753 -0.0692
  467MOL0     H61624  -3.724   2.362   3.148 -2.1991 -0.3395 -1.4436
  467MOL0     H61625  -3.694   2.441   2.996  1.3595 -3.3863  0.5272
  467MOL0     H61626  -2.773   2.184   3.152 -0.0496  0.6570 -0.1287
  467MOL0     H61627  -2.545   2.089   3.103  0.5682 -1.1768 -2.4062
  467MOL0     H61628  -2.090   2.435   3.140 -0.8897 -2.2168  2.0471
  467MOL0     H61629  -1.855   2.459   3.054  0.6215  1.8768 -3.4264
  467MOL0     H61630  -0.049   3.084   2.646 -1.4080 -1.2133 -0.3029
  467MOL0     H61631   0.188   3.120   2.558  0.1893  0.0085 -1.3917
  467MOL0     H61632   0.585   2.989   2.516  1.7170  1.1132  0.3976
  467MOL0     H61633   0.829   2.982   2.453  0.2417 -0.6293  0.7208
  467MOL0     H61634   0.952   3.182   2.277 -0.8154 -3.0926  1.1966
  467MOL0     H61635   0.872   3.198   2.129  0.0778 -0.4927 -0.2889
  467MOL0     H61636   1.074   3.126   1.994  2.3387 -1.2268  0.1544
  467MOL0     H61637   1.134   3.230   2.126 -0.2429  0.1990  1.9355
  467MOL0     H61638   1.162   2.926   2.116  0.8777  0.6698  0.4272
  467MOL0     H61639   1.188   3.037   2.264  1.3283  1.3064 -0.1491
  467MOL0     H61640   1.373   3.142   2.178  1.7317  0.3876 -0.6641
  467MOL0     H61641   1.399   2.972   2.138  1.3545 -0.5522 -1.6288
  467MOL0     H61642   1.352   3.166   1.764 -2.9504  2.5525 -0.0959
  467MOL0     H61643   0.688   2.980   2.046 -3.0879  0.1812 -0.4625
  467MOL0     H61644   0.467   2.957   2.121  0.8624 -3.2684 -1.3700
  468MOL0     O61645  11.087   4.823   7.114  0.0012  0.5258  0.4736
  468MOL0     C61646  11.155   4.775   7.200  0.3060  0.2208  0.2547
  468MOL0     O61647  11.117   4.780   7.338 -0.5667 -0.5632  0.1472
  468MOL0     C61648  10.992   4.817   7.374 -0.1565  0.2789  0.1665
  468MOL0     C61649  10.987   4.912   7.480 -0.1622 -0.0480 -0.0750
  468MOL0     C61650  10.859   4.935   7.535  0.0828  0.2999  0.7623
  468MOL0     C61651  10.743   4.884   7.475  0.6481 -0.1859 -0.3195
  468MOL0     O61652  10.614   4.902   7.510  0.7017 -0.0107 -0.4906
  468MOL0     C61653  10.591   4.941   7.646 -0.2579  0.4891  0.8241
  468MOL0     C61654  10.441   4.959   7.676  0.8044  0.7514 -0.1796
  468MOL0     C61655  10.424   4.979   7.828  0.3969  0.1348 -0.0070
  468MOL0     C61656  10.272   5.008   7.858 -0.8625 -0.1626  0.5802
  468MOL0     C61657  10.213   5.143   7.802 -0.7961  0.5842 -0.0908
  468MOL0     C61658  10.073   5.170   7.858  0.1799  0.6518 -0.5468
  468MOL0     C61659   9.962   5.112   7.770  1.1094  0.1027  0.4170
  468MOL0     C61660   9.819   5.156   7.806 -0.3210  0.5708 -0.4820
  468MOL0     N61661   9.726   5.050   7.767  0.6002 -0.1280 -0.2851
  468MOL0     C61662   9.658   4.961   7.854 -0.2290 -1.2189 -0.2493
  468MOL0     C61663   9.563   4.905   7.778 -0.2118  0.4719  0.5210
  468MOL0     C61664   9.474   4.794   7.810  0.5493 -0.4014  0.2567
  468MOL0     C61665   9.330   4.851   7.802 -0.6003  0.2717  0.3843
  468MOL0     C61666   9.294   4.915   7.938  0.0405  0.6112  0.4740
  468MOL0     C61667   9.148   4.956   7.944 -0.4642 -0.2661 -0.4661
  468MOL0     O61668   9.062   4.839   7.929 -0.0437  0.9147  1.0548
  468MOL0     C61669   8.927   4.859   7.915 -0.4070 -0.0741 -0.9667
  468MOL0     C61670   8.855   4.982   7.916  0.4508 -0.3660 -0.3918
  468MOL0     C61671   8.719   4.972   7.903 -0.1926 -0.5649 -0.0575
  468MOL0     C61672   8.645   4.847   7.901 -1.3283 -0.0390  0.5511
  468MOL0     C61673   8.496   4.850   7.885  0.1451 -0.5095 -0.5850
  468MOL0     O61674   8.432   4.738   7.839 -0.0954 -0.4037  0.4667
  468MOL0     C61675   8.301   4.723   7.805  0.0083  0.5210 -0.1578
  468MOL0     C61676   8.278   4.654   7.685  0.7873  0.2164 -0.2370
  468MOL0     C61677   8.148   4.638   7.636  0.9227 -0.3242  1.0663
  468MOL0     C61678   8.044   4.704   7.704  0.8191  0.6902 -0.0452
  468MOL0     O61679   7.915   4.711   7.665  0.3054  0.4956  0.0080
  468MOL0     C61680   7.854   4.649   7.551  0.8447 -0.3425  0.7189
  468MOL0     C61681   7.708   4.626   7.581 -0.2473  0.0719  0.8841
  468MOL0     C61682   7.635   4.754   7.619 -0.2628  0.1331 -0.4531
  468MOL0     C61683   7.476   4.745   7.627 -0.2251  0.3263 -0.3364
  468MOL0     C61684   7.421   4.886   7.652  0.2125  0.2018 -1.3889
  468MOL0     C61685   7.275   4.908   7.703 -0.2698 -0.3151 -1.2961
  468MOL0     C61686   7.165   4.873   7.604  0.2361  0.0670  0.4000
  468MOL0     C61687   7.145   4.718   7.596  0.3329 -1.2329  0.5339
  468MOL0    Cl61688   6.977   4.673   7.623 -0.2562  0.5076 -0.0040
  468MOL0     C61689   8.066   4.760   7.827  0.1068 -0.3219  0.5355
  468MOL0     C61690   8.192   4.783   7.876  0.5138 -0.8439 -0.2194
  468MOL0     O61691   8.444   4.959   7.893  0.1233 -0.1603  0.2392
  468MOL0     C61692   8.719   4.731   7.906 -0.0250 -0.2552  0.2572
  468MOL0     C61693   8.861   4.735   7.916  0.4739  0.6546  1.3222
  468MOL0     N61694   9.569   4.952   7.649  0.9109 -0.4496  0.0252
  468MOL0     N61695   9.659   5.042   7.648 -0.3910 -0.1641 -0.4168
  468MOL0     C61696  10.748   4.808   7.362  0.6296  1.0006 -0.9756
  468MOL0     C61697  10.875   4.771   7.313  0.4218  0.7403  0.6101
  468MOL0     C61698  11.276   4.712   7.162 -0.5667 -1.1409  0.2660
  468MOL0     C61699  11.369   4.651   7.250  0.0155  0.3924  0.0490
  468MOL0     C61700  11.479   4.572   7.208  0.1184 -0.9040  0.1084
  468MOL0     C61701  11.512   4.559   7.069 -0.8345 -0.1704 -0.9946
  468MOL0     O61702  11.615   4.484   7.018 -0.1736 -0.6520 -0.5144
  468MOL0     C61703  11.719   4.435   7.104  0.9654 -0.1250 -0.4985
  468MOL0     C61704  11.827   4.358   7.027 -0.9466 -0.5298  0.4156
  468MOL0     C61705  11.946   4.330   7.112  0.5902 -0.0131 -0.8516
  468MOL0     C61706  12.030   4.228   7.045 -0.6593  0.8147 -0.1136
  468MOL0     C61707  12.099   4.287   6.930 -0.2842 -0.8580  0.2788
  468MOL0     C61708  12.146   4.331   6.827 -0.3905 -0.7789 -0.0814
  468MOL0     C61709  11.413   4.617   6.985 -0.7280 -0.4906  0.1648
  468MOL0     C61710  11.312   4.707   7.025 -0.2808  0.2975 -0.6182
  468MOL0     H61711  11.078   4.953   7.522 -0.4514 -1.8215  2.4950
  468MOL0     H61712  10.850   4.998   7.622 -0.0586  1.7290 -0.2473
  468MOL0     H61713  10.643   5.035   7.666 -0.2680  0.5555  0.5485
  468MOL0     H61714  10.629   4.863   7.711 -1.5803 -0.8481  0.0557
  468MOL0     H61715  10.379   4.873   7.649  2.0844 -0.2542  0.0054
  468MOL0     H61716  10.401   5.046   7.622  2.4004  1.0104 -1.0137
  468MOL0     H61717  10.487   5.061   7.864  2.5837 -1.5863  0.3005
  468MOL0     H61718  10.446   4.882   7.871 -1.1999 -1.5438 -2.6616
  468MOL0     H61719  10.217   4.918   7.828 -2.0076  0.7913 -0.2903
  468MOL0     H61720  10.268   5.009   7.967  2.0264 -1.9375  0.7984
  468MOL0     H61721  10.222   5.129   7.694 -1.6031  1.9765 -0.3664
  468MOL0     H61722  10.288   5.217   7.832 -0.3670  0.5935 -1.1514
  468MOL0     H61723  10.068   5.280   7.852 -0.8847  0.6843  0.4375
  468MOL0     H61724  10.071   5.137   7.963 -1.7256  1.9732 -0.0961
  468MOL0     H61725   9.982   5.128   7.664 -1.6049 -1.0081 -0.3593
  468MOL0     H61726   9.960   5.005   7.792  0.1232  0.4279  2.1977
  468MOL0     H61727   9.809   5.255   7.761  2.2775 -0.8880 -4.8916
  468MOL0     H61728   9.797   5.157   7.913 -3.2978 -0.1468 -0.9932
  468MOL0     H61729   9.675   4.941   7.959 -3.0052 -1.8294  0.1566
  468MOL0     H61730   9.490   4.754   7.911  1.2351  1.2492  0.8424
  468MOL0     H61731   9.487   4.716   7.734 -2.9579 -3.0277  2.0645
  468MOL0     H61732   9.268   4.764   7.778  1.4031 -1.6667  1.8568
  468MOL0     H61733   9.313   4.927   7.725 -2.1236 -0.7024 -0.3032
  468MOL0     H61734   9.316   4.846   8.020 -2.1508  2.0784  2.4510
  468MOL0     H61735   9.351   5.006   7.957 -0.1783  1.0116 -0.7153
  468MOL0     H61736   9.136   5.034   7.868  0.7391 -0.9635 -1.4023
  468MOL0     H61737   9.131   5.001   8.043 -0.7674  3.1587 -1.9264
  468MOL0     H61738   8.905   5.078   7.922  1.0205 -0.6260 -0.9078
  468MOL0     H61739   8.676   5.068   7.876 -1.2624 -0.6672  1.2174
  468MOL0     H61740   8.363   4.618   7.628  0.4736  1.7331 -1.7189
  468MOL0     H61741   8.134   4.594   7.538 -0.1365 -1.4935  1.6972
  468MOL0     H61742   7.904   4.553   7.532 -1.0913 -1.5743  1.5701
  468MOL0     H61743   7.860   4.716   7.465  2.9362 -1.3275  0.0278
  468MOL0     H61744   7.701   4.551   7.660 -0.9120  1.2467  1.9822
  468MOL0     H61745   7.664   4.576   7.494  0.5619  0.4796  0.2311
  468MOL0     H61746   7.663   4.837   7.553  0.3421 -0.3897 -0.8502
  468MOL0     H61747   7.675   4.787   7.716 -0.3472 -1.7826  0.2724
  468MOL0     H61748   7.438   4.698   7.537  0.4772 -2.4386  0.7155
  468MOL0     H61749   7.448   4.683   7.713  0.8993  3.1808  2.3273
  468MOL0     H61750   7.437   4.960   7.573 -0.0470  4.8062  2.3994
  468MOL0     H61751   7.488   4.911   7.735  1.2371 -0.0839 -2.1134
  468MOL0     H61752   7.261   5.013   7.727 -0.1427 -0.7024  0.6209
  468MOL0     H61753   7.251   4.855   7.796  1.4010  1.1274  0.0128
  468MOL0     H61754   7.075   4.930   7.625  0.9036  0.9776  0.8505
  468MOL0     H61755   7.207   4.900   7.506 -0.0214  0.7875  0.4814
  468MOL0     H61756   7.206   4.665   7.670  3.5892 -3.7007 -3.4595
  468MOL0     H61757   7.184   4.676   7.503 -1.0384  1.0815 -1.1877
  468MOL0     H61758   7.981   4.792   7.886  0.0185  2.1497 -0.7847
  468MOL0     H61759   8.207   4.842   7.966 -2.4209 -1.4232  0.7554
  468MOL0     H61760   8.661   4.640   7.898 -2.3334  1.1337  0.5545
  468MOL0     H61761   8.916   4.641   7.911  1.8450  1.4333 -3.0620
  468MOL0     H61762  10.666   4.752   7.319 -0.1602 -1.8129  3.5351
  468MOL0     H61763  10.879   4.687   7.245  3.8877  0.0423  1.4849
  468MOL0     H61764  11.351   4.652   7.357  0.7773  0.4578  0.1821
  468MOL0     H61765  11.547   4.548   7.288 -1.2465 -3.1972  0.6484
  468MOL0     H61766  11.678   4.361   7.174  2.5133 -2.0226 -1.5101
  468MOL0     H61767  11.755   4.519   7.164  1.6460  0.0508 -1.1379
  468MOL0     H61768  11.783   4.268   6.982  2.5720 -1.4166 -1.5965
  468MOL0     H61769  11.858   4.417   6.940 -4.9750 -2.1634 -2.4751
  468MOL0     H61770  11.916   4.278   7.203 -0.6994 -0.0891 -1.2950
  468MOL0     H61771  12.008   4.414   7.145  0.7457 -0.4900  0.1254
  468MOL0     H61772  12.114   4.195   7.106 -0.0523 -0.0669 -1.3890
  468MOL0     H61773  11.978   4.134   7.028  0.9687 -0.7815  2.8623
  468MOL0     H61774  12.180   4.392   6.747  1.4982  1.2601  2.1088
  468MOL0     H61775  11.439   4.627   6.880 -0.9979 -2.1590 -0.0796
  468MOL0     H61776  11.241   4.737   6.948 -1.4800  1.2561  0.7813
  469MOL0     O61777   6.211   0.691   6.594  0.0444  0.6729 -0.1002
  469MOL0     C61778   6.187   0.629   6.487 -1.1061  0.4600 -0.1060
  469MOL0     O61779   6.085   0.548   6.460  1.4826  0.2976 -0.1843
  469MOL0     C61780   5.978   0.519   6.543  0.4701 -0.2888 -1.6111
  469MOL0     C61781   5.869   0.449   6.481 -0.6040 -0.7961  0.5542
  469MOL0     C61782   5.759   0.426   6.549 -0.0094 -0.3024  0.1014
  469MOL0     C61783   5.754   0.445   6.688 -0.5115 -0.0779  0.4233
  469MOL0     O61784   5.656   0.406   6.769  1.0927  0.0520 -0.0455
  469MOL0     C61785   5.624   0.268   6.742  0.6197  0.2108  0.3254
  469MOL0     C61786   5.578   0.180   6.860  0.4994  0.4259 -0.4241
  469MOL0     C61787   5.448   0.234   6.922 -0.5690 -1.3164  0.4887
  469MOL0     C61788   5.389   0.143   7.034  0.0193  0.4508 -0.7915
  469MOL0     C61789   5.246   0.188   7.077 -0.0322 -0.3610 -0.3384
  469MOL0     C61790   5.180   0.078   7.162  0.7526 -0.7798 -0.7185
  469MOL0     C61791   5.039   0.133   7.201 -0.7254 -0.6696 -0.9097
  469MOL0     C61792   4.957   0.007   7.220 -0.0068  0.1538  1.2333
  469MOL0     N61793   4.828   0.033   7.278  0.0385  0.4653 -0.9135
  469MOL0     C61794   4.718   0.081   7.209  0.1770 -0.1147 -0.0105
  469MOL0     C61795   4.625   0.079   7.302 -0.1054 -0.1857 -0.3460
  469MOL0     C61796   4.480   0.130   7.283 -0.6269  0.3809 -0.5327
  469MOL0     C61797   4.392   0.024   7.217 -0.2341 -1.6763 -0.2611
  469MOL0     C61798   4.361  -0.092   7.311  0.3986  0.3808 -0.4704
  469MOL0     C61799   4.230  -0.162   7.284 -0.2250 -0.0014  0.3167
  469MOL0     O61800   4.131  -0.074   7.338 -0.1569  0.0280 -0.2883
  469MOL0     C61801   3.997  -0.108   7.328 -0.0824 -0.5225  0.0543
  469MOL0     C61802   3.941  -0.222   7.280  0.8509 -0.3984  0.0265
  469MOL0     C61803   3.802  -0.240   7.282 -0.3874 -0.9073 -0.0567
  469MOL0     C61804   3.708  -0.142   7.335 -0.2452  0.4692  0.4572
  469MOL0     C61805   3.561  -0.170   7.344  0.7491 -0.1088  1.2126
  469MOL0     O61806   3.510  -0.297   7.335 -0.1556 -0.0669 -0.6466
  469MOL0     C61807   3.375  -0.306   7.313 -0.4187  0.7053  0.3961
  469MOL0     C61808   3.288  -0.338   7.416 -0.5821 -0.2358  0.4799
  469MOL0     C61809   3.149  -0.357   7.393 -0.3242 -0.3693 -0.7157
  469MOL0     C61810   3.094  -0.356   7.271  0.4024 -0.3899 -0.0596
  469MOL0     O61811   2.967  -0.375   7.252  0.7579 -0.0705  0.6827
  469MOL0     C61812   2.911  -0.433   7.132 -0.1004 -0.7136 -0.1319
  469MOL0     C61813   2.758  -0.401   7.118 -0.7239  0.0739  0.3561
  469MOL0     C61814   2.686  -0.471   7.226  0.7974  0.0012 -0.0653
  469MOL0     C61815   2.543  -0.415   7.239  0.2140 -0.4757 -0.0536
  469MOL0     C61816   2.476  -0.465   7.363  0.3269  0.8360  0.6821
  469MOL0     C61817   2.325  -0.444   7.365 -0.1752 -0.0020 -0.1673
  469MOL0     C61818   2.269  -0.493   7.495 -0.0181  0.0029  0.0288
  469MOL0     C61819   2.267  -0.650   7.503 -0.1178 -0.1193  0.2448
  469MOL0    Cl61820   2.165  -0.721   7.381 -0.5049 -0.1626  0.3727
  469MOL0     C61821   3.191  -0.354   7.168  0.5106 -0.4810 -0.3762
  469MOL0     C61822   3.320  -0.313   7.184 -0.8137  0.3216 -0.2623
  469MOL0     O61823   3.492  -0.065   7.363 -0.3807  0.4315 -0.1482
  469MOL0     C61824   3.769  -0.021   7.389 -0.8405  0.1135 -0.1111
  469MOL0     C61825   3.910  -0.004   7.377 -0.0110 -0.8341 -0.0129
  469MOL0     N61826   4.682   0.050   7.422  0.2710  0.0632 -0.5661
  469MOL0     N61827   4.801   0.023   7.410 -0.7112 -0.3088 -0.0123
  469MOL0     C61828   5.852   0.513   6.753 -1.1637 -0.7222 -0.7023
  469MOL0     C61829   5.966   0.553   6.680 -0.2884 -0.0691  0.4655
  469MOL0     C61830   6.283   0.645   6.377 -0.3826  0.9026 -0.7893
  469MOL0     C61831   6.250   0.601   6.249 -0.0971  0.3549  0.3461
  469MOL0     C61832   6.346   0.611   6.141 -0.5275  0.9827 -0.3278
  469MOL0     C61833   6.464   0.677   6.161 -1.6053  1.2303  0.4084
  469MOL0     O61834   6.555   0.716   6.063 -0.2460  0.1010 -0.3558
  469MOL0     C61835   6.653   0.614   6.037 -0.4269 -0.1348  1.0350
  469MOL0     C61836   6.735   0.647   5.907  0.4725 -0.0631  0.4240
  469MOL0     C61837   6.830   0.771   5.924 -0.3675 -0.5112  0.8723
  469MOL0     C61838   6.951   0.745   6.022  1.0487  0.4770  0.4249
  469MOL0     C61839   7.025   0.867   6.068  0.0745 -0.4600 -0.3331
  469MOL0     C61840   7.095   0.940   6.141 -0.1768  0.4321  0.3094
  469MOL0     C61841   6.502   0.723   6.293  0.5867 -0.6826  0.3440
  469MOL0     C61842   6.408   0.716   6.399  0.2130 -0.4155 -0.1082
  469MOL0     H61843   5.870   0.441   6.372 -0.0470  1.6759  0.3303
  469MOL0     H61844   5.668   0.397   6.497  0.7459 -1.0646 -0.8219
  469MOL0     H61845   5.713   0.220   6.700 -0.7662 -0.2149 -2.3393
  469MOL0     H61846   5.541   0.256   6.671  0.0659 -2.3420  1.2959
  469MOL0     H61847   5.662   0.172   6.929  1.1871 -3.7179 -1.4753
  469MOL0     H61848   5.565   0.076   6.829  1.8913  0.4917 -1.3028
  469MOL0     H61849   5.374   0.246   6.842  0.4551  2.9566 -0.0816
  469MOL0     H61850   5.458   0.339   6.951 -1.1211 -1.4674  1.2417
  469MOL0     H61851   5.387   0.041   6.996  0.7530 -0.4807  1.5135
  469MOL0     H61852   5.451   0.143   7.125 -2.4144 -1.3819  1.0233
  469MOL0     H61853   5.183   0.207   6.990 -1.0634 -2.9769 -0.2471
  469MOL0     H61854   5.263   0.276   7.141 -0.8881  0.2776 -0.9653
  469MOL0     H61855   5.233   0.062   7.257 -1.9388  4.4493  2.1292
  469MOL0     H61856   5.164  -0.015   7.107 -0.3135 -1.3288  0.4758
  469MOL0     H61857   5.052   0.192   7.292  1.8036 -0.8289 -1.0965
  469MOL0     H61858   5.000   0.200   7.124 -4.3311 -2.0919 -0.5351
  469MOL0     H61859   5.005  -0.062   7.290 -2.7390  1.1306  4.3444
  469MOL0     H61860   4.949  -0.042   7.122 -0.2798  0.1348  1.2618
  469MOL0     H61861   4.692   0.111   7.108 -2.8211 -0.9519  0.4092
  469MOL0     H61862   4.494   0.215   7.216 -0.6404 -1.4433 -3.0072
  469MOL0     H61863   4.437   0.151   7.381  2.9771 -1.7745  1.7434
  469MOL0     H61864   4.421  -0.006   7.116  2.9646 -0.9737  0.3490
  469MOL0     H61865   4.300   0.080   7.200  0.4546 -0.9310 -1.6595
  469MOL0     H61866   4.441  -0.166   7.316 -0.1136 -0.0860  2.3592
  469MOL0     H61867   4.359  -0.060   7.415  1.1619 -1.3946  0.1304
  469MOL0     H61868   4.233  -0.255   7.341 -0.9669  0.2305  0.7448
  469MOL0     H61869   4.211  -0.191   7.180  2.7573  0.1317 -0.3599
  469MOL0     H61870   4.018  -0.292   7.248  0.8815  0.3024 -1.5478
  469MOL0     H61871   3.765  -0.337   7.253 -0.6223 -0.6843 -0.5135
  469MOL0     H61872   3.324  -0.337   7.518 -2.2089 -1.7437  1.1405
  469MOL0     H61873   3.080  -0.372   7.476  1.4175 -0.5655  0.7797
  469MOL0     H61874   2.925  -0.541   7.133  0.9880 -0.6196  2.5882
  469MOL0     H61875   2.969  -0.395   7.047 -1.1263 -0.1172 -0.5920
  469MOL0     H61876   2.725  -0.426   7.017 -1.3987  2.0610  0.0520
  469MOL0     H61877   2.747  -0.293   7.133 -1.1247 -0.0489  0.9753
  469MOL0     H61878   2.740  -0.446   7.318  1.2846 -2.0559  0.2732
  469MOL0     H61879   2.692  -0.581   7.225 -1.1414 -0.2530  3.6133
  469MOL0     H61880   2.540  -0.306   7.233  5.5185  0.0767  1.6563
  469MOL0     H61881   2.486  -0.473   7.167 -1.9039 -1.8128  2.5474
  469MOL0     H61882   2.519  -0.429   7.456  0.6333  0.9409  0.5038
  469MOL0     H61883   2.483  -0.574   7.363 -1.9733  0.6480  1.6126
  469MOL0     H61884   2.286  -0.485   7.272  0.4150  3.5106 -2.1324
  469MOL0     H61885   2.294  -0.340   7.352 -0.8780 -0.1228  0.4774
  469MOL0     H61886   2.324  -0.452   7.580  1.0565  0.4273 -0.8475
  469MOL0     H61887   2.164  -0.461   7.491 -0.8868 -2.5320  0.6232
  469MOL0     H61888   2.234  -0.689   7.599  0.7894 -0.5392  0.4018
  469MOL0     H61889   2.368  -0.685   7.479  0.3213  2.1078 -1.4965
  469MOL0     H61890   3.152  -0.369   7.067 -2.4385 -1.3100  0.7679
  469MOL0     H61891   3.381  -0.311   7.094  1.7854  2.3996  1.3740
  469MOL0     H61892   3.713   0.061   7.433 -1.9779 -0.0106 -1.2307
  469MOL0     H61893   3.961   0.083   7.417 -0.0270 -1.2533  0.9330
  469MOL0     H61894   5.840   0.535   6.859 -0.0175 -3.0259 -0.0073
  469MOL0     H61895   6.041   0.602   6.742 -1.3587 -1.2417  2.8072
  469MOL0     H61896   6.166   0.536   6.227  0.6054 -0.7557  0.8645
  469MOL0     H61897   6.321   0.564   6.046 -1.7355  2.0975 -0.5943
  469MOL0     H61898   6.601   0.518   6.035  2.1243 -1.5630  0.1867
  469MOL0     H61899   6.714   0.603   6.127  0.7470 -1.8677  0.0768
  469MOL0     H61900   6.791   0.559   5.873  0.2777 -0.7636  1.8331
  469MOL0     H61901   6.661   0.678   5.833 -0.4164  2.1819  2.1706
  469MOL0     H61902   6.775   0.862   5.951  0.7632  0.3615  0.3523
  469MOL0     H61903   6.873   0.802   5.828 -0.6070  1.6426  1.3980
  469MOL0     H61904   6.904   0.699   6.109  0.9022  0.9565  0.6057
  469MOL0     H61905   7.020   0.672   5.978  0.1929 -1.7600  2.5455
  469MOL0     H61906   7.158   1.000   6.203  0.6082 -2.2350  2.3255
  469MOL0     H61907   6.599   0.767   6.314  0.2929  0.2305 -0.1665
  469MOL0     H61908   6.431   0.751   6.499 -0.2904 -0.0472 -0.1125
  470MOL0     O61909   7.051   5.194   6.436 -0.2724 -0.1567  0.2775
  470MOL0     C61910   7.124   5.110   6.493 -0.8817 -0.1147  0.1814
  470MOL0     O61911   7.097   5.046   6.616 -0.0768  0.0048  0.0050
  470MOL0     C61912   6.998   5.097   6.694  0.0067  1.4094 -0.1148
  470MOL0     C61913   6.865   5.132   6.655  0.8870 -0.5316 -0.0450
  470MOL0     C61914   6.772   5.180   6.748  0.2820  0.1929  1.0475
  470MOL0     C61915   6.798   5.212   6.877 -0.2542  1.1571 -0.2468
  470MOL0     O61916   6.692   5.254   6.949  0.4308  0.5636 -0.4522
  470MOL0     C61917   6.699   5.291   7.090  0.0839 -0.0744  0.1156
  470MOL0     C61918   6.560   5.334   7.129  0.7381  0.2790  0.2653
  470MOL0     C61919   6.530   5.397   7.264 -0.4677  0.3887  0.5405
  470MOL0     C61920   6.383   5.397   7.270  0.5686  0.5319 -0.7800
  470MOL0     C61921   6.315   5.486   7.368 -0.4048 -0.1154 -0.5596
  470MOL0     C61922   6.351   5.473   7.519 -0.3722  0.3005 -0.2968
  470MOL0     C61923   6.264   5.572   7.588 -0.4259 -0.2938 -0.3436
  470MOL0     C61924   6.316   5.607   7.728 -0.3817  0.1696  0.6712
  470MOL0     N61925   6.213   5.674   7.805 -0.1326  0.1913  0.4863
  470MOL0     C61926   6.128   5.778   7.765 -0.9092 -1.2137 -0.8399
  470MOL0     C61927   6.035   5.784   7.862 -0.8151 -0.2484  0.1173
  470MOL0     C61928   5.909   5.872   7.860 -0.1064 -0.5714 -0.7949
  470MOL0     C61929   5.940   6.021   7.890 -0.0331 -0.0447 -0.2058
  470MOL0     C61930   5.991   6.058   8.030  0.1347  0.9290 -0.3513
  470MOL0     C61931   6.139   6.030   8.052  0.6548  0.1447 -1.0119
  470MOL0     O61932   6.223   6.104   7.962  0.1660  0.1854 -0.1880
  470MOL0     C61933   6.349   6.063   7.955 -0.1030 -1.1269  0.0364
  470MOL0     C61934   6.429   6.145   7.881  0.0704 -0.4008  0.0700
  470MOL0     C61935   6.562   6.105   7.851 -0.1794 -1.1275  0.5106
  470MOL0     C61936   6.618   5.992   7.910  0.3827 -0.1178  0.7828
  470MOL0     C61937   6.750   5.952   7.868  0.0345  0.3148 -0.4740
  470MOL0     O61938   6.808   5.855   7.949  0.3208  0.1129  0.1981
  470MOL0     C61939   6.922   5.788   7.924 -0.7313  0.1211  0.4816
  470MOL0     C61940   7.025   5.843   7.855 -0.0403  0.1710  0.0020
  470MOL0     C61941   7.142   5.767   7.818 -0.0415  0.4801 -0.4221
  470MOL0     C61942   7.152   5.631   7.861  0.7762  0.2303 -0.8243
  470MOL0     O61943   7.249   5.551   7.809  0.4024  0.0711 -0.3698
  470MOL0     C61944   7.233   5.415   7.796  0.2804 -0.2780 -0.0450
  470MOL0     C61945   7.368   5.342   7.771  0.4556 -0.8693  0.2605
  470MOL0     C61946   7.477   5.420   7.707  0.7281 -0.2078 -0.0425
  470MOL0     C61947   7.446   5.472   7.565 -0.1993 -0.4372 -0.3317
  470MOL0     C61948   7.564   5.546   7.501 -0.4526 -0.4100  1.1580
  470MOL0     C61949   7.551   5.553   7.355 -1.2114 -0.8977 -0.2218
  470MOL0     C61950   7.673   5.611   7.276  0.0071  0.6873 -0.5861
  470MOL0     C61951   7.696   5.757   7.307 -0.0339  0.5261 -0.3024
  470MOL0    Cl61952   7.869   5.783   7.281 -0.4159  0.0017 -0.3253
  470MOL0     C61953   7.049   5.581   7.940  0.1142 -0.1507  0.0937
  470MOL0     C61954   6.926   5.656   7.962 -0.5933  1.0547  1.5044
  470MOL0     O61955   6.799   5.991   7.765  0.2732 -0.1845  0.5301
  470MOL0     C61956   6.538   5.921   8.001  0.0860 -0.4393  0.0606
  470MOL0     C61957   6.410   5.947   8.017  0.0439 -0.1368 -0.1659
  470MOL0     N61958   6.057   5.683   7.955  0.4009 -0.2375 -0.1088
  470MOL0     N61959   6.162   5.624   7.922 -0.4717 -0.4796  0.3315
  470MOL0     C61960   6.926   5.166   6.928  0.3589  0.4967  0.2441
  470MOL0     C61961   7.020   5.126   6.834  0.0879 -0.0027  0.7279
  470MOL0     C61962   7.239   5.071   6.420 -0.1341  0.3717  0.5474
  470MOL0     C61963   7.272   5.131   6.291  0.3961  0.4410  0.0584
  470MOL0     C61964   7.386   5.079   6.213 -0.2376  0.2186  0.2799
  470MOL0     C61965   7.469   4.979   6.265 -0.3883 -0.1713 -0.3983
  470MOL0     O61966   7.581   4.942   6.194 -0.5678 -0.1038 -0.2790
  470MOL0     C61967   7.680   4.867   6.265 -0.2886 -1.0947 -0.3303
  470MOL0     C61968   7.791   4.848   6.166 -0.4945  0.2991 -0.0531
  470MOL0     C61969   7.856   4.983   6.118 -0.3426  0.6102 -0.8381
  470MOL0     C61970   7.978   4.976   6.027  0.1769 -0.7566  0.2264
  470MOL0     C61971   8.096   4.937   6.112 -0.4101 -0.5387  0.0999
  470MOL0     C61972   8.204   4.914   6.154 -0.5688  0.1184 -0.1981
  470MOL0     C61973   7.447   4.940   6.394 -0.8200  0.3903  0.0447
  470MOL0     C61974   7.327   4.971   6.463  0.1721  0.1428 -0.2069
  470MOL0     H61975   6.833   5.113   6.553 -0.4385 -2.0071  0.5958
  470MOL0     H61976   6.669   5.177   6.714  0.2582 -2.4962  1.1636
  470MOL0     H61977   6.767   5.375   7.103  1.4510 -0.9436 -1.1290
  470MOL0     H61978   6.725   5.211   7.159  0.4942 -1.0256 -1.1115
  470MOL0     H61979   6.495   5.253   7.095  0.0504  0.4430  1.1560
  470MOL0     H61980   6.539   5.420   7.065  2.1235  0.1553 -0.3925
  470MOL0     H61981   6.574   5.496   7.278  1.3040 -0.3021  0.1692
  470MOL0     H61982   6.572   5.342   7.349 -0.3214  3.1243  2.3714
  470MOL0     H61983   6.342   5.432   7.175  1.0703  0.5461 -0.9923
  470MOL0     H61984   6.357   5.291   7.269  0.3054  0.4933  1.8778
  470MOL0     H61985   6.207   5.467   7.367 -0.6997  1.4337 -0.0659
  470MOL0     H61986   6.328   5.588   7.331  1.2236  0.3069  1.0610
  470MOL0     H61987   6.458   5.485   7.541  0.2452 -2.7259 -1.2509
  470MOL0     H61988   6.331   5.371   7.553 -0.2568  0.7695  1.2745
  470MOL0     H61989   6.275   5.663   7.528 -2.4175  0.5054  0.3886
  470MOL0     H61990   6.157   5.546   7.589 -0.2929 -0.9569 -1.5646
  470MOL0     H61991   6.402   5.674   7.719 -0.1068 -0.2428  0.2471
  470MOL0     H61992   6.345   5.516   7.781 -0.8239 -1.8770 -2.3671
  470MOL0     H61993   6.131   5.826   7.668 -0.1962 -1.5123 -0.9729
  470MOL0     H61994   5.821   5.848   7.920 -0.3119  2.6178  0.3516
  470MOL0     H61995   5.866   5.866   7.760  3.6965  1.5349 -2.8182
  470MOL0     H61996   5.856   6.091   7.882  0.1520  0.2256  0.1711
  470MOL0     H61997   6.010   6.056   7.814  0.1582 -2.7428 -1.3596
  470MOL0     H61998   5.955   6.156   8.063 -1.5280  1.3837 -3.1811
  470MOL0     H61999   5.936   5.993   8.098  1.7459 -0.6635 -0.5112
  470MOL0     H62000   6.138   5.920   8.046 -1.0842  0.1023 -0.4218
  470MOL0     H62001   6.165   6.039   8.158 -0.5740  1.5257 -0.7944
  470MOL0     H62002   6.396   6.242   7.844 -0.5494 -1.6046 -2.8725
  470MOL0     H62003   6.612   6.164   7.775  1.5436 -0.7837  1.8499
  470MOL0     H62004   7.025   5.947   7.824  2.0609 -0.1998 -1.4860
  470MOL0     H62005   7.222   5.811   7.759  1.0607 -0.1533  0.5551
  470MOL0     H62006   7.164   5.381   7.718  0.8914  2.9855 -2.2043
  470MOL0     H62007   7.195   5.371   7.889  1.4243 -2.6448 -0.6412
  470MOL0     H62008   7.344   5.256   7.708 -1.1576 -1.5549  1.6942
  470MOL0     H62009   7.399   5.325   7.875  1.2790 -1.7004 -0.1142
  470MOL0     H62010   7.559   5.348   7.696  1.1106  0.6071 -4.8569
  470MOL0     H62011   7.511   5.507   7.765 -1.4015  1.2757 -0.8990
  470MOL0     H62012   7.415   5.388   7.502 -0.6215 -1.3156  0.9941
  470MOL0     H62013   7.363   5.543   7.564  0.2030  0.0436  0.0501
  470MOL0     H62014   7.650   5.483   7.525  0.5933  0.2875 -0.5630
  470MOL0     H62015   7.581   5.644   7.547 -0.0004  0.7300 -1.2897
  470MOL0     H62016   7.456   5.602   7.330 -1.6522 -2.5994 -2.1361
  470MOL0     H62017   7.549   5.450   7.318  1.4754 -1.0611 -0.1236
  470MOL0     H62018   7.751   5.546   7.316 -3.5136 -2.2154  2.2277
  470MOL0     H62019   7.672   5.598   7.167 -0.8072 -0.5015 -0.4552
  470MOL0     H62020   7.663   5.794   7.404  3.8574  2.2316  0.5786
  470MOL0     H62021   7.636   5.806   7.230  0.8423 -2.5188 -3.1639
  470MOL0     H62022   7.047   5.481   7.982 -2.0867  0.1956  0.9736
  470MOL0     H62023   6.846   5.599   8.010 -1.8895  2.5664  1.2441
  470MOL0     H62024   6.577   5.840   8.062 -1.4413 -2.2693 -1.2326
  470MOL0     H62025   6.356   5.877   8.081 -1.0605  1.4133  0.6912
  470MOL0     H62026   6.948   5.171   7.034  1.0469 -0.8174  0.1832
  470MOL0     H62027   7.118   5.097   6.871  0.9529 -0.4907 -1.7699
  470MOL0     H62028   7.212   5.209   6.245  0.6155  0.9150  0.5672
  470MOL0     H62029   7.417   5.123   6.119  3.9068 -0.1185  1.3050
  470MOL0     H62030   7.653   4.766   6.299  0.5567 -1.9231 -1.9800
  470MOL0     H62031   7.721   4.921   6.351  2.5765 -3.2050 -0.2180
  470MOL0     H62032   7.871   4.789   6.211 -1.1135 -0.9424 -0.5249
  470MOL0     H62033   7.750   4.802   6.075 -1.1115  2.9693 -1.2325
  470MOL0     H62034   7.893   5.038   6.205 -2.4013  1.7681 -0.6183
  470MOL0     H62035   7.776   5.039   6.068  0.0618  0.8993 -1.1641
  470MOL0     H62036   7.961   4.899   5.951  0.7626 -1.0970  0.4383
  470MOL0     H62037   7.987   5.070   5.972 -1.0415 -1.3142 -0.9923
  470MOL0     H62038   8.307   4.893   6.175 -1.2018 -1.5395  1.6237
  470MOL0     H62039   7.499   4.857   6.441 -0.9217 -0.7301 -1.7246
  470MOL0     H62040   7.311   4.925   6.560  0.7613  1.5474  0.5981
  471MOL0     O62041   1.133   2.459   8.717  0.2242 -0.2765  0.8326
  471MOL0     C62042   1.023   2.514   8.716 -0.8537 -0.5059 -0.7251
  471MOL0     O62043   1.008   2.652   8.722 -0.3718  0.3032 -0.0615
  471MOL0     C62044   1.122   2.730   8.764 -0.5088 -0.7410 -0.0422
  471MOL0     C62045   1.240   2.746   8.689  0.5853  0.0291 -0.3774
  471MOL0     C62046   1.347   2.830   8.732 -0.2514 -1.1940 -0.4105
  471MOL0     C62047   1.350   2.891   8.864  0.4867  0.2696  1.2347
  471MOL0     O62048   1.449   2.958   8.923 -1.1189  0.2901  0.1605
  471MOL0     C62049   1.552   3.007   8.837  0.0407  0.2337 -0.3139
  471MOL0     C62050   1.627   3.127   8.888  0.1411  0.1795  0.7726
  471MOL0     C62051   1.710   3.120   9.020  0.0146  0.7612  0.1977
  471MOL0     C62052   1.836   3.198   9.008  0.0224  0.3524  0.1247
  471MOL0     C62053   1.923   3.190   9.130 -0.5295 -0.7547  0.0886
  471MOL0     C62054   2.039   3.292   9.114  0.3398 -0.4578 -0.1006
  471MOL0     C62055   2.131   3.259   9.001 -0.7320  0.0951 -0.1876
  471MOL0     C62056   2.263   3.348   9.007 -0.1756  0.0133  1.0825
  471MOL0     N62057   2.351   3.373   8.889  0.5177 -1.1085 -0.5832
  471MOL0     C62058   2.434   3.276   8.823 -0.2313  0.3722 -0.3201
  471MOL0     C62059   2.507   3.337   8.729 -0.2542 -0.8051 -0.3715
  471MOL0     C62060   2.618   3.288   8.644  0.0386  0.3376  0.2171
  471MOL0     C62061   2.555   3.241   8.516 -0.3695 -0.1027  0.6488
  471MOL0     C62062   2.639   3.119   8.461 -0.1498 -0.4404  1.0269
  471MOL0     C62063   2.569   3.036   8.346  0.1288  0.3742 -0.0301
  471MOL0     O62064   2.444   2.990   8.400  0.6047  0.6230 -0.7883
  471MOL0     C62065   2.356   2.915   8.333  0.1613 -0.7883  0.0224
  471MOL0     C62066   2.373   2.860   8.206  0.2860  0.2767 -0.0050
  471MOL0     C62067   2.282   2.778   8.146 -0.1795  1.0261  1.0584
  471MOL0     C62068   2.147   2.762   8.200 -0.3063 -0.0078  0.2418
  471MOL0     C62069   2.036   2.679   8.127 -0.2560  1.1015 -0.2208
  471MOL0     O62070   1.921   2.684   8.198 -0.5395  1.0555  0.5257
  471MOL0     C62071   1.816   2.632   8.148 -0.1085 -0.7210 -0.0998
  471MOL0     C62072   1.809   2.497   8.156  0.0643  1.1714  0.7023
  471MOL0     C62073   1.688   2.438   8.110 -1.2486 -0.1582 -0.7170
  471MOL0     C62074   1.587   2.521   8.061 -0.1449  0.9644 -0.2402
  471MOL0     O62075   1.478   2.448   8.015 -0.1743  0.4087 -0.6217
  471MOL0     C62076   1.404   2.507   7.906 -0.0297 -0.9421  0.4754
  471MOL0     C62077   1.278   2.417   7.889  0.0384 -0.3329  0.2071
  471MOL0     C62078   1.181   2.457   7.998 -0.5423  0.3620 -0.8284
  471MOL0     C62079   1.058   2.368   7.993  0.0853  0.4846  0.4856
  471MOL0     C62080   0.943   2.393   8.086 -0.2731 -0.1115 -0.0248
  471MOL0     C62081   0.823   2.322   8.014 -0.2704  0.5131  0.0567
  471MOL0     C62082   0.690   2.350   8.081 -0.8654  0.3763 -0.6568
  471MOL0     C62083   0.666   2.284   8.218 -0.4690  0.3688 -0.1958
  471MOL0    Cl62084   0.505   2.323   8.282  0.1464  0.0118  0.2470
  471MOL0     C62085   1.610   2.655   8.046  0.3871 -0.1782  0.6028
  471MOL0     C62086   1.726   2.712   8.081  0.3141  0.3044  0.6913
  471MOL0     O62087   2.053   2.627   8.013  0.0230  0.6927 -0.3612
  471MOL0     C62088   2.120   2.829   8.317 -0.0246  0.1995 -0.4943
  471MOL0     C62089   2.225   2.895   8.384 -0.1455 -0.2568  0.2411
  471MOL0     N62090   2.460   3.472   8.732 -0.2954  0.7583 -0.8322
  471MOL0     N62091   2.380   3.499   8.831 -0.1106  0.3887  0.4332
  471MOL0     C62092   1.234   2.868   8.943 -0.1472 -0.4870 -0.2930
  471MOL0     C62093   1.117   2.795   8.895 -0.6242 -1.1540 -0.4230
  471MOL0     C62094   0.902   2.435   8.695 -0.5073  0.5863  0.2054
  471MOL0     C62095   0.783   2.490   8.727 -0.6489  0.5371  0.3814
  471MOL0     C62096   0.677   2.418   8.687  0.7247  0.4999  0.0916
  471MOL0     C62097   0.679   2.301   8.610  0.4738  0.4153 -0.7053
  471MOL0     O62098   0.567   2.241   8.558 -0.2388  0.7521  0.3181
  471MOL0     C62099   0.471   2.200   8.648  0.2360  0.5981 -0.1397
  471MOL0     C62100   0.484   2.059   8.689 -0.6442  1.0662 -0.0781
  471MOL0     C62101   0.519   1.950   8.579  0.3882 -0.1847 -0.5941
  471MOL0     C62102   0.504   1.817   8.653 -0.3197  0.1913  0.5822
  471MOL0     C62103   0.367   1.769   8.667  0.0186 -0.1001  0.0935
  471MOL0     C62104   0.251   1.730   8.684 -0.2989 -0.1175  1.0166
  471MOL0     C62105   0.800   2.246   8.594 -0.3267  0.3306  1.2644
  471MOL0     C62106   0.919   2.314   8.635  0.4072  0.5269  1.3978
  471MOL0     H62107   1.247   2.685   8.600 -0.6962  1.3631 -1.4400
  471MOL0     H62108   1.427   2.837   8.659  0.8492 -2.5853  0.6288
  471MOL0     H62109   1.511   3.038   8.740  1.4414  0.9782 -0.7090
  471MOL0     H62110   1.616   2.926   8.801 -2.1392 -1.0621 -1.4491
  471MOL0     H62111   1.558   3.212   8.889  0.7313  0.6839  2.4328
  471MOL0     H62112   1.693   3.155   8.806  0.8485 -0.1888  1.1966
  471MOL0     H62113   1.739   3.017   9.043 -1.8043  0.0829 -0.4265
  471MOL0     H62114   1.651   3.156   9.104 -2.0435 -2.5871  0.3735
  471MOL0     H62115   1.895   3.165   8.922  1.2212 -0.2043  1.1237
  471MOL0     H62116   1.817   3.303   8.984  1.8594  1.1951  2.0042
  471MOL0     H62117   1.958   3.086   9.139  0.4822 -0.5303 -0.9416
  471MOL0     H62118   1.860   3.220   9.214  1.6901 -2.3940  2.5130
  471MOL0     H62119   2.084   3.289   9.214 -3.4705 -2.6144  1.8147
  471MOL0     H62120   1.989   3.390   9.114 -2.9070 -1.9886 -1.2523
  471MOL0     H62121   2.171   3.159   9.020 -1.7998 -0.1683  0.7572
  471MOL0     H62122   2.087   3.250   8.902 -0.2271  1.1220 -0.5184
  471MOL0     H62123   2.313   3.301   9.092 -1.7128 -1.6908  1.1242
  471MOL0     H62124   2.236   3.453   9.025  1.4100  0.6674 -0.1089
  471MOL0     H62125   2.441   3.172   8.854 -2.2267  0.1605 -0.4576
  471MOL0     H62126   2.663   3.202   8.694  0.5803  1.3274  1.4891
  471MOL0     H62127   2.693   3.364   8.624 -1.3118  1.6884  0.0574
  471MOL0     H62128   2.549   3.310   8.432  0.1565 -2.4640 -1.4565
  471MOL0     H62129   2.453   3.209   8.535  0.2755 -3.3190 -0.6251
  471MOL0     H62130   2.726   3.170   8.420 -2.1937  3.3199  0.9761
  471MOL0     H62131   2.651   3.037   8.533  1.6847  0.1602  1.4569
  471MOL0     H62132   2.629   2.950   8.314 -1.0817 -0.1095 -1.0743
  471MOL0     H62133   2.547   3.099   8.259 -1.1175 -1.6532 -1.2809
  471MOL0     H62134   2.467   2.863   8.152  0.6623  1.6990  0.6685
  471MOL0     H62135   2.300   2.730   8.050 -1.5617 -1.9899  2.1958
  471MOL0     H62136   1.891   2.447   8.207 -1.5197 -1.0864  1.1961
  471MOL0     H62137   1.672   2.332   8.129  0.5907 -1.2660 -4.3873
  471MOL0     H62138   1.474   2.511   7.822 -0.3312  0.3471  0.2500
  471MOL0     H62139   1.361   2.603   7.939 -1.4595 -0.7376 -1.7890
  471MOL0     H62140   1.297   2.310   7.888  1.6057 -0.0794  0.9709
  471MOL0     H62141   1.233   2.439   7.791 -0.6884  2.5798  1.0860
  471MOL0     H62142   1.151   2.561   7.984 -2.2398  0.2265  1.2203
  471MOL0     H62143   1.235   2.446   8.093 -3.3028 -3.2878  0.5791
  471MOL0     H62144   1.019   2.376   7.891  0.3289 -0.8654  0.2639
  471MOL0     H62145   1.089   2.264   8.006  1.2972  0.6651 -0.6414
  471MOL0     H62146   0.911   2.497   8.089 -2.5100 -0.7482  0.3840
  471MOL0     H62147   0.972   2.371   8.190  4.4826  2.9872 -0.3796
  471MOL0     H62148   0.836   2.213   8.013 -1.9372  0.2861 -0.7135
  471MOL0     H62149   0.815   2.355   7.910 -0.7929  0.3372  0.0357
  471MOL0     H62150   0.682   2.457   8.103  1.2090  0.8204 -1.7898
  471MOL0     H62151   0.619   2.325   8.002  2.4689  1.8447 -4.4800
  471MOL0     H62152   0.747   2.317   8.284  1.8525  2.3634 -3.7115
  471MOL0     H62153   0.675   2.175   8.210 -1.1162  0.4107 -2.1337
  471MOL0     H62154   1.540   2.727   8.005 -1.6509 -1.4250  1.7302
  471MOL0     H62155   1.744   2.818   8.066  5.3522 -0.5077 -1.0348
  471MOL0     H62156   2.022   2.833   8.363  1.0245 -1.2129  2.0780
  471MOL0     H62157   2.211   2.938   8.483 -4.2897 -0.6574 -0.0207
  471MOL0     H62158   1.243   2.902   9.046  2.3621  0.0219 -0.6214
  471MOL0     H62159   1.038   2.781   8.967  1.7798 -4.7410  1.8833
  471MOL0     H62160   0.781   2.578   8.790  0.4722  0.2900  0.7886
  471MOL0     H62161   0.581   2.467   8.700  0.6833  0.3102  0.4956
  471MOL0     H62162   0.375   2.208   8.596 -0.1242  0.9794  0.5573
  471MOL0     H62163   0.455   2.261   8.738 -1.2523 -0.1717  0.1596
  471MOL0     H62164   0.567   2.055   8.760  1.0315 -0.9298 -2.0149
  471MOL0     H62165   0.387   2.040   8.736  0.0254 -2.3063  0.1979
  471MOL0     H62166   0.618   1.978   8.544 -0.5410  4.1128 -0.3595
  471MOL0     H62167   0.448   1.961   8.496 -0.7333  1.3523  0.5136
  471MOL0     H62168   0.555   1.736   8.600 -1.7507 -0.3305 -0.0538
  471MOL0     H62169   0.563   1.821   8.745  1.0182  0.1675 -0.2601
  471MOL0     H62170   0.146   1.711   8.690 -0.1779 -3.1337 -2.4525
  471MOL0     H62171   0.814   2.145   8.556 -1.9286  0.0886  1.2489
  471MOL0     H62172   1.010   2.257   8.621 -1.6123 -2.1729 -3.5681
  472MOL0     O62173   9.918   5.661  10.525 -0.0123 -0.0430 -0.1398
  472MOL0     C62174   9.993   5.661  10.630 -0.7987  0.1601  1.0026
  472MOL0     O62175   9.979   5.575  10.734 -0.3385 -0.2940 -0.4431
  472MOL0     C62176   9.882   5.482  10.721  0.6718  0.6127 -0.0622
  472MOL0     C62177   9.753   5.495  10.788 -0.3804  0.7132  0.2344
  472MOL0     C62178   9.653   5.407  10.759 -0.5754  0.7837 -0.3314
  472MOL0     C62179   9.675   5.293  10.679 -0.0861  0.5079 -0.1181
  472MOL0     O62180   9.583   5.196  10.647  0.0538 -0.2818 -0.3037
  472MOL0     C62181   9.440   5.220  10.638  0.4519 -0.9753 -0.1582
  472MOL0     C62182   9.376   5.133  10.540  0.1813  0.6105 -0.4639
  472MOL0     C62183   9.226   5.186  10.523 -0.3138  0.6855  0.0500
  472MOL0     C62184   9.151   5.121  10.407 -0.5280 -0.2961  0.3591
  472MOL0     C62185   8.993   5.145  10.424  0.8713 -0.6705 -0.4631
  472MOL0     C62186   8.954   5.286  10.372  0.4783  0.2482  1.1617
  472MOL0     C62187   8.960   5.276  10.218 -0.3597  0.8371 -0.2068
  472MOL0     C62188   8.883   5.385  10.151 -0.3268 -0.2265  0.1227
  472MOL0     N62189   8.750   5.345  10.107  0.6768  0.0828  0.2312
  472MOL0     C62190   8.724   5.253  10.011  1.1123 -0.0802  0.0891
  472MOL0     C62191   8.589   5.235  10.020 -0.5880 -0.2123  0.2016
  472MOL0     C62192   8.499   5.145   9.950  0.9135  0.8917  0.5197
  472MOL0     C62193   8.430   5.030  10.042  0.3619  0.3211  0.3757
  472MOL0     C62194   8.284   5.058  10.064  0.4010 -0.2736 -0.0761
  472MOL0     C62195   8.248   5.201  10.109 -0.2038 -0.4216  0.3897
  472MOL0     O62196   8.112   5.187  10.145 -0.1115 -0.7531 -0.2756
  472MOL0     C62197   8.029   5.296  10.156 -0.8875  0.7222  0.3017
  472MOL0     C62198   7.896   5.268  10.180  0.3004 -0.1764 -0.3346
  472MOL0     C62199   7.804   5.375  10.189  0.0830 -0.2646  0.1940
  472MOL0     C62200   7.843   5.508  10.178 -0.0433 -0.9895  0.1045
  472MOL0     C62201   7.741   5.610  10.180  0.3744 -0.9689 -0.6913
  472MOL0     O62202   7.609   5.569  10.166  0.1375  0.8483 -0.3243
  472MOL0     C62203   7.511   5.660  10.181 -0.3771 -0.6411  0.4375
  472MOL0     C62204   7.505   5.754  10.288 -0.0178  0.2480  0.0629
  472MOL0     C62205   7.396   5.841  10.316  0.6173  0.3327  0.9357
  472MOL0     C62206   7.286   5.833  10.220 -0.0867 -0.9202 -0.1844
  472MOL0     O62207   7.183   5.926  10.224 -0.2671  0.6816  0.1719
  472MOL0     C62208   7.133   5.965  10.356 -0.2699  0.3068  0.7751
  472MOL0     C62209   7.018   6.061  10.334 -0.0223  0.1256  0.4286
  472MOL0     C62210   6.978   6.114  10.469  0.1048 -0.9433 -0.3476
  472MOL0     C62211   6.874   6.230  10.458 -0.2841 -0.8578 -0.1194
  472MOL0     C62212   6.847   6.286  10.604  0.5212  0.5358  0.6966
  472MOL0     C62213   6.722   6.382  10.614  0.3153 -0.1147 -0.2758
  472MOL0     C62214   6.713   6.480  10.494  0.0946  0.1502  0.0418
  472MOL0     C62215   6.607   6.589  10.528  0.3350  0.5340  0.1835
  472MOL0    Cl62216   6.440   6.521  10.528 -0.1068  0.3003  0.3488
  472MOL0     C62217   7.281   5.727  10.126 -0.4822  0.1535  0.0228
  472MOL0     C62218   7.394   5.643  10.108 -0.7073  0.7757  0.1498
  472MOL0     O62219   7.767   5.730  10.176 -0.0448  0.3552  0.0907
  472MOL0     C62220   7.978   5.533  10.159  0.2611  0.3848  0.2750
  472MOL0     C62221   8.071   5.429  10.145  0.2009  0.3155 -0.2231
  472MOL0     N62222   8.545   5.302  10.130 -0.8380  0.3438 -0.0871
  472MOL0     N62223   8.633   5.372  10.181 -1.2664  0.3210  1.0836
  472MOL0     C62224   9.800   5.278  10.620  0.6225 -0.1490 -0.2416
  472MOL0     C62225   9.908   5.368  10.644  0.2521 -1.1471 -0.0272
  472MOL0     C62226  10.093   5.768  10.641 -0.7445 -0.0650 -0.2070
  472MOL0     C62227  10.187   5.781  10.751  0.4218  0.5668 -0.3463
  472MOL0     C62228  10.288   5.877  10.755  0.5930 -0.6108  0.1626
  472MOL0     C62229  10.295   5.968  10.647  0.3134 -0.0429  0.0778
  472MOL0     O62230  10.387   6.072  10.641  0.6420 -0.1877 -0.0271
  472MOL0     C62231  10.514   6.067  10.707 -0.4278 -0.6759  0.1507
  472MOL0     C62232  10.610   6.142  10.623  0.7359  0.0047 -0.4498
  472MOL0     C62233  10.746   6.146  10.701 -0.8323 -0.2012 -0.4249
  472MOL0     C62234  10.862   6.187  10.618  0.2501 -0.4554 -0.2363
  472MOL0     C62235  10.980   6.160  10.697 -0.5625  0.1000 -0.5522
  472MOL0     C62236  11.082   6.158  10.764 -0.2005  0.1306 -1.3309
  472MOL0     C62237  10.216   5.950  10.537 -0.3545  0.0580  0.5537
  472MOL0     C62238  10.119   5.847  10.530 -0.1670 -1.1136  0.6925
  472MOL0     H62239   9.730   5.579  10.854  0.2987  0.4499  0.8230
  472MOL0     H62240   9.558   5.420  10.809 -1.7696  0.1178 -2.2924
  472MOL0     H62241   9.419   5.324  10.613  1.6202 -0.1487  1.9648
  472MOL0     H62242   9.393   5.193  10.733  1.7675 -4.3729 -0.3037
  472MOL0     H62243   9.394   5.031  10.576 -2.2817 -0.0245 -0.8903
  472MOL0     H62244   9.426   5.151  10.444  1.2564  0.8630  0.1207
  472MOL0     H62245   9.234   5.293  10.503  0.7670  0.6158  0.0616
  472MOL0     H62246   9.171   5.170  10.617  0.4106  0.6842  0.4823
  472MOL0     H62247   9.194   5.152  10.311  2.8716  0.2663  1.9055
  472MOL0     H62248   9.164   5.013  10.405  0.8972 -0.1412 -0.7687
  472MOL0     H62249   8.978   5.127  10.530  0.6750 -2.8586 -0.8093
  472MOL0     H62250   8.930   5.073  10.371  0.5907  0.7433 -2.1748
  472MOL0     H62251   9.023   5.361  10.411  2.5349 -0.9615  0.0231
  472MOL0     H62252   8.852   5.306  10.407  0.1581  1.6090 -0.4296
  472MOL0     H62253   9.065   5.301  10.203  0.8500 -1.4562  3.2169
  472MOL0     H62254   8.935   5.179  10.174 -0.5788 -0.6859  3.0064
  472MOL0     H62255   8.936   5.405  10.058  0.8546 -0.4845  0.7247
  472MOL0     H62256   8.870   5.475  10.211 -1.4785 -0.5388  0.3737
  472MOL0     H62257   8.791   5.224   9.930  0.0776  2.3169 -1.7359
  472MOL0     H62258   8.562   5.102   9.871  1.2002  1.6353  0.3285
  472MOL0     H62259   8.420   5.199   9.897  1.9686  2.4244  0.4224
  472MOL0     H62260   8.473   5.036  10.142 -0.5879  0.0511  0.8117
  472MOL0     H62261   8.445   4.930  10.000 -2.5703  0.2612 -0.7967
  472MOL0     H62262   8.233   5.024   9.973  0.6226 -0.7959 -0.0061
  472MOL0     H62263   8.256   4.987  10.143 -0.2847 -0.2568 -0.2954
  472MOL0     H62264   8.263   5.270  10.025  0.0129  0.3309  1.0431
  472MOL0     H62265   8.309   5.234  10.193  1.6757 -1.5112 -0.4819
  472MOL0     H62266   7.855   5.169  10.199 -1.8704  0.8223  0.5795
  472MOL0     H62267   7.699   5.349  10.204 -0.1716  0.0171 -1.0519
  472MOL0     H62268   7.585   5.753  10.362  1.3825 -4.4986 -1.1561
  472MOL0     H62269   7.406   5.912  10.398  4.4792 -1.0054  1.8476
  472MOL0     H62270   7.212   6.021  10.407 -1.0939  1.4369  0.8534
  472MOL0     H62271   7.106   5.875  10.411 -1.2857  0.8879  1.2627
  472MOL0     H62272   6.930   6.018  10.285 -1.8282  1.3556  2.4215
  472MOL0     H62273   7.056   6.143  10.272  2.6475 -2.2741 -1.3966
  472MOL0     H62274   7.062   6.162  10.521 -2.1588  1.1186  1.6303
  472MOL0     H62275   6.950   6.025  10.525 -2.1265 -0.7327 -1.0414
  472MOL0     H62276   6.912   6.308  10.392 -0.1744  0.2640  1.2392
  472MOL0     H62277   6.786   6.189  10.407  1.3545 -0.8607 -3.2108
  472MOL0     H62278   6.935   6.347  10.627 -0.6137  4.0554 -3.0060
  472MOL0     H62279   6.827   6.200  10.668  0.1180  0.5109  0.5392
  472MOL0     H62280   6.720   6.440  10.707 -3.2347  1.1443 -1.0068
  472MOL0     H62281   6.633   6.319  10.619  0.9349 -0.9440  0.9365
  472MOL0     H62282   6.809   6.526  10.469  0.4974 -0.2584  0.8123
  472MOL0     H62283   6.685   6.417  10.409  0.2204  0.1836 -0.0244
  472MOL0     H62284   6.599   6.676  10.462 -0.4235  2.5001  2.6929
  472MOL0     H62285   6.637   6.624  10.627  1.9410 -3.4237  1.3145
  472MOL0     H62286   7.189   5.719  10.068 -1.2167 -0.1699  1.2088
  472MOL0     H62287   7.399   5.564  10.033  0.6857 -0.8405  1.8382
  472MOL0     H62288   8.016   5.635  10.151 -1.8240  1.0656 -1.9539
  472MOL0     H62289   8.174   5.459  10.130  1.0849 -2.6855 -0.7939
  472MOL0     H62290   9.812   5.202  10.544 -0.1814 -1.9792  1.3979
  472MOL0     H62291   9.993   5.360  10.577  0.5010  0.2750  0.0946
  472MOL0     H62292  10.158   5.716  10.833  0.2268  0.1316 -0.7530
  472MOL0     H62293  10.358   5.892  10.836  0.8716 -1.1408  0.0237
  472MOL0     H62294  10.546   5.964  10.721  3.2397  0.3438  0.2585
  472MOL0     H62295  10.502   6.127  10.799 -2.7413  2.3730 -1.9289
  472MOL0     H62296  10.629   6.079  10.536 -0.4513  1.2650 -1.6669
  472MOL0     H62297  10.574   6.241  10.592  0.2859  0.8023  2.3648
  472MOL0     H62298  10.755   6.045  10.743 -2.5279  1.1653  3.7478
  472MOL0     H62299  10.736   6.210  10.789 -2.0887  1.4556 -1.7030
  472MOL0     H62300  10.869   6.131  10.524 -1.2238 -0.1224 -0.5694
  472MOL0     H62301  10.851   6.293  10.591 -0.9656 -0.8838 -1.6195
  472MOL0     H62302  11.162   6.180  10.832 -0.9907 -0.8014 -0.0400
  472MOL0     H62303  10.228   6.020  10.455  3.0207 -2.8612 -1.7308
  472MOL0     H62304  10.061   5.833  10.439 -0.5252 -1.2829  0.9443
  473MOL0     O62305   9.335   2.183   4.127  0.8849 -0.6801  0.0821
  473MOL0     C62306   9.384   2.162   4.014 -0.3922  0.3839  0.4446
  473MOL0     O62307   9.335   2.085   3.908 -0.4499  0.2110  0.1725
  473MOL0     C62308   9.205   2.042   3.920 -1.0821  1.1566 -0.4132
  473MOL0     C62309   9.174   1.905   3.953 -0.5865 -0.4036 -0.0355
  473MOL0     C62310   9.047   1.868   3.947 -0.0976 -0.2253 -0.6255
  473MOL0     C62311   8.946   1.956   3.921  0.4200  1.6376 -0.2033
  473MOL0     O62312   8.810   1.917   3.924 -0.2891  0.0410 -0.1169
  473MOL0     C62313   8.754   1.838   3.830  0.2795 -0.0947  0.2401
  473MOL0     C62314   8.614   1.793   3.867  0.1284  0.6123 -0.6036
  473MOL0     C62315   8.511   1.890   3.814  0.9841  0.7673 -0.4153
  473MOL0     C62316   8.385   1.897   3.907  0.0959  0.0991  0.0725
  473MOL0     C62317   8.276   1.990   3.872  0.1233 -0.1813 -0.2317
  473MOL0     C62318   8.202   1.953   3.740 -0.3720  0.6042  0.0447
  473MOL0     C62319   8.145   1.805   3.727  0.9726 -1.5870 -0.6810
  473MOL0     C62320   8.069   1.749   3.854 -0.5066 -0.6817  0.4827
  473MOL0     N62321   7.975   1.647   3.819 -0.1466 -0.5115 -0.6173
  473MOL0     C62322   8.006   1.521   3.783 -0.2409  0.2028  0.4986
  473MOL0     C62323   7.888   1.457   3.768  0.6056 -0.4057 -0.4182
  473MOL0     C62324   7.846   1.320   3.729 -0.9223 -0.6903  1.3444
  473MOL0     C62325   7.808   1.238   3.851  0.0150 -0.3591 -0.7764
  473MOL0     C62326   7.781   1.087   3.805 -0.4932 -1.3896 -1.2823
  473MOL0     C62327   7.716   0.993   3.902 -0.1404  0.4615 -0.3940
  473MOL0     O62328   7.821   0.936   3.975 -0.1270  0.3019  0.0919
  473MOL0     C62329   7.880   0.830   3.925 -1.1653  0.6415  0.5704
  473MOL0     C62330   7.996   0.789   3.987 -0.3704 -0.3392  0.0293
  473MOL0     C62331   8.075   0.679   3.957  0.0141 -0.7512  0.0715
  473MOL0     C62332   8.032   0.597   3.853 -0.3314  0.5575  0.5654
  473MOL0     C62333   8.118   0.492   3.796  0.8032  0.0729 -1.0404
  473MOL0     O62334   8.232   0.471   3.865 -0.7699  0.4432  0.0410
  473MOL0     C62335   8.301   0.356   3.835  0.0329  0.0805  0.0011
  473MOL0     C62336   8.270   0.235   3.891  0.3827 -0.1265 -0.5575
  473MOL0     C62337   8.349   0.120   3.863 -0.2286 -0.3167 -0.7474
  473MOL0     C62338   8.446   0.119   3.764  0.4029  0.8941 -0.8179
  473MOL0     O62339   8.531   0.015   3.730  0.4805 -0.1541  0.1549
  473MOL0     C62340   8.533  -0.106   3.808  1.3021  0.2085  0.5212
  473MOL0     C62341   8.605  -0.220   3.744 -0.1710  0.3016 -0.0053
  473MOL0     C62342   8.759  -0.222   3.762 -0.6115  0.0760 -0.5050
  473MOL0     C62343   8.827  -0.344   3.703  0.7445 -0.1796  0.3558
  473MOL0     C62344   8.912  -0.303   3.585 -0.9592 -0.3958  0.2669
  473MOL0     C62345   8.982  -0.425   3.525 -1.0777 -0.1018  0.0799
  473MOL0     C62346   9.096  -0.398   3.422 -0.2881  1.0487  1.4243
  473MOL0     C62347   9.160  -0.533   3.374 -0.7740 -0.6558  1.0607
  473MOL0    Cl62348   9.040  -0.605   3.259 -0.2432 -0.1336  0.0710
  473MOL0     C62349   8.476   0.247   3.706  0.2242 -0.3857 -0.6234
  473MOL0     C62350   8.404   0.364   3.734  0.5577  0.0619 -0.2386
  473MOL0     O62351   8.073   0.417   3.710  0.2924  0.2328 -0.1310
  473MOL0     C62352   7.917   0.625   3.794  0.1383  0.0977  0.8775
  473MOL0     C62353   7.834   0.733   3.825  0.2675  0.4765 -0.4589
  473MOL0     N62354   7.791   1.548   3.802 -0.2682 -0.3539  0.2297
  473MOL0     N62355   7.843   1.661   3.840  0.4494  0.1536 -0.1687
  473MOL0     C62356   8.969   2.089   3.885  0.7545 -0.9088  0.8224
  473MOL0     C62357   9.096   2.136   3.879 -0.4652  0.8002  0.7885
  473MOL0     C62358   9.520   2.221   3.993  0.2226 -0.7392 -0.0301
  473MOL0     C62359   9.575   2.331   4.070 -0.4478  0.5351  0.4430
  473MOL0     C62360   9.711   2.364   4.045  0.5280  0.3053 -0.1964
  473MOL0     C62361   9.779   2.309   3.940  0.1018 -0.6159  1.0836
  473MOL0     O62362   9.906   2.361   3.934 -0.2970 -0.0957  0.1448
  473MOL0     C62363   9.986   2.318   3.821  0.2466  0.3884 -0.4308
  473MOL0     C62364  10.129   2.361   3.851  0.8845 -0.8537  0.2278
  473MOL0     C62365  10.237   2.315   3.749  0.5171 -0.7436 -0.3486
  473MOL0     C62366  10.262   2.419   3.639 -0.3241  0.2212  0.3793
  473MOL0     C62367  10.331   2.548   3.677  0.7140  0.7077 -0.4858
  473MOL0     C62368  10.378   2.656   3.697  0.0777  0.9579  1.2334
  473MOL0     C62369   9.714   2.215   3.861 -0.0052 -0.1248 -0.0531
  473MOL0     C62370   9.587   2.168   3.884  0.3382 -0.2553  0.7016
  473MOL0     H62371   9.257   1.839   3.980  1.9662  1.7340 -2.0432
  473MOL0     H62372   9.023   1.766   3.978  1.3130  0.1553  2.0038
  473MOL0     H62373   8.823   1.753   3.834  0.6032  0.0039 -1.9716
  473MOL0     H62374   8.750   1.881   3.730 -0.4044 -1.4611 -0.3558
  473MOL0     H62375   8.606   1.778   3.976  2.3511 -2.0779 -0.7019
  473MOL0     H62376   8.591   1.702   3.811 -0.7331  2.3274 -3.2270
  473MOL0     H62377   8.471   1.856   3.718 -2.5459 -0.2931  1.2745
  473MOL0     H62378   8.560   1.987   3.804 -2.1404  2.5037 -0.0927
  473MOL0     H62379   8.340   1.798   3.903  0.5792 -0.1413  0.5746
  473MOL0     H62380   8.417   1.928   4.007  3.3610 -1.2625 -0.4449
  473MOL0     H62381   8.325   2.088   3.872  1.5774 -0.7871  3.0168
  473MOL0     H62382   8.205   2.002   3.954  0.4765  0.5601 -0.0323
  473MOL0     H62383   8.283   1.965   3.667  0.5491  0.7916  1.0705
  473MOL0     H62384   8.128   2.030   3.716  1.5403  2.6680  0.4312
  473MOL0     H62385   8.075   1.816   3.643  0.8672 -0.8043 -0.5037
  473MOL0     H62386   8.230   1.741   3.702  0.9462 -1.8658 -0.0856
  473MOL0     H62387   8.034   1.832   3.915  1.2501  0.9485 -0.6223
  473MOL0     H62388   8.146   1.697   3.911 -0.0771 -0.6608 -0.0691
  473MOL0     H62389   8.106   1.488   3.755  0.5841  2.9325 -0.0884
  473MOL0     H62390   7.932   1.265   3.690 -1.0226  2.2352 -3.9344
  473MOL0     H62391   7.761   1.340   3.664  2.0315  1.2634 -2.3021
  473MOL0     H62392   7.732   1.287   3.913  1.7538  1.0781  0.3368
  473MOL0     H62393   7.891   1.233   3.921  1.6451 -0.6545 -2.6445
  473MOL0     H62394   7.708   1.092   3.724 -0.6015 -1.7534 -1.2091
  473MOL0     H62395   7.877   1.040   3.784  1.1604  0.8585  0.7178
  473MOL0     H62396   7.656   0.918   3.848 -2.4404  2.9289 -1.5268
  473MOL0     H62397   7.650   1.054   3.966 -2.0393 -0.1509 -1.6709
  473MOL0     H62398   8.044   0.864   4.049  1.5305 -0.3740 -1.3010
  473MOL0     H62399   8.171   0.663   4.004 -0.5433 -1.0694  1.1443
  473MOL0     H62400   8.188   0.229   3.962 -0.5256  0.7440 -1.4909
  473MOL0     H62401   8.328   0.028   3.916 -0.5300  0.0243 -0.2761
  473MOL0     H62402   8.428  -0.139   3.813  1.0548  0.9851  0.6635
  473MOL0     H62403   8.576  -0.082   3.906  1.6750 -1.3878  0.7628
  473MOL0     H62404   8.592  -0.221   3.636  1.3668  1.9613 -0.2428
  473MOL0     H62405   8.565  -0.308   3.795 -1.7988 -1.4290 -3.8787
  473MOL0     H62406   8.772  -0.218   3.870 -0.9551 -0.4405 -0.4382
  473MOL0     H62407   8.794  -0.131   3.713 -0.5986  0.6238  0.4972
  473MOL0     H62408   8.898  -0.381   3.778  3.5287  0.2914 -1.8516
  473MOL0     H62409   8.759  -0.427   3.683  1.1657 -0.2254 -0.9871
  473MOL0     H62410   8.987  -0.229   3.614  0.7441 -2.5773  1.7884
  473MOL0     H62411   8.844  -0.256   3.513 -1.7768  1.0266  1.8881
  473MOL0     H62412   8.909  -0.497   3.484  0.3388 -1.2260 -0.5746
  473MOL0     H62413   9.037  -0.473   3.606  0.1311  3.2229  1.3995
  473MOL0     H62414   9.045  -0.351   3.338  0.3485  0.4713  0.6886
  473MOL0     H62415   9.176  -0.334   3.460  0.8878  0.5877 -0.1817
  473MOL0     H62416   9.164  -0.604   3.457  2.3042 -1.0139  0.7194
  473MOL0     H62417   9.262  -0.519   3.337 -1.9591  0.5059 -2.2167
  473MOL0     H62418   8.568   0.268   3.651  1.7991  1.8704  2.5256
  473MOL0     H62419   8.426   0.452   3.676  0.1644 -1.4837 -2.9202
  473MOL0     H62420   7.885   0.574   3.704  1.1399  1.8744 -0.5667
  473MOL0     H62421   7.739   0.750   3.775 -1.1180 -0.0992  1.8441
  473MOL0     H62422   8.887   2.147   3.842  2.3627  0.5117 -0.4949
  473MOL0     H62423   9.118   2.229   3.827 -0.4148 -0.6376 -1.9713
  473MOL0     H62424   9.508   2.372   4.145 -2.7488 -0.4546 -0.9685
  473MOL0     H62425   9.758   2.444   4.100  1.7984  0.6344 -1.6893
  473MOL0     H62426   9.946   2.355   3.726 -0.6884  2.2784  0.6526
  473MOL0     H62427   9.989   2.209   3.824  0.3061  0.3946 -0.2497
  473MOL0     H62428  10.125   2.469   3.869 -0.0591 -0.7958 -0.2801
  473MOL0     H62429  10.156   2.322   3.950 -0.3388  0.7784  1.2712
  473MOL0     H62430  10.215   2.214   3.712 -1.0340 -0.4064 -0.4077
  473MOL0     H62431  10.328   2.299   3.808  1.1613  1.4786 -0.6581
  473MOL0     H62432  10.345   2.391   3.573  1.3548  1.3376  1.9139
  473MOL0     H62433  10.162   2.432   3.596 -1.5340 -0.9880  2.6793
  473MOL0     H62434  10.438   2.745   3.706  0.4583  0.6093  2.2855
  473MOL0     H62435   9.764   2.173   3.774  2.4444  0.1884  1.1119
  473MOL0     H62436   9.557   2.093   3.812 -1.3985  0.8241  0.2420
  474MOL0     O62437  10.214  11.328   4.058  0.6233  0.4304 -0.7112
  474MOL0     C62438  10.126  11.330   4.148 -0.4792 -0.5307 -0.5583
  474MOL0     O62439   9.990  11.338   4.137 -0.4853  0.4059 -0.3517
  474MOL0     C62440   9.925  11.332   4.015  1.2392 -1.0351  0.4926
  474MOL0     C62441   9.785  11.356   4.016 -0.2794 -0.4389  0.4073
  474MOL0     C62442   9.713  11.354   3.901  0.0342 -0.3644  1.1778
  474MOL0     C62443   9.771  11.328   3.777 -0.2099  1.0886 -0.1090
  474MOL0     O62444   9.677  11.304   3.679 -0.1939  0.6514  0.5423
  474MOL0     C62445   9.716  11.258   3.544 -0.1771  0.5090 -0.3060
  474MOL0     C62446   9.746  11.108   3.536 -0.3089 -1.4940 -0.1396
  474MOL0     C62447   9.623  11.017   3.561 -0.8216 -0.5863 -0.0168
  474MOL0     C62448   9.570  11.005   3.707 -0.7730  0.0906  0.3911
  474MOL0     C62449   9.439  10.922   3.695  0.6709  0.1188  0.3064
  474MOL0     C62450   9.460  10.772   3.676  0.3087 -0.7827  0.5533
  474MOL0     C62451   9.501  10.703   3.804  0.5441 -0.0463  0.4938
  474MOL0     C62452   9.381  10.692   3.900 -0.7817 -0.3780  0.0718
  474MOL0     N62453   9.262  10.629   3.856  0.9375  0.4810  1.1200
  474MOL0     C62454   9.226  10.494   3.854 -0.1359 -0.5667  0.1653
  474MOL0     C62455   9.098  10.485   3.820  0.1422 -0.1445 -0.1328
  474MOL0     C62456   9.011  10.362   3.813 -0.4670  0.6769 -0.7646
  474MOL0     C62457   8.951  10.365   3.946 -0.7422  0.1949  0.4195
  474MOL0     C62458   8.845  10.261   3.940  0.4656  0.0016 -0.0957
  474MOL0     C62459   8.781  10.266   4.076  0.6266 -0.2703  0.8766
  474MOL0     O62460   8.703  10.154   4.097 -0.4679  0.5059  0.2824
  474MOL0     C62461   8.655  10.135   4.227 -0.6455 -0.3440 -0.4112
  474MOL0     C62462   8.702  10.204   4.347 -0.0471  0.3350 -0.0040
  474MOL0     C62463   8.631  10.191   4.466  0.1895 -0.8724  0.4140
  474MOL0     C62464   8.533  10.089   4.488  1.0142 -0.2989  0.5025
  474MOL0     C62465   8.471  10.052   4.618 -0.5166  0.1183 -0.4897
  474MOL0     O62466   8.349   9.985   4.616  0.3248 -0.1409  0.0643
  474MOL0     C62467   8.291   9.950   4.735 -1.0971 -0.5465 -0.3788
  474MOL0     C62468   8.164   9.998   4.775 -1.0952 -0.2128  0.4660
  474MOL0     C62469   8.098   9.948   4.885 -0.0003  0.3482 -0.7185
  474MOL0     C62470   8.169   9.867   4.969 -0.2786 -0.1194  0.2961
  474MOL0     O62471   8.135   9.815   5.094 -0.1706 -0.9457  0.3720
  474MOL0     C62472   8.048   9.910   5.166  0.8409  0.1879 -0.3483
  474MOL0     C62473   8.055   9.887   5.314  0.3656  0.1425 -0.2314
  474MOL0     C62474   7.961   9.971   5.395  0.7911 -1.3239  0.3029
  474MOL0     C62475   8.042  10.068   5.498 -0.1738 -0.1430  0.4175
  474MOL0     C62476   7.946  10.148   5.594  1.1977  0.0124 -0.1633
  474MOL0     C62477   7.985  10.183   5.732  0.8869 -0.2331 -0.2010
  474MOL0     C62478   8.118  10.260   5.741 -0.5818 -0.1017 -0.0830
  474MOL0     C62479   8.114  10.407   5.695 -0.5772 -0.7647  0.1556
  474MOL0    Cl62480   8.069  10.512   5.831 -0.5900  0.5535  0.0121
  474MOL0     C62481   8.298   9.820   4.933  0.3806  0.4206  0.0162
  474MOL0     C62482   8.363   9.864   4.819 -0.0424 -0.1771 -0.4558
  474MOL0     O62483   8.529  10.106   4.714  0.2305 -0.0996 -0.3997
  474MOL0     C62484   8.504  10.009   4.379  0.9900  0.3501  0.1088
  474MOL0     C62485   8.558  10.036   4.248  0.4305  0.1617 -0.7698
  474MOL0     N62486   9.057  10.617   3.792  0.2770 -0.3149  0.8132
  474MOL0     N62487   9.153  10.703   3.813  0.2915 -0.3299  0.1624
  474MOL0     C62488   9.908  11.305   3.768 -0.0855 -0.2515 -1.1161
  474MOL0     C62489   9.980  11.297   3.888  0.9625 -0.6418  0.3929
  474MOL0     C62490  10.170  11.343   4.286  0.1131 -0.0996 -0.5967
  474MOL0     C62491  10.302  11.315   4.312 -0.0607 -0.2895 -0.0419
  474MOL0     C62492  10.352  11.332   4.450 -0.2111  0.7528  1.0518
  474MOL0     C62493  10.271  11.358   4.558  0.6880  0.0183  0.8211
  474MOL0     O62494  10.327  11.352   4.678 -0.4147 -0.4746 -0.0042
  474MOL0     C62495  10.256  11.364   4.806  0.5107  0.4418 -0.4214
  474MOL0     C62496  10.149  11.270   4.849 -0.1004  0.2556 -0.0386
  474MOL0     C62497  10.194  11.130   4.891 -0.9630 -0.2898 -0.1198
  474MOL0     C62498  10.084  11.030   4.881 -0.3105 -0.5100  0.7463
  474MOL0     C62499  10.032  11.011   4.741 -0.3532 -0.8854 -0.1136
  474MOL0     C62500   9.984  10.979   4.639  0.4973  0.2084  0.8798
  474MOL0     C62501  10.132  11.369   4.533  0.6022 -0.3861  0.1260
  474MOL0     C62502  10.086  11.363   4.400  0.5736 -0.3284  0.9535
  474MOL0     H62503   9.735  11.379   4.110 -4.5214 -0.5089 -1.6170
  474MOL0     H62504   9.605  11.367   3.894  0.1834  1.7974  2.0709
  474MOL0     H62505   9.793  11.315   3.490 -0.0891 -1.3391 -2.2569
  474MOL0     H62506   9.624  11.257   3.486 -0.4277  0.0854  0.0923
  474MOL0     H62507   9.828  11.087   3.606  1.6897  3.9254 -0.4084
  474MOL0     H62508   9.779  11.086   3.434 -1.0925 -0.9318 -0.5184
  474MOL0     H62509   9.652  10.921   3.517 -0.4512  0.1678 -1.4900
  474MOL0     H62510   9.536  11.054   3.506  0.2061  1.9179 -0.0441
  474MOL0     H62511   9.649  10.965   3.773 -0.3792 -2.3069 -1.3885
  474MOL0     H62512   9.540  11.101   3.750  0.2843 -1.0183  4.0093
  474MOL0     H62513   9.372  10.957   3.617 -2.4689 -2.3675  1.6350
  474MOL0     H62514   9.381  10.933   3.787 -0.8784 -1.1659 -0.4688
  474MOL0     H62515   9.537  10.755   3.600  1.0190 -2.8627  1.6719
  474MOL0     H62516   9.366  10.729   3.643  1.3526 -1.6498 -1.4679
  474MOL0     H62517   9.531  10.601   3.778 -3.6414 -1.7998  1.8147
  474MOL0     H62518   9.591  10.744   3.851  1.2849 -2.5963  1.4747
  474MOL0     H62519   9.349  10.793   3.925 -2.2388 -0.5207 -1.0707
  474MOL0     H62520   9.418  10.641   3.990 -1.5802  0.9151  1.1712
  474MOL0     H62521   9.283  10.407   3.885  0.4012 -1.4957 -3.0775
  474MOL0     H62522   9.074  10.274   3.796 -1.1057  0.0753 -0.0826
  474MOL0     H62523   8.934  10.370   3.736 -1.0509  2.3091 -0.0513
  474MOL0     H62524   8.897  10.460   3.958 -1.1281  0.0514 -0.1096
  474MOL0     H62525   9.030  10.347   4.019 -0.9089  1.1479  0.8584
  474MOL0     H62526   8.764  10.261   3.867  0.6906  2.1275 -0.4055
  474MOL0     H62527   8.892  10.164   3.925  1.0908 -0.2803  2.8813
  474MOL0     H62528   8.723  10.356   4.098  1.0261  0.1673  0.1660
  474MOL0     H62529   8.858  10.247   4.151 -0.4792 -2.9497  1.4277
  474MOL0     H62530   8.781  10.279   4.343 -0.2816  0.5412 -1.5703
  474MOL0     H62531   8.680  10.236   4.552  1.5961 -2.7175  0.6398
  474MOL0     H62532   8.117  10.073   4.713 -0.3598 -0.2207 -0.1208
  474MOL0     H62533   7.997   9.984   4.901  0.5865  1.8116 -0.1611
  474MOL0     H62534   7.943   9.892   5.142  1.3678 -1.6275 -1.4791
  474MOL0     H62535   8.079  10.009   5.132  2.5510 -1.7841 -5.5919
  474MOL0     H62536   8.159   9.897   5.345  0.4892  0.3144 -0.7045
  474MOL0     H62537   8.009   9.788   5.329 -3.3905  1.8056  0.3169
  474MOL0     H62538   7.889   9.919   5.459  0.4571 -1.9921 -0.5982
  474MOL0     H62539   7.909  10.045   5.333  1.4509  0.6860  2.0089
  474MOL0     H62540   8.098   9.997   5.561  0.6707  1.2472  1.2776
  474MOL0     H62541   8.111  10.135   5.446  2.4487 -2.3104  0.8158
  474MOL0     H62542   7.857  10.087   5.609  2.1123 -1.5964 -0.9655
  474MOL0     H62543   7.920  10.236   5.535  1.7527 -0.2797 -0.8604
  474MOL0     H62544   8.011  10.089   5.780  4.4281  0.8406  0.3106
  474MOL0     H62545   7.905  10.236   5.784 -2.4255 -4.1087 -0.8685
  474MOL0     H62546   8.150  10.265   5.845  1.0833 -0.7742 -0.5160
  474MOL0     H62547   8.196  10.202   5.689  1.5150  0.7709  1.9173
  474MOL0     H62548   8.036  10.420   5.620 -0.0165  1.1996 -0.1441
  474MOL0     H62549   8.211  10.440   5.656 -1.3035  0.5774 -0.5874
  474MOL0     H62550   8.329   9.748   5.008 -0.7272  1.4640  1.5238
  474MOL0     H62551   8.463   9.832   4.794 -0.4532 -0.4800 -1.7600
  474MOL0     H62552   8.430   9.933   4.403  1.9303 -0.0794  1.7534
  474MOL0     H62553   8.526   9.966   4.171  0.9979  2.4417 -3.2510
  474MOL0     H62554   9.940  11.270   3.671 -2.1600 -1.1483 -1.5333
  474MOL0     H62555  10.077  11.252   3.872 -0.2749 -2.6781 -2.0533
  474MOL0     H62556  10.377  11.293   4.237  1.5209  1.3818  0.9367
  474MOL0     H62557  10.458  11.321   4.468  0.0679  0.1572 -0.7287
  474MOL0     H62558  10.205  11.460   4.809  0.9803  0.7038 -0.6927
  474MOL0     H62559  10.326  11.376   4.889 -1.0802  3.2932  0.6309
  474MOL0     H62560  10.097  11.324   4.929 -0.5596 -0.1564 -0.0536
  474MOL0     H62561  10.069  11.260   4.775 -1.2360  1.8130  0.9083
  474MOL0     H62562  10.251  11.123   4.984 -4.2252  1.2561  2.1571
  474MOL0     H62563  10.275  11.100   4.823 -3.1687 -1.2237 -2.5035
  474MOL0     H62564  10.134  10.938   4.912 -0.1896 -0.7956 -0.2697
  474MOL0     H62565   9.997  11.059   4.941 -0.1165 -2.6815  2.1859
  474MOL0     H62566   9.946  10.957   4.541  1.6773 -0.3076  0.5066
  474MOL0     H62567  10.056  11.387   4.610  1.0413 -0.5781  0.6093
  474MOL0     H62568   9.979  11.380   4.389  0.1253 -2.1481  2.0676
  475MOL0     O62569   7.640   7.625   7.014  0.4262 -0.6287  0.6373
  475MOL0     C62570   7.614   7.638   6.893  0.7480 -0.2757  0.1591
  475MOL0     O62571   7.687   7.589   6.785 -0.2627 -0.9897  0.6206
  475MOL0     C62572   7.810   7.532   6.808 -0.5666 -0.1690  0.1484
  475MOL0     C62573   7.904   7.541   6.707  0.9865  0.0047 -0.0035
  475MOL0     C62574   8.035   7.497   6.724 -0.2771  0.6899 -0.8984
  475MOL0     C62575   8.076   7.454   6.847 -0.0920 -0.7950 -0.0251
  475MOL0     O62576   8.205   7.419   6.884  0.1045 -0.3362 -0.0433
  475MOL0     C62577   8.315   7.471   6.803  1.1194  0.0107 -0.3629
  475MOL0     C62578   8.439   7.485   6.893 -0.3440 -0.9274  0.1687
  475MOL0     C62579   8.569   7.548   6.827  0.4829 -0.1798 -0.4708
  475MOL0     C62580   8.614   7.466   6.710 -0.2187  0.8743  0.7258
  475MOL0     C62581   8.734   7.530   6.625 -0.0712  0.2603 -0.4298
  475MOL0     C62582   8.859   7.561   6.704  0.6208 -0.3629  0.2394
  475MOL0     C62583   8.911   7.436   6.788  0.8424 -1.0058  1.0830
  475MOL0     C62584   9.035   7.456   6.884  0.0510 -0.8783  0.3934
  475MOL0     N62585   9.007   7.565   6.978 -0.1258  0.5317 -0.3786
  475MOL0     C62586   8.898   7.567   7.066 -0.5998  0.1635 -0.1786
  475MOL0     C62587   8.917   7.689   7.118 -0.1693  0.1078 -0.2351
  475MOL0     C62588   8.818   7.761   7.204  0.7961 -0.0518  0.6695
  475MOL0     C62589   8.689   7.781   7.120  0.0544 -0.2137 -0.1813
  475MOL0     C62590   8.618   7.898   7.184 -0.5694 -0.2891 -0.5530
  475MOL0     C62591   8.516   7.956   7.086  0.2018 -0.0904  0.3310
  475MOL0     O62592   8.427   7.857   7.030  0.4433 -0.5615  0.1099
  475MOL0     C62593   8.300   7.895   6.986  0.6344 -0.0597  0.5244
  475MOL0     C62594   8.258   8.029   6.978  0.1194 -0.0450  0.3019
  475MOL0     C62595   8.130   8.060   6.942  0.9450 -0.4950  0.1098
  475MOL0     C62596   8.032   7.961   6.922 -0.5687  0.4182  0.4870
  475MOL0     C62597   7.890   8.004   6.881 -1.0358 -0.1356  0.0041
  475MOL0     O62598   7.851   8.136   6.895  0.5196  0.4280 -0.9382
  475MOL0     C62599   7.724   8.175   6.875  0.5169  0.3957  0.1585
  475MOL0     C62600   7.614   8.089   6.867  0.4066  0.4206 -0.1422
  475MOL0     C62601   7.492   8.146   6.848  0.6192 -1.2339  0.4569
  475MOL0     C62602   7.470   8.284   6.821  0.7393  0.4757 -0.0801
  475MOL0     O62603   7.339   8.333   6.801  0.9358 -0.9722 -0.4488
  475MOL0     C62604   7.316   8.478   6.776 -0.6057 -0.1092 -1.1387
  475MOL0     C62605   7.175   8.505   6.713  0.7160 -0.2621 -0.5157
  475MOL0     C62606   7.066   8.457   6.809 -1.0329  0.7800 -0.1111
  475MOL0     C62607   6.920   8.473   6.750  0.1786  1.0493 -0.1187
  475MOL0     C62608   6.886   8.381   6.642  0.1404 -0.2203  0.8513
  475MOL0     C62609   6.779   8.446   6.547 -0.7519 -0.0984  0.7444
  475MOL0     C62610   6.844   8.550   6.447  0.3450 -0.0049  0.2100
  475MOL0     C62611   6.739   8.655   6.396  0.3909  0.3501  0.3156
  475MOL0    Cl62612   6.709   8.757   6.538  0.1578  0.2514 -0.5846
  475MOL0     C62613   7.578   8.367   6.841  0.7222 -0.1656 -0.0676
  475MOL0     C62614   7.704   8.315   6.863 -1.0837  0.1985  1.1148
  475MOL0     O62615   7.829   7.904   6.840  0.3414 -0.6084  0.4252
  475MOL0     C62616   8.075   7.827   6.926 -0.6440  0.4301  0.2432
  475MOL0     C62617   8.203   7.793   6.964 -0.4260  0.2216  0.4904
  475MOL0     N62618   9.038   7.753   7.082  0.0768  0.2296  0.3451
  475MOL0     N62619   9.092   7.672   6.992  0.4073 -0.2106 -0.2844
  475MOL0     C62620   7.985   7.429   6.944 -0.0758  0.3408 -0.5409
  475MOL0     C62621   7.852   7.463   6.928  0.0602 -0.0248  0.3959
  475MOL0     C62622   7.488   7.710   6.859 -0.1409 -0.2919  0.1621
  475MOL0     C62623   7.389   7.746   6.958 -0.8916 -0.9205  0.7620
  475MOL0     C62624   7.290   7.833   6.915  0.2469  0.7915  0.8597
  475MOL0     C62625   7.259   7.869   6.783  1.2957 -0.2835 -1.6213
  475MOL0     O62626   7.148   7.947   6.763  0.0424 -0.6386 -0.5533
  475MOL0     C62627   7.085   7.927   6.636  1.0171 -0.1671 -0.5029
  475MOL0     C62628   6.948   7.981   6.637  0.1943  0.0426 -0.6744
  475MOL0     C62629   6.855   7.943   6.530 -0.1663 -0.2274  0.9465
  475MOL0     C62630   6.714   7.952   6.555  0.0761 -0.0124  0.0983
  475MOL0     C62631   6.639   7.836   6.615 -0.0302  0.3856  0.1567
  475MOL0     C62632   6.578   7.748   6.682 -0.3801 -0.6166  0.6796
  475MOL0     C62633   7.348   7.828   6.689 -0.7740 -0.8328 -0.0845
  475MOL0     C62634   7.463   7.755   6.731  0.1479  1.3126  0.9560
  475MOL0     H62635   7.872   7.579   6.611 -0.9106 -1.8750 -0.1798
  475MOL0     H62636   8.106   7.509   6.643 -0.1137 -1.0116 -1.0612
  475MOL0     H62637   8.305   7.566   6.749  0.3875  0.4492  0.5225
  475MOL0     H62638   8.340   7.399   6.725  1.4517 -1.6225  1.1931
  475MOL0     H62639   8.469   7.386   6.927 -3.6603 -2.4541 -0.9410
  475MOL0     H62640   8.412   7.543   6.981  2.8155 -1.6648  1.7666
  475MOL0     H62641   8.643   7.557   6.908  0.1922  0.0320 -0.2273
  475MOL0     H62642   8.536   7.649   6.800 -0.0018  0.1523  1.2455
  475MOL0     H62643   8.648   7.365   6.738  1.4404  1.2088  0.0145
  475MOL0     H62644   8.537   7.461   6.633  1.4012  0.6115 -0.9340
  475MOL0     H62645   8.698   7.619   6.572  0.9576 -1.1097 -3.7175
  475MOL0     H62646   8.754   7.450   6.553 -1.6717 -1.5315  1.0234
  475MOL0     H62647   8.850   7.647   6.771 -2.8693  0.1891 -0.7358
  475MOL0     H62648   8.938   7.592   6.635 -0.5474  3.0634  0.2204
  475MOL0     H62649   8.837   7.402   6.862  1.2717 -1.7697  1.1693
  475MOL0     H62650   8.927   7.352   6.720 -1.0914 -0.7635  0.2647
  475MOL0     H62651   9.121   7.484   6.823 -1.0186  1.0473 -0.3455
  475MOL0     H62652   9.059   7.365   6.940  2.2751  1.1091  2.9203
  475MOL0     H62653   8.813   7.501   7.080 -1.2334  0.4243 -2.3967
  475MOL0     H62654   8.862   7.856   7.235 -1.2529  0.4208  2.3712
  475MOL0     H62655   8.794   7.693   7.286 -0.1104  0.1626  0.5932
  475MOL0     H62656   8.624   7.693   7.125  1.3815 -1.2279 -0.2627
  475MOL0     H62657   8.717   7.807   7.018  0.2195  2.6701  0.5333
  475MOL0     H62658   8.573   7.868   7.279  0.0347 -0.4175 -0.3018
  475MOL0     H62659   8.686   7.980   7.211  0.4378 -0.7876 -1.4808
  475MOL0     H62660   8.567   8.010   7.005 -0.2990 -0.5620 -0.3156
  475MOL0     H62661   8.468   8.044   7.131 -0.0314  3.0790 -5.1772
  475MOL0     H62662   8.326   8.112   6.995 -1.1008  1.6734 -2.4452
  475MOL0     H62663   8.095   8.163   6.937  1.5184 -0.2950  0.0114
  475MOL0     H62664   7.626   7.981   6.863  0.9676  0.5119 -2.1163
  475MOL0     H62665   7.405   8.081   6.848  0.6603 -1.3028  1.2711
  475MOL0     H62666   7.397   8.499   6.706  1.3124 -5.1522 -0.8663
  475MOL0     H62667   7.320   8.538   6.866  1.1135  0.3690 -1.5137
  475MOL0     H62668   7.169   8.457   6.614  0.9002  0.4176 -0.8612
  475MOL0     H62669   7.154   8.611   6.695 -0.0100 -0.1852  0.7080
  475MOL0     H62670   7.074   8.511   6.904  0.4380  1.3685 -0.5385
  475MOL0     H62671   7.081   8.350   6.822  0.3880  0.2329 -4.6771
  475MOL0     H62672   6.849   8.447   6.829  2.1554 -0.2092  1.3577
  475MOL0     H62673   6.911   8.576   6.713 -0.5963  0.0445 -2.9442
  475MOL0     H62674   6.849   8.289   6.687 -1.9326 -0.9771 -2.0771
  475MOL0     H62675   6.979   8.357   6.590  1.0267  3.4727  0.3977
  475MOL0     H62676   6.691   8.487   6.597  0.5846  1.1019  2.2191
  475MOL0     H62677   6.744   8.363   6.485 -1.4245 -0.6254  1.8023
  475MOL0     H62678   6.927   8.612   6.484  1.0658 -0.5833 -0.3953
  475MOL0     H62679   6.879   8.495   6.359 -0.4169  0.8426 -0.6388
  475MOL0     H62680   6.639   8.626   6.361  1.0938  0.7830 -2.2709
  475MOL0     H62681   6.765   8.714   6.308 -0.0074 -2.0420 -1.4996
  475MOL0     H62682   7.578   8.475   6.852  2.1842 -0.0744 -0.6422
  475MOL0     H62683   7.791   8.377   6.881 -0.4696 -1.1381  3.1261
  475MOL0     H62684   8.014   7.740   6.906 -2.1750  1.0727  1.8932
  475MOL0     H62685   8.232   7.689   6.970 -0.9009 -0.0351 -1.1446
  475MOL0     H62686   8.020   7.381   7.035 -0.8309  0.7008 -0.0519
  475MOL0     H62687   7.788   7.444   7.013  1.2164  1.1151  1.5756
  475MOL0     H62688   7.411   7.724   7.062  1.4912 -0.7018  0.3730
  475MOL0     H62689   7.239   7.881   6.998  1.8580  0.5948  2.0073
  475MOL0     H62690   7.071   7.818   6.633 -3.2968  0.1353  1.4181
  475MOL0     H62691   7.141   7.963   6.549 -0.8314  1.0502 -1.2315
  475MOL0     H62692   6.901   7.965   6.734  1.6877 -1.5934 -0.1892
  475MOL0     H62693   6.950   8.091   6.633  0.9014  0.0918  0.6891
  475MOL0     H62694   6.868   7.840   6.495  0.4951 -2.1100  5.9038
  475MOL0     H62695   6.885   8.013   6.451  0.3171  2.7276  3.5718
  475MOL0     H62696   6.684   8.035   6.620 -1.2645 -1.5123  1.4884
  475MOL0     H62697   6.660   7.965   6.461 -1.5624 -1.6402  0.7501
  475MOL0     H62698   6.518   7.674   6.733 -0.1176 -0.5738  1.0516
  475MOL0     H62699   7.314   7.852   6.589  0.2549  1.8050  0.0946
  475MOL0     H62700   7.542   7.744   6.658 -1.3735  1.9532 -0.8575
  476MOL0     O62701   3.607   1.154   2.050 -0.2603 -0.6195  0.3354
  476MOL0     C62702   3.609   1.061   1.971 -0.7155  0.1664 -0.0526
  476MOL0     O62703   3.527   1.054   1.860  0.1145  0.5055 -0.4915
  476MOL0     C62704   3.426   1.147   1.849 -0.9073  1.5804 -0.0646
  476MOL0     C62705   3.321   1.154   1.933 -0.3073 -0.1794  0.2399
  476MOL0     C62706   3.200   1.222   1.892  0.6869 -0.0798 -0.0856
  476MOL0     C62707   3.209   1.300   1.778  1.0159  0.0635 -0.0776
  476MOL0     O62708   3.101   1.366   1.717 -0.3901  0.2722 -0.0992
  476MOL0     C62709   2.988   1.384   1.808  0.5020  0.7557 -0.2941
  476MOL0     C62710   2.885   1.444   1.720 -0.3730 -0.1346 -0.6768
  476MOL0     C62711   2.748   1.437   1.784  0.3837  0.1833 -0.2537
  476MOL0     C62712   2.639   1.512   1.715 -0.3693  0.2596  0.3234
  476MOL0     C62713   2.510   1.521   1.791 -0.5196 -0.3809  0.4939
  476MOL0     C62714   2.501   1.658   1.854 -0.7320 -0.4243 -1.0900
  476MOL0     C62715   2.361   1.709   1.904  0.2081 -0.0144 -0.1592
  476MOL0     C62716   2.379   1.820   1.997 -0.8493  0.5841  0.3787
  476MOL0     N62717   2.261   1.873   2.068  0.1120  0.4147 -0.5279
  476MOL0     C62718   2.172   1.952   1.998  0.8577  0.3952 -0.1111
  476MOL0     C62719   2.073   1.978   2.074 -0.3567 -0.9155 -0.0909
  476MOL0     C62720   1.964   2.066   2.028 -0.3928  0.2786  0.4725
  476MOL0     C62721   1.840   2.047   2.126 -0.4415 -0.2831  0.0573
  476MOL0     C62722   1.740   2.160   2.092  0.3189 -0.6655  0.7168
  476MOL0     C62723   1.641   2.180   2.202  0.1800 -0.8757  0.3215
  476MOL0     O62724   1.549   2.073   2.199 -0.2645 -0.1795 -0.6141
  476MOL0     C62725   1.461   2.069   2.307  0.3221  0.2620 -0.8616
  476MOL0     C62726   1.391   1.951   2.333 -1.0287  0.4197 -0.6462
  476MOL0     C62727   1.310   1.925   2.445  0.9270 -0.4768  0.3745
  476MOL0     C62728   1.297   2.022   2.548  0.2475 -0.4736 -0.4684
  476MOL0     C62729   1.206   2.001   2.665  0.6568 -0.4435  0.4964
  476MOL0     O62730   1.171   2.107   2.748  0.1653  0.1482 -0.6860
  476MOL0     C62731   1.115   2.079   2.871  0.0978 -0.6725  0.1098
  476MOL0     C62732   0.982   2.047   2.879 -0.2326  0.1122  0.3858
  476MOL0     C62733   0.933   2.012   3.002  0.4650 -0.6287 -1.2131
  476MOL0     C62734   1.011   2.033   3.114 -0.4036  0.3428 -0.7120
  476MOL0     O62735   0.974   2.006   3.239 -0.5487  0.4226 -0.4476
  476MOL0     C62736   0.838   1.961   3.272 -0.1090 -0.4904  0.2962
  476MOL0     C62737   0.836   1.907   3.415 -0.6817 -0.1178 -0.4217
  476MOL0     C62738   0.697   1.846   3.438 -1.5370 -0.0542  0.4665
  476MOL0     C62739   0.672   1.780   3.572 -1.1248 -0.1473  0.7077
  476MOL0     C62740   0.527   1.720   3.580 -0.5673 -1.4655  0.2799
  476MOL0     C62741   0.431   1.832   3.561  0.3690  0.1089  0.4161
  476MOL0     C62742   0.289   1.780   3.613  0.8805  0.3498  0.4151
  476MOL0     C62743   0.186   1.874   3.559  0.1363 -0.1454 -0.7409
  476MOL0    Cl62744   0.025   1.805   3.585 -0.2324 -0.3229 -0.0306
  476MOL0     C62745   1.144   2.074   3.112  0.2284 -0.2838 -0.3082
  476MOL0     C62746   1.196   2.101   2.984  0.6012  0.1472 -1.0283
  476MOL0     O62747   1.158   1.883   2.670  0.2354  0.1159  0.6017
  476MOL0     C62748   1.368   2.139   2.523  0.2232  0.0705 -0.3615
  476MOL0     C62749   1.439   2.155   2.415 -0.8420  0.3060  0.7381
  476MOL0     N62750   2.101   1.922   2.195 -0.1547  0.6866  0.0290
  476MOL0     N62751   2.213   1.848   2.193 -0.2131 -1.2700  0.9985
  476MOL0     C62752   3.324   1.310   1.701 -0.0454  0.0227 -0.1801
  476MOL0     C62753   3.435   1.224   1.733  0.2706  0.1866 -0.3301
  476MOL0     C62754   3.709   0.960   1.995  1.4424 -0.5489 -0.5379
  476MOL0     C62755   3.724   0.846   1.920  0.3020 -0.1779 -0.6082
  476MOL0     C62756   3.828   0.754   1.937 -0.1979 -0.4165  0.8768
  476MOL0     C62757   3.925   0.771   2.036 -0.1001 -0.3281 -0.9216
  476MOL0     O62758   4.016   0.674   2.077  0.0990  0.2329  0.1986
  476MOL0     C62759   4.057   0.580   1.982 -0.3273  0.2315  0.0977
  476MOL0     C62760   4.150   0.470   2.044  0.3395  0.1324 -0.3989
  476MOL0     C62761   4.178   0.373   1.928  0.8023  1.2585 -0.4748
  476MOL0     C62762   4.220   0.236   1.977 -0.1876 -0.6249 -0.2526
  476MOL0     C62763   4.353   0.251   2.041  0.0909 -0.3402  0.2893
  476MOL0     C62764   4.460   0.263   2.092  0.2966  0.8825  0.2504
  476MOL0     C62765   3.918   0.892   2.116  0.2606  0.0455  0.3844
  476MOL0     C62766   3.815   0.984   2.087  0.3627  0.3391 -0.1938
  476MOL0     H62767   3.321   1.084   2.015 -0.6676 -2.2981 -1.4809
  476MOL0     H62768   3.113   1.210   1.955 -0.5105 -0.8054 -1.8041
  476MOL0     H62769   3.016   1.455   1.886  0.0745  2.0302 -1.2603
  476MOL0     H62770   2.942   1.300   1.860  0.9098  0.6528 -0.1003
  476MOL0     H62771   2.891   1.390   1.624  3.7904  0.5208 -1.0026
  476MOL0     H62772   2.911   1.548   1.696 -1.2125  0.2919  0.1934
  476MOL0     H62773   2.757   1.471   1.888 -2.4864 -1.0414  0.4706
  476MOL0     H62774   2.707   1.336   1.790 -0.1853  0.4722  1.3068
  476MOL0     H62775   2.670   1.613   1.689 -1.8815  1.0497  1.4514
  476MOL0     H62776   2.617   1.472   1.615 -2.7231 -0.0127  0.8803
  476MOL0     H62777   2.501   1.451   1.874  1.1678 -0.3792  0.7104
  476MOL0     H62778   2.419   1.516   1.730 -1.6048 -1.7928  2.1483
  476MOL0     H62779   2.531   1.726   1.774  0.2809 -0.8078 -1.0440
  476MOL0     H62780   2.567   1.668   1.940  0.2899 -1.1245 -1.7709
  476MOL0     H62781   2.294   1.736   1.822  0.2946  1.2077  0.1619
  476MOL0     H62782   2.318   1.625   1.960  0.5672 -1.6624 -2.2676
  476MOL0     H62783   2.414   1.904   1.938 -1.4596 -0.7906 -2.0662
  476MOL0     H62784   2.455   1.792   2.071 -0.1449  2.6023  0.4662
  476MOL0     H62785   2.188   1.978   1.894  1.3458 -1.5649 -0.5685
  476MOL0     H62786   1.949   2.033   1.925  0.0738  1.1878  0.0999
  476MOL0     H62787   2.001   2.169   2.022 -0.7641  0.3289 -2.3964
  476MOL0     H62788   1.872   2.037   2.230  3.2594 -2.4249 -1.0712
  476MOL0     H62789   1.784   1.956   2.101  1.7476 -2.3406  2.0925
  476MOL0     H62790   1.792   2.256   2.085  0.1933 -0.6891 -1.0018
  476MOL0     H62791   1.688   2.145   1.996 -2.1352  2.7979  1.3091
  476MOL0     H62792   1.590   2.275   2.184 -0.9197 -1.5782 -0.3544
  476MOL0     H62793   1.699   2.181   2.295  0.5059 -1.1613  0.1261
  476MOL0     H62794   1.396   1.868   2.264  2.0163  1.8142 -2.2899
  476MOL0     H62795   1.246   1.839   2.434  0.1006  0.2446 -0.6404
  476MOL0     H62796   0.916   2.046   2.793 -0.9784 -2.2944  0.9059
  476MOL0     H62797   0.831   1.984   3.023  1.4373 -2.3449  1.9203
  476MOL0     H62798   0.789   1.886   3.209 -4.0550 -0.0549  2.5522
  476MOL0     H62799   0.770   2.046   3.260 -0.4152 -0.8507 -0.6852
  476MOL0     H62800   0.853   1.993   3.479 -2.4302  1.2571 -1.6874
  476MOL0     H62801   0.922   1.841   3.430  0.0422  1.6406  6.0226
  476MOL0     H62802   0.674   1.769   3.363 -3.4771 -0.0585  1.0220
  476MOL0     H62803   0.627   1.930   3.427  0.7111  1.7218 -1.4337
  476MOL0     H62804   0.743   1.697   3.579 -1.6035 -0.7079 -0.6785
  476MOL0     H62805   0.696   1.858   3.645  0.1816 -0.2284  0.3996
  476MOL0     H62806   0.522   1.680   3.682 -3.3456  1.7246  1.5564
  476MOL0     H62807   0.505   1.634   3.516 -0.8596 -2.4202  1.6086
  476MOL0     H62808   0.422   1.870   3.459 -0.5924  0.8842  0.7752
  476MOL0     H62809   0.465   1.922   3.612  1.9122  0.6682 -1.4960
  476MOL0     H62810   0.280   1.675   3.583  0.5116  0.2934  0.7067
  476MOL0     H62811   0.279   1.756   3.719  0.2200 -2.2339 -0.1429
  476MOL0     H62812   0.217   1.879   3.455 -2.0548 -0.9417 -1.4874
  476MOL0     H62813   0.195   1.970   3.610  0.8269  1.5778 -3.9022
  476MOL0     H62814   1.208   2.090   3.198  2.7883 -0.0884 -2.1467
  476MOL0     H62815   1.300   2.129   2.966 -0.0705  3.5505 -0.3622
  476MOL0     H62816   1.367   2.213   2.602 -1.4272  2.7587 -2.7179
  476MOL0     H62817   1.469   2.258   2.402 -0.7825  0.4935  2.2541
  476MOL0     H62818   3.326   1.364   1.608  0.1150  0.3571  0.0156
  476MOL0     H62819   3.517   1.213   1.663  0.8730 -0.7178  0.4882
  476MOL0     H62820   3.647   0.826   1.846  0.7592 -1.5801 -0.7270
  476MOL0     H62821   3.836   0.669   1.871 -3.2102  0.9620 -1.5592
  476MOL0     H62822   4.105   0.630   1.897  0.6670  0.8032  0.9683
  476MOL0     H62823   3.971   0.532   1.935 -0.1996 -1.7470  1.7442
  476MOL0     H62824   4.244   0.515   2.079 -0.7465  2.9663 -0.7957
  476MOL0     H62825   4.095   0.421   2.124  0.1942  1.0161  0.0618
  476MOL0     H62826   4.256   0.417   1.863  0.8481  1.7605 -0.0831
  476MOL0     H62827   4.093   0.358   1.861  1.2900  0.1663 -0.8677
  476MOL0     H62828   4.169   0.181   2.056 -1.2252 -1.7582 -1.6649
  476MOL0     H62829   4.216   0.165   1.893  4.3601 -2.1028  0.4622
  476MOL0     H62830   4.555   0.269   2.140  1.7447  3.6947 -2.5681
  476MOL0     H62831   3.995   0.903   2.192  2.0406  0.1468 -1.3198
  476MOL0     H62832   3.829   1.064   2.159 -3.0328 -0.3229  1.3749
  477MOL0     O62833   0.149   7.298   6.410  0.4153 -1.0868  0.5441
  477MOL0     C62834   0.258   7.247   6.387 -0.2170  0.5349 -0.5837
  477MOL0     O62835   0.286   7.144   6.299  0.4638  0.5768  0.4653
  477MOL0     C62836   0.192   7.095   6.202 -0.5798 -0.7623 -0.1193
  477MOL0     C62837   0.050   7.130   6.200  0.2232 -0.6100  0.9407
  477MOL0     C62838  -0.029   7.082   6.095 -0.5118  1.3130  0.0645
  477MOL0     C62839   0.028   6.993   6.000 -0.4459  0.0747  0.5567
  477MOL0     O62840  -0.042   6.932   5.896  0.6136  0.5047 -0.0252
  477MOL0     C62841  -0.189   6.937   5.895  0.1429 -0.2463  0.2387
  477MOL0     C62842  -0.231   6.867   5.767  0.2628  0.8056 -0.5863
  477MOL0     C62843  -0.376   6.867   5.754  0.2300 -0.0228 -0.0585
  477MOL0     C62844  -0.415   6.822   5.614 -0.5334 -0.1284 -0.1319
  477MOL0     C62845  -0.565   6.844   5.599  0.4733  0.2863  0.4716
  477MOL0     C62846  -0.609   6.772   5.471  0.5537  0.8868 -0.0111
  477MOL0     C62847  -0.763   6.781   5.444 -0.3591 -0.8820 -0.4650
  477MOL0     C62848  -0.799   6.925   5.414  0.5859 -0.6061 -0.0252
  477MOL0     N62849  -0.932   6.936   5.363 -0.3673  0.9615  0.1912
  477MOL0     C62850  -1.048   6.923   5.431 -0.1159  0.3426 -0.0058
  477MOL0     C62851  -1.150   6.919   5.345  0.3892  0.2415 -0.4477
  477MOL0     C62852  -1.302   6.916   5.358  0.2255 -0.1371  0.1458
  477MOL0     C62853  -1.351   6.788   5.423  0.6294 -0.3462 -0.9556
  477MOL0     C62854  -1.344   6.792   5.576 -0.1367 -0.0728  0.2921
  477MOL0     C62855  -1.456   6.698   5.630 -0.3923  0.0818  0.0898
  477MOL0     O62856  -1.586   6.746   5.601  0.5455  0.2754 -0.6821
  477MOL0     C62857  -1.696   6.668   5.631  0.0899  0.3784 -0.9010
  477MOL0     C62858  -1.817   6.727   5.584 -0.0013 -0.0047 -0.0184
  477MOL0     C62859  -1.938   6.664   5.611 -0.6617  0.3989  1.2128
  477MOL0     C62860  -1.942   6.540   5.681  1.0267  0.1474  0.7134
  477MOL0     C62861  -2.085   6.492   5.700  0.0737  0.3929  0.1135
  477MOL0     O62862  -2.193   6.572   5.676  0.4185 -0.0706 -0.0249
  477MOL0     C62863  -2.324   6.549   5.715 -0.0579 -0.4303 -0.1527
  477MOL0     C62864  -2.402   6.657   5.719  0.7050  0.5600 -0.3002
  477MOL0     C62865  -2.538   6.643   5.755 -0.3136 -0.3207  1.0098
  477MOL0     C62866  -2.590   6.517   5.789  0.0321 -0.6318  0.6412
  477MOL0     O62867  -2.712   6.484   5.832  0.0990 -0.1079 -0.3509
  477MOL0     C62868  -2.828   6.561   5.794  0.2598 -0.1330 -0.6568
  477MOL0     C62869  -2.939   6.552   5.893 -0.5824  0.2477 -0.1312
  477MOL0     C62870  -3.062   6.643   5.878  0.1697  0.2850  0.3924
  477MOL0     C62871  -3.197   6.592   5.952  0.1007  0.0680  0.3792
  477MOL0     C62872  -3.313   6.684   5.917  0.7697  0.2476 -0.0298
  477MOL0     C62873  -3.447   6.638   5.971  0.2322  0.4586  0.0824
  477MOL0     C62874  -3.465   6.656   6.122  1.0031 -0.3816  0.5124
  477MOL0     C62875  -3.594   6.582   6.171 -0.2024  0.8810 -0.4376
  477MOL0    Cl62876  -3.598   6.651   6.338  0.2789 -0.8032  0.1965
  477MOL0     C62877  -2.507   6.406   5.786 -0.6884  0.5664  0.5167
  477MOL0     C62878  -2.367   6.427   5.750  0.8720 -0.0905 -0.3360
  477MOL0     O62879  -2.081   6.385   5.765 -0.1365 -0.0643  0.3313
  477MOL0     C62880  -1.822   6.494   5.739  1.1303 -0.0018  0.0216
  477MOL0     C62881  -1.699   6.555   5.716  0.3893 -1.0682 -0.0823
  477MOL0     N62882  -1.090   6.906   5.224 -0.0805 -0.2205 -0.5900
  477MOL0     N62883  -0.960   6.926   5.231 -0.4419  0.3583 -0.1344
  477MOL0     C62884   0.161   6.966   5.999 -0.2614 -0.6224 -0.5660
  477MOL0     C62885   0.243   7.007   6.106 -0.1911 -0.0407  0.6176
  477MOL0     C62886   0.378   7.282   6.459 -0.2372 -0.4619 -0.3604
  477MOL0     C62887   0.495   7.201   6.470  0.7256  0.2232  0.3208
  477MOL0     C62888   0.610   7.236   6.541 -0.2522  0.1504 -0.2048
  477MOL0     C62889   0.600   7.355   6.619 -0.0153  0.2434  0.1517
  477MOL0     O62890   0.698   7.398   6.699  0.0222 -0.2166 -0.3100
  477MOL0     C62891   0.780   7.298   6.760 -0.1467 -0.5301 -0.2621
  477MOL0     C62892   0.856   7.352   6.890  0.4563 -0.5765  0.3171
  477MOL0     C62893   0.925   7.249   6.975 -0.2714  0.7266 -0.5267
  477MOL0     C62894   1.055   7.192   6.916 -0.2139  0.6807  0.2078
  477MOL0     C62895   1.142   7.136   7.017 -0.0881  0.1514 -0.0552
  477MOL0     C62896   1.218   7.093   7.099 -1.0374  0.3717 -0.4402
  477MOL0     C62897   0.483   7.432   6.624  0.4410 -0.0088 -0.5000
  477MOL0     C62898   0.377   7.398   6.540  0.4675 -0.6315  0.3251
  477MOL0     H62899   0.016   7.191   6.282  1.0888 -0.3220  1.0946
  477MOL0     H62900  -0.133   7.109   6.089 -1.0470 -0.0047  2.2111
  477MOL0     H62901  -0.229   7.039   5.903  1.5473  0.2893  0.6955
  477MOL0     H62902  -0.224   6.887   5.986  1.6882 -0.9967  0.4385
  477MOL0     H62903  -0.186   6.767   5.776 -1.7229 -0.1081 -0.1573
  477MOL0     H62904  -0.183   6.923   5.687  1.1168  2.3554  0.9312
  477MOL0     H62905  -0.414   6.964   5.788  1.3255  0.1263  0.7979
  477MOL0     H62906  -0.415   6.791   5.823  3.7073 -1.6734  0.2883
  477MOL0     H62907  -0.356   6.884   5.546 -1.6040  0.9338 -0.1280
  477MOL0     H62908  -0.394   6.715   5.613  0.0079 -0.0909  2.2501
  477MOL0     H62909  -0.581   6.952   5.593 -1.8182 -0.0788 -1.3320
  477MOL0     H62910  -0.621   6.807   5.685  2.6382 -0.8215  1.4804
  477MOL0     H62911  -0.587   6.670   5.505 -1.2820  1.8680  4.9236
  477MOL0     H62912  -0.556   6.795   5.378 -2.9980  2.1453 -1.9386
  477MOL0     H62913  -0.800   6.724   5.358 -0.9266 -0.8085 -0.2744
  477MOL0     H62914  -0.822   6.752   5.532 -1.1242 -1.8742 -1.2831
  477MOL0     H62915  -0.727   6.964   5.341 -1.2654  1.0386 -1.0903
  477MOL0     H62916  -0.793   6.984   5.506  3.7380 -4.4066  2.4823
  477MOL0     H62917  -1.055   6.926   5.539  1.1208  1.4217  0.0662
  477MOL0     H62918  -1.354   6.914   5.262  1.4243  1.6806 -0.5870
  477MOL0     H62919  -1.335   7.012   5.398  0.0076  0.9326 -2.3786
  477MOL0     H62920  -1.305   6.700   5.375  0.8115 -0.8121  0.0473
  477MOL0     H62921  -1.455   6.786   5.390  0.2027  1.0878  0.2089
  477MOL0     H62922  -1.248   6.771   5.624  0.0435  1.1888  0.5326
  477MOL0     H62923  -1.378   6.893   5.601 -4.3710 -0.9372 -1.1115
  477MOL0     H62924  -1.453   6.716   5.738  1.1953 -0.3818  0.1525
  477MOL0     H62925  -1.444   6.591   5.610 -0.1870 -0.0762  1.0138
  477MOL0     H62926  -1.804   6.814   5.521  1.1138  0.2146  0.4975
  477MOL0     H62927  -2.032   6.705   5.575  0.2688  0.5888 -1.1741
  477MOL0     H62928  -2.371   6.759   5.700 -1.5630  1.4370  0.4280
  477MOL0     H62929  -2.598   6.734   5.757  2.4143  1.7731 -1.6026
  477MOL0     H62930  -2.860   6.524   5.696 -1.4799  2.2479 -1.0935
  477MOL0     H62931  -2.801   6.666   5.780 -0.6688  0.1039 -0.7920
  477MOL0     H62932  -2.883   6.563   5.987  0.5998 -0.1623 -0.7579
  477MOL0     H62933  -2.959   6.445   5.884  0.1374 -0.0042  0.9861
  477MOL0     H62934  -3.083   6.663   5.773  3.0832 -0.5668 -0.4478
  477MOL0     H62935  -3.036   6.746   5.908 -2.3921  1.4631 -1.1419
  477MOL0     H62936  -3.214   6.492   5.912 -0.5779 -0.0525  0.9723
  477MOL0     H62937  -3.177   6.587   6.059  1.0026  2.5909  0.3936
  477MOL0     H62938  -3.323   6.685   5.808 -0.0529  2.8430 -0.0062
  477MOL0     H62939  -3.285   6.786   5.945  0.5215  0.1706  0.5001
  477MOL0     H62940  -3.454   6.531   5.949  3.5001  0.5107 -1.9793
  477MOL0     H62941  -3.526   6.687   5.913 -0.3369 -2.4834 -1.8149
  477MOL0     H62942  -3.379   6.632   6.185  3.1555  1.1235 -1.6714
  477MOL0     H62943  -3.482   6.764   6.125  0.7058 -0.2579 -2.4827
  477MOL0     H62944  -3.590   6.474   6.155 -0.3582  1.0380 -1.6698
  477MOL0     H62945  -3.681   6.618   6.116  1.1401  2.7486 -1.4616
  477MOL0     H62946  -2.542   6.305   5.805 -1.3970  0.5258 -0.9190
  477MOL0     H62947  -2.306   6.337   5.757  3.3351  1.4967 -0.4310
  477MOL0     H62948  -1.837   6.405   5.799 -3.5900 -0.8151 -1.9201
  477MOL0     H62949  -1.610   6.517   5.766  1.0524 -0.2236 -0.6004
  477MOL0     H62950   0.201   6.923   5.908  0.9769 -3.0362  1.0308
  477MOL0     H62951   0.351   6.992   6.100 -0.1936 -0.5925  1.6869
  477MOL0     H62952   0.500   7.108   6.414 -1.0544  0.8531 -0.9739
  477MOL0     H62953   0.708   7.189   6.537 -0.6492 -0.7393  0.2288
  477MOL0     H62954   0.850   7.256   6.688  1.1251 -0.5985  0.9671
  477MOL0     H62955   0.716   7.212   6.785 -2.1933  1.2645  1.0556
  477MOL0     H62956   0.931   7.423   6.853 -1.1353  1.2712  0.4545
  477MOL0     H62957   0.783   7.405   6.953 -1.8216 -0.9452 -1.8562
  477MOL0     H62958   0.852   7.168   6.991 -0.5240  1.1013  0.2544
  477MOL0     H62959   0.957   7.304   7.063  1.9619 -1.4852  0.1535
  477MOL0     H62960   1.035   7.115   6.841  0.5033  0.0394  0.6642
  477MOL0     H62961   1.102   7.277   6.866 -3.0218  2.2162  0.0088
  477MOL0     H62962   1.281   7.058   7.178 -2.4366  1.0835  1.0503
  477MOL0     H62963   0.481   7.516   6.693  3.1824 -1.2728  1.2845
  477MOL0     H62964   0.292   7.465   6.551  2.8210  2.7638 -0.3586
  478MOL0     O62965   2.575   2.673  10.852 -0.3367  0.2834  0.1967
  478MOL0     C62966   2.643   2.653  10.753 -0.4478 -0.1710  0.6079
  478MOL0     O62967   2.596   2.591  10.635 -0.3842 -0.1725 -0.0106
  478MOL0     C62968   2.458   2.604  10.613  1.0110  0.6180 -0.2548
  478MOL0     C62969   2.378   2.500  10.672 -0.5246 -0.4434 -0.6092
  478MOL0     C62970   2.233   2.508  10.653 -0.0825  0.8288  0.3227
  478MOL0     C62971   2.181   2.614  10.581 -0.9323  0.2235  0.6231
  478MOL0     O62972   2.053   2.627  10.557  0.4905 -0.5471  0.4246
  478MOL0     C62973   1.940   2.550  10.609 -0.5896  0.5707  0.2681
  478MOL0     C62974   1.920   2.443  10.504 -0.3392 -0.4465 -0.2291
  478MOL0     C62975   1.791   2.357  10.534  0.1774  0.5337  0.2170
  478MOL0     C62976   1.662   2.422  10.477 -0.4791 -0.5534 -0.9558
  478MOL0     C62977   1.529   2.347  10.493  0.2186 -0.8474  0.0901
  478MOL0     C62978   1.472   2.345  10.637  0.2612 -0.4810 -0.2020
  478MOL0     C62979   1.337   2.267  10.650 -0.3739 -1.0207 -0.5943
  478MOL0     C62980   1.216   2.298  10.561 -0.1747 -0.0681 -0.2555
  478MOL0     N62981   1.163   2.438  10.579 -0.0512 -0.0928  0.8733
  478MOL0     C62982   1.215   2.555  10.520  0.0817  0.2721  0.5924
  478MOL0     C62983   1.161   2.658  10.593  0.2637  0.3821  0.3133
  478MOL0     C62984   1.205   2.803  10.566  0.0116  0.8436  0.3181
  478MOL0     C62985   1.349   2.830  10.586  0.4961  0.1887 -0.5786
  478MOL0     C62986   1.368   2.936  10.681  0.3058 -0.1427 -0.6047
  478MOL0     C62987   1.496   3.004  10.656 -0.9956  0.1216  0.3038
  478MOL0     O62988   1.511   3.105  10.756 -0.4683 -0.7470  0.1346
  478MOL0     C62989   1.630   3.179  10.762  0.1604  0.0310 -0.6657
  478MOL0     C62990   1.631   3.284  10.854 -0.4932  0.0153 -0.7018
  478MOL0     C62991   1.733   3.383  10.856  0.8470  0.4850 -0.7978
  478MOL0     C62992   1.856   3.365  10.783  0.7483 -0.3854 -0.6315
  478MOL0     C62993   1.966   3.463  10.796  0.6570  0.8619 -1.3329
  478MOL0     O62994   2.059   3.449  10.701  0.0716 -0.2622 -0.1222
  478MOL0     C62995   2.175   3.517  10.698  0.9056  0.1100 -0.8055
  478MOL0     C62996   2.166   3.650  10.681 -0.0493  0.0241  0.6062
  478MOL0     C62997   2.279   3.718  10.654  0.2117  0.4884  0.5893
  478MOL0     C62998   2.402   3.659  10.634  0.4160 -0.9307  0.7377
  478MOL0     O62999   2.504   3.738  10.582  0.2949 -0.1015 -0.4026
  478MOL0     C63000   2.637   3.696  10.605  0.0561  0.3667 -0.5382
  478MOL0     C63001   2.724   3.752  10.486 -1.2187  0.9760 -0.2364
  478MOL0     C63002   2.866   3.694  10.510 -0.0389  0.4775 -0.0885
  478MOL0     C63003   2.957   3.736  10.397 -0.2217 -1.2229 -0.3931
  478MOL0     C63004   3.108   3.723  10.419 -0.2284  0.3807  0.4620
  478MOL0     C63005   3.179   3.692  10.280  0.0238 -0.0094 -0.6857
  478MOL0     C63006   3.335   3.715  10.285 -0.3869 -1.2830 -0.1991
  478MOL0     C63007   3.420   3.625  10.369  0.4786  0.4849 -0.5066
  478MOL0    Cl63008   3.411   3.463  10.303  0.1945  0.2107 -0.1483
  478MOL0     C63009   2.410   3.523  10.659 -1.0042 -0.6118 -0.8404
  478MOL0     C63010   2.296   3.455  10.694  0.3740 -0.4044  0.0484
  478MOL0     O63011   1.967   3.534  10.902  0.4670 -0.3558 -0.2280
  478MOL0     C63012   1.847   3.264  10.688 -0.0500 -0.0254  0.1047
  478MOL0     C63013   1.735   3.178  10.672  0.2059  0.5777  0.2263
  478MOL0     N63014   1.072   2.605  10.683 -0.0379  0.4612 -0.2420
  478MOL0     N63015   1.085   2.473  10.684  0.5958  0.3272  1.1601
  478MOL0     C63016   2.269   2.705  10.515 -0.4906 -0.0174 -0.1672
  478MOL0     C63017   2.400   2.702  10.539 -1.1079 -0.3421 -0.0195
  478MOL0     C63018   2.789   2.694  10.743 -0.0649  0.5788  0.2153
  478MOL0     C63019   2.848   2.692  10.621  0.6451  0.1877  0.7516
  478MOL0     C63020   2.967   2.754  10.585 -0.3385 -0.5761  0.9114
  478MOL0     C63021   3.035   2.826  10.681 -0.0019  0.0886 -0.2130
  478MOL0     O63022   3.144   2.900  10.640  0.0178  0.5295 -0.6916
  478MOL0     C63023   3.183   3.001  10.728 -0.6430 -0.4025  0.2440
  478MOL0     C63024   3.282   2.966  10.845 -0.1982 -0.6531  0.5922
  478MOL0     C63025   3.347   3.087  10.900  0.3939 -0.7893  0.7882
  478MOL0     C63026   3.240   3.193  10.962  0.1151  0.4048  0.4302
  478MOL0     C63027   3.199   3.275  10.846  0.8829  0.6765  0.7906
  478MOL0     C63028   3.176   3.351  10.755  0.7597  0.9412 -0.1848
  478MOL0     C63029   2.983   2.829  10.819  0.5354  0.2572  0.3598
  478MOL0     C63030   2.856   2.758  10.843 -0.8824 -0.4992 -0.2839
  478MOL0     H63031   2.416   2.411  10.722 -1.2752  0.5902  1.9377
  478MOL0     H63032   2.164   2.445  10.707  1.0649  0.2601  1.1663
  478MOL0     H63033   1.854   2.614  10.632 -0.0053  0.5255  2.7957
  478MOL0     H63034   1.964   2.510  10.707  0.6193 -0.2185 -0.3181
  478MOL0     H63035   2.006   2.377  10.488 -1.5056 -1.8071 -1.2040
  478MOL0     H63036   1.914   2.504  10.414  0.0269  0.8781  0.6258
  478MOL0     H63037   1.787   2.330  10.639  0.2230  1.9668  0.6145
  478MOL0     H63038   1.805   2.261  10.484  0.9187  0.0686  1.2863
  478MOL0     H63039   1.653   2.517  10.531  1.0127 -2.2011  2.4682
  478MOL0     H63040   1.688   2.444  10.373 -0.6499  2.8253 -0.3933
  478MOL0     H63041   1.531   2.244  10.456 -2.8437 -0.2010 -2.2702
  478MOL0     H63042   1.460   2.394  10.423  2.1315  2.4801  0.2332
  478MOL0     H63043   1.445   2.445  10.671 -0.5580 -1.2631  1.5701
  478MOL0     H63044   1.543   2.305  10.710  2.6735  4.3109  0.4746
  478MOL0     H63045   1.360   2.161  10.650  0.5851 -0.8210  0.1295
  478MOL0     H63046   1.306   2.281  10.754 -0.8680 -2.1631 -0.5750
  478MOL0     H63047   1.139   2.233  10.604 -1.8329  0.5669 -2.1240
  478MOL0     H63048   1.226   2.271  10.455 -0.4543 -0.4443 -0.1854
  478MOL0     H63049   1.287   2.559  10.439 -1.3973 -4.0277 -1.2454
  478MOL0     H63050   1.145   2.871  10.627 -0.9988 -0.0348  0.3126
  478MOL0     H63051   1.197   2.839  10.463  1.5281  1.0396  0.2340
  478MOL0     H63052   1.398   2.857  10.492  0.3132  1.6097 -0.2861
  478MOL0     H63053   1.400   2.740  10.622  0.3993  0.4312  0.1772
  478MOL0     H63054   1.294   3.017  10.678 -1.2421 -1.4677  0.1692
  478MOL0     H63055   1.363   2.883  10.776 -0.5767 -3.1960 -2.2332
  478MOL0     H63056   1.500   3.048  10.556  1.8837  0.8713  0.6809
  478MOL0     H63057   1.582   2.938  10.668  0.8070  2.4296  0.9731
  478MOL0     H63058   1.538   3.297  10.909 -0.0148  2.8846 -0.4573
  478MOL0     H63059   1.717   3.459  10.930  1.8370 -0.7066  0.7025
  478MOL0     H63060   2.070   3.698  10.694  0.1090  0.3601  0.5519
  478MOL0     H63061   2.258   3.822  10.629 -0.2642 -0.0145 -1.2518
  478MOL0     H63062   2.646   3.587  10.608  0.5926  0.4148 -0.2196
  478MOL0     H63063   2.667   3.734  10.704  0.8291  1.8496 -1.3019
  478MOL0     H63064   2.736   3.860  10.489  0.7895  0.7761 -0.0400
  478MOL0     H63065   2.688   3.715  10.389  0.1717 -4.1358  0.8720
  478MOL0     H63066   2.869   3.586  10.523 -1.9128  0.4107  0.0318
  478MOL0     H63067   2.912   3.740  10.599 -0.6474  0.5873  0.1749
  478MOL0     H63068   2.929   3.672  10.312 -1.1261 -0.2042 -0.8807
  478MOL0     H63069   2.951   3.842  10.373 -0.1866 -0.7910  1.4253
  478MOL0     H63070   3.131   3.639  10.484  0.4531  1.1811  1.2784
  478MOL0     H63071   3.141   3.818  10.463 -2.4894  2.3915 -1.8401
  478MOL0     H63072   3.146   3.756  10.198 -0.3825  0.6058 -0.0472
  478MOL0     H63073   3.152   3.590  10.251 -0.6123 -0.5535  1.6104
  478MOL0     H63074   3.387   3.712  10.188  0.1116  0.5698 -0.0423
  478MOL0     H63075   3.340   3.822  10.308  1.3490 -1.3942  0.0654
  478MOL0     H63076   3.385   3.624  10.473 -1.1942 -1.2397 -1.0175
  478MOL0     H63077   3.526   3.649  10.367  0.9625 -1.4560 -0.2956
  478MOL0     H63078   2.494   3.456  10.643  0.3159  0.3115  1.6387
  478MOL0     H63079   2.303   3.350  10.722  0.9003 -0.3646  0.0758
  478MOL0     H63080   1.927   3.246  10.617 -0.4877  1.9665 -0.9542
  478MOL0     H63081   1.742   3.107  10.591 -2.2483  2.0572 -1.4022
  478MOL0     H63082   2.228   2.789  10.460 -1.7893 -0.1027  0.6308
  478MOL0     H63083   2.459   2.778  10.489 -1.3167 -0.3186 -0.2292
  478MOL0     H63084   2.799   2.631  10.546  3.6197 -0.2636 -0.9624
  478MOL0     H63085   3.009   2.726  10.489  0.4552 -1.8461  1.5996
  478MOL0     H63086   3.094   3.056  10.758  1.5013  3.1821  0.6552
  478MOL0     H63087   3.234   3.069  10.659 -1.1422 -0.5281 -0.2584
  478MOL0     H63088   3.224   2.923  10.928 -0.9319  1.0847  1.0224
  478MOL0     H63089   3.353   2.890  10.812  1.6243 -0.0011  2.7430
  478MOL0     H63090   3.412   3.139  10.829  0.2477  3.0531  3.1852
  478MOL0     H63091   3.416   3.048  10.976 -1.7100 -4.6655  0.9578
  478MOL0     H63092   3.155   3.144  11.010 -0.9058  0.9267 -0.7822
  478MOL0     H63093   3.287   3.258  11.036 -0.8368  1.0440  0.4809
  478MOL0     H63094   3.166   3.432  10.685 -0.7806  1.4602  0.6147
  478MOL0     H63095   3.029   2.878  10.904  0.8397  0.4530  0.0838
  478MOL0     H63096   2.815   2.753  10.943  0.0991  1.0320  0.2253
  479MOL0     O63097   5.108   6.075   8.021 -1.0707 -0.2203 -0.3694
  479MOL0     C63098   5.223   6.045   8.064 -0.1293  0.4429 -0.5581
  479MOL0     O63099   5.248   5.949   8.156 -0.0255  0.0510 -0.0937
  479MOL0     C63100   5.157   5.880   8.229  0.3262 -0.3997  1.3340
  479MOL0     C63101   5.023   5.869   8.202 -0.4143  0.0447  0.0205
  479MOL0     C63102   4.938   5.817   8.303 -0.0703  0.2718  0.2444
  479MOL0     C63103   4.988   5.766   8.423 -0.6115  0.2381 -0.4646
  479MOL0     O63104   4.920   5.705   8.532  0.8398 -0.3363  0.7868
  479MOL0     C63105   4.807   5.776   8.578  0.9765  0.9360  0.7160
  479MOL0     C63106   4.842   5.860   8.706  0.1435  0.5691  0.1607
  479MOL0     C63107   4.723   5.934   8.753 -0.3948  0.1175 -0.0907
  479MOL0     C63108   4.613   5.842   8.810  0.0527 -0.2697  0.1771
  479MOL0     C63109   4.510   5.930   8.886 -0.0868  0.0816  0.0656
  479MOL0     C63110   4.389   5.840   8.938 -1.0557  0.2515 -0.2935
  479MOL0     C63111   4.277   5.929   9.000  0.2102 -0.1134 -0.6032
  479MOL0     C63112   4.151   5.849   9.028 -0.1504 -0.3093 -0.1849
  479MOL0     N63113   4.035   5.902   8.973  0.3493 -0.1243  0.2674
  479MOL0     C63114   3.972   6.014   9.019 -0.3012 -0.1205  0.1587
  479MOL0     C63115   3.856   6.021   8.949 -0.1160 -0.2725  0.1324
  479MOL0     C63116   3.735   6.114   8.977 -0.2301  0.0786  1.3845
  479MOL0     C63117   3.671   6.090   9.116  0.2874 -0.2139  0.1911
  479MOL0     C63118   3.768   6.148   9.224  0.9746 -0.2934 -0.0390
  479MOL0     C63119   3.696   6.175   9.350  0.3141 -0.2113 -0.0138
  479MOL0     O63120   3.593   6.279   9.334  0.1096  0.1491  0.4301
  479MOL0     C63121   3.509   6.305   9.439  0.2464 -0.0097  0.6602
  479MOL0     C63122   3.509   6.429   9.506  0.9264  0.7332  0.1345
  479MOL0     C63123   3.432   6.447   9.622  0.3876 -0.1170 -1.4213
  479MOL0     C63124   3.351   6.343   9.670 -0.3465  0.3667  0.1085
  479MOL0     C63125   3.282   6.350   9.801 -0.4811 -0.4005  0.8324
  479MOL0     O63126   3.325   6.433   9.895 -0.0474  0.4492  0.6469
  479MOL0     C63127   3.279   6.414  10.026 -0.3096 -0.2122 -0.1540
  479MOL0     C63128   3.140   6.439  10.056 -0.3967  0.8505 -0.2603
  479MOL0     C63129   3.103   6.409  10.189 -0.0463 -0.4951  1.3256
  479MOL0     C63130   3.184   6.344  10.278  0.0324  0.1718 -1.0101
  479MOL0     O63131   3.125   6.320  10.400 -0.0454 -0.5923  0.5187
  479MOL0     C63132   3.212   6.270  10.498  0.2153 -0.3095  0.4135
  479MOL0     C63133   3.132   6.268  10.630 -0.3700  0.0592  0.3965
  479MOL0     C63134   3.024   6.163  10.626  0.8065 -0.2665  0.2301
  479MOL0     C63135   2.991   6.128  10.765  0.6173 -0.6786 -0.0225
  479MOL0     C63136   2.872   6.031  10.793  0.2453 -0.4401 -0.3242
  479MOL0     C63137   2.852   5.992  10.935 -0.0956  0.2500  0.1773
  479MOL0     C63138   2.716   5.908  10.955  0.3245  0.0208  0.7340
  479MOL0     C63139   2.698   5.855  11.105 -0.0833 -0.4095  0.5486
  479MOL0    Cl63140   2.842   5.758  11.146  0.0586 -0.3984 -0.1267
  479MOL0     C63141   3.318   6.329  10.245 -0.2238 -0.0345 -0.0747
  479MOL0     C63142   3.363   6.362  10.124 -0.7989  0.0549 -0.2622
  479MOL0     O63143   3.183   6.282   9.805  0.3576 -0.8252 -0.0455
  479MOL0     C63144   3.346   6.225   9.600 -0.3300 -0.2284  0.8372
  479MOL0     C63145   3.427   6.203   9.491  0.2984  0.2461 -0.0553
  479MOL0     N63146   3.853   5.916   8.856 -0.4872 -0.6336  0.0843
  479MOL0     N63147   3.964   5.854   8.863 -0.0194 -0.1605 -0.2467
  479MOL0     C63148   5.129   5.779   8.442 -0.2144  0.5034  0.6406
  479MOL0     C63149   5.216   5.839   8.348  1.2609  0.3062 -0.5390
  479MOL0     C63150   5.326   6.093   7.974  0.0618 -0.6972  0.3643
  479MOL0     C63151   5.430   6.002   7.952  0.1342  0.4696 -0.1408
  479MOL0     C63152   5.531   6.038   7.862 -0.3532  0.4970  0.2797
  479MOL0     C63153   5.519   6.158   7.792 -0.2673  0.8070 -0.2768
  479MOL0     O63154   5.619   6.169   7.705  0.0110 -0.2980  1.1588
  479MOL0     C63155   5.554   6.176   7.566  0.2783  0.7545 -0.9442
  479MOL0     C63156   5.673   6.185   7.471  0.9409  0.2592 -0.7980
  479MOL0     C63157   5.641   6.224   7.330  0.1584 -0.4188 -0.0148
  479MOL0     C63158   5.752   6.303   7.250  0.1285 -0.3390  0.0493
  479MOL0     C63159   5.696   6.321   7.117  0.7163  1.4843 -0.8130
  479MOL0     C63160   5.628   6.325   7.018  0.0165 -0.0981 -0.3962
  479MOL0     C63161   5.431   6.258   7.821  0.3610 -0.3777  0.3671
  479MOL0     C63162   5.328   6.226   7.911 -0.5061  1.1128 -0.2142
  479MOL0     H63163   4.981   5.900   8.106 -2.4881 -4.1543 -0.6495
  479MOL0     H63164   4.834   5.807   8.275 -0.5800 -0.1523  2.0999
  479MOL0     H63165   4.727   5.714   8.620  0.2849  1.8418  0.7596
  479MOL0     H63166   4.769   5.840   8.497  1.9868  0.2699 -0.3240
  479MOL0     H63167   4.921   5.932   8.684  0.9712  0.2477  1.9222
  479MOL0     H63168   4.870   5.796   8.790  0.2737 -1.2685 -1.2157
  479MOL0     H63169   4.685   6.001   8.675 -0.1056 -0.8947 -1.1196
  479MOL0     H63170   4.755   5.997   8.836  2.6183 -0.7431 -0.4961
  479MOL0     H63171   4.568   5.781   8.730 -0.9329 -0.1064  0.5863
  479MOL0     H63172   4.652   5.767   8.879  2.6246  1.3267  0.5505
  479MOL0     H63173   4.470   6.010   8.823  0.4979  1.9433  1.9425
  479MOL0     H63174   4.560   5.981   8.969 -2.7521  1.5856  0.8630
  479MOL0     H63175   4.417   5.764   9.011 -0.1020 -2.2975 -3.1057
  479MOL0     H63176   4.351   5.795   8.846 -1.0902 -2.4946  0.9883
  479MOL0     H63177   4.316   5.969   9.094 -1.4796 -1.3771  0.6923
  479MOL0     H63178   4.256   6.007   8.926  3.1504  1.4785  0.0920
  479MOL0     H63179   4.135   5.841   9.136  0.3123  2.5471  0.1775
  479MOL0     H63180   4.177   5.750   8.991  0.9980 -0.1170  0.0535
  479MOL0     H63181   3.991   6.072   9.108  0.0057 -0.8414  0.5657
  479MOL0     H63182   3.663   6.080   8.901  0.2899  0.5193  0.6795
  479MOL0     H63183   3.746   6.221   8.956 -4.1181  0.1363 -1.5863
  479MOL0     H63184   3.640   5.986   9.131  1.8223 -0.4874  2.0163
  479MOL0     H63185   3.583   6.154   9.121  1.4831  1.4500  4.2126
  479MOL0     H63186   3.850   6.080   9.248 -0.6167 -3.2027 -2.1482
  479MOL0     H63187   3.802   6.245   9.188 -1.2894 -0.2267 -2.2674
  479MOL0     H63188   3.765   6.212   9.426 -2.4166  2.7473  1.3072
  479MOL0     H63189   3.659   6.081   9.392  0.1979 -0.3257 -0.3642
  479MOL0     H63190   3.570   6.511   9.470  0.6865  1.2976  1.0004
  479MOL0     H63191   3.426   6.539   9.677 -1.0381 -0.1518 -1.4669
  479MOL0     H63192   3.066   6.481   9.988 -0.5497  2.3655  0.7922
  479MOL0     H63193   3.003   6.434  10.221  0.9935  3.5494  1.9429
  479MOL0     H63194   3.311   6.316  10.504 -1.0321  2.3969  4.3327
  479MOL0     H63195   3.227   6.169  10.456 -2.6455  0.9624 -4.5288
  479MOL0     H63196   3.091   6.369  10.642 -0.5128  0.0020  0.3965
  479MOL0     H63197   3.199   6.250  10.715 -1.2920  1.6625  1.5248
  479MOL0     H63198   3.061   6.068  10.587 -0.3044 -0.4837 -0.3399
  479MOL0     H63199   2.934   6.192  10.571 -0.2234  0.3868  2.1803
  479MOL0     H63200   3.071   6.076  10.819  1.9171 -1.0560 -2.1855
  479MOL0     H63201   2.972   6.226  10.812  1.0023 -0.4601 -0.3132
  479MOL0     H63202   2.891   5.941  10.734  0.5508 -3.1694  3.5935
  479MOL0     H63203   2.787   6.088  10.754  2.2622  2.3468 -1.0081
  479MOL0     H63204   2.838   6.086  10.990 -2.7214  0.1969 -0.2871
  479MOL0     H63205   2.943   5.942  10.971  0.8186  2.4149  1.0761
  479MOL0     H63206   2.634   5.974  10.923  0.4387 -0.3529 -0.3884
  479MOL0     H63207   2.720   5.828  10.881  4.3636 -0.3612  1.1922
  479MOL0     H63208   2.613   5.786  11.103 -1.6946  1.5078  0.3090
  479MOL0     H63209   2.672   5.928  11.182 -1.9249 -0.1352 -0.2609
  479MOL0     H63210   3.404   6.305  10.307 -0.9476 -4.2862 -0.4597
  479MOL0     H63211   3.470   6.354  10.115 -0.8957 -1.6876 -0.1702
  479MOL0     H63212   3.287   6.141   9.637  0.0445 -0.0510  1.8667
  479MOL0     H63213   3.440   6.100   9.460  0.9927 -0.0784  1.2606
  479MOL0     H63214   5.180   5.740   8.530 -0.0147  0.9169  0.7101
  479MOL0     H63215   5.323   5.843   8.366  1.5453 -1.4321 -1.6847
  479MOL0     H63216   5.420   5.904   7.997 -2.9634  1.0245  0.5848
  479MOL0     H63217   5.611   5.971   7.833  2.5006  3.1103  1.5008
  479MOL0     H63218   5.485   6.258   7.545  0.6662  1.4689  0.4741
  479MOL0     H63219   5.507   6.077   7.562 -0.5499  1.0181  1.1621
  479MOL0     H63220   5.745   6.258   7.509  0.1852 -0.3147  2.0014
  479MOL0     H63221   5.716   6.085   7.475  0.2501 -0.1108 -2.0540
  479MOL0     H63222   5.554   6.290   7.336  1.2528  1.0124  0.4555
  479MOL0     H63223   5.609   6.132   7.280 -1.1596 -0.4006  0.7449
  479MOL0     H63224   5.767   6.404   7.290 -1.6742  0.4581 -1.1828
  479MOL0     H63225   5.850   6.255   7.246  0.1083 -0.3086 -3.0736
  479MOL0     H63226   5.573   6.334   6.927 -1.7994 -2.2154  0.3843
  479MOL0     H63227   5.432   6.347   7.758 -0.5460 -0.5066  0.1532
  479MOL0     H63228   5.248   6.292   7.944 -1.1929  1.3485 -2.1969
  480MOL0     O63229   2.350   4.205   5.136 -0.2392 -0.2693 -0.3075
  480MOL0     C63230   2.366   4.153   5.029  0.1182 -0.4102  0.6811
  480MOL0     O63231   2.270   4.094   4.943 -0.0262  0.2782 -0.7207
  480MOL0     C63232   2.136   4.096   4.977  0.4891  0.1295  0.2641
  480MOL0     C63233   2.057   4.015   4.898 -0.9056  0.6047  0.8537
  480MOL0     C63234   1.919   4.005   4.933 -0.3962  0.1919 -0.4915
  480MOL0     C63235   1.863   4.078   5.044  0.7779 -0.0737  0.1537
  480MOL0     O63236   1.722   4.051   5.061  0.1381 -0.5378 -0.1592
  480MOL0     C63237   1.671   4.069   5.194  0.1763 -0.9548  0.3534
  480MOL0     C63238   1.556   4.170   5.205  0.1504  0.3789  0.6056
  480MOL0     C63239   1.453   4.152   5.088  1.0299 -0.1751  0.0300
  480MOL0     C63240   1.404   4.010   5.061  0.0164  0.0526  0.4317
  480MOL0     C63241   1.350   4.005   4.916  0.3861  1.1739 -1.0425
  480MOL0     C63242   1.223   4.085   4.902  0.2613 -0.1882  0.4232
  480MOL0     C63243   1.107   4.042   4.992  0.9652 -0.0334  0.3854
  480MOL0     C63244   1.070   3.899   5.011  0.0730  0.8708  0.1357
  480MOL0     N63245   0.958   3.873   5.105  0.6718  0.9223  0.3086
  480MOL0     C63246   0.875   3.767   5.115  0.3622  0.5931  0.2208
  480MOL0     C63247   0.772   3.803   5.186  0.1346  0.9717 -0.3307
  480MOL0     C63248   0.652   3.711   5.224  0.3832 -0.3049  0.8117
  480MOL0     C63249   0.536   3.809   5.266 -0.7829  0.1793 -0.6287
  480MOL0     C63250   0.403   3.736   5.315 -0.2222 -1.1556  0.2747
  480MOL0     C63251   0.308   3.845   5.360 -0.9092  0.7736  0.2605
  480MOL0     O63252   0.181   3.786   5.382  0.4045 -0.2607  0.6840
  480MOL0     C63253   0.076   3.854   5.434 -0.4592 -0.1772  0.5294
  480MOL0     C63254   0.083   3.987   5.469  0.4326 -0.9772 -0.3130
  480MOL0     C63255  -0.034   4.056   5.516 -0.6224  0.0471  0.0091
  480MOL0     C63256  -0.148   3.983   5.536 -0.5082  0.2258  0.9074
  480MOL0     C63257  -0.269   4.052   5.581 -0.0365  0.1389  0.3127
  480MOL0     O63258  -0.374   3.969   5.603 -0.1310  0.7850  0.2028
  480MOL0     C63259  -0.495   4.029   5.617  0.6786  0.7725  0.3791
  480MOL0     C63260  -0.563   4.074   5.493 -1.3055  0.7662  0.4583
  480MOL0     C63261  -0.701   4.097   5.502  0.1635  0.7654  0.4566
  480MOL0     C63262  -0.775   4.092   5.625  1.2946  0.4134  0.2340
  480MOL0     O63263  -0.911   4.112   5.614  0.2555 -0.4460  0.2852
  480MOL0     C63264  -0.987   4.151   5.736 -0.7882  0.1064  0.2948
  480MOL0     C63265  -1.092   4.247   5.703 -0.0672  0.7850  0.4538
  480MOL0     C63266  -1.195   4.189   5.610  0.6157 -0.2161  0.5508
  480MOL0     C63267  -1.318   4.123   5.681 -0.1298 -0.2554  0.5535
  480MOL0     C63268  -1.436   4.069   5.594 -0.2105  0.0873  0.6364
  480MOL0     C63269  -1.550   4.007   5.684  0.4176 -0.8974  1.4872
  480MOL0     C63270  -1.624   3.906   5.609 -0.0899 -0.5706 -0.4463
  480MOL0     C63271  -1.771   3.920   5.649  0.0819 -0.1264  0.0260
  480MOL0    Cl63272  -1.795   3.875   5.818  0.4457 -0.3253 -0.3639
  480MOL0     C63273  -0.706   4.065   5.743 -0.5944 -0.4994 -0.0295
  480MOL0     C63274  -0.569   4.034   5.741  0.5375 -0.1788 -0.9467
  480MOL0     O63275  -0.267   4.174   5.589  0.4405 -0.3240 -0.7797
  480MOL0     C63276  -0.145   3.840   5.529 -0.6015 -0.8378  0.0530
  480MOL0     C63277  -0.034   3.783   5.469  0.1799 -0.4422  0.1990
  480MOL0     N63278   0.789   3.935   5.234  0.4528 -0.1621  0.2168
  480MOL0     N63279   0.899   3.974   5.177  0.3668  0.2277  0.0247
  480MOL0     C63280   1.943   4.168   5.103  0.6165 -1.0167  0.3002
  480MOL0     C63281   2.069   4.186   5.061 -0.5973  0.4234  0.3285
  480MOL0     C63282   2.505   4.141   4.991  0.3946  0.3035 -0.1912
  480MOL0     C63283   2.525   4.099   4.857 -0.7822  0.6512  0.4490
  480MOL0     C63284   2.657   4.108   4.797  0.0998  0.2978 -0.1467
  480MOL0     C63285   2.766   4.152   4.872 -0.1327 -0.0073 -0.5626
  480MOL0     O63286   2.893   4.161   4.822 -0.9102 -0.3135 -0.0502
  480MOL0     C63287   2.954   4.293   4.825  0.5171 -0.2928  0.6262
  480MOL0     C63288   3.091   4.289   4.885  0.2340  0.3046 -0.1487
  480MOL0     C63289   3.185   4.214   4.792  0.1178 -0.0387 -0.4174
  480MOL0     C63290   3.327   4.208   4.845 -0.4366  1.0158  0.2582
  480MOL0     C63291   3.397   4.332   4.878 -0.1196  0.1192 -0.4158
  480MOL0     C63292   3.459   4.433   4.899  0.9092 -0.3613  0.3451
  480MOL0     C63293   2.742   4.179   5.011 -0.2531  1.0640  0.2983
  480MOL0     C63294   2.618   4.176   5.066  0.0172 -0.5208 -0.5068
  480MOL0     H63295   2.087   3.956   4.812 -1.0644  1.9298 -0.1405
  480MOL0     H63296   1.845   3.945   4.880 -0.5078 -1.2961  1.2511
  480MOL0     H63297   1.753   4.083   5.265 -0.4394 -3.2013  1.6013
  480MOL0     H63298   1.634   3.976   5.237 -0.2837 -0.4636  1.0477
  480MOL0     H63299   1.595   4.272   5.196  0.2152  0.3029 -0.0183
  480MOL0     H63300   1.508   4.164   5.303  0.9928 -0.7701  0.9691
  480MOL0     H63301   1.503   4.182   4.996  1.1770 -0.7626 -0.0849
  480MOL0     H63302   1.370   4.218   5.117  0.7298 -0.4466 -0.2091
  480MOL0     H63303   1.484   3.939   5.086  0.1187  1.0010  3.1826
  480MOL0     H63304   1.322   3.994   5.132  0.6588  1.3998  1.5106
  480MOL0     H63305   1.329   3.904   4.881  1.3537  0.7379 -0.3784
  480MOL0     H63306   1.421   4.048   4.845 -1.2835  2.5771 -1.9632
  480MOL0     H63307   1.179   4.068   4.803  0.1416  5.8606 -0.9141
  480MOL0     H63308   1.243   4.192   4.903  5.0329 -0.8319 -0.5857
  480MOL0     H63309   1.129   4.076   5.093 -1.1072 -1.2211  1.3123
  480MOL0     H63310   1.015   4.087   4.951 -0.2841 -1.4534  1.5277
  480MOL0     H63311   1.158   3.842   5.039 -0.2625  0.3767  0.1918
  480MOL0     H63312   1.043   3.857   4.913 -0.1522  2.7589 -0.6755
  480MOL0     H63313   0.893   3.672   5.066  2.7124  0.4141  1.3056
  480MOL0     H63314   0.687   3.643   5.302 -0.8130  0.5905  2.1923
  480MOL0     H63315   0.610   3.649   5.145 -1.2564  1.1494  0.4710
  480MOL0     H63316   0.520   3.874   5.180  0.5078  1.0571 -0.2346
  480MOL0     H63317   0.571   3.870   5.350 -2.3225  1.9472 -1.2151
  480MOL0     H63318   0.369   3.669   5.235  0.3020  1.8253 -2.7139
  480MOL0     H63319   0.426   3.674   5.402  2.0790 -1.2844 -0.3451
  480MOL0     H63320   0.296   3.931   5.293  0.7990  0.8446 -0.0048
  480MOL0     H63321   0.370   3.882   5.443  0.2620 -0.2665 -0.1215
  480MOL0     H63322   0.172   4.045   5.446  0.3093  0.2531  2.0087
  480MOL0     H63323  -0.029   4.163   5.527 -2.4439  0.5334 -2.8170
  480MOL0     H63324  -0.519   4.089   5.394 -3.8041  0.9764 -0.6982
  480MOL0     H63325  -0.755   4.129   5.414  1.6445  2.1969  0.0244
  480MOL0     H63326  -0.927   4.192   5.818  0.7237 -2.2771  0.5113
  480MOL0     H63327  -1.037   4.067   5.786  0.3993 -0.1474  1.1095
  480MOL0     H63328  -1.059   4.334   5.645 -1.7762 -0.4036 -2.5310
  480MOL0     H63329  -1.143   4.272   5.797  0.0001  0.3009  0.6196
  480MOL0     H63330  -1.151   4.116   5.542  1.4204  2.6982 -2.3015
  480MOL0     H63331  -1.227   4.267   5.540  1.5992  1.8649  2.2746
  480MOL0     H63332  -1.287   4.033   5.734  2.7110  1.6089  2.3611
  480MOL0     H63333  -1.357   4.192   5.756 -0.4448  1.4839 -1.1172
  480MOL0     H63334  -1.400   3.997   5.520 -1.5405 -0.7401  0.7618
  480MOL0     H63335  -1.483   4.158   5.551 -0.8330  0.3153  1.7545
  480MOL0     H63336  -1.613   4.085   5.727 -0.0159 -1.2913  1.5760
  480MOL0     H63337  -1.504   3.959   5.771  4.0982 -0.9482 -0.3128
  480MOL0     H63338  -1.613   3.903   5.500  2.4607 -0.7853 -0.2353
  480MOL0     H63339  -1.585   3.810   5.642  1.8971  0.0113 -0.9556
  480MOL0     H63340  -1.833   3.851   5.590 -0.9968  0.0332  0.9410
  480MOL0     H63341  -1.805   4.022   5.633  0.5823  0.0467  0.0479
  480MOL0     H63342  -0.766   4.078   5.832  0.6516 -2.1061  1.1106
  480MOL0     H63343  -0.529   4.010   5.839  1.2833  1.3724 -0.8517
  480MOL0     H63344  -0.227   3.775   5.560  0.5743 -1.7882  1.2504
  480MOL0     H63345  -0.030   3.681   5.433  1.8347  0.4834 -2.5410
  480MOL0     H63346   1.912   4.243   5.175  2.1861  1.2247 -1.2332
  480MOL0     H63347   2.128   4.263   5.108  0.7134  1.9849 -3.5110
  480MOL0     H63348   2.448   4.073   4.785  2.3752 -0.2873 -2.8948
  480MOL0     H63349   2.666   4.076   4.694  1.7508 -2.3998  0.7232
  480MOL0     H63350   2.903   4.359   4.896  2.1520  0.5155  1.0976
  480MOL0     H63351   2.965   4.325   4.721 -0.1182 -0.4852  0.4986
  480MOL0     H63352   3.131   4.389   4.900  0.5461  0.0916  0.4624
  480MOL0     H63353   3.082   4.237   4.980 -2.2474  0.5889 -0.1749
  480MOL0     H63354   3.192   4.261   4.693  0.6045 -1.6153 -1.1643
  480MOL0     H63355   3.148   4.111   4.787  1.3333 -0.4385 -2.1076
  480MOL0     H63356   3.324   4.148   4.936 -2.3454  1.1492  0.3256
  480MOL0     H63357   3.399   4.160   4.778  1.4203  0.6116  2.4417
  480MOL0     H63358   3.510   4.524   4.922  0.3149  0.2783 -0.7944
  480MOL0     H63359   2.827   4.211   5.072  1.2091  0.6234 -1.4337
  480MOL0     H63360   2.610   4.192   5.174  0.3087  2.5338 -0.8465
  481MOL0     O63361   9.460   3.104   6.122 -0.3681 -0.0058 -0.3940
  481MOL0     C63362   9.430   3.091   6.237 -0.4015 -0.2227  0.3303
  481MOL0     O63363   9.296   3.062   6.276  0.9464  0.0649  0.5002
  481MOL0     C63364   9.197   3.085   6.176 -0.4051  0.5410  0.4682
  481MOL0     C63365   9.139   2.977   6.106  0.5591 -0.6533  0.3068
  481MOL0     C63366   9.022   2.987   6.031  0.1100  0.4945 -0.4265
  481MOL0     C63367   8.982   3.117   6.006  0.2486  0.1116 -0.3755
  481MOL0     O63368   8.886   3.143   5.909  0.1179  0.3716  0.2356
  481MOL0     C63369   8.846   3.276   5.879 -0.0940 -0.5427 -0.1995
  481MOL0     C63370   8.736   3.275   5.771  0.3374  0.3157 -0.2927
  481MOL0     C63371   8.593   3.291   5.817 -0.1553  0.8313 -0.7732
  481MOL0     C63372   8.558   3.177   5.903  0.4040  1.0844  0.2581
  481MOL0     C63373   8.405   3.172   5.940 -0.4678 -0.0938  0.5250
  481MOL0     C63374   8.307   3.159   5.814  0.3050  0.4871  0.4226
  481MOL0     C63375   8.157   3.154   5.858 -0.2889 -0.1601 -0.1001
  481MOL0     C63376   8.102   3.027   5.904 -0.7715  0.2928 -0.0328
  481MOL0     N63377   7.961   3.029   5.935  0.3505 -1.1401  0.0766
  481MOL0     C63378   7.868   3.024   5.835  0.3700  0.6748  1.0880
  481MOL0     C63379   7.760   3.084   5.881 -0.5407 -0.1733 -0.6830
  481MOL0     C63380   7.641   3.111   5.800 -0.2461 -0.3601 -0.3113
  481MOL0     C63381   7.511   3.107   5.883  0.0961  0.5718  0.6619
  481MOL0     C63382   7.474   3.239   5.973 -0.4488 -0.2243 -0.3355
  481MOL0     C63383   7.347   3.216   6.037  0.5723 -0.4930 -0.0912
  481MOL0     O63384   7.242   3.207   5.942  0.5959  0.4975  0.1713
  481MOL0     C63385   7.116   3.216   5.996 -0.3563 -0.1522  0.6438
  481MOL0     C63386   7.073   3.248   6.130  0.0627  0.0208  0.2108
  481MOL0     C63387   6.947   3.262   6.166  1.1609  0.0853  0.3265
  481MOL0     C63388   6.843   3.236   6.080 -0.0884  0.6363 -0.2033
  481MOL0     C63389   6.695   3.231   6.115  0.1650 -0.2313  0.8401
  481MOL0     O63390   6.609   3.260   6.016 -0.3653  0.6110 -0.1583
  481MOL0     C63391   6.477   3.270   6.047  0.2149 -0.2535 -0.2031
  481MOL0     C63392   6.415   3.403   6.067  0.0394 -0.4258 -0.3125
  481MOL0     C63393   6.289   3.401   6.133 -0.8328  0.0215 -0.3474
  481MOL0     C63394   6.223   3.287   6.163  0.3418  0.0103  0.0419
  481MOL0     O63395   6.099   3.302   6.220  0.1475 -0.2711  0.1442
  481MOL0     C63396   6.001   3.194   6.236  0.7010 -0.8541  0.1507
  481MOL0     C63397   5.936   3.170   6.100 -0.6162 -0.0898  0.4572
  481MOL0     C63398   5.891   3.026   6.103  0.2595  0.5375  0.2879
  481MOL0     C63399   5.821   2.967   5.975 -1.4347  0.0206 -1.0341
  481MOL0     C63400   5.778   2.822   5.996  0.8180  0.5026 -0.4852
  481MOL0     C63401   5.688   2.763   5.874 -0.1078 -0.0911 -0.6046
  481MOL0     C63402   5.647   2.622   5.903  0.2916  0.0026 -0.6145
  481MOL0     C63403   5.575   2.556   5.792 -0.2392  0.5328 -0.0464
  481MOL0    Cl63404   5.417   2.626   5.754 -0.0410  0.2494 -0.0335
  481MOL0     C63405   6.279   3.167   6.131 -0.4420  0.7992 -0.6696
  481MOL0     C63406   6.402   3.157   6.072 -0.3966  0.1102 -0.2900
  481MOL0     O63407   6.668   3.224   6.232 -0.2237 -0.0282  0.2929
  481MOL0     C63408   6.878   3.189   5.956  0.1098 -0.4593 -0.1059
  481MOL0     C63409   7.014   3.180   5.904 -0.2897  0.0727  0.1153
  481MOL0     N63410   7.782   3.129   6.015  0.2717 -0.7778  0.5896
  481MOL0     N63411   7.907   3.088   6.044  1.1609  0.1078 -1.1445
  481MOL0     C63412   9.040   3.225   6.071 -0.1776 -0.0265 -0.9461
  481MOL0     C63413   9.139   3.210   6.167  0.4923 -0.0207  0.1086
  481MOL0     C63414   9.540   3.090   6.335  0.3640  0.1432  0.7672
  481MOL0     C63415   9.672   3.098   6.297 -0.3483 -0.8792  0.6139
  481MOL0     C63416   9.776   3.110   6.392 -0.3500 -0.5845  0.1711
  481MOL0     C63417   9.758   3.081   6.522 -1.0979 -0.7000  0.3534
  481MOL0     O63418   9.885   3.082   6.588  0.3244  0.2662 -0.3267
  481MOL0     C63419   9.886   3.014   6.719  1.2544  0.7389  0.0574
  481MOL0     C63420   9.877   3.124   6.821  0.1065 -0.3796  0.3790
  481MOL0     C63421   9.964   3.245   6.796  0.4755  0.4355  0.4039
  481MOL0     C63422  10.105   3.213   6.784 -0.2226 -0.7066 -0.1303
  481MOL0     C63423  10.192   3.336   6.773 -0.8665  0.3024  1.6983
  481MOL0     C63424  10.277   3.420   6.796 -0.9390  0.6615  0.9252
  481MOL0     C63425   9.627   3.063   6.560  0.3820 -0.3374  0.7355
  481MOL0     C63426   9.520   3.061   6.467 -0.9390 -0.0443 -0.1645
  481MOL0     H63427   9.181   2.881   6.135  1.6849  0.3249  2.1028
  481MOL0     H63428   8.978   2.896   5.991 -0.9431 -0.3153  2.3187
  481MOL0     H63429   8.930   3.323   5.826 -1.2510  1.4985 -0.3293
  481MOL0     H63430   8.823   3.332   5.971 -0.3511  1.5040 -1.4438
  481MOL0     H63431   8.755   3.180   5.720  0.6700  0.2969 -0.1429
  481MOL0     H63432   8.758   3.350   5.694 -4.4187  2.6481  0.2869
  481MOL0     H63433   8.525   3.289   5.731 -2.1937  1.8949  0.7276
  481MOL0     H63434   8.585   3.384   5.874  4.1982 -0.1255  1.8782
  481MOL0     H63435   8.586   3.088   5.846 -2.1864  1.8550 -2.5174
  481MOL0     H63436   8.623   3.180   5.991  3.0909  0.2597 -1.5733
  481MOL0     H63437   8.376   3.268   5.985 -1.0502 -1.1689  2.5633
  481MOL0     H63438   8.394   3.100   6.021 -0.0448  2.1272  2.6938
  481MOL0     H63439   8.325   3.063   5.765 -2.1837  0.3773 -0.4259
  481MOL0     H63440   8.330   3.240   5.743 -0.1531  1.1944  1.0583
  481MOL0     H63441   8.130   3.241   5.918 -1.0542 -0.2869 -0.2577
  481MOL0     H63442   8.098   3.172   5.768  2.6988 -1.3035 -2.4811
  481MOL0     H63443   8.145   2.991   5.998 -2.3342 -1.0312  0.2091
  481MOL0     H63444   8.127   2.956   5.825  1.1300  1.1707 -0.2963
  481MOL0     H63445   7.893   2.995   5.733  0.7338  0.5590  1.2091
  481MOL0     H63446   7.636   3.043   5.714 -1.0615  1.4062 -1.7312
  481MOL0     H63447   7.657   3.212   5.762 -0.6340  0.7196  2.2237
  481MOL0     H63448   7.487   3.014   5.935 -0.0196 -1.1626 -2.2639
  481MOL0     H63449   7.433   3.110   5.806  2.2775  0.9822 -1.7093
  481MOL0     H63450   7.556   3.243   6.045 -0.3316  0.5314 -0.5026
  481MOL0     H63451   7.443   3.320   5.906  0.6567 -2.1710 -3.4626
  481MOL0     H63452   7.334   3.299   6.107  2.7197 -0.7759  0.7093
  481MOL0     H63453   7.345   3.122   6.093  1.5910  0.0379  0.8645
  481MOL0     H63454   7.158   3.275   6.193  0.0793  2.3694 -0.7140
  481MOL0     H63455   6.915   3.277   6.268  2.4575 -1.2661  0.9611
  481MOL0     H63456   6.466   3.498   6.054  0.6629 -0.6419  0.4503
  481MOL0     H63457   6.232   3.489   6.162 -1.3667  0.5988 -2.9240
  481MOL0     H63458   5.928   3.224   6.311 -1.8700 -4.6217 -0.5949
  481MOL0     H63459   6.051   3.105   6.275 -1.4029 -1.5480  1.3678
  481MOL0     H63460   5.998   3.194   6.013 -2.0551  1.0267 -0.3115
  481MOL0     H63461   5.850   3.236   6.085  0.1239  0.8083  0.0784
  481MOL0     H63462   5.822   3.011   6.186  2.0184 -2.0299  1.3896
  481MOL0     H63463   5.978   2.966   6.129  0.1846 -0.0432 -0.7351
  481MOL0     H63464   5.732   3.026   5.952 -1.3207  0.4811 -0.3009
  481MOL0     H63465   5.895   2.964   5.894  2.3286  1.1451  2.0283
  481MOL0     H63466   5.718   2.810   6.086  2.2986 -0.3027  0.4427
  481MOL0     H63467   5.863   2.753   6.004 -2.6590 -4.0927  1.6843
  481MOL0     H63468   5.742   2.770   5.779  2.3441 -1.9307  0.5620
  481MOL0     H63469   5.597   2.823   5.871  0.1300  0.2373 -1.5226
  481MOL0     H63470   5.738   2.565   5.926  1.1565  2.1679  1.7234
  481MOL0     H63471   5.582   2.630   5.991  1.3000  2.3177 -0.0336
  481MOL0     H63472   5.571   2.448   5.808  0.2686  0.4710 -0.3062
  481MOL0     H63473   5.625   2.566   5.695 -0.7464 -0.7532 -0.4726
  481MOL0     H63474   6.221   3.079   6.155 -1.2500  1.3698 -0.4744
  481MOL0     H63475   6.459   3.070   6.044  0.8318  0.4179  1.1072
  481MOL0     H63476   6.790   3.167   5.897 -0.3698 -2.9977  1.3881
  481MOL0     H63477   7.040   3.165   5.800  1.9254  1.0361  0.4623
  481MOL0     H63478   8.994   3.323   6.075  0.6904  0.4330  4.4180
  481MOL0     H63479   9.170   3.294   6.230 -3.2674  2.0435 -0.4982
  481MOL0     H63480   9.695   3.109   6.192  2.5243 -0.7057  1.1614
  481MOL0     H63481   9.870   3.133   6.343 -1.0314  0.1784 -0.8329
  481MOL0     H63482   9.979   2.956   6.726  0.3408 -0.8181 -0.0622
  481MOL0     H63483   9.805   2.941   6.727  2.3990 -0.8758 -1.8591
  481MOL0     H63484   9.775   3.165   6.822 -0.9859 -2.8714 -0.3456
  481MOL0     H63485   9.888   3.076   6.919 -0.0096 -0.0513  0.5541
  481MOL0     H63486   9.950   3.323   6.872 -1.3081  2.8757 -2.2105
  481MOL0     H63487   9.936   3.297   6.704  0.5213 -4.2563 -2.5668
  481MOL0     H63488  10.136   3.152   6.869 -0.2170 -1.1323 -0.4339
  481MOL0     H63489  10.127   3.151   6.696  0.3309  1.3319 -1.4983
  481MOL0     H63490  10.346   3.495   6.828 -1.1530  0.9117  0.8072
  481MOL0     H63491   9.598   3.039   6.662 -1.5281  0.7785  0.5050
  481MOL0     H63492   9.417   3.044   6.497 -1.6567  1.3542 -1.6939
  482MOL0     O63493   4.939  10.617   8.807  0.1559 -0.8447 -0.8085
  482MOL0     C63494   5.026  10.685   8.770 -0.7232 -0.7800  0.3373
  482MOL0     O63495   5.155  10.653   8.787  0.6995 -0.0574 -0.2530
  482MOL0     C63496   5.211  10.529   8.811  0.4183 -0.6778 -0.6108
  482MOL0     C63497   5.345  10.528   8.853 -0.8385 -0.6585 -0.1394
  482MOL0     C63498   5.412  10.408   8.867 -0.0278  0.3784  0.1152
  482MOL0     C63499   5.354  10.281   8.834 -0.6244  0.1739 -0.4421
  482MOL0     O63500   5.437  10.175   8.860 -0.5418 -0.3048 -0.5598
  482MOL0     C63501   5.393  10.055   8.789 -0.6668  0.3224  0.6866
  482MOL0     C63502   5.495   9.952   8.826 -0.0634  0.0486  0.9574
  482MOL0     C63503   5.463   9.808   8.777 -0.5949  0.2748 -0.3011
  482MOL0     C63504   5.438   9.797   8.628 -0.2475  0.5562  0.8804
  482MOL0     C63505   5.395   9.651   8.587 -0.3413 -0.3679  0.2794
  482MOL0     C63506   5.346   9.636   8.440  0.4960 -0.2180 -0.1137
  482MOL0     C63507   5.331   9.484   8.400  0.2878 -0.2463  0.4099
  482MOL0     C63508   5.215   9.411   8.470 -0.7265  0.3109 -0.4288
  482MOL0     N63509   5.078   9.439   8.430  0.0025 -0.2569  0.5682
  482MOL0     C63510   4.963   9.447   8.511 -0.4887 -0.5784  0.5775
  482MOL0     C63511   4.866   9.485   8.423  0.4063 -0.1452 -0.6242
  482MOL0     C63512   4.716   9.516   8.456  0.1584 -0.3355  0.6974
  482MOL0     C63513   4.635   9.388   8.432  0.4511  0.3075 -0.5719
  482MOL0     C63514   4.482   9.392   8.486 -0.2805  0.4418  0.2833
  482MOL0     C63515   4.480   9.414   8.635 -0.5208  0.7910  0.1095
  482MOL0     O63516   4.350   9.429   8.674  0.5738 -0.0281  0.1449
  482MOL0     C63517   4.267   9.326   8.697  0.6478  0.3506  0.8454
  482MOL0     C63518   4.137   9.351   8.743 -0.8053  0.5408 -0.8352
  482MOL0     C63519   4.058   9.244   8.773  0.3096  0.6923  0.3054
  482MOL0     C63520   4.086   9.114   8.728 -0.7327  0.3169 -0.2126
  482MOL0     C63521   3.989   9.008   8.755  0.6221 -0.4356  0.2754
  482MOL0     O63522   3.860   9.049   8.778 -0.3672  0.4000 -0.3324
  482MOL0     C63523   3.780   8.962   8.838  0.2581 -0.1302  0.1090
  482MOL0     C63524   3.690   8.883   8.760 -0.6181 -0.0651  0.3915
  482MOL0     C63525   3.609   8.791   8.828  1.0985  0.0198 -0.0716
  482MOL0     C63526   3.610   8.769   8.969 -1.1049 -0.2896  0.5740
  482MOL0     O63527   3.533   8.675   9.023 -0.1519  0.2332 -0.0725
  482MOL0     C63528   3.494   8.691   9.159 -0.2637 -0.0401 -0.5812
  482MOL0     C63529   3.343   8.668   9.159 -0.2237  0.1250  0.3016
  482MOL0     C63530   3.283   8.672   9.297  0.3211 -0.1478 -0.2459
  482MOL0     C63531   3.132   8.719   9.301  0.0099  0.3630 -0.2049
  482MOL0     C63532   3.112   8.816   9.418 -0.0213 -0.2199 -0.2399
  482MOL0     C63533   2.975   8.875   9.421 -0.4583  0.0583 -0.9001
  482MOL0     C63534   2.916   8.839   9.557  0.7183  0.2830  0.4743
  482MOL0     C63535   2.811   8.929   9.621 -0.5022 -0.0178 -0.2097
  482MOL0    Cl63536   2.686   8.964   9.495 -0.1184 -0.3923  0.4014
  482MOL0     C63537   3.702   8.852   9.041 -0.4011  0.1276 -0.4028
  482MOL0     C63538   3.782   8.950   8.973 -0.6088  0.7238  0.8503
  482MOL0     O63539   4.033   8.894   8.762  0.5976 -0.0958  0.3140
  482MOL0     C63540   4.211   9.088   8.677 -0.8074  0.0134 -0.7873
  482MOL0     C63541   4.306   9.191   8.674 -0.0803 -0.9847  0.0428
  482MOL0     N63542   4.916   9.481   8.295  0.7899  0.3901  0.1260
  482MOL0     N63543   5.041   9.454   8.299 -0.5216  0.0521  0.3045
  482MOL0     C63544   5.210  10.285   8.814 -0.2334  0.4283  0.1987
  482MOL0     C63545   5.147  10.404   8.808 -1.0260 -0.2811  0.7344
  482MOL0     C63546   5.000  10.813   8.704 -0.0847  0.0090  0.9348
  482MOL0     C63547   5.106  10.911   8.686 -1.0050  0.3211 -0.2455
  482MOL0     C63548   5.070  11.029   8.614  0.2730 -0.9359  0.9057
  482MOL0     C63549   4.951  11.039   8.539  0.7849 -0.6588  0.1964
  482MOL0     O63550   4.915  11.142   8.457  0.4069  0.0598 -0.2484
  482MOL0     C63551   4.888  11.262   8.533  0.3277 -0.4380  0.0847
  482MOL0     C63552   4.754  11.263   8.610 -0.2769 -0.6868 -0.2865
  482MOL0     C63553   4.731  11.396   8.686  0.8410  0.2121 -0.5349
  482MOL0     C63554   4.816  11.441   8.805 -0.3969  0.1407 -0.7214
  482MOL0     C63555   4.773  11.564   8.869  0.2389 -1.0073  0.7072
  482MOL0     C63556   4.755  11.668   8.935  0.8741  0.3143  0.0435
  482MOL0     C63557   4.848  10.943   8.563 -0.4385 -0.4713  0.5714
  482MOL0     C63558   4.876  10.826   8.637  0.1350  0.0705  0.5083
  482MOL0     H63559   5.383  10.626   8.880  0.1935 -1.5189  1.7136
  482MOL0     H63560   5.511  10.401   8.912 -0.4240 -0.4854  0.9074
  482MOL0     H63561   5.387  10.063   8.680  1.6734 -0.1342  0.4741
  482MOL0     H63562   5.299  10.016   8.829 -0.3945  0.0813  1.0955
  482MOL0     H63563   5.512   9.934   8.933  0.7822 -1.2241  0.6349
  482MOL0     H63564   5.592   9.985   8.785 -1.1686  0.4785 -1.4627
  482MOL0     H63565   5.386   9.755   8.833  1.4264 -3.0401 -0.3689
  482MOL0     H63566   5.557   9.755   8.795 -0.1128  1.7671  1.8289
  482MOL0     H63567   5.361   9.869   8.600  0.6698  1.6822  1.2044
  482MOL0     H63568   5.524   9.823   8.566 -0.3621 -2.7735 -0.9013
  482MOL0     H63569   5.321   9.613   8.657  0.7632  0.8041  2.1521
  482MOL0     H63570   5.487   9.591   8.596  0.6908  0.7248 -1.9925
  482MOL0     H63571   5.418   9.691   8.378  0.4170  1.8119  1.4578
  482MOL0     H63572   5.244   9.672   8.426  1.0824  0.9333 -1.6932
  482MOL0     H63573   5.322   9.467   8.293  1.0531  0.0608  0.2893
  482MOL0     H63574   5.420   9.425   8.422 -1.3109 -4.1368 -2.4277
  482MOL0     H63575   5.231   9.423   8.577  2.5280 -2.2804 -0.4662
  482MOL0     H63576   5.222   9.304   8.448 -1.1388 -0.3025  2.1565
  482MOL0     H63577   4.958   9.435   8.618  2.0127  0.1294  0.8377
  482MOL0     H63578   4.694   9.589   8.379  3.0033  0.7236  0.7694
  482MOL0     H63579   4.705   9.578   8.545 -2.7416 -0.1609  0.2895
  482MOL0     H63580   4.697   9.315   8.484  1.1206  1.2218 -0.0392
  482MOL0     H63581   4.645   9.366   8.326  2.2637 -2.2131  0.0337
  482MOL0     H63582   4.423   9.468   8.435 -0.4939  1.3120  1.7840
  482MOL0     H63583   4.437   9.299   8.449 -2.0356  1.1507  0.5452
  482MOL0     H63584   4.529   9.511   8.648  1.3676 -0.0026 -0.6944
  482MOL0     H63585   4.551   9.343   8.678  3.9237  3.7410 -1.6643
  482MOL0     H63586   4.103   9.446   8.783  1.8542  1.1222  0.2601
  482MOL0     H63587   3.963   9.267   8.821 -0.5298 -0.7243 -0.6046
  482MOL0     H63588   3.692   8.908   8.654 -0.1477  2.6152  0.9765
  482MOL0     H63589   3.552   8.722   8.767  0.7263  0.1318  0.1440
  482MOL0     H63590   3.501   8.795   9.195  0.7751 -0.3305  0.0844
  482MOL0     H63591   3.546   8.626   9.229 -0.5447 -1.2321 -1.4549
  482MOL0     H63592   3.313   8.572   9.117 -0.0268 -0.2190  0.9406
  482MOL0     H63593   3.294   8.741   9.093  0.0864  0.3203  0.2856
  482MOL0     H63594   3.332   8.753   9.352 -1.0300 -0.3794  1.3989
  482MOL0     H63595   3.313   8.585   9.356 -2.1214 -1.2170 -0.4700
  482MOL0     H63596   3.105   8.780   9.215 -1.0596  3.2055  1.9716
  482MOL0     H63597   3.075   8.626   9.302  2.3779 -1.1654 -0.2502
  482MOL0     H63598   3.183   8.892   9.382 -2.1525 -0.0862 -4.9104
  482MOL0     H63599   3.136   8.775   9.516 -2.5555 -1.2327  0.0325
  482MOL0     H63600   2.915   8.865   9.329  1.5631 -0.7769 -2.1886
  482MOL0     H63601   2.981   8.984   9.431 -0.6198 -0.0005 -0.1243
  482MOL0     H63602   2.877   8.737   9.555  0.9197  0.2107 -0.3777
  482MOL0     H63603   2.988   8.838   9.640 -1.0781 -2.6433  2.1389
  482MOL0     H63604   2.862   9.024   9.638  1.3458 -0.9443 -0.2792
  482MOL0     H63605   2.767   8.895   9.715 -2.2839  3.6017  0.4220
  482MOL0     H63606   3.702   8.854   9.150 -0.9649  0.1130 -0.3962
  482MOL0     H63607   3.864   9.003   9.020  3.5219 -1.7576 -2.7439
  482MOL0     H63608   4.231   8.983   8.657 -3.7314 -1.4537  2.8480
  482MOL0     H63609   4.407   9.176   8.638  0.8360  1.0441  1.5558
  482MOL0     H63610   5.155  10.191   8.814  0.5501 -0.0305  0.1759
  482MOL0     H63611   5.040  10.385   8.796 -0.6007 -3.0682  0.6852
  482MOL0     H63612   5.198  10.883   8.737 -0.7630  0.5436 -0.5587
  482MOL0     H63613   5.138  11.113   8.614  0.4193 -1.0526  1.2294
  482MOL0     H63614   4.871  11.338   8.457 -0.4007 -3.9447 -3.5960
  482MOL0     H63615   4.970  11.281   8.603 -0.7452 -0.5783  1.4137
  482MOL0     H63616   4.670  11.254   8.540  2.4905 -0.3539 -3.9491
  482MOL0     H63617   4.764  11.174   8.673 -0.4243  0.2435  1.0788
  482MOL0     H63618   4.631  11.393   8.730  1.5605  0.5039  1.2319
  482MOL0     H63619   4.717  11.472   8.609 -1.7348 -1.3450 -1.7268
  482MOL0     H63620   4.815  11.358   8.876  0.8037  0.3395 -0.4486
  482MOL0     H63621   4.922  11.444   8.776  0.7830 -1.0489  2.9771
  482MOL0     H63622   4.758  11.756   8.995 -0.8881  0.9871 -0.7953
  482MOL0     H63623   4.753  10.965   8.515  0.9731  2.5527 -1.1346
  482MOL0     H63624   4.794  10.755   8.639 -1.0349  1.2378 -1.7763
  483MOL0     O63625   3.797   8.764   5.535 -0.4013 -0.6347 -0.0800
  483MOL0     C63626   3.805   8.701   5.432  0.5451 -0.5073  0.5313
  483MOL0     O63627   3.701   8.642   5.362  0.4077  0.2152 -0.2048
  483MOL0     C63628   3.566   8.679   5.393  0.3141  0.4025  0.6367
  483MOL0     C63629   3.516   8.712   5.527 -0.3338 -0.2737 -0.4726
  483MOL0     C63630   3.380   8.749   5.547  0.2801 -0.2444 -0.7438
  483MOL0     C63631   3.291   8.751   5.439  0.0812  0.3653  0.3970
  483MOL0     O63632   3.161   8.773   5.465 -0.2181  0.6320 -0.4079
  483MOL0     C63633   3.078   8.671   5.403 -0.1858 -0.4351 -0.5456
  483MOL0     C63634   2.946   8.724   5.350 -0.1970  0.1890  0.3508
  483MOL0     C63635   2.844   8.608   5.334  1.0118 -0.0131 -0.6530
  483MOL0     C63636   2.710   8.652   5.296  0.7754 -0.9900  0.0647
  483MOL0     C63637   2.628   8.703   5.423 -1.4469 -0.7433 -0.2638
  483MOL0     C63638   2.529   8.819   5.379  0.5738 -0.1814 -0.4616
  483MOL0     C63639   2.442   8.867   5.497  0.3028 -0.2927  0.1519
  483MOL0     C63640   2.515   8.975   5.581  0.6630 -0.2971  0.5168
  483MOL0     N63641   2.434   9.036   5.686  0.1361 -0.4531  0.4384
  483MOL0     C63642   2.380   8.960   5.790  0.5455 -0.3057 -0.5566
  483MOL0     C63643   2.319   9.052   5.868 -0.4588 -0.1363  0.3536
  483MOL0     C63644   2.247   9.040   6.002 -0.7774 -1.1697 -0.3000
  483MOL0     C63645   2.100   8.986   6.011 -0.1299  0.5611 -0.6734
  483MOL0     C63646   2.045   9.015   6.151 -0.7916 -0.3298  0.6412
  483MOL0     C63647   2.054   8.882   6.236 -0.1161  0.6749  0.8475
  483MOL0     O63648   1.983   8.777   6.181  0.0939 -0.1359 -0.6859
  483MOL0     C63649   1.849   8.753   6.180  0.2935 -0.5092 -0.9894
  483MOL0     C63650   1.800   8.662   6.091 -0.0807  0.2620 -0.7590
  483MOL0     C63651   1.671   8.612   6.094 -0.5724  0.2694 -1.3024
  483MOL0     C63652   1.582   8.658   6.195 -0.2256  0.1891  0.7639
  483MOL0     C63653   1.444   8.610   6.211  0.4089  0.0994  0.5050
  483MOL0     O63654   1.414   8.493   6.139  0.4035 -0.0080  0.3947
  483MOL0     C63655   1.303   8.434   6.175  0.8864  0.1582 -0.1180
  483MOL0     C63656   1.184   8.495   6.127  0.5347 -0.1566  1.1070
  483MOL0     C63657   1.060   8.436   6.151 -0.9068  0.6753  0.6348
  483MOL0     C63658   1.055   8.317   6.221  0.6622  0.3896 -0.2409
  483MOL0     O63659   0.939   8.248   6.236 -0.1353  0.1377  0.1327
  483MOL0     C63660   0.931   8.113   6.216  0.7580 -0.0131 -0.3018
  483MOL0     C63661   0.797   8.046   6.257 -0.1148 -0.1177  0.1104
  483MOL0     C63662   0.779   7.902   6.214 -0.8850  0.4119  0.0564
  483MOL0     C63663   0.826   7.802   6.324 -0.4010  0.1790 -0.2380
  483MOL0     C63664   0.828   7.652   6.270  0.1914  1.1446 -0.1208
  483MOL0     C63665   0.918   7.558   6.344 -0.3536  1.0136  0.1438
  483MOL0     C63666   0.904   7.407   6.309  0.0782 -0.2885 -0.8032
  483MOL0     C63667   1.038   7.339   6.348 -0.0565  0.9246  0.2181
  483MOL0    Cl63668   1.097   7.410   6.497 -0.1786 -0.3008 -0.1746
  483MOL0     C63669   1.169   8.255   6.277  0.0644  1.2948 -0.9973
  483MOL0     C63670   1.296   8.311   6.257  0.0241 -0.0632  0.0220
  483MOL0     O63671   1.367   8.674   6.294 -0.0227 -0.3173 -0.5810
  483MOL0     C63672   1.629   8.766   6.276 -0.5760  0.1591  0.5057
  483MOL0     C63673   1.762   8.806   6.269 -0.5003 -0.1186 -1.2134
  483MOL0     N63674   2.342   9.178   5.802  0.0004  1.2919  0.1517
  483MOL0     N63675   2.407   9.167   5.703 -0.1582 -0.6108  0.0063
  483MOL0     C63676   3.340   8.734   5.315 -0.5664 -0.1772  0.6797
  483MOL0     C63677   3.471   8.694   5.287 -0.2271  0.1617 -0.0383
  483MOL0     C63678   3.943   8.685   5.379 -0.1382  0.0132  0.2610
  483MOL0     C63679   4.059   8.748   5.433 -0.2222 -0.1625  0.3377
  483MOL0     C63680   4.184   8.724   5.363 -0.0110 -0.7476 -0.7203
  483MOL0     C63681   4.188   8.651   5.243 -0.6971 -1.3043 -0.0455
  483MOL0     O63682   4.293   8.642   5.150  0.6718 -0.0061 -0.0835
  483MOL0     C63683   4.418   8.686   5.204 -0.8522 -0.0603 -0.6271
  483MOL0     C63684   4.522   8.663   5.099  0.2090 -0.3828  0.0118
  483MOL0     C63685   4.667   8.682   5.147 -0.0091  0.5251 -0.3158
  483MOL0     C63686   4.698   8.834   5.176  0.3133  0.3538  0.5225
  483MOL0     C63687   4.705   8.910   5.048  0.9732 -0.8443 -0.7767
  483MOL0     C63688   4.719   8.979   4.947 -0.5486 -0.4607  0.5065
  483MOL0     C63689   4.079   8.586   5.197 -0.0689 -0.9327 -0.3146
  483MOL0     C63690   3.954   8.606   5.264  0.6237 -0.2668  0.7539
  483MOL0     H63691   3.586   8.706   5.610  0.8701 -0.4877 -1.4678
  483MOL0     H63692   3.342   8.771   5.646 -0.1037  2.1051 -1.3565
  483MOL0     H63693   3.060   8.593   5.477 -3.3077 -1.3122 -2.0399
  483MOL0     H63694   3.130   8.619   5.322 -0.2207  0.2997 -1.0509
  483MOL0     H63695   2.963   8.765   5.250 -0.9383  0.6979  0.4295
  483MOL0     H63696   2.907   8.802   5.416  0.4781  0.5134  0.3739
  483MOL0     H63697   2.836   8.557   5.431 -0.1692  0.0405 -0.7189
  483MOL0     H63698   2.883   8.547   5.251 -1.7534  1.6786 -3.3800
  483MOL0     H63699   2.720   8.737   5.228 -0.3332 -2.0538 -1.4815
  483MOL0     H63700   2.654   8.575   5.243 -1.0414  0.1257  0.2754
  483MOL0     H63701   2.703   8.752   5.487  0.5861  0.7490 -3.5279
  483MOL0     H63702   2.591   8.620   5.483  1.2102  0.0341  2.7761
  483MOL0     H63703   2.451   8.786   5.310  0.9231  0.9968 -1.4535
  483MOL0     H63704   2.590   8.903   5.344 -2.3865  1.5390 -1.7738
  483MOL0     H63705   2.347   8.909   5.461  2.4380  2.0432 -3.5057
  483MOL0     H63706   2.425   8.778   5.558  2.5795 -1.2962 -0.5860
  483MOL0     H63707   2.543   9.058   5.515  3.8451 -1.4026  0.3016
  483MOL0     H63708   2.601   8.924   5.628  0.9586  1.9090  2.5800
  483MOL0     H63709   2.406   8.855   5.797 -1.0755 -0.7079 -0.2987
  483MOL0     H63710   2.245   9.140   6.045  0.9817 -1.6219  0.9401
  483MOL0     H63711   2.304   8.975   6.070 -1.4445  0.3399  1.8246
  483MOL0     H63712   2.103   8.885   5.970 -0.2644  1.7296 -3.8327
  483MOL0     H63713   2.048   9.045   5.936 -0.0422  2.5291  0.7351
  483MOL0     H63714   2.104   9.094   6.196 -4.1305  4.2756 -2.1469
  483MOL0     H63715   1.943   9.054   6.150 -1.1176 -1.1384  1.0530
  483MOL0     H63716   2.033   8.885   6.343  0.5461 -1.6409  1.1004
  483MOL0     H63717   2.162   8.866   6.230 -0.1879  0.0680  1.1593
  483MOL0     H63718   1.869   8.632   6.013  1.3650  1.6961 -0.1019
  483MOL0     H63719   1.630   8.547   6.018 -0.2556 -0.9928 -0.4287
  483MOL0     H63720   1.192   8.582   6.063  2.2029 -0.4476  0.8658
  483MOL0     H63721   0.972   8.472   6.099 -0.7999  0.8870  0.5997
  483MOL0     H63722   1.007   8.061   6.275  0.4793 -1.5389 -1.2208
  483MOL0     H63723   0.942   8.074   6.114  0.9571 -2.6034  0.6457
  483MOL0     H63724   0.707   8.095   6.218 -0.6232  0.2694  1.7204
  483MOL0     H63725   0.790   8.054   6.366  0.6925  0.6174  0.1118
  483MOL0     H63726   0.828   7.887   6.117  0.9629  2.5064  0.5837
  483MOL0     H63727   0.675   7.874   6.198 -0.6538 -1.0496  0.8662
  483MOL0     H63728   0.934   7.816   6.337 -0.1440  0.1715 -2.0675
  483MOL0     H63729   0.775   7.811   6.420  1.3135  1.9798  0.5744
  483MOL0     H63730   0.872   7.646   6.170  2.7431 -1.2388  1.0201
  483MOL0     H63731   0.729   7.605   6.264  0.6471  0.2692 -1.4856
  483MOL0     H63732   0.899   7.570   6.451  1.2683 -1.2482  0.7662
  483MOL0     H63733   1.019   7.591   6.318  0.0152  1.4267  1.9611
  483MOL0     H63734   0.824   7.384   6.380 -1.2316  3.1650 -0.9853
  483MOL0     H63735   0.861   7.384   6.211  0.2848 -1.8083 -0.5569
  483MOL0     H63736   1.112   7.356   6.269  0.4423 -0.0141  0.4696
  483MOL0     H63737   1.017   7.233   6.360  0.0133  0.6559 -1.6566
  483MOL0     H63738   1.170   8.163   6.335 -2.7041 -0.4016 -3.3815
  483MOL0     H63739   1.393   8.279   6.293 -0.0615 -3.4278 -2.2711
  483MOL0     H63740   1.558   8.802   6.350  0.0500 -1.4619  1.9658
  483MOL0     H63741   1.795   8.876   6.345 -1.4367 -2.2726  1.3227
  483MOL0     H63742   3.288   8.761   5.224 -0.7851  0.8153  1.0786
  483MOL0     H63743   3.498   8.674   5.184 -1.6870 -0.0154 -0.4205
  483MOL0     H63744   4.063   8.796   5.530 -2.3476  1.0354 -0.1199
  483MOL0     H63745   4.279   8.765   5.398 -0.6892  1.0044 -0.8484
  483MOL0     H63746   4.436   8.622   5.291  2.2233  0.8802 -0.4622
  483MOL0     H63747   4.433   8.790   5.235  0.2858  0.3956 -2.5305
  483MOL0     H63748   4.507   8.566   5.052  0.3552  1.4857 -4.3666
  483MOL0     H63749   4.505   8.745   5.029  2.4542  0.5283  0.4440
  483MOL0     H63750   4.745   8.644   5.081  3.9908  0.8790  3.7032
  483MOL0     H63751   4.684   8.620   5.235 -0.9235  1.5689  0.6432
  483MOL0     H63752   4.638   8.888   5.250  1.5162 -0.4899  2.1865
  483MOL0     H63753   4.798   8.832   5.220 -0.6245 -0.7009  2.8228
  483MOL0     H63754   4.715   9.025   4.851 -3.0993 -0.5465  0.5036
  483MOL0     H63755   4.091   8.530   5.105  0.9971 -1.0874 -0.0950
  483MOL0     H63756   3.867   8.561   5.218  0.5033 -1.2995  1.9420
  484MOL0     O63757   9.224   7.173   0.665  0.1893 -0.0960  0.3082
  484MOL0     C63758   9.293   7.122   0.751 -0.5922  0.0186  0.5622
  484MOL0     O63759   9.247   7.035   0.845 -0.4878  0.5085 -0.4777
  484MOL0     C63760   9.117   7.012   0.861  0.3244  0.0290 -0.2172
  484MOL0     C63761   9.074   6.988   0.992  0.9556  0.5830 -1.0700
  484MOL0     C63762   8.939   6.965   1.027 -0.5245 -0.2280 -0.1935
  484MOL0     C63763   8.843   6.966   0.929 -0.5370  0.9174  0.1134
  484MOL0     O63764   8.714   6.935   0.953 -0.2000 -0.4169  0.3241
  484MOL0     C63765   8.707   6.813   1.028 -0.0659 -0.1363 -0.8260
  484MOL0     C63766   8.583   6.734   0.988  0.6308  0.3466  0.1934
  484MOL0     C63767   8.457   6.813   0.979 -0.0105 -0.1505  0.1269
  484MOL0     C63768   8.332   6.734   0.944  0.2759  0.1846 -0.2655
  484MOL0     C63769   8.214   6.813   0.884  0.0203 -0.7207  0.3856
  484MOL0     C63770   8.192   6.944   0.949 -0.0215  0.8562 -0.0156
  484MOL0     C63771   8.050   6.985   0.919 -0.1674 -0.2516  0.1715
  484MOL0     C63772   8.004   7.122   0.981  0.0841  0.5925 -0.1044
  484MOL0     N63773   7.861   7.151   0.957 -0.5438 -0.1890  0.5288
  484MOL0     C63774   7.802   7.151   0.837  0.1179 -0.1206 -0.7074
  484MOL0     C63775   7.688   7.216   0.854  0.4588 -0.6955  0.3301
  484MOL0     C63776   7.599   7.258   0.743  0.2384 -0.2537  0.0583
  484MOL0     C63777   7.456   7.218   0.756  0.0353 -0.7204  0.6259
  484MOL0     C63778   7.425   7.079   0.807 -0.1673  0.2301  0.6612
  484MOL0     C63779   7.323   7.083   0.921  1.2153  0.6388 -0.0674
  484MOL0     O63780   7.199   7.145   0.889  0.4202  0.2700  0.2457
  484MOL0     C63781   7.112   7.165   0.988  0.4760 -0.1026  0.3719
  484MOL0     C63782   7.119   7.099   1.108  0.1229  0.2634  0.1646
  484MOL0     C63783   7.027   7.129   1.212 -0.1752  0.4612  0.2118
  484MOL0     C63784   6.915   7.207   1.183 -0.2330  0.4205 -1.1972
  484MOL0     C63785   6.808   7.222   1.287 -0.2920  0.7263  0.0260
  484MOL0     O63786   6.689   7.277   1.252  0.5582 -0.1417  0.0792
  484MOL0     C63787   6.587   7.280   1.347  0.2994  0.2162  0.5019
  484MOL0     C63788   6.604   7.370   1.450 -0.5415  0.7679 -0.2897
  484MOL0     C63789   6.504   7.381   1.552 -0.2575 -0.3359  0.4924
  484MOL0     C63790   6.382   7.315   1.541 -0.1777 -0.1591  0.1348
  484MOL0     O63791   6.293   7.326   1.637  0.3140 -0.4610 -0.4465
  484MOL0     C63792   6.153   7.290   1.608 -0.4848 -0.3013  0.2417
  484MOL0     C63793   6.063   7.362   1.701 -0.8700  0.4245 -0.1629
  484MOL0     C63794   5.921   7.320   1.673  0.7124  0.1316  0.5086
  484MOL0     C63795   5.825   7.383   1.773 -0.2303  0.1089 -0.1555
  484MOL0     C63796   5.682   7.370   1.736  0.4632 -0.0612 -0.3816
  484MOL0     C63797   5.603   7.472   1.821 -0.3498  0.2666  0.3890
  484MOL0     C63798   5.451   7.475   1.786  0.0027 -0.6511  0.1008
  484MOL0     C63799   5.367   7.355   1.838  0.4497 -0.6479  0.0240
  484MOL0    Cl63800   5.190   7.370   1.799  0.0143 -0.0018  0.2304
  484MOL0     C63801   6.362   7.240   1.423  0.1969 -0.2541 -0.8107
  484MOL0     C63802   6.465   7.215   1.339 -0.6902 -0.3905 -0.2992
  484MOL0     O63803   6.834   7.182   1.401  0.1916  0.4537  0.0248
  484MOL0     C63804   6.911   7.274   1.060 -0.8684 -0.1974  0.5070
  484MOL0     C63805   7.015   7.266   0.962 -0.3483  0.9774  0.5736
  484MOL0     N63806   7.674   7.264   0.980  0.7933  0.3229  0.4311
  484MOL0     N63807   7.780   7.223   1.043  0.4440  0.4297  0.5786
  484MOL0     C63808   8.881   6.986   0.798  0.0257  0.0258 -0.4775
  484MOL0     C63809   9.017   7.010   0.766  0.0512  0.4153 -0.4409
  484MOL0     C63810   9.437   7.133   0.740 -0.0329 -0.4516  1.0180
  484MOL0     C63811   9.501   7.180   0.624  0.2349 -1.0818  0.6108
  484MOL0     C63812   9.633   7.180   0.608 -0.8335 -0.7151  0.3218
  484MOL0     C63813   9.723   7.158   0.714 -0.2419 -0.1671 -0.1134
  484MOL0     O63814   9.852   7.190   0.687 -0.8152  0.0486 -0.5593
  484MOL0     C63815   9.958   7.167   0.777  0.3262  0.2706  0.3397
  484MOL0     C63816  10.002   7.298   0.825 -0.2535  0.1031 -0.4415
  484MOL0     C63817  10.117   7.297   0.927 -0.0573 -0.2163 -0.2388
  484MOL0     C63818  10.241   7.221   0.880  0.1674 -0.0253 -1.0847
  484MOL0     C63819  10.345   7.238   0.980 -0.4703 -0.0413 -0.8102
  484MOL0     C63820  10.437   7.253   1.065  0.4817 -1.3124 -0.2856
  484MOL0     C63821   9.660   7.105   0.824  0.0064 -0.7701 -0.3742
  484MOL0     C63822   9.521   7.100   0.846 -0.6559  0.0073  0.0841
  484MOL0     H63823   9.157   6.982   1.061 -0.1913 -0.6543  0.2878
  484MOL0     H63824   8.898   6.951   1.127 -0.3209  1.4303  0.1596
  484MOL0     H63825   8.685   6.850   1.128  1.0602 -0.5802 -0.3983
  484MOL0     H63826   8.787   6.738   1.027  1.9801  1.9330  0.4299
  484MOL0     H63827   8.563   6.655   1.061  2.0997  0.5302  0.8324
  484MOL0     H63828   8.602   6.688   0.890 -1.4204 -0.7720  0.2786
  484MOL0     H63829   8.462   6.887   0.899 -0.4116 -3.1401 -2.8951
  484MOL0     H63830   8.449   6.882   1.064 -3.5253  2.0132 -1.7436
  484MOL0     H63831   8.364   6.662   0.868  1.2097 -1.3868  1.5286
  484MOL0     H63832   8.312   6.671   1.031 -0.6391  0.1896 -0.4664
  484MOL0     H63833   8.121   6.756   0.896 -0.9711  0.0421 -2.7062
  484MOL0     H63834   8.230   6.843   0.780 -1.8093 -0.5947  0.1179
  484MOL0     H63835   8.264   7.018   0.915 -1.3785  2.2334 -0.0193
  484MOL0     H63836   8.198   6.935   1.058 -0.6566 -3.6011 -0.1563
  484MOL0     H63837   8.039   6.990   0.810  1.8291  1.1474 -0.0236
  484MOL0     H63838   7.980   6.917   0.968 -1.3753  1.9308  1.6368
  484MOL0     H63839   8.072   7.202   0.947  2.2574 -0.6671  1.0941
  484MOL0     H63840   8.030   7.111   1.086  2.3177 -0.1116 -0.6710
  484MOL0     H63841   7.846   7.109   0.748  2.5562 -0.5965  0.6529
  484MOL0     H63842   7.644   7.208   0.657 -1.9497 -0.4171 -1.0489
  484MOL0     H63843   7.607   7.365   0.723  0.7433 -0.2878  0.0641
  484MOL0     H63844   7.403   7.230   0.661  3.1725 -2.5647 -1.5251
  484MOL0     H63845   7.402   7.291   0.817 -1.8463 -0.9965 -0.6171
  484MOL0     H63846   7.375   7.027   0.724  1.2522  0.4047 -0.3390
  484MOL0     H63847   7.511   7.017   0.833 -0.6045  1.4885  6.2261
  484MOL0     H63848   7.368   7.146   0.998  2.3504 -0.2174 -0.0089
  484MOL0     H63849   7.316   6.980   0.956 -0.7143  0.8061  0.1573
  484MOL0     H63850   7.199   7.027   1.120 -0.2020 -0.3454 -1.1693
  484MOL0     H63851   7.043   7.088   1.311  1.0144  2.3249  0.8421
  484MOL0     H63852   6.701   7.420   1.456 -0.2162  0.0106  1.5558
  484MOL0     H63853   6.508   7.449   1.636 -3.6490  0.0300  0.4985
  484MOL0     H63854   6.144   7.183   1.630  0.3917 -0.1125  1.6890
  484MOL0     H63855   6.123   7.315   1.506 -0.7063 -1.1738  0.0806
  484MOL0     H63856   6.064   7.470   1.684  2.2507  0.1374 -2.7185
  484MOL0     H63857   6.072   7.334   1.807 -2.3350  1.1362  0.1726
  484MOL0     H63858   5.904   7.213   1.664 -4.4064  0.6450  0.9504
  484MOL0     H63859   5.883   7.367   1.581 -1.0394  0.2265  1.2381
  484MOL0     H63860   5.832   7.318   1.861 -0.3029  1.5007  0.9053
  484MOL0     H63861   5.845   7.487   1.800 -3.5002  0.1247  2.9879
  484MOL0     H63862   5.645   7.274   1.772 -2.5035  1.5265  1.2644
  484MOL0     H63863   5.674   7.390   1.629  1.2582 -0.8914 -0.6010
  484MOL0     H63864   5.632   7.578   1.812 -0.3450  0.3613  1.3800
  484MOL0     H63865   5.610   7.457   1.929 -0.2512  2.8316  0.8015
  484MOL0     H63866   5.398   7.561   1.830 -0.1804 -0.2611 -0.8731
  484MOL0     H63867   5.438   7.476   1.678  1.2729  0.2905 -0.0613
  484MOL0     H63868   5.364   7.352   1.947 -1.2313 -0.2337  0.0061
  484MOL0     H63869   5.400   7.255   1.807  2.7633  0.1751 -0.3746
  484MOL0     H63870   6.264   7.198   1.402  1.2681 -2.6031 -1.4342
  484MOL0     H63871   6.446   7.160   1.247  0.7721  0.7191 -1.3064
  484MOL0     H63872   6.822   7.331   1.035 -1.2771 -1.5592 -1.4528
  484MOL0     H63873   7.028   7.332   0.877  1.8583  0.5954  0.5514
  484MOL0     H63874   8.802   6.997   0.723  0.9224 -0.9298 -1.5882
  484MOL0     H63875   9.056   7.024   0.666  2.7202 -1.1106  0.3151
  484MOL0     H63876   9.446   7.221   0.540  2.8463  1.1647 -0.1616
  484MOL0     H63877   9.661   7.212   0.508  1.2589  0.7977  1.3192
  484MOL0     H63878  10.048   7.130   0.726  0.6039  0.3738  0.7539
  484MOL0     H63879   9.939   7.102   0.862  0.4807 -0.7796 -0.4019
  484MOL0     H63880  10.022   7.360   0.737 -3.3115  2.1222  0.1222
  484MOL0     H63881   9.918   7.346   0.877  1.0564  2.0641 -0.0224
  484MOL0     H63882  10.081   7.267   1.026  0.3536  1.2545  0.3912
  484MOL0     H63883  10.147   7.401   0.941  1.0581 -0.4384 -0.9140
  484MOL0     H63884  10.232   7.118   0.846  0.0798  0.2709 -1.9919
  484MOL0     H63885  10.274   7.287   0.799  0.9964  0.4066 -0.4076
  484MOL0     H63886  10.483   7.294   1.152 -0.0865  2.3473 -1.4973
  484MOL0     H63887   9.721   7.086   0.911  1.2095  1.6028 -0.6350
  484MOL0     H63888   9.463   7.084   0.936 -3.9859  2.0091 -1.5406
  485MOL0     O63889   3.575   2.788   0.315  0.4872 -0.7708 -0.5215
  485MOL0     C63890   3.514   2.693   0.359  1.0552 -0.0942 -0.4187
  485MOL0     O63891   3.571   2.584   0.406  0.6135 -0.9243 -0.4786
  485MOL0     C63892   3.699   2.569   0.361  0.2755  0.2890 -0.0406
  485MOL0     C63893   3.716   2.513   0.236 -0.1332 -1.0533  0.5767
  485MOL0     C63894   3.842   2.501   0.177 -0.9540 -0.5352 -0.2390
  485MOL0     C63895   3.956   2.535   0.251  0.4369  0.2657  0.4586
  485MOL0     O63896   4.074   2.518   0.192  1.2683 -1.2335 -0.1526
  485MOL0     C63897   4.198   2.525   0.265  0.2760 -0.7944 -0.0345
  485MOL0     C63898   4.246   2.667   0.245  0.6223 -0.1006  0.2915
  485MOL0     C63899   4.345   2.723   0.343 -0.4087 -0.1512  0.0145
  485MOL0     C63900   4.373   2.877   0.303 -0.2307  0.1439  0.3709
  485MOL0     C63901   4.264   2.981   0.294 -0.3938 -0.1780  0.3360
  485MOL0     C63902   4.313   3.121   0.258 -0.3096 -0.3904  0.7211
  485MOL0     C63903   4.223   3.241   0.290  0.3710 -0.2668  0.6403
  485MOL0     C63904   4.252   3.294   0.425 -0.4453  0.5067 -0.4947
  485MOL0     N63905   4.135   3.321   0.504 -0.4333 -0.6769  0.3559
  485MOL0     C63906   4.018   3.388   0.468 -0.2698  0.4125 -0.1593
  485MOL0     C63907   3.950   3.400   0.589 -0.0047 -0.3694  0.2261
  485MOL0     C63908   3.808   3.465   0.601 -1.2057 -0.3458 -0.3469
  485MOL0     C63909   3.698   3.388   0.667  0.2852 -0.2642 -0.5365
  485MOL0     C63910   3.588   3.491   0.683  0.4755  0.4843  0.3729
  485MOL0     C63911   3.465   3.426   0.731 -0.2889  0.6070 -0.3521
  485MOL0     O63912   3.350   3.508   0.714  0.1933 -0.0465 -0.1661
  485MOL0     C63913   3.220   3.460   0.728 -0.0360  0.4072 -0.9044
  485MOL0     C63914   3.194   3.325   0.742 -0.9950  1.0841 -0.1155
  485MOL0     C63915   3.068   3.281   0.761 -0.1018 -1.3330 -0.5971
  485MOL0     C63916   2.956   3.369   0.756  0.5105 -0.3066  0.7950
  485MOL0     C63917   2.810   3.314   0.772  1.1757  0.1017 -0.0087
  485MOL0     O63918   2.700   3.389   0.720  0.6851  0.1754 -0.1797
  485MOL0     C63919   2.577   3.367   0.762  0.2017 -0.5565  0.8749
  485MOL0     C63920   2.500   3.481   0.790 -0.3071 -0.6775  1.5092
  485MOL0     C63921   2.356   3.468   0.820 -0.1310  0.3868  0.1847
  485MOL0     C63922   2.299   3.343   0.824 -0.5350  0.3713 -0.4994
  485MOL0     O63923   2.163   3.319   0.830 -0.5319 -0.2675 -0.1562
  485MOL0     C63924   2.081   3.433   0.797 -1.3066 -0.3123  0.2079
  485MOL0     C63925   1.939   3.383   0.804  0.7402  0.7386 -0.1584
  485MOL0     C63926   1.835   3.496   0.797  0.3167 -0.3153 -0.3083
  485MOL0     C63927   1.692   3.440   0.807  1.5700  0.3699  0.2423
  485MOL0     C63928   1.654   3.414   0.959 -0.1317  0.0822  0.2723
  485MOL0     C63929   1.627   3.524   1.051 -0.1156 -0.4092 -0.4141
  485MOL0     C63930   1.572   3.483   1.193  0.1985  0.0289 -0.5469
  485MOL0     C63931   1.689   3.467   1.282 -0.4806  0.0991 -0.0508
  485MOL0    Cl63932   1.640   3.438   1.452 -0.0286 -0.0630  0.2801
  485MOL0     C63933   2.383   3.231   0.798  0.8955 -0.3900  0.2091
  485MOL0     C63934   2.515   3.241   0.776  0.6197 -0.3075  0.0106
  485MOL0     O63935   2.800   3.215   0.841 -0.1861  0.4497 -0.2144
  485MOL0     C63936   2.979   3.508   0.744 -0.1074  0.1817 -0.1530
  485MOL0     C63937   3.114   3.548   0.744 -0.4566 -0.0713  0.0273
  485MOL0     N63938   4.015   3.342   0.692  0.2284  0.2216 -0.0773
  485MOL0     N63939   4.132   3.302   0.637  0.3514 -0.1059 -0.3569
  485MOL0     C63940   3.936   2.573   0.379  0.7517  1.2706 -0.4094
  485MOL0     C63941   3.813   2.589   0.437 -0.2718 -0.1118  0.0361
  485MOL0     C63942   3.363   2.715   0.367  0.4580  0.7199 -0.5722
  485MOL0     C63943   3.286   2.626   0.437 -0.8224  0.4810  0.4408
  485MOL0     C63944   3.144   2.639   0.443 -0.4880  0.5210  1.0803
  485MOL0     C63945   3.076   2.733   0.370  0.2799 -0.2467 -1.0109
  485MOL0     O63946   2.944   2.734   0.387  0.0540  0.0790  0.5132
  485MOL0     C63947   2.877   2.687   0.274 -0.0086  0.2762  0.0561
  485MOL0     C63948   2.735   2.651   0.315 -0.0859  0.3455 -0.5839
  485MOL0     C63949   2.720   2.517   0.406  0.0662 -0.1870  0.3378
  485MOL0     C63950   2.576   2.461   0.419  0.0582 -0.5250  0.2592
  485MOL0     C63951   2.517   2.382   0.308 -0.8439 -0.5206 -0.2244
  485MOL0     C63952   2.476   2.330   0.202 -0.6093  0.1478 -0.8201
  485MOL0     C63953   3.154   2.829   0.305  0.1868 -0.3406 -1.0114
  485MOL0     C63954   3.296   2.812   0.298 -0.7253  0.0689  0.0925
  485MOL0     H63955   3.627   2.505   0.173 -0.2862 -1.0429  0.7902
  485MOL0     H63956   3.850   2.459   0.077  0.9568  1.9122 -1.1976
  485MOL0     H63957   4.269   2.445   0.239 -1.8504 -2.2295 -1.7948
  485MOL0     H63958   4.177   2.495   0.368 -1.3039 -0.0276 -0.1126
  485MOL0     H63959   4.158   2.731   0.254 -1.0537 -1.9891 -1.5223
  485MOL0     H63960   4.280   2.691   0.143 -2.6607  1.3764 -0.5729
  485MOL0     H63961   4.441   2.675   0.363 -1.0094 -0.9759  1.0094
  485MOL0     H63962   4.301   2.723   0.443 -0.9972 -2.0183 -0.2039
  485MOL0     H63963   4.440   2.909   0.384  1.1114  0.1362 -0.7067
  485MOL0     H63964   4.424   2.885   0.207 -0.7854  0.6512  0.1115
  485MOL0     H63965   4.217   2.999   0.391 -1.6732 -1.7982  0.0602
  485MOL0     H63966   4.180   2.953   0.229 -0.2754  1.9120 -0.8298
  485MOL0     H63967   4.335   3.117   0.151 -5.0086  0.7823 -0.5238
  485MOL0     H63968   4.409   3.145   0.305 -0.0682  0.6861 -0.2717
  485MOL0     H63969   4.231   3.329   0.225 -0.2360  0.0740  1.0153
  485MOL0     H63970   4.115   3.229   0.287  0.3374 -0.0370  0.8433
  485MOL0     H63971   4.323   3.376   0.413  0.1452 -0.0156 -0.6030
  485MOL0     H63972   4.310   3.228   0.490 -1.3869  4.8394  5.5959
  485MOL0     H63973   3.987   3.408   0.366 -3.9399 -1.3337  0.4303
  485MOL0     H63974   3.770   3.504   0.506 -0.9848  0.4260 -0.1209
  485MOL0     H63975   3.834   3.542   0.673  1.8651 -2.0597  0.5890
  485MOL0     H63976   3.735   3.355   0.764  0.4307  2.2153  0.3119
  485MOL0     H63977   3.665   3.308   0.599  0.0199  1.6394 -2.7963
  485MOL0     H63978   3.618   3.555   0.767  1.7039 -1.3656  1.4458
  485MOL0     H63979   3.571   3.556   0.597  3.0481  3.4168  1.8708
  485MOL0     H63980   3.491   3.397   0.834 -0.5349  1.1312 -0.1410
  485MOL0     H63981   3.442   3.336   0.672 -1.9588  2.5053 -2.7692
  485MOL0     H63982   3.268   3.245   0.740 -1.8364  0.2645  0.6877
  485MOL0     H63983   3.048   3.179   0.795  0.3597 -0.6611  1.9081
  485MOL0     H63984   2.535   3.584   0.786 -5.0912  1.1579 -0.1034
  485MOL0     H63985   2.299   3.560   0.827 -0.9978 -0.1080 -0.2595
  485MOL0     H63986   2.098   3.486   0.702  1.3161  2.1519  1.8825
  485MOL0     H63987   2.097   3.512   0.870  0.7432  0.3198 -0.8418
  485MOL0     H63988   1.936   3.339   0.904  2.2480  2.3959  0.6823
  485MOL0     H63989   1.920   3.321   0.716 -1.9409  1.0350  0.1288
  485MOL0     H63990   1.854   3.547   0.701 -0.2808  2.0037  0.7294
  485MOL0     H63991   1.856   3.578   0.866 -1.0986  0.0248 -0.2649
  485MOL0     H63992   1.619   3.509   0.763  1.5050 -1.1664 -2.2802
  485MOL0     H63993   1.679   3.353   0.741  0.2790  2.0627 -1.8543
  485MOL0     H63994   1.729   3.343   0.995  3.3757  0.9803 -4.2924
  485MOL0     H63995   1.562   3.355   0.960  0.0320 -0.1855 -0.0706
  485MOL0     H63996   1.553   3.582   0.994  0.3424 -1.2887 -1.9499
  485MOL0     H63997   1.715   3.587   1.070  1.4723 -3.0125  1.6072
  485MOL0     H63998   1.517   3.569   1.230 -0.4771 -0.7493  0.3236
  485MOL0     H63999   1.510   3.393   1.191 -0.1439  0.0650  2.7431
  485MOL0     H64000   1.756   3.553   1.275 -1.6164  1.1946  1.5651
  485MOL0     H64001   1.749   3.383   1.248  0.2116  1.2863 -1.9377
  485MOL0     H64002   2.330   3.137   0.790 -2.0091  0.9389  2.1086
  485MOL0     H64003   2.570   3.148   0.758 -0.6080 -1.2127  0.7975
  485MOL0     H64004   2.892   3.574   0.744  1.3001  2.1274 -1.6242
  485MOL0     H64005   3.138   3.653   0.756  0.8782 -0.2970 -0.5048
  485MOL0     H64006   4.022   2.591   0.443  1.3492  1.6155 -1.2897
  485MOL0     H64007   3.786   2.613   0.539 -0.4491 -2.7185  0.6727
  485MOL0     H64008   3.330   2.551   0.502 -1.1107 -0.0865 -0.0079
  485MOL0     H64009   3.091   2.559   0.495 -1.7319 -1.6381 -3.0835
  485MOL0     H64010   2.922   2.594   0.240 -0.9018 -0.7214  1.4906
  485MOL0     H64011   2.875   2.765   0.196 -2.2244 -0.0906 -0.3222
  485MOL0     H64012   2.706   2.736   0.377 -0.7993  0.3435 -0.9050
  485MOL0     H64013   2.664   2.644   0.232 -3.3500  1.8685  1.8572
  485MOL0     H64014   2.757   2.534   0.507 -1.0735  0.5260  0.6648
  485MOL0     H64015   2.795   2.449   0.364  0.0866 -1.5482  2.4283
  485MOL0     H64016   2.589   2.391   0.503  0.1902 -0.3153  0.4156
  485MOL0     H64017   2.505   2.544   0.422  1.2539  0.5261  0.4072
  485MOL0     H64018   2.450   2.297   0.103  0.5085 -1.9375 -0.4839
  485MOL0     H64019   3.099   2.902   0.247  0.5853  0.1089 -0.8336
  485MOL0     H64020   3.350   2.880   0.232  3.2574 -4.0183 -1.3287
  486MOL0     O64021   2.867   9.689  10.560 -0.4863  0.1744  0.7243
  486MOL0     C64022   2.871   9.595  10.632 -0.8233  0.2742 -0.7355
  486MOL0     O64023   2.776   9.556  10.722 -0.0990  0.1598 -0.7366
  486MOL0     C64024   2.660   9.620  10.728  0.4340  0.1109 -0.1285
  486MOL0     C64025   2.650   9.762  10.731  0.7357  0.5369 -0.4629
  486MOL0     C64026   2.528   9.822  10.758 -0.7040  0.2893 -0.0281
  486MOL0     C64027   2.410   9.749  10.756  0.1517 -0.0044  0.0229
  486MOL0     O64028   2.295   9.827  10.754 -0.5773  0.0251 -0.0300
  486MOL0     C64029   2.175   9.769  10.802  0.1119  0.1437  0.0219
  486MOL0     C64030   2.093   9.724  10.683 -0.7226 -0.0268 -0.8326
  486MOL0     C64031   1.963   9.651  10.738 -0.0084  0.3644 -0.5769
  486MOL0     C64032   1.861   9.636  10.637 -0.1819  0.2966 -0.9299
  486MOL0     C64033   1.737   9.562  10.694 -0.8530  0.5493  0.1445
  486MOL0     C64034   1.626   9.541  10.588  0.8154 -0.5234 -0.4324
  486MOL0     C64035   1.661   9.431  10.476 -0.3931 -0.5421  0.8981
  486MOL0     C64036   1.547   9.408  10.374  0.0377 -0.5761  0.1487
  486MOL0     N64037   1.418   9.359  10.424 -0.6437 -0.1961  0.0663
  486MOL0     C64038   1.308   9.443  10.461 -0.5960 -0.9568  0.0928
  486MOL0     C64039   1.213   9.358  10.471  0.8277  0.6755 -0.1663
  486MOL0     C64040   1.070   9.395  10.513 -0.0015 -0.6954 -0.8872
  486MOL0     C64041   1.035   9.345  10.656 -0.1717 -0.2353  0.2887
  486MOL0     C64042   0.894   9.373  10.701  0.6106  0.2382  0.0626
  486MOL0     C64043   0.793   9.313  10.595  0.8719  2.0715 -0.0971
  486MOL0     O64044   0.743   9.409  10.508  0.3618  0.6127  0.0774
  486MOL0     C64045   0.631   9.357  10.455 -0.3136 -0.6546 -0.4279
  486MOL0     C64046   0.636   9.256  10.366  0.4694 -0.0103  0.1305
  486MOL0     C64047   0.524   9.200  10.309  0.1763 -0.0829 -0.4972
  486MOL0     C64048   0.397   9.232  10.367 -0.1764  0.5245 -0.1976
  486MOL0     C64049   0.279   9.157  10.320 -0.0494  0.1879 -0.8137
  486MOL0     O64050   0.171   9.153  10.407  0.4141 -0.3216  0.3765
  486MOL0     C64051   0.058   9.097  10.354 -0.3411  0.6202 -0.1161
  486MOL0     C64052   0.014   8.965  10.384  0.3291 -1.2683 -0.8952
  486MOL0     C64053  -0.094   8.908  10.313 -0.6035 -0.0865  0.2590
  486MOL0     C64054  -0.177   8.989  10.243 -0.2382 -0.0650  0.0913
  486MOL0     O64055  -0.289   8.937  10.187  0.0031  0.3665  0.6446
  486MOL0     C64056  -0.361   8.832  10.251  0.6263  0.4472 -0.6239
  486MOL0     C64057  -0.499   8.828  10.193  0.1030 -0.6532  0.0939
  486MOL0     C64058  -0.505   8.830  10.043  0.0129 -0.1936  0.1451
  486MOL0     C64059  -0.652   8.811   9.997 -0.1082 -0.4178  0.3267
  486MOL0     C64060  -0.682   8.663   9.963 -0.5808  0.6313  0.7292
  486MOL0     C64061  -0.822   8.613   9.899 -0.0045 -1.1249  0.2442
  486MOL0     C64062  -0.823   8.468   9.831  0.3577  0.3193  0.4838
  486MOL0     C64063  -0.927   8.453   9.724 -0.2195 -0.1119  0.3298
  486MOL0    Cl64064  -0.883   8.533   9.581 -0.1818 -0.2335  0.0511
  486MOL0     C64065  -0.134   9.116  10.209  1.0472 -0.4950 -0.5359
  486MOL0     C64066  -0.018   9.170  10.266 -0.0534 -1.4417  1.3466
  486MOL0     O64067   0.285   9.118  10.207 -0.2500 -0.0468  0.0527
  486MOL0     C64068   0.391   9.331  10.462  0.7846  0.0120 -0.0417
  486MOL0     C64069   0.504   9.398  10.498 -0.6061  0.1299 -0.6840
  486MOL0     N64070   1.253   9.232  10.444 -0.3168  0.2943  0.0316
  486MOL0     N64071   1.376   9.236  10.414 -0.5125  1.1467  0.0238
  486MOL0     C64072   2.419   9.609  10.747  0.9910 -0.0887  0.4254
  486MOL0     C64073   2.545   9.547  10.728 -0.1565 -0.2354 -0.8302
  486MOL0     C64074   2.985   9.506  10.611 -0.0046  0.4543  0.9389
  486MOL0     C64075   3.010   9.393  10.692 -0.7295 -0.1019 -0.1240
  486MOL0     C64076   3.120   9.299  10.665 -0.4611 -0.2371 -0.1906
  486MOL0     C64077   3.192   9.311  10.541  0.6257  0.1392 -0.9647
  486MOL0     O64078   3.299   9.219  10.523 -0.1852 -0.3427 -0.0229
  486MOL0     C64079   3.375   9.207  10.404  0.0077 -0.2550 -1.1246
  486MOL0     C64080   3.321   9.101  10.308  0.4717 -0.5879  0.3992
  486MOL0     C64081   3.189   9.126  10.248  0.0923 -1.2428 -0.6251
  486MOL0     C64082   3.162   9.033  10.133  0.4489 -0.8850 -0.4552
  486MOL0     C64083   3.049   9.056  10.054 -0.3056  0.5832  0.3011
  486MOL0     C64084   2.964   9.091   9.967 -0.5441  0.0722  0.6220
  486MOL0     C64085   3.150   9.413  10.455 -0.0880  0.2572  0.8169
  486MOL0     C64086   3.050   9.503  10.486 -0.4170 -0.2245 -0.4108
  486MOL0     H64087   2.733   9.832  10.728 -0.0089  1.6564  2.1838
  486MOL0     H64088   2.535   9.930  10.768 -2.1725  0.3271  0.9286
  486MOL0     H64089   2.114   9.846  10.850 -0.9464  0.3612 -1.6010
  486MOL0     H64090   2.181   9.688  10.875  1.5049 -0.5445 -0.8220
  486MOL0     H64091   2.160   9.654  10.632  0.7111 -1.1736  2.3567
  486MOL0     H64092   2.058   9.811  10.627 -0.3352  0.5551 -0.1932
  486MOL0     H64093   1.918   9.710  10.819 -1.4993 -1.8449  0.3151
  486MOL0     H64094   1.977   9.550  10.778 -3.5705 -0.2345 -0.5319
  486MOL0     H64095   1.852   9.738  10.599 -2.0694  0.1098 -1.0765
  486MOL0     H64096   1.899   9.584  10.549 -0.8662 -1.5968 -0.1705
  486MOL0     H64097   1.703   9.605  10.789 -1.9788  2.0952 -0.9226
  486MOL0     H64098   1.766   9.457  10.708 -1.4117  0.2074 -1.0694
  486MOL0     H64099   1.603   9.634  10.535  2.3143 -1.4835 -2.9163
  486MOL0     H64100   1.537   9.509  10.643  1.3072  1.9209  2.0154
  486MOL0     H64101   1.757   9.464  10.435 -0.6608 -1.5049 -0.5563
  486MOL0     H64102   1.677   9.338  10.532  1.0877 -0.5006  0.5919
  486MOL0     H64103   1.598   9.350  10.297 -0.2841 -1.0300  0.2781
  486MOL0     H64104   1.519   9.507  10.334  1.2036  0.2931  1.4155
  486MOL0     H64105   1.310   9.548  10.488 -1.2560 -0.7329 -0.6587
  486MOL0     H64106   1.008   9.345  10.438  0.5708 -2.6022 -0.1469
  486MOL0     H64107   1.055   9.503  10.511 -2.5244 -0.9542  0.1167
  486MOL0     H64108   1.097   9.380  10.740  0.8021 -0.6432 -0.2505
  486MOL0     H64109   1.047   9.237  10.654 -0.9090 -0.3457  1.1209
  486MOL0     H64110   0.876   9.325  10.798 -0.3585  0.6284  0.0897
  486MOL0     H64111   0.884   9.482  10.700  3.0971  0.5234  0.6412
  486MOL0     H64112   0.707   9.276  10.652  2.4689  1.2685  1.8962
  486MOL0     H64113   0.827   9.224  10.541 -2.6049  0.5091 -0.0327
  486MOL0     H64114   0.733   9.214  10.341  0.1113  0.2160 -1.8319
  486MOL0     H64115   0.538   9.119  10.238 -1.1952 -1.1678  0.4322
  486MOL0     H64116   0.074   8.900  10.447  3.0118 -0.1426 -2.1649
  486MOL0     H64117  -0.127   8.808  10.338  0.2306 -0.0947  1.4022
  486MOL0     H64118  -0.383   8.839  10.358 -1.9578  1.2457 -1.1279
  486MOL0     H64119  -0.311   8.736  10.233 -2.1424 -1.1183 -0.5648
  486MOL0     H64120  -0.562   8.905  10.239 -3.7343 -2.2711 -1.9635
  486MOL0     H64121  -0.543   8.734  10.228 -1.5304 -0.8697 -2.2555
  486MOL0     H64122  -0.441   8.755   9.995  1.0562 -0.5239  1.9693
  486MOL0     H64123  -0.474   8.928  10.007 -2.0417  1.3051  2.1671
  486MOL0     H64124  -0.716   8.853  10.075  2.1501 -0.1085  2.1236
  486MOL0     H64125  -0.664   8.870   9.906  0.7588  0.4066  0.7343
  486MOL0     H64126  -0.689   8.619  10.063 -2.2255  1.2237  0.8948
  486MOL0     H64127  -0.596   8.621   9.910 -0.9216  0.8611 -0.0105
  486MOL0     H64128  -0.845   8.677   9.813 -0.9693  0.9140  1.9484
  486MOL0     H64129  -0.906   8.617   9.969  0.5739 -1.3950  0.9699
  486MOL0     H64130  -0.726   8.435   9.792 -1.3645 -2.3424 -1.9373
  486MOL0     H64131  -0.847   8.395   9.909  0.4722  0.6677  0.8457
  486MOL0     H64132  -1.020   8.490   9.769  0.9341  1.1177  1.8005
  486MOL0     H64133  -0.932   8.346   9.704 -1.2934  0.0311 -0.2751
  486MOL0     H64134  -0.204   9.179  10.156  0.1690  1.3386  2.5560
  486MOL0     H64135   0.002   9.273  10.236 -1.6455 -1.7952 -1.2628
  486MOL0     H64136   0.293   9.355  10.502  0.2884 -1.4025 -0.3560
  486MOL0     H64137   0.496   9.482  10.568 -1.0339  0.3195 -0.9536
  486MOL0     H64138   2.326   9.555  10.754  0.2528  0.4931 -3.0821
  486MOL0     H64139   2.543   9.439  10.727 -1.7256 -0.3869  3.3038
  486MOL0     H64140   2.953   9.372  10.782  1.6617 -3.9328  0.7743
  486MOL0     H64141   3.145   9.220  10.735 -0.4654 -0.0251  0.0486
  486MOL0     H64142   3.470   9.171  10.445 -0.9595 -2.5760 -0.7404
  486MOL0     H64143   3.387   9.302  10.352  0.9825 -0.2809 -0.9650
  486MOL0     H64144   3.391   9.086  10.225 -0.8096  0.5115 -0.9462
  486MOL0     H64145   3.331   9.001  10.352  0.0703 -0.5965  0.4700
  486MOL0     H64146   3.197   9.228  10.210  2.9408 -1.0980  0.0972
  486MOL0     H64147   3.110   9.128  10.323  0.0969  1.5620 -0.5786
  486MOL0     H64148   3.253   9.027  10.073  2.4331  1.5529  2.0349
  486MOL0     H64149   3.155   8.934  10.178 -1.7490 -0.4100  0.3556
  486MOL0     H64150   2.895   9.139   9.902  0.0415  0.6681  0.4288
  486MOL0     H64151   3.203   9.421  10.360  1.6433 -2.9439  1.3643
  486MOL0     H64152   3.023   9.583  10.418 -2.0129  3.1069  3.6700
  487MOL0     O64153   3.084   9.995   4.724 -0.0348 -0.8198 -0.2091
  487MOL0     C64154   3.053   9.947   4.614  1.0966 -0.1517  0.1503
  487MOL0     O64155   3.133   9.900   4.516  0.3973 -0.1347  0.1760
  487MOL0     C64156   3.271   9.881   4.541 -0.1634  0.4087  1.2524
  487MOL0     C64157   3.333   9.837   4.657 -0.1124 -0.2500 -0.4187
  487MOL0     C64158   3.469   9.823   4.673 -0.7497 -0.3632 -0.5460
  487MOL0     C64159   3.552   9.840   4.558  0.7964  0.2644 -0.8768
  487MOL0     O64160   3.686   9.834   4.563 -0.8984 -0.0435  0.7625
  487MOL0     C64161   3.768   9.800   4.676 -0.5918 -0.3019 -0.5269
  487MOL0     C64162   3.891   9.899   4.696 -0.1678  1.0153  0.0775
  487MOL0     C64163   4.001   9.901   4.588  0.0915  0.3212 -0.1563
  487MOL0     C64164   4.108   9.990   4.643 -0.3951  0.5246 -0.3268
  487MOL0     C64165   4.223  10.015   4.543  0.4301  0.0091 -0.0920
  487MOL0     C64166   4.357   9.939   4.560  0.8753 -0.0983 -0.0930
  487MOL0     C64167   4.462  10.007   4.480 -0.5951 -0.7264  0.1929
  487MOL0     C64168   4.520   9.903   4.378 -0.1456 -0.4652 -0.0741
  487MOL0     N64169   4.412   9.856   4.296 -0.4836  0.6527  0.5594
  487MOL0     C64170   4.361   9.728   4.294  0.0249  0.2818 -0.0668
  487MOL0     C64171   4.266   9.739   4.194 -1.0302  0.4757 -0.3982
  487MOL0     C64172   4.179   9.623   4.169 -0.4988 -0.0480  0.0968
  487MOL0     C64173   4.056   9.611   4.241  1.7178 -0.8658 -1.2606
  487MOL0     C64174   3.960   9.729   4.206 -1.3798  0.2309 -0.0745
  487MOL0     C64175   3.831   9.707   4.281  0.0864 -0.2534 -0.6296
  487MOL0     O64176   3.766   9.592   4.217  0.3399 -0.0936  0.4765
  487MOL0     C64177   3.632   9.602   4.192  0.2101  0.3426 -0.3433
  487MOL0     C64178   3.592   9.657   4.074 -0.7611  0.6930 -0.0835
  487MOL0     C64179   3.458   9.668   4.037  0.7501  0.0818 -0.6015
  487MOL0     C64180   3.361   9.645   4.140 -0.0496 -0.0224 -0.2634
  487MOL0     C64181   3.219   9.662   4.104 -0.5603 -0.1299 -0.4068
  487MOL0     O64182   3.179   9.756   4.016  0.3256  0.4435  0.5727
  487MOL0     C64183   3.045   9.778   4.002  1.1863 -0.4836 -0.1101
  487MOL0     C64184   2.964   9.687   3.929 -0.1361 -0.0268  0.6725
  487MOL0     C64185   2.823   9.703   3.920  0.6624  0.2018  0.4564
  487MOL0     C64186   2.761   9.808   3.977  0.3735  0.9206 -0.4993
  487MOL0     O64187   2.626   9.828   3.993 -0.5549 -0.2310 -0.2274
  487MOL0     C64188   2.530   9.786   3.901  0.3312 -0.2748  0.0846
  487MOL0     C64189   2.479   9.652   3.934 -0.0565  0.2189 -0.0916
  487MOL0     C64190   2.425   9.648   4.072 -0.1864  0.5139  0.0605
  487MOL0     C64191   2.339   9.520   4.094 -1.0466  0.1358 -0.5537
  487MOL0     C64192   2.418   9.396   4.059 -0.3293 -0.5471  0.2319
  487MOL0     C64193   2.348   9.268   4.100 -0.4117 -0.1468 -0.5945
  487MOL0     C64194   2.229   9.212   4.008  0.6113 -0.5852 -0.5961
  487MOL0     C64195   2.267   9.175   3.866 -0.2239 -0.4536 -0.1585
  487MOL0    Cl64196   2.418   9.097   3.846  0.4873 -0.2728  0.0707
  487MOL0     C64197   2.852   9.905   4.029 -0.5609  0.3569 -0.5198
  487MOL0     C64198   2.991   9.895   4.047 -1.2495  0.4585 -0.2518
  487MOL0     O64199   3.144   9.592   4.175 -0.4462  0.3824 -0.4544
  487MOL0     C64200   3.406   9.588   4.264 -0.1208  0.0392 -0.6960
  487MOL0     C64201   3.538   9.573   4.291  0.1578 -0.2486 -0.1842
  487MOL0     N64202   4.269   9.862   4.138 -0.4309 -0.1359 -0.2850
  487MOL0     N64203   4.364   9.923   4.187  0.0120 -0.0057  0.2016
  487MOL0     C64204   3.490   9.872   4.436  0.6344  0.8088  0.2864
  487MOL0     C64205   3.354   9.904   4.433  0.5806  0.2502  0.1326
  487MOL0     C64206   2.915   9.949   4.569  0.3727 -0.1324 -0.4650
  487MOL0     C64207   2.868   9.868   4.465  1.2933 -0.3924  1.0927
  487MOL0     C64208   2.732   9.861   4.431  0.4363 -0.1167 -0.0814
  487MOL0     C64209   2.638   9.927   4.518 -0.1640 -0.4536 -1.1674
  487MOL0     O64210   2.506   9.897   4.495 -0.4076 -0.2989  0.3966
  487MOL0     C64211   2.406   9.998   4.514  0.6504 -0.9663 -0.0953
  487MOL0     C64212   2.270   9.952   4.478  0.2322  1.0672 -0.3365
  487MOL0     C64213   2.161  10.056   4.499 -0.5129  0.2334 -0.6341
  487MOL0     C64214   2.037  10.014   4.419  1.0047  0.6861  0.8897
  487MOL0     C64215   1.965   9.887   4.464 -0.3666  0.3558 -0.0244
  487MOL0     C64216   1.894   9.794   4.501  0.0604  0.1130  0.1514
  487MOL0     C64217   2.684  10.012   4.624  0.4988  0.7547 -0.7435
  487MOL0     C64218   2.824  10.021   4.652  0.1603  0.5207 -0.4460
  487MOL0     H64219   3.272   9.821   4.745  0.7542 -1.9491 -0.0854
  487MOL0     H64220   3.514   9.796   4.768 -0.1091  3.0069  0.2487
  487MOL0     H64221   3.816   9.703   4.664 -1.0402 -0.7968  1.2816
  487MOL0     H64222   3.712   9.779   4.768  2.1996 -0.0325  1.3545
  487MOL0     H64223   3.944   9.877   4.789 -0.8354  2.2456  0.7710
  487MOL0     H64224   3.835   9.992   4.712 -0.7702  0.3328  2.2621
  487MOL0     H64225   3.962   9.943   4.495  0.2189  0.1756 -0.2748
  487MOL0     H64226   4.033   9.797   4.587  0.2853  0.3743  0.1780
  487MOL0     H64227   4.076  10.088   4.679  1.7617 -0.1485  4.1664
  487MOL0     H64228   4.155   9.945   4.731 -0.3908  0.5152 -0.3338
  487MOL0     H64229   4.235  10.123   4.538  1.5306 -0.0349  0.9991
  487MOL0     H64230   4.186  10.001   4.441  3.3594  0.8409 -1.3735
  487MOL0     H64231   4.348   9.830   4.554 -0.0390 -0.0526  0.2527
  487MOL0     H64232   4.392   9.977   4.656  1.4581 -0.0041 -0.3432
  487MOL0     H64233   4.418  10.093   4.430 -1.6184 -2.8783 -2.9379
  487MOL0     H64234   4.547  10.038   4.541 -1.3985  0.2534  0.8551
  487MOL0     H64235   4.568   9.822   4.433  0.3444  0.3690  0.7528
  487MOL0     H64236   4.596   9.954   4.319 -0.3621  3.2413  2.4980
  487MOL0     H64237   4.369   9.634   4.347 -3.6795  0.1162  0.4741
  487MOL0     H64238   4.225   9.525   4.188  0.0495  0.5837  2.2582
  487MOL0     H64239   4.154   9.617   4.063  4.6561 -0.1943 -1.3730
  487MOL0     H64240   4.073   9.613   4.349 -1.5539  0.4821 -0.6390
  487MOL0     H64241   4.005   9.514   4.241 -0.2184  0.0959 -1.0073
  487MOL0     H64242   4.013   9.821   4.233 -1.5445  0.4707 -0.5577
  487MOL0     H64243   3.937   9.727   4.099 -1.1671  1.8919 -0.1717
  487MOL0     H64244   3.774   9.800   4.278  2.6771  1.4292 -2.1782
  487MOL0     H64245   3.867   9.684   4.382 -0.6237 -0.0858 -0.3354
  487MOL0     H64246   3.666   9.685   4.000 -1.6614 -3.4666 -2.9178
  487MOL0     H64247   3.428   9.702   3.938  1.8933  0.8106 -0.7052
  487MOL0     H64248   3.007   9.599   3.882  2.4183  3.0134 -3.3763
  487MOL0     H64249   2.771   9.624   3.867  2.5789  0.6620 -2.3657
  487MOL0     H64250   2.562   9.783   3.796 -2.4997 -2.0815 -0.8540
  487MOL0     H64251   2.450   9.857   3.924 -0.3228 -0.9591 -0.0365
  487MOL0     H64252   2.559   9.578   3.932 -1.2144 -1.1460  1.3082
  487MOL0     H64253   2.405   9.630   3.857 -0.9340  2.2851  0.0771
  487MOL0     H64254   2.363   9.737   4.085  1.4599  1.5660  1.2074
  487MOL0     H64255   2.502   9.664   4.148 -0.3147 -2.7268  1.0095
  487MOL0     H64256   2.312   9.518   4.200 -0.7774  2.4666 -0.3905
  487MOL0     H64257   2.246   9.517   4.036 -0.3972 -0.5555 -1.6029
  487MOL0     H64258   2.517   9.396   4.105  1.3965 -3.5713 -3.0310
  487MOL0     H64259   2.427   9.398   3.951  0.8455  2.6889  0.2907
  487MOL0     H64260   2.311   9.279   4.202 -1.0876  2.0160 -1.0296
  487MOL0     H64261   2.428   9.194   4.090  1.0369  1.1151  1.0506
  487MOL0     H64262   2.182   9.130   4.063 -0.6593  1.2248  1.1736
  487MOL0     H64263   2.153   9.291   4.011  0.8297 -0.3703 -0.7556
  487MOL0     H64264   2.281   9.272   3.816 -2.5945 -0.8947 -1.8588
  487MOL0     H64265   2.180   9.124   3.824 -1.5164 -0.0819  1.8800
  487MOL0     H64266   2.810  10.000   4.058  1.7492  2.3920 -3.2371
  487MOL0     H64267   3.043   9.971   4.104 -1.4589  1.0067 -0.7854
  487MOL0     H64268   3.337   9.557   4.341 -0.0749  0.2380 -0.5732
  487MOL0     H64269   3.572   9.557   4.393 -1.8572  1.7685  0.8898
  487MOL0     H64270   3.547   9.863   4.344 -0.0647  1.0797 -0.1860
  487MOL0     H64271   3.302   9.947   4.348 -1.8943 -1.5993  0.5949
  487MOL0     H64272   2.942   9.821   4.401 -1.1991 -2.4573 -0.4521
  487MOL0     H64273   2.707   9.808   4.340 -3.1810  3.3609 -1.3962
  487MOL0     H64274   2.434  10.084   4.453  4.0988 -1.5447  0.4997
  487MOL0     H64275   2.384  10.030   4.616 -2.1998  1.6439 -1.3668
  487MOL0     H64276   2.265   9.911   4.377  1.2800  2.1879 -0.8672
  487MOL0     H64277   2.247   9.865   4.541  0.8809  0.8797 -0.3482
  487MOL0     H64278   2.198  10.151   4.461 -3.0858  0.7063 -2.1666
  487MOL0     H64279   2.143  10.066   4.607 -0.1452  0.1407 -0.5644
  487MOL0     H64280   1.969  10.099   4.434 -0.8183 -0.9251  2.2628
  487MOL0     H64281   2.059  10.007   4.312  0.4026  2.0279  0.6547
  487MOL0     H64282   1.842   9.708   4.539  0.6516  0.4096  1.7078
  487MOL0     H64283   2.606  10.063   4.679  0.6839  0.3111 -0.0680
  487MOL0     H64284   2.854  10.087   4.734  2.0464 -3.2159  2.1681
  488MOL0     O64285   1.250   4.482   6.818 -0.9768 -0.3663  0.0314
  488MOL0     C64286   1.308   4.567   6.755  1.0015 -0.5223  0.6704
  488MOL0     O64287   1.249   4.678   6.694 -0.1401 -0.0300 -0.3712
  488MOL0     C64288   1.122   4.716   6.701 -0.9731  0.7910 -0.2862
  488MOL0     C64289   1.005   4.632   6.685 -0.2376 -0.4777 -1.1932
  488MOL0     C64290   0.882   4.686   6.707  1.0940 -0.3907 -0.5636
  488MOL0     C64291   0.855   4.821   6.745 -0.0259  1.3441  0.5543
  488MOL0     O64292   0.729   4.868   6.755  0.3219  0.4302 -0.8630
  488MOL0     C64293   0.614   4.789   6.717  0.7703  0.1730 -0.7528
  488MOL0     C64294   0.493   4.881   6.737 -0.4186 -0.3720  0.1703
  488MOL0     C64295   0.364   4.793   6.712 -1.0590  0.4242 -0.7830
  488MOL0     C64296   0.239   4.873   6.701  0.4032  0.4845  0.2038
  488MOL0     C64297   0.220   4.973   6.821 -0.6948 -0.3712  0.2896
  488MOL0     C64298   0.103   5.081   6.808 -0.0324  0.8000 -0.1696
  488MOL0     C64299  -0.030   5.010   6.837 -0.0850  0.4388 -0.4393
  488MOL0     C64300  -0.156   5.094   6.849 -0.0020 -0.1203 -0.4413
  488MOL0     N64301  -0.203   5.123   6.722  0.0928  0.2663  0.0894
  488MOL0     C64302  -0.316   5.076   6.668  0.0808 -0.9710 -0.6267
  488MOL0     C64303  -0.339   5.174   6.576  0.0787 -0.7108 -0.4461
  488MOL0     C64304  -0.470   5.186   6.510  0.7205 -0.8454  0.6478
  488MOL0     C64305  -0.579   5.246   6.598 -0.9359  0.5555  0.8105
  488MOL0     C64306  -0.541   5.390   6.619  0.1198  0.5136  0.5066
  488MOL0     C64307  -0.519   5.490   6.513  0.8046 -0.1838  0.9383
  488MOL0     O64308  -0.608   5.492   6.397 -1.1288 -0.9492 -0.1147
  488MOL0     C64309  -0.745   5.488   6.408  0.4241 -0.3293  0.4314
  488MOL0     C64310  -0.820   5.426   6.312 -0.0431 -0.4292 -0.6384
  488MOL0     C64311  -0.959   5.425   6.317 -0.5628 -0.1250 -0.2875
  488MOL0     C64312  -1.027   5.493   6.419  0.0314 -0.0841  1.3680
  488MOL0     C64313  -1.178   5.483   6.424 -0.7297  0.3475  0.1073
  488MOL0     O64314  -1.235   5.566   6.521  0.0704  0.8822  0.0310
  488MOL0     C64315  -1.373   5.539   6.529 -0.0564 -0.3767  0.4883
  488MOL0     C64316  -1.404   5.435   6.615  0.0677 -0.2741 -0.0292
  488MOL0     C64317  -1.542   5.404   6.621 -0.4563  0.1453  0.1807
  488MOL0     C64318  -1.644   5.473   6.545 -1.0921  0.2266  0.7577
  488MOL0     O64319  -1.778   5.440   6.565  0.1422 -0.4093  0.3203
  488MOL0     C64320  -1.813   5.353   6.669  0.2767  0.7720  0.5204
  488MOL0     C64321  -1.959   5.386   6.686  0.4741  0.2387 -0.6133
  488MOL0     C64322  -2.063   5.298   6.613  0.2448 -0.3126  0.8475
  488MOL0     C64323  -2.190   5.346   6.671 -0.1056 -0.1542 -0.3217
  488MOL0     C64324  -2.313   5.273   6.619  0.1342  0.8194  0.2905
  488MOL0     C64325  -2.439   5.314   6.714  0.3997  0.1243 -0.2163
  488MOL0     C64326  -2.554   5.225   6.665 -0.1684 -0.3742  0.0524
  488MOL0     C64327  -2.695   5.257   6.729  0.9034  0.0066  0.1161
  488MOL0    Cl64328  -2.803   5.128   6.670  0.0948 -0.0254 -0.4816
  488MOL0     C64329  -1.602   5.583   6.469 -0.7473  0.4780 -0.2912
  488MOL0     C64330  -1.467   5.620   6.461 -0.1575  0.0984  1.1106
  488MOL0     O64331  -1.239   5.414   6.343 -0.5297 -0.3299 -0.0786
  488MOL0     C64332  -0.949   5.561   6.509  0.3877 -0.2162  0.0264
  488MOL0     C64333  -0.814   5.564   6.498 -0.5517 -0.9846  0.1368
  488MOL0     N64334  -0.236   5.261   6.571 -0.4253 -0.3988  0.8050
  488MOL0     N64335  -0.151   5.229   6.654  0.0793  0.1586 -0.2900
  488MOL0     C64336   0.968   4.897   6.748  0.4124  0.2502  0.4445
  488MOL0     C64337   1.100   4.848   6.730 -0.6362  0.0934 -0.5834
  488MOL0     C64338   1.456   4.549   6.744  0.0208  0.4316 -0.2883
  488MOL0     C64339   1.529   4.619   6.652  0.0779  0.4293  0.3389
  488MOL0     C64340   1.664   4.587   6.633 -0.5371 -0.5132 -0.0209
  488MOL0     C64341   1.727   4.486   6.704 -1.6071 -0.1907 -0.1668
  488MOL0     O64342   1.863   4.455   6.675  0.1161  0.2488 -0.1463
  488MOL0     C64343   1.928   4.346   6.744  0.5093  0.4833  0.2028
  488MOL0     C64344   1.883   4.212   6.676 -0.0676  0.2214 -0.1925
  488MOL0     C64345   1.940   4.186   6.534 -0.3148 -0.4915 -0.0332
  488MOL0     C64346   1.962   4.036   6.509  0.0288 -0.3452  0.6883
  488MOL0     C64347   2.094   4.005   6.563 -0.8771  1.2034  0.3930
  488MOL0     C64348   2.196   3.977   6.624  0.0011 -0.4301  0.4528
  488MOL0     C64349   1.656   4.419   6.808  0.2454 -0.7181 -0.0320
  488MOL0     C64350   1.520   4.455   6.825  0.1321 -0.2653 -1.4693
  488MOL0     H64351   1.027   4.529   6.661 -1.5039 -0.8067 -1.0496
  488MOL0     H64352   0.806   4.608   6.704  0.5849  0.1241 -1.4576
  488MOL0     H64353   0.601   4.705   6.785 -2.5497  1.5590  0.5599
  488MOL0     H64354   0.617   4.752   6.614  0.6317  1.5720 -1.2825
  488MOL0     H64355   0.490   4.969   6.672  0.4466 -0.4921 -0.0503
  488MOL0     H64356   0.491   4.922   6.839 -0.7647  1.9531 -0.7149
  488MOL0     H64357   0.354   4.721   6.794  0.1349  0.7801 -0.3169
  488MOL0     H64358   0.378   4.751   6.612  0.2544  0.8102 -0.7695
  488MOL0     H64359   0.242   4.936   6.611  4.6505 -0.6537 -0.6705
  488MOL0     H64360   0.152   4.806   6.698  1.1659 -0.6406  1.9961
  488MOL0     H64361   0.310   5.035   6.830 -1.6542  0.7681  2.9794
  488MOL0     H64362   0.209   4.911   6.911  0.0527 -1.8433 -0.5898
  488MOL0     H64363   0.114   5.121   6.707  3.4485 -1.1906 -0.7490
  488MOL0     H64364   0.125   5.161   6.878  1.1478  0.3203  0.0259
  488MOL0     H64365  -0.059   4.928   6.771  1.2853 -1.9916  1.8103
  488MOL0     H64366  -0.012   4.960   6.933 -0.3666 -1.4876 -1.3480
  488MOL0     H64367  -0.139   5.183   6.910  0.8632 -0.1768 -0.5883
  488MOL0     H64368  -0.232   5.034   6.901  2.1111 -1.1406  1.6489
  488MOL0     H64369  -0.377   4.995   6.707 -1.2744 -0.4551 -1.6101
  488MOL0     H64370  -0.495   5.084   6.480 -0.5377 -0.2490 -0.4555
  488MOL0     H64371  -0.458   5.245   6.418 -0.2067 -0.3444  0.8344
  488MOL0     H64372  -0.582   5.190   6.692 -1.1067 -0.7310  0.0731
  488MOL0     H64373  -0.668   5.227   6.538  0.2144 -0.1608 -0.7462
  488MOL0     H64374  -0.638   5.422   6.660 -1.2104 -1.5935 -0.8397
  488MOL0     H64375  -0.467   5.390   6.699  1.8987 -3.8928 -0.8902
  488MOL0     H64376  -0.419   5.471   6.472  1.0429  0.8825  1.0036
  488MOL0     H64377  -0.525   5.585   6.565  0.5340  0.0483  0.4951
  488MOL0     H64378  -0.766   5.363   6.242  0.2573 -0.3354 -0.4933
  488MOL0     H64379  -1.009   5.390   6.228  0.5333 -0.5467 -0.7554
  488MOL0     H64380  -1.322   5.385   6.665  0.8154  1.9742  1.0780
  488MOL0     H64381  -1.555   5.338   6.706 -3.0261  1.6387  1.0740
  488MOL0     H64382  -1.770   5.370   6.768  0.6616 -1.5030  0.7951
  488MOL0     H64383  -1.781   5.252   6.640  1.4027  1.6077 -1.3119
  488MOL0     H64384  -1.980   5.493   6.677  3.3006  0.7789 -1.8098
  488MOL0     H64385  -1.963   5.368   6.794 -0.9122 -0.5928 -0.7751
  488MOL0     H64386  -2.041   5.191   6.611  1.0241 -0.1792 -2.1608
  488MOL0     H64387  -2.067   5.329   6.508 -0.6647  1.8554  1.4667
  488MOL0     H64388  -2.182   5.330   6.779 -0.0835  0.3117 -0.2550
  488MOL0     H64389  -2.197   5.451   6.640 -2.1120 -0.2353 -0.2765
  488MOL0     H64390  -2.292   5.168   6.642  2.6971  1.8107  3.0385
  488MOL0     H64391  -2.327   5.302   6.514 -2.4771 -2.8144 -0.5832
  488MOL0     H64392  -2.467   5.419   6.699  0.4041  0.0881 -0.4743
  488MOL0     H64393  -2.424   5.300   6.822  1.8787  3.5030  0.1237
  488MOL0     H64394  -2.572   5.247   6.559 -3.1142  0.0548  0.5431
  488MOL0     H64395  -2.540   5.119   6.689 -1.0211 -0.5022  0.0122
  488MOL0     H64396  -2.738   5.352   6.696  0.6950  1.4169  4.0342
  488MOL0     H64397  -2.689   5.253   6.838 -0.6251  1.9281  0.3108
  488MOL0     H64398  -1.674   5.652   6.426 -0.3011  2.3097  1.7434
  488MOL0     H64399  -1.437   5.705   6.400 -0.9075  0.2535  0.9531
  488MOL0     H64400  -0.995   5.613   6.593 -1.7942  1.2215 -1.9481
  488MOL0     H64401  -0.756   5.631   6.560  0.4529  1.9085 -3.5459
  488MOL0     H64402   0.962   5.000   6.781 -0.3182  0.9249 -1.6063
  488MOL0     H64403   1.194   4.903   6.731  0.3832 -1.3516  3.3605
  488MOL0     H64404   1.499   4.697   6.582  1.4400 -0.6851 -1.5858
  488MOL0     H64405   1.718   4.628   6.549 -1.2030 -0.4542 -0.4221
  488MOL0     H64406   1.900   4.341   6.850 -3.6502  0.1220 -0.7427
  488MOL0     H64407   2.037   4.351   6.737  0.4327  0.5287 -1.0780
  488MOL0     H64408   1.897   4.121   6.735 -2.5115  1.0139  1.7539
  488MOL0     H64409   1.775   4.208   6.662  0.0002 -2.4235 -0.3756
  488MOL0     H64410   2.033   4.243   6.519 -0.0038 -0.5534  1.4955
  488MOL0     H64411   1.878   4.240   6.462 -2.1015 -0.9297  1.1295
  488MOL0     H64412   1.886   3.971   6.554 -1.6076  0.3794 -0.9101
  488MOL0     H64413   1.971   4.011   6.403 -2.5713 -1.9117  0.7497
  488MOL0     H64414   2.290   3.941   6.660  0.0835 -0.1465  0.5205
  488MOL0     H64415   1.700   4.343   6.871  0.9834 -1.5715 -1.5319
  488MOL0     H64416   1.467   4.403   6.904  1.4282  1.7256  0.8580
  489MOL0     O64417   6.508  10.931   0.460  0.7786  0.5013  0.6366
  489MOL0     C64418   6.606  10.914   0.388  0.3619  0.2997 -0.2523
  489MOL0     O64419   6.609  10.911   0.251  0.0110  0.1458 -0.8471
  489MOL0     C64420   6.495  10.913   0.185 -0.1302  0.1867 -0.3758
  489MOL0     C64421   6.483  10.819   0.080  0.0677  0.2152 -0.1551
  489MOL0     C64422   6.361  10.819   0.011  0.1124  0.4283  0.0599
  489MOL0     C64423   6.259  10.915   0.034  0.2561 -0.3030  0.3670
  489MOL0     O64424   6.132  10.925  -0.019 -0.7637 -0.2359 -0.0783
  489MOL0     C64425   6.107  10.858  -0.150  0.0588 -0.4572 -0.5475
  489MOL0     C64426   5.969  10.888  -0.197  0.2476 -0.6609  0.7902
  489MOL0     C64427   5.875  10.852  -0.072  0.0545  0.4568 -0.4133
  489MOL0     C64428   5.725  10.823  -0.109 -1.1118 -0.2832 -0.0818
  489MOL0     C64429   5.632  10.803   0.010  0.8931  0.9043 -0.6862
  489MOL0     C64430   5.605  10.926   0.105 -0.3874 -0.0801 -0.8567
  489MOL0     C64431   5.482  10.993   0.057 -0.2160  0.1815 -0.4786
  489MOL0     C64432   5.474  11.135   0.118  0.3459  0.2185 -0.1579
  489MOL0     N64433   5.354  11.194   0.064  0.0736 -0.0157 -0.1579
  489MOL0     C64434   5.233  11.213   0.135  0.5983 -0.4852 -0.1598
  489MOL0     C64435   5.148  11.266   0.043 -0.6826 -0.1652  0.4336
  489MOL0     C64436   5.012  11.310   0.081  0.6434  1.0446 -0.8131
  489MOL0     C64437   4.959  11.416  -0.008  1.3656 -0.6468 -1.1591
  489MOL0     C64438   4.893  11.362  -0.132  0.9373 -0.0542 -0.1330
  489MOL0     C64439   4.769  11.274  -0.118 -0.0587  0.2136  0.0058
  489MOL0     O64440   4.697  11.314  -0.006  0.2712 -0.0508 -0.2605
  489MOL0     C64441   4.605  11.406  -0.037  0.5656  0.3905 -0.3796
  489MOL0     C64442   4.485  11.375  -0.110  0.0129 -0.6511 -0.3722
  489MOL0     C64443   4.382  11.470  -0.104  0.0184  0.6393  1.0959
  489MOL0     C64444   4.388  11.599  -0.054  0.6954  0.4127  0.2561
  489MOL0     C64445   4.285  11.697  -0.094 -1.1648  0.6270 -0.1906
  489MOL0     O64446   4.217  11.680  -0.210  0.8002 -0.5485  0.1000
  489MOL0     C64447   4.142  11.782  -0.249  0.2505  1.1341  0.8795
  489MOL0     C64448   4.004  11.761  -0.262 -0.3848  0.5125  0.4364
  489MOL0     C64449   3.920  11.863  -0.298  0.6283  0.3474 -0.7359
  489MOL0     C64450   3.963  11.987  -0.335  0.2815 -0.9372  0.6564
  489MOL0     O64451   3.872  12.079  -0.387 -0.1924 -0.7544 -0.0606
  489MOL0     C64452   3.910  12.220  -0.404  0.1520  0.4166 -0.7999
  489MOL0     C64453   3.780  12.308  -0.413 -0.2455  0.0916 -0.0871
  489MOL0     C64454   3.679  12.265  -0.520  0.2922 -1.2242 -0.1690
  489MOL0     C64455   3.719  12.294  -0.666 -0.5162  0.4158 -0.0386
  489MOL0     C64456   3.698  12.177  -0.764  0.2574 -0.3527  0.9478
  489MOL0     C64457   3.775  12.046  -0.717 -0.3316  0.2790  0.9172
  489MOL0     C64458   3.811  11.936  -0.816  0.9639 -0.0971  0.2945
  489MOL0     C64459   3.705  11.878  -0.894  0.0446 -0.3270  0.7376
  489MOL0    Cl64460   3.602  11.759  -0.787 -0.0102  0.3210  0.6629
  489MOL0     C64461   4.104  12.016  -0.321  0.7575 -0.6841 -0.0297
  489MOL0     C64462   4.188  11.914  -0.275  0.7797 -0.0878  0.7742
  489MOL0     O64463   4.300  11.799  -0.028  0.3747 -0.0515  0.1501
  489MOL0     C64464   4.505  11.628   0.020  0.4465  0.6440 -0.2977
  489MOL0     C64465   4.612  11.534   0.029 -0.2555  0.0358  0.2688
  489MOL0     N64466   5.214  11.276  -0.081  0.6261  0.5527 -0.2396
  489MOL0     N64467   5.333  11.248  -0.063 -0.2300 -0.0394 -0.6274
  489MOL0     C64468   6.284  11.006   0.131 -0.2752 -0.3944  0.5217
  489MOL0     C64469   6.400  11.010   0.200 -0.5907 -0.1446  0.0953
  489MOL0     C64470   6.729  10.914   0.472 -0.1223  0.2183  0.1935
  489MOL0     C64471   6.849  10.882   0.405 -0.5441  0.1440 -0.1412
  489MOL0     C64472   6.960  10.866   0.484 -0.5918  0.7361  0.2569
  489MOL0     C64473   6.965  10.886   0.622  0.0668  0.0770 -0.6780
  489MOL0     O64474   7.080  10.877   0.685  0.0537 -0.4936 -0.7504
  489MOL0     C64475   7.092  10.921   0.822  0.4616  0.5970  0.6719
  489MOL0     C64476   7.248  10.919   0.863 -0.1971 -0.0262  0.1303
  489MOL0     C64477   7.290  10.775   0.893  0.7390  0.5254 -0.2938
  489MOL0     C64478   7.420  10.779   0.973 -0.9417 -0.1906 -0.4596
  489MOL0     C64479   7.536  10.840   0.892  1.5674  0.8813 -0.6154
  489MOL0     C64480   7.633  10.865   0.826 -0.0270 -0.4688 -0.0595
  489MOL0     C64481   6.853  10.932   0.682  1.1842  0.1358 -0.2730
  489MOL0     C64482   6.727  10.930   0.614  0.6220 -0.2135 -0.2704
  489MOL0     H64483   6.564  10.747   0.071  0.8309  1.1190 -0.6660
  489MOL0     H64484   6.346  10.733  -0.054  3.0764  0.0358 -0.2366
  489MOL0     H64485   6.123  10.750  -0.144  0.4455 -0.3455  0.9721
  489MOL0     H64486   6.183  10.904  -0.214  2.4335 -1.7590  1.1542
  489MOL0     H64487   5.945  10.833  -0.288 -0.3084 -0.7569  0.9879
  489MOL0     H64488   5.959  10.994  -0.219 -2.2693 -1.1532 -0.8062
  489MOL0     H64489   5.883  10.942  -0.011 -2.5957  1.9900 -2.1343
  489MOL0     H64490   5.911  10.757  -0.033  0.0690  0.6284 -0.0117
  489MOL0     H64491   5.684  10.905  -0.169 -1.2631 -1.9030 -2.3309
  489MOL0     H64492   5.720  10.728  -0.164 -0.7312  0.9996 -2.4569
  489MOL0     H64493   5.668  10.718   0.070 -0.5714  3.1166  3.7159
  489MOL0     H64494   5.533  10.766  -0.020  2.0247 -2.8669 -0.3156
  489MOL0     H64495   5.690  10.994   0.102  1.1015 -1.8870 -1.3425
  489MOL0     H64496   5.599  10.903   0.212  3.0568  1.2115 -0.2830
  489MOL0     H64497   5.479  11.003  -0.052 -2.3201 -1.6197 -0.6659
  489MOL0     H64498   5.393  10.935   0.084 -0.6348  0.4282 -1.3075
  489MOL0     H64499   5.562  11.195   0.095 -0.7127  2.1936  0.7043
  489MOL0     H64500   5.460  11.125   0.226  2.4555 -1.1193  0.0441
  489MOL0     H64501   5.224  11.186   0.239  4.0028 -1.6367 -0.0059
  489MOL0     H64502   5.015  11.349   0.183 -2.0847 -1.1004  0.1834
  489MOL0     H64503   4.939  11.229   0.087 -0.5135  2.1265  0.1175
  489MOL0     H64504   5.046  11.475  -0.037  0.9602 -0.0983 -1.2624
  489MOL0     H64505   4.897  11.485   0.049  1.8286 -0.6774 -0.6166
  489MOL0     H64506   4.863  11.452  -0.185  1.3330  0.4698  0.5228
  489MOL0     H64507   4.963  11.310  -0.198 -0.8385 -0.3721 -1.8451
  489MOL0     H64508   4.810  11.174  -0.108 -0.2224 -0.3257 -3.5202
  489MOL0     H64509   4.716  11.290  -0.212  1.6410 -0.0883 -1.0358
  489MOL0     H64510   4.480  11.280  -0.163  1.6076 -0.1730 -1.4647
  489MOL0     H64511   4.290  11.438  -0.153  1.0488  1.3485 -1.4441
  489MOL0     H64512   3.964  11.669  -0.222  0.2826  0.1945  0.3886
  489MOL0     H64513   3.816  11.838  -0.311  0.3268  1.0778  0.1806
  489MOL0     H64514   3.977  12.219  -0.491 -0.7184 -3.5916 -1.6033
  489MOL0     H64515   3.964  12.262  -0.319 -0.3500 -0.9047  0.1924
  489MOL0     H64516   3.816  12.411  -0.425 -0.1665  0.3861  2.2313
  489MOL0     H64517   3.734  12.298  -0.315  1.1940 -0.9043  0.5279
  489MOL0     H64518   3.601  12.338  -0.493  0.4330 -1.8525  2.1583
  489MOL0     H64519   3.641  12.165  -0.498 -0.7681 -0.6065  0.9237
  489MOL0     H64520   3.666  12.386  -0.693 -2.5242  0.2113  2.8355
  489MOL0     H64521   3.827  12.310  -0.670 -0.2758 -1.0146  0.1526
  489MOL0     H64522   3.735  12.199  -0.865  0.0198 -1.0961  0.6863
  489MOL0     H64523   3.593  12.160  -0.789  0.3358  0.5046 -0.0439
  489MOL0     H64524   3.706  12.005  -0.642 -3.3628  2.0568 -0.7092
  489MOL0     H64525   3.861  12.076  -0.656 -3.3900  3.1384  4.2615
  489MOL0     H64526   3.882  11.981  -0.886 -0.6143  1.2745 -0.5055
  489MOL0     H64527   3.853  11.858  -0.752 -0.0201  0.0140  1.1077
  489MOL0     H64528   3.760  11.823  -0.971 -0.2063  1.9991 -1.2137
  489MOL0     H64529   3.643  11.954  -0.942  1.3880  0.8966  0.8751
  489MOL0     H64530   4.153  12.112  -0.336  2.8520 -1.9176 -1.5955
  489MOL0     H64531   4.293  11.936  -0.261  0.5053  0.9931  1.2419
  489MOL0     H64532   4.519  11.721   0.074 -2.0400  1.3291 -0.6880
  489MOL0     H64533   4.693  11.555   0.098  0.7730 -0.4999 -0.7479
  489MOL0     H64534   6.222  11.092   0.154  2.1626  1.2775  1.1686
  489MOL0     H64535   6.417  11.087   0.275 -0.1147 -2.2019  2.2291
  489MOL0     H64536   6.847  10.861   0.299 -1.4438  2.2252 -0.5924
  489MOL0     H64537   7.048  10.820   0.438 -2.4614  0.4299 -3.4516
  489MOL0     H64538   7.026  10.862   0.886 -0.8979  1.5972  0.2537
  489MOL0     H64539   7.062  11.025   0.840 -0.4366  0.1021  2.2611
  489MOL0     H64540   7.321  10.960   0.792  1.3855 -0.8393  1.2237
  489MOL0     H64541   7.261  10.984   0.949  1.7941 -0.5917  0.3085
  489MOL0     H64542   7.301  10.713   0.803 -2.3856 -0.4436 -0.1275
  489MOL0     H64543   7.212  10.724   0.950 -0.1367  2.9383  0.8009
  489MOL0     H64544   7.401  10.855   1.050  0.8813 -1.7007  1.6212
  489MOL0     H64545   7.442  10.686   1.026 -2.9764  0.9355  2.6725
  489MOL0     H64546   7.719  10.896   0.770  0.2534  0.2390  0.7372
  489MOL0     H64547   6.846  10.964   0.785 -0.9076  1.6851 -0.8165
  489MOL0     H64548   6.635  10.955   0.666  0.7400 -1.3937  0.5438
  490MOL0     O64549  10.189   8.928   6.636  0.0152  0.2828  0.2494
  490MOL0     C64550  10.292   8.966   6.582  0.6077 -0.1795  0.0026
  490MOL0     O64551  10.414   8.922   6.603  0.0890  0.3556  0.1798
  490MOL0     C64552  10.441   8.850   6.714 -0.1392  0.8237  0.3701
  490MOL0     C64553  10.402   8.884   6.849  0.0997 -0.0879  1.0323
  490MOL0     C64554  10.452   8.812   6.964 -0.4058 -0.7285  0.4209
  490MOL0     C64555  10.544   8.706   6.940 -0.6131 -0.5604  0.6124
  490MOL0     O64556  10.596   8.651   7.047 -0.4049 -0.3620  0.1682
  490MOL0     C64557  10.684   8.529   7.038  1.2866  0.0415  0.7722
  490MOL0     C64558  10.606   8.405   6.993  0.0731 -0.1295  0.3338
  490MOL0     C64559  10.674   8.280   7.057 -0.1533 -0.0766 -0.3151
  490MOL0     C64560  10.591   8.141   7.024 -0.2632 -0.1902 -0.0295
  490MOL0     C64561  10.596   8.046   7.145  0.5553  1.2745 -0.8375
  490MOL0     C64562  10.550   7.905   7.121 -0.0218  0.1445  0.0101
  490MOL0     C64563  10.412   7.898   7.054  0.5274  0.7497  0.4412
  490MOL0     C64564  10.299   7.978   7.131 -0.2121 -0.0594 -0.2793
  490MOL0     N64565  10.246   7.909   7.238 -0.7760  0.1461  0.9689
  490MOL0     C64566  10.278   7.785   7.287  0.9109  0.7315 -0.6943
  490MOL0     C64567  10.186   7.762   7.378 -0.2620 -0.2457 -0.0450
  490MOL0     C64568  10.196   7.650   7.478 -0.1606  0.3557 -0.9726
  490MOL0     C64569  10.304   7.545   7.473  0.2432 -0.2199  0.4322
  490MOL0     C64570  10.286   7.454   7.347  0.8567 -0.4356  0.0649
  490MOL0     C64571  10.195   7.332   7.358 -0.1164 -0.0724 -0.5361
  490MOL0     O64572  10.248   7.247   7.468 -0.7898 -0.8051  0.2989
  490MOL0     C64573  10.161   7.198   7.559 -0.4527 -0.3125  0.6062
  490MOL0     C64574  10.212   7.150   7.683 -0.3081 -0.4723 -0.0337
  490MOL0     C64575  10.134   7.096   7.782 -0.6068 -0.1184  0.0307
  490MOL0     C64576   9.994   7.087   7.764 -0.4682 -0.1806 -0.3012
  490MOL0     C64577   9.918   7.004   7.864 -1.4029  0.4230 -0.1401
  490MOL0     O64578   9.783   7.017   7.852 -0.4995  0.7624 -0.6475
  490MOL0     C64579   9.692   6.982   7.952 -0.4326 -0.4093 -0.1562
  490MOL0     C64580   9.657   6.846   7.994 -0.3187  0.9664 -0.4138
  490MOL0     C64581   9.557   6.824   8.089  0.6060  0.3337 -0.2575
  490MOL0     C64582   9.492   6.929   8.149  0.1856  0.0956 -0.1634
  490MOL0     O64583   9.407   6.906   8.248  0.3443  0.4521  0.6282
  490MOL0     C64584   9.287   6.840   8.206  1.1048 -0.7132 -0.5255
  490MOL0     C64585   9.169   6.874   8.285 -0.6996 -0.2857 -0.1870
  490MOL0     C64586   9.035   6.801   8.249  0.3230  0.0736  0.0109
  490MOL0     C64587   8.931   6.869   8.351 -0.2907 -0.7258  0.1084
  490MOL0     C64588   8.793   6.814   8.313 -0.3737 -0.0571 -0.1124
  490MOL0     C64589   8.689   6.910   8.383 -0.2087  0.4914 -0.1160
  490MOL0     C64590   8.539   6.886   8.336  0.6700  0.0624  0.0833
  490MOL0     C64591   8.447   6.985   8.410  0.2910  0.7415 -0.0790
  490MOL0    Cl64592   8.285   6.960   8.356  0.5389  0.4778 -0.0975
  490MOL0     C64593   9.531   7.058   8.120  0.1275 -0.4151 -0.0442
  490MOL0     C64594   9.627   7.081   8.012  0.1218 -0.2348 -0.6391
  490MOL0     O64595   9.979   6.928   7.947  0.5829  0.5099  0.1531
  490MOL0     C64596   9.935   7.125   7.641  0.4611 -0.1320  0.4247
  490MOL0     C64597  10.020   7.173   7.539 -0.6059 -0.9441  0.5093
  490MOL0     N64598  10.102   7.872   7.378  0.2321  0.1207  0.4145
  490MOL0     N64599  10.135   7.960   7.299 -0.4403 -0.3142  0.2510
  490MOL0     C64600  10.584   8.670   6.804  0.7066  0.4413 -0.1670
  490MOL0     C64601  10.532   8.738   6.697  0.4630  0.5525 -0.2055
  490MOL0     C64602  10.289   9.090   6.498 -0.6802  0.5753  0.3994
  490MOL0     C64603  10.408   9.151   6.450  0.0622 -0.6296 -0.0382
  490MOL0     C64604  10.415   9.254   6.350  0.2223  0.4273  0.3500
  490MOL0     C64605  10.292   9.298   6.305 -0.1982 -0.9169  0.1194
  490MOL0     O64606  10.290   9.400   6.206 -0.0997  0.1858 -0.3672
  490MOL0     C64607  10.194   9.507   6.212  0.1725 -0.6123 -0.7445
  490MOL0     C64608  10.238   9.600   6.107  0.1685  0.8068 -0.4294
  490MOL0     C64609  10.140   9.717   6.084  0.7386 -0.0960 -0.8667
  490MOL0     C64610  10.000   9.688   6.044  0.9050  0.6024 -0.1024
  490MOL0     C64611  10.000   9.623   5.913 -0.1566 -0.1027 -0.2386
  490MOL0     C64612  10.015   9.578   5.797 -0.7287 -0.0281 -0.2982
  490MOL0     C64613  10.169   9.254   6.356  0.5727  0.7567  0.2578
  490MOL0     C64614  10.168   9.150   6.452  0.4974 -0.3347 -0.3993
  490MOL0     H64615  10.330   8.961   6.875 -2.9505 -1.6159 -2.0095
  490MOL0     H64616  10.419   8.837   7.064 -2.8255  0.2686 -0.5282
  490MOL0     H64617  10.697   8.507   7.145  0.5711  1.3079  1.1479
  490MOL0     H64618  10.775   8.555   6.985  0.9051 -1.1052 -0.4965
  490MOL0     H64619  10.594   8.404   6.884  0.4676 -0.4445  0.2934
  490MOL0     H64620  10.512   8.415   7.049  0.8098 -1.1382  1.8229
  490MOL0     H64621  10.689   8.289   7.165 -1.3597 -2.0525  0.0743
  490MOL0     H64622  10.776   8.268   7.019  0.4270 -0.1320  1.1638
  490MOL0     H64623  10.487   8.171   7.012 -0.6989 -0.8064  1.7695
  490MOL0     H64624  10.622   8.097   6.929 -0.0607 -0.1024 -0.0051
  490MOL0     H64625  10.538   8.087   7.228  1.9586  1.0505  0.3005
  490MOL0     H64626  10.703   8.043   7.169  0.2873  0.0946  0.3391
  490MOL0     H64627  10.542   7.857   7.219 -0.8444  1.5260  0.6384
  490MOL0     H64628  10.626   7.856   7.059 -0.0533 -1.6223  1.2774
  490MOL0     H64629  10.418   7.935   6.951  0.0738  1.6744  0.7433
  490MOL0     H64630  10.384   7.792   7.043 -3.4685  1.5722  1.1786
  490MOL0     H64631  10.231   7.997   7.047  3.3183  3.8168 -2.6575
  490MOL0     H64632  10.337   8.076   7.162 -1.2257  0.1077  0.4689
  490MOL0     H64633  10.360   7.716   7.269 -0.1597 -1.0811  0.9955
  490MOL0     H64634  10.104   7.592   7.463  1.2273 -2.4756  0.5793
  490MOL0     H64635  10.198   7.694   7.578  2.8660 -1.2169 -0.2053
  490MOL0     H64636  10.296   7.488   7.566 -1.5640  0.8790  1.0024
  490MOL0     H64637  10.398   7.600   7.464 -0.3594  0.6239 -1.0961
  490MOL0     H64638  10.263   7.515   7.259 -1.2524 -0.6625  0.4104
  490MOL0     H64639  10.388   7.418   7.332  1.6880  0.6830  2.6189
  490MOL0     H64640  10.180   7.272   7.268 -2.6693 -1.8530  0.9348
  490MOL0     H64641  10.095   7.368   7.385 -0.6982  0.2842 -2.9532
  490MOL0     H64642  10.318   7.172   7.697 -0.7375  2.3497 -0.5626
  490MOL0     H64643  10.172   7.033   7.862 -0.9252 -0.3429  0.0075
  490MOL0     H64644   9.711   6.767   7.943  2.9404  1.1865  2.3780
  490MOL0     H64645   9.534   6.720   8.107  2.4403  0.1140  1.0531
  490MOL0     H64646   9.288   6.730   8.204  1.4280 -0.7238  0.0745
  490MOL0     H64647   9.273   6.863   8.099  1.6320 -1.1507 -0.6917
  490MOL0     H64648   9.144   6.980   8.270  1.1314  0.4054  1.3042
  490MOL0     H64649   9.195   6.863   8.391  2.2048  1.5942 -0.5843
  490MOL0     H64650   9.041   6.695   8.274  0.3105 -0.2841 -1.4124
  490MOL0     H64651   8.999   6.819   8.147 -1.1368  1.7620  0.7743
  490MOL0     H64652   8.954   6.842   8.455  0.4264  1.4988  0.5672
  490MOL0     H64653   8.928   6.978   8.350  0.8505 -0.6720  0.7560
  490MOL0     H64654   8.788   6.709   8.344  1.6157 -0.1682 -0.0359
  490MOL0     H64655   8.779   6.822   8.205 -0.4929 -0.7679 -0.1570
  490MOL0     H64656   8.717   7.011   8.352  1.7043  0.1342  0.3056
  490MOL0     H64657   8.697   6.904   8.492 -1.7855  5.5003  0.5540
  490MOL0     H64658   8.524   6.900   8.229  3.2920 -0.7204 -0.4718
  490MOL0     H64659   8.503   6.788   8.371 -2.1208 -0.1092 -2.8643
  490MOL0     H64660   8.475   7.088   8.386  1.5214  0.0306 -1.9382
  490MOL0     H64661   8.464   6.970   8.517  1.1366  1.6167 -0.0799
  490MOL0     H64662   9.496   7.146   8.174 -2.1106 -1.0746 -0.3428
  490MOL0     H64663   9.634   7.188   7.992 -2.8988  0.5402  1.7807
  490MOL0     H64664   9.832   7.107   7.614  0.5874  0.6483 -0.6327
  490MOL0     H64665   9.994   7.194   7.436 -1.1913  0.7839  0.9707
  490MOL0     H64666  10.664   8.603   6.775  0.4875 -0.0663  0.3858
  490MOL0     H64667  10.563   8.724   6.594  0.5941  0.4278 -0.1483
  490MOL0     H64668  10.497   9.114   6.500 -1.4301 -0.3042  3.0465
  490MOL0     H64669  10.511   9.298   6.326 -0.4121  3.1547  2.4173
  490MOL0     H64670  10.186   9.552   6.311 -0.8020 -1.1287 -0.5670
  490MOL0     H64671  10.090   9.473   6.198  0.3673 -1.7522  0.3953
  490MOL0     H64672  10.337   9.637   6.137  0.3830 -1.0510  1.3130
  490MOL0     H64673  10.232   9.552   6.009 -4.5251 -0.9087  0.4337
  490MOL0     H64674  10.176   9.800   6.023 -3.2545  0.8953 -2.1708
  490MOL0     H64675  10.129   9.752   6.187  2.2255 -1.6755 -0.1147
  490MOL0     H64676   9.952   9.627   6.120  0.9929 -0.9664 -1.2582
  490MOL0     H64677   9.931   9.773   6.040 -0.8026 -0.7720 -1.6864
  490MOL0     H64678  10.047   9.532   5.706  0.5312  3.4242 -1.7622
  490MOL0     H64679  10.076   9.297   6.321 -0.3691 -0.6288  0.9629
  490MOL0     H64680  10.081   9.111   6.505  0.2892 -0.2440 -0.6713
  491MOL0     O64681   7.429   3.218   1.471 -0.5826 -0.8811  0.0043
  491MOL0     C64682   7.381   3.108   1.469 -0.3870 -0.5489  0.3542
  491MOL0     O64683   7.330   3.033   1.370  0.0490 -0.3312  0.1945
  491MOL0     C64684   7.340   3.071   1.231 -0.7771 -0.1138 -0.1937
  491MOL0     C64685   7.305   2.960   1.148  1.2867 -0.2470  0.3572
  491MOL0     C64686   7.306   2.989   1.013 -0.5225  0.6661  0.0571
  491MOL0     C64687   7.347   3.107   0.953  0.6170 -0.5048 -0.2778
  491MOL0     O64688   7.376   3.143   0.823 -0.0753 -0.2253  0.4759
  491MOL0     C64689   7.357   3.038   0.728  0.3269 -0.1981 -0.1043
  491MOL0     C64690   7.438   3.062   0.603  0.1447  0.5174  0.1709
  491MOL0     C64691   7.583   3.076   0.639  0.3119  0.5014  0.2852
  491MOL0     C64692   7.677   3.107   0.531 -0.8918  1.3429  0.1312
  491MOL0     C64693   7.813   3.163   0.585 -0.0786 -0.6083  0.0148
  491MOL0     C64694   7.923   3.176   0.470  0.6448  0.1470  0.3389
  491MOL0     C64695   7.984   3.039   0.438  1.2070 -0.0294  1.0503
  491MOL0     C64696   8.065   3.052   0.313  0.0563  0.0096  0.0251
  491MOL0     N64697   8.125   2.924   0.272  0.5249 -0.1162  0.5445
  491MOL0     C64698   8.236   2.859   0.324  1.1004 -0.9829  0.5702
  491MOL0     C64699   8.264   2.759   0.243  0.9056  0.2812 -0.6478
  491MOL0     C64700   8.364   2.654   0.250 -0.8127 -0.0240  0.0476
  491MOL0     C64701   8.305   2.518   0.244  0.7598  0.6210  0.6210
  491MOL0     C64702   8.400   2.415   0.284 -0.1695 -0.3990  0.1732
  491MOL0     C64703   8.334   2.265   0.253  0.9148 -0.5971 -0.0972
  491MOL0     O64704   8.431   2.156   0.256  0.0165 -0.2632 -0.1399
  491MOL0     C64705   8.505   2.126   0.142 -0.7412 -0.0185 -0.1495
  491MOL0     C64706   8.513   2.214   0.036  0.7210  1.0336  0.4006
  491MOL0     C64707   8.588   2.186  -0.083  0.6673 -0.7610 -0.4279
  491MOL0     C64708   8.682   2.079  -0.084  0.1300 -0.0898  0.1677
  491MOL0     C64709   8.769   2.055  -0.202 -0.5671  0.4117 -0.0961
  491MOL0     O64710   8.747   2.121  -0.316  0.1274 -0.0045  0.5479
  491MOL0     C64711   8.810   2.087  -0.435 -0.3615 -0.7952  0.0531
  491MOL0     C64712   8.857   2.191  -0.512 -0.4996  0.0920 -0.5377
  491MOL0     C64713   8.921   2.173  -0.632 -0.4175 -0.0523  0.6249
  491MOL0     C64714   8.891   2.050  -0.702  0.3814 -0.3209 -0.4235
  491MOL0     O64715   8.933   2.022  -0.834  0.5232  0.1565 -0.2103
  491MOL0     C64716   9.031   2.105  -0.890  0.4919  0.9669  0.0578
  491MOL0     C64717   9.058   2.070  -1.040 -0.7531 -0.1200 -0.0615
  491MOL0     C64718   9.165   2.175  -1.094 -0.1928 -0.0823  0.6278
  491MOL0     C64719   9.182   2.151  -1.245  0.0068 -1.1682 -0.4849
  491MOL0     C64720   9.263   2.017  -1.272 -0.3439  0.0943  0.1224
  491MOL0     C64721   9.318   2.013  -1.410  0.7321  0.3105  0.3274
  491MOL0     C64722   9.431   2.110  -1.434 -0.3661  0.2531 -0.3770
  491MOL0     C64723   9.502   2.095  -1.570 -0.3679  1.0474 -0.1600
  491MOL0    Cl64724   9.570   1.931  -1.587  0.4190 -0.2155  0.7203
  491MOL0     C64725   8.833   1.945  -0.632  0.3232 -0.1653 -0.1723
  491MOL0     C64726   8.801   1.958  -0.493 -0.6577 -0.4124 -0.6865
  491MOL0     O64727   8.864   1.967  -0.186 -0.8695 -0.3626  0.3415
  491MOL0     C64728   8.674   1.993   0.024 -0.1006  0.8095 -0.3764
  491MOL0     C64729   8.585   2.019   0.124 -0.9970  0.0069 -0.3786
  491MOL0     N64730   8.160   2.755   0.145 -1.0104  0.2368  0.1605
  491MOL0     N64731   8.091   2.861   0.164  0.9948 -0.0177  0.3803
  491MOL0     C64732   7.370   3.220   1.034 -0.2591 -0.1430 -0.1870
  491MOL0     C64733   7.366   3.196   1.175  0.5467  0.4140  0.6361
  491MOL0     C64734   7.395   3.039   1.599  0.2349 -0.6943 -0.9438
  491MOL0     C64735   7.480   3.059   1.703 -1.1742  0.0276  0.5120
  491MOL0     C64736   7.515   2.972   1.805  0.0277  1.3094 -0.2367
  491MOL0     C64737   7.449   2.846   1.804  0.0576 -0.3222 -0.7744
  491MOL0     O64738   7.478   2.751   1.897 -0.3041 -0.0867 -0.5790
  491MOL0     C64739   7.602   2.761   1.972  0.3075  0.9064 -0.7801
  491MOL0     C64740   7.706   2.679   1.883  0.1670 -0.8821  0.7842
  491MOL0     C64741   7.676   2.527   1.883 -0.0239 -0.8001  0.1619
  491MOL0     C64742   7.773   2.453   1.796  0.0454 -0.7643 -0.6347
  491MOL0     C64743   7.745   2.304   1.807  0.4224 -0.4496  0.7617
  491MOL0     C64744   7.753   2.185   1.829  0.4272 -0.0451 -0.6909
  491MOL0     C64745   7.348   2.830   1.713 -0.2005  0.1519  0.5304
  491MOL0     C64746   7.325   2.928   1.616  0.2766 -0.3853  0.4321
  491MOL0     H64747   7.261   2.870   1.190 -0.1383  0.5522  0.6487
  491MOL0     H64748   7.281   2.901   0.954  3.5043  2.3057 -4.8415
  491MOL0     H64749   7.250   3.023   0.715  0.1103 -2.3896  3.1412
  491MOL0     H64750   7.390   2.947   0.779  2.8773  1.1799  0.9023
  491MOL0     H64751   7.400   3.147   0.547 -1.6702 -1.9823 -2.6905
  491MOL0     H64752   7.421   2.980   0.533 -0.5448  2.6093 -2.2391
  491MOL0     H64753   7.617   2.989   0.697 -0.1974 -0.4909 -0.8525
  491MOL0     H64754   7.585   3.161   0.707  0.4531 -1.6519  3.1992
  491MOL0     H64755   7.693   3.007   0.490  1.4727  1.3887  0.7910
  491MOL0     H64756   7.629   3.178   0.463 -0.9319 -0.0229 -1.3219
  491MOL0     H64757   7.848   3.101   0.669  1.7019  0.7447  0.3284
  491MOL0     H64758   7.797   3.259   0.634  1.7670 -0.9819  1.4638
  491MOL0     H64759   8.004   3.243   0.500 -0.1166  0.3521  2.0902
  491MOL0     H64760   7.870   3.224   0.387  1.1498 -1.7170 -1.1423
  491MOL0     H64761   8.044   2.998   0.520  2.2101  2.8454  1.9012
  491MOL0     H64762   7.906   2.963   0.434 -2.5304  3.5244  0.2401
  491MOL0     H64763   8.149   3.112   0.347 -0.0182 -1.0395  2.2719
  491MOL0     H64764   8.023   3.104   0.226  1.9216 -0.3175 -1.1240
  491MOL0     H64765   8.294   2.890   0.410  0.4875  1.1380  0.2962
  491MOL0     H64766   8.408   2.661   0.350  0.5422 -0.0450 -0.5188
  491MOL0     H64767   8.448   2.661   0.181 -2.7621 -1.8054 -2.7366
  491MOL0     H64768   8.292   2.506   0.136 -1.0180  0.6610  0.7930
  491MOL0     H64769   8.207   2.497   0.287  0.1359 -0.3880 -1.1812
  491MOL0     H64770   8.494   2.426   0.230  0.3580 -4.0646  0.0888
  491MOL0     H64771   8.419   2.425   0.391  3.5010  2.3137 -0.5299
  491MOL0     H64772   8.271   2.257   0.165  0.3001 -1.0186  0.3769
  491MOL0     H64773   8.268   2.232   0.334  1.2358 -2.9280 -0.7326
  491MOL0     H64774   8.459   2.307   0.044 -1.5797 -0.2421  0.5796
  491MOL0     H64775   8.598   2.262  -0.160 -0.2844 -1.2772 -1.0803
  491MOL0     H64776   8.849   2.294  -0.479  1.7018 -0.1360  0.9499
  491MOL0     H64777   8.968   2.251  -0.691  0.3480 -2.7654 -2.7058
  491MOL0     H64778   9.128   2.107  -0.838 -0.3354  2.2251  1.6580
  491MOL0     H64779   8.992   2.207  -0.886  1.1095  1.2114 -0.0312
  491MOL0     H64780   8.957   2.078  -1.081 -0.4699 -2.5326 -1.4216
  491MOL0     H64781   9.103   1.972  -1.054  1.9633  0.4949  3.1589
  491MOL0     H64782   9.262   2.150  -1.051  0.0020 -2.6927 -1.0297
  491MOL0     H64783   9.146   2.281  -1.077  4.1556  0.9263  0.3287
  491MOL0     H64784   9.085   2.150  -1.297 -1.3836  0.1193  1.8991
  491MOL0     H64785   9.245   2.232  -1.281  1.0964 -1.8487 -0.1506
  491MOL0     H64786   9.205   1.929  -1.242 -0.3110  0.6871  2.1243
  491MOL0     H64787   9.344   2.020  -1.198 -1.8401  1.3744  1.8034
  491MOL0     H64788   9.242   2.030  -1.487  1.1283  0.6610  0.0099
  491MOL0     H64789   9.362   1.913  -1.415  0.5677  0.2279  0.5298
  491MOL0     H64790   9.390   2.211  -1.427 -0.4094  0.3060 -1.3142
  491MOL0     H64791   9.509   2.099  -1.358  0.2476 -1.2308 -1.1660
  491MOL0     H64792   9.578   2.173  -1.577 -0.1699  0.6827 -3.9291
  491MOL0     H64793   9.427   2.104  -1.649  1.0767 -0.1826 -1.7545
  491MOL0     H64794   8.822   1.848  -0.680 -2.3538 -0.2850  0.4994
  491MOL0     H64795   8.755   1.879  -0.435 -0.5478  1.2416  1.8167
  491MOL0     H64796   8.728   1.899   0.033 -2.0717 -0.3788 -0.3152
  491MOL0     H64797   8.579   1.931   0.186 -0.2073  0.5199  0.4348
  491MOL0     H64798   7.388   3.323   1.005  1.4229 -0.4560 -0.3578
  491MOL0     H64799   7.397   3.285   1.230  2.0912  0.7609 -0.6962
  491MOL0     H64800   7.550   3.142   1.701 -0.2059 -0.5451  4.1385
  491MOL0     H64801   7.591   2.997   1.878  0.7044  0.1637 -0.5265
  491MOL0     H64802   7.584   2.709   2.066  1.1013  1.2552 -0.4312
  491MOL0     H64803   7.624   2.861   2.009 -2.6884  1.1811  0.5560
  491MOL0     H64804   7.712   2.714   1.780  1.0901 -2.0079  0.4432
  491MOL0     H64805   7.804   2.684   1.931  0.3757 -0.5601  0.3260
  491MOL0     H64806   7.573   2.510   1.850  0.3089  0.6437 -1.8173
  491MOL0     H64807   7.680   2.477   1.980 -1.6975 -4.1055 -1.2984
  491MOL0     H64808   7.770   2.501   1.697  4.4992  0.5525 -0.3356
  491MOL0     H64809   7.870   2.472   1.843 -0.9272  1.5770  0.6701
  491MOL0     H64810   7.757   2.079   1.845 -1.3695  0.3526  3.6878
  491MOL0     H64811   7.290   2.738   1.718  2.0464 -1.3863 -0.0112
  491MOL0     H64812   7.235   2.915   1.557 -0.0691 -2.0167  1.2596
  492MOL0     O64813   2.728   3.589   3.806  0.4232  0.1787  0.3467
  492MOL0     C64814   2.772   3.556   3.700 -0.5255  0.5727  1.2568
  492MOL0     O64815   2.697   3.485   3.601  0.0892 -0.4163 -0.1285
  492MOL0     C64816   2.589   3.416   3.649  0.3081 -0.8867  0.3129
  492MOL0     C64817   2.605   3.311   3.737  1.3070  0.3978  0.3342
  492MOL0     C64818   2.503   3.216   3.780 -0.9232 -0.9942 -0.6642
  492MOL0     C64819   2.383   3.230   3.726  0.7544 -0.6729  0.1940
  492MOL0     O64820   2.286   3.147   3.780  0.0718  0.6197 -0.3698
  492MOL0     C64821   2.148   3.177   3.766  0.3732  0.7028  0.0799
  492MOL0     C64822   2.056   3.084   3.852 -0.5199  0.0828  0.2662
  492MOL0     C64823   2.111   2.939   3.869 -0.1371 -0.4254  0.1348
  492MOL0     C64824   2.004   2.858   3.950  0.0589  0.1613  0.8413
  492MOL0     C64825   2.050   2.710   3.996  0.5068 -0.3298  0.7782
  492MOL0     C64826   2.156   2.708   4.106 -0.0067 -0.0276 -0.5459
  492MOL0     C64827   2.195   2.570   4.162 -1.0084  0.3757 -0.5401
  492MOL0     C64828   2.283   2.576   4.283  0.6566  0.2155  0.6949
  492MOL0     N64829   2.360   2.455   4.291 -0.8382 -0.0001  0.5944
  492MOL0     C64830   2.476   2.435   4.217 -0.3265 -1.2893 -1.9546
  492MOL0     C64831   2.532   2.327   4.285  0.2436  0.1372 -0.2215
  492MOL0     C64832   2.666   2.272   4.250 -1.0089 -0.4321  0.2870
  492MOL0     C64833   2.647   2.121   4.219 -0.0444 -0.0872  0.3337
  492MOL0     C64834   2.776   2.048   4.184 -0.9722  0.0497 -0.3616
  492MOL0     C64835   2.882   2.123   4.118 -0.8646 -0.3349  0.0565
  492MOL0     O64836   2.982   2.026   4.079 -0.5919 -0.1294 -0.0068
  492MOL0     C64837   3.084   2.068   3.996 -0.6139 -0.2088 -0.1936
  492MOL0     C64838   3.134   2.201   3.989  0.1189 -0.4611 -0.2039
  492MOL0     C64839   3.221   2.240   3.890 -0.3944 -0.1947 -0.6777
  492MOL0     C64840   3.281   2.155   3.804  0.7843 -0.3625 -0.9855
  492MOL0     C64841   3.378   2.208   3.704  0.4971  0.3123 -0.0213
  492MOL0     O64842   3.478   2.115   3.674 -0.7473 -0.5895  0.3068
  492MOL0     C64843   3.593   2.177   3.622 -0.0031  0.2320  0.3367
  492MOL0     C64844   3.634   2.150   3.489  1.0493 -0.3437  0.4158
  492MOL0     C64845   3.746   2.207   3.445 -0.4385  0.0791  0.2964
  492MOL0     C64846   3.829   2.283   3.526  0.1723  0.4465  0.2605
  492MOL0     O64847   3.942   2.337   3.477 -0.3265  0.0491  0.7971
  492MOL0     C64848   3.935   2.479   3.451  1.3436 -0.0550 -0.2200
  492MOL0     C64849   3.853   2.509   3.332  0.4668  0.0654  0.1813
  492MOL0     C64850   3.914   2.432   3.209  0.5162 -1.4565 -0.4990
  492MOL0     C64851   3.823   2.435   3.092 -0.3842  0.2487 -0.7886
  492MOL0     C64852   3.864   2.331   2.984  0.6696  0.8366  0.4255
  492MOL0     C64853   4.011   2.326   2.939 -0.2123  0.3113  0.0373
  492MOL0     C64854   4.023   2.240   2.813  0.4512 -0.0233  0.1198
  492MOL0     C64855   4.168   2.235   2.770  0.5285  0.6733 -0.0206
  492MOL0    Cl64856   4.184   2.251   2.601  0.1080 -0.5663  0.2033
  492MOL0     C64857   3.801   2.294   3.654  0.4345 -0.3372 -0.0448
  492MOL0     C64858   3.683   2.236   3.707  0.3617  0.0406  0.1840
  492MOL0     O64859   3.362   2.325   3.667 -0.4145 -0.7044 -0.2509
  492MOL0     C64860   3.255   2.019   3.826 -0.0987 -0.3749  0.0209
  492MOL0     C64861   3.147   1.975   3.910 -0.6021 -1.0570  0.6994
  492MOL0     N64862   2.452   2.290   4.393 -1.1987 -0.1063 -0.3121
  492MOL0     N64863   2.343   2.366   4.385  0.6162  0.8491  0.0830
  492MOL0     C64864   2.362   3.342   3.649 -0.0601 -0.4562  0.5645
  492MOL0     C64865   2.461   3.424   3.597 -0.5137  0.2262 -0.5090
  492MOL0     C64866   2.907   3.602   3.662 -0.1770 -0.4218 -1.1788
  492MOL0     C64867   2.975   3.573   3.542  0.6924  0.0972  0.0223
  492MOL0     C64868   3.091   3.643   3.495  0.2577 -0.3785  0.3407
  492MOL0     C64869   3.162   3.729   3.582  0.3764  0.4069 -0.1441
  492MOL0     O64870   3.288   3.779   3.575  0.2748  0.0386 -1.0327
  492MOL0     C64871   3.368   3.759   3.464 -0.5077 -0.8636 -0.0738
  492MOL0     C64872   3.401   3.885   3.376  0.3070 -0.3030  0.3189
  492MOL0     C64873   3.501   3.855   3.263 -0.9434  0.0378 -0.2167
  492MOL0     C64874   3.516   3.966   3.150  0.2857 -0.3262 -0.7959
  492MOL0     C64875   3.404   3.969   3.062  0.6303 -0.4406  0.6607
  492MOL0     C64876   3.298   3.964   2.997  0.6573 -0.5213 -0.1624
  492MOL0     C64877   3.093   3.763   3.703 -0.3540  0.5584 -0.3866
  492MOL0     C64878   2.971   3.703   3.738  0.5079  0.4816  0.2673
  492MOL0     H64879   2.706   3.294   3.774  1.0053  0.8632  1.4017
  492MOL0     H64880   2.519   3.133   3.849 -0.5343  0.6701  1.3239
  492MOL0     H64881   2.133   3.161   3.659  0.4905  1.1330 -0.0006
  492MOL0     H64882   2.139   3.281   3.798  1.3091  1.5758 -2.2125
  492MOL0     H64883   1.966   3.073   3.791 -0.1624 -0.2524 -0.2048
  492MOL0     H64884   2.037   3.133   3.948 -2.5227  0.7896 -0.4396
  492MOL0     H64885   2.208   2.940   3.920 -1.8567 -2.5974  3.7552
  492MOL0     H64886   2.128   2.885   3.775  4.3622 -0.1151  0.5450
  492MOL0     H64887   1.973   2.911   4.040 -0.8066 -2.1708  1.9899
  492MOL0     H64888   1.919   2.842   3.882 -0.5284 -0.9259  1.7956
  492MOL0     H64889   2.092   2.651   3.914  0.9564 -0.4030  1.0571
  492MOL0     H64890   1.960   2.656   4.028 -1.9498  1.2730 -2.7538
  492MOL0     H64891   2.107   2.760   4.188 -3.4590 -1.2615 -1.6316
  492MOL0     H64892   2.249   2.760   4.083  0.6828 -0.2281  1.6653
  492MOL0     H64893   2.106   2.509   4.180 -0.4801  0.0519  1.2092
  492MOL0     H64894   2.252   2.513   4.087  0.5005 -1.4127  1.8158
  492MOL0     H64895   2.230   2.596   4.377  2.5181  2.4861  1.3474
  492MOL0     H64896   2.353   2.660   4.276 -0.2398  0.8620 -1.6878
  492MOL0     H64897   2.516   2.501   4.141  1.3535  0.0974  0.0100
  492MOL0     H64898   2.741   2.283   4.329 -2.1113  1.2528  1.1683
  492MOL0     H64899   2.706   2.321   4.160  2.8314 -0.9660  1.5186
  492MOL0     H64900   2.571   2.106   4.141  1.2589  1.0120 -1.2102
  492MOL0     H64901   2.610   2.074   4.311  0.0664  1.5887  1.2810
  492MOL0     H64902   2.821   2.011   4.277  0.4002  4.0488  0.8045
  492MOL0     H64903   2.756   1.956   4.129  1.9424 -0.9743  0.1161
  492MOL0     H64904   2.931   2.199   4.180  0.0154 -0.1808 -0.7981
  492MOL0     H64905   2.837   2.177   4.034 -0.2005  1.7810  1.0010
  492MOL0     H64906   3.092   2.262   4.068 -1.5799 -0.5424 -0.9953
  492MOL0     H64907   3.231   2.348   3.879  0.1653 -0.2452 -0.7001
  492MOL0     H64908   3.567   2.084   3.434  0.9993  0.9999 -1.1962
  492MOL0     H64909   3.776   2.193   3.342  0.9330  0.9371  0.5517
  492MOL0     H64910   4.036   2.520   3.438  1.4838  1.2242  3.6264
  492MOL0     H64911   3.892   2.531   3.537  1.2093 -1.5979  0.6701
  492MOL0     H64912   3.838   2.615   3.309 -1.0557 -0.2390 -0.3390
  492MOL0     H64913   3.755   2.461   3.342  0.0987  0.8559  0.4068
  492MOL0     H64914   3.924   2.332   3.252 -0.7738 -1.1597  0.5543
  492MOL0     H64915   4.000   2.492   3.178 -0.3799  1.9787  2.8510
  492MOL0     H64916   3.723   2.402   3.121 -0.9050  2.7160  0.5402
  492MOL0     H64917   3.816   2.537   3.054  0.0936 -0.0446 -1.6863
  492MOL0     H64918   3.806   2.356   2.895  4.2494  0.0360 -2.3618
  492MOL0     H64919   3.840   2.230   3.018  4.0009  1.2452  5.0582
  492MOL0     H64920   4.075   2.286   3.019  0.0205  1.0867  0.2509
  492MOL0     H64921   4.066   2.419   2.920  0.3967 -0.4474 -2.2794
  492MOL0     H64922   3.981   2.140   2.829 -1.0361  0.8580  2.2656
  492MOL0     H64923   3.947   2.276   2.744  0.9655  0.9314  0.0390
  492MOL0     H64924   4.209   2.140   2.803 -2.7265 -1.0420 -0.4607
  492MOL0     H64925   4.224   2.318   2.815 -0.1559  0.3384  1.5082
  492MOL0     H64926   3.874   2.345   3.715  2.0626 -1.9122 -0.6024
  492MOL0     H64927   3.655   2.258   3.809 -1.6131  0.4809 -0.4071
  492MOL0     H64928   3.304   1.944   3.765  1.1484  2.1117 -2.2344
  492MOL0     H64929   3.119   1.870   3.919 -0.3160 -1.0978  1.1557
  492MOL0     H64930   2.265   3.387   3.627  0.1909  0.4158  1.1975
  492MOL0     H64931   2.431   3.499   3.525 -0.0920 -0.8472 -1.8474
  492MOL0     H64932   2.920   3.501   3.481  5.6460 -2.8934 -1.4894
  492MOL0     H64933   3.117   3.638   3.389 -3.0479  1.8683 -0.7558
  492MOL0     H64934   3.319   3.696   3.389 -1.9695  1.2515 -0.9852
  492MOL0     H64935   3.459   3.709   3.498  1.0182  0.7026 -1.6745
  492MOL0     H64936   3.310   3.923   3.330 -0.3072 -1.7868  0.2454
  492MOL0     H64937   3.442   3.963   3.441  2.8503 -1.7576  0.6009
  492MOL0     H64938   3.474   3.763   3.212 -1.8228  0.5056 -0.5984
  492MOL0     H64939   3.599   3.832   3.307 -0.7732 -2.4398 -1.6736
  492MOL0     H64940   3.520   4.066   3.194 -1.6688 -1.6840  2.8758
  492MOL0     H64941   3.607   3.951   3.090  1.0193  1.5262 -0.2285
  492MOL0     H64942   3.214   3.965   2.930 -2.3083 -0.1573  3.2587
  492MOL0     H64943   3.148   3.831   3.769 -0.3411  2.6611 -2.4432
  492MOL0     H64944   2.918   3.732   3.828 -1.0031  2.3325 -1.1454
  493MOL0     O64945   4.347   5.564   6.976 -0.1889 -0.1139  0.2284
  493MOL0     C64946   4.415   5.650   7.024 -0.2168  0.3009  0.7196
  493MOL0     O64947   4.374   5.740   7.115 -0.3772 -0.6701 -0.4862
  493MOL0     C64948   4.241   5.764   7.158 -0.7774 -0.1507  0.2876
  493MOL0     C64949   4.138   5.679   7.132 -0.4769  0.3426 -0.1270
  493MOL0     C64950   4.019   5.708   7.180 -0.5348  0.0685 -0.6838
  493MOL0     C64951   3.990   5.818   7.247  0.8146 -0.6835 -0.2208
  493MOL0     O64952   3.858   5.826   7.281 -0.0433  0.1281 -0.0821
  493MOL0     C64953   3.794   5.948   7.309  0.5322  0.3205  0.0415
  493MOL0     C64954   3.651   5.964   7.249 -0.5403  0.6447  0.0771
  493MOL0     C64955   3.552   5.862   7.313 -1.0007 -0.6338 -0.2579
  493MOL0     C64956   3.523   5.882   7.464 -0.5352  0.1748  0.6736
  493MOL0     C64957   3.476   5.748   7.529 -0.0081 -0.2093  0.0039
  493MOL0     C64958   3.592   5.655   7.566 -0.3376 -0.4017 -0.1039
  493MOL0     C64959   3.539   5.546   7.657 -0.3944  0.8977  0.7730
  493MOL0     C64960   3.488   5.429   7.578  0.0318  0.4332  0.0424
  493MOL0     N64961   3.449   5.315   7.662  0.5341 -0.2270  0.4708
  493MOL0     C64962   3.377   5.329   7.777  0.0444  0.9459 -0.1461
  493MOL0     C64963   3.357   5.196   7.810  0.0053 -0.4340 -0.7415
  493MOL0     C64964   3.264   5.159   7.927 -0.9665  0.1844  0.3519
  493MOL0     C64965   3.156   5.276   7.953 -0.0536 -0.6756  0.2717
  493MOL0     C64966   3.054   5.225   8.058 -0.6477  0.2486 -0.2527
  493MOL0     C64967   2.929   5.313   8.067  0.3578 -1.2344 -0.6214
  493MOL0     O64968   2.862   5.282   8.190 -0.2150 -0.6139  0.2071
  493MOL0     C64969   2.724   5.287   8.196  0.7434 -0.8959 -0.6446
  493MOL0     C64970   2.628   5.298   8.095 -0.1178 -0.3800  0.1425
  493MOL0     C64971   2.497   5.310   8.127  0.8283 -0.8959  0.6101
  493MOL0     C64972   2.443   5.308   8.252  0.1109 -0.3567 -0.0465
  493MOL0     C64973   2.297   5.299   8.273 -0.2554  0.7418  0.5179
  493MOL0     O64974   2.268   5.205   8.370  0.3971  0.9191  0.1082
  493MOL0     C64975   2.155   5.215   8.458 -0.2076 -0.0189 -0.9725
  493MOL0     C64976   2.129   5.101   8.530  0.6703 -0.4724 -0.0580
  493MOL0     C64977   2.030   5.103   8.632  0.1213  0.4243 -0.0054
  493MOL0     C64978   1.955   5.218   8.658  0.2247 -0.4149  0.6515
  493MOL0     O64979   1.850   5.232   8.753  0.3745 -0.2828 -0.0395
  493MOL0     C64980   1.842   5.134   8.860 -1.0776 -0.7967  0.8249
  493MOL0     C64981   1.742   5.179   8.971 -0.6651 -0.1044  0.4519
  493MOL0     C64982   1.691   5.060   9.050 -0.2624 -0.0824  0.3321
  493MOL0     C64983   1.577   5.107   9.141 -0.7961  0.7188 -0.3684
  493MOL0     C64984   1.516   4.996   9.229 -0.9748  0.5150 -0.1874
  493MOL0     C64985   1.614   4.969   9.349 -0.6683 -0.8329 -0.1302
  493MOL0     C64986   1.537   4.890   9.449 -0.5981 -0.9132  0.2812
  493MOL0     C64987   1.625   4.867   9.572 -0.2874  0.1820 -0.1905
  493MOL0    Cl64988   1.721   4.711   9.550  0.0234 -0.1779 -0.5605
  493MOL0     C64989   1.980   5.333   8.586 -0.2638 -0.6679 -0.5221
  493MOL0     C64990   2.076   5.334   8.487  0.3644  0.1173  0.8843
  493MOL0     O64991   2.220   5.358   8.204  0.1348  0.7126 -1.0970
  493MOL0     C64992   2.536   5.304   8.361 -0.7004 -0.3449 -0.1197
  493MOL0     C64993   2.678   5.291   8.335  1.0042  0.1886  0.1200
  493MOL0     N64994   3.415   5.114   7.721 -0.1695  0.0066 -0.8501
  493MOL0     N64995   3.463   5.189   7.630  0.2923 -0.4461  0.8803
  493MOL0     C64996   4.100   5.907   7.288  0.4375 -0.4770 -0.6434
  493MOL0     C64997   4.225   5.876   7.244 -0.8762 -0.6551  0.0236
  493MOL0     C64998   4.562   5.653   6.977  0.4002 -0.4232 -0.3648
  493MOL0     C64999   4.629   5.538   6.930  0.6119 -0.1069  0.2473
  493MOL0     C65000   4.757   5.548   6.887 -0.8072 -1.2307 -0.1734
  493MOL0     C65001   4.827   5.670   6.898 -0.5860 -0.2040 -0.5688
  493MOL0     O65002   4.959   5.692   6.865 -1.0328 -0.0530  0.1648
  493MOL0     C65003   5.020   5.613   6.764  0.5646  0.1841  0.5109
  493MOL0     C65004   5.173   5.642   6.747  0.7454  0.6800 -0.4640
  493MOL0     C65005   5.228   5.576   6.623 -0.7401 -0.0363 -0.3386
  493MOL0     C65006   5.382   5.597   6.612 -0.3185 -0.8043  0.0776
  493MOL0     C65007   5.426   5.679   6.493  0.4584  0.0194  0.5866
  493MOL0     C65008   5.443   5.747   6.387 -0.1988 -1.0137 -0.0653
  493MOL0     C65009   4.762   5.786   6.949  0.0183  0.2574 -0.3581
  493MOL0     C65010   4.634   5.782   6.987  0.9826  0.3099 -0.3618
  493MOL0     H65011   4.148   5.593   7.066  0.4468  1.7251 -1.8724
  493MOL0     H65012   3.944   5.630   7.177 -1.4129  0.9370 -3.1354
  493MOL0     H65013   3.853   6.034   7.277 -0.2061  1.2989  1.2286
  493MOL0     H65014   3.775   5.950   7.417 -1.3207 -0.9313 -0.2130
  493MOL0     H65015   3.660   5.954   7.141  3.5437  2.0685  0.1147
  493MOL0     H65016   3.617   6.065   7.275 -1.0988  0.7683 -1.0672
  493MOL0     H65017   3.597   5.763   7.298 -2.0098 -1.1088 -0.2340
  493MOL0     H65018   3.458   5.871   7.259 -0.0233 -0.9937 -2.0949
  493MOL0     H65019   3.603   5.928   7.523 -0.9910  0.3989  1.1248
  493MOL0     H65020   3.447   5.960   7.470 -0.2851  0.3389  1.9447
  493MOL0     H65021   3.416   5.683   7.463 -1.6317  0.0416  1.1703
  493MOL0     H65022   3.416   5.763   7.619  1.2021  0.1708  0.7635
  493MOL0     H65023   3.663   5.723   7.614 -0.2391 -0.1881 -0.5429
  493MOL0     H65024   3.642   5.606   7.482 -0.6446 -1.1319  0.1351
  493MOL0     H65025   3.620   5.519   7.726  0.2334  4.1055  1.4197
  493MOL0     H65026   3.461   5.577   7.727 -0.4542 -0.6189  1.4198
  493MOL0     H65027   3.567   5.396   7.509 -0.4622 -0.1097 -0.2744
  493MOL0     H65028   3.409   5.461   7.510  0.8012  0.1186 -1.0336
  493MOL0     H65029   3.337   5.422   7.816 -0.9250  0.9332 -1.0659
  493MOL0     H65030   3.327   5.160   8.017  0.3080 -2.3489 -0.4050
  493MOL0     H65031   3.222   5.060   7.910 -0.5586 -0.0493  0.6962
  493MOL0     H65032   3.111   5.302   7.857  1.5524  0.4173 -0.2101
  493MOL0     H65033   3.209   5.363   7.991  2.2854 -1.0546 -1.8590
  493MOL0     H65034   3.017   5.124   8.036  4.1790 -1.4513 -1.9261
  493MOL0     H65035   3.113   5.220   8.150  0.7992  0.5921 -1.1308
  493MOL0     H65036   2.876   5.299   7.972  1.2029  0.9579 -1.4734
  493MOL0     H65037   2.959   5.418   8.065 -1.2284 -0.7655 -1.9265
  493MOL0     H65038   2.666   5.297   7.994  1.5991  2.9477  0.6076
  493MOL0     H65039   2.430   5.319   8.042 -0.7200  2.1602  2.0027
  493MOL0     H65040   2.195   5.017   8.512  0.0134 -0.9250 -0.4015
  493MOL0     H65041   2.005   5.013   8.688 -0.7905  0.9933  0.5394
  493MOL0     H65042   1.932   5.109   8.917 -0.3050 -0.3133 -0.1509
  493MOL0     H65043   1.804   5.040   8.819  0.9755 -1.7049  0.9014
  493MOL0     H65044   1.663   5.237   8.923 -2.6925 -2.0781  1.1898
  493MOL0     H65045   1.797   5.242   9.042 -0.1946 -1.1516  1.0461
  493MOL0     H65046   1.771   5.013   9.109  1.5867  0.8124 -1.3240
  493MOL0     H65047   1.648   4.993   8.976 -0.6647  2.7517 -2.1997
  493MOL0     H65048   1.624   5.183   9.205  1.0276  0.2241 -1.0497
  493MOL0     H65049   1.500   5.146   9.074 -1.4751  0.4686  0.2516
  493MOL0     H65050   1.498   4.911   9.163 -2.2546  1.4981 -1.1556
  493MOL0     H65051   1.421   5.027   9.272 -1.1938 -0.7007  0.2225
  493MOL0     H65052   1.652   5.058   9.400  0.8846 -0.4102 -1.8907
  493MOL0     H65053   1.700   4.915   9.309  0.7778  2.5984 -2.1826
  493MOL0     H65054   1.445   4.939   9.483  0.3137 -0.2855  1.9509
  493MOL0     H65055   1.510   4.793   9.406  0.2561 -0.7963 -0.5323
  493MOL0     H65056   1.569   4.863   9.666 -1.6657 -0.7875 -1.0129
  493MOL0     H65057   1.698   4.946   9.590 -1.3961  1.2024 -0.0463
  493MOL0     H65058   1.911   5.416   8.602 -2.6320 -2.1452 -2.3145
  493MOL0     H65059   2.100   5.415   8.419 -2.5547 -1.4371 -2.3393
  493MOL0     H65060   2.504   5.284   8.462 -0.8774 -0.4146 -0.1902
  493MOL0     H65061   2.750   5.293   8.416  0.7613 -0.9537  0.3890
  493MOL0     H65062   4.084   5.994   7.352  1.3561 -2.1921  2.0530
  493MOL0     H65063   4.313   5.932   7.273  0.1629 -1.6879 -0.9920
  493MOL0     H65064   4.586   5.439   6.921  3.1125 -1.2702  0.2214
  493MOL0     H65065   4.817   5.464   6.852  1.0297 -0.2588  0.4974
  493MOL0     H65066   4.962   5.627   6.672  2.4427 -1.9576 -1.0986
  493MOL0     H65067   5.010   5.506   6.785  3.7427  0.2092  2.8193
  493MOL0     H65068   5.177   5.751   6.742  0.9195  0.6622 -0.7310
  493MOL0     H65069   5.223   5.596   6.833 -1.9095 -0.9241  0.3540
  493MOL0     H65070   5.168   5.594   6.533 -2.7941 -1.8723  0.5842
  493MOL0     H65071   5.230   5.467   6.620  1.2120 -0.0775  0.4559
  493MOL0     H65072   5.415   5.655   6.699 -1.8984  1.1261 -0.5527
  493MOL0     H65073   5.434   5.501   6.601  1.1947  0.1841 -2.2224
  493MOL0     H65074   5.462   5.797   6.294 -1.9273 -1.6638 -0.8149
  493MOL0     H65075   4.801   5.887   6.949 -0.2547  0.3606 -0.4018
  493MOL0     H65076   4.594   5.878   7.018  0.2697 -0.1577  0.2238
  494MOL0     O65077   4.843  10.860   2.141  0.1458  0.4817  0.0257
  494MOL0     C65078   4.749  10.862   2.217  0.2562  0.0684  0.3747
  494MOL0     O65079   4.752  10.900   2.349  0.8293  0.6146  0.0416
  494MOL0     C65080   4.875  10.902   2.414  0.6382  0.6704 -0.7606
  494MOL0     C65081   4.885  10.992   2.514  0.8756  0.0225 -0.5849
  494MOL0     C65082   4.993  10.980   2.610  0.5392  0.3940 -0.2263
  494MOL0     C65083   5.094  10.883   2.590  0.3421 -0.4354 -0.1729
  494MOL0     O65084   5.200  10.873   2.679  0.2608  0.1714  0.0340
  494MOL0     C65085   5.269  10.994   2.734  0.5946 -0.1069 -0.2637
  494MOL0     C65086   5.410  10.953   2.770 -0.1129  0.4249 -0.4416
  494MOL0     C65087   5.494  11.071   2.839  0.6426 -0.2038 -0.4037
  494MOL0     C65088   5.640  11.025   2.843  0.3104 -0.2518  0.4706
  494MOL0     C65089   5.712  11.100   2.962  0.2795 -0.1599 -0.1132
  494MOL0     C65090   5.858  11.095   2.962  0.4214 -0.2468  0.9038
  494MOL0     C65091   5.919  11.228   2.995  0.8230  0.0660 -0.3012
  494MOL0     C65092   6.072  11.217   2.974 -0.3643 -0.2964 -0.4455
  494MOL0     N65093   6.144  11.144   3.082 -0.1905  0.2265 -0.8722
  494MOL0     C65094   6.182  11.195   3.206 -0.3100 -0.0548 -0.7108
  494MOL0     C65095   6.270  11.107   3.255  0.2833  0.1693  0.5732
  494MOL0     C65096   6.346  11.104   3.379 -0.0272 -0.1633 -0.3117
  494MOL0     C65097   6.476  11.024   3.363 -1.0801  0.3862 -0.1855
  494MOL0     C65098   6.570  11.045   3.485 -0.8848 -0.6606  0.0637
  494MOL0     C65099   6.651  11.176   3.478  0.1790 -0.5932 -0.3480
  494MOL0     O65100   6.718  11.187   3.603 -0.1195  1.2274 -0.4108
  494MOL0     C65101   6.832  11.108   3.618  0.5206  0.1403  0.3617
  494MOL0     C65102   6.933  11.077   3.524  0.0051  0.2213  0.6183
  494MOL0     C65103   7.047  11.001   3.553 -0.1168  0.8809  0.6024
  494MOL0     C65104   7.070  10.950   3.681  0.5624 -0.3547 -0.3258
  494MOL0     C65105   7.178  10.864   3.718  0.5371  0.9016  0.2436
  494MOL0     O65106   7.251  10.814   3.617  0.0375 -0.3970  0.7928
  494MOL0     C65107   7.371  10.758   3.658 -0.3409  0.2929  0.3860
  494MOL0     C65108   7.486  10.829   3.670 -0.0431 -0.3493 -0.5525
  494MOL0     C65109   7.610  10.774   3.675 -0.0544 -0.0681 -0.0533
  494MOL0     C65110   7.622  10.634   3.685 -0.2555  0.3246  0.7430
  494MOL0     O65111   7.733  10.563   3.711 -1.3062 -0.2338 -0.3932
  494MOL0     C65112   7.861  10.622   3.723  0.2939  0.2204 -0.5258
  494MOL0     C65113   7.973  10.523   3.719 -0.4021 -0.0669 -1.2079
  494MOL0     C65114   7.969  10.428   3.839 -0.2053 -0.7962  0.8491
  494MOL0     C65115   8.093  10.328   3.835 -0.6314  0.4254  0.2718
  494MOL0     C65116   8.103  10.231   3.957  0.2037  0.1074 -0.7735
  494MOL0     C65117   8.154  10.299   4.083 -0.8062  1.1098 -0.0198
  494MOL0     C65118   8.108  10.236   4.222 -0.3133 -0.7525  0.0541
  494MOL0     C65119   8.167  10.104   4.229  0.1927  0.1061 -0.8441
  494MOL0    Cl65120   8.077  10.022   4.368  0.1648 -0.4807 -0.1098
  494MOL0     C65121   7.510  10.553   3.675 -0.1713  0.2828 -0.1982
  494MOL0     C65122   7.384  10.617   3.667  0.2109 -0.0307 -0.3876
  494MOL0     O65123   7.186  10.839   3.841 -0.3626  0.6865  0.4168
  494MOL0     C65124   6.967  10.983   3.766  0.0092  0.0170 -0.4330
  494MOL0     C65125   6.857  11.057   3.736  0.2256  0.2602  0.3517
  494MOL0     N65126   6.273  11.005   3.165  0.3661 -0.1617  0.4583
  494MOL0     N65127   6.199  11.020   3.062  0.4057  1.0444 -0.1442
  494MOL0     C65128   5.079  10.791   2.488 -0.1337 -0.5374 -0.1333
  494MOL0     C65129   4.970  10.795   2.402  0.7009 -0.6972  0.0639
  494MOL0     C65130   4.613  10.830   2.151  0.9596 -0.2035  1.7136
  494MOL0     C65131   4.606  10.782   2.021  0.4859 -0.5114  0.4945
  494MOL0     C65132   4.483  10.745   1.957 -0.2337 -0.1978  0.2730
  494MOL0     C65133   4.365  10.762   2.023  0.2129  0.3895 -0.2352
  494MOL0     O65134   4.248  10.731   1.956  0.8910 -0.2032 -0.4214
  494MOL0     C65135   4.112  10.768   2.005  0.8089  0.1893  0.6883
  494MOL0     C65136   4.030  10.799   1.882  0.1910 -0.2503 -0.1201
  494MOL0     C65137   3.885  10.807   1.926  0.0563 -0.1082 -0.5815
  494MOL0     C65138   3.804  10.909   1.840  0.3362  0.5264 -0.8688
  494MOL0     C65139   3.672  10.859   1.804  0.1750 -1.3882  0.1270
  494MOL0     C65140   3.571  10.800   1.770 -0.0758  0.3372 -0.3657
  494MOL0     C65141   4.368  10.803   2.156 -0.1053  0.3707 -0.1564
  494MOL0     C65142   4.491  10.836   2.219  0.9342 -0.3502  0.2149
  494MOL0     H65143   4.804  11.062   2.531  0.9688  0.6805 -2.6483
  494MOL0     H65144   4.986  11.047   2.694 -3.9638  1.2756 -1.0583
  494MOL0     H65145   5.219  11.031   2.824  1.8944 -1.6415  1.1437
  494MOL0     H65146   5.267  11.079   2.665  0.2548  0.6492  0.6472
  494MOL0     H65147   5.454  10.916   2.677 -0.4967 -1.3403  0.0340
  494MOL0     H65148   5.418  10.874   2.846 -0.2188 -0.7795 -1.6443
  494MOL0     H65149   5.457  11.096   2.939 -0.3813 -0.1405 -0.7796
  494MOL0     H65150   5.485  11.172   2.797  2.0632  0.2561  0.3561
  494MOL0     H65151   5.642  10.915   2.846 -0.2637 -0.3439 -1.2924
  494MOL0     H65152   5.683  11.062   2.749 -4.1265  0.6903 -1.4647
  494MOL0     H65153   5.677  11.051   3.054  0.0166 -3.3743 -1.7743
  494MOL0     H65154   5.671  11.201   2.976 -3.1233 -1.3481 -0.4635
  494MOL0     H65155   5.890  11.076   2.860 -1.7192  0.7312  0.0043
  494MOL0     H65156   5.904  11.015   3.020  0.8110  0.1722  1.1866
  494MOL0     H65157   5.891  11.314   2.933  4.4177  1.6652  0.0537
  494MOL0     H65158   5.896  11.258   3.098 -3.0442  0.8626 -1.2273
  494MOL0     H65159   6.119  11.315   2.962  1.0458 -0.6404  1.7334
  494MOL0     H65160   6.092  11.163   2.881 -1.0239  0.0534 -0.7974
  494MOL0     H65161   6.166  11.294   3.248 -0.8268 -0.6303  0.4908
  494MOL0     H65162   6.292  11.065   3.466 -0.1972  3.6271  1.4812
  494MOL0     H65163   6.370  11.210   3.394 -0.0191  0.1873 -2.4524
  494MOL0     H65164   6.531  11.053   3.273 -2.7115 -1.9118 -2.0677
  494MOL0     H65165   6.454  10.917   3.351  0.0638  0.0468  0.5569
  494MOL0     H65166   6.507  11.057   3.573 -1.5711  3.6692 -0.7781
  494MOL0     H65167   6.641  10.962   3.489  0.3818  0.3941  0.4616
  494MOL0     H65168   6.578  11.254   3.454 -1.1042 -0.9483  2.0045
  494MOL0     H65169   6.714  11.166   3.390 -0.8991  2.4009 -1.5886
  494MOL0     H65170   6.928  11.113   3.422  2.1571 -2.0026 -0.3876
  494MOL0     H65171   7.106  10.977   3.466  0.0457  0.7810  0.7399
  494MOL0     H65172   7.474  10.936   3.671  2.0224 -0.0228  2.2791
  494MOL0     H65173   7.686  10.847   3.700 -0.5183  0.5417 -0.3939
  494MOL0     H65174   7.868  10.670   3.821  0.5213 -0.9644  0.0528
  494MOL0     H65175   7.874  10.702   3.649  2.2170 -0.0408 -0.5383
  494MOL0     H65176   8.074  10.566   3.719 -0.6084  0.9409  3.3898
  494MOL0     H65177   7.961  10.467   3.626 -0.3944 -3.0091  0.4501
  494MOL0     H65178   7.876  10.370   3.838 -0.5490 -0.4851 -3.2277
  494MOL0     H65179   7.974  10.488   3.931 -2.3667 -0.9166  1.1010
  494MOL0     H65180   8.073  10.274   3.742 -2.1731  0.5409  0.5228
  494MOL0     H65181   8.192  10.373   3.823  1.6254 -4.1399 -0.3477
  494MOL0     H65182   8.168  10.147   3.930  0.8248  0.4906 -0.4817
  494MOL0     H65183   8.007  10.179   3.971  1.2446 -1.4141  1.2678
  494MOL0     H65184   8.105  10.397   4.089 -1.0525  1.1254 -1.8089
  494MOL0     H65185   8.262  10.310   4.072 -0.4920 -1.3437 -0.1244
  494MOL0     H65186   8.145  10.292   4.309 -0.9871 -1.4074  0.7863
  494MOL0     H65187   7.999  10.229   4.213 -0.2039 -3.3511  0.1677
  494MOL0     H65188   8.276  10.102   4.238  0.2175 -0.9120 -1.2616
  494MOL0     H65189   8.146  10.044   4.140  0.9306  1.2773 -1.8420
  494MOL0     H65190   7.526  10.447   3.689  0.1993  0.7691  4.7293
  494MOL0     H65191   7.289  10.563   3.671 -0.7421  1.6440  0.4573
  494MOL0     H65192   6.976  10.947   3.868  1.2306  0.4324 -0.3784
  494MOL0     H65193   6.797  11.087   3.821  3.1067  1.8233  1.9965
  494MOL0     H65194   5.137  10.699   2.479 -0.2042 -0.7984  1.7579
  494MOL0     H65195   4.941  10.717   2.333 -0.5175 -0.0864 -0.1348
  494MOL0     H65196   4.691  10.784   1.953  0.6136 -1.2647  0.6204
  494MOL0     H65197   4.483  10.730   1.850 -0.5744 -0.7186  0.3408
  494MOL0     H65198   4.124  10.857   2.069  1.2892 -0.6716  1.8326
  494MOL0     H65199   4.068  10.685   2.061  0.7329  1.0611  1.9775
  494MOL0     H65200   4.065  10.893   1.839  4.0334 -0.9352  1.0629
  494MOL0     H65201   4.035  10.719   1.808 -3.2541 -1.6659  1.0086
  494MOL0     H65202   3.865  10.832   2.031  0.7990 -2.8051  0.2811
  494MOL0     H65203   3.840  10.707   1.922  2.8799 -1.4508 -0.7737
  494MOL0     H65204   3.799  11.006   1.891 -1.9025 -0.1711  0.3747
  494MOL0     H65205   3.856  10.921   1.745  0.4987  1.6306 -0.6544
  494MOL0     H65206   3.486  10.745   1.735  1.4654 -0.7450 -2.7279
  494MOL0     H65207   4.275  10.812   2.211  0.0685  2.4918 -0.1042
  494MOL0     H65208   4.502  10.876   2.319 -0.2467  1.8941 -0.4807
  495MOL0     O65209   0.927  11.287   8.011 -0.2693 -0.5854 -0.0432
  495MOL0     C65210   0.900  11.409   8.018 -0.6657  0.7268  0.4047
  495MOL0     O65211   0.782  11.466   8.060  0.0942 -0.2250  0.2691
  495MOL0     C65212   0.674  11.389   8.066  1.6766  0.3905  0.3150
  495MOL0     C65213   0.620  11.367   8.191  0.2022  0.1298  0.4756
  495MOL0     C65214   0.506  11.296   8.212  0.6564 -0.4189 -0.1983
  495MOL0     C65215   0.451  11.235   8.103  0.8480  0.7629 -1.1710
  495MOL0     O65216   0.338  11.156   8.126 -0.0226 -0.1297  0.8058
  495MOL0     C65217   0.378  11.018   8.145 -0.5065 -0.3702  0.9631
  495MOL0     C65218   0.250  10.934   8.153  0.2291 -0.2029 -0.6609
  495MOL0     C65219   0.188  10.950   8.292 -0.3468  0.2640  0.6247
  495MOL0     C65220   0.063  10.880   8.322  0.9181 -0.3077 -0.3766
  495MOL0     C65221  -0.056  10.924   8.228  0.3934  0.7944  0.4178
  495MOL0     C65222  -0.177  10.827   8.216 -0.3935  0.2530  0.3155
  495MOL0     C65223  -0.242  10.784   8.349 -0.4952  0.0494  0.1660
  495MOL0     C65224  -0.353  10.879   8.391 -0.8644  0.4344  0.0050
  495MOL0     N65225  -0.438  10.817   8.497  0.2813  0.1173 -0.0505
  495MOL0     C65226  -0.562  10.772   8.481  0.0583 -0.2457  1.2740
  495MOL0     C65227  -0.606  10.723   8.595  0.7954 -0.8030  0.1547
  495MOL0     C65228  -0.736  10.655   8.622 -0.0893  0.5514 -0.0101
  495MOL0     C65229  -0.865  10.740   8.630 -0.5260  0.2435  0.3327
  495MOL0     C65230  -0.884  10.845   8.520 -0.5657 -0.4551  0.3381
  495MOL0     C65231  -1.030  10.892   8.514  0.1207  0.5260 -0.2697
  495MOL0     O65232  -1.099  10.784   8.440 -0.4174  0.2238  0.4711
  495MOL0     C65233  -1.236  10.806   8.431 -0.4270  1.0774  0.6717
  495MOL0     C65234  -1.306  10.706   8.364 -0.7222  0.3502  0.0764
  495MOL0     C65235  -1.450  10.704   8.360  0.2479 -0.6276 -0.9056
  495MOL0     C65236  -1.528  10.797   8.418  0.1228  0.5958  0.0947
  495MOL0     C65237  -1.675  10.782   8.433 -0.6486 -0.5638  0.3394
  495MOL0     O65238  -1.744  10.692   8.342 -0.7991 -0.2551  0.3555
  495MOL0     C65239  -1.881  10.674   8.352  1.2119  0.6547  0.1917
  495MOL0     C65240  -1.951  10.709   8.244 -0.2403 -0.1826  0.4839
  495MOL0     C65241  -2.084  10.693   8.237 -0.1816 -0.1497  0.3983
  495MOL0     C65242  -2.152  10.635   8.349 -0.0911 -0.1019  0.4305
  495MOL0     O65243  -2.294  10.628   8.336  0.0162 -0.9520 -0.2575
  495MOL0     C65244  -2.353  10.534   8.428 -0.4734  0.4629  0.1167
  495MOL0     C65245  -2.413  10.608   8.549 -0.0310 -0.4666  0.5781
  495MOL0     C65246  -2.553  10.554   8.556  0.0404 -0.0529  0.5286
  495MOL0     C65247  -2.627  10.604   8.681 -0.6194 -0.0655  0.6443
  495MOL0     C65248  -2.691  10.746   8.681  0.3150  0.2934 -0.7762
  495MOL0     C65249  -2.765  10.778   8.814 -0.4628  0.0550  1.1443
  495MOL0     C65250  -2.820  10.910   8.828 -0.1251 -0.8520 -0.1757
  495MOL0     C65251  -2.959  10.926   8.761  0.7413 -0.4217  0.2627
  495MOL0    Cl65252  -3.071  10.817   8.841  0.6502 -0.6546  0.0519
  495MOL0     C65253  -2.080  10.606   8.467 -0.5238  1.0123  0.0944
  495MOL0     C65254  -1.943  10.628   8.462  0.2322  0.9306  0.2111
  495MOL0     O65255  -1.733  10.846   8.518 -0.0025  0.1281 -0.3703
  495MOL0     C65256  -1.455  10.899   8.481  0.0582 -0.7742  0.2674
  495MOL0     C65257  -1.315  10.902   8.497 -0.0461  0.0480 -0.3327
  495MOL0     N65258  -0.514  10.760   8.692 -0.0690  0.6984  0.4087
  495MOL0     N65259  -0.402  10.796   8.623  1.0610  0.9958 -1.2773
  495MOL0     C65260   0.506  11.245   7.970  0.6508 -0.0190 -0.4899
  495MOL0     C65261   0.620  11.324   7.951  0.2939  0.3047 -0.9080
  495MOL0     C65262   1.004  11.511   7.977 -0.5041 -0.3126 -0.1814
  495MOL0     C65263   1.126  11.474   7.914  0.0497  0.1186  0.4262
  495MOL0     C65264   1.227  11.568   7.890 -0.5391 -0.5433  0.1575
  495MOL0     C65265   1.207  11.705   7.917  0.0042  0.6885 -0.5284
  495MOL0     O65266   1.303  11.795   7.876  0.7527  0.6733  0.2543
  495MOL0     C65267   1.262  11.917   7.815 -0.0069 -0.1476 -0.4526
  495MOL0     C65268   1.311  11.930   7.668 -0.2263  1.1884 -0.3288
  495MOL0     C65269   1.248  11.815   7.580 -0.4560  0.8072 -0.3123
  495MOL0     C65270   1.262  11.848   7.439  0.2380 -0.3434  0.0102
  495MOL0     C65271   1.209  11.732   7.361  0.2836  0.2056 -0.5872
  495MOL0     C65272   1.162  11.644   7.285 -0.4302  0.3230 -0.1687
  495MOL0     C65273   1.077  11.744   7.967 -0.7552 -0.7535 -0.2731
  495MOL0     C65274   0.979  11.649   8.001 -0.0260  0.5139 -0.4340
  495MOL0     H65275   0.669  11.409   8.279  1.2369  2.1215 -0.9848
  495MOL0     H65276   0.460  11.281   8.309  3.3161 -1.6089  0.9890
  495MOL0     H65277   0.435  11.013   8.239  0.2904 -2.9398  0.4262
  495MOL0     H65278   0.445  10.995   8.062  1.9079  2.3038  2.0095
  495MOL0     H65279   0.278  10.830   8.134 -0.0769 -0.1128 -1.6275
  495MOL0     H65280   0.184  10.959   8.071  0.1552  0.2315 -0.4723
  495MOL0     H65281   0.164  11.055   8.307  1.0380  0.6759  0.0876
  495MOL0     H65282   0.261  10.925   8.371  0.9119  2.3905  0.2113
  495MOL0     H65283   0.083  10.774   8.307 -0.2967 -0.6068  0.0112
  495MOL0     H65284   0.042  10.891   8.429  2.4240  3.3450 -0.2921
  495MOL0     H65285  -0.018  10.958   8.131  0.3028 -1.6184 -0.5574
  495MOL0     H65286  -0.098  11.014   8.273  1.8571  2.4343 -1.3375
  495MOL0     H65287  -0.138  10.738   8.164  1.5825 -0.7551  3.1895
  495MOL0     H65288  -0.250  10.865   8.145 -1.8559 -0.2316  1.5184
  495MOL0     H65289  -0.279  10.681   8.353  0.3413 -0.4376 -2.4173
  495MOL0     H65290  -0.164  10.793   8.426 -0.9817 -0.5607  0.7408
  495MOL0     H65291  -0.413  10.902   8.303 -0.8497  4.2045  0.7767
  495MOL0     H65292  -0.319  10.977   8.428 -2.2896  0.6861  0.6956
  495MOL0     H65293  -0.627  10.769   8.394 -0.6327  0.7185  1.7464
  495MOL0     H65294  -0.730  10.587   8.708 -0.0626 -0.8163 -1.0509
  495MOL0     H65295  -0.751  10.603   8.526 -3.3916  1.7165 -0.2462
  495MOL0     H65296  -0.858  10.801   8.721  0.3641  2.9207 -1.4174
  495MOL0     H65297  -0.950  10.671   8.634  0.4448 -0.9421  1.4156
  495MOL0     H65298  -0.815  10.928   8.539 -1.2934  0.4933 -0.9417
  495MOL0     H65299  -0.853  10.799   8.425  0.0099  0.7902 -0.1083
  495MOL0     H65300  -1.039  10.991   8.469  0.1153  1.2301  1.2224
  495MOL0     H65301  -1.068  10.903   8.616  2.8833 -3.0715  1.3958
  495MOL0     H65302  -1.250  10.639   8.300  0.9753  3.1997 -1.6805
  495MOL0     H65303  -1.491  10.625   8.298 -1.8511 -0.2496 -0.0634
  495MOL0     H65304  -1.896  10.743   8.156 -1.8613 -2.9370 -1.7622
  495MOL0     H65305  -2.137  10.743   8.157  1.7579 -0.5746 -1.2453
  495MOL0     H65306  -2.281  10.456   8.456  3.3447  2.8054 -2.2039
  495MOL0     H65307  -2.432  10.484   8.371 -0.8217 -1.9171  2.5280
  495MOL0     H65308  -2.418  10.717   8.542  2.0896 -0.2945  1.1683
  495MOL0     H65309  -2.360  10.571   8.637  1.7081  0.0103 -0.2180
  495MOL0     H65310  -2.547  10.444   8.553  0.2369 -0.0222 -1.6123
  495MOL0     H65311  -2.610  10.579   8.466  3.3728 -0.2089 -1.7924
  495MOL0     H65312  -2.710  10.535   8.697 -1.0075  0.4508  0.8897
  495MOL0     H65313  -2.553  10.588   8.760 -0.8124 -1.1826  0.6076
  495MOL0     H65314  -2.757  10.747   8.594 -1.9413  3.7203  0.7962
  495MOL0     H65315  -2.610  10.819   8.675  1.8430 -1.3530 -1.4134
  495MOL0     H65316  -2.690  10.765   8.893  2.1977 -0.0812 -1.2087
  495MOL0     H65317  -2.838  10.697   8.821  1.8381 -2.1604  1.2612
  495MOL0     H65318  -2.825  10.938   8.934 -0.0103  0.4681 -0.5025
  495MOL0     H65319  -2.751  10.978   8.777 -0.0955 -1.2794 -0.7145
  495MOL0     H65320  -2.961  10.893   8.657 -1.2408  3.0102 -0.9483
  495MOL0     H65321  -2.998  11.026   8.785  3.0388  1.7232 -3.9179
  495MOL0     H65322  -2.107  10.585   8.569  0.4522 -0.2651  0.1205
  495MOL0     H65323  -1.871  10.604   8.540  0.3330 -1.3562 -0.5172
  495MOL0     H65324  -1.495  10.987   8.531 -0.0507 -0.4590 -0.3661
  495MOL0     H65325  -1.261  10.962   8.570 -1.3496  1.0627 -0.1798
  495MOL0     H65326   0.450  11.175   7.910 -2.3518 -0.7145  2.7872
  495MOL0     H65327   0.660  11.336   7.851 -1.4856  0.8495 -1.5900
  495MOL0     H65328   1.141  11.371   7.882 -0.9522 -0.1681  0.8318
  495MOL0     H65329   1.323  11.538   7.849 -0.5146  1.9048 -1.8104
  495MOL0     H65330   1.313  11.994   7.874  1.7216 -3.2000  2.3591
  495MOL0     H65331   1.154  11.933   7.810 -0.0197 -0.4134 -1.1027
  495MOL0     H65332   1.298  12.030   7.626 -0.4418  0.7626 -1.3001
  495MOL0     H65333   1.420  11.923   7.679 -0.3717 -0.0322  0.4888
  495MOL0     H65334   1.143  11.795   7.602  0.1381 -3.7689 -0.8427
  495MOL0     H65335   1.304  11.723   7.599  2.0266  1.7492 -2.3911
  495MOL0     H65336   1.204  11.935   7.406  1.1974  0.1672 -0.3522
  495MOL0     H65337   1.370  11.855   7.427  0.0117  4.2416 -1.3990
  495MOL0     H65338   1.115  11.561   7.235 -2.7003  0.4875  1.5377
  495MOL0     H65339   1.070  11.850   7.988 -0.3255 -0.4904 -1.3645
  495MOL0     H65340   0.885  11.681   8.043 -1.2418 -3.6247  0.4208
  496MOL0     O65341   4.052  11.060   3.628 -0.0676  0.0282  0.4597
  496MOL0     C65342   4.090  11.120   3.726  0.2473  0.4034 -0.2125
  496MOL0     O65343   4.104  11.069   3.855  0.3324  0.0954  0.0377
  496MOL0     C65344   4.070  10.933   3.877  0.5793 -0.4910  0.2845
  496MOL0     C65345   3.950  10.874   3.833 -0.2597  0.3186 -0.3404
  496MOL0     C65346   3.922  10.750   3.886  0.0346  0.1809  0.0107
  496MOL0     C65347   4.002  10.683   3.973 -0.6512  0.3075  0.5357
  496MOL0     O65348   3.980  10.556   4.016 -0.3925  0.2410 -0.8998
  496MOL0     C65349   3.842  10.524   4.052 -0.1577  0.8119  0.0639
  496MOL0     C65350   3.749  10.474   3.938  0.4712 -0.1549 -0.9973
  496MOL0     C65351   3.603  10.433   3.980 -0.0198  0.2502  0.0673
  496MOL0     C65352   3.553  10.536   4.078 -0.5037 -0.3157 -0.0709
  496MOL0     C65353   3.404  10.522   4.107 -0.3161 -0.3146  0.7733
  496MOL0     C65354   3.363  10.586   4.235 -0.1056  0.3803 -0.1495
  496MOL0     C65355   3.210  10.603   4.237 -0.2003 -0.1653  0.7020
  496MOL0     C65356   3.186  10.686   4.359  0.4420  0.2999  0.1000
  496MOL0     N65357   3.046  10.708   4.396  0.1909 -0.7453  0.4048
  496MOL0     C65358   2.972  10.608   4.452  0.6568  0.3863 -0.8890
  496MOL0     C65359   2.866  10.671   4.506 -0.1658  0.5752 -0.4956
  496MOL0     C65360   2.756  10.612   4.592  0.5028  0.3092 -0.7027
  496MOL0     C65361   2.658  10.707   4.662 -0.1426 -0.9260  0.5241
  496MOL0     C65362   2.561  10.646   4.760  0.4465 -0.0548 -0.1081
  496MOL0     C65363   2.463  10.752   4.830 -0.2792 -0.0951  0.8880
  496MOL0     O65364   2.383  10.683   4.924  1.1799  0.2276 -0.1873
  496MOL0     C65365   2.249  10.726   4.926 -0.1899 -0.0952 -0.2678
  496MOL0     C65366   2.164  10.634   4.992  0.9395 -0.5087 -0.2888
  496MOL0     C65367   2.024  10.662   5.005 -0.1833 -0.3729 -0.0691
  496MOL0     C65368   1.976  10.779   4.956  0.0899 -0.0518  0.9058
  496MOL0     C65369   1.836  10.816   4.972 -0.1343 -0.0344 -0.3262
  496MOL0     O65370   1.757  10.708   5.020  0.7234  0.1216  0.2069
  496MOL0     C65371   1.624  10.711   5.046 -0.1196 -0.0470 -0.8611
  496MOL0     C65372   1.525  10.788   4.973 -0.0553 -0.1826  0.0706
  496MOL0     C65373   1.393  10.750   4.975 -0.4102  0.3331 -0.4333
  496MOL0     C65374   1.348  10.654   5.080  0.1422  0.7411 -1.1319
  496MOL0     O65375   1.215  10.620   5.069  0.5738  0.1845  0.3121
  496MOL0     C65376   1.165  10.553   5.189  0.2077 -0.1139  0.3229
  496MOL0     C65377   1.005  10.544   5.178  0.0861  0.6350  0.6606
  496MOL0     C65378   0.957  10.441   5.070  0.4649 -0.3980  0.2762
  496MOL0     C65379   0.807  10.414   5.095  0.0080 -0.7415  0.5687
  496MOL0     C65380   0.718  10.544   5.101 -0.7806 -0.3122  0.2741
  496MOL0     C65381   0.575  10.493   5.110  1.0073 -0.0620  0.0879
  496MOL0     C65382   0.504  10.428   4.989  0.1744  0.0780 -0.4818
  496MOL0     C65383   0.525  10.505   4.859 -0.7208 -0.8428  0.1038
  496MOL0    Cl65384   0.428  10.655   4.884  0.0545  0.1811  0.0652
  496MOL0     C65385   1.441  10.606   5.174  0.3553 -0.5908 -0.1763
  496MOL0     C65386   1.573  10.629   5.154 -0.6945 -0.1453 -0.3087
  496MOL0     O65387   1.789  10.933   4.953 -0.2268 -0.2963  0.5744
  496MOL0     C65388   2.064  10.871   4.891 -0.3815 -0.6683  0.6802
  496MOL0     C65389   2.198  10.846   4.882 -0.1939 -0.0697 -0.0754
  496MOL0     N65390   2.884  10.811   4.492  0.1472  0.7963 -0.1582
  496MOL0     N65391   2.994  10.827   4.429  0.1054  0.1581 -0.1521
  496MOL0     C65392   4.125  10.740   4.014  0.0024 -0.4078  0.4092
  496MOL0     C65393   4.157  10.876   3.966 -0.6003 -0.9362 -0.9040
  496MOL0     C65394   4.149  11.251   3.696  0.2233 -0.5375 -0.4912
  496MOL0     C65395   4.133  11.321   3.571 -0.2641  0.0862 -0.8089
  496MOL0     C65396   4.179  11.450   3.569  0.8379 -1.2758 -0.0019
  496MOL0     C65397   4.250  11.514   3.671  0.5343 -0.9776  0.2550
  496MOL0     O65398   4.265  11.647   3.639  0.2166  0.2699 -0.0917
  496MOL0     C65399   4.351  11.732   3.724  0.5197  0.5993 -0.4052
  496MOL0     C65400   4.444  11.829   3.637  0.5301  0.6114  0.7299
  496MOL0     C65401   4.367  11.884   3.511  0.2779 -0.6467  0.0047
  496MOL0     C65402   4.238  11.956   3.553  0.0985  0.3598 -0.1636
  496MOL0     C65403   4.181  12.016   3.437 -0.2621  0.5471 -0.3596
  496MOL0     C65404   4.123  12.057   3.337  0.6416  0.4599 -0.3110
  496MOL0     C65405   4.265  11.459   3.792 -0.1865 -0.5999 -0.8123
  496MOL0     C65406   4.214  11.322   3.799  0.0084 -0.4054 -0.3696
  496MOL0     H65407   3.870  10.921   3.777 -1.8541 -1.4453  0.3550
  496MOL0     H65408   3.825  10.714   3.852  0.3446  0.5351 -1.3136
  496MOL0     H65409   3.807  10.611   4.109 -0.2367  0.4009  0.6599
  496MOL0     H65410   3.847  10.444   4.126 -1.5680  0.6431  0.0047
  496MOL0     H65411   3.800  10.388   3.894  2.9387  0.6201  0.1401
  496MOL0     H65412   3.734  10.544   3.855  0.5914  0.0216 -0.8708
  496MOL0     H65413   3.599  10.333   4.023 -0.7178 -0.2332 -1.0784
  496MOL0     H65414   3.535  10.434   3.895  0.5993  0.3473 -0.4296
  496MOL0     H65415   3.599  10.535   4.177 -1.4461  3.1526  0.5393
  496MOL0     H65416   3.580  10.638   4.047 -1.3200  0.0594  0.4029
  496MOL0     H65417   3.382  10.415   4.116 -0.6885 -0.2866  0.2540
  496MOL0     H65418   3.353  10.571   4.023 -0.0262 -0.2640  0.6249
  496MOL0     H65419   3.409  10.685   4.244  2.8883 -0.5677 -3.2351
  496MOL0     H65420   3.396  10.520   4.316  1.5171 -0.0959 -1.1516
  496MOL0     H65421   3.173  10.637   4.140 -0.3261 -4.2366 -0.8939
  496MOL0     H65422   3.169  10.504   4.259  2.8745 -1.6715  0.2792
  496MOL0     H65423   3.220  10.788   4.337  0.4353 -0.1755 -2.4222
  496MOL0     H65424   3.236  10.647   4.448 -1.5046  0.5465  1.3751
  496MOL0     H65425   2.990  10.501   4.454 -0.4823  0.1893 -0.3462
  496MOL0     H65426   2.804  10.547   4.667 -0.9252  0.4059  0.3193
  496MOL0     H65427   2.692  10.557   4.523  0.8426 -2.4079  0.9750
  496MOL0     H65428   2.605  10.750   4.577  2.2020  2.1941  0.4664
  496MOL0     H65429   2.721  10.785   4.706  0.8914 -1.3968 -0.0829
  496MOL0     H65430   2.508  10.558   4.722  1.5427 -0.5792 -0.4582
  496MOL0     H65431   2.618  10.594   4.837  0.3175 -2.4409 -1.5358
  496MOL0     H65432   2.402  10.797   4.751  2.6294  1.8913 -0.4353
  496MOL0     H65433   2.517  10.834   4.879  1.2719 -0.8826  0.5753
  496MOL0     H65434   2.199  10.536   5.022 -2.4635 -2.7159 -2.7280
  496MOL0     H65435   1.960  10.576   5.020  0.5403 -1.4568 -2.6601
  496MOL0     H65436   1.550  10.855   4.891 -0.9135 -0.6895 -0.6340
  496MOL0     H65437   1.316  10.795   4.913 -0.1943 -0.4880 -1.3233
  496MOL0     H65438   1.185  10.617   5.275 -0.8433  2.3718 -1.1716
  496MOL0     H65439   1.207  10.452   5.184 -4.4227 -2.2328 -1.3722
  496MOL0     H65440   0.974  10.644   5.146  1.1779  0.0624 -2.5470
  496MOL0     H65441   0.959  10.525   5.275 -2.8390  2.1521 -0.2850
  496MOL0     H65442   1.017  10.349   5.076  3.1616  1.3332  1.7854
  496MOL0     H65443   0.985  10.487   4.975  1.8620 -0.8499  0.4400
  496MOL0     H65444   0.787  10.371   4.996  1.7298  2.7212 -1.4759
  496MOL0     H65445   0.789  10.341   5.175 -0.4460 -1.1972  0.0651
  496MOL0     H65446   0.737  10.621   5.026 -0.4039 -1.1491 -0.5136
  496MOL0     H65447   0.739  10.591   5.198  0.2194  0.8140 -0.4568
  496MOL0     H65448   0.511  10.577   5.138  0.8741 -0.3103  0.5387
  496MOL0     H65449   0.569  10.427   5.197 -1.7479  1.8421  1.4687
  496MOL0     H65450   0.543  10.326   4.977 -0.8277 -0.2646 -0.8782
  496MOL0     H65451   0.396  10.420   5.000 -0.1705  2.0863 -1.8261
  496MOL0     H65452   0.474  10.435   4.792 -3.4659  1.4435 -0.3827
  496MOL0     H65453   0.628  10.533   4.833 -2.0779  3.3657 -1.4121
  496MOL0     H65454   1.409  10.554   5.264  2.2188 -0.5567  0.5543
  496MOL0     H65455   1.641  10.590   5.229  2.4775  3.4611 -1.0408
  496MOL0     H65456   2.030  10.971   4.864  1.7260  0.6203  2.4067
  496MOL0     H65457   2.257  10.929   4.847  2.3381 -0.9068  1.9007
  496MOL0     H65458   4.201  10.692   4.075  0.1761 -0.0227  0.4959
  496MOL0     H65459   4.249  10.929   3.988 -0.6321 -1.4330  0.5512
  496MOL0     H65460   4.090  11.268   3.486 -4.7227  0.8877  0.7163
  496MOL0     H65461   4.160  11.509   3.480 -1.9446 -1.0382  0.6493
  496MOL0     H65462   4.412  11.675   3.795 -3.2383 -2.1516  0.9656
  496MOL0     H65463   4.276  11.787   3.781 -2.2293 -2.0593 -1.1984
  496MOL0     H65464   4.472  11.907   3.708  0.1718  0.6074  0.8762
  496MOL0     H65465   4.536  11.779   3.604 -1.1395 -1.2768 -1.3708
  496MOL0     H65466   4.353  11.803   3.439  1.0606 -0.6169 -0.1794
  496MOL0     H65467   4.428  11.950   3.449 -0.5190 -1.0473 -1.2571
  496MOL0     H65468   4.162  11.889   3.595  0.5767  0.0960  0.2890
  496MOL0     H65469   4.264  12.034   3.624 -0.3796  0.0196  0.3948
  496MOL0     H65470   4.065  12.096   3.256 -2.0410  4.5222  3.1220
  496MOL0     H65471   4.311  11.512   3.874 -1.4280  0.9246 -1.0386
  496MOL0     H65472   4.228  11.271   3.894  1.2424  1.3139  0.4017
  497MOL0     O65473   6.691   7.083  10.089 -0.8106 -0.6508 -0.0131
  497MOL0     C65474   6.652   7.197  10.127  0.4581  0.1305  0.2065
  497MOL0     O65475   6.705   7.259  10.232 -0.2792 -0.2260  0.1096
  497MOL0     C65476   6.794   7.187  10.313 -0.0214 -0.7887  0.0485
  497MOL0     C65477   6.919   7.165  10.272 -0.0160  0.2585 -0.0558
  497MOL0     C65478   6.993   7.077  10.350  1.6144 -0.2782  0.1780
  497MOL0     C65479   6.946   7.012  10.467 -0.3980 -1.5196  0.4170
  497MOL0     O65480   7.030   6.941  10.546 -0.2344 -1.0528 -0.0225
  497MOL0     C65481   6.988   6.867  10.672 -0.2167 -0.4368  0.2235
  497MOL0     C65482   7.116   6.863  10.742 -0.4095 -0.1102 -0.2681
  497MOL0     C65483   7.144   6.999  10.803 -0.1845 -0.4759 -0.7784
  497MOL0     C65484   7.260   6.991  10.905  0.1699 -0.7146  0.1913
  497MOL0     C65485   7.404   6.962  10.854 -0.6685 -0.5657  1.3217
  497MOL0     C65486   7.474   7.084  10.786  0.1456  0.4717  1.1547
  497MOL0     C65487   7.425   7.112  10.638  0.8442  0.2055 -0.3910
  497MOL0     C65488   7.539   7.134  10.534  0.3511 -0.5573 -0.2553
  497MOL0     N65489   7.485   7.139  10.396 -0.1902  0.1090  0.0232
  497MOL0     C65490   7.463   7.031  10.311 -0.0978  0.5703  0.5764
  497MOL0     C65491   7.412   7.070  10.194  0.3490 -0.1346 -0.0884
  497MOL0     C65492   7.372   6.987  10.077  0.2167  0.2778 -0.0542
  497MOL0     C65493   7.257   7.053   9.997 -0.3867  0.2905  0.5021
  497MOL0     C65494   7.210   6.970   9.872 -0.0135  0.3642  0.6519
  497MOL0     C65495   7.082   7.037   9.816  0.5929  0.2759  0.4490
  497MOL0     O65496   7.051   6.974   9.682 -0.6953 -0.8543 -0.2327
  497MOL0     C65497   6.916   6.953   9.668  1.6353 -0.1828  0.5862
  497MOL0     C65498   6.888   6.849   9.575  0.2386  0.0619 -0.6363
  497MOL0     C65499   6.759   6.824   9.522 -0.4156 -0.1330 -0.4852
  497MOL0     C65500   6.650   6.902   9.572 -0.5451  0.2712  0.6894
  497MOL0     C65501   6.516   6.862   9.515  0.7018  0.1572  0.1576
  497MOL0     O65502   6.407   6.939   9.560 -0.0622 -0.2894 -0.0851
  497MOL0     C65503   6.287   6.955   9.488 -0.2586  0.3295  0.4575
  497MOL0     C65504   6.181   7.000   9.562 -0.6048 -0.0298  0.2872
  497MOL0     C65505   6.049   7.001   9.512  0.0688  0.1780 -0.2988
  497MOL0     C65506   6.031   6.975   9.380  0.1522 -0.1208 -0.3948
  497MOL0     O65507   5.911   6.959   9.312 -0.1754 -0.2192  0.6321
  497MOL0     C65508   5.797   7.001   9.380  0.3732 -0.2994 -0.5518
  497MOL0     C65509   5.668   6.981   9.297 -0.9757 -0.0649  0.0316
  497MOL0     C65510   5.538   6.989   9.372 -0.0660  0.7291 -0.0559
  497MOL0     C65511   5.494   7.126   9.411 -0.3461  1.0015  0.6226
  497MOL0     C65512   5.359   7.126   9.493  0.4769 -0.2067 -0.2224
  497MOL0     C65513   5.229   7.069   9.419 -0.3842  0.0286 -0.3969
  497MOL0     C65514   5.116   7.086   9.513  0.4034  0.5190  0.2993
  497MOL0     C65515   4.978   7.073   9.465 -0.0845 -0.7124  0.3000
  497MOL0    Cl65516   4.965   6.909   9.376 -0.3877  0.2603 -0.2603
  497MOL0     C65517   6.140   6.939   9.308 -0.1275  0.3155 -0.1233
  497MOL0     C65518   6.266   6.924   9.357  0.1725 -0.2117 -0.1315
  497MOL0     O65519   6.515   6.769   9.432  0.0752  0.0680  0.1828
  497MOL0     C65520   6.680   7.000   9.672  0.7283 -0.3202  0.4341
  497MOL0     C65521   6.811   7.031   9.717  1.0651  0.5673  0.1954
  497MOL0     N65522   7.386   7.208  10.217  0.0694 -0.4414 -1.1904
  497MOL0     N65523   7.427   7.241  10.332 -0.4852  0.4888  0.3703
  497MOL0     C65524   6.819   7.045  10.509  0.6072  0.3206 -1.1365
  497MOL0     C65525   6.742   7.133  10.433 -0.8134  0.1711  0.3300
  497MOL0     C65526   6.536   7.255  10.050 -0.3712 -0.1331 -0.4239
  497MOL0     C65527   6.461   7.173   9.962 -0.0084 -0.3278  0.9053
  497MOL0     C65528   6.355   7.229   9.888  0.5166  0.4659  0.2743
  497MOL0     C65529   6.312   7.361   9.908  0.6709  0.5360 -0.3536
  497MOL0     O65530   6.210   7.424   9.849  0.0788  0.5056  0.6565
  497MOL0     C65531   6.127   7.368   9.745 -0.6470 -0.5047  0.0850
  497MOL0     C65532   6.024   7.462   9.697 -0.2116 -0.5491 -0.9922
  497MOL0     C65533   5.925   7.493   9.808 -0.2553 -0.5520 -0.2270
  497MOL0     C65534   5.820   7.601   9.765  0.7547  0.3398  0.6319
  497MOL0     C65535   5.788   7.712   9.865 -1.5007 -0.4779  0.2697
  497MOL0     C65536   5.786   7.784   9.964  0.7215 -0.3231 -0.6194
  497MOL0     C65537   6.390   7.435   9.998  1.3969  0.9383 -0.1173
  497MOL0     C65538   6.500   7.382  10.068 -0.9354 -0.4176  0.3619
  497MOL0     H65539   6.955   7.201  10.177 -0.5008 -0.1221 -0.3911
  497MOL0     H65540   7.095   7.059  10.317  1.5556  1.8216 -1.3736
  497MOL0     H65541   6.958   6.764  10.650  1.3125 -0.8136 -0.2651
  497MOL0     H65542   6.914   6.926  10.725  1.6619  3.4476 -1.0903
  497MOL0     H65543   7.198   6.825  10.681 -0.8967 -1.9413  0.1573
  497MOL0     H65544   7.098   6.788  10.819 -1.1440 -0.9664 -1.2427
  497MOL0     H65545   7.061   7.043  10.860  1.2049 -0.3619  1.3006
  497MOL0     H65546   7.187   7.068  10.729  1.6399 -0.3907  0.2913
  497MOL0     H65547   7.262   7.085  10.961 -0.8261 -0.3090 -0.4134
  497MOL0     H65548   7.248   6.919  10.986  1.8880  0.5314  1.6090
  497MOL0     H65549   7.406   6.876  10.788 -1.5101  1.8388 -2.1176
  497MOL0     H65550   7.478   6.942  10.932  1.0103  4.2005  1.3234
  497MOL0     H65551   7.571   7.037  10.768  1.4125  3.1090  0.6658
  497MOL0     H65552   7.490   7.175  10.843 -4.1868  3.3466 -1.6575
  497MOL0     H65553   7.367   7.028  10.598 -1.0832 -0.2495  2.9617
  497MOL0     H65554   7.348   7.189  10.643 -2.9463 -3.3043  1.1766
  497MOL0     H65555   7.599   7.043  10.546  0.9038  0.0543  1.8787
  497MOL0     H65556   7.588   7.231  10.548 -0.4387 -0.0939 -0.6428
  497MOL0     H65557   7.489   6.929  10.334 -2.7017 -0.6184 -1.2155
  497MOL0     H65558   7.338   6.885  10.097  2.8977 -0.9312 -1.1230
  497MOL0     H65559   7.460   6.979  10.011 -1.0614  2.1317 -2.1493
  497MOL0     H65560   7.276   7.156   9.966  2.1111 -0.3847 -0.5110
  497MOL0     H65561   7.175   7.048  10.069 -1.0785 -2.1640 -0.3491
  497MOL0     H65562   7.288   6.966   9.795  0.1028 -0.5736  0.8030
  497MOL0     H65563   7.183   6.868   9.902  0.5540 -0.4213 -1.3694
  497MOL0     H65564   7.080   7.146   9.812  2.7949  0.4435  2.3983
  497MOL0     H65565   7.010   7.006   9.892 -0.1014  1.8015  0.4458
  497MOL0     H65566   6.968   6.801   9.520  0.9321 -0.0033  0.4074
  497MOL0     H65567   6.757   6.749   9.443  0.4403 -0.1039 -0.5408
  497MOL0     H65568   6.200   7.017   9.668  0.4691 -0.9214  0.2574
  497MOL0     H65569   5.975   7.021   9.589  1.8364  2.2500  0.9974
  497MOL0     H65570   5.806   7.108   9.402 -0.9998 -0.4032  0.6755
  497MOL0     H65571   5.789   6.946   9.474 -2.6389 -0.9160 -1.0657
  497MOL0     H65572   5.660   6.876   9.266 -1.6874 -0.0374  0.1132
  497MOL0     H65573   5.673   7.047   9.210 -0.9455  0.5587  0.5040
  497MOL0     H65574   5.552   6.939   9.468  1.9726  0.4556 -0.4475
  497MOL0     H65575   5.454   6.946   9.317 -1.1982 -0.8565  2.7168
  497MOL0     H65576   5.569   7.178   9.471 -2.2989  0.7980  3.4243
  497MOL0     H65577   5.476   7.183   9.319 -0.8810 -3.0234 -2.0552
  497MOL0     H65578   5.345   7.231   9.520 -1.2550 -0.0704 -1.4589
  497MOL0     H65579   5.379   7.073   9.587 -0.1745  0.3807  0.2571
  497MOL0     H65580   5.248   6.963   9.401 -1.4361 -0.3624  0.6943
  497MOL0     H65581   5.218   7.130   9.329  1.0213  0.4155 -0.3213
  497MOL0     H65582   5.123   7.011   9.592  1.3211 -1.9996 -2.0069
  497MOL0     H65583   5.120   7.187   9.554 -1.7014  1.5990 -1.8389
  497MOL0     H65584   4.949   7.156   9.400 -3.3734 -0.3220  2.0194
  497MOL0     H65585   4.908   7.082   9.549  0.8851 -0.8581  1.1523
  497MOL0     H65586   6.124   6.917   9.203 -0.0085  5.8105 -1.5805
  497MOL0     H65587   6.351   6.895   9.296  0.2612  0.7344 -0.4731
  497MOL0     H65588   6.595   7.056   9.708 -0.2818  0.5900 -3.0134
  497MOL0     H65589   6.827   7.107   9.793 -0.7731  0.0424  1.1610
  497MOL0     H65590   6.770   7.023  10.603  3.6356  2.8331  1.2300
  497MOL0     H65591   6.642   7.164  10.459 -1.1927  1.5017 -2.3685
  497MOL0     H65592   6.481   7.068   9.946 -0.5600  0.1315 -4.2924
  497MOL0     H65593   6.304   7.161   9.821 -0.6734  1.2758  0.3296
  497MOL0     H65594   6.076   7.281   9.787  1.2466 -0.9210  1.6886
  497MOL0     H65595   6.191   7.331   9.664  2.0603  0.1539  1.7844
  497MOL0     H65596   6.060   7.554   9.649 -5.6328  2.5805  0.1404
  497MOL0     H65597   5.962   7.418   9.618 -1.9901 -2.0725  1.1349
  497MOL0     H65598   5.977   7.523   9.900  1.2667 -0.0985 -1.2087
  497MOL0     H65599   5.868   7.402   9.833 -0.2763 -0.7844 -1.0963
  497MOL0     H65600   5.837   7.655   9.672  0.6281  1.2083  1.0999
  497MOL0     H65601   5.726   7.551   9.740  0.5005 -0.9022  3.6787
  497MOL0     H65602   5.766   7.848  10.048 -1.7782 -0.8188 -0.7700
  497MOL0     H65603   6.347   7.526  10.038  1.7905  0.7956  0.6507
  497MOL0     H65604   6.543   7.457  10.134 -1.0788  2.6151 -2.7425
  498MOL0     O65605   8.192   1.085   0.188  0.3370  0.0178 -0.4048
  498MOL0     C65606   8.155   0.992   0.115  0.4715 -0.3376  0.5224
  498MOL0     O65607   8.030   0.932   0.131  0.0001  0.9287  0.3562
  498MOL0     C65608   7.952   0.947   0.243  0.5723 -0.4526  0.5634
  498MOL0     C65609   7.814   0.965   0.234  0.9728 -0.1696 -0.2108
  498MOL0     C65610   7.734   0.982   0.343 -0.3176 -0.9123  0.2195
  498MOL0     C65611   7.786   0.980   0.471  0.4662  0.2865  0.7179
  498MOL0     O65612   7.698   0.989   0.580 -0.3657 -0.2312  0.1297
  498MOL0     C65613   7.728   1.081   0.692  0.9160 -0.1501  0.6349
  498MOL0     C65614   7.601   1.123   0.761  0.3409 -0.6503 -0.2382
  498MOL0     C65615   7.502   1.206   0.673  0.3240 -0.0859 -0.0384
  498MOL0     C65616   7.385   1.249   0.759 -0.1802 -0.7404 -0.3975
  498MOL0     C65617   7.280   1.324   0.683  0.1853  0.0440 -0.0076
  498MOL0     C65618   7.179   1.369   0.777 -0.0818 -0.2500  0.5844
  498MOL0     C65619   7.064   1.436   0.697 -0.5859 -0.8041  0.0920
  498MOL0     C65620   7.090   1.578   0.642 -1.5146 -0.1154 -0.1616
  498MOL0     N65621   6.973   1.656   0.626  0.1348  0.1376 -0.4338
  498MOL0     C65622   6.874   1.624   0.530 -0.9549  0.6205  0.0424
  498MOL0     C65623   6.773   1.707   0.551  0.0762 -0.6092  1.0416
  498MOL0     C65624   6.646   1.752   0.469  0.0170 -0.2942 -1.1790
  498MOL0     C65625   6.678   1.785   0.325  0.1475 -0.3969 -0.7277
  498MOL0     C65626   6.553   1.799   0.241 -0.3771  0.4891  0.6150
  498MOL0     C65627   6.569   1.865   0.106  0.3119  0.3591  0.4664
  498MOL0     O65628   6.541   2.005   0.120  0.2372  0.1433 -0.0771
  498MOL0     C65629   6.409   2.055   0.126  0.1745  0.3875 -0.7179
  498MOL0     C65630   6.397   2.194   0.105 -0.5936  0.9749 -0.3694
  498MOL0     C65631   6.278   2.252   0.097  1.2111  0.0453 -0.0078
  498MOL0     C65632   6.156   2.174   0.095  0.1841 -0.2158  0.5098
  498MOL0     C65633   6.029   2.250   0.090  0.4734  0.2312  0.2065
  498MOL0     O65634   6.025   2.380   0.127 -0.4824 -0.2532  0.0661
  498MOL0     C65635   5.905   2.454   0.110 -0.0664  0.1510  0.2235
  498MOL0     C65636   5.776   2.423   0.167 -0.0671  1.1148 -0.4441
  498MOL0     C65637   5.671   2.505   0.143  0.2999  0.5598  0.3610
  498MOL0     C65638   5.680   2.622   0.073 -1.2461  0.8395 -0.8746
  498MOL0     O65639   5.570   2.694   0.033  0.6996  0.0041 -0.1860
  498MOL0     C65640   5.573   2.819   0.102 -0.4498  0.1774  0.2292
  498MOL0     C65641   5.505   2.805   0.239  0.6395 -0.0914  0.0679
  498MOL0     C65642   5.415   2.926   0.257  0.6199  0.0014  0.5501
  498MOL0     C65643   5.320   2.900   0.372  0.2146  0.4743 -0.2525
  498MOL0     C65644   5.245   3.027   0.437 -0.2807  0.6144 -0.2646
  498MOL0     C65645   5.181   3.116   0.330 -0.4148  1.9119  0.0616
  498MOL0     C65646   5.088   3.216   0.388 -0.3822  0.8915 -0.2240
  498MOL0     C65647   5.086   3.346   0.314 -0.0261 -0.7649 -0.3028
  498MOL0    Cl65648   5.011   3.334   0.147  0.1018  0.3044  0.0796
  498MOL0     C65649   5.807   2.654   0.018  0.1432  0.7188  0.0946
  498MOL0     C65650   5.912   2.574   0.037  0.1882  0.0721  0.9463
  498MOL0     O65651   5.925   2.194   0.050 -0.2380  0.0362 -0.9647
  498MOL0     C65652   6.160   2.037   0.114  0.5535  0.1441  0.8527
  498MOL0     C65653   6.284   1.975   0.132 -1.0040 -0.1737  0.0260
  498MOL0     N65654   6.811   1.785   0.663  0.0983  0.4722 -0.3089
  498MOL0     N65655   6.926   1.750   0.709  0.1706  0.2633  0.1192
  498MOL0     C65656   7.923   0.951   0.490 -0.1389 -0.0738  0.5113
  498MOL0     C65657   8.004   0.946   0.376 -0.9514  0.7583  0.2323
  498MOL0     C65658   8.235   0.946   0.002  0.5289 -0.1823 -0.6843
  498MOL0     C65659   8.367   0.992  -0.018  0.7014  1.0593  0.4863
  498MOL0     C65660   8.440   0.943  -0.129  0.4760 -0.0106 -1.4621
  498MOL0     C65661   8.401   0.849  -0.213 -0.3243  0.6656  0.4727
  498MOL0     O65662   8.473   0.809  -0.320 -0.0952 -1.0284  0.4187
  498MOL0     C65663   8.408   0.750  -0.434 -0.3992  0.4890  0.0175
  498MOL0     C65664   8.495   0.742  -0.551 -0.6149 -0.0717  0.2538
  498MOL0     C65665   8.604   0.637  -0.547  1.3893 -0.0889 -1.5254
  498MOL0     C65666   8.703   0.641  -0.664 -0.1384  0.4129  0.4653
  498MOL0     C65667   8.631   0.648  -0.793  0.5997 -0.3221  0.9333
  498MOL0     C65668   8.571   0.673  -0.899  0.5611  0.6970 -0.3962
  498MOL0     C65669   8.273   0.791  -0.189  0.7136 -0.1536 -0.6487
  498MOL0     C65670   8.184   0.844  -0.089 -0.8863 -0.8360  0.4689
  498MOL0     H65671   7.764   0.975   0.138  0.6068  3.1838  0.2176
  498MOL0     H65672   7.629   1.006   0.329 -0.2726  0.4707  1.9219
  498MOL0     H65673   7.765   1.176   0.651  0.2495 -0.4101 -0.5995
  498MOL0     H65674   7.794   1.031   0.764 -2.3745 -3.6508  1.5152
  498MOL0     H65675   7.630   1.169   0.855 -1.5779  1.4743 -0.5984
  498MOL0     H65676   7.548   1.030   0.782  2.2867 -1.1925  2.7932
  498MOL0     H65677   7.467   1.144   0.590 -1.7240  1.0034 -0.0713
  498MOL0     H65678   7.567   1.280   0.626 -0.5123  0.1965 -0.7679
  498MOL0     H65679   7.334   1.167   0.809 -1.7201 -0.9574 -2.2235
  498MOL0     H65680   7.429   1.313   0.836 -2.5530  0.4598  0.0356
  498MOL0     H65681   7.226   1.247   0.626 -1.9623 -0.2755  2.2997
  498MOL0     H65682   7.314   1.401   0.613 -1.8278  1.4386  0.5001
  498MOL0     H65683   7.222   1.433   0.855  0.3299 -0.1443  0.2715
  498MOL0     H65684   7.138   1.286   0.836 -1.5696  0.2477  0.2776
  498MOL0     H65685   7.048   1.366   0.614 -0.3295 -1.6970  0.7772
  498MOL0     H65686   6.966   1.426   0.745 -0.6392 -2.1339 -0.2583
  498MOL0     H65687   7.124   1.566   0.539 -0.5724  0.3710  0.0804
  498MOL0     H65688   7.165   1.622   0.708 -1.2685 -1.2500  0.3288
  498MOL0     H65689   6.890   1.560   0.445 -0.3690  0.7185  0.0783
  498MOL0     H65690   6.592   1.838   0.508 -0.3487 -1.4862  1.1325
  498MOL0     H65691   6.567   1.676   0.473  0.4606 -0.7599  3.2109
  498MOL0     H65692   6.745   1.707   0.290  1.7223  0.1522  0.9194
  498MOL0     H65693   6.730   1.881   0.322 -0.5824 -0.0107 -1.3269
  498MOL0     H65694   6.526   1.694   0.230 -0.2354  0.2509  2.3132
  498MOL0     H65695   6.471   1.842   0.300 -0.0702  1.4936  0.3315
  498MOL0     H65696   6.497   1.821   0.036  1.3469 -1.1208  0.2849
  498MOL0     H65697   6.666   1.843   0.062  0.0329  1.8152 -0.9470
  498MOL0     H65698   6.489   2.250   0.115 -0.3137  1.2368 -3.4546
  498MOL0     H65699   6.276   2.359   0.083  0.5559 -0.1348 -1.4289
  498MOL0     H65700   5.770   2.330   0.221  0.0943  0.6751 -1.1628
  498MOL0     H65701   5.573   2.491   0.189  2.3497 -2.5975  4.4334
  498MOL0     H65702   5.506   2.868   0.030 -2.1126 -1.4588  0.5621
  498MOL0     H65703   5.669   2.871   0.107 -1.3262  1.7627  2.6190
  498MOL0     H65704   5.584   2.797   0.314 -0.3331 -1.5294  0.9832
  498MOL0     H65705   5.445   2.714   0.234  1.4798 -0.9372  3.1192
  498MOL0     H65706   5.344   2.947   0.176 -0.6250 -1.5014  1.1998
  498MOL0     H65707   5.467   3.022   0.263 -0.6406  0.6494  1.4098
  498MOL0     H65708   5.241   2.831   0.338  0.4128  0.2483 -0.2529
  498MOL0     H65709   5.368   2.846   0.454 -2.4309  2.1055  2.5913
  498MOL0     H65710   5.309   3.089   0.500  0.2633 -1.3007  1.1561
  498MOL0     H65711   5.163   2.988   0.498 -0.2829 -2.0542 -1.8029
  498MOL0     H65712   5.128   3.053   0.257  0.2020 -1.3254  2.1785
  498MOL0     H65713   5.262   3.169   0.280  1.4751 -0.3951  0.4554
  498MOL0     H65714   4.983   3.185   0.390 -0.1638  0.0875  2.2656
  498MOL0     H65715   5.129   3.226   0.489  0.0853 -1.2776 -0.1590
  498MOL0     H65716   5.185   3.390   0.300 -0.1027 -0.8615 -1.2023
  498MOL0     H65717   5.034   3.424   0.371  2.6616  2.3060 -1.7367
  498MOL0     H65718   5.812   2.750  -0.033 -0.4395 -0.0148 -1.3836
  498MOL0     H65719   6.006   2.613  -0.001  1.3176 -1.6614  1.8092
  498MOL0     H65720   6.066   1.984   0.116 -0.3534  1.6979  1.9528
  498MOL0     H65721   6.288   1.869   0.154 -0.2821 -0.2824 -0.5895
  498MOL0     H65722   7.974   0.952   0.586  2.8275  1.9784 -0.9362
  498MOL0     H65723   8.108   0.916   0.384 -1.5861 -2.1876 -1.2983
  498MOL0     H65724   8.423   1.051   0.053  2.5088 -0.8529  0.7405
  498MOL0     H65725   8.538   0.989  -0.134 -0.6367  2.7391  0.0468
  498MOL0     H65726   8.329   0.819  -0.465 -1.5679  0.0069  1.7234
  498MOL0     H65727   8.365   0.653  -0.406  0.1611  0.9048  2.5665
  498MOL0     H65728   8.436   0.718  -0.639  1.0794 -2.7632 -0.2605
  498MOL0     H65729   8.540   0.842  -0.542 -1.5360  0.3043  0.8524
  498MOL0     H65730   8.559   0.538  -0.532 -0.2918  0.9745  1.1461
  498MOL0     H65731   8.655   0.659  -0.453 -0.3254  1.7188 -0.9528
  498MOL0     H65732   8.776   0.722  -0.670  1.9302 -1.3320  0.7094
  498MOL0     H65733   8.776   0.560  -0.672  1.1427  1.6489 -1.5268
  498MOL0     H65734   8.515   0.694  -0.988 -0.8052  1.5014  0.6089
  498MOL0     H65735   8.237   0.714  -0.255  0.1895  0.0053 -0.5550
  498MOL0     H65736   8.084   0.805  -0.076 -1.6160  0.1857 -1.6583
  499MOL0     O65737  10.092  10.507   8.937  0.2414 -0.3023 -0.2571
  499MOL0     C65738  10.174  10.599   8.936 -1.0873 -0.0524 -0.6458
  499MOL0     O65739  10.144  10.735   8.920 -0.5841 -0.2947 -0.8660
  499MOL0     C65740  10.010  10.750   8.927  0.7099  0.1864  0.5795
  499MOL0     C65741   9.929  10.741   8.810  0.4912  0.0050 -0.7096
  499MOL0     C65742   9.791  10.736   8.808  0.3797 -0.3049 -0.3085
  499MOL0     C65743   9.727  10.769   8.933 -1.0321 -0.0960  0.0254
  499MOL0     O65744   9.595  10.758   8.950  0.0132 -0.3265 -0.3159
  499MOL0     C65745   9.511  10.806   8.844  0.4736 -0.7510 -0.2908
  499MOL0     C65746   9.370  10.742   8.852 -0.5019  0.3987  1.0746
  499MOL0     C65747   9.293  10.791   8.968  1.4956 -0.3815 -0.3308
  499MOL0     C65748   9.136  10.782   8.944  0.4322 -0.1872  0.6815
  499MOL0     C65749   9.078  10.911   8.875  0.3868  0.4938 -0.9154
  499MOL0     C65750   8.927  10.934   8.877 -0.0789 -0.2260  0.0605
  499MOL0     C65751   8.864  10.960   9.014  0.1194 -0.3400 -0.5452
  499MOL0     C65752   8.792  11.093   9.039  0.1946  0.5033  0.8771
  499MOL0     N65753   8.678  11.086   9.131 -0.1408 -0.1876 -0.2000
  499MOL0     C65754   8.680  11.017   9.251 -0.6098  0.1755 -0.6744
  499MOL0     C65755   8.569  11.059   9.313  0.4675  0.6413  0.4854
  499MOL0     C65756   8.524  11.014   9.454 -0.9085 -0.6436  1.2555
  499MOL0     C65757   8.366  11.024   9.463  0.9055 -0.1437  0.4995
  499MOL0     C65758   8.295  10.948   9.356  0.4780 -0.7277  0.2499
  499MOL0     C65759   8.152  11.006   9.332  0.7067  0.5004 -0.0306
  499MOL0     O65760   8.065  10.923   9.256 -0.0246 -0.0895  0.6124
  499MOL0     C65761   7.953  10.988   9.214  0.4174 -0.2657  0.6937
  499MOL0     C65762   7.838  10.929   9.256  0.6021 -0.2210  0.4770
  499MOL0     C65763   7.710  10.980   9.213 -0.4456 -0.8500  0.5192
  499MOL0     C65764   7.707  11.096   9.135 -0.3701 -0.0150  1.1898
  499MOL0     C65765   7.580  11.153   9.107  0.8310 -0.2038  0.7328
  499MOL0     O65766   7.490  11.156   9.207  0.2971  0.1595  0.0031
  499MOL0     C65767   7.360  11.196   9.185  0.6183 -1.0089  0.4034
  499MOL0     C65768   7.273  11.114   9.119  1.0395  0.2217  0.2299
  499MOL0     C65769   7.146  11.169   9.085 -0.1854 -0.1265 -0.8724
  499MOL0     C65770   7.105  11.299   9.112 -0.2867  0.1586  0.4430
  499MOL0     O65771   6.979  11.331   9.073 -0.5188 -0.2490 -0.1121
  499MOL0     C65772   6.941  11.470   9.114 -0.1428 -0.0325 -0.7195
  499MOL0     C65773   6.793  11.458   9.072 -0.5688  0.0263 -0.4661
  499MOL0     C65774   6.710  11.585   9.101 -0.5147  0.5386  0.1189
  499MOL0     C65775   6.575  11.548   9.076  0.6954  0.6882 -0.1990
  499MOL0     C65776   6.481  11.664   9.085  0.8370  0.2798 -0.4436
  499MOL0     C65777   6.339  11.636   9.033  0.3710 -0.5181  0.0383
  499MOL0     C65778   6.250  11.761   9.027  0.6754  0.7559  0.4085
  499MOL0     C65779   6.100  11.729   9.000  0.5687  0.1292  0.2773
  499MOL0    Cl65780   6.009  11.887   9.010 -0.0349  0.2114  0.4958
  499MOL0     C65781   7.194  11.377   9.185 -1.0554 -0.8310 -0.8366
  499MOL0     C65782   7.326  11.329   9.218  0.5961 -0.3772  0.0501
  499MOL0     O65783   7.546  11.190   8.993  0.8667 -0.0779 -0.0470
  499MOL0     C65784   7.828  11.150   9.086  0.6912 -0.2874 -0.6067
  499MOL0     C65785   7.952  11.099   9.126  0.0666  0.1713  0.6756
  499MOL0     N65786   8.509  11.153   9.226  0.7061  0.1806 -0.8623
  499MOL0     N65787   8.563  11.159   9.116 -0.1588 -0.3109  0.3158
  499MOL0     C65788   9.810  10.800   9.043 -0.0592  0.0381 -0.4073
  499MOL0     C65789   9.943  10.786   9.048 -0.0951  0.8114  0.4688
  499MOL0     C65790  10.312  10.555   8.959 -0.4734 -0.1131  1.0378
  499MOL0     C65791  10.344  10.425   9.004  0.0943 -0.7652 -0.2401
  499MOL0     C65792  10.474  10.392   9.030 -0.6881 -1.2109 -0.4995
  499MOL0     C65793  10.581  10.486   9.010 -0.0820  0.5137  0.5541
  499MOL0     O65794  10.711  10.448   9.043  0.0019  0.0245 -0.0930
  499MOL0     C65795  10.812  10.553   9.021  0.1157 -0.1479  0.3388
  499MOL0     C65796  10.947  10.525   9.083  0.2309 -0.1831 -1.1461
  499MOL0     C65797  10.932  10.540   9.229 -0.6287  0.1308 -0.4330
  499MOL0     C65798  11.069  10.543   9.292  0.3425  0.0274  0.3345
  499MOL0     C65799  11.060  10.570   9.439 -0.0959 -0.8831 -0.6003
  499MOL0     C65800  11.042  10.596   9.553 -0.6062 -0.5112 -1.0156
  499MOL0     C65801  10.547  10.614   8.954 -0.5333 -0.4417  0.2347
  499MOL0     C65802  10.416  10.649   8.935 -0.6570  0.2992 -0.0598
  499MOL0     H65803   9.986  10.712   8.722  1.4025 -2.1040  0.4928
  499MOL0     H65804   9.734  10.701   8.722  1.1990 -1.9303 -0.2181
  499MOL0     H65805   9.546  10.793   8.741  1.9682  1.8738 -0.2199
  499MOL0     H65806   9.495  10.913   8.859 -4.6410 -1.4952  1.2840
  499MOL0     H65807   9.369  10.632   8.858 -1.4537  0.3764  0.6240
  499MOL0     H65808   9.314  10.774   8.764  0.2750 -1.2182 -0.0695
  499MOL0     H65809   9.321  10.891   9.003 -1.6363  0.0171  1.3114
  499MOL0     H65810   9.309  10.725   9.053  1.7611  0.6145  0.4107
  499MOL0     H65811   9.129  10.700   8.873 -0.5703  3.6141 -4.1303
  499MOL0     H65812   9.088  10.761   9.040 -1.7392 -0.0563 -0.3138
  499MOL0     H65813   9.112  10.923   8.771  1.0682  1.2687 -0.6185
  499MOL0     H65814   9.117  10.996   8.932  1.7520 -0.6186 -0.1195
  499MOL0     H65815   8.892  10.836   8.845  1.3362 -0.7851  0.1867
  499MOL0     H65816   8.899  11.016   8.809 -1.8602 -0.4772  0.4309
  499MOL0     H65817   8.789  10.881   9.027 -1.9836  2.0732  5.3628
  499MOL0     H65818   8.925  10.939   9.102 -1.7959 -3.6960  0.1848
  499MOL0     H65819   8.758  11.133   8.943 -1.7239 -0.2083  1.2077
  499MOL0     H65820   8.869  11.160   9.078  0.7661  0.0216  0.5896
  499MOL0     H65821   8.750  10.943   9.288 -1.5289 -0.4658 -0.2114
  499MOL0     H65822   8.583  11.062   9.531  3.4194  0.6735 -2.4336
  499MOL0     H65823   8.554  10.909   9.461 -0.1289 -0.3951  1.6984
  499MOL0     H65824   8.343  11.131   9.454 -3.0337 -0.7586  1.2542
  499MOL0     H65825   8.332  10.997   9.563 -2.6962 -1.5621 -0.9260
  499MOL0     H65826   8.348  10.950   9.260  0.3055  2.0257  0.1404
  499MOL0     H65827   8.297  10.846   9.394  0.4120 -0.5838  0.6383
  499MOL0     H65828   8.155  11.106   9.289  1.6253 -1.3762 -4.9619
  499MOL0     H65829   8.110  11.008   9.434  1.8959 -3.8833  0.7813
  499MOL0     H65830   7.844  10.837   9.315  0.9434 -1.8569 -1.9837
  499MOL0     H65831   7.627  10.926   9.256 -1.1412  2.1331  3.3086
  499MOL0     H65832   7.299  11.011   9.095 -1.8458 -1.1170  2.2026
  499MOL0     H65833   7.069  11.108   9.039 -1.5808 -1.1844  2.6007
  499MOL0     H65834   6.990  11.549   9.057 -1.3662 -0.5627 -2.6143
  499MOL0     H65835   6.948  11.479   9.222 -1.2932 -0.1091 -0.6283
  499MOL0     H65836   6.737  11.374   9.113 -0.7391  1.0087  1.4433
  499MOL0     H65837   6.793  11.450   8.963  2.6750  0.6889 -0.6385
  499MOL0     H65838   6.728  11.670   9.035  0.6386 -1.5263 -2.4473
  499MOL0     H65839   6.719  11.612   9.207 -0.1892 -2.7966  1.0737
  499MOL0     H65840   6.559  11.508   8.975 -0.0691  0.2918  0.0760
  499MOL0     H65841   6.539  11.464   9.136  1.1112 -0.2097 -1.1792
  499MOL0     H65842   6.520  11.745   9.022  1.1698  0.3339 -0.1706
  499MOL0     H65843   6.481  11.702   9.187 -1.0736  2.6106 -1.2125
  499MOL0     H65844   6.295  11.565   9.104  1.6913 -2.6632 -1.2037
  499MOL0     H65845   6.344  11.585   8.936 -1.1654 -0.8865  0.1312
  499MOL0     H65846   6.260  11.802   9.128  2.9190  1.7399 -0.1406
  499MOL0     H65847   6.289  11.833   8.955  2.3525  0.1704  0.6658
  499MOL0     H65848   6.075  11.653   9.074  0.5644 -0.7399 -0.6035
  499MOL0     H65849   6.080  11.688   8.901  1.5241  1.6059 -0.5703
  499MOL0     H65850   7.182  11.482   9.213  2.4983 -0.9289  1.7651
  499MOL0     H65851   7.391  11.395   9.275  0.7301 -0.1665 -0.3499
  499MOL0     H65852   7.822  11.235   9.019  1.3114  0.3717  0.1532
  499MOL0     H65853   8.052  11.127   9.093  0.3023 -3.2858 -2.1724
  499MOL0     H65854   9.765  10.845   9.130 -1.6305 -1.5721 -0.3186
  499MOL0     H65855   9.992  10.787   9.146  0.7855 -3.2748  0.2625
  499MOL0     H65856  10.260  10.361   9.027 -0.2306 -0.7044 -1.1879
  499MOL0     H65857  10.493  10.290   9.062  0.3934 -1.3806 -1.6071
  499MOL0     H65858  10.781  10.651   9.060 -0.3499  0.7450 -2.0780
  499MOL0     H65859  10.822  10.556   8.912  0.5275 -1.1394  0.3381
  499MOL0     H65860  10.978  10.422   9.069  2.1156 -0.6760  4.3112
  499MOL0     H65861  11.025  10.593   9.047 -0.6899  0.9466 -1.0975
  499MOL0     H65862  10.866  10.465   9.274 -1.0875  1.6737  1.6496
  499MOL0     H65863  10.881  10.636   9.241 -2.4074 -0.7833 -0.3548
  499MOL0     H65864  11.130  10.455   9.270 -0.9943 -0.2306 -2.9382
  499MOL0     H65865  11.126  10.626   9.249  1.1973 -0.4580  0.5090
  499MOL0     H65866  11.019  10.615   9.656  1.1249 -2.1050 -0.2750
  499MOL0     H65867  10.610  10.695   8.918  1.1019 -1.5706  0.4500
  499MOL0     H65868  10.394  10.746   8.893  0.2903  0.0925 -1.0800
  500MOL0     O65869   8.838   6.893   8.737 -0.1025  0.9630  0.5384
  500MOL0     C65870   8.871   6.784   8.786  0.0868 -0.2135 -0.1365
  500MOL0     O65871   8.788   6.684   8.815  0.4105  0.4747 -0.3117
  500MOL0     C65872   8.656   6.703   8.789  0.7390  0.0659 -0.0206
  500MOL0     C65873   8.583   6.799   8.856  0.1187  0.3766  0.5179
  500MOL0     C65874   8.443   6.813   8.825 -0.3858 -0.2690 -0.0058
  500MOL0     C65875   8.393   6.754   8.709  0.0100  0.1915  0.4209
  500MOL0     O65876   8.263   6.782   8.667  0.1469 -0.6895 -0.3283
  500MOL0     C65877   8.170   6.670   8.659  0.1574  0.3629 -0.2678
  500MOL0     C65878   8.026   6.718   8.653  0.3493  0.6254 -0.2079
  500MOL0     C65879   7.989   6.772   8.518 -0.2507 -0.0995 -0.1531
  500MOL0     C65880   7.929   6.657   8.423 -0.2416 -0.6171  0.3001
  500MOL0     C65881   7.997   6.661   8.288  0.5080 -0.4979 -0.4290
  500MOL0     C65882   7.971   6.789   8.200  0.3466 -0.0370 -0.1817
  500MOL0     C65883   7.833   6.855   8.211  0.7972  0.9789  0.6832
  500MOL0     C65884   7.722   6.764   8.152 -0.0556  0.1208 -0.1914
  500MOL0     N65885   7.621   6.843   8.083 -0.4230 -0.2339 -0.0133
  500MOL0     C65886   7.547   6.940   8.148 -0.8627  0.2002  0.0102
  500MOL0     C65887   7.491   7.015   8.054 -0.4461 -0.0526 -0.1235
  500MOL0     C65888   7.409   7.136   8.080  0.4263  0.4871 -0.0744
  500MOL0     C65889   7.253   7.098   8.072  0.1836 -0.8857  0.4545
  500MOL0     C65890   7.189   7.124   8.207  0.0334  0.2152  0.0937
  500MOL0     C65891   7.046   7.075   8.218 -0.2139  1.1182  0.7373
  500MOL0     O65892   7.000   7.115   8.350  0.0787 -0.0672 -0.0567
  500MOL0     C65893   6.906   7.213   8.363  0.0491 -0.3902  0.1459
  500MOL0     C65894   6.800   7.229   8.275 -0.1479  0.3034  0.2900
  500MOL0     C65895   6.707   7.329   8.291  0.0178 -0.5847 -0.2954
  500MOL0     C65896   6.705   7.401   8.406 -0.5593 -0.6392  0.3613
  500MOL0     C65897   6.607   7.501   8.418  0.6810  0.4015 -0.1313
  500MOL0     O65898   6.557   7.522   8.544 -0.5310 -0.0965 -0.4725
  500MOL0     C65899   6.464   7.621   8.574  0.7535  0.4128  0.5791
  500MOL0     C65900   6.403   7.603   8.699  1.0074 -1.4234 -0.4627
  500MOL0     C65901   6.301   7.693   8.745 -0.7679 -0.0460  0.4980
  500MOL0     C65902   6.268   7.808   8.671 -0.3428 -0.5836  0.3322
  500MOL0     O65903   6.178   7.909   8.708 -0.1893  0.1511  0.0943
  500MOL0     C65904   6.055   7.857   8.762  0.0739 -0.3963  0.2292
  500MOL0     C65905   6.030   7.879   8.910 -0.3152 -0.0196 -0.1502
  500MOL0     C65906   5.991   8.021   8.925  0.0635  0.3094 -0.5694
  500MOL0     C65907   5.979   8.045   9.082  0.1250 -0.5078  0.2749
  500MOL0     C65908   5.935   8.183   9.118  0.3727  0.9393  0.0378
  500MOL0     C65909   5.823   8.247   9.030  0.7490  0.6267 -0.0820
  500MOL0     C65910   5.802   8.395   9.060  0.4153  0.1904  0.0061
  500MOL0     C65911   5.743   8.479   8.948 -1.5292  0.4076  0.3006
  500MOL0    Cl65912   5.582   8.436   8.915 -0.0250 -0.0212  0.1106
  500MOL0     C65913   6.334   7.821   8.546  0.6514  0.3035 -0.3521
  500MOL0     C65914   6.430   7.733   8.498  0.4358  0.6988 -0.7358
  500MOL0     O65915   6.567   7.558   8.314  0.2524  0.5487 -0.1036
  500MOL0     C65916   6.810   7.389   8.494 -0.5798 -0.1823 -0.3300
  500MOL0     C65917   6.909   7.287   8.479 -0.1006 -0.8156  0.3757
  500MOL0     N65918   7.523   6.959   7.927  0.9713  0.8790 -0.0479
  500MOL0     N65919   7.608   6.859   7.945  0.8098  0.2720  0.1357
  500MOL0     C65920   8.468   6.653   8.641  0.0849 -1.1646  0.0172
  500MOL0     C65921   8.594   6.633   8.689  0.1064  0.6443  0.8070
  500MOL0     C65922   9.016   6.761   8.816 -0.5735 -0.0741  0.9184
  500MOL0     C65923   9.067   6.629   8.817  0.1530 -0.9005 -0.8582
  500MOL0     C65924   9.203   6.616   8.853  0.0731  0.8703  0.2306
  500MOL0     C65925   9.284   6.714   8.898  0.5260  0.6946  0.4188
  500MOL0     O65926   9.406   6.685   8.944 -0.6400  0.0242 -0.2710
  500MOL0     C65927   9.513   6.730   8.859  0.1785 -0.7071 -0.1708
  500MOL0     C65928   9.641   6.663   8.910 -0.8998  0.5037 -0.0179
  500MOL0     C65929   9.682   6.735   9.042  0.2739  0.0990 -0.8587
  500MOL0     C65930   9.757   6.633   9.140  0.3666  0.6213  0.4925
  500MOL0     C65931   9.854   6.699   9.229  0.4207  0.1010  0.8688
  500MOL0     C65932   9.929   6.786   9.274  0.4340 -0.8858 -0.2803
  500MOL0     C65933   9.232   6.844   8.894 -0.3243 -0.5108  0.0916
  500MOL0     C65934   9.100   6.868   8.856  0.1299 -0.7810 -0.2436
  500MOL0     H65935   8.633   6.848   8.939 -1.4885 -1.5127  2.7405
  500MOL0     H65936   8.371   6.879   8.872  0.9514  0.8281  0.5890
  500MOL0     H65937   8.195   6.599   8.738  2.7478  1.9782  0.4900
  500MOL0     H65938   8.194   6.618   8.566  0.6701 -0.6921  0.4369
  500MOL0     H65939   8.014   6.788   8.737  0.3128 -1.6692  1.8208
  500MOL0     H65940   7.952   6.638   8.666 -0.8103  1.4737 -1.3601
  500MOL0     H65941   8.069   6.823   8.464 -0.6407  0.2016 -0.4495
  500MOL0     H65942   7.915   6.849   8.542  0.8779  0.9243  0.1421
  500MOL0     H65943   7.934   6.555   8.462 -2.4981 -0.8849  0.0464
  500MOL0     H65944   7.821   6.672   8.423 -0.4281 -1.8067  1.3127
  500MOL0     H65945   7.969   6.568   8.238  1.3958 -0.4117 -1.1093
  500MOL0     H65946   8.104   6.664   8.310  0.0342 -1.4577  2.3896
  500MOL0     H65947   8.009   6.776   8.098  0.3380  0.5227 -0.2561
  500MOL0     H65948   8.035   6.869   8.238  1.0925  0.6564 -2.6884
  500MOL0     H65949   7.801   6.875   8.314 -3.4718  1.6348 -0.6069
  500MOL0     H65950   7.827   6.954   8.165  0.1079 -0.6206 -3.0290
  500MOL0     H65951   7.676   6.715   8.238  0.3015  0.1227  0.0048
  500MOL0     H65952   7.764   6.692   8.080  0.1931  0.0214  0.0464
  500MOL0     H65953   7.561   6.942   8.255 -0.7126  0.0571 -0.0060
  500MOL0     H65954   7.441   7.205   8.002  0.3753  0.9122  0.2753
  500MOL0     H65955   7.435   7.185   8.174  1.7643  0.9915 -0.6834
  500MOL0     H65956   7.248   6.991   8.052  1.3850 -0.6196 -1.5671
  500MOL0     H65957   7.201   7.152   7.992  1.5871 -1.2269 -0.7572
  500MOL0     H65958   7.255   7.087   8.286  0.9050  1.3481 -0.0805
  500MOL0     H65959   7.176   7.232   8.220 -3.1880  0.3593 -2.8264
  500MOL0     H65960   7.047   6.966   8.216 -1.1181  1.0657 -2.8379
  500MOL0     H65961   6.985   7.106   8.133 -0.8328 -0.0858  0.7261
  500MOL0     H65962   6.791   7.169   8.185 -0.8928 -2.5314  2.1331
  500MOL0     H65963   6.635   7.350   8.212 -0.9187 -1.6701  0.2337
  500MOL0     H65964   6.427   7.527   8.773  0.4559 -0.1876  1.0487
  500MOL0     H65965   6.243   7.676   8.835 -0.9712  0.1676  0.4069
  500MOL0     H65966   6.054   7.750   8.737  3.7552 -0.4162 -0.4112
  500MOL0     H65967   5.971   7.907   8.713  0.7061  0.0265 -0.4452
  500MOL0     H65968   6.126   7.862   8.960  1.8924  5.1440 -1.9394
  500MOL0     H65969   5.945   7.820   8.946  0.0108  0.7462  2.0457
  500MOL0     H65970   5.897   8.036   8.871 -1.5201 -1.8020  1.3862
  500MOL0     H65971   6.077   8.079   8.890 -0.8729  1.2685 -1.3648
  500MOL0     H65972   5.919   7.963   9.123  2.2165 -0.6250  3.4029
  500MOL0     H65973   6.075   8.047   9.134  0.0642  0.4578  0.3790
  500MOL0     H65974   6.028   8.239   9.110  0.5449  0.8944  1.5251
  500MOL0     H65975   5.906   8.179   9.223 -0.9047  1.5798 -0.2676
  500MOL0     H65976   5.730   8.192   9.047  2.2323 -2.1064 -0.2321
  500MOL0     H65977   5.862   8.253   8.928  5.2252  0.7537  1.4204
  500MOL0     H65978   5.740   8.410   9.149  0.4837 -3.7070  0.9222
  500MOL0     H65979   5.904   8.420   9.089  1.8976 -4.8326  0.1258
  500MOL0     H65980   5.801   8.459   8.857 -0.0643 -3.3997  1.8563
  500MOL0     H65981   5.750   8.584   8.977  0.2487  0.6494 -0.8296
  500MOL0     H65982   6.304   7.910   8.491 -1.7387  1.0279  1.9134
  500MOL0     H65983   6.490   7.755   8.410  2.5228 -1.1218  0.1323
  500MOL0     H65984   6.806   7.452   8.582 -0.6440 -0.0253 -0.4472
  500MOL0     H65985   6.973   7.262   8.563  0.6778  1.2029  0.4471
  500MOL0     H65986   8.433   6.596   8.556  0.7029 -0.4108 -0.7587
  500MOL0     H65987   8.646   6.557   8.631 -1.7132  0.8496 -1.2652
  500MOL0     H65988   9.004   6.544   8.796 -4.1070  1.6246  0.4776
  500MOL0     H65989   9.238   6.513   8.860  1.0164  1.0480 -1.2844
  500MOL0     H65990   9.534   6.837   8.846  0.7353 -1.0688 -3.0565
  500MOL0     H65991   9.487   6.697   8.758 -1.1078  1.4345 -0.6084
  500MOL0     H65992   9.615   6.558   8.929  0.6011  0.0370 -0.3692
  500MOL0     H65993   9.721   6.668   8.836 -2.9358  3.2497 -2.2134
  500MOL0     H65994   9.590   6.758   9.097 -1.0295 -1.4862 -2.2728
  500MOL0     H65995   9.723   6.834   9.020 -0.9354  1.0878  1.0423
  500MOL0     H65996   9.690   6.584   9.212  1.6737 -0.0656  1.2885
  500MOL0     H65997   9.806   6.558   9.078 -1.2424  0.4549 -0.6573
  500MOL0     H65998   9.993   6.863   9.312 -0.8121 -0.5787  1.3233
  500MOL0     H65999   9.289   6.923   8.943 -0.0111  0.2496 -1.4260
  500MOL0     H66000   9.058   6.968   8.866 -0.7492 -1.2385  0.8000
  501MOL0     O66001   7.715  10.935   5.610 -0.7813 -0.0134  0.1274
  501MOL0     C66002   7.635  11.013   5.576  0.9953 -0.1213  0.4362
  501MOL0     O66003   7.656  11.108   5.474 -0.2275  0.7763  0.3246
  501MOL0     C66004   7.771  11.104   5.396  0.0928 -1.2178 -0.0849
  501MOL0     C66005   7.761  11.099   5.254  0.2887  0.9508  0.3297
  501MOL0     C66006   7.863  11.053   5.178 -0.1495 -0.5618 -0.2912
  501MOL0     C66007   7.990  11.012   5.240  0.0058 -0.8819 -0.7721
  501MOL0     O66008   8.093  10.952   5.181 -0.6196 -1.1880  0.0002
  501MOL0     C66009   8.056  10.851   5.078 -0.0928 -0.1010 -1.3851
  501MOL0     C66010   8.178  10.763   5.057 -0.1852  0.1527  0.3026
  501MOL0     C66011   8.297  10.834   4.985 -1.1692 -0.3734 -0.4904
  501MOL0     C66012   8.431  10.860   5.067  0.5526  0.0363  0.0907
  501MOL0     C66013   8.553  10.853   4.980  0.4983 -0.8756 -0.3406
  501MOL0     C66014   8.546  10.966   4.867 -0.5643  1.4272  0.2953
  501MOL0     C66015   8.676  10.954   4.792  0.2283  0.1348  1.3945
  501MOL0     C66016   8.687  11.045   4.669 -0.3428 -0.1467  0.1577
  501MOL0     N66017   8.665  11.187   4.701 -0.5071  0.0508 -0.7202
  501MOL0     C66018   8.753  11.275   4.754 -0.3509 -0.0720 -0.0184
  501MOL0     C66019   8.686  11.395   4.743 -0.2943  0.6505 -0.0068
  501MOL0     C66020   8.724  11.532   4.786  0.4131  0.2082 -0.1610
  501MOL0     C66021   8.791  11.611   4.674 -0.1714 -0.9038 -0.3802
  501MOL0     C66022   8.694  11.654   4.560  0.2148  0.2542 -0.1843
  501MOL0     C66023   8.751  11.742   4.450  0.7357 -0.7291  0.2444
  501MOL0     O66024   8.720  11.878   4.459 -0.4777 -0.3863 -0.4879
  501MOL0     C66025   8.718  11.940   4.337  0.7495 -0.1803 -0.0625
  501MOL0     C66026   8.618  12.028   4.315 -0.5003  0.0356  0.6529
  501MOL0     C66027   8.601  12.086   4.189  1.0452  0.2064 -0.2505
  501MOL0     C66028   8.697  12.061   4.093  0.0806  0.0364  0.3185
  501MOL0     C66029   8.694  12.128   3.959 -0.5519  0.4245  0.2124
  501MOL0     O66030   8.779  12.079   3.868  0.5945 -0.2048 -0.6942
  501MOL0     C66031   8.782  12.125   3.737  1.0345  1.0918 -0.3496
  501MOL0     C66032   8.714  12.045   3.635  0.6923  0.4148  0.7323
  501MOL0     C66033   8.694  12.093   3.503 -1.3713 -0.0924 -0.9510
  501MOL0     C66034   8.748  12.215   3.473  0.3557 -1.3437  0.1094
  501MOL0     O66035   8.734  12.257   3.339 -0.3858 -0.6216  0.4652
  501MOL0     C66036   8.635  12.361   3.326 -0.2635  0.9249  0.4721
  501MOL0     C66037   8.649  12.436   3.189  0.4268 -0.4013 -0.1913
  501MOL0     C66038   8.637  12.350   3.060  0.1775 -0.3429  0.2382
  501MOL0     C66039   8.561  12.434   2.948 -0.2878 -0.4984  0.1456
  501MOL0     C66040   8.574  12.349   2.816  0.1824  0.3392  0.7852
  501MOL0     C66041   8.488  12.224   2.820 -0.3255  1.0104  1.2006
  501MOL0     C66042   8.541  12.121   2.706  0.6855  0.4836  0.4764
  501MOL0     C66043   8.447  12.001   2.697 -0.0395 -1.0301 -0.3271
  501MOL0    Cl66044   8.277  12.038   2.654 -0.3125  0.5163  0.0469
  501MOL0     C66045   8.821  12.290   3.575 -0.2667  0.8909 -0.0000
  501MOL0     C66046   8.846  12.242   3.703  1.4123  0.6671 -0.4843
  501MOL0     O66047   8.616  12.221   3.937  0.8126  0.4880 -0.4547
  501MOL0     C66048   8.797  11.970   4.120 -0.5278 -0.2890  0.0269
  501MOL0     C66049   8.806  11.903   4.236 -0.6834  0.3187  0.5623
  501MOL0     N66050   8.565  11.375   4.682  0.2084  0.2602 -0.1084
  501MOL0     N66051   8.559  11.252   4.650  0.1722 -0.1932 -0.1157
  501MOL0     C66052   8.001  11.041   5.384 -0.0129  0.1571 -0.2640
  501MOL0     C66053   7.897  11.089   5.463 -0.2069  0.7054  0.1487
  501MOL0     C66054   7.492  10.994   5.622 -0.4691  0.4393 -0.4182
  501MOL0     C66055   7.459  10.871   5.678 -0.4069 -0.3773  0.8371
  501MOL0     C66056   7.331  10.847   5.718  0.1281  0.0596 -0.4272
  501MOL0     C66057   7.235  10.954   5.727 -0.8338 -0.0556  0.0474
  501MOL0     O66058   7.101  10.934   5.757 -0.0075 -0.5059  0.3121
  501MOL0     C66059   7.054  10.802   5.751  0.8097 -1.3065 -0.9013
  501MOL0     C66060   6.910  10.805   5.771  0.2933 -0.0763 -0.6310
  501MOL0     C66061   6.832  10.904   5.682  0.0604 -0.6743  1.1343
  501MOL0     C66062   6.686  10.884   5.687  0.3074  0.0092  0.5248
  501MOL0     C66063   6.636  10.800   5.578 -0.5525  0.0872  0.2747
  501MOL0     C66064   6.584  10.719   5.503 -0.1183 -0.0949 -0.6450
  501MOL0     C66065   7.274  11.085   5.685  0.5370 -0.3427 -0.2231
  501MOL0     C66066   7.401  11.103   5.633  0.6503 -0.2779 -0.0293
  501MOL0     H66067   7.664  11.119   5.209 -0.3709  0.9820  1.7272
  501MOL0     H66068   7.852  11.034   5.071  0.1443 -1.3123 -0.1940
  501MOL0     H66069   8.015  10.895   4.987 -2.7778 -0.5437 -0.4708
  501MOL0     H66070   7.976  10.789   5.119 -0.3856  1.6991  1.0291
  501MOL0     H66071   8.155  10.676   4.994  3.8024 -1.6477  1.0554
  501MOL0     H66072   8.213  10.715   5.148 -0.1050 -0.1136  0.1343
  501MOL0     H66073   8.268  10.931   4.943 -0.1472  1.0413  1.8939
  501MOL0     H66074   8.329  10.767   4.904  1.6187  0.7566 -0.4263
  501MOL0     H66075   8.424  10.959   5.112  2.9063  2.2981 -3.9940
  501MOL0     H66076   8.450  10.790   5.149  1.4687  0.4897  0.2713
  501MOL0     H66077   8.563  10.750   4.945  0.2016 -0.6097 -1.2388
  501MOL0     H66078   8.631  10.881   5.051  1.3903 -0.1834 -1.5412
  501MOL0     H66079   8.532  11.052   4.933 -2.0193  0.6740  1.0045
  501MOL0     H66080   8.466  10.957   4.793  0.4161 -3.9557 -0.5272
  501MOL0     H66081   8.756  10.977   4.863  0.9174 -3.2983  1.8909
  501MOL0     H66082   8.692  10.850   4.763 -1.7569  0.1646 -0.0049
  501MOL0     H66083   8.618  11.010   4.592  0.5601 -2.1310  0.1754
  501MOL0     H66084   8.794  11.034   4.648 -0.1964 -1.5405  1.4359
  501MOL0     H66085   8.854  11.266   4.791  0.8932  2.1489 -2.5349
  501MOL0     H66086   8.796  11.520   4.868 -0.2514 -3.3818  0.0566
  501MOL0     H66087   8.635  11.582   4.823 -1.2941 -1.7685 -1.3896
  501MOL0     H66088   8.868  11.543   4.636 -1.7904 -0.7875 -4.3100
  501MOL0     H66089   8.830  11.696   4.730 -0.6080  0.0349 -1.4607
  501MOL0     H66090   8.647  11.565   4.515  0.2813  0.0447  0.1579
  501MOL0     H66091   8.612  11.706   4.611  0.8030  0.6870  0.3330
  501MOL0     H66092   8.731  11.711   4.347  2.2455 -0.1961 -0.2438
  501MOL0     H66093   8.859  11.736   4.466  0.5954  0.2058  1.6315
  501MOL0     H66094   8.543  12.041   4.393  1.9923  2.2926  2.9059
  501MOL0     H66095   8.516  12.154   4.179  0.1945 -0.3020  2.6848
  501MOL0     H66096   8.685  11.943   3.657 -2.5991  0.1877 -3.4128
  501MOL0     H66097   8.648  12.025   3.433  1.1007 -3.9892  0.8790
  501MOL0     H66098   8.675  12.433   3.398  3.2333  0.7750 -1.1201
  501MOL0     H66099   8.539  12.311   3.342  0.4274 -0.8259 -0.5575
  501MOL0     H66100   8.729  12.509   3.200 -1.9006  2.2696  0.3049
  501MOL0     H66101   8.563  12.504   3.186 -0.1924 -0.9553  2.2911
  501MOL0     H66102   8.586  12.259   3.092  1.9257 -1.1236  0.9394
  501MOL0     H66103   8.739  12.319   3.034  0.5028  1.5168 -0.9024
  501MOL0     H66104   8.457  12.450   2.978 -0.9355 -2.6227 -0.8003
  501MOL0     H66105   8.615  12.530   2.950 -0.8233 -0.1801  2.0490
  501MOL0     H66106   8.680  12.324   2.813  1.1241  3.7132 -2.1267
  501MOL0     H66107   8.554  12.407   2.725  1.1662 -0.2300  0.1931
  501MOL0     H66108   8.384  12.246   2.794  0.2651  1.6293 -0.7926
  501MOL0     H66109   8.492  12.182   2.921  1.1273 -1.3617  0.2261
  501MOL0     H66110   8.548  12.180   2.614 -1.1215  0.1203  0.0839
  501MOL0     H66111   8.640  12.088   2.741  0.6142 -0.0275  0.2064
  501MOL0     H66112   8.438  11.939   2.787  1.6431 -1.1790 -0.2365
  501MOL0     H66113   8.481  11.935   2.617 -1.0282 -3.0941  0.8391
  501MOL0     H66114   8.864  12.384   3.543 -1.4381  0.0577 -4.7139
  501MOL0     H66115   8.904  12.297   3.776 -1.7100 -1.0450  3.7266
  501MOL0     H66116   8.887  11.959   4.060  1.3319  1.7301  2.2420
  501MOL0     H66117   8.878  11.825   4.255 -2.6658 -1.3499  1.5572
  501MOL0     H66118   8.086  11.018   5.449 -1.9591 -0.2834  2.2917
  501MOL0     H66119   7.915  11.095   5.570 -1.2618 -1.2225  0.4882
  501MOL0     H66120   7.534  10.793   5.668  1.5164  1.1743  2.3552
  501MOL0     H66121   7.317  10.749   5.762  0.0033  2.2178  5.1102
  501MOL0     H66122   7.105  10.744   5.828  1.8192 -0.0351 -0.5785
  501MOL0     H66123   7.084  10.765   5.653  3.7018  3.0997 -1.9993
  501MOL0     H66124   6.870  10.708   5.741 -1.7781  0.0059  1.5682
  501MOL0     H66125   6.886  10.828   5.875 -0.1380 -2.3351 -0.1960
  501MOL0     H66126   6.870  10.903   5.579  2.1670  0.2404  1.8355
  501MOL0     H66127   6.864  11.003   5.717  1.7722  0.1833 -2.3826
  501MOL0     H66128   6.655  10.832   5.778  4.1825 -1.3386  1.2675
  501MOL0     H66129   6.631  10.979   5.681 -0.9468 -0.7691 -2.4263
  501MOL0     H66130   6.542  10.642   5.441 -3.9568 -1.5346  3.2024
  501MOL0     H66131   7.202  11.166   5.683  0.2648 -0.5807 -2.5358
  501MOL0     H66132   7.429  11.203   5.603 -1.1099 -0.1132 -1.2706
  502MOL0     O66133   0.034   3.775   2.325  0.1168 -0.5363  0.0300
  502MOL0     C66134   0.009   3.732   2.211 -0.4862 -0.6838  0.5623
  502MOL0     O66135  -0.115   3.675   2.163 -1.0273 -0.3339 -0.8266
  502MOL0     C66136  -0.217   3.716   2.243  0.2037 -0.2847 -0.3210
  502MOL0     C66137  -0.294   3.615   2.307  0.1558  0.4893 -0.1207
  502MOL0     C66138  -0.390   3.647   2.406 -0.0919 -0.1829  0.0657
  502MOL0     C66139  -0.409   3.783   2.436  0.2145 -0.2027  0.2399
  502MOL0     O66140  -0.513   3.804   2.523  0.4052  0.5030 -0.2365
  502MOL0     C66141  -0.557   3.932   2.554 -1.2968 -0.1839 -0.4349
  502MOL0     C66142  -0.691   3.934   2.633 -0.1927 -0.3806 -0.2613
  502MOL0     C66143  -0.739   4.078   2.661 -0.9083 -0.4809  0.1336
  502MOL0     C66144  -0.875   4.078   2.722  0.0479  0.2846  0.6763
  502MOL0     C66145  -0.938   4.216   2.740 -0.0207 -0.2805 -0.0916
  502MOL0     C66146  -0.985   4.271   2.606 -0.2925  0.4283  0.0157
  502MOL0     C66147  -1.067   4.399   2.633 -0.5807  0.8237  0.0588
  502MOL0     C66148  -0.990   4.525   2.666  0.1672  0.3466 -0.3227
  502MOL0     N66149  -1.094   4.630   2.682 -0.3764  0.3155  0.0065
  502MOL0     C66150  -1.140   4.661   2.812  1.1610  1.2459 -0.1030
  502MOL0     C66151  -1.241   4.748   2.787  0.3978  0.0562  0.0558
  502MOL0     C66152  -1.327   4.808   2.895 -0.5428  0.0811  0.0110
  502MOL0     C66153  -1.438   4.712   2.944  0.2399 -0.0623 -0.0026
  502MOL0     C66154  -1.570   4.738   2.868 -0.1024  0.1727 -0.0266
  502MOL0     C66155  -1.622   4.876   2.884 -0.4140  0.9969  0.7892
  502MOL0     O66156  -1.757   4.880   2.835 -0.2761  0.1322 -0.5690
  502MOL0     C66157  -1.864   4.828   2.908 -0.3609  0.1517  0.6119
  502MOL0     C66158  -1.851   4.790   3.046  0.4435 -0.7949 -0.0696
  502MOL0     C66159  -1.958   4.739   3.117 -0.5434  0.3286 -0.4119
  502MOL0     C66160  -2.078   4.728   3.059  0.1666 -0.2942 -0.4277
  502MOL0     C66161  -2.191   4.665   3.125 -0.4921  0.6625  0.9053
  502MOL0     O66162  -2.219   4.707   3.250  0.1551  0.6242 -0.2646
  502MOL0     C66163  -2.328   4.651   3.311  0.4803 -0.9012 -0.1875
  502MOL0     C66164  -2.459   4.715   3.307  0.1412 -0.5883 -0.3223
  502MOL0     C66165  -2.560   4.649   3.376 -0.0979 -0.6213 -0.3702
  502MOL0     C66166  -2.537   4.533   3.459  0.5624  0.0903  0.9502
  502MOL0     O66167  -2.633   4.466   3.516 -0.3662  0.4395  0.0585
  502MOL0     C66168  -2.754   4.446   3.431  0.5351 -0.6707  0.8980
  502MOL0     C66169  -2.853   4.364   3.519  0.1352  0.3622 -0.0133
  502MOL0     C66170  -2.956   4.286   3.430  0.7763  0.1030  1.0471
  502MOL0     C66171  -3.075   4.241   3.510 -0.3505 -0.4130  0.9159
  502MOL0     C66172  -3.208   4.326   3.476  0.2484  0.4480  0.1483
  502MOL0     C66173  -3.177   4.479   3.491  0.0322  0.7338 -0.2861
  502MOL0     C66174  -3.311   4.548   3.450 -0.3446 -1.0314 -0.4117
  502MOL0     C66175  -3.292   4.682   3.374  0.1300  0.7783 -0.2773
  502MOL0    Cl66176  -3.177   4.641   3.233 -0.3815 -0.2036 -0.2576
  502MOL0     C66177  -2.409   4.479   3.472  0.2174 -0.1129  0.6143
  502MOL0     C66178  -2.304   4.540   3.396 -0.7666  0.9643  0.8506
  502MOL0     O66179  -2.250   4.578   3.063  0.1894  0.3898  0.2074
  502MOL0     C66180  -2.103   4.770   2.927 -0.5254 -0.2043 -0.8838
  502MOL0     C66181  -1.994   4.821   2.859  0.0760  0.5559  0.1685
  502MOL0     N66182  -1.256   4.769   2.649  0.6943 -0.7553  0.1420
  502MOL0     N66183  -1.158   4.705   2.586  0.3726  0.2024  0.4345
  502MOL0     C66184  -0.331   3.886   2.370  0.7377  0.3028  0.0024
  502MOL0     C66185  -0.244   3.851   2.262  0.4924  0.2089  0.2899
  502MOL0     C66186   0.125   3.740   2.124 -0.3507  0.0882  1.3051
  502MOL0     C66187   0.240   3.827   2.137  1.3304 -0.2466 -0.2409
  502MOL0     C66188   0.350   3.820   2.050  0.6926 -0.3834  0.3767
  502MOL0     C66189   0.342   3.734   1.941 -0.3474 -0.2128 -0.1068
  502MOL0     O66190   0.475   3.736   1.890  1.1418 -0.1409 -0.1976
  502MOL0     C66191   0.481   3.720   1.750 -0.4216  0.4146  0.4592
  502MOL0     C66192   0.631   3.698   1.705 -0.6149  0.6222  0.7192
  502MOL0     C66193   0.700   3.833   1.716 -0.2350  1.1191 -0.0175
  502MOL0     C66194   0.835   3.814   1.656 -0.0215 -0.0707 -0.0759
  502MOL0     C66195   0.895   3.944   1.644  0.0842 -0.5818 -0.5182
  502MOL0     C66196   0.959   4.051   1.631  1.3579 -0.4124 -0.5611
  502MOL0     C66197   0.229   3.645   1.919  0.1827  0.0789 -0.8744
  502MOL0     C66198   0.124   3.649   2.016 -0.6499 -0.2711 -0.2576
  502MOL0     H66199  -0.278   3.510   2.283 -0.1287  0.0821  1.3569
  502MOL0     H66200  -0.449   3.569   2.453 -0.1872 -1.0193 -1.3979
  502MOL0     H66201  -0.576   3.979   2.457 -3.7365  0.1789  0.1623
  502MOL0     H66202  -0.481   3.983   2.613 -0.5011  0.5950 -2.0566
  502MOL0     H66203  -0.676   3.871   2.720  0.1337 -1.3094 -0.9704
  502MOL0     H66204  -0.766   3.899   2.561  0.8681  1.0636 -2.1883
  502MOL0     H66205  -0.754   4.133   2.568 -2.3222 -1.5661 -0.3157
  502MOL0     H66206  -0.668   4.134   2.723 -1.0299  0.6839 -0.7583
  502MOL0     H66207  -0.942   4.016   2.661 -3.1718 -0.8199  4.8799
  502MOL0     H66208  -0.863   4.035   2.821 -0.1167  0.2778  0.6921
  502MOL0     H66209  -0.871   4.291   2.783 -2.7704  1.9970  0.4956
  502MOL0     H66210  -1.028   4.207   2.802  0.5378  1.5832  1.0382
  502MOL0     H66211  -1.042   4.198   2.548 -0.4070  0.8736 -0.4441
  502MOL0     H66212  -0.895   4.289   2.547 -0.6672 -1.7403 -1.2939
  502MOL0     H66213  -1.121   4.414   2.539 -1.4052 -3.9327 -0.5120
  502MOL0     H66214  -1.150   4.397   2.705 -2.6197  2.2750 -2.0941
  502MOL0     H66215  -0.923   4.548   2.582  0.7651 -3.0336 -0.9105
  502MOL0     H66216  -0.916   4.515   2.746  0.5637 -2.1618 -0.9326
  502MOL0     H66217  -1.103   4.615   2.903  2.1749 -1.0250 -1.5744
  502MOL0     H66218  -1.363   4.900   2.849  0.5693  0.1853 -0.7006
  502MOL0     H66219  -1.265   4.821   2.984  0.8854 -0.8646 -0.8029
  502MOL0     H66220  -1.461   4.726   3.051  3.8887  0.4307  0.8491
  502MOL0     H66221  -1.402   4.609   2.945  3.5945  0.9574  2.6698
  502MOL0     H66222  -1.549   4.725   2.762 -1.5963 -1.0770 -0.2003
  502MOL0     H66223  -1.639   4.665   2.910 -0.4654  2.3315  3.6268
  502MOL0     H66224  -1.567   4.959   2.839  1.7208 -1.1199 -0.7293
  502MOL0     H66225  -1.618   4.904   2.990  1.4771  0.9684  0.7614
  502MOL0     H66226  -1.757   4.797   3.100  0.0641 -3.6274  1.1402
  502MOL0     H66227  -1.938   4.711   3.219  0.2395 -3.9786 -1.5440
  502MOL0     H66228  -2.467   4.814   3.262 -1.0210 -0.2743  0.5397
  502MOL0     H66229  -2.650   4.706   3.392  0.5259  0.4512 -0.6177
  502MOL0     H66230  -2.734   4.391   3.338  2.1611  0.1898  0.7111
  502MOL0     H66231  -2.799   4.540   3.399  1.5318 -1.1134 -2.2066
  502MOL0     H66232  -2.901   4.433   3.588  0.4999  0.1607  0.4408
  502MOL0     H66233  -2.814   4.289   3.588 -4.3405 -3.1146 -0.7204
  502MOL0     H66234  -2.915   4.200   3.378  2.0637  1.0152  0.5044
  502MOL0     H66235  -2.994   4.347   3.347  1.3131 -2.9080 -1.5696
  502MOL0     H66236  -3.102   4.138   3.484 -1.3682 -1.2955  4.7256
  502MOL0     H66237  -3.059   4.234   3.618 -0.3296  0.9584  1.0134
  502MOL0     H66238  -3.294   4.299   3.539 -0.3572  1.9586  0.0180
  502MOL0     H66239  -3.233   4.305   3.372  1.6521  2.1511 -0.5793
  502MOL0     H66240  -3.095   4.529   3.440 -1.2295  3.1522 -0.0912
  502MOL0     H66241  -3.167   4.492   3.600 -0.0085 -4.4077  0.5629
  502MOL0     H66242  -3.371   4.480   3.388 -2.8704  0.7017 -0.0310
  502MOL0     H66243  -3.371   4.571   3.539 -0.0378  3.7114 -1.1830
  502MOL0     H66244  -3.246   4.749   3.447  0.6365 -0.5974  0.7113
  502MOL0     H66245  -3.388   4.724   3.340  0.8425  2.6836 -0.0602
  502MOL0     H66246  -2.393   4.389   3.530  1.6130 -1.5065 -1.7688
  502MOL0     H66247  -2.208   4.497   3.422 -2.6216 -2.0518  3.3963
  502MOL0     H66248  -2.199   4.766   2.878 -0.4456  1.0912 -1.1722
  502MOL0     H66249  -2.004   4.854   2.756  1.5697 -0.6906 -0.4153
  502MOL0     H66250  -0.351   3.991   2.386  0.3769  0.2519 -0.0943
  502MOL0     H66251  -0.194   3.925   2.201  0.1991  0.1153 -0.0658
  502MOL0     H66252   0.251   3.892   2.223 -0.9287 -1.6842  1.2552
  502MOL0     H66253   0.432   3.888   2.069  2.8621 -1.7284 -3.2691
  502MOL0     H66254   0.414   3.786   1.694  1.2800  2.0265  0.2607
  502MOL0     H66255   0.437   3.621   1.733  3.8408 -1.2871 -2.3363
  502MOL0     H66256   0.686   3.623   1.762 -1.1658 -2.8054 -2.8383
  502MOL0     H66257   0.625   3.667   1.601 -1.1807 -0.7631  1.1449
  502MOL0     H66258   0.707   3.855   1.823 -2.5378 -4.8692  1.7691
  502MOL0     H66259   0.644   3.912   1.663 -0.2657 -0.6081 -2.7560
  502MOL0     H66260   0.892   3.750   1.723 -2.0946  0.3296  2.2090
  502MOL0     H66261   0.821   3.764   1.559 -3.7628  0.5348 -0.0080
  502MOL0     H66262   0.989   4.154   1.621 -1.2286  0.2547 -2.2933
  502MOL0     H66263   0.249   3.556   1.859 -0.8718 -1.0999  0.4582
  502MOL0     H66264   0.062   3.560   2.015  1.1772 -1.6832  1.7485
  503MOL0     O66265   1.798   9.953   2.090 -0.1567 -0.4656 -0.2595
  503MOL0     C66266   1.696   9.900   2.137 -0.0395 -0.6916 -0.0808
  503MOL0     O66267   1.684   9.849   2.263  0.2246  0.3245 -0.0763
  503MOL0     C66268   1.789   9.796   2.331  0.4773 -0.3785 -0.6128
  503MOL0     C66269   1.812   9.836   2.469  0.3735  0.9558  0.7968
  503MOL0     C66270   1.923   9.783   2.529 -0.5507 -0.9773  0.2023
  503MOL0     C66271   2.026   9.705   2.464 -0.4052 -1.0391 -0.2760
  503MOL0     O66272   2.139   9.644   2.523 -0.1695  0.0978  0.3718
  503MOL0     C66273   2.168   9.674   2.659  0.1861 -0.9119 -0.0747
  503MOL0     C66274   2.295   9.593   2.692  0.7258  0.0866 -0.1666
  503MOL0     C66275   2.350   9.626   2.831  0.3848 -0.6997  0.2325
  503MOL0     C66276   2.252   9.610   2.946  0.3097  0.7615  1.0947
  503MOL0     C66277   2.238   9.469   3.004  0.3535  0.1382  0.1566
  503MOL0     C66278   2.364   9.381   3.002  0.2114  0.0945 -0.2946
  503MOL0     C66279   2.364   9.243   3.073  1.1247  0.6372 -1.0775
  503MOL0     C66280   2.262   9.226   3.189 -0.4547 -0.0943  0.0611
  503MOL0     N66281   2.265   9.090   3.248 -0.0984 -0.1560  0.9377
  503MOL0     C66282   2.358   9.033   3.329 -0.0250 -0.4324 -0.3306
  503MOL0     C66283   2.334   8.902   3.343  0.0355 -0.1431 -0.5424
  503MOL0     C66284   2.435   8.811   3.398 -0.5106  0.4389 -0.1879
  503MOL0     C66285   2.470   8.829   3.545  0.1256 -0.3153 -0.8732
  503MOL0     C66286   2.346   8.841   3.639 -0.1035 -0.3427  0.4078
  503MOL0     C66287   2.237   8.734   3.609  1.0996  0.4628  0.2291
  503MOL0     O66288   2.278   8.603   3.581  0.0271  0.1323  0.9535
  503MOL0     C66289   2.180   8.508   3.552  0.5204 -0.0335  0.1214
  503MOL0     C66290   2.228   8.378   3.526  1.0801 -1.3421  0.3231
  503MOL0     C66291   2.129   8.276   3.515 -0.1732 -0.9087  0.5528
  503MOL0     C66292   1.987   8.300   3.511  1.0413 -0.7347 -0.7328
  503MOL0     C66293   1.890   8.190   3.499  0.0081  0.2784 -0.4116
  503MOL0     O66294   1.755   8.217   3.489  0.4003 -0.0610  0.6702
  503MOL0     C66295   1.658   8.124   3.517 -1.3013  0.3876 -0.2530
  503MOL0     C66296   1.554   8.134   3.427 -1.0321 -0.3049 -0.0339
  503MOL0     C66297   1.434   8.060   3.445  0.1072  0.3915  0.7551
  503MOL0     C66298   1.422   7.971   3.552  0.3673 -0.1534  0.6418
  503MOL0     O66299   1.303   7.908   3.570  0.5287 -0.0135  0.3221
  503MOL0     C66300   1.301   7.798   3.665 -0.2352  0.6436 -0.5106
  503MOL0     C66301   1.166   7.716   3.657 -0.6405 -0.6399 -0.0738
  503MOL0     C66302   1.043   7.802   3.682 -0.4190 -0.7272 -0.5384
  503MOL0     C66303   0.985   7.888   3.564 -0.6370  0.4223 -0.0066
  503MOL0     C66304   0.866   7.967   3.611 -1.0130 -0.1912 -0.4184
  503MOL0     C66305   0.796   8.062   3.507  1.1042  1.0085 -0.1799
  503MOL0     C66306   0.658   8.077   3.556  0.1096 -0.2132 -0.2763
  503MOL0     C66307   0.578   8.155   3.446 -0.3863  0.1787 -0.8932
  503MOL0    Cl66308   0.657   8.308   3.410  0.5565 -0.5643 -0.1171
  503MOL0     C66309   1.532   7.954   3.628 -0.1016  0.4620 -0.9859
  503MOL0     C66310   1.645   8.036   3.624  0.2823  0.2878  0.0654
  503MOL0     O66311   1.931   8.074   3.517  0.5571  0.3892 -0.7124
  503MOL0     C66312   1.945   8.433   3.526  0.5381 -0.1917 -0.3151
  503MOL0     C66313   2.037   8.534   3.549 -0.7238 -0.0029 -0.1787
  503MOL0     N66314   2.210   8.887   3.276 -0.1301 -0.4862 -0.5392
  503MOL0     N66315   2.167   8.998   3.225 -0.2161 -0.0613 -0.0994
  503MOL0     C66316   1.998   9.674   2.332 -0.3208  0.3737 -0.1259
  503MOL0     C66317   1.880   9.708   2.270 -0.3796  0.1281 -1.0996
  503MOL0     C66318   1.568   9.923   2.070  0.8867 -0.3669  0.6314
  503MOL0     C66319   1.572   9.971   1.942  0.1043  0.8281  0.5358
  503MOL0     C66320   1.459   9.988   1.869 -0.5416  0.4468 -0.6996
  503MOL0     C66321   1.338   9.955   1.923  0.1307 -0.2241 -0.2074
  503MOL0     O66322   1.227   9.967   1.842  0.0361  0.2822 -0.1687
  503MOL0     C66323   1.114   9.876   1.851 -0.4965 -0.7650 -0.4357
  503MOL0     C66324   1.028   9.909   1.730  0.1642 -0.5146  0.1709
  503MOL0     C66325   1.079   9.841   1.603  0.6210 -0.7001 -0.3236
  503MOL0     C66326   1.140   9.932   1.493 -0.0129  0.4476 -0.3866
  503MOL0     C66327   1.041   9.998   1.405  0.0860  0.1324  0.6256
  503MOL0     C66328   0.964  10.072   1.347 -1.3103  0.3155 -0.3336
  503MOL0     C66329   1.334   9.890   2.047  0.4311  0.4343 -0.2342
  503MOL0     C66330   1.448   9.879   2.124 -0.3819 -0.3201  0.7953
  503MOL0     H66331   1.739   9.906   2.508 -2.2922  0.9240 -3.4910
  503MOL0     H66332   1.941   9.811   2.633  1.1107  0.3693 -0.3951
  503MOL0     H66333   2.082   9.656   2.724  1.1394  0.1962  1.5665
  503MOL0     H66334   2.197   9.779   2.674  0.3647 -0.6378 -2.1078
  503MOL0     H66335   2.370   9.619   2.618 -1.9990  1.5629 -2.6411
  503MOL0     H66336   2.269   9.488   2.677 -0.0394  0.4374 -1.4742
  503MOL0     H66337   2.378   9.732   2.836 -2.0509 -0.0250  1.2714
  503MOL0     H66338   2.442   9.568   2.831 -0.7464 -2.7482 -2.6964
  503MOL0     H66339   2.296   9.668   3.028  0.3673  0.9043  0.9648
  503MOL0     H66340   2.160   9.661   2.917  1.1344  2.4767  1.3638
  503MOL0     H66341   2.159   9.416   2.950  0.2934  0.9775 -0.6071
  503MOL0     H66342   2.201   9.475   3.106  3.2148 -2.1772  1.4636
  503MOL0     H66343   2.450   9.440   3.036 -0.1423  0.3883  0.0937
  503MOL0     H66344   2.382   9.358   2.896 -3.3970 -0.0551 -1.0010
  503MOL0     H66345   2.332   9.166   3.002  2.0993 -0.5546 -0.2534
  503MOL0     H66346   2.465   9.212   3.100  0.2781 -0.5832  0.8512
  503MOL0     H66347   2.159   9.250   3.161 -0.5332  0.3605  0.7234
  503MOL0     H66348   2.282   9.302   3.264 -0.7803  1.7913 -1.6692
  503MOL0     H66349   2.446   9.087   3.365 -0.2641 -1.2050  1.5304
  503MOL0     H66350   2.529   8.829   3.345 -1.9413  1.0351 -2.6694
  503MOL0     H66351   2.403   8.707   3.386 -0.8561  0.6083 -0.7663
  503MOL0     H66352   2.526   8.922   3.559 -1.5850  0.6018  0.1976
  503MOL0     H66353   2.533   8.747   3.579 -0.6231 -1.7255 -2.7313
  503MOL0     H66354   2.379   8.826   3.742  1.2166 -0.6354 -0.0457
  503MOL0     H66355   2.303   8.942   3.634 -2.4994 -1.2380  1.2007
  503MOL0     H66356   2.178   8.774   3.525  0.4072 -2.5508 -0.8531
  503MOL0     H66357   2.169   8.726   3.695  1.8624 -2.6673  0.6439
  503MOL0     H66358   2.335   8.361   3.527  0.9770 -2.0166  0.2426
  503MOL0     H66359   2.167   8.175   3.504  0.8278 -0.4565 -0.3704
  503MOL0     H66360   1.567   8.203   3.344  2.8707 -1.3858 -0.5037
  503MOL0     H66361   1.348   8.080   3.382  1.4900  0.3782 -1.2229
  503MOL0     H66362   1.320   7.843   3.763  0.1589 -1.6999  0.5531
  503MOL0     H66363   1.385   7.730   3.650  1.9826  2.5936  2.0246
  503MOL0     H66364   1.173   7.630   3.724 -0.3693 -1.1057 -0.6973
  503MOL0     H66365   1.153   7.675   3.557  2.8353 -0.7241 -0.6264
  503MOL0     H66366   1.073   7.856   3.771 -0.1014 -1.6773 -0.0541
  503MOL0     H66367   0.963   7.738   3.721 -0.6383 -1.3228 -1.8951
  503MOL0     H66368   1.073   7.945   3.533  0.4669 -1.1538  0.0917
  503MOL0     H66369   0.957   7.829   3.477 -1.2727  1.8210 -0.7727
  503MOL0     H66370   0.901   8.025   3.697  1.4750 -0.8682 -0.9018
  503MOL0     H66371   0.790   7.902   3.655 -0.5340 -0.3976  0.1201
  503MOL0     H66372   0.791   8.013   3.410 -1.5307  0.0041  0.3678
  503MOL0     H66373   0.852   8.156   3.508 -1.1162  2.3901  0.5044
  503MOL0     H66374   0.617   7.977   3.571  2.1734 -1.0867 -0.1282
  503MOL0     H66375   0.667   8.124   3.654 -1.0711  0.5124 -0.5032
  503MOL0     H66376   0.476   8.175   3.481 -1.1138 -0.9237 -2.2862
  503MOL0     H66377   0.565   8.101   3.351 -1.0760  1.7245 -1.7155
  503MOL0     H66378   1.519   7.892   3.716  2.3619  0.0629 -0.8321
  503MOL0     H66379   1.720   8.039   3.702 -0.3175  1.5388  0.6058
  503MOL0     H66380   1.841   8.461   3.522  0.2273 -0.9760  1.1421
  503MOL0     H66381   1.987   8.630   3.554  1.1469  1.0946 -1.4593
  503MOL0     H66382   2.063   9.614   2.268 -1.5735 -2.5505  1.1693
  503MOL0     H66383   1.868   9.666   2.171  0.1341  0.3280 -1.2498
  503MOL0     H66384   1.667   9.981   1.890 -1.0570  1.0740 -1.6679
  503MOL0     H66385   1.458  10.023   1.766  1.3347  0.7703 -0.6296
  503MOL0     H66386   1.050   9.895   1.938 -0.9812  0.5538 -1.0434
  503MOL0     H66387   1.152   9.774   1.851  3.8255  0.6418 -1.8093
  503MOL0     H66388   0.930   9.873   1.763  0.8181 -1.2371  1.4177
  503MOL0     H66389   1.028  10.017   1.715  0.3119 -0.9015 -3.5722
  503MOL0     H66390   0.983   9.806   1.562 -1.1638  2.8524  0.4873
  503MOL0     H66391   1.144   9.759   1.638 -0.5778 -1.2258  0.7388
  503MOL0     H66392   1.203  10.002   1.548 -1.7194 -1.9709  5.5602
  503MOL0     H66393   1.193   9.864   1.426  0.2146 -1.8801  1.9809
  503MOL0     H66394   0.884  10.139   1.321 -1.5292  1.3061  2.4701
  503MOL0     H66395   1.244   9.852   2.093  0.4496  2.8109  1.9815
  503MOL0     H66396   1.431   9.825   2.216  1.4234 -0.2215  1.2087
  504MOL0     O66397   8.366   6.695   2.871 -0.4584  0.0383  0.3920
  504MOL0     C66398   8.397   6.738   2.759 -0.5706  0.7519  0.0554
  504MOL0     O66399   8.309   6.781   2.671 -1.0175  0.0640  0.6358
  504MOL0     C66400   8.174   6.759   2.689  0.5404 -1.5453  0.9677
  504MOL0     C66401   8.096   6.823   2.781  0.9057 -0.1240 -0.3693
  504MOL0     C66402   7.951   6.803   2.785 -0.4917  0.3408 -0.0030
  504MOL0     C66403   7.890   6.717   2.689  0.7112 -0.1411  0.9758
  504MOL0     O66404   7.755   6.687   2.699  0.1124 -0.3623 -0.2958
  504MOL0     C66405   7.672   6.699   2.581 -0.3733  0.9123 -0.0515
  504MOL0     C66406   7.663   6.853   2.545 -0.0323 -0.1703  0.2130
  504MOL0     C66407   7.603   6.924   2.666 -0.5993 -1.6854 -0.2346
  504MOL0     C66408   7.592   7.073   2.638 -1.1028 -0.5291  0.2071
  504MOL0     C66409   7.486   7.135   2.731 -0.0672 -0.3366 -0.4333
  504MOL0     C66410   7.475   7.284   2.698 -0.1436 -0.4942 -0.4763
  504MOL0     C66411   7.370   7.364   2.781 -0.6270 -0.5059  0.5203
  504MOL0     C66412   7.229   7.310   2.764 -0.4822 -0.7526  0.1687
  504MOL0     N66413   7.128   7.391   2.830  0.8487 -0.6489 -0.3001
  504MOL0     C66414   7.102   7.385   2.963  0.8937  0.2366 -0.1561
  504MOL0     C66415   7.011   7.491   2.978  0.6557 -0.3018 -0.3405
  504MOL0     C66416   6.942   7.530   3.107 -0.1178  0.0332 -0.7380
  504MOL0     C66417   6.807   7.610   3.082 -0.2531 -0.7748 -0.6831
  504MOL0     C66418   6.817   7.759   3.068 -0.1207  0.6089 -0.4143
  504MOL0     C66419   6.689   7.835   3.048  0.3285  0.4751  0.1218
  504MOL0     O66420   6.627   7.880   3.171 -0.4441  0.3936 -0.0938
  504MOL0     C66421   6.513   7.958   3.179 -0.3796  0.5739 -0.7362
  504MOL0     C66422   6.426   7.976   3.079  0.0269  0.7377  0.6935
  504MOL0     C66423   6.305   8.039   3.103 -0.4631 -0.0826 -0.0381
  504MOL0     C66424   6.266   8.074   3.233  0.3447  0.3610 -0.0216
  504MOL0     C66425   6.131   8.123   3.263  0.0321  0.0228 -1.0078
  504MOL0     O66426   6.037   8.118   3.158 -0.0874  0.0574  0.4489
  504MOL0     C66427   5.908   8.152   3.190 -1.1123  0.5490 -0.9436
  504MOL0     C66428   5.834   8.062   3.266 -0.5275  0.6130  0.1756
  504MOL0     C66429   5.702   8.093   3.290  1.1167 -0.9021  0.0424
  504MOL0     C66430   5.642   8.216   3.244 -0.1436  0.0748  0.2539
  504MOL0     O66431   5.507   8.255   3.256 -0.0468  0.3757  0.9194
  504MOL0     C66432   5.422   8.183   3.350  0.0989  0.0135  0.1411
  504MOL0     C66433   5.269   8.203   3.336 -0.3299 -0.2130 -0.1120
  504MOL0     C66434   5.196   8.121   3.449  0.3107  0.1953  0.3899
  504MOL0     C66435   5.048   8.139   3.422  0.2035 -0.3338  0.5165
  504MOL0     C66436   4.959   8.066   3.524 -0.4908  0.6423  0.0052
  504MOL0     C66437   4.956   8.119   3.667 -0.1845  0.4783 -0.3562
  504MOL0     C66438   4.917   8.268   3.661  0.1754 -0.7353 -0.5967
  504MOL0     C66439   4.765   8.292   3.653 -1.3831 -0.6992  0.0030
  504MOL0    Cl66440   4.754   8.475   3.670  0.1033  0.1175  0.0756
  504MOL0     C66441   5.716   8.301   3.168 -0.4531 -0.5944 -0.5776
  504MOL0     C66442   5.847   8.267   3.136 -1.1691  0.7613 -0.3424
  504MOL0     O66443   6.100   8.151   3.380  0.3442  0.0475  0.3579
  504MOL0     C66444   6.361   8.060   3.341 -0.2700  0.1510  0.5395
  504MOL0     C66445   6.487   8.004   3.309  0.1376  0.5859  1.4565
  504MOL0     N66446   7.002   7.562   2.861  0.6877  0.1855 -0.5323
  504MOL0     N66447   7.069   7.498   2.772  1.2051 -0.3054  0.3641
  504MOL0     C66448   7.977   6.650   2.610 -0.2866  0.9262 -0.3809
  504MOL0     C66449   8.113   6.677   2.599  0.8311 -0.3853 -0.1846
  504MOL0     C66450   8.543   6.734   2.723 -0.0313  0.6871  0.3476
  504MOL0     C66451   8.643   6.712   2.818  0.0484  0.7457 -0.0879
  504MOL0     C66452   8.764   6.666   2.774  0.3217 -0.6175  0.9945
  504MOL0     C66453   8.799   6.652   2.638  0.5484 -0.1249 -0.1710
  504MOL0     O66454   8.917   6.606   2.595  0.6370 -0.4362  0.1666
  504MOL0     C66455   8.968   6.491   2.656 -1.1116 -1.1144 -0.1627
  504MOL0     C66456   9.058   6.446   2.549  0.2233 -0.4746  0.8341
  504MOL0     C66457   9.140   6.313   2.578  0.4285  0.5429 -0.2233
  504MOL0     C66458   9.267   6.298   2.481  0.1621  0.3811  1.0157
  504MOL0     C66459   9.356   6.189   2.527  0.0403  1.1704 -0.0149
  504MOL0     C66460   9.423   6.090   2.552  1.0423 -0.3622  0.5913
  504MOL0     C66461   8.711   6.689   2.540  1.7266 -0.5892  0.1573
  504MOL0     C66462   8.582   6.724   2.580 -0.1509 -0.1154  0.2581
  504MOL0     H66463   8.139   6.897   2.847  0.5985  1.4527 -1.8631
  504MOL0     H66464   7.886   6.853   2.856  0.0455  2.4817 -0.9266
  504MOL0     H66465   7.573   6.661   2.606 -1.2496  3.4541  0.7011
  504MOL0     H66466   7.723   6.647   2.500  0.5907 -2.5877  2.5519
  504MOL0     H66467   7.598   6.856   2.457  1.6647 -4.0508 -1.4150
  504MOL0     H66468   7.759   6.896   2.515 -0.4880 -0.6432 -2.1492
  504MOL0     H66469   7.669   6.912   2.752  1.0237  3.3004 -0.4494
  504MOL0     H66470   7.502   6.883   2.671 -1.1079 -0.7022 -1.7799
  504MOL0     H66471   7.681   7.133   2.659 -2.4793  1.6073  0.2595
  504MOL0     H66472   7.569   7.084   2.532  0.2233 -2.1786 -0.2899
  504MOL0     H66473   7.512   7.144   2.836 -0.9723  2.0941 -0.3369
  504MOL0     H66474   7.392   7.081   2.713 -1.0773  0.4438  2.1080
  504MOL0     H66475   7.456   7.300   2.591 -0.9053 -1.1217 -0.4489
  504MOL0     H66476   7.572   7.327   2.722  0.2845 -1.7397  0.0827
  504MOL0     H66477   7.397   7.348   2.886  2.7278  0.1686 -0.1079
  504MOL0     H66478   7.367   7.471   2.759  0.4585 -0.1693  1.8705
  504MOL0     H66479   7.228   7.207   2.800 -3.3005 -1.1182 -0.7035
  504MOL0     H66480   7.211   7.308   2.657 -0.2464 -0.1927  0.1145
  504MOL0     H66481   7.137   7.317   3.040 -2.2291 -1.4075 -0.0346
  504MOL0     H66482   7.008   7.593   3.167  1.2772 -1.8070 -0.2547
  504MOL0     H66483   6.924   7.438   3.163  1.2744  1.3404  2.1077
  504MOL0     H66484   6.738   7.586   3.163  0.6226  2.1981  1.1031
  504MOL0     H66485   6.761   7.579   2.988  1.9505 -0.4417 -1.9545
  504MOL0     H66486   6.861   7.794   3.162 -0.6995 -0.7962  0.4134
  504MOL0     H66487   6.882   7.786   2.985 -0.4156 -2.4264 -1.7753
  504MOL0     H66488   6.618   7.777   2.988  0.6877  1.6032 -1.4508
  504MOL0     H66489   6.717   7.923   2.989  0.9423 -0.1080 -0.4670
  504MOL0     H66490   6.445   7.929   2.983 -1.1665  1.9062 -0.1546
  504MOL0     H66491   6.231   8.043   3.023 -0.3234 -0.3848 -0.1846
  504MOL0     H66492   5.884   7.967   3.282  0.2284  1.3005  2.1619
  504MOL0     H66493   5.648   8.009   3.334  3.7534 -2.8788 -0.2308
  504MOL0     H66494   5.454   8.205   3.453 -3.4083 -1.5442  1.7257
  504MOL0     H66495   5.438   8.075   3.354 -2.4281 -0.4227  0.0969
  504MOL0     H66496   5.246   8.169   3.235 -0.6048 -1.9580  0.4918
  504MOL0     H66497   5.243   8.309   3.342 -0.0387 -0.1677  0.4670
  504MOL0     H66498   5.227   8.160   3.546 -1.3351 -0.8455  1.3970
  504MOL0     H66499   5.219   8.014   3.445  0.8099  0.2710  1.0233
  504MOL0     H66500   5.029   8.245   3.406  1.9818 -0.0852 -0.2242
  504MOL0     H66501   5.015   8.098   3.326  1.8961 -1.5458  0.3952
  504MOL0     H66502   4.982   7.959   3.514 -1.0844  0.6789 -2.4488
  504MOL0     H66503   4.854   8.077   3.494 -0.6877  0.4957  0.6286
  504MOL0     H66504   5.059   8.119   3.705 -0.0740  0.6181 -0.6504
  504MOL0     H66505   4.899   8.053   3.733  1.3467 -1.2303 -0.6543
  504MOL0     H66506   4.961   8.305   3.755  1.4031 -3.2280 -0.0974
  504MOL0     H66507   4.960   8.320   3.575 -0.3075  0.3319 -0.2010
  504MOL0     H66508   4.726   8.239   3.740  3.0565 -2.4066  1.2590
  504MOL0     H66509   4.730   8.267   3.552 -0.3636 -0.0240 -0.5432
  504MOL0     H66510   5.675   8.391   3.124 -0.7323 -0.0573  0.7211
  504MOL0     H66511   5.895   8.325   3.058  0.9922 -0.4835 -0.0123
  504MOL0     H66512   6.332   8.103   3.436  2.2928 -0.2067  1.5799
  504MOL0     H66513   6.550   7.970   3.390 -0.5597 -0.1420  1.7073
  504MOL0     H66514   7.930   6.584   2.538 -0.9042  1.1889 -0.2279
  504MOL0     H66515   8.178   6.645   2.518  0.7895  2.3715 -1.4006
  504MOL0     H66516   8.617   6.703   2.923  1.8330 -2.2541  0.2101
  504MOL0     H66517   8.838   6.643   2.850  0.4361  4.3044  2.7271
  504MOL0     H66518   8.896   6.412   2.681 -0.6116 -1.9565 -1.3245
  504MOL0     H66519   9.019   6.519   2.749 -0.0461 -0.2034 -1.0032
  504MOL0     H66520   9.005   6.428   2.455  0.8576 -3.3945  0.9396
  504MOL0     H66521   9.126   6.530   2.531 -2.4524  2.0777  1.7981
  504MOL0     H66522   9.075   6.225   2.576 -0.9899  1.4413  2.0934
  504MOL0     H66523   9.179   6.307   2.680 -1.3410 -0.1915  0.4445
  504MOL0     H66524   9.229   6.281   2.380  2.0909  2.8482 -0.2140
  504MOL0     H66525   9.323   6.391   2.487 -1.1187  1.1658  1.3527
  504MOL0     H66526   9.488   6.007   2.571  1.4413 -0.2934 -0.4041
  504MOL0     H66527   8.747   6.674   2.438 -2.3022  1.6369 -1.8471
  504MOL0     H66528   8.506   6.736   2.504  0.5061  3.0192 -0.0461
  505MOL0     O66529   3.654   9.379   7.145  0.4069 -0.0645  0.2224
  505MOL0     C66530   3.636   9.408   7.025 -0.2067 -0.5159 -0.1888
  505MOL0     O66531   3.732   9.435   6.934 -0.2393  0.6939  0.3046
  505MOL0     C66532   3.864   9.444   6.970  0.6414  0.3763  0.1526
  505MOL0     C66533   3.911   9.517   7.087 -0.1268 -0.4899  0.6126
  505MOL0     C66534   4.051   9.536   7.114 -0.2729 -0.0422 -0.5141
  505MOL0     C66535   4.145   9.487   7.019 -0.3196  0.4539 -0.4776
  505MOL0     O66536   4.284   9.501   7.031 -0.4174  0.6416  0.4819
  505MOL0     C66537   4.321   9.629   7.076 -0.3770 -0.9646 -0.5275
  505MOL0     C66538   4.475   9.654   7.065  0.6231 -0.3952  0.0009
  505MOL0     C66539   4.551   9.555   7.145  0.5957  0.3357  0.3249
  505MOL0     C66540   4.697   9.574   7.113  0.4532 -0.5678  0.2881
  505MOL0     C66541   4.782   9.465   7.163  0.6986  0.3211  0.0188
  505MOL0     C66542   4.769   9.335   7.087  0.0135 -0.6863 -0.9820
  505MOL0     C66543   4.821   9.208   7.164  0.5996 -0.1240 -0.3704
  505MOL0     C66544   4.709   9.149   7.247 -0.1283  0.0561  0.2848
  505MOL0     N66545   4.584   9.140   7.177  0.1147  0.5226  0.2711
  505MOL0     C66546   4.458   9.189   7.216 -0.3965 -0.1000 -0.3807
  505MOL0     C66547   4.373   9.132   7.128 -0.1743 -0.2670  0.0078
  505MOL0     C66548   4.228   9.161   7.128  0.0988  0.2536  0.8000
  505MOL0     C66549   4.160   9.087   7.247 -0.0094 -0.9247 -0.1296
  505MOL0     C66550   4.020   9.149   7.284 -0.5658  0.0663  0.0566
  505MOL0     C66551   3.926   9.121   7.158 -0.1452  0.4919 -0.4956
  505MOL0     O66552   3.892   8.973   7.134 -0.5036 -0.5999 -0.3158
  505MOL0     C66553   3.764   8.933   7.152 -0.0046  0.0997 -0.5039
  505MOL0     C66554   3.679   8.966   7.259 -0.0852 -0.2050  0.4074
  505MOL0     C66555   3.553   8.902   7.280  0.1822  0.4357 -0.4997
  505MOL0     C66556   3.520   8.794   7.194  0.3666  0.7954  0.4440
  505MOL0     C66557   3.394   8.705   7.204  0.7012 -0.2774 -0.6475
  505MOL0     O66558   3.381   8.608   7.106 -0.0556  0.0088  0.3097
  505MOL0     C66559   3.271   8.525   7.098  0.3941  0.4753 -0.9573
  505MOL0     C66560   3.263   8.442   6.986 -1.1296 -0.4407  0.1971
  505MOL0     C66561   3.144   8.376   6.950 -0.2425  0.6690 -0.1434
  505MOL0     C66562   3.035   8.374   7.044  0.1147 -0.0613 -0.3333
  505MOL0     O66563   2.914   8.318   7.032 -0.1884  0.3531  0.4434
  505MOL0     C66564   2.866   8.327   6.896  0.1855  0.2775 -0.8105
  505MOL0     C66565   2.712   8.301   6.888 -0.5547 -0.0793 -0.5630
  505MOL0     C66566   2.648   8.360   6.765  0.3571 -0.4003 -0.3537
  505MOL0     C66567   2.502   8.337   6.760  0.6105 -0.9539 -1.2112
  505MOL0     C66568   2.447   8.362   6.621  0.7093 -0.8311 -0.5507
  505MOL0     C66569   2.297   8.325   6.608 -0.5729  0.2877  0.3804
  505MOL0     C66570   2.284   8.173   6.628 -0.8108 -0.6679  1.3456
  505MOL0     C66571   2.141   8.143   6.591 -0.0645 -0.4687 -0.2212
  505MOL0    Cl66572   2.094   7.969   6.596 -0.0293  0.3324  0.0094
  505MOL0     C66573   3.050   8.438   7.164  0.4493  0.4558  0.2900
  505MOL0     C66574   3.165   8.517   7.189 -0.1225  0.2393  1.1126
  505MOL0     O66575   3.316   8.735   7.305  0.2769 -0.3981  0.9106
  505MOL0     C66576   3.603   8.769   7.084 -0.2217 -0.3966  0.0630
  505MOL0     C66577   3.727   8.829   7.063  0.1319  0.2460  0.7889
  505MOL0     N66578   4.442   9.058   7.040  0.6806 -0.5078  0.5200
  505MOL0     N66579   4.561   9.070   7.060  0.1747  0.1053 -0.6753
  505MOL0     C66580   4.091   9.415   6.916 -0.1852 -0.2494 -0.1837
  505MOL0     C66581   3.958   9.386   6.897 -0.9266 -0.4778  0.7014
  505MOL0     C66582   3.499   9.435   6.980  0.7136 -0.6122  0.0172
  505MOL0     C66583   3.473   9.500   6.858  0.2371 -0.0373  0.0936
  505MOL0     C66584   3.342   9.552   6.827  0.2274  0.3599  0.0885
  505MOL0     C66585   3.237   9.521   6.921 -0.1827  0.3477  1.1084
  505MOL0     O66586   3.119   9.582   6.892 -0.3430 -0.4940 -0.3274
  505MOL0     C66587   3.127   9.728   6.907 -0.6394 -0.0742 -0.2917
  505MOL0     C66588   2.989   9.775   6.964 -0.1921  0.2899 -0.2788
  505MOL0     C66589   2.965   9.723   7.111  0.0387  0.4752 -0.5225
  505MOL0     C66590   2.873   9.821   7.182  0.2723 -0.6608 -0.0114
  505MOL0     C66591   2.944   9.943   7.210 -0.0698  0.4072 -0.4617
  505MOL0     C66592   3.010  10.037   7.228  0.5214 -0.0230  0.2347
  505MOL0     C66593   3.263   9.460   7.043  0.4030  0.2595  0.8996
  505MOL0     C66594   3.393   9.427   7.076 -0.6332  0.2221 -0.3187
  505MOL0     H66595   3.848   9.561   7.164  2.3991  1.1493  1.8626
  505MOL0     H66596   4.094   9.581   7.203  0.5840 -2.9738  0.6701
  505MOL0     H66597   4.293   9.642   7.181  2.9304  1.8437  0.2275
  505MOL0     H66598   4.276   9.703   7.009  2.1677  0.5094 -0.7753
  505MOL0     H66599   4.495   9.757   7.094 -0.7927  0.1045 -0.7622
  505MOL0     H66600   4.507   9.632   6.962  0.0853 -1.2779  0.0101
  505MOL0     H66601   4.518   9.451   7.134  0.0590  0.1814  2.7324
  505MOL0     H66602   4.526   9.579   7.249 -0.8191 -2.1934  0.6396
  505MOL0     H66603   4.716   9.588   7.006  2.9968 -1.6177  0.5454
  505MOL0     H66604   4.730   9.668   7.159  1.5580  0.7741 -2.9402
  505MOL0     H66605   4.746   9.439   7.263  1.3176  0.0204  0.1712
  505MOL0     H66606   4.885   9.502   7.166  0.4854  1.0028 -0.7597
  505MOL0     H66607   4.829   9.363   7.000  1.3691  2.4958  0.7891
  505MOL0     H66608   4.670   9.312   7.046 -0.6478  1.5605 -0.8371
  505MOL0     H66609   4.840   9.137   7.084  3.1963  2.2338 -2.0202
  505MOL0     H66610   4.913   9.230   7.219 -0.4327  2.3857  0.4826
  505MOL0     H66611   4.689   9.200   7.342 -2.1541 -0.6286  0.2826
  505MOL0     H66612   4.725   9.042   7.264 -0.5091  0.2515  2.0963
  505MOL0     H66613   4.436   9.252   7.301 -0.8273  2.2516 -2.1257
  505MOL0     H66614   4.173   9.120   7.042 -0.2971  0.9933  0.6922
  505MOL0     H66615   4.216   9.269   7.134  0.2301  0.2991  0.2331
  505MOL0     H66616   4.223   9.095   7.336 -1.3498  0.1702  0.7678
  505MOL0     H66617   4.145   8.980   7.226 -0.4513 -0.8380 -0.2687
  505MOL0     H66618   3.984   9.094   7.371  2.9628 -0.3309  1.4128
  505MOL0     H66619   4.022   9.256   7.308 -1.4515  0.1375 -0.1561
  505MOL0     H66620   3.981   9.152   7.068  4.8695 -5.6463 -0.2091
  505MOL0     H66621   3.832   9.175   7.177 -1.0507 -0.4081 -2.1328
  505MOL0     H66622   3.716   9.045   7.323 -0.8733 -1.0362  1.9454
  505MOL0     H66623   3.484   8.919   7.361 -0.6087  2.6590 -1.5683
  505MOL0     H66624   3.348   8.453   6.919 -0.8149 -1.6984  0.3675
  505MOL0     H66625   3.136   8.348   6.846 -0.8577  1.7092 -0.3864
  505MOL0     H66626   2.925   8.265   6.828  2.1101  1.5677 -0.3870
  505MOL0     H66627   2.884   8.431   6.865 -1.7508 -0.1038 -3.6831
  505MOL0     H66628   2.659   8.334   6.977 -2.7122 -6.4890  1.1194
  505MOL0     H66629   2.697   8.192   6.891  1.1099 -0.5018 -3.4122
  505MOL0     H66630   2.694   8.306   6.682  1.6658 -1.7820  1.1996
  505MOL0     H66631   2.659   8.469   6.757 -0.6823 -0.1008  1.4836
  505MOL0     H66632   2.480   8.237   6.798 -4.0400 -0.2394 -1.4383
  505MOL0     H66633   2.466   8.408   6.835 -1.5318 -2.9429 -0.2363
  505MOL0     H66634   2.497   8.310   6.539  0.7523  2.0835 -2.5162
  505MOL0     H66635   2.457   8.467   6.590  0.0479 -1.2877 -2.4291
  505MOL0     H66636   2.264   8.347   6.506 -2.8708 -1.9813  0.5217
  505MOL0     H66637   2.237   8.372   6.687 -1.0778  0.0785  0.1231
  505MOL0     H66638   2.349   8.118   6.560 -2.7508 -2.1970  0.6385
  505MOL0     H66639   2.303   8.159   6.735 -0.9670  2.6698  1.9276
  505MOL0     H66640   2.116   8.166   6.487 -1.6877 -0.7588  0.0705
  505MOL0     H66641   2.078   8.203   6.658  0.1732 -0.4241 -0.0373
  505MOL0     H66642   2.976   8.416   7.240 -2.4351  0.6644 -2.3085
  505MOL0     H66643   3.167   8.569   7.284 -2.7192  0.2478  1.2374
  505MOL0     H66644   3.572   8.709   6.999  2.0273 -2.0675  0.3531
  505MOL0     H66645   3.782   8.808   6.971  2.0452  1.8303  1.4994
  505MOL0     H66646   4.163   9.365   6.852 -3.0598 -0.1833 -3.7930
  505MOL0     H66647   3.931   9.326   6.812  0.8284  0.7868 -0.8275
  505MOL0     H66648   3.546   9.510   6.778 -2.3356 -1.7705 -2.6983
  505MOL0     H66649   3.317   9.611   6.739 -0.3461  0.1029  0.0740
  505MOL0     H66650   3.147   9.778   6.812 -0.9455  2.7343  1.0240
  505MOL0     H66651   3.211   9.756   6.971  1.0341  0.8981 -2.7740
  505MOL0     H66652   2.997   9.884   6.961  0.9494  0.2148 -2.8176
  505MOL0     H66653   2.919   9.732   6.892 -1.1584 -4.4079  3.0104
  505MOL0     H66654   3.065   9.710   7.154  0.2845  3.9674  0.2650
  505MOL0     H66655   2.930   9.620   7.113  1.4584 -0.0276  0.8375
  505MOL0     H66656   2.782   9.841   7.126 -2.0386 -2.9181  2.6246
  505MOL0     H66657   2.838   9.781   7.277 -3.3206  5.6757  1.9482
  505MOL0     H66658   3.072  10.125   7.231  0.2306  0.1511  2.2357
  505MOL0     H66659   3.184   9.441   7.116  1.8756 -0.6804  2.3219
  505MOL0     H66660   3.406   9.379   7.172  3.3818 -0.9247 -1.2501
  506MOL0     O66661   5.138   5.475   0.397  0.1064 -0.0719  0.1014
  506MOL0     C66662   5.045   5.396   0.372 -0.8418  0.3582  0.8564
  506MOL0     O66663   5.061   5.271   0.325  0.4066 -0.1677  0.4561
  506MOL0     C66664   5.179   5.231   0.276 -0.8774  0.4291 -1.2040
  506MOL0     C66665   5.258   5.142   0.357  0.3347 -0.3584  1.5098
  506MOL0     C66666   5.379   5.096   0.320 -0.0577  0.5210 -0.6776
  506MOL0     C66667   5.435   5.140   0.197 -0.7835  0.4448  0.3935
  506MOL0     O66668   5.570   5.125   0.162  0.0245 -0.0746  0.5256
  506MOL0     C66669   5.664   5.030   0.224 -0.0114  1.8320  0.2572
  506MOL0     C66670   5.625   4.879   0.187  1.1326 -0.1770  0.0667
  506MOL0     C66671   5.600   4.859   0.039  0.3494 -0.4933 -0.5985
  506MOL0     C66672   5.524   4.731   0.004 -0.1609  0.9269 -0.5360
  506MOL0     C66673   5.382   4.697   0.062 -0.4493  0.0908 -0.3017
  506MOL0     C66674   5.269   4.797   0.022 -0.2399 -0.7065 -0.6559
  506MOL0     C66675   5.142   4.782   0.109  0.7376  0.2116 -1.0115
  506MOL0     C66676   5.043   4.883   0.068  0.3773 -0.5455  0.4017
  506MOL0     N66677   4.901   4.856   0.108 -0.1271 -0.8589  0.1821
  506MOL0     C66678   4.793   4.941   0.093  0.1455 -0.0579 -0.1844
  506MOL0     C66679   4.693   4.883   0.179 -1.1921  0.4241 -0.5633
  506MOL0     C66680   4.560   4.941   0.216  0.3071  0.0886 -0.6853
  506MOL0     C66681   4.560   5.093   0.194 -0.2200 -0.3919 -0.0785
  506MOL0     C66682   4.419   5.150   0.213 -1.0202  0.3270 -0.1903
  506MOL0     C66683   4.364   5.104   0.348 -0.0070 -0.0590 -0.3942
  506MOL0     O66684   4.251   5.169   0.396 -0.1434  0.0157 -0.4160
  506MOL0     C66685   4.132   5.152   0.329  0.1445 -0.9244 -0.8595
  506MOL0     C66686   4.028   5.233   0.373  0.2778  0.2325 -0.7304
  506MOL0     C66687   3.902   5.222   0.313  0.8955 -1.5396  0.2033
  506MOL0     C66688   3.880   5.125   0.211  0.3118 -0.0024  0.4846
  506MOL0     C66689   3.745   5.121   0.143 -0.5945 -0.2063  0.6952
  506MOL0     O66690   3.648   5.190   0.202  0.5281 -0.9477  0.6562
  506MOL0     C66691   3.524   5.214   0.138 -0.7415  0.4839 -0.2646
  506MOL0     C66692   3.457   5.114   0.068  0.1689 -0.4168 -0.3062
  506MOL0     C66693   3.337   5.154   0.018 -0.0763 -0.4632 -1.1675
  506MOL0     C66694   3.285   5.283   0.028  0.0374 -0.5795 -0.1807
  506MOL0     O66695   3.156   5.297  -0.030 -0.4932  0.8386  0.1259
  506MOL0     C66696   3.102   5.427  -0.059 -0.3052 -0.8731 -0.8611
  506MOL0     C66697   2.980   5.426  -0.146 -0.3761  0.3278 -0.3165
  506MOL0     C66698   2.852   5.398  -0.053  0.5643 -0.1519 -0.4955
  506MOL0     C66699   2.728   5.376  -0.133 -0.3798  0.0460  0.4540
  506MOL0     C66700   2.601   5.356  -0.046 -0.4753 -1.4731  0.7965
  506MOL0     C66701   2.474   5.347  -0.132  0.5726 -0.6768 -0.0235
  506MOL0     C66702   2.349   5.397  -0.050 -0.8277 -1.3536 -0.5576
  506MOL0     C66703   2.303   5.309   0.061 -0.1675 -0.7272  0.5816
  506MOL0    Cl66704   2.173   5.407   0.145  0.0215  0.1424  0.3714
  506MOL0     C66705   3.361   5.385   0.097  0.8195 -0.4193 -0.1656
  506MOL0     C66706   3.485   5.355   0.148 -0.1676 -0.2609 -1.0519
  506MOL0     O66707   3.747   5.077   0.026  0.1297 -0.3930  0.3618
  506MOL0     C66708   3.979   5.035   0.175  0.2948 -1.5836  0.7757
  506MOL0     C66709   4.105   5.053   0.238 -0.7156  0.1552 -0.5732
  506MOL0     N66710   4.739   4.757   0.225  0.6735 -0.1561  0.6735
  506MOL0     N66711   4.862   4.741   0.177  0.2889 -0.3519  0.1712
  506MOL0     C66712   5.355   5.211   0.110  0.6285 -0.4759 -0.8717
  506MOL0     C66713   5.233   5.267   0.160 -0.3630 -0.1154  0.1692
  506MOL0     C66714   4.908   5.432   0.415 -0.9810  0.0517  0.5083
  506MOL0     C66715   4.874   5.556   0.456 -0.1975 -0.7190  0.0582
  506MOL0     C66716   4.746   5.596   0.497  0.4257  1.1217  0.1503
  506MOL0     C66717   4.637   5.511   0.495 -0.6841 -0.0039  0.7063
  506MOL0     O66718   4.510   5.547   0.541 -0.9718  0.0008 -0.4178
  506MOL0     C66719   4.393   5.462   0.550  0.8312  0.6015 -0.0793
  506MOL0     C66720   4.264   5.549   0.544 -0.0984 -0.1112 -0.0260
  506MOL0     C66721   4.226   5.610   0.408 -0.3740 -0.7070  0.1192
  506MOL0     C66722   4.073   5.593   0.362 -0.8360 -0.4277  1.3386
  506MOL0     C66723   3.989   5.686   0.436  0.1570  0.2592 -0.4929
  506MOL0     C66724   3.917   5.757   0.504 -0.0121  0.0012  0.3244
  506MOL0     C66725   4.668   5.379   0.446 -0.4601  0.2938 -0.4495
  506MOL0     C66726   4.802   5.329   0.421  0.2017  0.6711 -0.1037
  506MOL0     H66727   5.203   5.103   0.442 -1.6018  0.3840  0.6478
  506MOL0     H66728   5.431   5.039   0.396  2.8908  3.2068 -0.4576
  506MOL0     H66729   5.657   5.049   0.331 -1.9412  0.7735  0.3582
  506MOL0     H66730   5.765   5.049   0.185  0.2969  0.6848  0.4502
  506MOL0     H66731   5.533   4.863   0.244  0.3972 -2.4827 -1.6030
  506MOL0     H66732   5.693   4.805   0.230 -1.0059 -1.2516  1.7743
  506MOL0     H66733   5.692   4.862  -0.022 -0.3392  0.9280 -1.6168
  506MOL0     H66734   5.543   4.943  -0.001  2.2481 -0.1687 -2.8396
  506MOL0     H66735   5.518   4.728  -0.105 -1.7505  2.3623 -0.5189
  506MOL0     H66736   5.582   4.643   0.034 -2.5869 -2.1140 -3.9574
  506MOL0     H66737   5.394   4.688   0.170 -2.0030  0.9495 -0.0189
  506MOL0     H66738   5.351   4.596   0.032  3.6020 -0.9900 -1.3640
  506MOL0     H66739   5.235   4.762  -0.076 -2.4786  2.5227 -1.1670
  506MOL0     H66740   5.295   4.903   0.012  2.8334 -1.3591 -0.6457
  506MOL0     H66741   5.103   4.680   0.120 -1.4649  1.3101  4.1148
  506MOL0     H66742   5.166   4.807   0.212 -5.2763 -2.6835  1.5308
  506MOL0     H66743   5.052   4.890  -0.041  1.3315 -0.0200  0.4978
  506MOL0     H66744   5.073   4.980   0.107  1.4594 -1.2204  1.3270
  506MOL0     H66745   4.797   5.036   0.040  0.4242  1.0379  1.6729
  506MOL0     H66746   4.554   4.929   0.324 -1.9879  1.3768 -0.5847
  506MOL0     H66747   4.485   4.883   0.161  0.3249 -0.4015 -0.1950
  506MOL0     H66748   4.579   5.101   0.086  1.4232 -2.8925 -0.0447
  506MOL0     H66749   4.640   5.138   0.254 -1.2851 -1.0989  1.9685
  506MOL0     H66750   4.430   5.259   0.214 -0.6160  0.3209 -1.8141
  506MOL0     H66751   4.347   5.131   0.133 -1.9321 -1.5003  0.9975
  506MOL0     H66752   4.445   5.115   0.421 -2.0340  1.3229  1.7719
  506MOL0     H66753   4.338   4.998   0.346 -4.0054  0.7546  0.8268
  506MOL0     H66754   4.037   5.291   0.464  4.3008 -1.4295  0.1286
  506MOL0     H66755   3.831   5.295   0.350  3.3186  1.4197 -0.6187
  506MOL0     H66756   3.504   5.018   0.054 -0.8707 -0.7094 -2.0693
  506MOL0     H66757   3.283   5.090  -0.052 -3.7761 -1.6275  2.3837
  506MOL0     H66758   3.176   5.475  -0.123  1.0921 -1.9522 -0.0946
  506MOL0     H66759   3.096   5.494   0.027  3.4643  0.1699 -1.2503
  506MOL0     H66760   2.982   5.350  -0.224 -1.6364  1.6395 -1.6967
  506MOL0     H66761   2.973   5.524  -0.195 -0.5521  0.8667  0.7388
  506MOL0     H66762   2.832   5.485   0.010  0.2357  1.8733 -3.1807
  506MOL0     H66763   2.867   5.311   0.011 -3.7670 -1.3013 -0.7529
  506MOL0     H66764   2.702   5.463  -0.195 -1.8355  1.7605  3.2926
  506MOL0     H66765   2.744   5.288  -0.196 -2.2362 -0.3337  0.4341
  506MOL0     H66766   2.594   5.445   0.018 -1.2698 -0.7287 -0.2710
  506MOL0     H66767   2.618   5.273   0.022  0.9446 -0.2732  1.9769
  506MOL0     H66768   2.481   5.245  -0.170  2.2298 -0.2914 -0.8694
  506MOL0     H66769   2.475   5.416  -0.217 -2.7307  0.8835  1.0630
  506MOL0     H66770   2.373   5.491  -0.000  3.0633 -3.7091  2.6034
  506MOL0     H66771   2.261   5.409  -0.115 -0.5912  1.5031 -0.4852
  506MOL0     H66772   2.389   5.294   0.127  0.3068 -1.5016 -0.1846
  506MOL0     H66773   2.261   5.210   0.047 -0.9105 -0.8185  2.9332
  506MOL0     H66774   3.318   5.485   0.102 -0.4208 -0.9627  0.2437
  506MOL0     H66775   3.538   5.425   0.212 -0.5522  0.2506 -1.2869
  506MOL0     H66776   3.969   4.959   0.099 -0.9045 -0.4147 -0.2913
  506MOL0     H66777   4.181   4.980   0.212  2.3924  1.2568  4.0699
  506MOL0     H66778   5.405   5.243   0.019  0.8488  2.3740  0.1483
  506MOL0     H66779   5.188   5.339   0.093 -0.3881  0.4915  0.8267
  506MOL0     H66780   4.951   5.631   0.444  0.5170 -1.5419 -0.6935
  506MOL0     H66781   4.718   5.692   0.540 -0.8204  0.9161 -0.1662
  506MOL0     H66782   4.396   5.406   0.643  2.6946 -0.8299 -0.9204
  506MOL0     H66783   4.392   5.406   0.456  1.6146  5.2169 -3.1574
  506MOL0     H66784   4.184   5.482   0.574 -1.9981  2.8261  2.0518
  506MOL0     H66785   4.268   5.628   0.620 -1.0342  0.4150 -0.4989
  506MOL0     H66786   4.293   5.560   0.337  2.6860  1.8059  1.0165
  506MOL0     H66787   4.256   5.715   0.406 -1.0398 -0.5136  0.1813
  506MOL0     H66788   4.058   5.616   0.256 -1.5303  0.7678  1.6790
  506MOL0     H66789   4.048   5.487   0.374 -1.6399 -0.3749  0.2144
  506MOL0     H66790   3.864   5.830   0.562 -2.2413 -1.2691  0.0107
  506MOL0     H66791   4.590   5.308   0.472 -0.8759  1.0778  0.5081
  506MOL0     H66792   4.826   5.225   0.403 -3.1523 -0.1369 -0.5988
  507MOL0     O66793  10.566   7.609   7.264  0.0877 -0.2823  0.5533
  507MOL0     C66794  10.641   7.506   7.267 -0.4955  0.2909  1.0369
  507MOL0     O66795  10.641   7.405   7.175  0.4373  0.0735  0.0847
  507MOL0     C66796  10.564   7.414   7.057 -0.6405 -0.3446 -0.8813
  507MOL0     C66797  10.469   7.313   7.049 -0.6892 -1.1549 -0.0513
  507MOL0     C66798  10.383   7.313   6.939 -0.2514  0.4414  0.2213
  507MOL0     C66799  10.384   7.402   6.837 -0.8206 -1.1104 -0.6520
  507MOL0     O66800  10.285   7.407   6.748  0.9176  0.6333 -0.7321
  507MOL0     C66801  10.205   7.294   6.720  0.3318 -0.0858  0.5943
  507MOL0     C66802  10.111   7.317   6.610  0.3589 -0.1068  1.5520
  507MOL0     C66803  10.012   7.428   6.644  0.0794  0.2276  0.3374
  507MOL0     C66804   9.915   7.472   6.535 -0.0495  1.3508 -0.4668
  507MOL0     C66805   9.846   7.358   6.474  0.0605 -0.1976 -0.0496
  507MOL0     C66806   9.724   7.403   6.400 -0.4625  0.1036  0.1895
  507MOL0     C66807   9.661   7.284   6.320  0.0142 -0.4292  0.2657
  507MOL0     C66808   9.590   7.326   6.188 -0.4698  0.1627 -1.2706
  507MOL0     N66809   9.487   7.428   6.209 -0.2605  0.3688  0.2349
  507MOL0     C66810   9.352   7.406   6.225  0.1783  0.6100  0.6019
  507MOL0     C66811   9.299   7.533   6.243  0.4354 -0.2455 -0.6168
  507MOL0     C66812   9.160   7.550   6.276  0.2256 -0.2060  0.1119
  507MOL0     C66813   9.061   7.490   6.175 -0.4553 -0.1414 -0.1834
  507MOL0     C66814   8.928   7.568   6.172  0.8472 -0.1360 -0.0669
  507MOL0     C66815   8.825   7.506   6.079  1.0998 -0.4624 -0.1496
  507MOL0     O66816   8.790   7.371   6.106  0.4704  0.6854  0.0527
  507MOL0     C66817   8.690   7.340   6.191 -0.2710 -0.0422 -0.1452
  507MOL0     C66818   8.631   7.439   6.275  0.0103  0.1002 -0.4401
  507MOL0     C66819   8.514   7.414   6.343 -0.7287  0.4814  0.0787
  507MOL0     C66820   8.448   7.291   6.333 -0.1789  1.1817  0.0158
  507MOL0     C66821   8.320   7.260   6.402 -0.1248  0.2926 -0.5162
  507MOL0     O66822   8.283   7.124   6.389  0.5409  0.6106 -0.4590
  507MOL0     C66823   8.175   7.082   6.467 -0.2190 -0.1328  0.1313
  507MOL0     C66824   8.066   7.026   6.397 -0.2632 -0.1924  0.1939
  507MOL0     C66825   7.952   7.000   6.457  0.0793 -0.2535 -0.1443
  507MOL0     C66826   7.931   7.028   6.591  0.9250 -1.2596 -0.5728
  507MOL0     O66827   7.807   7.000   6.644 -0.0165  1.0991 -0.2840
  507MOL0     C66828   7.764   7.078   6.755  0.0077 -0.2221 -0.3183
  507MOL0     C66829   7.621   7.141   6.740 -0.1103  0.0679  0.4634
  507MOL0     C66830   7.586   7.228   6.867 -0.2384  0.3195 -0.7948
  507MOL0     C66831   7.442   7.283   6.866  0.3742  0.4869  0.0773
  507MOL0     C66832   7.389   7.352   6.997 -0.3066  0.1593 -0.3736
  507MOL0     C66833   7.407   7.264   7.125  0.4031  0.1323 -1.3143
  507MOL0     C66834   7.348   7.129   7.125  0.3137  0.3444  0.1194
  507MOL0     C66835   7.323   7.072   7.259  0.0111 -0.1565 -0.5656
  507MOL0    Cl66836   7.427   7.155   7.387 -0.4872 -0.1051  0.1245
  507MOL0     C66837   8.040   7.089   6.663 -0.5905  0.2760 -0.3180
  507MOL0     C66838   8.160   7.112   6.600 -0.1952 -0.5896  0.0606
  507MOL0     O66839   8.261   7.348   6.466  0.5143 -0.6966  0.3512
  507MOL0     C66840   8.512   7.191   6.261 -0.4140  0.0637 -1.1128
  507MOL0     C66841   8.636   7.209   6.195 -0.0398  0.1894  0.0649
  507MOL0     N66842   9.401   7.624   6.225  1.0269 -0.3802 -0.6004
  507MOL0     N66843   9.513   7.561   6.206 -0.1296  0.7175 -0.1262
  507MOL0     C66844  10.474   7.509   6.852  0.6028 -0.5988  0.1266
  507MOL0     C66845  10.565   7.514   6.964  0.2401  0.0204 -0.9970
  507MOL0     C66846  10.727   7.490   7.386  0.4500 -0.2932 -0.1459
  507MOL0     C66847  10.729   7.593   7.490 -0.3679  0.0179 -0.6811
  507MOL0     C66848  10.833   7.586   7.589 -0.0502 -0.0515  0.4733
  507MOL0     C66849  10.914   7.477   7.594 -0.1258 -0.1894 -0.4277
  507MOL0     O66850  10.997   7.462   7.699 -0.2260  0.1751 -0.3209
  507MOL0     C66851  11.091   7.347   7.705  0.3548 -0.1849 -0.3679
  507MOL0     C66852  11.146   7.331   7.852  0.8614  0.2997 -0.2996
  507MOL0     C66853  11.256   7.430   7.891  0.2213  0.2029  0.8606
  507MOL0     C66854  11.246   7.478   8.031 -0.4800 -0.6015  0.0949
  507MOL0     C66855  11.378   7.511   8.082  0.5797 -0.4227 -0.1132
  507MOL0     C66856  11.484   7.516   8.136 -0.3075 -1.7519 -0.8293
  507MOL0     C66857  10.898   7.372   7.502 -0.7501 -0.1950 -0.4122
  507MOL0     C66858  10.810   7.380   7.398 -0.6223 -0.0651 -0.6786
  507MOL0     H66859  10.465   7.234   7.124  0.8058 -0.0673  1.2321
  507MOL0     H66860  10.314   7.231   6.923  2.4209 -2.1407  0.9777
  507MOL0     H66861  10.151   7.271   6.813  0.9133  0.8441  1.1883
  507MOL0     H66862  10.264   7.205   6.698  0.7046  0.4319 -0.5460
  507MOL0     H66863  10.058   7.223   6.596  2.4355 -1.0262 -0.6784
  507MOL0     H66864  10.169   7.339   6.520  0.3212 -0.7779  1.3594
  507MOL0     H66865  10.042   7.529   6.672  2.2708  0.4841 -2.4617
  507MOL0     H66866   9.968   7.381   6.732  1.8406 -0.3803  0.9382
  507MOL0     H66867   9.842   7.536   6.585  0.7899  1.2237  0.9641
  507MOL0     H66868   9.957   7.529   6.451 -0.2347 -0.5606 -1.9200
  507MOL0     H66869   9.813   7.280   6.543 -3.1499  1.1837  0.1426
  507MOL0     H66870   9.916   7.315   6.402 -1.7032 -0.8220 -1.4611
  507MOL0     H66871   9.755   7.478   6.327 -2.6066  1.6497  0.7915
  507MOL0     H66872   9.650   7.454   6.462 -0.7282  2.8773 -2.1798
  507MOL0     H66873   9.742   7.215   6.296 -0.2929 -1.2115  1.4053
  507MOL0     H66874   9.580   7.238   6.377 -0.8778 -0.2849 -0.8596
  507MOL0     H66875   9.547   7.239   6.138  0.3916 -0.5738 -0.7383
  507MOL0     H66876   9.665   7.365   6.118  4.0097 -2.6042  1.4801
  507MOL0     H66877   9.306   7.308   6.226 -0.0141  0.6982  1.4068
  507MOL0     H66878   9.130   7.655   6.285 -2.1004 -0.8546  0.6375
  507MOL0     H66879   9.148   7.506   6.376 -1.1173 -0.2636 -0.0446
  507MOL0     H66880   9.025   7.392   6.208 -0.4623  0.0846  0.4900
  507MOL0     H66881   9.110   7.493   6.077  2.5151 -0.9555  1.1639
  507MOL0     H66882   8.888   7.580   6.274  1.2394  0.8048 -0.0096
  507MOL0     H66883   8.955   7.668   6.136 -1.8995  0.2678 -1.2379
  507MOL0     H66884   8.867   7.499   5.978  1.8619  2.5948 -0.1237
  507MOL0     H66885   8.738   7.572   6.070  0.6975 -0.9004  0.5013
  507MOL0     H66886   8.668   7.540   6.290 -0.8372  0.1726  1.3107
  507MOL0     H66887   8.467   7.480   6.415 -0.6134 -1.9627  2.5593
  507MOL0     H66888   8.078   7.005   6.291 -2.5062  0.1436 -0.1773
  507MOL0     H66889   7.881   6.934   6.407  2.1623 -0.3201 -3.2727
  507MOL0     H66890   7.830   7.159   6.788 -3.6040  2.7407  0.4023
  507MOL0     H66891   7.755   7.007   6.838  3.7238  0.0266  0.4552
  507MOL0     H66892   7.557   7.053   6.746 -0.8130  0.6148  1.1333
  507MOL0     H66893   7.601   7.192   6.646  0.9663 -0.4672 -0.0828
  507MOL0     H66894   7.646   7.318   6.850  0.5294 -0.2968 -1.4308
  507MOL0     H66895   7.609   7.170   6.957 -2.3853  0.7197  0.0723
  507MOL0     H66896   7.421   7.339   6.775 -1.5295 -5.1280 -3.4100
  507MOL0     H66897   7.382   7.198   6.834  3.4574 -1.2589 -1.4457
  507MOL0     H66898   7.282   7.374   6.996 -0.3016  0.2416  0.5793
  507MOL0     H66899   7.450   7.439   7.020  4.5022 -2.2502 -2.4415
  507MOL0     H66900   7.365   7.329   7.203 -1.9914 -0.9614 -1.5988
  507MOL0     H66901   7.513   7.242   7.143 -0.3695 -0.8368  3.6618
  507MOL0     H66902   7.255   7.144   7.070  1.4637  1.5649 -1.5919
  507MOL0     H66903   7.402   7.065   7.056 -1.7385  0.6379 -1.8505
  507MOL0     H66904   7.330   6.963   7.250 -0.3063 -0.1472 -0.9155
  507MOL0     H66905   7.217   7.088   7.278 -0.6150 -2.4591 -1.6421
  507MOL0     H66906   8.029   7.116   6.768 -1.1743 -0.0059 -0.3025
  507MOL0     H66907   8.238   7.166   6.652 -0.5098  0.3892 -0.4698
  507MOL0     H66908   8.466   7.092   6.263  0.6057 -0.4929  2.7735
  507MOL0     H66909   8.669   7.116   6.151  2.0673 -0.6534  3.0386
  507MOL0     H66910  10.463   7.590   6.779  0.4743  1.0878  1.9258
  507MOL0     H66911  10.634   7.597   6.976  0.5043 -0.0460 -1.9402
  507MOL0     H66912  10.662   7.677   7.503 -0.2628  0.1021 -0.6833
  507MOL0     H66913  10.841   7.660   7.668  2.0502  1.3960 -0.9890
  507MOL0     H66914  11.180   7.360   7.643 -0.8177  1.7517 -1.7514
  507MOL0     H66915  11.040   7.253   7.682  3.7786 -2.4911  0.6733
  507MOL0     H66916  11.053   7.351   7.906 -1.1104  1.3483 -3.8168
  507MOL0     H66917  11.176   7.226   7.864 -1.0661 -0.1554  0.9521
  507MOL0     H66918  11.250   7.504   7.811 -2.6651 -1.1878 -0.3517
  507MOL0     H66919  11.353   7.383   7.870  0.4314  1.3214 -0.8787
  507MOL0     H66920  11.177   7.562   8.041 -1.9695 -1.8339  0.6536
  507MOL0     H66921  11.205   7.408   8.104 -0.7140  1.8814  2.4665
  507MOL0     H66922  11.570   7.532   8.198  0.3398  0.3146 -2.1768
  507MOL0     H66923  10.956   7.280   7.502 -0.4247 -0.0569  1.7024
  507MOL0     H66924  10.813   7.303   7.321  1.8561 -0.3130 -0.4113
  508MOL0     O66925   9.703   8.568   3.815  0.0661  0.2531 -0.0741
  508MOL0     C66926   9.798   8.649   3.812  0.8656 -0.9325  0.2243
  508MOL0     O66927   9.794   8.781   3.852 -0.0322  0.5993  0.0692
  508MOL0     C66928   9.692   8.836   3.920 -0.4679 -0.1384 -0.2794
  508MOL0     C66929   9.605   8.763   4.010 -0.5395  0.8046  0.6625
  508MOL0     C66930   9.514   8.829   4.097 -0.0765  0.4219  1.4721
  508MOL0     C66931   9.488   8.966   4.079 -0.5129 -0.0266  0.9659
  508MOL0     O66932   9.395   9.038   4.157 -0.0429  0.0826  0.1384
  508MOL0     C66933   9.379   9.005   4.295 -0.0568 -0.4998 -0.2121
  508MOL0     C66934   9.307   9.107   4.374  0.5491 -0.4875 -0.3087
  508MOL0     C66935   9.362   9.248   4.371 -0.1677 -0.0149 -0.4818
  508MOL0     C66936   9.480   9.262   4.468 -0.1186 -0.7424 -0.0784
  508MOL0     C66937   9.573   9.381   4.457 -1.2564  0.6000  0.7144
  508MOL0     C66938   9.693   9.390   4.553 -0.1367  0.5140 -0.5380
  508MOL0     C66939   9.772   9.253   4.573  0.1213  0.1407 -0.4602
  508MOL0     C66940   9.886   9.269   4.674 -0.9130 -0.2454 -0.2103
  508MOL0     N66941   9.983   9.163   4.644  0.4669  0.8805  0.6029
  508MOL0     C66942   9.943   9.028   4.658 -0.7915 -0.1482 -0.3414
  508MOL0     C66943  10.044   8.956   4.600 -0.2234 -0.2423 -0.9242
  508MOL0     C66944  10.054   8.809   4.594 -0.0611 -0.4417  0.4736
  508MOL0     C66945  10.182   8.755   4.547 -0.8224 -0.1522 -0.3029
  508MOL0     C66946  10.186   8.600   4.572 -0.5697 -0.2760 -0.3643
  508MOL0     C66947  10.316   8.534   4.516  0.2178  0.9921 -0.7615
  508MOL0     O66948  10.439   8.591   4.566 -0.5450 -0.1915 -0.3461
  508MOL0     C66949  10.555   8.529   4.531 -0.0931  0.2562 -0.6599
  508MOL0     C66950  10.575   8.422   4.449 -0.5272  1.4684 -0.1751
  508MOL0     C66951  10.700   8.372   4.424 -0.5772  0.6986 -0.9229
  508MOL0     C66952  10.813   8.419   4.485  0.0507  0.3413 -0.2008
  508MOL0     C66953  10.953   8.370   4.463  0.7702  0.6610 -0.0068
  508MOL0     O66954  11.059   8.435   4.525 -0.7567 -0.6793  0.1553
  508MOL0     C66955  11.187   8.388   4.527 -1.0704  0.3164  1.0372
  508MOL0     C66956  11.252   8.333   4.418  0.2734 -0.3165 -0.1451
  508MOL0     C66957  11.382   8.287   4.422 -0.9691 -0.6283 -0.6297
  508MOL0     C66958  11.461   8.315   4.526 -0.4311 -0.1596 -0.0963
  508MOL0     O66959  11.588   8.279   4.519  0.7645 -0.6089 -0.6739
  508MOL0     C66960  11.680   8.314   4.621  0.2513  0.3708  0.0332
  508MOL0     C66961  11.808   8.261   4.572 -0.5011 -0.0180  0.4860
  508MOL0     C66962  11.912   8.261   4.669 -0.5931  0.7419 -0.9217
  508MOL0     C66963  12.046   8.216   4.606  0.8886 -1.0213  1.2363
  508MOL0     C66964  12.155   8.244   4.701  0.2183 -0.1596  0.0249
  508MOL0     C66965  12.296   8.210   4.650 -0.3011 -0.0075  0.0711
  508MOL0     C66966  12.412   8.249   4.736  0.8167 -0.5950  0.2170
  508MOL0     C66967  12.546   8.252   4.663  0.6240  0.1788 -0.3253
  508MOL0    Cl66968  12.624   8.413   4.696  0.0035  0.0510  0.2114
  508MOL0     C66969  11.400   8.379   4.640 -0.1842  0.8355 -1.0056
  508MOL0     C66970  11.270   8.415   4.637  1.1136  1.4715 -0.1192
  508MOL0     O66971  10.966   8.271   4.390 -0.1875 -0.1258  0.0469
  508MOL0     C66972  10.798   8.533   4.574  0.1817  0.8231 -0.2278
  508MOL0     C66973  10.670   8.586   4.601 -0.2383  0.7253  0.6807
  508MOL0     N66974  10.130   9.049   4.552 -0.5902 -0.1771  0.4613
  508MOL0     N66975  10.091   9.165   4.571 -1.0261  0.4772  0.1641
  508MOL0     C66976   9.567   9.035   3.985  0.3429  0.3781  0.5144
  508MOL0     C66977   9.668   8.975   3.904  1.3183 -0.3158  0.8322
  508MOL0     C66978   9.925   8.607   3.766 -0.5805  1.1472 -0.1020
  508MOL0     C66979   9.956   8.468   3.768  0.2305  0.6137  0.4815
  508MOL0     C66980  10.085   8.419   3.752 -0.9452  0.7954  0.0159
  508MOL0     C66981  10.193   8.506   3.707  0.6410 -0.5695 -0.4702
  508MOL0     O66982  10.321   8.462   3.684  0.2139  0.1490  0.8706
  508MOL0     C66983  10.359   8.336   3.726  0.1234  0.8427 -0.6577
  508MOL0     C66984  10.501   8.310   3.662  0.5924  0.0337  0.2317
  508MOL0     C66985  10.608   8.410   3.705  0.2951  0.0484 -0.4736
  508MOL0     C66986  10.753   8.354   3.691  0.5768  0.3452  0.9842
  508MOL0     C66987  10.866   8.439   3.733 -1.5102  0.0794  0.5587
  508MOL0     C66988  10.967   8.505   3.775  0.2737  0.0819  0.9001
  508MOL0     C66989  10.153   8.637   3.691  0.2531 -0.2097 -0.3860
  508MOL0     C66990  10.028   8.692   3.716  0.5720 -0.0722 -0.5662
  508MOL0     H66991   9.619   8.655   4.014 -0.5783  0.8265  1.7902
  508MOL0     H66992   9.460   8.775   4.174 -0.6080 -2.0387 -0.4950
  508MOL0     H66993   9.481   9.010   4.335 -0.4660 -0.1896  0.8152
  508MOL0     H66994   9.322   8.912   4.304 -4.0497  1.7250 -0.3221
  508MOL0     H66995   9.295   9.084   4.480  4.8434 -1.2560  0.1877
  508MOL0     H66996   9.205   9.106   4.336  0.6754  0.0271 -0.6733
  508MOL0     H66997   9.284   9.322   4.392  0.2431 -0.1583  1.7805
  508MOL0     H66998   9.397   9.259   4.268  2.4182 -1.8211  0.0833
  508MOL0     H66999   9.436   9.259   4.569 -1.6475 -1.1436 -0.7205
  508MOL0     H67000   9.545   9.177   4.452 -1.1713 -1.1037 -2.9397
  508MOL0     H67001   9.521   9.478   4.458 -1.1146  0.6894 -0.0292
  508MOL0     H67002   9.609   9.372   4.354  1.2463  2.7750  1.2938
  508MOL0     H67003   9.658   9.408   4.655  0.3486  1.9915 -0.6062
  508MOL0     H67004   9.757   9.474   4.523 -1.3136  1.7937  0.4077
  508MOL0     H67005   9.717   9.173   4.623  0.7154  1.1455  1.9671
  508MOL0     H67006   9.809   9.206   4.481  1.6719  0.4571 -0.0268
  508MOL0     H67007   9.859   9.262   4.779 -0.5325 -2.2617 -0.2057
  508MOL0     H67008   9.929   9.369   4.662 -0.7581 -0.1056  1.2903
  508MOL0     H67009   9.856   8.976   4.698 -2.1188  2.8043  0.9802
  508MOL0     H67010   9.982   8.758   4.530 -0.8670  2.2673 -0.8996
  508MOL0     H67011  10.048   8.779   4.699  1.9872  4.3562  2.2620
  508MOL0     H67012  10.264   8.805   4.599  0.1002  1.5739 -3.2154
  508MOL0     H67013  10.207   8.786   4.445  2.7958  0.6757  0.6831
  508MOL0     H67014  10.180   8.582   4.680 -4.5457 -2.4794 -0.7522
  508MOL0     H67015  10.087   8.561   4.545  0.2497 -2.0730 -0.9081
  508MOL0     H67016  10.299   8.530   4.408 -2.7038  0.5208 -0.3480
  508MOL0     H67017  10.321   8.430   4.549 -1.7320  1.0141 -0.2815
  508MOL0     H67018  10.493   8.369   4.402  0.4195 -0.4602  0.1958
  508MOL0     H67019  10.710   8.285   4.360 -3.0988  1.3724 -2.3520
  508MOL0     H67020  11.188   8.321   4.330  0.2273 -1.9823  0.0723
  508MOL0     H67021  11.430   8.245   4.334  2.1011  1.7568 -0.2603
  508MOL0     H67022  11.649   8.261   4.712 -0.1872 -1.8620 -1.3323
  508MOL0     H67023  11.692   8.421   4.638 -2.6230  0.6998  0.5702
  508MOL0     H67024  11.823   8.326   4.485 -1.8556 -0.5551 -0.1833
  508MOL0     H67025  11.795   8.158   4.537  0.0495 -1.2780  3.7259
  508MOL0     H67026  11.877   8.196   4.750 -2.8068 -0.0952 -2.4438
  508MOL0     H67027  11.922   8.356   4.723  0.6785 -0.0094  0.2443
  508MOL0     H67028  12.040   8.108   4.591  1.2362 -0.7636 -1.1170
  508MOL0     H67029  12.052   8.263   4.508 -0.5229 -4.7810 -0.8345
  508MOL0     H67030  12.134   8.190   4.794 -0.4362  0.8285  0.4571
  508MOL0     H67031  12.153   8.351   4.723 -0.3934  0.2930 -2.0589
  508MOL0     H67032  12.304   8.242   4.546 -2.4251 -2.8598 -1.1058
  508MOL0     H67033  12.316   8.105   4.624 -2.2485 -0.1699 -0.9033
  508MOL0     H67034  12.397   8.349   4.777  0.3902  0.0722 -1.4744
  508MOL0     H67035  12.429   8.182   4.821  2.1465 -1.3897 -0.6330
  508MOL0     H67036  12.539   8.229   4.556 -0.5685 -0.3414 -0.1421
  508MOL0     H67037  12.607   8.169   4.699 -0.8614 -1.2101 -0.8764
  508MOL0     H67038  11.464   8.398   4.726  1.2619 -0.1742 -1.8269
  508MOL0     H67039  11.217   8.460   4.720  1.3352  2.2872 -0.4114
  508MOL0     H67040  10.886   8.561   4.630 -0.2010 -3.6407  3.2165
  508MOL0     H67041  10.659   8.664   4.676  2.5640  3.7716 -1.7782
  508MOL0     H67042   9.557   9.142   3.972  1.2637  0.2496 -1.8650
  508MOL0     H67043   9.712   9.032   3.823 -0.3047 -1.7327 -1.1619
  508MOL0     H67044   9.880   8.399   3.801  0.4792 -1.2905 -2.5712
  508MOL0     H67045  10.097   8.313   3.772 -2.0257  0.1517 -2.3811
  508MOL0     H67046  10.280   8.268   3.693 -1.6432  2.2464  0.5294
  508MOL0     H67047  10.370   8.321   3.833  2.9313  4.0212 -0.3461
  508MOL0     H67048  10.532   8.206   3.677 -0.9397 -0.2175  2.0159
  508MOL0     H67049  10.485   8.317   3.554 -1.3386 -1.5602  0.3451
  508MOL0     H67050  10.599   8.449   3.807 -2.5749  1.0612 -1.0294
  508MOL0     H67051  10.595   8.495   3.637  3.7824 -0.0615 -1.4614
  508MOL0     H67052  10.760   8.258   3.742  0.0742 -1.5523 -2.1854
  508MOL0     H67053  10.769   8.326   3.586  3.1630 -1.3739  1.7335
  508MOL0     H67054  11.058   8.559   3.791  1.6883 -1.6200 -0.9459
  508MOL0     H67055  10.233   8.709   3.677 -0.8744  1.8955  2.8548
  508MOL0     H67056  10.001   8.797   3.708 -0.5440  0.0402  3.0405
  509MOL0     O67057   3.009  10.932   8.254  0.5460 -0.6010 -0.5988
  509MOL0     C67058   3.005  11.051   8.251  0.5458 -0.1377  0.0645
  509MOL0     O67059   3.112  11.135   8.239 -0.3732  0.0549 -0.4954
  509MOL0     C67060   3.243  11.083   8.263  0.0421  0.6423  0.9778
  509MOL0     C67061   3.292  10.991   8.170  0.0027 -0.1152  0.2615
  509MOL0     C67062   3.428  10.976   8.169  0.8409  0.6899  0.6295
  509MOL0     C67063   3.513  11.042   8.251  0.4670 -0.5541 -0.6332
  509MOL0     O67064   3.647  11.026   8.246  0.3755  0.7063  0.0138
  509MOL0     C67065   3.745  11.126   8.253  0.8679 -0.0645 -0.2524
  509MOL0     C67066   3.776  11.194   8.119  1.4542  0.6679  0.5430
  509MOL0     C67067   3.816  11.109   8.004 -0.1026  0.5135 -0.3148
  509MOL0     C67068   3.938  11.008   8.020 -0.1425 -0.9639  0.5630
  509MOL0     C67069   4.074  11.072   7.998 -0.0726 -0.3801 -1.0523
  509MOL0     C67070   4.203  10.985   7.984  0.0422  0.8617 -0.1065
  509MOL0     C67071   4.254  10.899   8.097 -0.1519  0.7776  0.6895
  509MOL0     C67072   4.371  10.979   8.165  0.4242  1.0802  0.3520
  509MOL0     N67073   4.385  10.941   8.308  0.1931  0.1262 -0.0669
  509MOL0     C67074   4.319  10.997   8.413  1.1505  0.8071  0.4604
  509MOL0     C67075   4.371  10.953   8.530 -1.0179 -0.1788  0.0074
  509MOL0     C67076   4.318  10.968   8.671 -0.4946  0.2700  0.6903
  509MOL0     C67077   4.404  11.070   8.745 -0.3018 -0.0392 -0.6127
  509MOL0     C67078   4.361  11.075   8.894 -0.7321 -0.1406 -0.5928
  509MOL0     C67079   4.237  11.170   8.902  0.2303  0.7536 -0.3828
  509MOL0     O67080   4.152  11.146   9.025 -0.0375 -0.9482 -0.0561
  509MOL0     C67081   4.064  11.044   9.054 -0.7883  0.1607  0.8488
  509MOL0     C67082   4.028  10.954   8.954  1.1965  1.0292 -0.8522
  509MOL0     C67083   3.951  10.838   8.995 -0.3622 -0.4773  0.8045
  509MOL0     C67084   3.895  10.820   9.129 -0.9671 -0.2688  0.5063
  509MOL0     C67085   3.804  10.707   9.171 -0.2235 -0.0700  0.5437
  509MOL0     O67086   3.822  10.580   9.110  0.0390 -0.3219 -0.5621
  509MOL0     C67087   3.729  10.484   9.139 -0.0142 -0.7161  0.4823
  509MOL0     C67088   3.593  10.495   9.120  0.1636  0.9006  0.2047
  509MOL0     C67089   3.509  10.390   9.157 -0.0625 -0.0071  0.9253
  509MOL0     C67090   3.561  10.277   9.225  0.5352  0.0702 -0.0919
  509MOL0     O67091   3.490  10.164   9.261  0.1405 -0.4654  0.5565
  509MOL0     C67092   3.366  10.137   9.200  0.2130 -0.6980 -0.7716
  509MOL0     C67093   3.250  10.179   9.295 -0.3473  0.2102  0.0984
  509MOL0     C67094   3.124  10.121   9.241 -0.5837 -0.0577 -1.3339
  509MOL0     C67095   3.008  10.157   9.334  1.1158  0.6447  0.8186
  509MOL0     C67096   2.870  10.110   9.262 -0.6751 -0.2863  1.2619
  509MOL0     C67097   2.759  10.107   9.366 -0.3325  0.7855  0.0944
  509MOL0     C67098   2.633  10.045   9.293  0.2116 -0.3517  0.1455
  509MOL0     C67099   2.499  10.091   9.349  0.1593  0.0139 -0.7040
  509MOL0    Cl67100   2.488  10.271   9.338  0.4022  0.3516  0.3873
  509MOL0     C67101   3.696  10.261   9.236 -0.9117 -0.3942  0.0452
  509MOL0     C67102   3.775  10.359   9.186 -0.4285 -0.4059  0.7573
  509MOL0     O67103   3.729  10.726   9.261  0.5885  0.0274 -1.1085
  509MOL0     C67104   3.935  10.919   9.218 -0.2574 -0.2035  0.4483
  509MOL0     C67105   4.019  11.024   9.183  0.2717  0.2228  0.0976
  509MOL0     N67106   4.470  10.863   8.491 -0.1850 -0.3475 -0.1312
  509MOL0     N67107   4.482  10.859   8.362 -0.5186 -0.1591 -0.1492
  509MOL0     C67108   3.459  11.138   8.348  0.0070  0.0275 -0.3784
  509MOL0     C67109   3.322  11.153   8.348  0.7773  0.5703 -0.6101
  509MOL0     C67110   2.873  11.107   8.238 -0.9101  0.4679 -0.0571
  509MOL0     C67111   2.856  11.232   8.296  0.2044 -0.9736  1.1913
  509MOL0     C67112   2.736  11.302   8.277  0.5201 -0.4769  0.4631
  509MOL0     C67113   2.628  11.242   8.221 -0.1386 -0.9160  0.3451
  509MOL0     O67114   2.518  11.313   8.190 -0.6077  0.8577 -0.0652
  509MOL0     C67115   2.401  11.264   8.256  0.6972  0.1452  0.6485
  509MOL0     C67116   2.364  11.115   8.271 -0.1739 -0.8961 -0.7610
  509MOL0     C67117   2.214  11.117   8.315 -0.6728 -0.2461 -0.2992
  509MOL0     C67118   2.141  10.988   8.307 -0.2637  0.0129  0.0414
  509MOL0     C67119   2.150  10.912   8.175  0.0424 -0.6370  0.5555
  509MOL0     C67120   2.195  10.844   8.085  0.2308 -0.3637 -0.1465
  509MOL0     C67121   2.637  11.118   8.167 -0.2973 -0.4699  0.1133
  509MOL0     C67122   2.761  11.056   8.163  0.1358  0.1303  0.3586
  509MOL0     H67123   3.223  10.952   8.096  0.5253 -1.7260  0.5628
  509MOL0     H67124   3.466  10.897   8.106 -0.3920  0.7660 -0.2472
  509MOL0     H67125   3.846  11.086   8.264  1.9508  1.9009 -2.3554
  509MOL0     H67126   3.730  11.204   8.328  0.4759 -2.3630  2.2339
  509MOL0     H67127   3.849  11.274   8.135  1.9947  0.9435 -2.6757
  509MOL0     H67128   3.686  11.245   8.084  2.3611  1.1191 -1.1970
  509MOL0     H67129   3.837  11.179   7.923  2.1780 -0.7216 -0.8883
  509MOL0     H67130   3.739  11.038   7.974  1.6068 -1.0121 -1.3104
  509MOL0     H67131   3.938  10.959   8.118 -0.3285 -0.1064  1.0004
  509MOL0     H67132   3.918  10.932   7.944  1.1769 -0.0439 -0.7612
  509MOL0     H67133   4.088  11.128   8.091 -1.0739 -0.6236 -0.7392
  509MOL0     H67134   4.064  11.141   7.913 -1.3447 -1.7013 -2.0350
  509MOL0     H67135   4.287  11.051   7.962  0.7495  0.2481  0.7021
  509MOL0     H67136   4.196  10.919   7.897  3.3067 -1.5099  1.2467
  509MOL0     H67137   4.173  10.876   8.166 -0.7848  0.9836  0.0276
  509MOL0     H67138   4.292  10.803   8.060 -2.1070  0.5626 -0.9325
  509MOL0     H67139   4.362  11.088   8.165  1.2139  1.1553  1.0956
  509MOL0     H67140   4.465  10.970   8.109  0.7434  2.4412  0.6346
  509MOL0     H67141   4.234  11.063   8.404 -0.1701 -0.3870  2.9950
  509MOL0     H67142   4.311  10.868   8.716 -2.9522 -0.1369 -0.4503
  509MOL0     H67143   4.211  10.991   8.663 -1.2315 -2.0302  2.7796
  509MOL0     H67144   4.377  11.170   8.709 -0.3512  0.7552  1.5010
  509MOL0     H67145   4.510  11.055   8.721 -0.1193  0.6980 -0.2802
  509MOL0     H67146   4.323  10.976   8.922  2.3830 -2.2621 -3.0416
  509MOL0     H67147   4.446  11.092   8.961  0.6449  0.1832 -2.3200
  509MOL0     H67148   4.171  11.158   8.815 -0.9538 -0.0657  0.6018
  509MOL0     H67149   4.279  11.270   8.897  0.4355  0.6313 -3.3394
  509MOL0     H67150   4.057  10.961   8.850  1.4189  3.3140 -0.7058
  509MOL0     H67151   3.943  10.764   8.916  4.7021 -3.8438  2.9639
  509MOL0     H67152   3.553  10.584   9.073  2.1653  0.3747 -2.7803
  509MOL0     H67153   3.401  10.398   9.160 -0.3396 -2.6598  0.4607
  509MOL0     H67154   3.353  10.028   9.194 -1.4153 -0.4989 -1.3076
  509MOL0     H67155   3.359  10.180   9.100  0.1646 -2.9993 -1.8406
  509MOL0     H67156   3.244  10.288   9.285  2.6989  0.7114  2.3068
  509MOL0     H67157   3.270  10.143   9.396 -3.4231  0.0522  0.7522
  509MOL0     H67158   3.132  10.012   9.237 -0.6484 -0.0494 -1.7575
  509MOL0     H67159   3.111  10.148   9.136 -2.6926 -2.9467 -1.9348
  509MOL0     H67160   3.012  10.102   9.429 -1.9371  0.2693  0.8251
  509MOL0     H67161   3.004  10.264   9.352 -0.0213  0.5799  0.9984
  509MOL0     H67162   2.873  10.012   9.213  1.0292  0.2627  0.1561
  509MOL0     H67163   2.839  10.179   9.183  0.1616 -1.5513 -0.2378
  509MOL0     H67164   2.734  10.208   9.401 -2.3717  0.0687  0.8799
  509MOL0     H67165   2.786  10.048   9.454 -0.4837 -1.0080 -1.0134
  509MOL0     H67166   2.652  10.080   9.191  1.7322  3.9807  1.6473
  509MOL0     H67167   2.631   9.936   9.288  3.4221 -0.5303  0.2843
  509MOL0     H67168   2.494  10.071   9.456  0.0275 -1.4890 -0.9648
  509MOL0     H67169   2.414  10.049   9.295 -2.8109  3.6957  0.6691
  509MOL0     H67170   3.731  10.167   9.277 -1.6292 -0.6590  0.0610
  509MOL0     H67171   3.881  10.334   9.189  0.6355  3.1287 -1.1465
  509MOL0     H67172   3.900  10.904   9.319 -1.0031  0.3033  0.2741
  509MOL0     H67173   4.068  11.084   9.259  0.2885 -0.6546  0.7984
  509MOL0     H67174   3.519  11.190   8.422  0.1574  0.4934 -0.8231
  509MOL0     H67175   3.262  11.216   8.413 -0.6987  0.2627 -1.6294
  509MOL0     H67176   2.934  11.286   8.348 -1.0392 -0.1355  2.2481
  509MOL0     H67177   2.736  11.399   8.325  0.0666 -1.4518  2.5127
  509MOL0     H67178   2.328  11.301   8.184  3.8891  2.1763 -1.8214
  509MOL0     H67179   2.377  11.318   8.347  1.5095  2.6883 -0.5680
  509MOL0     H67180   2.383  11.074   8.171  2.4846  0.3554 -0.8464
  509MOL0     H67181   2.431  11.065   8.342  0.1223 -2.1852 -1.8959
  509MOL0     H67182   2.158  11.197   8.267 -3.4356 -0.1748  2.7152
  509MOL0     H67183   2.204  11.156   8.417 -2.1194 -1.4331  0.0402
  509MOL0     H67184   2.174  10.924   8.389 -2.5685  0.1669  1.1593
  509MOL0     H67185   2.037  11.021   8.320  0.3374  1.6775  0.8640
  509MOL0     H67186   2.214  10.775   8.005  0.1788 -1.7093  0.9617
  509MOL0     H67187   2.563  11.072   8.102 -2.0999 -1.4571  2.6919
  509MOL0     H67188   2.763  10.963   8.108 -0.2649  0.1247  0.3514
  510MOL0     O67189   7.988   4.864   5.284  0.9199 -0.8610 -0.4738
  510MOL0     C67190   8.048   4.970   5.266 -0.3637 -0.2330  0.3776
  510MOL0     O67191   7.988   5.088   5.246 -0.6036  0.9288  0.1615
  510MOL0     C67192   7.853   5.100   5.265  0.6157  0.1761 -0.8836
  510MOL0     C67193   7.783   5.160   5.164 -0.8753  1.0923  0.6902
  510MOL0     C67194   7.647   5.161   5.155  0.6198  0.9205 -0.0678
  510MOL0     C67195   7.577   5.123   5.275 -0.2080 -0.2033 -0.4329
  510MOL0     O67196   7.444   5.143   5.299  0.0879 -0.8583 -0.1921
  510MOL0     C67197   7.368   5.206   5.201  0.0277  0.2911  0.3748
  510MOL0     C67198   7.240   5.253   5.256  0.5239 -0.8517  0.7064
  510MOL0     C67199   7.135   5.147   5.287 -0.9499 -0.0974  0.2413
  510MOL0     C67200   7.026   5.207   5.376  0.1718  0.2394 -0.9544
  510MOL0     C67201   6.944   5.092   5.444  0.1788 -0.3224 -0.2162
  510MOL0     C67202   6.818   5.159   5.501  0.9386 -0.6541  0.8496
  510MOL0     C67203   6.744   5.046   5.565  0.0766  0.6033 -1.1325
  510MOL0     C67204   6.599   5.108   5.582  0.1873 -0.4733 -0.7731
  510MOL0     N67205   6.509   5.024   5.663 -0.3858 -0.4867 -0.3735
  510MOL0     C67206   6.523   5.012   5.798  0.9245 -0.3971  0.1488
  510MOL0     C67207   6.408   4.956   5.845  0.2860 -0.3049 -0.1185
  510MOL0     C67208   6.388   4.915   5.984 -0.7389 -0.1275  0.0075
  510MOL0     C67209   6.248   4.907   6.040  0.2420  0.7427 -0.5030
  510MOL0     C67210   6.214   4.765   6.087 -0.0690  0.9378 -0.8078
  510MOL0     C67211   6.094   4.767   6.189  0.3265 -0.3131 -0.1075
  510MOL0     O67212   5.986   4.852   6.143 -0.4876 -0.7177  0.0402
  510MOL0     C67213   5.898   4.916   6.225 -0.8257  0.0614 -1.2024
  510MOL0     C67214   5.882   5.059   6.208  0.9704  0.1953  0.3127
  510MOL0     C67215   5.802   5.134   6.293  0.7581  0.6119  0.4849
  510MOL0     C67216   5.727   5.064   6.391  0.4658 -0.5654 -0.9684
  510MOL0     C67217   5.615   5.130   6.461  0.3444 -0.0838 -0.4130
  510MOL0     O67218   5.544   5.050   6.542  0.1712  0.1758  0.1354
  510MOL0     C67219   5.423   5.089   6.600 -0.2607 -0.1234 -0.1015
  510MOL0     C67220   5.312   5.156   6.542  0.1572  0.5673  0.6042
  510MOL0     C67221   5.194   5.175   6.609  0.8548  0.2670 -0.1757
  510MOL0     C67222   5.173   5.122   6.738  0.9442 -0.4292  0.0460
  510MOL0     O67223   5.053   5.136   6.802 -0.7615  0.3428  0.2624
  510MOL0     C67224   5.011   5.061   6.920 -0.1509 -0.9236  0.0002
  510MOL0     C67225   4.861   5.074   6.938  1.3153  0.2060 -0.2278
  510MOL0     C67226   4.819   5.023   7.079  0.0446  0.4068 -0.1558
  510MOL0     C67227   4.679   5.049   7.098 -0.0075 -0.8119  0.5057
  510MOL0     C67228   4.631   4.977   7.220 -0.9999 -0.3927 -0.2883
  510MOL0     C67229   4.487   4.935   7.218  0.2978  0.7945 -0.4423
  510MOL0     C67230   4.377   5.045   7.168 -0.0640 -0.9557 -0.1140
  510MOL0     C67231   4.293   4.997   7.044 -0.9265  1.4982  0.1412
  510MOL0    Cl67232   4.158   4.900   7.106 -0.6238  0.0314 -0.0037
  510MOL0     C67233   5.277   5.065   6.797  0.3420  0.3786  0.1630
  510MOL0     C67234   5.397   5.041   6.725  0.4554 -0.0438  1.0421
  510MOL0     O67235   5.584   5.245   6.428  0.0853 -0.3211  0.4315
  510MOL0     C67236   5.760   4.927   6.415 -0.5480  0.2330  0.2797
  510MOL0     C67237   5.848   4.850   6.337 -0.7668  0.7768 -0.3215
  510MOL0     N67238   6.325   4.943   5.737 -0.4660 -1.0702 -0.2209
  510MOL0     N67239   6.381   4.988   5.627 -0.5986 -0.1699  0.2171
  510MOL0     C67240   7.645   5.084   5.395  0.4174  0.3509 -0.7191
  510MOL0     C67241   7.783   5.065   5.384 -0.1202 -0.1908  1.0188
  510MOL0     C67242   8.199   4.981   5.270  0.4734  0.4071  0.7759
  510MOL0     C67243   8.259   5.097   5.217  0.0729  0.9180 -0.1343
  510MOL0     C67244   8.402   5.105   5.204 -0.1372 -0.4369 -0.9627
  510MOL0     C67245   8.486   5.001   5.266 -0.3674  1.3632 -0.6129
  510MOL0     O67246   8.622   5.007   5.283  0.1543  0.0092  0.1669
  510MOL0     C67247   8.696   5.096   5.207  0.1435 -0.0079 -0.4993
  510MOL0     C67248   8.702   5.078   5.059  0.4880  0.6206 -0.0086
  510MOL0     C67249   8.759   4.947   5.008  0.9032 -0.7659 -0.3115
  510MOL0     C67250   8.754   4.923   4.852  0.5528 -0.1752 -0.4464
  510MOL0     C67251   8.617   4.937   4.797 -0.3967  0.2205 -0.1908
  510MOL0     C67252   8.501   4.944   4.770 -0.0398 -1.0590 -0.1649
  510MOL0     C67253   8.422   4.883   5.311  0.5446 -0.0709  1.0158
  510MOL0     C67254   8.285   4.870   5.310  0.5075  0.4688  0.2934
  510MOL0     H67255   7.825   5.193   5.070 -4.7033  1.4138 -1.1351
  510MOL0     H67256   7.593   5.186   5.063 -1.1584 -1.1840  0.3228
  510MOL0     H67257   7.352   5.128   5.126  0.0876  0.6770 -0.0473
  510MOL0     H67258   7.418   5.293   5.156  0.5204  0.6076  1.5127
  510MOL0     H67259   7.187   5.320   5.189 -0.0131 -2.0175 -0.0804
  510MOL0     H67260   7.265   5.303   5.350  0.2541 -1.3489  1.0468
  510MOL0     H67261   7.176   5.067   5.350 -3.4816 -1.7765 -0.1076
  510MOL0     H67262   7.103   5.107   5.190 -1.1544 -0.9180  0.6318
  510MOL0     H67263   7.077   5.274   5.447  1.3516 -0.5153 -1.0734
  510MOL0     H67264   6.953   5.264   5.318 -1.4076  1.9056  2.3733
  510MOL0     H67265   6.998   5.050   5.529 -2.3988  1.5234  2.5602
  510MOL0     H67266   6.922   5.016   5.369  1.8329 -0.4616 -0.5957
  510MOL0     H67267   6.767   5.226   5.431  2.4205 -0.3620 -0.0082
  510MOL0     H67268   6.846   5.227   5.581  2.8948  1.6679 -1.6291
  510MOL0     H67269   6.757   4.952   5.512  1.5260 -2.2132  3.5839
  510MOL0     H67270   6.782   5.024   5.665 -0.9400  3.7933  0.0982
  510MOL0     H67271   6.557   5.140   5.487  0.3938  4.0901  0.4610
  510MOL0     H67272   6.616   5.203   5.633  1.4394 -0.1454 -1.7515
  510MOL0     H67273   6.607   5.041   5.861 -0.8282  2.7130  1.2970
  510MOL0     H67274   6.455   4.988   6.031 -0.1758  0.4492 -1.6155
  510MOL0     H67275   6.448   4.823   5.978  1.2487  0.8696  2.6056
  510MOL0     H67276   6.177   4.939   5.963  1.1881  2.5770 -0.6778
  510MOL0     H67277   6.232   4.974   6.125 -1.7335 -1.4905  0.9830
  510MOL0     H67278   6.187   4.700   6.003 -0.0872  1.5873 -1.3169
  510MOL0     H67279   6.289   4.708   6.141 -1.4471  0.2739  0.4543
  510MOL0     H67280   6.137   4.798   6.285  0.1186 -1.1994  0.2775
  510MOL0     H67281   6.048   4.668   6.196 -1.6231  0.3423 -2.3462
  510MOL0     H67282   5.932   5.110   6.126 -0.7758  0.1861 -0.8207
  510MOL0     H67283   5.777   5.237   6.268 -2.6882 -0.2683 -0.2232
  510MOL0     H67284   5.318   5.177   6.436 -1.0839  0.1428  0.4317
  510MOL0     H67285   5.121   5.238   6.559  1.7363  0.7431 -0.8904
  510MOL0     H67286   5.069   5.090   7.008 -0.6536 -1.0895  0.3915
  510MOL0     H67287   5.037   4.955   6.916  0.4942 -0.7405 -0.9450
  510MOL0     H67288   4.816   5.006   6.865  1.5222 -2.7799  2.2010
  510MOL0     H67289   4.837   5.179   6.923  0.3847  0.5034  2.7708
  510MOL0     H67290   4.872   5.067   7.164  0.5443 -1.7450  0.7340
  510MOL0     H67291   4.845   4.917   7.087 -0.8598  0.2839  2.1926
  510MOL0     H67292   4.668   5.157   7.110  1.2185 -0.6783  0.4821
  510MOL0     H67293   4.618   5.011   7.014 -1.2866  0.3595  0.8683
  510MOL0     H67294   4.653   5.046   7.302  1.7528 -0.5840 -0.7568
  510MOL0     H67295   4.699   4.892   7.236 -1.7262 -0.6031  2.0408
  510MOL0     H67296   4.473   4.900   7.321  1.6052  1.1831 -0.1143
  510MOL0     H67297   4.469   4.850   7.153 -1.5762 -0.8084  1.9870
  510MOL0     H67298   4.315   5.064   7.257  0.8884 -2.0987  0.8244
  510MOL0     H67299   4.432   5.134   7.137 -2.5837  0.6473 -0.2853
  510MOL0     H67300   4.353   4.937   6.975  0.5770  1.3353  1.5238
  510MOL0     H67301   4.249   5.074   6.981  1.3977  3.3207  0.6333
  510MOL0     H67302   5.282   5.014   6.893  0.2487  2.0431  1.0871
  510MOL0     H67303   5.469   4.971   6.768  2.3295  1.8222  1.1173
  510MOL0     H67304   5.704   4.875   6.492 -0.1834 -1.4560 -0.5411
  510MOL0     H67305   5.880   4.749   6.362  1.6659  1.0436 -2.0651
  510MOL0     H67306   7.579   5.068   5.480  0.1061 -1.5206 -1.2610
  510MOL0     H67307   7.845   5.021   5.463 -2.3080 -3.1314  1.2828
  510MOL0     H67308   8.207   5.188   5.190  0.9545  1.1945 -0.9905
  510MOL0     H67309   8.442   5.201   5.174 -1.2588  1.2968  2.5298
  510MOL0     H67310   8.794   5.093   5.254 -0.3267 -0.8729  0.4557
  510MOL0     H67311   8.661   5.196   5.231  0.6356  0.8785 -3.1452
  510MOL0     H67312   8.607   5.101   5.009  2.7100  0.0163 -5.1622
  510MOL0     H67313   8.762   5.157   5.014 -0.2211 -0.1007 -2.3641
  510MOL0     H67314   8.706   4.860   5.049 -4.5420  1.1587 -2.3131
  510MOL0     H67315   8.861   4.938   5.046  0.3646 -1.6345  1.0211
  510MOL0     H67316   8.822   4.999   4.812  1.8555 -0.9685  0.1872
  510MOL0     H67317   8.797   4.826   4.823  1.4028 -0.5596  1.8527
  510MOL0     H67318   8.401   4.938   4.734 -0.2314 -0.0003  0.1525
  510MOL0     H67319   8.473   4.797   5.354 -1.6414 -2.6427 -1.1890
  510MOL0     H67320   8.240   4.779   5.349  3.0050 -0.3871  1.3448
  511MOL0     O67321   6.042  10.871   5.856 -0.0662 -0.5266  0.5288
  511MOL0     C67322   5.979  10.787   5.801  0.4020  0.1982  0.2784
  511MOL0     O67323   6.010  10.653   5.783 -0.6705 -0.3382 -0.7469
  511MOL0     C67324   6.140  10.623   5.814  0.1677  0.5805 -0.2003
  511MOL0     C67325   6.250  10.672   5.755  0.2057  0.4089 -0.0301
  511MOL0     C67326   6.381  10.632   5.800  0.9703 -0.7097  0.2215
  511MOL0     C67327   6.396  10.546   5.907  0.2054  0.0151 -0.6253
  511MOL0     O67328   6.519  10.518   5.948  0.1127  0.4336  1.0099
  511MOL0     C67329   6.566  10.593   6.067  0.6327  0.1722  0.1968
  511MOL0     C67330   6.598  10.737   6.042  0.2739 -0.8850  1.2389
  511MOL0     C67331   6.675  10.801   6.165 -0.4783 -0.5591 -0.1996
  511MOL0     C67332   6.735  10.939   6.127  0.3143  0.1980  1.1554
  511MOL0     C67333   6.639  11.023   6.039 -1.7622 -0.3006  0.6102
  511MOL0     C67334   6.513  11.063   6.116 -0.5485 -0.2554 -0.5776
  511MOL0     C67335   6.549  11.115   6.257  0.7355  0.5480 -0.3294
  511MOL0     C67336   6.434  11.195   6.325  1.9616  0.2250 -0.8721
  511MOL0     N67337   6.309  11.113   6.339  0.2110  0.0370 -1.1406
  511MOL0     C67338   6.181  11.146   6.299  0.8751  0.4669  0.1749
  511MOL0     C67339   6.109  11.034   6.336 -0.2366 -0.8601 -0.1404
  511MOL0     C67340   5.963  11.014   6.346  0.0337 -0.4594  0.9308
  511MOL0     C67341   5.913  10.922   6.231 -0.2359 -0.2695 -0.8439
  511MOL0     C67342   5.917  10.767   6.269  0.0488 -0.3222  0.0615
  511MOL0     C67343   5.901  10.674   6.144 -0.3645  0.0597  0.1991
  511MOL0     O67344   5.769  10.678   6.088 -0.1665  0.4019  0.4665
  511MOL0     C67345   5.672  10.590   6.137 -1.2543  1.2337 -0.0412
  511MOL0     C67346   5.682  10.518   6.254 -0.4885 -0.6633  0.2547
  511MOL0     C67347   5.571  10.439   6.295  0.2643 -0.0120 -0.0339
  511MOL0     C67348   5.454  10.430   6.212 -0.0674  0.6897  0.1376
  511MOL0     C67349   5.347  10.335   6.240  0.1550  0.2856  0.4514
  511MOL0     O67350   5.267  10.309   6.129 -0.9998  0.3962 -0.3818
  511MOL0     C67351   5.156  10.234   6.155 -0.6331  0.0451  0.2410
  511MOL0     C67352   5.049  10.268   6.230 -0.2192  0.2463 -0.6823
  511MOL0     C67353   4.945  10.180   6.249  0.1565  0.0752 -0.2030
  511MOL0     C67354   4.947  10.046   6.205 -0.1724 -1.0111 -0.1958
  511MOL0     O67355   4.836   9.962   6.215 -0.0581  0.2351  0.5766
  511MOL0     C67356   4.754   9.957   6.333 -0.3345 -0.6924  0.8483
  511MOL0     C67357   4.692   9.821   6.359 -0.7200 -0.1343 -0.8654
  511MOL0     C67358   4.657   9.738   6.234 -0.6991 -0.3489 -0.1947
  511MOL0     C67359   4.544   9.800   6.148 -0.5604 -0.6748 -0.4933
  511MOL0     C67360   4.408   9.821   6.203  0.0641 -0.5352 -0.2972
  511MOL0     C67361   4.344   9.689   6.238  0.2166 -0.5702  0.4958
  511MOL0     C67362   4.265   9.639   6.120 -0.3936 -0.3180  0.0945
  511MOL0     C67363   4.224   9.493   6.119 -0.2631 -0.6506  0.6641
  511MOL0    Cl67364   4.137   9.441   6.258 -0.4812  0.4692 -0.0670
  511MOL0     C67365   5.055  10.010   6.127 -0.1166  0.3332 -0.5612
  511MOL0     C67366   5.159  10.100   6.104  0.3957 -0.0768  0.6082
  511MOL0     O67367   5.327  10.300   6.356 -0.5519  0.1952  0.1082
  511MOL0     C67368   5.448  10.507   6.088 -0.4516  0.1043  0.3200
  511MOL0     C67369   5.558  10.583   6.054  0.2122  0.1293 -0.0603
  511MOL0     N67370   6.199  10.940   6.383  0.3410  0.2589 -0.3519
  511MOL0     N67371   6.314  10.985   6.390  0.8290 -0.4882  0.2940
  511MOL0     C67372   6.276  10.503   5.971 -0.8334 -0.5781 -0.2726
  511MOL0     C67373   6.152  10.535   5.927 -0.2532 -0.5365 -0.0090
  511MOL0     C67374   5.845  10.830   5.750  1.0319 -0.2916  0.3580
  511MOL0     C67375   5.797  10.962   5.756  0.0657 -0.6969 -0.5241
  511MOL0     C67376   5.669  10.996   5.717  0.0598 -0.3640  0.7278
  511MOL0     C67377   5.571  10.900   5.680  0.5689  0.2672  0.8763
  511MOL0     O67378   5.439  10.927   5.636 -0.5125 -0.3309 -0.5466
  511MOL0     C67379   5.421  11.063   5.579  0.3766  0.4995  0.1926
  511MOL0     C67380   5.317  11.038   5.473  0.2262  0.0912 -1.2979
  511MOL0     C67381   5.371  10.944   5.370  0.7441  0.5523  0.3179
  511MOL0     C67382   5.281  10.936   5.241  0.8271 -0.0977 -0.7835
  511MOL0     C67383   5.140  10.904   5.283  0.4434 -0.1973  0.2880
  511MOL0     C67384   5.023  10.893   5.321  0.0090 -0.8073 -0.1238
  511MOL0     C67385   5.617  10.766   5.682 -0.1433 -0.2555  0.1479
  511MOL0     C67386   5.755  10.734   5.700  0.0813 -0.1960  0.2917
  511MOL0     H67387   6.215  10.723   5.666 -1.4779  0.5288  0.6616
  511MOL0     H67388   6.468  10.660   5.742  0.3328  1.6217  0.3011
  511MOL0     H67389   6.655  10.538   6.101  1.9952  1.4859 -1.0666
  511MOL0     H67390   6.497  10.593   6.152 -0.8176 -1.8029 -0.8995
  511MOL0     H67391   6.502  10.787   6.022  1.2864  0.3767 -0.8592
  511MOL0     H67392   6.673  10.744   5.962 -0.1948  1.4855  0.9302
  511MOL0     H67393   6.754  10.731   6.194  1.9061  2.6836  1.8174
  511MOL0     H67394   6.603  10.817   6.246  1.7574  2.6205  1.4013
  511MOL0     H67395   6.768  10.996   6.214 -1.9438 -1.6211  3.3509
  511MOL0     H67396   6.819  10.916   6.059  0.9161  2.3814  1.0989
  511MOL0     H67397   6.613  10.965   5.949 -1.4749 -1.2238  1.1114
  511MOL0     H67398   6.682  11.122   6.021 -2.9540  0.3409  1.1243
  511MOL0     H67399   6.434  10.987   6.120 -0.2237 -0.6600 -1.4783
  511MOL0     H67400   6.452  11.141   6.068 -2.4106 -2.1542 -1.4580
  511MOL0     H67401   6.574  11.025   6.315 -2.2221 -0.6681 -0.7406
  511MOL0     H67402   6.631  11.186   6.268  2.3716 -1.1862 -0.6623
  511MOL0     H67403   6.414  11.287   6.270 -1.9094  0.7645  1.0628
  511MOL0     H67404   6.467  11.212   6.428  2.1098  1.7117 -1.1534
  511MOL0     H67405   6.128  11.236   6.272 -2.5301 -1.3701  0.2084
  511MOL0     H67406   5.925  11.116   6.337  2.5359  0.4171 -0.7037
  511MOL0     H67407   5.926  10.975   6.441 -1.6799 -0.5377  0.2682
  511MOL0     H67408   5.968  10.932   6.136  1.0183 -1.2767 -0.2585
  511MOL0     H67409   5.809  10.941   6.203 -0.1893  0.2912 -0.6511
  511MOL0     H67410   6.006  10.742   6.328  2.2287 -0.8066 -3.1664
  511MOL0     H67411   5.828  10.755   6.331 -0.9758 -1.8051 -1.6128
  511MOL0     H67412   5.926  10.574   6.182 -0.5063  0.6044  1.7816
  511MOL0     H67413   5.969  10.707   6.065  0.5636 -3.2871 -0.5625
  511MOL0     H67414   5.767  10.527   6.321 -1.2607  3.0713  0.9509
  511MOL0     H67415   5.591  10.373   6.379  3.7492 -0.7212 -1.2372
  511MOL0     H67416   5.039  10.366   6.274 -0.7810  1.0493 -2.5059
  511MOL0     H67417   4.862  10.218   6.308  0.2859  0.0251  0.0112
  511MOL0     H67418   4.678  10.033   6.310 -0.7932 -1.7071 -1.3145
  511MOL0     H67419   4.804   9.997   6.421  1.1996 -1.4904  0.3807
  511MOL0     H67420   4.604   9.829   6.424  0.7920 -4.5885  2.1957
  511MOL0     H67421   4.770   9.771   6.417  0.2867  3.3379  1.0075
  511MOL0     H67422   4.622   9.639   6.264 -0.1932 -0.0597  1.4257
  511MOL0     H67423   4.750   9.722   6.179  1.3838 -0.2479  3.0232
  511MOL0     H67424   4.574   9.902   6.125 -0.6937  0.0832  2.2799
  511MOL0     H67425   4.542   9.733   6.062  3.5132 -2.2967  0.3928
  511MOL0     H67426   4.347   9.875   6.130 -0.3840  0.3904  0.7372
  511MOL0     H67427   4.418   9.879   6.295 -1.2946 -0.1216 -0.3809
  511MOL0     H67428   4.274   9.708   6.319 -1.1079  0.7497 -0.8814
  511MOL0     H67429   4.418   9.611   6.259  2.0609  0.8484 -0.3735
  511MOL0     H67430   4.171   9.695   6.123 -1.0832 -1.4435  2.3379
  511MOL0     H67431   4.306   9.673   6.025  2.0855  1.5965  1.7215
  511MOL0     H67432   4.317   9.435   6.110  0.0211 -0.0216 -0.7037
  511MOL0     H67433   4.169   9.469   6.028 -1.2580  3.1330  0.1170
  511MOL0     H67434   5.067   9.914   6.077 -3.9895 -1.0388  0.7863
  511MOL0     H67435   5.241  10.081   6.036  0.9313  0.5283  1.0659
  511MOL0     H67436   5.359  10.506   6.026  0.2741 -1.0252 -0.7537
  511MOL0     H67437   5.564  10.651   5.970 -1.3920 -0.5928 -0.8055
  511MOL0     H67438   6.300  10.425   6.043  0.2652 -1.5332 -1.6216
  511MOL0     H67439   6.064  10.510   5.985 -0.0967  0.3281  0.6137
  511MOL0     H67440   5.867  11.039   5.787 -1.5622  1.5001 -1.9617
  511MOL0     H67441   5.647  11.103   5.713 -0.1051 -0.4280 -0.8917
  511MOL0     H67442   5.516  11.099   5.537  0.1754  1.9275  0.9106
  511MOL0     H67443   5.381  11.127   5.658  1.1577  1.1702  0.0583
  511MOL0     H67444   5.224  11.001   5.516  1.2806 -3.0780 -1.5427
  511MOL0     H67445   5.297  11.129   5.414  3.5860  0.7018 -1.6888
  511MOL0     H67446   5.373  10.844   5.415  0.7804 -0.1666 -1.2317
  511MOL0     H67447   5.470  10.971   5.333  0.8391 -1.4152 -1.0134
  511MOL0     H67448   5.281  11.034   5.193  0.1464 -0.4072 -1.4310
  511MOL0     H67449   5.316  10.868   5.163 -2.3323 -0.0525 -2.4168
  511MOL0     H67450   4.919  10.903   5.347  0.3954  1.0015  0.8680
  511MOL0     H67451   5.554  10.681   5.660 -0.1098 -0.1410 -0.4099
  511MOL0     H67452   5.787  10.631   5.687 -1.6190 -1.0837  2.5614
  512MOL0     O67453  10.158  10.636   6.519 -0.9750  0.1445 -0.1442
  512MOL0     C67454  10.095  10.674   6.616 -0.4348 -0.7981 -0.0217
  512MOL0     O67455  10.022  10.794   6.625  0.0182  1.1543 -0.2933
  512MOL0     C67456   9.995  10.866   6.738 -0.8775 -0.3004 -0.1812
  512MOL0     C67457   9.880  10.944   6.744 -0.2983 -0.5302 -0.1407
  512MOL0     C67458   9.834  11.014   6.857 -0.2478 -0.7107  0.4670
  512MOL0     C67459   9.902  11.006   6.977  0.8623  1.0778  0.6048
  512MOL0     O67460   9.853  11.084   7.075 -0.4732  0.4503 -0.5946
  512MOL0     C67461   9.913  11.062   7.210  0.7261 -0.5480  0.0374
  512MOL0     C67462   9.820  11.105   7.332 -0.1961  0.0586  0.4997
  512MOL0     C67463   9.807  11.256   7.328  0.1689 -0.2057 -0.1309
  512MOL0     C67464   9.700  11.302   7.427  0.6287  0.7358 -0.0263
  512MOL0     C67465   9.652  11.448   7.394  0.1170 -0.0337  1.1886
  512MOL0     C67466   9.775  11.545   7.432  0.0628 -0.4289 -0.9903
  512MOL0     C67467   9.728  11.690   7.419  0.0530  1.4997 -0.1422
  512MOL0     C67468   9.836  11.776   7.450  0.0489 -0.7311  0.0088
  512MOL0     N67469   9.808  11.918   7.487  0.7358 -0.0170 -0.0305
  512MOL0     C67470   9.688  11.980   7.447  1.2649  0.0131 -0.6230
  512MOL0     C67471   9.710  12.111   7.462 -0.5211 -0.3327  0.0886
  512MOL0     C67472   9.616  12.217   7.429  0.1567  0.4089  0.2687
  512MOL0     C67473   9.636  12.275   7.286 -0.1203  0.3623  0.1770
  512MOL0     C67474   9.531  12.377   7.252 -0.1005 -0.4478  0.4286
  512MOL0     C67475   9.573  12.417   7.109 -0.2059 -0.1927 -0.1284
  512MOL0     O67476   9.509  12.535   7.071 -0.0071 -0.1777  0.3657
  512MOL0     C67477   9.375  12.543   7.069  0.8575  0.0349  0.1465
  512MOL0     C67478   9.312  12.606   7.174  0.3022  0.0634 -0.3843
  512MOL0     C67479   9.173  12.639   7.170 -0.7885  0.3936  0.7193
  512MOL0     C67480   9.093  12.602   7.058 -0.0878 -0.1516 -0.3083
  512MOL0     C67481   8.946  12.605   7.055 -0.1206 -0.9823 -0.8996
  512MOL0     O67482   8.882  12.564   6.941  0.8826 -0.1933 -0.0853
  512MOL0     C67483   8.743  12.568   6.928 -0.5721 -0.2478  0.7363
  512MOL0     C67484   8.636  12.570   7.028 -0.1718  0.6287  0.0259
  512MOL0     C67485   8.499  12.562   6.987  0.6570 -0.0887 -0.9561
  512MOL0     C67486   8.455  12.556   6.852 -0.9549  0.3067  0.1894
  512MOL0     O67487   8.323  12.562   6.828 -0.0126  0.9466 -0.7250
  512MOL0     C67488   8.279  12.539   6.693 -0.9896 -0.9576 -0.1828
  512MOL0     C67489   8.137  12.532   6.680  0.2106 -0.2028 -0.0788
  512MOL0     C67490   8.094  12.514   6.534 -0.8975  0.5960 -0.4274
  512MOL0     C67491   7.954  12.455   6.533 -0.2441 -0.3148 -0.2736
  512MOL0     C67492   7.870  12.470   6.406 -0.4312  0.9566  0.5582
  512MOL0     C67493   7.738  12.385   6.398 -0.5922 -0.1705  0.6465
  512MOL0     C67494   7.647  12.429   6.523  0.0669 -0.3087 -0.6975
  512MOL0     C67495   7.502  12.434   6.480  0.2764  0.5170 -0.1481
  512MOL0    Cl67496   7.460  12.557   6.353 -0.2050 -0.0053 -0.4427
  512MOL0     C67497   8.560  12.550   6.758  0.0528 -0.2164  0.6645
  512MOL0     C67498   8.699  12.561   6.795 -1.1503  0.4224 -0.5828
  512MOL0     O67499   8.891  12.645   7.160 -0.0140  0.4370 -0.7881
  512MOL0     C67500   9.162  12.533   6.956 -0.8444  0.7492 -0.3233
  512MOL0     C67501   9.296  12.501   6.960 -0.9027 -0.0879  0.3424
  512MOL0     N67502   9.848  12.124   7.503  0.1429 -0.2960  0.1509
  512MOL0     N67503   9.905  12.011   7.514 -0.3810  0.1509  0.2059
  512MOL0     C67504  10.017  10.922   6.982  0.0641 -0.0187 -0.6431
  512MOL0     C67505  10.063  10.852   6.866  0.5203  0.5908  0.2326
  512MOL0     C67506  10.120  10.577   6.727  0.6028 -0.4854  0.3057
  512MOL0     C67507  10.025  10.482   6.762  0.7175  0.5333 -0.2700
  512MOL0     C67508  10.055  10.375   6.843 -0.3929 -0.5588 -0.7546
  512MOL0     C67509  10.184  10.351   6.883  0.2091 -0.0451 -0.2355
  512MOL0     O67510  10.214  10.230   6.940  0.0221  0.3250  0.5796
  512MOL0     C67511  10.263  10.243   7.077  0.4200 -1.4857 -0.3337
  512MOL0     C67512  10.409  10.194   7.096 -0.1869 -0.4150 -0.2897
  512MOL0     C67513  10.457  10.215   7.240  0.1011 -0.3629  0.5731
  512MOL0     C67514  10.603  10.192   7.252  0.2882 -1.0435 -0.9120
  512MOL0     C67515  10.644  10.057   7.300  0.6331  0.5634  0.0656
  512MOL0     C67516  10.657   9.937   7.343  0.0079 -0.3911  0.1004
  512MOL0     C67517  10.288  10.443   6.851  0.2131  0.1760 -0.0491
  512MOL0     C67518  10.252  10.548   6.768 -1.0756  1.2502 -0.0030
  512MOL0     H67519   9.824  10.947   6.651  1.3840 -1.3340 -1.2224
  512MOL0     H67520   9.735  11.058   6.856 -0.3237 -0.8069 -1.5312
  512MOL0     H67521  10.007  11.118   7.218  0.3469  0.1834 -0.4363
  512MOL0     H67522   9.922  10.955   7.228 -1.4034 -0.5191  1.6708
  512MOL0     H67523   9.847  11.064   7.429 -2.0753 -0.3697  0.8941
  512MOL0     H67524   9.722  11.062   7.309  0.3935 -1.0029 -0.1089
  512MOL0     H67525   9.785  11.295   7.229  2.0396  0.6821 -0.2443
  512MOL0     H67526   9.903  11.302   7.355  2.2775 -3.5191 -1.3102
  512MOL0     H67527   9.618  11.235   7.398  1.4639  0.5889 -2.2482
  512MOL0     H67528   9.724  11.283   7.532 -0.8699  1.0336  0.3998
  512MOL0     H67529   9.566  11.462   7.460 -1.2624 -1.1004 -0.3190
  512MOL0     H67530   9.624  11.452   7.289  2.7852 -1.2029  0.3458
  512MOL0     H67531   9.858  11.527   7.363  0.0294  0.9843 -1.4185
  512MOL0     H67532   9.806  11.516   7.533 -0.8696  1.0776 -0.2390
  512MOL0     H67533   9.705  11.706   7.313  1.5994 -2.0292 -1.1258
  512MOL0     H67534   9.644  11.706   7.487 -0.5839 -0.6260 -0.3625
  512MOL0     H67535   9.895  11.782   7.358 -0.7871  0.6084 -0.4785
  512MOL0     H67536   9.895  11.740   7.535  0.4405  1.6009  0.8024
  512MOL0     H67537   9.597  11.927   7.423  1.4349 -0.7084  0.2726
  512MOL0     H67538   9.630  12.304   7.494  2.7186  1.3432 -1.3454
  512MOL0     H67539   9.516  12.182   7.452  0.9512 -1.5453  0.9189
  512MOL0     H67540   9.644  12.200   7.207 -2.3145 -0.4317  0.6392
  512MOL0     H67541   9.734  12.324   7.283  0.0350  0.5033  3.4154
  512MOL0     H67542   9.432  12.333   7.238 -0.3322  0.1575  0.1249
  512MOL0     H67543   9.534  12.466   7.315 -0.1769  3.2998 -4.2580
  512MOL0     H67544   9.542  12.334   7.045  1.9792 -1.9525  0.9404
  512MOL0     H67545   9.682  12.415   7.106 -0.0696  2.1002  0.8406
  512MOL0     H67546   9.359  12.627   7.270  1.2292  1.5841 -1.1300
  512MOL0     H67547   9.129  12.691   7.255  1.9018  1.5112  1.5282
  512MOL0     H67548   8.672  12.577   7.131 -0.4887 -2.4421  0.4175
  512MOL0     H67549   8.417  12.566   7.059  0.8683 -0.2640 -0.7036
  512MOL0     H67550   8.317  12.447   6.648 -0.8147 -0.7984 -0.3665
  512MOL0     H67551   8.328  12.616   6.632  2.0401 -2.9865 -0.5207
  512MOL0     H67552   8.092  12.619   6.728  1.9120 -1.5348  4.4713
  512MOL0     H67553   8.112  12.438   6.729  1.8387 -1.5575 -1.6825
  512MOL0     H67554   8.149  12.441   6.474  1.2444  1.4306  0.4216
  512MOL0     H67555   8.096  12.612   6.486  3.3836  0.7732 -0.2001
  512MOL0     H67556   7.958  12.348   6.559 -1.4067  0.1349  2.0248
  512MOL0     H67557   7.901  12.488   6.623  2.5662 -1.4983  1.9904
  512MOL0     H67558   7.927  12.440   6.318 -0.8523 -0.4245  0.7301
  512MOL0     H67559   7.852  12.577   6.394 -1.0524  0.5310 -4.5916
  512MOL0     H67560   7.755  12.277   6.402 -0.0774 -0.0987  0.5027
  512MOL0     H67561   7.683  12.401   6.305  0.4041 -0.0875  0.0535
  512MOL0     H67562   7.665  12.349   6.595  0.0384  0.2469 -0.0711
  512MOL0     H67563   7.679  12.529   6.554  0.0472  1.1180 -4.6471
  512MOL0     H67564   7.449  12.457   6.573 -1.9747  1.7687 -1.6423
  512MOL0     H67565   7.474  12.338   6.437  0.7573  0.3381 -0.0670
  512MOL0     H67566   8.543  12.560   6.651 -0.3479 -0.1539  0.7325
  512MOL0     H67567   8.784  12.565   6.728  2.2555 -0.7972  3.2294
  512MOL0     H67568   9.104  12.496   6.873  0.9264 -0.9953 -0.8621
  512MOL0     H67569   9.338  12.426   6.895  0.2918  0.0135  0.9608
  512MOL0     H67570  10.080  10.910   7.069  0.5825 -0.7623 -1.1081
  512MOL0     H67571  10.155  10.795   6.866  0.4314  0.4245 -0.9758
  512MOL0     H67572   9.922  10.495   6.729  0.2024 -1.9343  0.1475
  512MOL0     H67573   9.981  10.300   6.871 -1.2160  0.3337 -0.4832
  512MOL0     H67574  10.205  10.189   7.153  1.8569 -3.5301 -0.6246
  512MOL0     H67575  10.266  10.345   7.117 -0.6024 -1.7195  0.4142
  512MOL0     H67576  10.419  10.087   7.076 -2.1148 -0.0283 -4.6517
  512MOL0     H67577  10.480  10.243   7.029  1.3695  0.0881  1.6500
  512MOL0     H67578  10.399  10.146   7.301 -0.6023 -0.0062  0.3205
  512MOL0     H67579  10.434  10.317   7.269 -1.5894 -0.4982 -0.2087
  512MOL0     H67580  10.647  10.223   7.156 -1.0192  1.6205 -0.7178
  512MOL0     H67581  10.642  10.271   7.317  0.1914 -1.9272  0.2568
  512MOL0     H67582  10.676   9.841   7.387  0.6670 -0.5535 -0.5232
  512MOL0     H67583  10.394  10.424   6.863 -0.4161 -2.5199  2.3882
  512MOL0     H67584  10.328  10.617   6.732  1.3004 -0.9470  0.5458
  513MOL0     O67585   6.715   4.683   5.687  0.5888  0.4928  0.0364
  513MOL0     C67586   6.795   4.594   5.734  0.3270 -0.6118 -0.3601
  513MOL0     O67587   6.756   4.499   5.837 -0.8353  0.4978  0.2190
  513MOL0     C67588   6.628   4.479   5.878  1.6621 -0.4976 -0.6529
  513MOL0     C67589   6.618   4.380   5.973 -0.2603  0.0336 -0.0640
  513MOL0     C67590   6.490   4.344   6.022 -0.7376  0.9592 -0.9997
  513MOL0     C67591   6.366   4.408   5.981 -0.6717 -0.5104 -0.2410
  513MOL0     O67592   6.229   4.374   6.014 -0.5920 -0.3057 -0.3196
  513MOL0     C67593   6.228   4.309   6.149  0.0302 -0.3478 -0.9378
  513MOL0     C67594   6.298   4.376   6.274 -0.2954 -0.4488 -0.4084
  513MOL0     C67595   6.227   4.322   6.404  0.0882  0.0283 -0.4886
  513MOL0     C67596   6.076   4.334   6.419  0.1795  0.1497  0.1322
  513MOL0     C67597   6.036   4.305   6.559  0.8314 -0.4990 -0.5205
  513MOL0     C67598   6.029   4.445   6.629 -0.3145 -0.2853  0.4980
  513MOL0     C67599   5.979   4.413   6.768 -0.3510  0.6444 -0.1317
  513MOL0     C67600   6.081   4.333   6.854  0.3308  0.2551 -0.6374
  513MOL0     N67601   6.049   4.335   7.000  0.4895 -0.2372 -0.0587
  513MOL0     C67602   5.925   4.304   7.062 -0.9268  0.1328  0.2650
  513MOL0     C67603   5.952   4.308   7.194  0.2003  0.7235 -0.2566
  513MOL0     C67604   5.850   4.267   7.293 -0.8133  0.6481  0.4963
  513MOL0     C67605   5.729   4.349   7.304 -0.1939 -0.1166  0.0066
  513MOL0     C67606   5.630   4.302   7.413  0.1837  0.3820 -0.3968
  513MOL0     C67607   5.519   4.412   7.428 -0.5119 -0.5672 -0.1266
  513MOL0     O67608   5.585   4.530   7.468 -0.5551 -0.4437 -0.1992
  513MOL0     C67609   5.503   4.631   7.513 -0.5505  0.2165 -0.2008
  513MOL0     C67610   5.540   4.731   7.599 -0.5724  1.1403  0.0322
  513MOL0     C67611   5.444   4.808   7.669  0.1372 -0.2285  0.0480
  513MOL0     C67612   5.307   4.804   7.643 -0.4850 -0.5337  0.1107
  513MOL0     C67613   5.207   4.871   7.720 -0.3818  1.5492 -0.7631
  513MOL0     O67614   5.242   4.891   7.848 -0.2442  0.1419  0.9175
  513MOL0     C67615   5.148   4.893   7.941  0.6742 -0.2818  1.3106
  513MOL0     C67616   5.187   4.852   8.071  0.2230 -0.5840  0.2579
  513MOL0     C67617   5.123   4.904   8.181  0.0258  0.1192  0.0195
  513MOL0     C67618   4.999   4.972   8.173 -0.6340  0.3833 -0.0999
  513MOL0     O67619   4.942   5.021   8.285  0.4470 -0.4647  0.1693
  513MOL0     C67620   4.982   4.970   8.414 -0.3546  0.0470 -0.4770
  513MOL0     C67621   4.872   5.022   8.510 -0.8768 -0.8922 -0.6004
  513MOL0     C67622   4.730   5.008   8.477 -0.4145  0.4431 -1.2516
  513MOL0     C67623   4.647   5.066   8.603 -0.1662  0.4586  0.2709
  513MOL0     C67624   4.500   5.018   8.604 -0.7746  0.2376  0.5562
  513MOL0     C67625   4.411   5.053   8.730  0.2440  0.2316  0.9113
  513MOL0     C67626   4.495   5.032   8.860  0.0606 -0.2328 -0.3236
  513MOL0     C67627   4.417   5.026   8.996  0.6166  0.2739  0.2016
  513MOL0    Cl67628   4.285   4.911   8.982  0.1165  0.0951  0.3765
  513MOL0     C67629   4.956   5.003   8.044  0.7071 -0.0170 -0.3650
  513MOL0     C67630   5.028   4.961   7.927 -0.0137 -0.1000 -0.6598
  513MOL0     O67631   5.096   4.875   7.670 -0.1427 -0.6798 -0.0210
  513MOL0     C67632   5.264   4.719   7.535  0.4488  0.1979  0.9654
  513MOL0     C67633   5.361   4.634   7.481 -0.0818  0.4782  0.6130
  513MOL0     N67634   6.087   4.335   7.216  0.8301 -0.4597 -0.5955
  513MOL0     N67635   6.139   4.358   7.104  0.8897 -0.0557  0.8223
  513MOL0     C67636   6.383   4.505   5.881  0.3962  1.0756 -0.1404
  513MOL0     C67637   6.509   4.550   5.844 -0.7985  0.7751  0.3604
  513MOL0     C67638   6.934   4.596   5.687 -0.0973 -0.3783 -0.2940
  513MOL0     C67639   7.018   4.490   5.674 -0.0448  0.8386  0.2337
  513MOL0     C67640   7.138   4.508   5.621 -0.9489 -0.7818 -0.4283
  513MOL0     C67641   7.185   4.633   5.574  0.0319  0.0470 -0.1044
  513MOL0     O67642   7.315   4.636   5.522  0.4872 -0.2949 -0.5081
  513MOL0     C67643   7.379   4.764   5.490 -0.3189  0.3153  0.2504
  513MOL0     C67644   7.339   4.806   5.357 -0.2483  0.0291  0.2490
  513MOL0     C67645   7.391   4.705   5.258 -0.7608  0.4326 -0.0018
  513MOL0     C67646   7.391   4.761   5.120  0.1608 -0.2519  0.1859
  513MOL0     C67647   7.264   4.759   5.055 -0.8532 -0.8918 -0.9771
  513MOL0     C67648   7.150   4.777   5.018 -0.2700 -0.9312 -0.7505
  513MOL0     C67649   7.106   4.743   5.590 -0.3013 -0.6396  0.7668
  513MOL0     C67650   6.979   4.720   5.653  0.5521 -1.2619  0.1089
  513MOL0     H67651   6.703   4.327   6.015 -1.9209 -1.4414  1.6906
  513MOL0     H67652   6.494   4.261   6.092 -0.4367  0.5020 -1.5572
  513MOL0     H67653   6.266   4.206   6.142 -2.7190 -1.7705  2.3397
  513MOL0     H67654   6.124   4.283   6.169  0.8368 -2.6933  0.5907
  513MOL0     H67655   6.279   4.483   6.279  2.4112  0.0583  0.4128
  513MOL0     H67656   6.407   4.365   6.274 -0.4218 -2.1597 -1.1639
  513MOL0     H67657   6.271   4.391   6.477  1.2871  2.9548 -3.7159
  513MOL0     H67658   6.252   4.217   6.423  0.9979  0.6978  2.4767
  513MOL0     H67659   6.049   4.437   6.392 -3.5963 -0.4480  1.1033
  513MOL0     H67660   6.023   4.263   6.355  0.1891  0.0048  0.2873
  513MOL0     H67661   6.110   4.237   6.601  1.5771  1.6466  1.9163
  513MOL0     H67662   5.937   4.258   6.565  1.1043 -1.0676 -0.4848
  513MOL0     H67663   5.959   4.517   6.586 -2.3578 -2.3791  0.1406
  513MOL0     H67664   6.129   4.485   6.647 -0.2199 -0.3503  0.1352
  513MOL0     H67665   5.952   4.500   6.828  1.9290 -0.3234  2.5319
  513MOL0     H67666   5.893   4.347   6.756  0.6209 -0.9037  0.9807
  513MOL0     H67667   6.182   4.374   6.845 -0.8443  3.3190 -1.0899
  513MOL0     H67668   6.085   4.230   6.817  1.3054 -0.3791  1.0986
  513MOL0     H67669   5.828   4.291   7.014 -1.5083  1.6897  0.9449
  513MOL0     H67670   5.898   4.244   7.389 -0.4326  2.3232  0.7387
  513MOL0     H67671   5.840   4.168   7.246  0.9779 -0.0409  1.4748
  513MOL0     H67672   5.680   4.339   7.207 -2.0896  0.9038  0.8050
  513MOL0     H67673   5.760   4.452   7.321 -0.1209 -0.4230  1.9996
  513MOL0     H67674   5.580   4.208   7.386 -1.5254  0.7599  1.2191
  513MOL0     H67675   5.677   4.283   7.510  1.2002 -0.4764 -1.0312
  513MOL0     H67676   5.439   4.382   7.496  0.8828  1.1679  2.4531
  513MOL0     H67677   5.486   4.427   7.325  2.0394 -0.8528 -1.0701
  513MOL0     H67678   5.647   4.732   7.619 -0.4714 -1.4424  0.0079
  513MOL0     H67679   5.481   4.869   7.750 -0.6155  0.7617 -0.3342
  513MOL0     H67680   5.289   4.815   8.076  2.5134  4.8989  2.0286
  513MOL0     H67681   5.170   4.883   8.277  1.8943  2.3173 -0.3163
  513MOL0     H67682   5.080   5.010   8.440 -0.6129 -0.4800  1.4677
  513MOL0     H67683   4.980   4.860   8.419 -2.7446 -0.0903 -2.4691
  513MOL0     H67684   4.898   5.127   8.520  0.4840 -1.1383 -1.2487
  513MOL0     H67685   4.885   4.974   8.607  1.1686  2.9530  1.2296
  513MOL0     H67686   4.721   4.900   8.467 -0.1924  0.0116  2.0499
  513MOL0     H67687   4.710   5.069   8.388 -2.4030  1.5694 -0.1107
  513MOL0     H67688   4.696   5.045   8.698  0.1562 -0.1362 -0.0233
  513MOL0     H67689   4.658   5.175   8.597  1.9096  0.2223 -1.9537
  513MOL0     H67690   4.501   4.908   8.602  0.2379  0.2508  0.2181
  513MOL0     H67691   4.438   5.060   8.524 -0.9266  0.5646  0.8433
  513MOL0     H67692   4.321   4.991   8.737 -0.8367  1.7932  1.2815
  513MOL0     H67693   4.383   5.158   8.720  2.5700  0.7143 -2.3719
  513MOL0     H67694   4.558   4.943   8.850  0.2202 -0.8064  3.7951
  513MOL0     H67695   4.547   5.127   8.878 -4.2091  2.2582  0.4185
  513MOL0     H67696   4.367   5.123   9.009 -2.4821 -1.0691 -0.8011
  513MOL0     H67697   4.478   5.009   9.085  0.3486 -0.9693  0.1538
  513MOL0     H67698   4.859   5.051   8.031  1.6326  1.4216 -2.3918
  513MOL0     H67699   4.989   5.004   7.835  1.4209 -1.8096 -2.1302
  513MOL0     H67700   5.159   4.717   7.506  1.2594 -2.4731 -2.4791
  513MOL0     H67701   5.315   4.577   7.401  0.9984 -0.7364  0.8146
  513MOL0     H67702   6.294   4.556   5.845  1.7747  4.4954  0.8926
  513MOL0     H67703   6.509   4.638   5.779  1.5579  0.9897  0.5812
  513MOL0     H67704   6.991   4.390   5.707  1.3250 -0.9921 -3.5225
  513MOL0     H67705   7.213   4.430   5.613 -0.1554 -0.1764  0.8003
  513MOL0     H67706   7.487   4.751   5.485 -0.2005  1.6661 -2.4104
  513MOL0     H67707   7.350   4.839   5.564  1.3132 -0.4425  1.7417
  513MOL0     H67708   7.233   4.833   5.352  0.5976  5.1487  2.9571
  513MOL0     H67709   7.392   4.901   5.341 -2.5744  1.0106 -2.7826
  513MOL0     H67710   7.327   4.616   5.259 -0.0562 -0.0848  0.2367
  513MOL0     H67711   7.492   4.667   5.274 -0.7129  0.8823  0.8244
  513MOL0     H67712   7.442   4.858   5.114  0.1574 -0.3514 -2.2030
  513MOL0     H67713   7.454   4.698   5.057 -1.1404 -1.7938  0.3784
  513MOL0     H67714   7.050   4.786   4.981  0.0863 -0.1313 -1.5447
  513MOL0     H67715   7.141   4.845   5.576  0.4273 -1.2706 -3.2207
  513MOL0     H67716   6.919   4.807   5.676  2.6894  0.5253 -0.6599
  514MOL0     O67717   9.753   0.863   8.132 -0.1065 -0.3178  0.1912
  514MOL0     C67718   9.732   0.920   8.238 -0.0824  1.2869  0.9079
  514MOL0     O67719   9.613   0.912   8.315 -1.3720 -0.4524  0.0304
  514MOL0     C67720   9.498   0.841   8.284  0.1088 -0.4003  0.3581
  514MOL0     C67721   9.466   0.815   8.152 -0.7287 -0.8185  0.1140
  514MOL0     C67722   9.351   0.740   8.126  0.8007  0.3047 -0.6032
  514MOL0     C67723   9.272   0.687   8.225  0.0960  0.9658  0.3259
  514MOL0     O67724   9.164   0.602   8.201  0.4402  0.3338  0.2982
  514MOL0     C67725   9.138   0.554   8.066  0.1645  0.0390 -0.2774
  514MOL0     C67726   9.021   0.454   8.060 -0.2315 -0.0100  0.0911
  514MOL0     C67727   8.881   0.489   8.117  0.3360  0.0240  0.7304
  514MOL0     C67728   8.794   0.370   8.098 -0.4735 -0.2006 -0.1611
  514MOL0     C67729   8.670   0.369   8.169  0.4060  0.4411  0.0173
  514MOL0     C67730   8.692   0.366   8.316 -0.6629  1.1078  0.1730
  514MOL0     C67731   8.562   0.397   8.384 -0.7595  0.6784  0.9337
  514MOL0     C67732   8.542   0.542   8.401 -0.0665  0.1487 -0.0867
  514MOL0     N67733   8.399   0.581   8.397 -0.1166  0.3433  0.0231
  514MOL0     C67734   8.322   0.558   8.501  1.2657  0.0109 -0.2378
  514MOL0     C67735   8.203   0.619   8.472  0.3297  0.0717  0.7891
  514MOL0     C67736   8.084   0.625   8.570  0.4321 -0.2674  0.0137
  514MOL0     C67737   7.961   0.564   8.517  0.4223 -0.5012 -0.0256
  514MOL0     C67738   7.846   0.542   8.631 -0.8174 -1.1569  0.0513
  514MOL0     C67739   7.706   0.552   8.574 -0.5001 -0.0726 -0.3273
  514MOL0     O67740   7.617   0.596   8.682  0.9255  0.8547 -0.0115
  514MOL0     C67741   7.484   0.586   8.644 -0.4415 -0.0737  0.6053
  514MOL0     C67742   7.398   0.540   8.740  0.1723  0.0258  0.4850
  514MOL0     C67743   7.260   0.533   8.712 -0.7100  0.0260 -0.3707
  514MOL0     C67744   7.211   0.567   8.584  0.0520  0.4018  0.3648
  514MOL0     C67745   7.069   0.547   8.547  0.3746  0.3883  0.7703
  514MOL0     O67746   7.031   0.566   8.416 -0.0789  0.5735  0.0693
  514MOL0     C67747   6.915   0.515   8.369 -0.2581 -0.5672  0.4250
  514MOL0     C67748   6.786   0.507   8.427 -0.1337 -0.0901  0.0209
  514MOL0     C67749   6.678   0.447   8.361  0.2060  0.3855 -0.3718
  514MOL0     C67750   6.692   0.409   8.229  1.6506  0.6843  0.2726
  514MOL0     O67751   6.582   0.349   8.167  0.4627  0.3145 -0.4905
  514MOL0     C67752   6.450   0.414   8.188 -0.1717  0.4843  0.3428
  514MOL0     C67753   6.351   0.366   8.093  0.3721  0.8356 -0.7095
  514MOL0     C67754   6.213   0.441   8.108 -0.6008  0.5920  0.0595
  514MOL0     C67755   6.141   0.416   8.237  0.0555  0.7124 -0.3447
  514MOL0     C67756   6.020   0.506   8.260  0.2815 -0.0567 -0.8369
  514MOL0     C67757   5.902   0.492   8.164  0.6805 -1.1171 -0.1556
  514MOL0     C67758   5.786   0.593   8.177  0.0333 -0.3292 -1.0280
  514MOL0     C67759   5.663   0.530   8.114  0.8775 -0.5625 -0.7063
  514MOL0    Cl67760   5.655   0.546   7.929 -0.5292  0.1109  0.0924
  514MOL0     C67761   6.818   0.413   8.164 -0.3231 -0.2908 -0.2082
  514MOL0     C67762   6.928   0.466   8.237  0.2279 -0.3920  0.7092
  514MOL0     O67763   6.996   0.501   8.634  0.4931 -0.0118 -0.6694
  514MOL0     C67764   7.301   0.635   8.496  0.3938  0.1755 -0.4013
  514MOL0     C67765   7.437   0.646   8.531  0.1623  0.0046  0.2400
  514MOL0     N67766   8.213   0.672   8.342 -0.3634 -0.2284  0.2428
  514MOL0     N67767   8.332   0.651   8.297 -0.6467  0.0021  0.4693
  514MOL0     C67768   9.296   0.722   8.356  1.0457  0.3274 -0.6830
  514MOL0     C67769   9.405   0.812   8.379  0.5156 -0.5446 -0.6388
  514MOL0     C67770   9.852   0.988   8.297  0.5804 -0.2222 -0.2464
  514MOL0     C67771   9.972   1.012   8.230 -0.1876  0.8448  0.6059
  514MOL0     C67772  10.068   1.099   8.280  0.1574 -0.0412  0.1916
  514MOL0     C67773  10.062   1.136   8.418  0.7842  0.4773 -0.0645
  514MOL0     O67774  10.149   1.223   8.484  0.0438 -0.3108 -0.3472
  514MOL0     C67775  10.254   1.283   8.415 -0.1994 -0.4350  0.0522
  514MOL0     C67776  10.341   1.360   8.513 -0.1005 -0.1417 -0.5251
  514MOL0     C67777  10.400   1.265   8.619 -0.0210  0.2334  0.0951
  514MOL0     C67778  10.473   1.345   8.727  0.1839 -0.2949  0.4972
  514MOL0     C67779  10.602   1.393   8.682 -0.8955  0.0162 -0.9785
  514MOL0     C67780  10.718   1.412   8.640 -0.5742  0.7144  0.6340
  514MOL0     C67781   9.948   1.098   8.497 -0.6260 -0.1342 -0.2187
  514MOL0     C67782   9.844   1.029   8.436  0.6279 -0.1947  0.0591
  514MOL0     H67783   9.530   0.851   8.072 -1.9527  0.5754 -0.2760
  514MOL0     H67784   9.332   0.734   8.019  0.3250  2.6331 -0.7173
  514MOL0     H67785   9.230   0.511   8.026 -1.3394 -0.5082 -3.5317
  514MOL0     H67786   9.109   0.645   8.012  0.5844  0.8659  0.8779
  514MOL0     H67787   9.063   0.362   8.103  1.6366 -0.0740 -1.6910
  514MOL0     H67788   9.002   0.432   7.954 -1.6897 -3.7781  0.9761
  514MOL0     H67789   8.844   0.578   8.064  1.9150  1.0393  1.2513
  514MOL0     H67790   8.880   0.531   8.219  1.2083  0.1019  0.7176
  514MOL0     H67791   8.771   0.366   7.992 -0.9900  2.7160 -0.2368
  514MOL0     H67792   8.843   0.273   8.113 -2.2823 -1.8019 -3.5009
  514MOL0     H67793   8.604   0.285   8.144 -1.7680  1.6438  1.4033
  514MOL0     H67794   8.605   0.454   8.149 -3.4424 -1.7280  2.0147
  514MOL0     H67795   8.759   0.443   8.355  1.7384 -0.6871 -0.1097
  514MOL0     H67796   8.737   0.270   8.346 -1.4731  1.6558  3.5056
  514MOL0     H67797   8.477   0.347   8.335  0.1856 -0.1042  0.0410
  514MOL0     H67798   8.558   0.343   8.479  0.4068  1.2021  1.2935
  514MOL0     H67799   8.590   0.606   8.326 -0.8873  2.4337  1.2252
  514MOL0     H67800   8.583   0.553   8.501  1.8126 -1.9565 -0.5414
  514MOL0     H67801   8.326   0.502   8.594 -1.8214  1.8044  1.1196
  514MOL0     H67802   8.065   0.732   8.585  2.7872  0.3565 -1.0654
  514MOL0     H67803   8.108   0.583   8.667 -1.4287 -0.4893  0.4241
  514MOL0     H67804   7.985   0.462   8.484 -0.9494 -1.0833  0.6831
  514MOL0     H67805   7.925   0.619   8.430 -2.2381 -1.1025  0.6180
  514MOL0     H67806   7.859   0.441   8.671  0.8693 -1.7721 -1.8756
  514MOL0     H67807   7.854   0.626   8.701  3.1489 -0.8598 -0.4969
  514MOL0     H67808   7.670   0.457   8.533 -4.1485  0.0330  2.1880
  514MOL0     H67809   7.704   0.626   8.494  1.4345  0.5058  0.0919
  514MOL0     H67810   7.412   0.509   8.843 -1.5316 -2.5640  0.0472
  514MOL0     H67811   7.197   0.513   8.798 -0.4199  1.7833  0.2945
  514MOL0     H67812   6.769   0.555   8.523  1.3140  1.3074 -0.3791
  514MOL0     H67813   6.586   0.441   8.418 -0.6598 -0.0026 -1.7687
  514MOL0     H67814   6.465   0.522   8.181  0.3459  0.3821 -0.2776
  514MOL0     H67815   6.420   0.385   8.289  0.8291 -1.1716  0.2109
  514MOL0     H67816   6.342   0.258   8.111  2.4552  0.9132  1.2490
  514MOL0     H67817   6.390   0.363   7.991  0.0875 -0.9761 -0.7985
  514MOL0     H67818   6.143   0.421   8.026 -3.8253  1.1173  2.4899
  514MOL0     H67819   6.235   0.548   8.103 -1.6742  0.8449  0.3943
  514MOL0     H67820   6.116   0.310   8.235  2.9977 -0.2347  2.4558
  514MOL0     H67821   6.204   0.436   8.325  0.8898  0.0189 -0.7675
  514MOL0     H67822   6.054   0.610   8.256  1.0057  0.3577  5.2924
  514MOL0     H67823   5.992   0.477   8.362  1.7656  1.2512 -0.0033
  514MOL0     H67824   5.864   0.390   8.160  0.7415 -1.0965 -2.7462
  514MOL0     H67825   5.955   0.502   8.069 -1.0804 -0.2075 -1.0781
  514MOL0     H67826   5.776   0.608   8.285 -2.6088  2.9808 -1.5515
  514MOL0     H67827   5.806   0.686   8.122  0.3499 -1.2467 -2.5137
  514MOL0     H67828   5.567   0.565   8.152 -0.5172 -2.2568 -2.4992
  514MOL0     H67829   5.648   0.424   8.136 -0.7666 -0.1286  0.4515
  514MOL0     H67830   6.831   0.364   8.068 -1.5088 -2.7049  0.7585
  514MOL0     H67831   7.022   0.474   8.183 -0.4593  1.9747 -0.2628
  514MOL0     H67832   7.280   0.652   8.391 -0.7848 -0.7670 -0.3379
  514MOL0     H67833   7.486   0.694   8.447  1.3227  0.7362  1.2899
  514MOL0     H67834   9.218   0.684   8.422 -0.9313 -3.1428 -4.5268
  514MOL0     H67835   9.424   0.840   8.483 -0.1460 -0.3110 -0.5717
  514MOL0     H67836   9.983   0.975   8.129 -4.0444  0.7933  0.0580
  514MOL0     H67837  10.152   1.139   8.225 -0.7304  0.5885 -0.7358
  514MOL0     H67838  10.215   1.355   8.342  3.9986  1.7644 -0.3489
  514MOL0     H67839  10.312   1.208   8.360 -0.7531 -0.0822 -1.0551
  514MOL0     H67840  10.418   1.402   8.447  0.9077 -0.9448  0.0908
  514MOL0     H67841  10.287   1.439   8.566 -1.2504 -1.8517  0.9856
  514MOL0     H67842  10.465   1.191   8.571  1.4760  1.9470 -0.6376
  514MOL0     H67843  10.318   1.211   8.667 -1.0511 -0.4612 -2.3121
  514MOL0     H67844  10.406   1.426   8.757 -2.9666 -3.4852  2.9744
  514MOL0     H67845  10.497   1.286   8.815  2.2261 -1.8362 -0.9809
  514MOL0     H67846  10.818   1.429   8.607 -0.9421 -0.3142 -1.1811
  514MOL0     H67847   9.935   1.135   8.598 -3.2070  1.3012 -0.9845
  514MOL0     H67848   9.762   1.005   8.504  2.3143  1.9610  3.0613
  515MOL0     O67849   1.901   2.012  10.480  0.0705  0.3166 -0.8360
  515MOL0     C67850   1.951   1.995  10.595 -0.2132 -0.0404  0.9350
  515MOL0     O67851   1.889   1.953  10.712  0.5938  0.3092  0.6328
  515MOL0     C67852   1.753   1.918  10.706 -0.7486  0.5462  0.2280
  515MOL0     C67853   1.680   1.940  10.819  0.6739 -0.5335 -1.0050
  515MOL0     C67854   1.542   1.914  10.831 -0.3058 -0.2330  0.0066
  515MOL0     C67855   1.482   1.848  10.726  0.4001 -0.2320  0.2436
  515MOL0     O67856   1.348   1.829  10.751 -0.0516  0.2220  0.4471
  515MOL0     C67857   1.276   1.725  10.681 -0.1048 -0.3321  0.4897
  515MOL0     C67858   1.149   1.809  10.613 -0.0456  0.9165 -0.2698
  515MOL0     C67859   1.198   1.883  10.483 -1.2549 -0.7313  1.1671
  515MOL0     C67860   1.089   1.948  10.408  0.0753  0.8539 -0.6590
  515MOL0     C67861   1.122   1.977  10.264  0.2834  0.1315  0.3698
  515MOL0     C67862   0.991   2.005  10.190 -0.6379 -0.2046 -0.3172
  515MOL0     C67863   1.021   2.058  10.053 -0.1595  0.0505  0.2210
  515MOL0     C67864   0.918   2.016   9.945  0.7471 -0.3023 -0.3826
  515MOL0     N67865   0.784   2.056   9.981  0.4236 -0.1880 -0.4628
  515MOL0     C67866   0.746   2.190   9.984  0.3426  0.8945 -1.1705
  515MOL0     C67867   0.619   2.181  10.036  0.3225  0.5761 -0.6891
  515MOL0     C67868   0.517   2.293  10.047  0.3477 -0.1557 -0.4480
  515MOL0     C67869   0.468   2.333   9.907 -0.4128  0.0084 -0.2702
  515MOL0     C67870   0.381   2.460   9.917 -1.0280 -0.0583 -0.2866
  515MOL0     C67871   0.296   2.489   9.795  0.6829 -0.9052  0.4468
  515MOL0     O67872   0.222   2.365   9.766  0.2507 -0.1215 -0.6462
  515MOL0     C67873   0.081   2.363   9.758  0.2166 -0.6668 -0.4527
  515MOL0     C67874   0.023   2.237   9.781 -0.1819  0.2447 -0.2800
  515MOL0     C67875  -0.110   2.218   9.760 -0.7144  0.4798 -0.2365
  515MOL0     C67876  -0.200   2.325   9.765  0.0289  0.5011  0.9694
  515MOL0     C67877  -0.345   2.295   9.777  0.4357  1.0734 -0.8274
  515MOL0     O67878  -0.428   2.405   9.783  0.0877 -0.3892 -0.2541
  515MOL0     C67879  -0.563   2.411   9.803 -0.0705 -0.0059  0.4120
  515MOL0     C67880  -0.634   2.511   9.867 -0.2382 -0.6780  0.1075
  515MOL0     C67881  -0.766   2.501   9.912 -0.0152 -0.1192  0.9867
  515MOL0     C67882  -0.842   2.382   9.884  1.0835 -0.0991 -0.7937
  515MOL0     O67883  -0.962   2.371   9.942 -0.1632 -0.0218 -0.5742
  515MOL0     C67884  -1.067   2.333   9.858 -0.4312 -0.0340 -0.2735
  515MOL0     C67885  -1.184   2.432   9.870 -0.3685  0.0918  0.3501
  515MOL0     C67886  -1.133   2.574   9.826  1.3366 -0.7362  0.4034
  515MOL0     C67887  -1.253   2.663   9.781  0.3902  0.3150 -0.2469
  515MOL0     C67888  -1.217   2.805   9.792  0.8620 -0.5760  0.3149
  515MOL0     C67889  -1.340   2.891   9.765 -0.2007 -0.8558 -0.2517
  515MOL0     C67890  -1.313   3.036   9.816 -0.4919 -0.4841 -0.5580
  515MOL0     C67891  -1.439   3.108   9.793 -0.3838  0.3110 -0.3299
  515MOL0    Cl67892  -1.586   3.068   9.907  0.1144  0.0845  0.3081
  515MOL0     C67893  -0.779   2.285   9.814 -0.1267 -0.7047  0.0379
  515MOL0     C67894  -0.641   2.296   9.781 -0.3758 -0.2831 -0.2672
  515MOL0     O67895  -0.383   2.174   9.795 -0.2513 -0.6752 -0.1930
  515MOL0     C67896  -0.144   2.453   9.755  0.4032  0.1129 -1.5619
  515MOL0     C67897  -0.011   2.475   9.751 -1.0269  0.5671 -0.1105
  515MOL0     N67898   0.590   2.048  10.077  1.0025  0.2407  0.8450
  515MOL0     N67899   0.693   1.976  10.040  0.8093 -0.0871  0.4092
  515MOL0     C67900   1.548   1.812  10.610 -0.5429 -0.1140 -0.6076
  515MOL0     C67901   1.681   1.857  10.595 -0.3834 -1.2644 -0.0435
  515MOL0     C67902   2.088   2.038  10.604  0.0418 -0.3675 -1.2133
  515MOL0     C67903   2.148   2.122  10.507  0.2388 -0.2140  0.1854
  515MOL0     C67904   2.285   2.152  10.519  0.7886  0.9490  0.7612
  515MOL0     C67905   2.355   2.106  10.635 -0.0325  0.0394  0.7478
  515MOL0     O67906   2.483   2.135  10.660  0.4836  0.2671 -0.7613
  515MOL0     C67907   2.562   2.181  10.550 -0.0331 -0.2059 -0.1492
  515MOL0     C67908   2.693   2.241  10.607  0.0860 -0.0820 -0.9865
  515MOL0     C67909   2.779   2.311  10.500 -1.0792 -0.1261  0.1881
  515MOL0     C67910   2.922   2.337  10.546 -0.9137 -0.3171  0.4978
  515MOL0     C67911   3.023   2.378  10.443  0.2967 -0.1520  0.0327
  515MOL0     C67912   3.107   2.397  10.362  0.0331  0.6993 -0.0942
  515MOL0     C67913   2.290   2.029  10.728  0.6840  0.2247 -0.0008
  515MOL0     C67914   2.159   1.988  10.709  0.3744 -0.1063 -0.3851
  515MOL0     H67915   1.735   1.988  10.900  1.0728 -0.6653 -1.1923
  515MOL0     H67916   1.493   1.943  10.924  1.2388 -0.9356  1.1022
  515MOL0     H67917   1.243   1.654  10.757  3.5513 -0.2296  2.3877
  515MOL0     H67918   1.336   1.670  10.607 -0.2491 -0.3350  0.3740
  515MOL0     H67919   1.114   1.877  10.691  0.9454 -1.0225  2.0057
  515MOL0     H67920   1.064   1.743  10.595  0.2851 -0.0920  1.6304
  515MOL0     H67921   1.253   1.813  10.420 -0.8975 -0.1022  0.7641
  515MOL0     H67922   1.269   1.956  10.524  1.2583 -0.4499 -3.0806
  515MOL0     H67923   1.009   1.874  10.415  1.1569 -0.5360 -2.0847
  515MOL0     H67924   1.046   2.034  10.460 -0.6625 -0.2346  0.6306
  515MOL0     H67925   1.173   1.888  10.225 -0.8750 -0.1261 -0.6581
  515MOL0     H67926   1.189   2.061  10.246 -1.2949  1.2651 -0.4911
  515MOL0     H67927   0.915   2.068  10.237 -0.5333  0.0988 -0.5489
  515MOL0     H67928   0.950   1.904  10.177  1.8875 -1.1269 -1.6849
  515MOL0     H67929   1.034   2.167  10.053  2.0086 -0.1136 -2.3966
  515MOL0     H67930   1.115   2.013  10.021  0.7270  2.5137 -0.8871
  515MOL0     H67931   0.909   1.907   9.951 -2.9979 -0.1203 -0.2867
  515MOL0     H67932   0.937   2.051   9.843 -2.0773 -0.0334 -0.8775
  515MOL0     H67933   0.796   2.285   9.965  0.0880  1.6813  1.6051
  515MOL0     H67934   0.562   2.375  10.104  0.6393 -0.9846  0.5404
  515MOL0     H67935   0.425   2.263  10.099  3.0569 -1.0767  4.4296
  515MOL0     H67936   0.407   2.249   9.872 -0.6796  0.0943 -0.0105
  515MOL0     H67937   0.552   2.340   9.838 -0.8356  0.4276 -0.7566
  515MOL0     H67938   0.314   2.434  10.000  0.2685 -2.8417  0.0031
  515MOL0     H67939   0.437   2.547   9.951 -1.5997 -0.6562  2.3876
  515MOL0     H67940   0.351   2.512   9.704  0.8978 -0.6680  0.6355
  515MOL0     H67941   0.229   2.573   9.816  1.1865 -0.3454 -0.1513
  515MOL0     H67942   0.096   2.159   9.803 -0.1848  0.1596 -0.5661
  515MOL0     H67943  -0.148   2.117   9.745  0.6585  0.3112 -3.2490
  515MOL0     H67944  -0.582   2.601   9.896  1.2251 -2.5892  4.1748
  515MOL0     H67945  -0.818   2.584   9.959  0.4648 -0.3525  1.9385
  515MOL0     H67946  -1.097   2.233   9.891  1.3902 -0.1458  1.2834
  515MOL0     H67947  -1.037   2.324   9.753  0.4104 -0.8625  0.0250
  515MOL0     H67948  -1.222   2.430   9.973  0.3095 -0.6093  0.6008
  515MOL0     H67949  -1.260   2.392   9.802  0.6705  0.4262 -1.0338
  515MOL0     H67950  -1.061   2.569   9.744  1.5487  0.0627  0.5334
  515MOL0     H67951  -1.096   2.618   9.919  0.8316  0.7952 -0.1062
  515MOL0     H67952  -1.286   2.641   9.679 -0.5515  0.5817 -0.0171
  515MOL0     H67953  -1.343   2.657   9.843  0.3757  0.5731 -0.2392
  515MOL0     H67954  -1.143   2.824   9.714 -0.0296 -0.5416 -0.5532
  515MOL0     H67955  -1.179   2.819   9.893 -0.2501 -2.1732  0.9906
  515MOL0     H67956  -1.425   2.854   9.824 -1.4220  1.4123 -0.4734
  515MOL0     H67957  -1.368   2.881   9.659 -0.1204 -1.7026 -0.2039
  515MOL0     H67958  -1.281   3.039   9.920  0.2516 -0.7437 -0.7765
  515MOL0     H67959  -1.227   3.079   9.764 -1.7388  1.6898 -0.9377
  515MOL0     H67960  -1.474   3.101   9.689  1.2924 -1.1357 -0.8358
  515MOL0     H67961  -1.412   3.209   9.826 -1.0174 -0.3108  2.2607
  515MOL0     H67962  -0.844   2.203   9.787 -2.0876  0.3240  1.3530
  515MOL0     H67963  -0.615   2.208   9.724  0.7840  0.1288 -0.4188
  515MOL0     H67964  -0.210   2.539   9.751  2.6103  1.8231 -4.0445
  515MOL0     H67965   0.028   2.576   9.757  2.2154 -0.6014  4.7747
  515MOL0     H67966   1.500   1.774  10.520 -3.3209 -1.7560  1.4324
  515MOL0     H67967   1.739   1.835  10.505  0.9958  0.7420  0.2902
  515MOL0     H67968   2.112   2.164  10.413  0.1892 -0.4084  0.1162
  515MOL0     H67969   2.335   2.208  10.442  0.7138 -1.4956 -1.1970
  515MOL0     H67970   2.516   2.250  10.478 -0.5278 -0.7390 -0.3531
  515MOL0     H67971   2.582   2.092  10.490  0.4519  2.8435 -5.0234
  515MOL0     H67972   2.659   2.302  10.692 -1.2629 -1.2697 -0.6288
  515MOL0     H67973   2.755   2.163  10.653  2.0342  0.2621 -2.9082
  515MOL0     H67974   2.740   2.410  10.472 -2.1312 -0.6475 -0.2573
  515MOL0     H67975   2.777   2.241  10.417 -2.4476  1.4310 -1.1805
  515MOL0     H67976   2.923   2.421  10.616  1.7458  0.3743 -0.2506
  515MOL0     H67977   2.957   2.242  10.589 -0.8654 -1.5370 -2.0423
  515MOL0     H67978   3.176   2.413  10.282 -1.8507 -1.3160 -2.2923
  515MOL0     H67979   2.343   1.998  10.818  0.3254  0.9070  0.4476
  515MOL0     H67980   2.113   1.930  10.788  1.7188 -0.1524  0.3778
  516MOL0     O67981  10.657   5.430   2.609  0.3879 -0.7520 -0.7455
  516MOL0     C67982  10.697   5.440   2.724 -0.1765 -0.8092  0.1484
  516MOL0     O67983  10.810   5.388   2.774  0.3058 -0.8181  0.4655
  516MOL0     C67984  10.895   5.307   2.699  0.2885 -1.2533 -0.5968
  516MOL0     C67985  10.981   5.229   2.781  0.0851  0.6033 -0.3001
  516MOL0     C67986  11.068   5.139   2.727 -0.2499 -0.0926  0.7362
  516MOL0     C67987  11.083   5.131   2.586  0.1715  0.1229  0.1393
  516MOL0     O67988  11.193   5.066   2.528  0.8036  0.3021 -0.7722
  516MOL0     C67989  11.227   4.940   2.592 -0.9861 -0.3103  0.0660
  516MOL0     C67990  11.284   4.862   2.479 -0.1845 -0.2594 -0.0709
  516MOL0     C67991  11.171   4.815   2.386  0.0522  0.3115 -0.2476
  516MOL0     C67992  11.211   4.718   2.277 -0.0897  0.1990  0.6112
  516MOL0     C67993  11.092   4.662   2.199 -0.5174  1.0002 -0.8537
  516MOL0     C67994  11.012   4.766   2.124 -0.8318  0.0105  0.3758
  516MOL0     C67995  11.092   4.862   2.041 -0.7171  0.0651  0.5044
  516MOL0     C67996  11.198   4.805   1.946 -0.4558  0.3646  0.4374
  516MOL0     N67997  11.141   4.687   1.870  0.4847  0.3241  0.6022
  516MOL0     C67998  11.017   4.674   1.807  0.4554 -0.4566  0.3083
  516MOL0     C67999  11.014   4.542   1.759 -0.1083 -0.4431 -0.0747
  516MOL0     C68000  10.903   4.481   1.688 -0.5874 -0.3572 -0.5841
  516MOL0     C68001  10.803   4.403   1.778 -0.3446  0.1963 -0.2066
  516MOL0     C68002  10.674   4.364   1.704  0.7684  0.4183 -0.0629
  516MOL0     C68003  10.585   4.483   1.665  0.6003 -0.2866 -0.1705
  516MOL0     O68004  10.477   4.442   1.586  0.0722 -0.6863 -0.4397
  516MOL0     C68005  10.354   4.418   1.631  0.0459 -0.3983 -0.5686
  516MOL0     C68006  10.255   4.376   1.538 -0.4759 -0.0419 -0.8810
  516MOL0     C68007  10.130   4.336   1.584 -0.1385  0.3295  0.6419
  516MOL0     C68008  10.095   4.346   1.718 -0.2748  0.5698  0.7533
  516MOL0     C68009   9.958   4.311   1.758  0.6438 -0.1576  0.8025
  516MOL0     O68010   9.873   4.293   1.657  0.4644 -0.2848  0.8997
  516MOL0     C68011   9.737   4.267   1.676 -0.0692  1.0578 -0.2733
  516MOL0     C68012   9.644   4.326   1.764 -1.0241  0.0132  0.3301
  516MOL0     C68013   9.517   4.270   1.770  0.4307 -0.6073 -0.9876
  516MOL0     C68014   9.471   4.179   1.679  0.1413  0.4964 -0.2377
  516MOL0     O68015   9.338   4.140   1.679  0.2048  0.0831 -0.5432
  516MOL0     C68016   9.236   4.231   1.722 -0.0922 -0.2682  0.3145
  516MOL0     C68017   9.103   4.191   1.665 -0.1037  0.6665 -0.7667
  516MOL0     C68018   9.009   4.311   1.674 -0.3072  0.4055  0.0545
  516MOL0     C68019   8.879   4.289   1.585 -0.3548 -0.0055 -0.9853
  516MOL0     C68020   8.798   4.416   1.536 -0.2007  0.3190 -0.2880
  516MOL0     C68021   8.769   4.505   1.653 -0.5760 -0.0002 -0.5149
  516MOL0     C68022   8.690   4.423   1.759 -0.4174  0.9745  0.1268
  516MOL0     C68023   8.632   4.496   1.879 -0.6816 -0.5242  0.2963
  516MOL0    Cl68024   8.735   4.636   1.938 -0.0156  0.2129  0.3787
  516MOL0     C68025   9.559   4.132   1.577 -0.6651 -0.4365  0.3224
  516MOL0     C68026   9.695   4.178   1.579  0.0687 -0.0439 -0.1624
  516MOL0     O68027   9.930   4.303   1.877  0.2006  0.9672 -0.3262
  516MOL0     C68028  10.194   4.384   1.809 -0.4521  0.3608 -0.0714
  516MOL0     C68029  10.319   4.423   1.767  0.5026 -0.6943  0.5545
  516MOL0     N68030  11.139   4.486   1.789 -0.0941  0.6488 -0.1454
  516MOL0     N68031  11.207   4.572   1.861  0.9972 -0.2652 -0.0918
  516MOL0     C68032  10.997   5.204   2.502 -0.3304  0.5279 -0.5467
  516MOL0     C68033  10.903   5.290   2.558 -0.8496 -1.0601 -0.4996
  516MOL0     C68034  10.618   5.534   2.814 -0.6968  0.0047 -0.3735
  516MOL0     C68035  10.502   5.598   2.774 -0.5824  0.6739 -0.8447
  516MOL0     C68036  10.427   5.681   2.858  0.4077  0.1289  0.0811
  516MOL0     C68037  10.476   5.724   2.985  0.2790  0.4780 -0.0910
  516MOL0     O68038  10.419   5.818   3.066 -0.0017  0.0354 -0.4857
  516MOL0     C68039  10.316   5.909   3.008  0.0157  0.6185  0.1789
  516MOL0     C68040  10.279   6.006   3.124  0.7727 -0.6185  0.1667
  516MOL0     C68041  10.175   6.108   3.074 -0.2708  0.2410 -1.0083
  516MOL0     C68042  10.211   6.251   3.093 -0.7302  0.5137 -0.5628
  516MOL0     C68043  10.146   6.341   2.997 -1.1759 -0.2925  0.9697
  516MOL0     C68044  10.092   6.422   2.918 -0.1763  0.4938  0.1717
  516MOL0     C68045  10.596   5.674   3.020 -0.1590 -0.0182 -0.1802
  516MOL0     C68046  10.668   5.584   2.942  1.1611  0.5250  0.3399
  516MOL0     H68047  10.981   5.234   2.889  1.8491  1.1994 -0.3023
  516MOL0     H68048  11.137   5.081   2.788 -0.5944 -0.2210  1.0072
  516MOL0     H68049  11.146   4.886   2.642 -0.9626  0.5221  1.0504
  516MOL0     H68050  11.301   4.973   2.665  0.5109 -0.5424 -1.3040
  516MOL0     H68051  11.336   4.773   2.516 -0.6903  0.2110  1.9142
  516MOL0     H68052  11.356   4.918   2.420  0.0743  0.5237  0.9654
  516MOL0     H68053  11.116   4.899   2.341 -0.3244 -0.4093 -1.1623
  516MOL0     H68054  11.111   4.748   2.449  1.0851  1.1706  1.7362
  516MOL0     H68055  11.289   4.757   2.210 -2.4691  3.8387 -0.3667
  516MOL0     H68056  11.253   4.627   2.319 -1.3297 -1.8243 -2.1971
  516MOL0     H68057  11.039   4.607   2.277 -2.1785  2.0384 -1.2044
  516MOL0     H68058  11.133   4.583   2.134 -0.8092  1.5122 -1.6732
  516MOL0     H68059  10.960   4.826   2.199  0.3805  1.0071  0.4513
  516MOL0     H68060  10.936   4.714   2.066 -2.4288  2.9180 -0.2952
  516MOL0     H68061  11.022   4.922   1.982 -0.9865 -0.0291  0.7265
  516MOL0     H68062  11.150   4.934   2.099  1.6831 -0.3588 -1.2188
  516MOL0     H68063  11.284   4.779   2.008  0.0553 -1.7503 -1.0537
  516MOL0     H68064  11.225   4.883   1.875 -1.0797  0.6819  0.5396
  516MOL0     H68065  10.939   4.749   1.804 -0.3830 -1.1978  2.1770
  516MOL0     H68066  10.938   4.413   1.610  1.9450  0.4581 -0.2338
  516MOL0     H68067  10.857   4.560   1.629  0.5542  0.6975 -0.1104
  516MOL0     H68068  10.780   4.466   1.864 -0.3466  1.1190 -0.8727
  516MOL0     H68069  10.850   4.312   1.815  0.1819  0.6726  0.3113
  516MOL0     H68070  10.694   4.309   1.611  2.0647  1.9543 -0.7455
  516MOL0     H68071  10.618   4.299   1.771  0.1812  3.0355  2.1473
  516MOL0     H68072  10.649   4.544   1.601 -0.1891 -1.3622 -2.0770
  516MOL0     H68073  10.566   4.548   1.750 -0.0110  0.0644 -0.5678
  516MOL0     H68074  10.288   4.371   1.435  1.5023  0.2991 -0.3003
  516MOL0     H68075  10.058   4.307   1.508 -0.1919  0.5294  0.6158
  516MOL0     H68076   9.684   4.402   1.831  1.6541 -0.0132 -1.0875
  516MOL0     H68077   9.442   4.299   1.843  0.6181 -1.4556 -0.4350
  516MOL0     H68078   9.258   4.330   1.679 -2.3559  1.7533  3.3919
  516MOL0     H68079   9.220   4.240   1.830  0.7101  1.7463  0.3264
  516MOL0     H68080   9.071   4.107   1.729 -1.8901  0.9732 -1.1903
  516MOL0     H68081   9.113   4.149   1.565 -2.1783  1.8495 -1.5357
  516MOL0     H68082   9.058   4.403   1.640  0.0862  0.5767  1.0449
  516MOL0     H68083   8.986   4.334   1.779  2.0821 -0.3167  0.7998
  516MOL0     H68084   8.900   4.235   1.492  0.6622 -2.0038  0.3382
  516MOL0     H68085   8.820   4.216   1.642  0.4446  0.1705  0.0782
  516MOL0     H68086   8.701   4.381   1.500 -0.0055  0.1681 -0.6839
  516MOL0     H68087   8.860   4.461   1.457  0.9824 -0.1933  0.3165
  516MOL0     H68088   8.712   4.596   1.631 -2.3815 -0.9352  0.0935
  516MOL0     H68089   8.863   4.541   1.697  0.2895 -0.7899 -1.6645
  516MOL0     H68090   8.597   4.398   1.707  0.7662 -0.5954 -1.3631
  516MOL0     H68091   8.743   4.336   1.798 -0.7204  0.4812 -0.5469
  516MOL0     H68092   8.606   4.425   1.958 -3.6226  0.0293 -0.0869
  516MOL0     H68093   8.538   4.541   1.846 -0.6471  1.7420  2.8749
  516MOL0     H68094   9.530   4.067   1.495 -2.2246 -0.5506  0.9333
  516MOL0     H68095   9.763   4.129   1.509 -0.8740 -1.9337  0.1610
  516MOL0     H68096  10.181   4.385   1.917 -2.7672  2.2350 -0.2795
  516MOL0     H68097  10.393   4.458   1.838  2.1048  0.0543 -1.3907
  516MOL0     H68098  11.014   5.215   2.395  2.1117 -0.3998 -0.3230
  516MOL0     H68099  10.847   5.362   2.499 -2.7920  0.6166  3.0987
  516MOL0     H68100  10.460   5.585   2.675 -2.2428  1.1826 -0.2488
  516MOL0     H68101  10.332   5.725   2.829  0.1406 -0.4758  0.0381
  516MOL0     H68102  10.235   5.838   2.989  0.7573 -0.0211 -0.7004
  516MOL0     H68103  10.368   5.953   2.922  0.6280  2.5878  1.4868
  516MOL0     H68104  10.240   5.949   3.209 -3.2614 -2.2058 -2.4494
  516MOL0     H68105  10.370   6.048   3.166  0.8078 -1.1062  0.5996
  516MOL0     H68106  10.077   6.101   3.123  0.1299  0.2221 -0.1990
  516MOL0     H68107  10.146   6.086   2.971 -0.8254  1.0704 -1.0336
  516MOL0     H68108  10.210   6.293   3.194  0.0675  2.7232 -1.3920
  516MOL0     H68109  10.318   6.255   3.070 -0.5005 -0.1677  0.3484
  516MOL0     H68110  10.045   6.496   2.857 -0.3915  0.2093 -0.0132
  516MOL0     H68111  10.638   5.710   3.114  2.0931 -2.4984 -0.0970
  516MOL0     H68112  10.768   5.556   2.976  0.2161 -0.2965  2.6164
  517MOL0     O68113   1.761   3.605   3.689 -1.8839 -0.4998  0.0664
  517MOL0     C68114   1.784   3.709   3.626 -0.1022 -0.6782  0.2253
  517MOL0     O68115   1.687   3.788   3.571 -0.4312 -0.1093  0.9684
  517MOL0     C68116   1.564   3.734   3.555 -0.6847  0.5451  0.0027
  517MOL0     C68117   1.457   3.827   3.556 -0.2722 -0.4129 -0.8367
  517MOL0     C68118   1.322   3.778   3.562 -0.6847  0.4765  0.4657
  517MOL0     C68119   1.285   3.641   3.557 -0.4591 -0.4621  1.0312
  517MOL0     O68120   1.152   3.623   3.558 -0.1010 -0.4485 -0.4190
  517MOL0     C68121   1.090   3.496   3.537 -0.7101 -0.2500 -0.1884
  517MOL0     C68122   0.935   3.508   3.533  0.6063 -0.1110 -0.4703
  517MOL0     C68123   0.884   3.375   3.478  0.4418  0.6949 -0.1170
  517MOL0     C68124   0.726   3.383   3.474 -0.0263  0.0289 -0.1834
  517MOL0     C68125   0.666   3.489   3.369 -0.0148  0.0392 -0.4249
  517MOL0     C68126   0.509   3.471   3.380  0.3734  0.5612 -0.8165
  517MOL0     C68127   0.426   3.589   3.324 -0.5555 -0.7069 -0.0940
  517MOL0     C68128   0.459   3.722   3.403 -0.1993 -0.8247 -0.2930
  517MOL0     N68129   0.347   3.820   3.388 -0.2718  0.3183  0.4718
  517MOL0     C68130   0.327   3.885   3.272  0.8015 -0.6590  0.3126
  517MOL0     C68131   0.202   3.934   3.285 -0.3718 -0.8688  0.2105
  517MOL0     C68132   0.121   4.021   3.176 -0.3211 -0.1621  0.1408
  517MOL0     C68133  -0.020   3.978   3.165  0.2077  0.2296 -0.5855
  517MOL0     C68134  -0.105   4.042   3.050 -0.3464  0.2442  0.4562
  517MOL0     C68135  -0.245   3.975   3.042 -0.1167  0.3572  0.4778
  517MOL0     O68136  -0.301   4.026   2.919 -0.7128  0.3756  0.2000
  517MOL0     C68137  -0.399   4.119   2.947 -0.1579  0.2462 -0.4740
  517MOL0     C68138  -0.520   4.067   2.984  0.0340  0.2106  0.4227
  517MOL0     C68139  -0.618   4.149   3.024  0.0259 -0.7849  0.5334
  517MOL0     C68140  -0.616   4.293   3.023  0.2371  1.1170  0.1699
  517MOL0     C68141  -0.735   4.372   3.060 -0.0018  0.6148  0.4433
  517MOL0     O68142  -0.856   4.310   3.081 -0.5058  0.5078 -0.0890
  517MOL0     C68143  -0.975   4.360   3.109  0.0923  0.2958 -0.6512
  517MOL0     C68144  -1.073   4.270   3.129  0.1202 -0.9232 -0.1240
  517MOL0     C68145  -1.214   4.309   3.138  0.0655 -0.1110 -0.5914
  517MOL0     C68146  -1.249   4.438   3.161  0.6181  0.0992 -0.9894
  517MOL0     O68147  -1.377   4.480   3.192  0.4283  0.4344 -0.4121
  517MOL0     C68148  -1.461   4.381   3.264  0.2544 -0.4407 -0.2611
  517MOL0     C68149  -1.587   4.455   3.296 -0.2726  0.1840 -0.2995
  517MOL0     C68150  -1.695   4.365   3.343 -0.3494  0.2062 -0.0832
  517MOL0     C68151  -1.826   4.438   3.351 -0.8553 -0.0058  0.2759
  517MOL0     C68152  -1.946   4.354   3.388 -0.5948  1.2094 -0.1725
  517MOL0     C68153  -1.981   4.330   3.540  0.2571  0.7226  0.0362
  517MOL0     C68154  -2.081   4.214   3.545 -0.0301  0.3400 -0.2841
  517MOL0     C68155  -2.111   4.157   3.691  0.3010  0.5245 -0.3450
  517MOL0    Cl68156  -2.202   4.260   3.806 -0.0567  0.0305 -0.5730
  517MOL0     C68157  -1.137   4.526   3.152  0.4964  0.7119 -0.4862
  517MOL0     C68158  -1.003   4.496   3.117 -0.3568  0.0928 -0.3427
  517MOL0     O68159  -0.722   4.492   3.077 -0.9116 -0.3412  0.1336
  517MOL0     C68160  -0.487   4.347   2.982  0.3051  0.1341  0.3252
  517MOL0     C68161  -0.379   4.262   2.944  0.2402 -0.2789  0.8994
  517MOL0     N68162   0.139   3.879   3.398 -0.6011  0.4190  0.2603
  517MOL0     N68163   0.227   3.810   3.457  0.4599 -0.1176  0.6397
  517MOL0     C68164   1.390   3.556   3.532  0.4287  0.9288  0.0913
  517MOL0     C68165   1.528   3.600   3.530 -0.1906  0.3250 -0.2778
  517MOL0     C68166   1.927   3.744   3.616  0.4589  0.3824  0.4797
  517MOL0     C68167   1.957   3.869   3.563  0.8675 -0.4592  0.6379
  517MOL0     C68168   2.093   3.914   3.569  0.0299  0.7977  0.2596
  517MOL0     C68169   2.194   3.830   3.611 -0.1228  0.0638  0.3611
  517MOL0     O68170   2.327   3.877   3.625 -0.2671 -0.0386  0.4276
  517MOL0     C68171   2.439   3.789   3.631  0.6471 -0.4687  0.7226
  517MOL0     C68172   2.552   3.868   3.558 -0.5149 -0.3263 -0.4068
  517MOL0     C68173   2.528   3.842   3.404 -0.1546  1.0223  0.1718
  517MOL0     C68174   2.617   3.932   3.320  0.2797 -0.3074  0.4976
  517MOL0     C68175   2.749   3.884   3.311 -0.2147 -0.6236  0.9238
  517MOL0     C68176   2.864   3.833   3.313  0.6073  0.1985 -0.0390
  517MOL0     C68177   2.168   3.702   3.655  1.6096  0.0125 -0.1671
  517MOL0     C68178   2.030   3.657   3.667  0.2566 -0.4568 -0.6439
  517MOL0     H68179   1.476   3.932   3.571 -0.3843 -0.1093 -2.5764
  517MOL0     H68180   1.250   3.859   3.563 -0.1970  1.0055 -1.7583
  517MOL0     H68181   1.120   3.416   3.605  2.1949  1.0994  0.2948
  517MOL0     H68182   1.137   3.450   3.450  1.1089  1.3446 -0.1255
  517MOL0     H68183   0.906   3.597   3.477 -2.0746  1.1437  2.6116
  517MOL0     H68184   0.900   3.517   3.636  0.5928 -1.4974 -0.3371
  517MOL0     H68185   0.908   3.299   3.552  1.0184 -1.5965 -2.5103
  517MOL0     H68186   0.929   3.352   3.381 -0.1508  0.4371 -0.3282
  517MOL0     H68187   0.684   3.289   3.436 -3.5548  0.1397  2.8935
  517MOL0     H68188   0.684   3.400   3.573 -1.4527 -0.9578 -0.6012
  517MOL0     H68189   0.704   3.460   3.270 -0.1233  1.7215 -0.9809
  517MOL0     H68190   0.695   3.592   3.388  1.1432 -0.6781  2.0250
  517MOL0     H68191   0.477   3.460   3.483  1.5508  2.5696 -0.1773
  517MOL0     H68192   0.487   3.375   3.332  0.8901  1.0496 -2.0710
  517MOL0     H68193   0.436   3.610   3.217 -1.3657 -3.2721 -0.7379
  517MOL0     H68194   0.320   3.572   3.348 -0.4813  1.3465  2.1025
  517MOL0     H68195   0.551   3.765   3.362  0.7664 -1.3822  1.2029
  517MOL0     H68196   0.467   3.691   3.507 -2.0139  2.2508  0.8820
  517MOL0     H68197   0.406   3.910   3.201  2.1048  0.0831  1.9550
  517MOL0     H68198   0.177   4.035   3.083  1.5914  0.0066  1.2765
  517MOL0     H68199   0.124   4.124   3.215  1.7032  0.4554 -1.4565
  517MOL0     H68200  -0.077   4.008   3.254 -1.6071  1.6960 -2.1450
  517MOL0     H68201  -0.029   3.871   3.146  0.9109  0.4562 -2.4151
  517MOL0     H68202  -0.106   4.151   3.046  3.3611  0.3814 -0.1269
  517MOL0     H68203  -0.050   4.013   2.960 -0.2544 -3.0933  1.4556
  517MOL0     H68204  -0.303   3.995   3.132  0.3935 -2.9083  1.6330
  517MOL0     H68205  -0.252   3.866   3.035 -1.0450  0.4871 -1.6254
  517MOL0     H68206  -0.539   3.960   2.988 -3.5676  0.7397  1.0787
  517MOL0     H68207  -0.706   4.105   3.071  0.2455 -1.6494  0.1538
  517MOL0     H68208  -1.053   4.163   3.124 -0.2162 -0.9941 -0.0345
  517MOL0     H68209  -1.287   4.229   3.135  2.7153 -2.6618 -1.1929
  517MOL0     H68210  -1.410   4.358   3.358  2.0270  0.9845 -0.8140
  517MOL0     H68211  -1.474   4.291   3.203  2.5458  0.0495 -1.5731
  517MOL0     H68212  -1.618   4.500   3.201 -1.5798 -2.3810 -1.1771
  517MOL0     H68213  -1.553   4.535   3.363  1.3470 -0.4002 -0.3763
  517MOL0     H68214  -1.663   4.334   3.443  3.2687  3.3492 -0.0249
  517MOL0     H68215  -1.709   4.280   3.276  1.6095  0.5363 -0.9970
  517MOL0     H68216  -1.811   4.512   3.431 -0.1016 -2.1680  2.2224
  517MOL0     H68217  -1.837   4.493   3.257  3.0789  1.8365  0.6743
  517MOL0     H68218  -1.937   4.262   3.331 -1.1647  1.4066 -0.5852
  517MOL0     H68219  -2.034   4.404   3.347 -0.4755  0.2864 -1.5966
  517MOL0     H68220  -2.028   4.414   3.592  2.0230  2.8750 -1.6883
  517MOL0     H68221  -1.894   4.291   3.594 -1.1965 -4.9488 -1.0910
  517MOL0     H68222  -2.178   4.246   3.505 -0.2949 -1.1864 -0.9352
  517MOL0     H68223  -2.034   4.136   3.484  3.9949  0.8951  1.7807
  517MOL0     H68224  -2.021   4.110   3.732  0.2732  2.0767  1.7081
  517MOL0     H68225  -2.181   4.075   3.678  1.4175 -0.3466 -0.9917
  517MOL0     H68226  -1.161   4.629   3.179 -2.1556 -0.1795  0.8791
  517MOL0     H68227  -0.926   4.572   3.125  0.6661 -1.0090  0.6465
  517MOL0     H68228  -0.457   4.452   2.977  0.4513  0.0454 -1.0491
  517MOL0     H68229  -0.283   4.294   2.906 -0.9520 -0.2458 -2.3615
  517MOL0     H68230   1.378   3.450   3.510  0.2195  1.6157 -3.8631
  517MOL0     H68231   1.606   3.524   3.528  0.1625  0.7012 -1.5206
  517MOL0     H68232   1.892   3.945   3.522  1.2687 -0.6975 -0.4824
  517MOL0     H68233   2.104   4.013   3.525  0.3052  0.7174  0.1453
  517MOL0     H68234   2.425   3.693   3.580 -1.3484  1.2720 -2.2304
  517MOL0     H68235   2.468   3.769   3.735 -0.0596  0.7746  1.1733
  517MOL0     H68236   2.553   3.974   3.587 -3.0204  0.8987 -4.0271
  517MOL0     H68237   2.648   3.826   3.587  0.0449  1.1992  0.0392
  517MOL0     H68238   2.424   3.860   3.376  0.1071 -0.7093 -2.2744
  517MOL0     H68239   2.553   3.739   3.374 -0.2157  1.8455 -3.1046
  517MOL0     H68240   2.582   3.953   3.219  1.0982 -1.9178 -0.1512
  517MOL0     H68241   2.613   4.027   3.375  0.3615 -1.3496  2.4019
  517MOL0     H68242   2.961   3.787   3.309  0.4920  0.0602 -2.5151
  517MOL0     H68243   2.259   3.653   3.687  1.8637  2.4822  3.5386
  517MOL0     H68244   2.006   3.561   3.710  0.3874  0.0725  0.6647
  518MOL0     O68245   0.717   5.570   2.485  0.7341 -0.5472 -0.4023
  518MOL0     C68246   0.679   5.558   2.603 -0.6825  0.3503 -0.2126
  518MOL0     O68247   0.756   5.598   2.712 -0.0952 -0.2461 -0.6797
  518MOL0     C68248   0.886   5.622   2.704  0.2159 -0.0505 -0.9863
  518MOL0     C68249   0.972   5.553   2.616 -0.8164  0.2655  0.5812
  518MOL0     C68250   1.109   5.566   2.627 -1.1304  0.0934 -1.0894
  518MOL0     C68251   1.156   5.662   2.709  0.1363  0.0190  0.0705
  518MOL0     O68252   1.296   5.681   2.715 -0.0340 -0.4113  0.6620
  518MOL0     C68253   1.348   5.813   2.711  0.2053  0.1309  0.5953
  518MOL0     C68254   1.498   5.810   2.682 -0.2129  0.5978 -0.2472
  518MOL0     C68255   1.524   5.817   2.529 -0.0160  0.1933 -0.3999
  518MOL0     C68256   1.504   5.680   2.458  0.5451  0.0282 -0.1613
  518MOL0     C68257   1.579   5.661   2.322  0.1432  0.2432 -0.4316
  518MOL0     C68258   1.541   5.773   2.215  0.3375  0.4192 -0.3623
  518MOL0     C68259   1.405   5.755   2.158  0.8662  0.6958  0.4342
  518MOL0     C68260   1.297   5.830   2.226 -0.1007 -0.6927 -0.5500
  518MOL0     N68261   1.171   5.773   2.197 -0.2553 -0.0403  0.4792
  518MOL0     C68262   1.114   5.666   2.265 -1.3095  0.8442 -0.3918
  518MOL0     C68263   1.020   5.618   2.186 -0.2755  0.2428  1.1206
  518MOL0     C68264   0.922   5.502   2.202  1.3596 -0.1919  0.3359
  518MOL0     C68265   0.823   5.502   2.082  0.0262  0.0391 -0.4255
  518MOL0     C68266   0.708   5.400   2.103  0.4267  0.0861  0.5514
  518MOL0     C68267   0.592   5.440   2.204 -0.4508  0.0215 -0.2403
  518MOL0     O68268   0.508   5.328   2.232 -0.4664 -0.1889  0.8739
  518MOL0     C68269   0.373   5.315   2.218  0.9681 -0.4136 -0.5523
  518MOL0     C68270   0.315   5.201   2.279  0.8029  0.0294 -0.3931
  518MOL0     C68271   0.174   5.178   2.259  0.7828 -0.1333  0.0056
  518MOL0     C68272   0.094   5.274   2.199 -0.0104 -0.1074  1.1398
  518MOL0     C68273  -0.056   5.252   2.180 -0.1718  0.3482  0.1828
  518MOL0     O68274  -0.131   5.352   2.131  0.0379  0.2825 -1.1444
  518MOL0     C68275  -0.266   5.317   2.105 -0.4993  0.1406  0.2244
  518MOL0     C68276  -0.296   5.228   2.001 -0.1710  1.1017 -0.4337
  518MOL0     C68277  -0.434   5.194   1.978 -0.9033  0.0895 -0.3993
  518MOL0     C68278  -0.537   5.238   2.061 -0.5430 -0.3883  0.8467
  518MOL0     O68279  -0.661   5.189   2.047  0.7475 -0.4078 -0.4434
  518MOL0     C68280  -0.722   5.147   2.169  0.1063 -0.6213  0.3729
  518MOL0     C68281  -0.830   5.042   2.139 -0.0706  0.7652 -0.0327
  518MOL0     C68282  -0.883   4.963   2.260 -0.1633 -0.3505 -0.1998
  518MOL0     C68283  -0.922   5.045   2.381  0.4087  0.1506 -0.3142
  518MOL0     C68284  -1.027   5.151   2.360 -0.1932  0.2699  0.4617
  518MOL0     C68285  -1.171   5.111   2.323  0.5009  0.4738  0.5072
  518MOL0     C68286  -1.239   5.016   2.421  0.4196 -0.1235  0.1175
  518MOL0     C68287  -1.386   4.986   2.405 -0.3601 -0.9126 -0.0863
  518MOL0    Cl68288  -1.505   5.121   2.435 -0.4894  0.1494  0.2962
  518MOL0     C68289  -0.504   5.331   2.149 -0.3431 -0.9060  0.0290
  518MOL0     C68290  -0.375   5.375   2.171 -0.3141  1.2038  0.4656
  518MOL0     O68291  -0.095   5.138   2.206 -0.6976  0.3449 -0.3809
  518MOL0     C68292   0.157   5.396   2.154  0.4040  0.2052  0.3884
  518MOL0     C68293   0.299   5.411   2.156  0.2117  0.1163  0.2438
  518MOL0     N68294   1.028   5.690   2.071 -0.5887 -1.0092 -0.7476
  518MOL0     N68295   1.115   5.790   2.078  0.2006  0.0276 -0.0475
  518MOL0     C68296   1.071   5.744   2.785 -0.6061  0.4494  0.1437
  518MOL0     C68297   0.940   5.726   2.779 -0.5885  0.0416 -0.3989
  518MOL0     C68298   0.551   5.486   2.634 -0.1793 -0.2749 -0.0721
  518MOL0     C68299   0.529   5.417   2.754  0.2690 -0.4567 -0.1137
  518MOL0     C68300   0.410   5.355   2.780 -0.6421 -0.4933 -1.3238
  518MOL0     C68301   0.297   5.360   2.686 -0.3972 -0.4767 -0.4317
  518MOL0     O68302   0.178   5.311   2.732 -0.0163 -0.0540  0.1206
  518MOL0     C68303   0.072   5.305   2.630  0.4218  0.5171 -0.2819
  518MOL0     C68304  -0.026   5.419   2.607 -0.9723  0.0185  0.2939
  518MOL0     C68305  -0.069   5.464   2.747  0.1488  0.0352 -1.3720
  518MOL0     C68306  -0.174   5.592   2.738 -0.0199  1.4827 -0.0904
  518MOL0     C68307  -0.160   5.664   2.860 -0.5254  0.2762  0.0402
  518MOL0     C68308  -0.136   5.720   2.965 -0.7783 -0.8313  0.0385
  518MOL0     C68309   0.320   5.426   2.560 -0.6555 -0.0143 -0.3037
  518MOL0     C68310   0.450   5.482   2.539  1.4671  0.4044  0.6019
  518MOL0     H68311   0.939   5.473   2.550 -1.0215  0.8784 -0.0771
  518MOL0     H68312   1.171   5.494   2.575  0.3836  0.9395 -0.5253
  518MOL0     H68313   1.329   5.855   2.810 -0.4924 -1.9289  1.3968
  518MOL0     H68314   1.301   5.874   2.633 -0.2352 -2.6393 -1.4628
  518MOL0     H68315   1.554   5.729   2.731  0.8124  0.7629 -1.0958
  518MOL0     H68316   1.543   5.900   2.724  2.5077 -0.5354 -0.4853
  518MOL0     H68317   1.628   5.848   2.519 -0.4335  1.6610 -0.3287
  518MOL0     H68318   1.456   5.887   2.480 -0.4368  0.1072  0.0497
  518MOL0     H68319   1.531   5.602   2.530  1.0041  0.2708 -0.0685
  518MOL0     H68320   1.395   5.677   2.444  0.6488  1.2133 -1.4720
  518MOL0     H68321   1.551   5.561   2.286  1.0583 -0.7442  1.4330
  518MOL0     H68322   1.682   5.649   2.355  0.4660 -0.9376 -1.7599
  518MOL0     H68323   1.615   5.782   2.135  0.6170 -1.1603 -0.3049
  518MOL0     H68324   1.544   5.871   2.264  1.7687 -0.1849  0.8374
  518MOL0     H68325   1.409   5.793   2.056 -1.4721  1.1309  0.4627
  518MOL0     H68326   1.385   5.648   2.144 -2.7712  1.5648 -2.3856
  518MOL0     H68327   1.299   5.934   2.190 -2.9707  0.4676  2.1964
  518MOL0     H68328   1.325   5.828   2.332  0.3647 -1.7839 -0.6791
  518MOL0     H68329   1.132   5.633   2.367 -2.4789  0.3035 -0.3516
  518MOL0     H68330   0.871   5.523   2.296 -0.5332  2.0051 -1.0511
  518MOL0     H68331   0.969   5.405   2.221 -0.4810 -0.8166  2.0403
  518MOL0     H68332   0.865   5.483   1.983 -0.1965  0.5175 -0.6171
  518MOL0     H68333   0.783   5.603   2.072  0.0943  0.0706 -0.3828
  518MOL0     H68334   0.661   5.385   2.005 -0.2598 -3.7157  1.3005
  518MOL0     H68335   0.752   5.305   2.137 -1.6604 -0.6829  1.2543
  518MOL0     H68336   0.532   5.518   2.154  0.9516  0.2637 -1.6375
  518MOL0     H68337   0.637   5.484   2.293 -0.4283  0.2260 -0.3503
  518MOL0     H68338   0.373   5.128   2.334 -1.7520 -1.3790  0.6297
  518MOL0     H68339   0.134   5.094   2.314  0.9471 -1.3428 -1.6284
  518MOL0     H68340  -0.214   5.198   1.936  0.1274 -2.9927  1.5490
  518MOL0     H68341  -0.459   5.127   1.896 -4.0817 -1.0775  1.3402
  518MOL0     H68342  -0.770   5.233   2.218  0.3237  1.1359 -2.3021
  518MOL0     H68343  -0.644   5.115   2.238  0.3811  0.7508  0.7281
  518MOL0     H68344  -0.769   4.964   2.093  0.7086  1.6321 -0.5157
  518MOL0     H68345  -0.900   5.081   2.065  1.5313 -0.5523 -2.3627
  518MOL0     H68346  -0.808   4.892   2.295 -0.5766 -0.6529  0.0848
  518MOL0     H68347  -0.953   4.900   2.204  1.2591  0.2181 -2.7762
  518MOL0     H68348  -0.961   4.972   2.452  0.1482 -0.4683 -1.0757
  518MOL0     H68349  -0.830   5.092   2.416  1.7898 -1.0133 -2.2278
  518MOL0     H68350  -0.982   5.219   2.287  3.0982 -1.3442  0.7958
  518MOL0     H68351  -1.030   5.204   2.456 -0.2491  0.8854  0.1222
  518MOL0     H68352  -1.163   5.047   2.235  2.1355  0.3774  0.6879
  518MOL0     H68353  -1.225   5.204   2.304  0.3425  0.0113 -1.5253
  518MOL0     H68354  -1.193   4.916   2.416  0.9751  0.1597 -0.6126
  518MOL0     H68355  -1.224   5.050   2.524  2.1338 -0.5579  0.0455
  518MOL0     H68356  -1.411   4.904   2.473 -2.6147 -0.0705  0.1799
  518MOL0     H68357  -1.407   4.955   2.302  0.0186  0.3024 -0.5431
  518MOL0     H68358  -0.584   5.378   2.205 -1.0048  0.7523 -2.1316
  518MOL0     H68359  -0.358   5.447   2.250 -2.9322  0.9764  1.3093
  518MOL0     H68360   0.089   5.467   2.106  0.6083 -0.6385 -1.1994
  518MOL0     H68361   0.351   5.495   2.112  3.3211 -1.2949  0.9656
  518MOL0     H68362   1.123   5.809   2.854  1.1359 -2.3841  1.7134
  518MOL0     H68363   0.890   5.805   2.833 -0.6643  1.2975 -2.2190
  518MOL0     H68364   0.598   5.419   2.837 -0.4384  1.6768  0.4823
  518MOL0     H68365   0.412   5.294   2.869 -0.4320  2.3959  0.7873
  518MOL0     H68366   0.017   5.221   2.673 -3.4742  3.4248  0.9421
  518MOL0     H68367   0.113   5.275   2.533  1.0209  5.6438 -1.9114
  518MOL0     H68368   0.019   5.493   2.540 -2.0150  1.3418  0.9899
  518MOL0     H68369  -0.115   5.376   2.561 -0.0416 -0.4211 -1.1589
  518MOL0     H68370   0.011   5.495   2.815  0.4219 -1.2494 -1.0776
  518MOL0     H68371  -0.119   5.380   2.796  1.2299  0.5957  0.8364
  518MOL0     H68372  -0.132   5.653   2.658  0.2997 -1.3067 -2.2066
  518MOL0     H68373  -0.276   5.555   2.720  0.5400 -0.8379  1.0758
  518MOL0     H68374  -0.123   5.774   3.056  1.6898 -1.0254 -0.1244
  518MOL0     H68375   0.240   5.430   2.487  0.1350 -0.3000 -1.2063
  518MOL0     H68376   0.475   5.504   2.436  1.0291 -1.0567  0.1533
  519MOL0     O68377   6.609   6.028   2.586 -0.7080 -0.1252 -0.5206
  519MOL0     C68378   6.665   6.060   2.698  0.1670 -0.7772 -0.2828
  519MOL0     O68379   6.627   6.172   2.777 -0.1116 -0.2654 -0.2192
  519MOL0     C68380   6.510   6.234   2.765  0.0940 -0.5727  0.3028
  519MOL0     C68381   6.509   6.378   2.763  0.7132  0.5538 -0.0893
  519MOL0     C68382   6.386   6.442   2.741 -0.0000 -0.4427  0.3289
  519MOL0     C68383   6.269   6.363   2.719 -1.4156 -0.3137  0.3713
  519MOL0     O68384   6.153   6.434   2.707 -0.2703  0.1884 -0.0897
  519MOL0     C68385   6.077   6.416   2.823  0.9692  1.4651  0.0533
  519MOL0     C68386   5.955   6.504   2.823  0.4940  0.6115 -0.4587
  519MOL0     C68387   5.890   6.500   2.956  0.3176 -0.4151 -0.6144
  519MOL0     C68388   5.784   6.613   2.965  0.2176  0.1574 -0.2952
  519MOL0     C68389   5.714   6.605   3.106 -0.7556  0.3303 -0.3260
  519MOL0     C68390   5.813   6.629   3.223  0.2163  0.4479  0.4197
  519MOL0     C68391   5.756   6.697   3.347  0.4127 -0.2964 -0.4622
  519MOL0     C68392   5.858   6.707   3.457 -0.4249  0.2476 -0.5410
  519MOL0     N68393   5.958   6.810   3.443  0.3028  0.0865  0.1698
  519MOL0     C68394   6.063   6.795   3.360  0.0296 -0.2525  0.9169
  519MOL0     C68395   6.150   6.902   3.384  0.4662 -0.6366 -0.0659
  519MOL0     C68396   6.271   6.920   3.304 -0.0010 -0.5633  0.0692
  519MOL0     C68397   6.368   6.806   3.330 -0.5108  0.0821  0.4433
  519MOL0     C68398   6.403   6.772   3.475  0.5336  0.0920  0.0194
  519MOL0     C68399   6.527   6.689   3.473 -0.5618  0.7785  0.4097
  519MOL0     O68400   6.507   6.600   3.588  0.7359 -0.2354  0.4197
  519MOL0     C68401   6.624   6.549   3.635 -0.9504 -0.2841  0.0190
  519MOL0     C68402   6.715   6.629   3.702  0.2696 -0.4983  0.3017
  519MOL0     C68403   6.839   6.575   3.753 -0.0254 -0.4440  0.8680
  519MOL0     C68404   6.882   6.445   3.707 -0.0033  0.4542 -1.1467
  519MOL0     C68405   7.005   6.379   3.757  0.7377 -0.7052  0.0772
  519MOL0     O68406   7.041   6.269   3.675  0.2848  0.0019 -1.0555
  519MOL0     C68407   7.153   6.192   3.703 -0.4585 -0.5321  0.5306
  519MOL0     C68408   7.201   6.148   3.828  0.3024 -1.0454 -0.5381
  519MOL0     C68409   7.321   6.083   3.835  0.2179 -1.1633 -0.3038
  519MOL0     C68410   7.397   6.050   3.722 -0.3951  0.6164  0.8617
  519MOL0     O68411   7.526   6.009   3.714 -0.4008 -0.1608 -0.3405
  519MOL0     C68412   7.578   5.940   3.827 -0.4324 -1.0641  0.4739
  519MOL0     C68413   7.698   5.868   3.768  0.0312 -0.8729  0.6177
  519MOL0     C68414   7.750   5.753   3.858  0.9601 -0.3893 -0.6285
  519MOL0     C68415   7.840   5.671   3.788 -0.1164  0.5597  1.1117
  519MOL0     C68416   7.875   5.542   3.869  0.3511  0.4837 -0.4555
  519MOL0     C68417   7.968   5.445   3.795 -0.1461  0.3363  0.3931
  519MOL0     C68418   8.122   5.495   3.768 -0.6912  0.1967  0.2819
  519MOL0     C68419   8.205   5.411   3.671 -1.6372  0.6817 -0.1904
  519MOL0    Cl68420   8.284   5.270   3.758  0.2269  0.2123 -0.1315
  519MOL0     C68421   7.344   6.078   3.597 -0.7105 -0.4779  0.1534
  519MOL0     C68422   7.227   6.152   3.595  0.2374 -1.1169  0.9766
  519MOL0     O68423   7.069   6.414   3.859  0.1545 -0.5742  0.2799
  519MOL0     C68424   6.780   6.363   3.649 -1.0790  0.0457  0.1926
  519MOL0     C68425   6.657   6.414   3.617 -0.4930  0.8900 -0.3416
  519MOL0     N68426   6.094   6.977   3.488 -0.0276 -0.4800 -0.6818
  519MOL0     N68427   5.984   6.919   3.524 -0.1015  0.6303 -0.2732
  519MOL0     C68428   6.270   6.225   2.716  0.1898 -0.1568  0.5386
  519MOL0     C68429   6.393   6.164   2.751 -0.6812  0.0819 -0.0734
  519MOL0     C68430   6.798   6.000   2.724  0.8406 -0.5899 -0.7629
  519MOL0     C68431   6.856   5.901   2.640 -0.7657  1.1922  0.1877
  519MOL0     C68432   6.982   5.847   2.670 -0.1584  0.4074 -0.5082
  519MOL0     C68433   7.056   5.897   2.780  0.2164 -0.3489  0.6454
  519MOL0     O68434   7.182   5.847   2.801  0.2744  0.0215 -0.1521
  519MOL0     C68435   7.273   5.914   2.718  0.3784 -0.1145 -0.4452
  519MOL0     C68436   7.307   5.844   2.588  1.2718 -0.0134  0.2007
  519MOL0     C68437   7.326   5.692   2.624  0.1573  0.6981  0.3196
  519MOL0     C68438   7.385   5.608   2.509  0.0210  0.5771 -0.3287
  519MOL0     C68439   7.423   5.471   2.544  0.0770 -0.1048  0.7149
  519MOL0     C68440   7.460   5.363   2.582 -0.0779  0.5690  0.1279
  519MOL0     C68441   7.003   5.989   2.865  0.2091  0.4834  0.1062
  519MOL0     C68442   6.872   6.038   2.837 -0.2633  0.0336  0.2096
  519MOL0     H68443   6.594   6.445   2.775  1.4221 -0.6756  2.7694
  519MOL0     H68444   6.389   6.548   2.762 -1.9322 -1.0065  4.6735
  519MOL0     H68445   6.144   6.430   2.908  4.4235 -0.7760 -2.0107
  519MOL0     H68446   6.030   6.317   2.823  0.1837  1.8272  1.0914
  519MOL0     H68447   5.876   6.476   2.751 -0.1691  0.9015  0.1419
  519MOL0     H68448   5.988   6.603   2.789 -4.7053  2.3004 -1.5796
  519MOL0     H68449   5.959   6.520   3.039 -1.5477 -3.7773  2.0529
  519MOL0     H68450   5.846   6.402   2.980  0.1191 -0.4886 -1.2647
  519MOL0     H68451   5.842   6.706   2.968 -0.9615  0.8984  1.1552
  519MOL0     H68452   5.715   6.612   2.880 -1.3849 -0.0288  0.9631
  519MOL0     H68453   5.645   6.525   3.134 -2.4079  2.2269  1.3329
  519MOL0     H68454   5.641   6.687   3.111  0.9018  2.0464 -2.4916
  519MOL0     H68455   5.883   6.701   3.178  0.0390  0.1338 -0.3710
  519MOL0     H68456   5.863   6.537   3.253 -0.4225  0.3173  1.1004
  519MOL0     H68457   5.727   6.801   3.329  2.3207  0.3962  0.2623
  519MOL0     H68458   5.664   6.644   3.375  0.6285  0.6528  2.3263
  519MOL0     H68459   5.908   6.610   3.465  1.6666  1.4374  2.8667
  519MOL0     H68460   5.809   6.724   3.553 -1.6137  1.5236 -1.3284
  519MOL0     H68461   6.076   6.718   3.285  0.5061  2.4768 -2.0038
  519MOL0     H68462   6.308   7.020   3.329  0.6830 -1.2739  2.0572
  519MOL0     H68463   6.243   6.919   3.198 -1.0881  2.3022  0.2452
  519MOL0     H68464   6.455   6.830   3.268 -0.3773 -0.7688  0.2873
  519MOL0     H68465   6.314   6.722   3.285 -0.2325  0.3583 -0.4258
  519MOL0     H68466   6.421   6.860   3.538  1.7941 -0.6349  0.7273
  519MOL0     H68467   6.309   6.738   3.518 -1.1927  5.8176  1.6427
  519MOL0     H68468   6.614   6.754   3.487 -0.4955  0.3154  2.4990
  519MOL0     H68469   6.526   6.636   3.377 -2.4356 -1.9323  1.8081
  519MOL0     H68470   6.670   6.727   3.721 -3.8753 -2.0310 -0.5379
  519MOL0     H68471   6.903   6.628   3.823 -0.6530  3.1774 -1.0888
  519MOL0     H68472   7.169   6.183   3.926  2.7805  1.5856 -0.5142
  519MOL0     H68473   7.344   6.073   3.940 -1.5080  1.9963  0.5190
  519MOL0     H68474   7.512   5.866   3.874 -3.0395  0.1582 -1.0039
  519MOL0     H68475   7.618   6.015   3.895  2.2777 -0.6878 -1.3728
  519MOL0     H68476   7.778   5.941   3.752 -0.2666 -0.1760  2.1153
  519MOL0     H68477   7.667   5.830   3.671 -1.9000  1.2661  0.3463
  519MOL0     H68478   7.663   5.695   3.891 -0.6531  1.0845 -2.0799
  519MOL0     H68479   7.806   5.802   3.937 -0.0109 -0.4562  0.1263
  519MOL0     H68480   7.793   5.640   3.694  1.3218  0.8827  0.2506
  519MOL0     H68481   7.925   5.734   3.763  0.0598  0.7355  2.1381
  519MOL0     H68482   7.780   5.494   3.895 -0.0468  2.6801  2.6502
  519MOL0     H68483   7.923   5.571   3.963 -0.0520  1.2999 -0.4986
  519MOL0     H68484   7.913   5.448   3.700  0.6992  0.0672 -0.1173
  519MOL0     H68485   7.966   5.347   3.841  2.4937  1.1108  2.3722
  519MOL0     H68486   8.120   5.596   3.727  1.2597 -0.4175 -1.4781
  519MOL0     H68487   8.165   5.515   3.866 -0.4989  0.4535  0.1459
  519MOL0     H68488   8.277   5.472   3.615 -0.0074 -1.2724 -0.3480
  519MOL0     H68489   8.131   5.374   3.600 -0.8417 -1.6203  0.1169
  519MOL0     H68490   7.407   6.062   3.511 -1.5669 -0.8620 -0.4125
  519MOL0     H68491   7.184   6.186   3.501  1.1330 -1.0426  0.5847
  519MOL0     H68492   6.807   6.262   3.622  1.9883  0.4523  1.2353
  519MOL0     H68493   6.575   6.350   3.586  0.5448  0.0985 -1.5577
  519MOL0     H68494   6.182   6.163   2.698 -0.3902  1.2189 -1.8361
  519MOL0     H68495   6.404   6.056   2.759  0.9901  0.2420  0.0821
  519MOL0     H68496   6.823   5.849   2.550  3.4835 -0.1215 -0.8545
  519MOL0     H68497   7.026   5.762   2.618 -0.6935 -1.6898  2.2233
  519MOL0     H68498   7.370   5.925   2.767  0.5944 -0.1003 -0.8751
  519MOL0     H68499   7.250   6.019   2.699 -1.7208 -0.5942 -0.7495
  519MOL0     H68500   7.219   5.861   2.525  1.4999 -2.0768 -0.7614
  519MOL0     H68501   7.402   5.880   2.550  2.3054 -3.0265 -0.3655
  519MOL0     H68502   7.235   5.640   2.653  0.4125 -1.3280 -2.1887
  519MOL0     H68503   7.399   5.684   2.705 -0.6371  1.7498  1.1727
  519MOL0     H68504   7.323   5.615   2.420  1.3998 -1.2092 -1.5041
  519MOL0     H68505   7.481   5.649   2.474  1.4372 -2.1855  0.0613
  519MOL0     H68506   7.477   5.262   2.611 -1.1015  1.6490  5.5767
  519MOL0     H68507   7.042   6.013   2.964 -1.0363 -3.5130  1.7549
  519MOL0     H68508   6.843   6.128   2.891 -0.5091  1.0255 -1.5038
  520MOL0     O68509   1.930   2.920   2.886  0.0868  0.0053 -0.2351
  520MOL0     C68510   1.906   2.834   2.812  0.0031  0.5019 -0.7943
  520MOL0     O68511   1.795   2.762   2.807  0.1363  1.2606  0.3355
  520MOL0     C68512   1.698   2.776   2.912  0.3493 -1.1495  0.0757
  520MOL0     C68513   1.573   2.740   2.872  0.4889  0.0440  0.2395
  520MOL0     C68514   1.455   2.744   2.964  0.1476 -0.5138  0.4419
  520MOL0     C68515   1.476   2.782   3.099  0.5593  0.3705 -0.1138
  520MOL0     O68516   1.369   2.748   3.183 -0.9322 -0.0276  0.1736
  520MOL0     C68517   1.365   2.808   3.315  0.2341  0.0984 -0.1652
  520MOL0     C68518   1.228   2.774   3.383 -0.3052  0.0702 -0.2625
  520MOL0     C68519   1.115   2.856   3.333 -0.2452 -0.2587  1.0963
  520MOL0     C68520   0.975   2.839   3.399 -0.0729 -0.5474  0.1451
  520MOL0     C68521   0.862   2.912   3.324 -0.3092  0.6986  0.3464
  520MOL0     C68522   0.728   2.893   3.386  0.5487  0.3347  0.1555
  520MOL0     C68523   0.611   2.918   3.298 -0.2991 -0.4864  0.4192
  520MOL0     C68524   0.475   2.916   3.365  0.6116  0.9726  0.2378
  520MOL0     N68525   0.444   2.782   3.417 -0.3095  0.5432 -0.4680
  520MOL0     C68526   0.461   2.717   3.539  0.0903 -0.1152 -0.0762
  520MOL0     C68527   0.411   2.594   3.503 -0.2324  0.0428  0.8226
  520MOL0     C68528   0.408   2.478   3.591  0.1105  0.3682 -0.7759
  520MOL0     C68529   0.285   2.464   3.689 -0.1741 -0.7745  0.8833
  520MOL0     C68530   0.224   2.323   3.687  0.3303  0.3773 -0.0104
  520MOL0     C68531   0.086   2.316   3.757 -0.6179  0.4932  0.0869
  520MOL0     O68532   0.087   2.351   3.890 -0.1485 -0.4406  0.2552
  520MOL0     C68533  -0.035   2.347   3.948 -0.2557  0.3860 -0.2169
  520MOL0     C68534  -0.166   2.341   3.889  0.7473 -0.6320  0.0302
  520MOL0     C68535  -0.279   2.330   3.967 -0.5458  0.7112  0.5360
  520MOL0     C68536  -0.263   2.324   4.101  0.4527  0.2048  1.1479
  520MOL0     C68537  -0.390   2.310   4.181  0.1863 -0.8994  0.3912
  520MOL0     O68538  -0.493   2.226   4.131 -0.4959  0.3266 -0.0709
  520MOL0     C68539  -0.612   2.232   4.196  0.5645 -0.1292 -0.1941
  520MOL0     C68540  -0.690   2.349   4.189 -0.7836  0.1514  0.4328
  520MOL0     C68541  -0.825   2.354   4.235  0.2196  0.7008 -1.1533
  520MOL0     C68542  -0.877   2.241   4.307 -0.8166  0.6130  0.2756
  520MOL0     O68543  -1.007   2.258   4.342  0.2352 -0.3733  0.7739
  520MOL0     C68544  -1.094   2.146   4.353  0.5534  1.1728 -0.0627
  520MOL0     C68545  -1.241   2.187   4.392 -1.0047  0.5093 -0.6721
  520MOL0     C68546  -1.288   2.307   4.314  0.2508  0.7612 -0.3573
  520MOL0     C68547  -1.423   2.353   4.354  0.2441 -1.0909 -0.0066
  520MOL0     C68548  -1.423   2.435   4.486  0.0795  0.2176  0.6117
  520MOL0     C68549  -1.566   2.495   4.528 -0.4964 -0.9267  0.3363
  520MOL0     C68550  -1.665   2.537   4.419  0.0151  0.9632 -0.5751
  520MOL0     C68551  -1.787   2.610   4.486 -0.1212 -0.7073 -0.0339
  520MOL0    Cl68552  -1.900   2.491   4.567 -0.4948  0.1645  0.2163
  520MOL0     C68553  -0.795   2.123   4.325  0.2829 -0.3330  0.6963
  520MOL0     C68554  -0.667   2.130   4.274 -0.1448  0.0760  0.3483
  520MOL0     O68555  -0.401   2.393   4.271  0.0123 -0.4405 -0.2283
  520MOL0     C68556  -0.138   2.340   4.165 -0.1075  0.7583  0.4052
  520MOL0     C68557  -0.023   2.346   4.088 -0.3709 -0.6397  0.9723
  520MOL0     N68558   0.369   2.586   3.366  0.0003  0.0478  0.1397
  520MOL0     N68559   0.399   2.700   3.318  0.5925  0.2356 -0.4850
  520MOL0     C68560   1.601   2.814   3.132 -1.4727  0.2408 -0.7495
  520MOL0     C68561   1.712   2.812   3.048  0.8153  0.3926  0.0140
  520MOL0     C68562   2.010   2.811   2.705 -0.1478  0.3041 -0.1675
  520MOL0     C68563   2.112   2.904   2.675 -0.1618  0.2490  0.2750
  520MOL0     C68564   2.215   2.875   2.583  0.4506  0.9868 -0.2705
  520MOL0     C68565   2.202   2.757   2.509 -0.9785  0.8987  0.2884
  520MOL0     O68566   2.291   2.706   2.417  0.0044 -0.4920 -0.0891
  520MOL0     C68567   2.405   2.795   2.394  0.4921 -0.6305  0.0957
  520MOL0     C68568   2.526   2.725   2.335  0.1415  0.3409  0.8598
  520MOL0     C68569   2.515   2.702   2.184 -0.1248 -0.5200  0.6818
  520MOL0     C68570   2.631   2.631   2.120  0.1441 -0.3673  0.2189
  520MOL0     C68571   2.759   2.695   2.167 -0.1503  0.0557 -0.3492
  520MOL0     C68572   2.856   2.755   2.203 -0.1058 -0.5827  0.5346
  520MOL0     C68573   2.093   2.674   2.528 -0.5688  0.5869 -0.0578
  520MOL0     C68574   1.998   2.700   2.623 -0.3499 -0.0833  0.5243
  520MOL0     H68575   1.573   2.718   2.765  4.1568  0.5212  0.0409
  520MOL0     H68576   1.355   2.719   2.932 -0.3667  2.5526 -0.6932
  520MOL0     H68577   1.367   2.918   3.310 -1.4602  0.2159  0.8151
  520MOL0     H68578   1.453   2.786   3.376 -1.1283 -0.5584  1.6358
  520MOL0     H68579   1.238   2.791   3.490  1.0697 -0.9257 -0.2058
  520MOL0     H68580   1.219   2.665   3.373  2.1312 -0.2765  0.5124
  520MOL0     H68581   1.097   2.839   3.226  1.2505 -0.1915  0.8138
  520MOL0     H68582   1.143   2.962   3.333 -1.6342  0.1786 -1.3684
  520MOL0     H68583   0.955   2.731   3.409 -3.7683  0.0491  0.7321
  520MOL0     H68584   0.970   2.890   3.495 -0.1235  0.6503 -0.4821
  520MOL0     H68585   0.852   2.875   3.222 -0.4483  2.6946 -0.3994
  520MOL0     H68586   0.883   3.017   3.344 -1.5049  0.9670  0.2409
  520MOL0     H68587   0.713   2.939   3.484  3.5021 -2.4680  2.1612
  520MOL0     H68588   0.726   2.785   3.403 -0.6633 -0.0224 -2.0044
  520MOL0     H68589   0.626   3.017   3.253  1.3206 -0.0448  1.8123
  520MOL0     H68590   0.627   2.846   3.217  4.1452 -1.4219  1.8331
  520MOL0     H68591   0.406   2.955   3.290  1.4659 -2.7409 -2.7749
  520MOL0     H68592   0.459   2.973   3.457 -0.7215  0.7996  0.1333
  520MOL0     H68593   0.490   2.749   3.639  1.1760 -0.1600 -0.3694
  520MOL0     H68594   0.486   2.491   3.666 -1.7780 -0.6855  1.4932
  520MOL0     H68595   0.426   2.382   3.541  2.5249  0.7614 -0.7668
  520MOL0     H68596   0.209   2.537   3.657  0.5562 -0.0861  0.7019
  520MOL0     H68597   0.317   2.498   3.787 -0.8384  0.1246  0.8064
  520MOL0     H68598   0.193   2.296   3.586 -2.0439 -0.1838  0.8045
  520MOL0     H68599   0.298   2.256   3.731 -0.1991 -1.2439 -1.4913
  520MOL0     H68600   0.043   2.218   3.735  0.1283  0.4015 -1.0771
  520MOL0     H68601   0.034   2.393   3.698  2.4370  0.4980 -2.9617
  520MOL0     H68602  -0.179   2.340   3.781 -0.0825 -1.4542  0.1219
  520MOL0     H68603  -0.377   2.337   3.920 -0.4720  0.3521  0.3251
  520MOL0     H68604  -0.655   2.441   4.142  3.0378 -0.4544  1.7759
  520MOL0     H68605  -0.874   2.450   4.224  0.5067  0.5940 -4.1897
  520MOL0     H68606  -1.041   2.083   4.425  1.1698  0.4321 -1.1383
  520MOL0     H68607  -1.102   2.087   4.261  0.2326 -0.5241  1.0087
  520MOL0     H68608  -1.278   2.201   4.494 -0.6446 -0.1820 -0.4432
  520MOL0     H68609  -1.304   2.104   4.358  0.3211  0.1563 -2.4036
  520MOL0     H68610  -1.285   2.275   4.210  2.0614 -2.8716  0.6398
  520MOL0     H68611  -1.224   2.394   4.333 -0.3480  0.9444  0.8828
  520MOL0     H68612  -1.460   2.424   4.280  2.6313  0.5450  0.2915
  520MOL0     H68613  -1.488   2.265   4.364 -0.2870 -0.8359 -1.0490
  520MOL0     H68614  -1.360   2.523   4.473  0.6151 -0.0385  1.3977
  520MOL0     H68615  -1.377   2.367   4.558 -1.2419 -0.1275  1.1713
  520MOL0     H68616  -1.536   2.583   4.586 -0.1795 -0.1053 -1.0176
  520MOL0     H68617  -1.618   2.421   4.589  0.0741 -1.0291  0.7072
  520MOL0     H68618  -1.610   2.603   4.352  1.8622  0.9900  0.8735
  520MOL0     H68619  -1.695   2.448   4.363 -0.4419  0.4851  0.4045
  520MOL0     H68620  -1.855   2.669   4.423 -0.8670  1.5026  2.6529
  520MOL0     H68621  -1.764   2.687   4.559 -3.2757  0.3850 -0.0318
  520MOL0     H68622  -0.832   2.042   4.386  2.1464 -1.2227  0.6925
  520MOL0     H68623  -0.611   2.038   4.284 -0.8583 -0.5018 -0.7016
  520MOL0     H68624  -0.127   2.337   4.273 -2.3274 -4.0004  0.7621
  520MOL0     H68625   0.071   2.329   4.139  0.1839  0.4686  0.3369
  520MOL0     H68626   1.624   2.835   3.236 -0.5634 -0.0662 -0.8794
  520MOL0     H68627   1.809   2.831   3.092  1.1043 -1.3802  0.2124
  520MOL0     H68628   2.124   2.988   2.743  1.4870  0.9825 -0.8677
  520MOL0     H68629   2.293   2.951   2.579 -0.0886  1.5171 -0.8966
  520MOL0     H68630   2.450   2.830   2.487 -0.1674  2.5175 -0.6617
  520MOL0     H68631   2.365   2.873   2.329 -1.0169 -1.7528 -0.4000
  520MOL0     H68632   2.614   2.787   2.356 -0.3111  0.2694  3.3076
  520MOL0     H68633   2.538   2.632   2.392  1.4656 -1.0541 -1.5621
  520MOL0     H68634   2.507   2.798   2.133 -2.7186 -1.4425 -0.8066
  520MOL0     H68635   2.413   2.664   2.172 -2.2628  4.2803  1.4137
  520MOL0     H68636   2.641   2.524   2.140 -1.8716 -0.6952 -0.2809
  520MOL0     H68637   2.614   2.637   2.012  1.5832 -1.1483 -0.0686
  520MOL0     H68638   2.941   2.804   2.247  2.7897 -2.3900 -2.5391
  520MOL0     H68639   2.095   2.584   2.468  3.5558 -0.4166  1.3143
  520MOL0     H68640   1.910   2.636   2.616 -0.7688  0.4547  0.8525
  521MOL0     O68641   5.638   0.752   2.748 -0.5700  0.4630  0.6186
  521MOL0     C68642   5.667   0.870   2.752  0.8277  0.9149 -0.6096
  521MOL0     O68643   5.586   0.971   2.722  0.4836  0.5051  0.3500
  521MOL0     C68644   5.451   0.937   2.706  0.1445 -0.8980 -0.2585
  521MOL0     C68645   5.395   0.950   2.581  0.2292  0.8373  0.6527
  521MOL0     C68646   5.260   0.947   2.551  0.2793  0.1597  0.5197
  521MOL0     C68647   5.175   0.923   2.656  0.4636 -0.8917 -0.0557
  521MOL0     O68648   5.039   0.922   2.624 -1.2814  0.7882 -0.6970
  521MOL0     C68649   4.951   0.925   2.738  0.1001 -0.5509 -1.4335
  521MOL0     C68650   4.813   0.941   2.682  0.1698  0.5797 -0.4325
  521MOL0     C68651   4.802   1.072   2.614 -0.1225 -0.2094  0.4129
  521MOL0     C68652   4.651   1.095   2.568 -0.0151 -0.4418 -0.2622
  521MOL0     C68653   4.646   1.231   2.491 -0.4901  0.0036 -0.7705
  521MOL0     C68654   4.567   1.228   2.363  0.5415 -0.1533  0.3372
  521MOL0     C68655   4.413   1.226   2.399  0.4151 -0.7259  1.3629
  521MOL0     C68656   4.306   1.188   2.283 -0.0949 -0.5822  0.1525
  521MOL0     N68657   4.174   1.193   2.347 -0.0592  0.0799  0.3090
  521MOL0     C68658   4.091   1.302   2.335  0.2592 -0.5260  0.9028
  521MOL0     C68659   3.970   1.252   2.362 -0.5401 -0.2681  0.4259
  521MOL0     C68660   3.839   1.323   2.347  0.2914 -0.4476 -0.6316
  521MOL0     C68661   3.745   1.283   2.452  0.3001  0.4187  0.4163
  521MOL0     C68662   3.621   1.365   2.451  0.5441  0.5514 -0.3193
  521MOL0     C68663   3.555   1.363   2.315 -1.1598 -0.4046 -0.3540
  521MOL0     O68664   3.420   1.404   2.341 -0.0242 -0.0497 -0.1718
  521MOL0     C68665   3.350   1.463   2.246 -0.5301 -0.4136  1.0659
  521MOL0     C68666   3.247   1.552   2.285 -0.2184  0.0617 -1.0262
  521MOL0     C68667   3.182   1.630   2.184  0.5640  0.3342  0.0746
  521MOL0     C68668   3.222   1.633   2.047  1.1429 -0.1272  0.0875
  521MOL0     C68669   3.165   1.719   1.937 -0.0652  0.1491 -0.5991
  521MOL0     O68670   3.079   1.815   1.983 -0.1073 -0.1129  0.3355
  521MOL0     C68671   2.987   1.878   1.899 -0.0236  0.5233  0.3273
  521MOL0     C68672   2.875   1.814   1.845  1.0121 -0.3343  0.3146
  521MOL0     C68673   2.795   1.878   1.746 -0.5021 -0.0037  0.1724
  521MOL0     C68674   2.839   1.993   1.692  0.1616 -0.1688  1.2668
  521MOL0     O68675   2.757   2.060   1.605  0.5214  0.1016 -0.6505
  521MOL0     C68676   2.809   2.154   1.510  0.4116  0.2363 -0.3295
  521MOL0     C68677   2.690   2.210   1.426 -0.5970  0.0468  0.2970
  521MOL0     C68678   2.599   2.107   1.368  0.4356  0.1546 -0.4624
  521MOL0     C68679   2.482   2.170   1.285 -0.1902 -0.0886 -0.4256
  521MOL0     C68680   2.391   2.069   1.226  0.0922  0.4186  0.4596
  521MOL0     C68681   2.255   2.108   1.190 -0.5096 -0.3008 -0.0030
  521MOL0     C68682   2.155   2.116   1.306 -0.2311  0.4656 -1.2263
  521MOL0     C68683   2.030   2.183   1.259 -0.2002 -0.4595 -1.3682
  521MOL0    Cl68684   1.949   2.074   1.145  0.0232  0.0560 -0.0623
  521MOL0     C68685   2.955   2.045   1.738  0.3070 -0.2217 -0.5187
  521MOL0     C68686   3.021   1.995   1.850 -0.2401 -0.3983 -0.3378
  521MOL0     O68687   3.178   1.670   1.823  0.9184 -0.0417 -0.4861
  521MOL0     C68688   3.330   1.538   2.011 -0.4994  0.9207 -0.1504
  521MOL0     C68689   3.390   1.460   2.107  0.1684  0.1095 -0.9321
  521MOL0     N68690   3.988   1.123   2.407  0.6658  0.2533 -0.3661
  521MOL0     N68691   4.105   1.095   2.386 -0.3780  0.0156  0.8821
  521MOL0     C68692   5.226   0.919   2.788 -0.5535 -0.5255 -0.4417
  521MOL0     C68693   5.360   0.928   2.809 -0.5082 -0.2096 -0.4238
  521MOL0     C68694   5.804   0.899   2.792  0.1431 -0.8027  0.0018
  521MOL0     C68695   5.908   0.800   2.791 -0.0200 -0.5266 -0.1973
  521MOL0     C68696   6.035   0.837   2.825 -0.3798  0.6300 -0.6685
  521MOL0     C68697   6.070   0.968   2.857 -0.4792  0.4359 -0.0360
  521MOL0     O68698   6.197   1.000   2.892  0.0352 -0.6857 -0.2330
  521MOL0     C68699   6.232   1.089   2.999  0.4411  0.4743  0.4527
  521MOL0     C68700   6.356   1.036   3.070  0.2535 -0.1282  0.3614
  521MOL0     C68701   6.395   1.133   3.186 -1.0144 -0.3583 -0.4586
  521MOL0     C68702   6.457   1.061   3.304  0.4362 -0.6374  0.8363
  521MOL0     C68703   6.348   1.023   3.396  0.2475 -0.3224  0.4637
  521MOL0     C68704   6.253   1.016   3.476  0.0122 -0.0779 -0.1974
  521MOL0     C68705   5.975   1.067   2.861 -0.2841  0.1320  0.2055
  521MOL0     C68706   5.840   1.031   2.834  0.0665 -0.3672 -0.0812
  521MOL0     H68707   5.464   0.970   2.499  0.1428  0.2113  0.4263
  521MOL0     H68708   5.231   0.944   2.446 -1.7615  0.2256  1.0474
  521MOL0     H68709   4.973   1.019   2.791 -1.2268 -0.4585 -1.0140
  521MOL0     H68710   4.961   0.835   2.798  1.1741 -0.2546 -1.1391
  521MOL0     H68711   4.734   0.938   2.757  0.3800  0.9861 -0.1927
  521MOL0     H68712   4.788   0.859   2.614  1.6652 -0.0982 -0.2115
  521MOL0     H68713   4.864   1.081   2.523 -1.6896  0.1549 -0.6646
  521MOL0     H68714   4.836   1.152   2.681  0.1667  0.8907 -0.9716
  521MOL0     H68715   4.615   1.017   2.501 -0.1835  0.4620 -1.2580
  521MOL0     H68716   4.582   1.095   2.653  0.1211 -2.6763 -0.0983
  521MOL0     H68717   4.745   1.265   2.461 -1.1365  1.6332 -1.1785
  521MOL0     H68718   4.619   1.311   2.561  1.5278  1.4362 -1.5397
  521MOL0     H68719   4.593   1.138   2.307 -0.5033 -2.1412  2.8391
  521MOL0     H68720   4.600   1.311   2.299 -0.1989 -0.4886 -0.4980
  521MOL0     H68721   4.383   1.154   2.476 -2.6889  0.8541  1.8023
  521MOL0     H68722   4.397   1.329   2.431 -2.1607 -1.0310  1.3377
  521MOL0     H68723   4.325   1.086   2.249 -1.6759 -1.0983  0.7430
  521MOL0     H68724   4.323   1.254   2.198  2.7792 -1.8712 -0.3928
  521MOL0     H68725   4.109   1.406   2.309 -1.4390  0.1578  2.2651
  521MOL0     H68726   3.796   1.304   2.249  2.9331  0.7182 -2.1302
  521MOL0     H68727   3.857   1.431   2.349  0.5795 -0.4631  1.9897
  521MOL0     H68728   3.791   1.263   2.549 -2.3053 -1.5461  1.3695
  521MOL0     H68729   3.719   1.180   2.424 -3.1776  1.1922  0.4289
  521MOL0     H68730   3.565   1.309   2.527  1.7424  0.5677  0.6076
  521MOL0     H68731   3.645   1.468   2.479  1.1346  0.1279  0.8213
  521MOL0     H68732   3.558   1.260   2.278  0.8091 -0.4701 -0.1311
  521MOL0     H68733   3.605   1.435   2.249 -1.2598  0.7702  0.8263
  521MOL0     H68734   3.214   1.538   2.388  0.4978 -1.4623 -0.9675
  521MOL0     H68735   3.093   1.688   2.205  0.8106 -0.0033  2.2651
  521MOL0     H68736   2.837   1.725   1.892 -1.9019  0.6734  0.1018
  521MOL0     H68737   2.703   1.839   1.706 -1.2853  2.0955 -0.1889
  521MOL0     H68738   2.863   2.095   1.435 -0.8663  0.1416 -1.1996
  521MOL0     H68739   2.862   2.234   1.563  0.3975 -0.5643  0.9374
  521MOL0     H68740   2.726   2.278   1.348 -3.5875  4.1833  2.1397
  521MOL0     H68741   2.634   2.270   1.498 -2.5678  0.6203 -1.5851
  521MOL0     H68742   2.543   2.053   1.445 -0.8735  0.6351 -1.0476
  521MOL0     H68743   2.668   2.043   1.312  0.7254  1.2709 -1.4215
  521MOL0     H68744   2.424   2.246   1.339 -0.3730 -0.2702 -0.3649
  521MOL0     H68745   2.533   2.219   1.202  0.0597 -1.5342 -1.1445
  521MOL0     H68746   2.384   1.982   1.292 -1.0308  0.2366  0.1193
  521MOL0     H68747   2.422   2.042   1.124 -0.3982  1.3616  0.0540
  521MOL0     H68748   2.218   2.042   1.111 -2.2756  2.4866 -1.6897
  521MOL0     H68749   2.255   2.198   1.127 -1.7574  0.5651  1.1630
  521MOL0     H68750   2.140   2.012   1.338  0.8186  0.3895 -0.9463
  521MOL0     H68751   2.196   2.165   1.395 -1.0697 -0.9561  0.0004
  521MOL0     H68752   2.038   2.283   1.217 -1.0900 -0.0127 -0.5303
  521MOL0     H68753   1.965   2.188   1.347  0.2117 -0.5765 -1.0561
  521MOL0     H68754   2.998   2.133   1.692 -1.8784  1.2430  0.1419
  521MOL0     H68755   3.115   2.040   1.882 -0.0853 -1.4779  0.8310
  521MOL0     H68756   3.377   1.515   1.916  1.3595 -0.8600  1.1184
  521MOL0     H68757   3.455   1.378   2.079 -1.1851 -0.8319 -1.4007
  521MOL0     H68758   5.161   0.909   2.875  1.4292 -1.8576  0.9865
  521MOL0     H68759   5.404   0.930   2.908 -0.4538  1.6212 -0.4580
  521MOL0     H68760   5.884   0.694   2.782 -0.8221 -0.3353 -0.4659
  521MOL0     H68761   6.102   0.752   2.816 -1.0611  0.0904 -0.7920
  521MOL0     H68762   6.152   1.101   3.072  1.0408  1.9592  0.9073
  521MOL0     H68763   6.250   1.194   2.973 -1.6339  0.9658  0.8092
  521MOL0     H68764   6.334   0.936   3.108  1.2692 -0.1968  0.8016
  521MOL0     H68765   6.451   1.030   3.016  1.6720 -1.9633  2.9068
  521MOL0     H68766   6.307   1.190   3.217 -1.7342  0.4485 -3.6376
  521MOL0     H68767   6.471   1.201   3.147  2.6110 -2.5974  2.0727
  521MOL0     H68768   6.514   0.978   3.261  1.5997 -0.1741  1.4513
  521MOL0     H68769   6.515   1.135   3.360 -0.8709  0.6761  0.5180
  521MOL0     H68770   6.171   1.016   3.545  0.0321 -2.0825 -0.1360
  521MOL0     H68771   6.016   1.166   2.877  1.5562 -0.5469 -0.0724
  521MOL0     H68772   5.768   1.111   2.828 -0.7903 -0.7567  3.3085
  522MOL0     O68773   1.903   7.109  10.950  0.7053 -0.4573 -0.1236
  522MOL0     C68774   1.911   7.170  11.054  0.0464 -0.8090 -0.0748
  522MOL0     O68775   1.801   7.216  11.123 -0.3940 -0.0287  0.4820
  522MOL0     C68776   1.675   7.156  11.112  1.0939  0.5711  0.1969
  522MOL0     C68777   1.569   7.229  11.168  0.5973  0.1230 -0.2705
  522MOL0     C68778   1.435   7.175  11.172  0.2190 -0.3037 -0.5679
  522MOL0     C68779   1.406   7.052  11.112 -0.3132 -0.4707 -0.5882
  522MOL0     O68780   1.282   7.004  11.115  0.3319 -0.3357  0.7391
  522MOL0     C68781   1.232   6.878  11.068  1.1694 -0.5516 -0.1834
  522MOL0     C68782   1.072   6.893  11.039 -0.9594  0.0227  0.3110
  522MOL0     C68783   1.010   6.762  11.017 -0.5923  0.5709  0.3090
  522MOL0     C68784   0.864   6.771  10.951 -1.0998 -0.0089 -0.1869
  522MOL0     C68785   0.796   6.634  10.947  0.1721  0.3675  0.0806
  522MOL0     C68786   0.651   6.655  10.915 -0.1551 -0.4483 -1.0108
  522MOL0     C68787   0.588   6.528  10.890  0.0945  0.4346  0.5256
  522MOL0     C68788   0.442   6.562  10.842  0.0106  0.7428  0.3153
  522MOL0     N68789   0.413   6.607  10.702  0.1316  0.7818  0.7005
  522MOL0     C68790   0.500   6.588  10.601  0.1734 -0.3398 -0.0234
  522MOL0     C68791   0.448   6.643  10.496  1.0140  0.3192 -0.2189
  522MOL0     C68792   0.515   6.658  10.357 -0.2193 -0.4696 -0.2558
  522MOL0     C68793   0.545   6.525  10.288 -0.2898  0.4858  0.3317
  522MOL0     C68794   0.613   6.528  10.149  0.3319 -0.0648  0.2069
  522MOL0     C68795   0.746   6.606  10.177 -0.1163 -0.0235  0.1113
  522MOL0     O68796   0.837   6.610  10.065 -0.7886  0.5530 -0.0215
  522MOL0     C68797   0.941   6.694  10.074 -0.5693 -0.0102  0.7680
  522MOL0     C68798   1.025   6.679   9.968 -0.7229  0.5783 -0.1197
  522MOL0     C68799   1.146   6.755   9.963  0.0606 -0.5082 -0.0686
  522MOL0     C68800   1.183   6.845  10.066  1.0935 -0.0113  0.5337
  522MOL0     C68801   1.306   6.929  10.061 -0.1284  0.2963  0.1954
  522MOL0     O68802   1.375   6.915   9.941 -0.7649  0.0950 -0.5474
  522MOL0     C68803   1.495   6.975   9.961  0.9074  1.0686  0.3477
  522MOL0     C68804   1.533   7.076   9.876 -0.9538 -0.3056 -0.5275
  522MOL0     C68805   1.658   7.148   9.883  0.6738  0.1081  0.1081
  522MOL0     C68806   1.754   7.105   9.979 -0.2480  0.0316  0.0927
  522MOL0     O68807   1.879   7.159   9.997  0.5547 -0.2475 -0.5079
  522MOL0     C68808   1.920   7.284   9.935  0.7372  0.3077  0.0676
  522MOL0     C68809   1.857   7.394  10.018 -0.2529  0.6146 -1.4615
  522MOL0     C68810   1.873   7.533   9.960  0.2623  0.2791  0.9347
  522MOL0     C68811   2.022   7.573   9.942  0.4057 -0.6804 -0.5466
  522MOL0     C68812   2.043   7.715   9.893  1.1565 -0.7402  0.6560
  522MOL0     C68813   2.024   7.811  10.005 -0.1935 -0.4883 -0.3976
  522MOL0     C68814   2.069   7.949   9.965  0.7042 -0.8375  0.0614
  522MOL0     C68815   1.999   8.015   9.846 -0.3698  0.5683  1.2271
  522MOL0    Cl68816   2.059   8.195   9.828  0.0297 -0.2242 -0.0443
  522MOL0     C68817   1.713   7.003  10.064 -1.0315 -1.2358  0.5337
  522MOL0     C68818   1.592   6.940  10.058 -0.9161  0.8603  0.3378
  522MOL0     O68819   1.323   7.002  10.158  0.1875  0.2147  0.0909
  522MOL0     C68820   1.097   6.850  10.175  0.7212 -0.6133 -0.2461
  522MOL0     C68821   0.988   6.770  10.180  0.3180 -1.1614  0.2842
  522MOL0     N68822   0.321   6.687  10.542 -0.2884 -0.4745  0.7109
  522MOL0     N68823   0.290   6.652  10.662 -0.0897 -0.7161  0.3608
  522MOL0     C68824   1.507   6.978  11.061 -0.1423 -0.5704 -0.3338
  522MOL0     C68825   1.640   7.022  11.066 -1.0280 -0.0371 -0.1641
  522MOL0     C68826   2.039   7.199  11.122 -0.6820  0.5839  0.4825
  522MOL0     C68827   2.155   7.207  11.049  0.3029  0.7269 -0.6971
  522MOL0     C68828   2.272   7.244  11.117 -0.1577 -0.1097 -0.3210
  522MOL0     C68829   2.282   7.252  11.254 -0.5866 -0.4742 -0.7334
  522MOL0     O68830   2.401   7.287  11.324  0.3479 -0.0340 -0.0673
  522MOL0     C68831   2.403   7.303  11.465 -0.4725 -0.2288 -0.1767
  522MOL0     C68832   2.530   7.383  11.508 -0.2360 -0.1477 -0.0765
  522MOL0     C68833   2.664   7.319  11.470  0.3774  0.4894 -0.0165
  522MOL0     C68834   2.785   7.386  11.549 -1.0855 -0.6467  1.0202
  522MOL0     C68835   2.906   7.319  11.487  0.7945  0.4236 -0.0229
  522MOL0     C68836   3.020   7.285  11.460 -0.2921 -0.1283  0.0652
  522MOL0     C68837   2.166   7.225  11.332 -0.5177  0.1809 -1.0380
  522MOL0     C68838   2.044   7.207  11.265  0.4374  0.0752 -0.5362
  522MOL0     H68839   1.595   7.326  11.209 -0.1194  1.0779 -1.9700
  522MOL0     H68840   1.352   7.235  11.208  0.4526  1.0139 -2.1210
  522MOL0     H68841   1.269   6.808  11.143  1.2103 -1.1785 -0.7853
  522MOL0     H68842   1.283   6.841  10.978 -0.1531  1.5501 -1.8952
  522MOL0     H68843   1.067   6.955  10.948  2.5512  0.7626  0.4581
  522MOL0     H68844   1.023   6.948  11.120 -2.3197 -1.9608  0.9160
  522MOL0     H68845   1.001   6.717  11.116 -2.9507 -1.4123 -0.6918
  522MOL0     H68846   1.080   6.701  10.958 -0.7683 -3.3156  3.6806
  522MOL0     H68847   0.814   6.840  11.019  1.4234 -0.0124  1.8351
  522MOL0     H68848   0.873   6.800  10.845  3.5198 -0.0173 -0.0074
  522MOL0     H68849   0.794   6.600  11.051 -6.2218  3.4889  1.4733
  522MOL0     H68850   0.848   6.562  10.882  3.1736  0.9415  1.6543
  522MOL0     H68851   0.636   6.720  10.828  2.6077  2.8638  0.7267
  522MOL0     H68852   0.618   6.704  11.007  0.1192 -1.5571 -0.3045
  522MOL0     H68853   0.636   6.453  10.826 -1.3217 -1.7820  1.9161
  522MOL0     H68854   0.589   6.482  10.989 -0.1562  2.0809  1.3276
  522MOL0     H68855   0.387   6.636  10.902 -4.1968 -0.3560 -1.8007
  522MOL0     H68856   0.389   6.467  10.854  4.4268 -1.8813  1.3065
  522MOL0     H68857   0.597   6.538  10.601  0.9725  0.8151 -4.1652
  522MOL0     H68858   0.606   6.716  10.374  0.7845 -1.4366 -2.1115
  522MOL0     H68859   0.457   6.716  10.285 -1.5062 -0.8218  0.4650
  522MOL0     H68860   0.453   6.468  10.271  0.2672 -0.0018 -1.2820
  522MOL0     H68861   0.601   6.460  10.356  1.1156  0.5801 -0.6868
  522MOL0     H68862   0.631   6.425  10.117  2.5409  0.9443 -2.1897
  522MOL0     H68863   0.549   6.567  10.070 -0.0502  1.7086  1.3471
  522MOL0     H68864   0.793   6.561  10.265 -2.5867 -2.4062  0.3572
  522MOL0     H68865   0.709   6.707  10.196  0.3285  0.5616 -1.8856
  522MOL0     H68866   1.001   6.611   9.888  2.0230 -0.1377 -0.4473
  522MOL0     H68867   1.204   6.744   9.872 -0.2059  2.2288 -0.6431
  522MOL0     H68868   1.463   7.098   9.797 -1.4687  0.4478  0.1196
  522MOL0     H68869   1.685   7.221   9.808  0.2845 -1.2935 -1.4618
  522MOL0     H68870   1.893   7.294   9.830 -1.0881  0.0282  0.4688
  522MOL0     H68871   2.027   7.298   9.948  0.8424 -0.7582  0.5418
  522MOL0     H68872   1.915   7.387  10.111  2.8253  1.7184 -3.1483
  522MOL0     H68873   1.757   7.359  10.043  0.7122  0.1073  2.3267
  522MOL0     H68874   1.818   7.606  10.021 -2.4678 -2.0794  1.5224
  522MOL0     H68875   1.822   7.538   9.864  0.3403  0.2255  0.8904
  522MOL0     H68876   2.081   7.549  10.031  0.7525  1.5258 -0.1411
  522MOL0     H68877   2.048   7.512   9.856 -1.6752  1.1991 -2.6393
  522MOL0     H68878   1.970   7.744   9.817  0.4160  0.6006  1.8028
  522MOL0     H68879   2.148   7.718   9.864  0.6207  3.2524 -1.5680
  522MOL0     H68880   2.087   7.783  10.090  0.9534  0.5174 -0.9005
  522MOL0     H68881   1.921   7.816  10.044 -0.7796 -3.5383 -1.2932
  522MOL0     H68882   2.063   8.008  10.057 -2.5491  1.6727 -1.5586
  522MOL0     H68883   2.178   7.950   9.955  0.5764  3.1277 -3.0898
  522MOL0     H68884   1.894   8.019   9.878 -1.5431  2.0765 -2.2617
  522MOL0     H68885   2.007   7.956   9.754 -1.8001  0.0274  1.4179
  522MOL0     H68886   1.790   6.976  10.135  0.9061  1.7183 -0.3007
  522MOL0     H68887   1.568   6.862  10.129 -2.8835  1.5684  0.5231
  522MOL0     H68888   1.125   6.911  10.260 -0.7382  1.2079 -0.9781
  522MOL0     H68889   0.925   6.772  10.269 -2.5252  3.0378 -1.4968
  522MOL0     H68890   1.513   6.881  11.012  2.7661  0.3800 -2.1286
  522MOL0     H68891   1.717   6.954  11.030 -1.5228 -0.7236  0.0472
  522MOL0     H68892   2.146   7.201  10.941 -0.1970 -2.6251 -0.5938
  522MOL0     H68893   2.367   7.257  11.067  0.0536 -0.2255  0.0517
  522MOL0     H68894   2.401   7.205  11.515 -1.8529 -1.0045 -1.6518
  522MOL0     H68895   2.315   7.357  11.501 -2.2543 -1.7824 -1.9656
  522MOL0     H68896   2.530   7.480  11.459  0.4296  0.0972  0.3944
  522MOL0     H68897   2.527   7.407  11.615  0.0475  2.3833 -0.5934
  522MOL0     H68898   2.683   7.312  11.362  0.3584  0.9020 -0.0476
  522MOL0     H68899   2.671   7.213  11.497 -3.0761 -0.7834 -3.3460
  522MOL0     H68900   2.797   7.491  11.517 -0.6565 -0.6787  1.0746
  522MOL0     H68901   2.784   7.379  11.658 -2.5067 -0.8668  1.0129
  522MOL0     H68902   3.110   7.241  11.423 -2.1998 -3.1596 -1.2893
  522MOL0     H68903   2.176   7.211  11.439 -0.5372  0.8133 -0.9516
  522MOL0     H68904   1.949   7.204  11.317  0.7120 -2.1864 -0.0535
  523MOL0     O68905   9.501   8.271   7.713 -0.0752 -0.3581 -0.1453
  523MOL0     C68906   9.544   8.194   7.622 -0.4433 -0.3949 -0.6444
  523MOL0     O68907   9.515   8.209   7.491  0.2514 -0.3162  0.4661
  523MOL0     C68908   9.441   8.307   7.432 -0.3003  0.0039  0.1281
  523MOL0     C68909   9.335   8.378   7.494 -0.7529 -0.3260 -0.2001
  523MOL0     C68910   9.281   8.488   7.422 -0.3081  0.3193  0.4064
  523MOL0     C68911   9.301   8.512   7.291 -0.2340  0.0555  0.2386
  523MOL0     O68912   9.235   8.618   7.236  0.3431 -0.6521 -0.2709
  523MOL0     C68913   9.262   8.688   7.117 -0.0899 -0.1582 -1.0768
  523MOL0     C68914   9.163   8.791   7.090  0.5105 -0.0721  0.4406
  523MOL0     C68915   9.199   8.850   6.956  1.0671 -0.1932  0.2807
  523MOL0     C68916   9.119   8.976   6.923  0.9470 -0.3631 -0.4978
  523MOL0     C68917   9.188   9.057   6.826 -0.2810 -0.0043 -0.0746
  523MOL0     C68918   9.132   9.197   6.797 -0.1659 -0.2096 -0.7656
  523MOL0     C68919   8.995   9.200   6.742 -1.1544  0.1418 -0.1303
  523MOL0     C68920   8.952   9.331   6.684  0.4597  0.6376 -0.3770
  523MOL0     N68921   8.964   9.450   6.772 -0.1349  0.3934 -0.1931
  523MOL0     C68922   8.900   9.473   6.893  0.3478  0.2746  1.0211
  523MOL0     C68923   8.944   9.594   6.929 -0.3036 -0.3217  0.0496
  523MOL0     C68924   8.893   9.672   7.049 -0.0237  0.1930  0.2599
  523MOL0     C68925   8.785   9.781   7.013 -0.3492 -0.0084 -0.8018
  523MOL0     C68926   8.647   9.725   6.985 -0.1455 -1.5280 -0.3697
  523MOL0     C68927   8.546   9.727   7.101 -0.9564  0.3230  0.2787
  523MOL0     O68928   8.576   9.629   7.205 -0.0081  0.0040  0.0852
  523MOL0     C68929   8.507   9.655   7.320 -0.1205 -0.0956  0.1252
  523MOL0     C68930   8.387   9.733   7.321 -0.4931  0.8563 -0.5602
  523MOL0     C68931   8.341   9.780   7.448 -0.2818 -0.0653  0.0051
  523MOL0     C68932   8.395   9.739   7.570 -0.3596  0.3146 -0.1768
  523MOL0     C68933   8.336   9.771   7.696 -0.5237 -1.1796 -0.1251
  523MOL0     O68934   8.385   9.712   7.816  0.4940  0.5241  1.0051
  523MOL0     C68935   8.295   9.711   7.923  0.2814 -0.3406 -0.9542
  523MOL0     C68936   8.155   9.680   7.905 -0.0369 -0.7284  0.4494
  523MOL0     C68937   8.068   9.689   8.022  0.2979 -0.0085  0.6347
  523MOL0     C68938   8.120   9.709   8.149  0.1200 -0.4411 -0.6429
  523MOL0     O68939   8.050   9.694   8.268 -0.3422 -0.1982  0.0649
  523MOL0     C68940   7.905   9.690   8.273 -0.5183 -0.1491  0.1663
  523MOL0     C68941   7.872   9.702   8.423 -0.0470 -0.8797  0.0001
  523MOL0     C68942   7.909   9.579   8.500 -1.4723  0.3000 -0.7446
  523MOL0     C68943   7.978   9.602   8.641 -0.9865 -0.4504 -0.3870
  523MOL0     C68944   8.075   9.486   8.680 -0.3696 -0.7394  0.0677
  523MOL0     C68945   8.021   9.350   8.724 -0.0260  0.3821 -0.2246
  523MOL0     C68946   8.125   9.274   8.796 -1.1045 -0.6924 -0.1507
  523MOL0     C68947   8.074   9.135   8.807 -0.1111 -0.6363 -0.0632
  523MOL0    Cl68948   8.173   9.051   8.931  0.1906  0.0798  0.0038
  523MOL0     C68949   8.258   9.734   8.162  0.2510  0.4183 -0.2997
  523MOL0     C68950   8.343   9.738   8.047  0.4150  0.1901 -0.5978
  523MOL0     O68951   8.242   9.856   7.689 -0.7186 -0.1246  0.0554
  523MOL0     C68952   8.509   9.655   7.566  0.2168 -0.8053  0.3663
  523MOL0     C68953   8.562   9.611   7.441  0.4844 -0.2697  1.1314
  523MOL0     N68954   9.039   9.645   6.836 -0.2764 -0.4034  0.6666
  523MOL0     N68955   9.039   9.559   6.742 -0.3645  0.8652  0.1891
  523MOL0     C68956   9.382   8.421   7.220 -0.7184 -0.1068  0.2496
  523MOL0     C68957   9.457   8.322   7.292  0.4462 -0.6222 -0.8949
  523MOL0     C68958   9.635   8.083   7.673  0.4014  0.1917 -0.3275
  523MOL0     C68959   9.706   7.995   7.590  0.2500 -0.1041 -0.3389
  523MOL0     C68960   9.784   7.896   7.640 -0.2929 -0.7982  0.1326
  523MOL0     C68961   9.781   7.869   7.777  0.1723  0.5103  0.2291
  523MOL0     O68962   9.855   7.777   7.838 -0.2876  0.3840  0.6228
  523MOL0     C68963   9.972   7.718   7.766 -0.2505  0.5717 -0.0234
  523MOL0     C68964  10.027   7.602   7.849  0.2895  0.7858 -0.1930
  523MOL0     C68965   9.980   7.464   7.808  0.5537 -0.3523  0.0161
  523MOL0     C68966   9.827   7.440   7.798 -0.1446  0.1869 -0.3554
  523MOL0     C68967   9.770   7.442   7.932  0.5202  0.5186 -0.0221
  523MOL0     C68968   9.726   7.430   8.044  1.0327 -0.2797  0.0472
  523MOL0     C68969   9.709   7.941   7.863  0.4220  0.1326 -0.0283
  523MOL0     C68970   9.631   8.047   7.810  0.1429 -0.4190 -0.1879
  523MOL0     H68971   9.314   8.362   7.599 -1.4731  3.5076  0.3849
  523MOL0     H68972   9.215   8.558   7.472 -1.4221  0.5594 -1.3025
  523MOL0     H68973   9.235   8.617   7.039 -2.5135 -2.9254  2.0084
  523MOL0     H68974   9.365   8.725   7.108  0.2194 -0.2396  1.3009
  523MOL0     H68975   9.165   8.874   7.161 -5.6284  3.7227 -2.9810
  523MOL0     H68976   9.066   8.741   7.090  0.6851 -0.4451 -0.9645
  523MOL0     H68977   9.179   8.774   6.881 -2.4467  0.7763  0.0568
  523MOL0     H68978   9.304   8.881   6.955  0.1343  3.5309 -1.2240
  523MOL0     H68979   9.028   8.941   6.874  0.3507 -1.8639  1.5130
  523MOL0     H68980   9.086   9.042   7.004  4.4917  1.4427 -0.2893
  523MOL0     H68981   9.206   8.996   6.737 -0.4995 -0.8956  0.4781
  523MOL0     H68982   9.287   9.071   6.868 -1.6364  2.6119  2.5867
  523MOL0     H68983   9.193   9.256   6.728  0.0415  1.7754  1.0147
  523MOL0     H68984   9.141   9.257   6.887 -0.1217 -0.1753 -0.7922
  523MOL0     H68985   8.986   9.133   6.657 -0.0072  1.8427 -1.6563
  523MOL0     H68986   8.918   9.180   6.818 -2.4062  0.9342 -1.1561
  523MOL0     H68987   8.845   9.330   6.660  0.8257 -2.5554 -2.4040
  523MOL0     H68988   9.016   9.355   6.599  0.1318 -0.2819 -0.8918
  523MOL0     H68989   8.814   9.426   6.939 -0.5450 -0.2795 -1.0597
  523MOL0     H68990   8.978   9.728   7.088 -1.5749  1.0005  2.7265
  523MOL0     H68991   8.866   9.605   7.132  1.9859  0.2326  0.9987
  523MOL0     H68992   8.818   9.828   6.920 -1.0156  0.9009 -0.5990
  523MOL0     H68993   8.782   9.856   7.093  3.6017  0.4154 -0.8393
  523MOL0     H68994   8.615   9.797   6.909 -0.5746  0.9657  2.0605
  523MOL0     H68995   8.634   9.625   6.943  0.8497 -2.4101  1.3188
  523MOL0     H68996   8.442   9.710   7.070 -1.5099  1.6675  1.3244
  523MOL0     H68997   8.546   9.827   7.145  1.2686  1.1489 -1.4438
  523MOL0     H68998   8.338   9.765   7.230 -0.9611  5.0386  0.9486
  523MOL0     H68999   8.250   9.838   7.446 -0.9819 -1.1196 -2.3918
  523MOL0     H69000   8.110   9.663   7.808 -0.9661  2.0823  0.3043
  523MOL0     H69001   7.962   9.667   8.019  0.6004 -1.7583  1.3542
  523MOL0     H69002   7.856   9.610   8.217 -1.6423  2.3889 -2.7535
  523MOL0     H69003   7.859   9.779   8.232  0.7887  0.0457 -0.9411
  523MOL0     H69004   7.769   9.736   8.436  0.7875  2.3315 -0.7749
  523MOL0     H69005   7.930   9.789   8.455  1.9408 -1.0808 -2.6791
  523MOL0     H69006   7.975   9.517   8.439 -4.1677  0.7338 -4.4362
  523MOL0     H69007   7.818   9.523   8.520 -0.9394  0.2151  1.9251
  523MOL0     H69008   8.038   9.694   8.642 -2.8562  0.9009  2.1102
  523MOL0     H69009   7.898   9.616   8.715  0.0915 -2.3654  1.2415
  523MOL0     H69010   8.129   9.528   8.766  0.9814 -0.2688 -0.9852
  523MOL0     H69011   8.141   9.460   8.597  0.8831 -0.0814  0.8338
  523MOL0     H69012   8.009   9.316   8.620  0.7295  1.6912 -0.7665
  523MOL0     H69013   7.930   9.357   8.785 -0.0019  0.1869 -0.1660
  523MOL0     H69014   8.218   9.283   8.740 -2.4507 -0.2701 -2.4408
  523MOL0     H69015   8.136   9.322   8.893 -0.7155 -0.6748 -0.2001
  523MOL0     H69016   8.079   9.089   8.708  1.5224 -2.6693  0.8675
  523MOL0     H69017   7.972   9.138   8.847 -0.3166  0.7388 -0.6335
  523MOL0     H69018   8.301   9.732   8.261 -1.2794  4.3241  0.6136
  523MOL0     H69019   8.449   9.756   8.056  0.1523  1.1907  0.9327
  523MOL0     H69020   8.562   9.627   7.657  1.4725 -0.4424 -0.2360
  523MOL0     H69021   8.648   9.545   7.426 -1.0729 -2.1795  0.1372
  523MOL0     H69022   9.388   8.419   7.112 -0.8787 -1.4132  0.2530
  523MOL0     H69023   9.526   8.252   7.245  2.0910  0.1368  0.3054
  523MOL0     H69024   9.712   8.003   7.482 -3.1316 -0.5482 -0.6558
  523MOL0     H69025   9.838   7.839   7.565  0.8545  2.8241 -2.0609
  523MOL0     H69026  10.054   7.790   7.757  0.1988 -0.1697 -2.6183
  523MOL0     H69027   9.942   7.677   7.670 -0.8031 -0.4281  0.5596
  523MOL0     H69028  10.135   7.593   7.836  0.6797  2.3011  1.5807
  523MOL0     H69029  10.009   7.629   7.954  3.4733  0.1308  0.6326
  523MOL0     H69030  10.016   7.383   7.872 -0.5671 -0.6084  0.3441
  523MOL0     H69031  10.025   7.446   7.710 -0.1874  3.2190 -1.1364
  523MOL0     H69032   9.773   7.514   7.739  1.2234 -0.4289 -2.4732
  523MOL0     H69033   9.814   7.345   7.745  2.5530 -0.9373  0.8393
  523MOL0     H69034   9.680   7.421   8.140 -0.1022 -2.6101 -0.6539
  523MOL0     H69035   9.702   7.916   7.968  1.2092  2.7260  0.7223
  523MOL0     H69036   9.585   8.116   7.880  0.1567 -0.7191  0.1209
  524MOL0     O69037   7.672   7.726   7.795  0.2939 -0.0221  0.4222
  524MOL0     C69038   7.637   7.681   7.899 -0.4300  0.2168 -0.6064
  524MOL0     O69039   7.540   7.715   7.977  0.9163 -1.0643  0.5627
  524MOL0     C69040   7.442   7.804   7.935 -0.1301 -0.1171  0.7975
  524MOL0     C69041   7.377   7.799   7.813  0.0417  0.3867  0.4705
  524MOL0     C69042   7.275   7.892   7.775  1.0789 -0.6378  0.0160
  524MOL0     C69043   7.231   7.986   7.866  0.5759 -0.4179  0.0128
  524MOL0     O69044   7.126   8.063   7.841 -0.0859 -0.5493 -0.1724
  524MOL0     C69045   7.005   8.034   7.905  0.1471 -0.1819  0.3138
  524MOL0     C69046   6.900   8.070   7.795 -0.4148 -0.5572  0.2084
  524MOL0     C69047   6.759   8.057   7.848  0.6679  0.4553 -0.0164
  524MOL0     C69048   6.656   8.100   7.733 -0.4120  0.2049  0.0511
  524MOL0     C69049   6.510   8.118   7.781 -0.4582  0.2438  0.3401
  524MOL0     C69050   6.441   7.985   7.782  0.3138 -0.0048 -0.4312
  524MOL0     C69051   6.297   8.006   7.813 -0.0109  0.1644 -0.2134
  524MOL0     C69052   6.218   7.870   7.812 -0.5656  0.1461 -0.0853
  524MOL0     N69053   6.278   7.761   7.903  0.4763  0.3936 -0.2834
  524MOL0     C69054   6.208   7.709   8.009 -0.3316 -0.0120 -0.2320
  524MOL0     C69055   6.292   7.612   8.039 -0.8944 -0.4243 -0.1548
  524MOL0     C69056   6.277   7.513   8.153  0.5105  0.0130 -0.0233
  524MOL0     C69057   6.193   7.389   8.122  0.9052 -0.0721 -0.5994
  524MOL0     C69058   6.057   7.421   8.057  0.2417  0.2954  0.4148
  524MOL0     C69059   5.962   7.510   8.131 -0.4233  0.1675  0.4873
  524MOL0     O69060   5.925   7.432   8.245  0.6084  0.8800  0.8228
  524MOL0     C69061   5.881   7.489   8.363 -0.1775 -0.2322 -0.0121
  524MOL0     C69062   5.819   7.394   8.448  0.4015 -0.2375 -0.0044
  524MOL0     C69063   5.776   7.449   8.566  0.8202 -0.7402  0.7090
  524MOL0     C69064   5.785   7.584   8.594  0.2475 -0.1762  0.3049
  524MOL0     C69065   5.743   7.629   8.725  0.6845 -0.4632 -0.2470
  524MOL0     O69066   5.690   7.543   8.816  0.6586 -0.5037 -0.0742
  524MOL0     C69067   5.639   7.585   8.935  0.3373 -0.1934 -0.4188
  524MOL0     C69068   5.598   7.712   8.967  0.0859 -0.3786  0.5888
  524MOL0     C69069   5.581   7.754   9.097  0.6336  1.0080 -1.3719
  524MOL0     C69070   5.602   7.659   9.203  0.1822 -1.2640  0.4310
  524MOL0     O69071   5.560   7.670   9.334 -0.2735  0.5272 -0.3039
  524MOL0     C69072   5.531   7.804   9.368  0.5223  0.3975  0.3227
  524MOL0     C69073   5.651   7.898   9.406  0.9927 -0.0766 -0.5292
  524MOL0     C69074   5.614   8.019   9.492 -0.2370  0.0369 -0.0803
  524MOL0     C69075   5.498   8.096   9.425 -0.2801  0.7229 -0.3043
  524MOL0     C69076   5.474   8.240   9.471 -0.7531 -0.6574 -0.6082
  524MOL0     C69077   5.365   8.308   9.383 -0.2654 -0.0696 -1.1667
  524MOL0     C69078   5.420   8.365   9.248  0.5646 -0.1313 -0.8057
  524MOL0     C69079   5.379   8.508   9.216 -0.3053 -0.2173 -0.2528
  524MOL0    Cl69080   5.197   8.506   9.190 -0.1972 -0.0277  0.1308
  524MOL0     C69081   5.626   7.533   9.174  0.7353 -0.1926 -0.1965
  524MOL0     C69082   5.640   7.498   9.041 -0.7878  0.1188 -0.6218
  524MOL0     O69083   5.761   7.750   8.740 -0.3149 -0.4175 -0.9962
  524MOL0     C69084   5.845   7.677   8.501 -0.0254  0.1381  0.4765
  524MOL0     C69085   5.890   7.630   8.381 -1.1399  0.1411  0.8910
  524MOL0     N69086   6.407   7.603   7.964 -0.2254  0.4641 -0.3463
  524MOL0     N69087   6.396   7.689   7.875  0.5305 -0.0372  0.9361
  524MOL0     C69088   7.301   7.991   7.992  0.5274 -0.6505  0.5910
  524MOL0     C69089   7.402   7.902   8.018  0.0712  0.5754 -0.6429
  524MOL0     C69090   7.733   7.581   7.949  0.9919  0.1439 -1.2727
  524MOL0     C69091   7.868   7.587   7.917 -0.4916 -0.5629 -0.4137
  524MOL0     C69092   7.954   7.472   7.946  0.0669 -0.4413 -0.2575
  524MOL0     C69093   7.911   7.362   8.008  0.5903  0.8078  0.1189
  524MOL0     O69094   7.989   7.249   8.040  0.3606  0.0313 -0.9563
  524MOL0     C69095   8.113   7.223   7.989  0.1545  0.3336  0.2712
  524MOL0     C69096   8.093   7.152   7.852 -0.0498  0.5118  0.1646
  524MOL0     C69097   8.024   7.019   7.882 -0.0663 -0.4941  1.1357
  524MOL0     C69098   7.973   6.946   7.752  0.4767 -0.4031  0.8415
  524MOL0     C69099   7.840   7.002   7.718  0.1955 -0.2220  0.6534
  524MOL0     C69100   7.732   7.047   7.679 -0.7119  0.8880 -0.4179
  524MOL0     C69101   7.777   7.362   8.043 -0.3090  0.1038 -0.2668
  524MOL0     C69102   7.689   7.464   8.009  0.3151 -1.0498  0.0328
  524MOL0     H69103   7.417   7.717   7.754  0.9890  0.6227  0.7635
  524MOL0     H69104   7.234   7.877   7.675 -1.7382 -0.8899  1.1194
  524MOL0     H69105   6.985   8.098   7.992 -2.6434  0.6609 -0.8487
  524MOL0     H69106   6.989   7.928   7.926  1.6245 -1.3594 -3.6482
  524MOL0     H69107   6.913   8.007   7.707 -1.0387 -0.7680  0.2668
  524MOL0     H69108   6.917   8.172   7.759  0.5421 -0.4076  1.0300
  524MOL0     H69109   6.744   8.121   7.936 -0.7431  0.9617 -0.6045
  524MOL0     H69110   6.749   7.950   7.869  0.1478  0.7187  1.1838
  524MOL0     H69111   6.671   8.205   7.707  0.3449  0.2295  0.5362
  524MOL0     H69112   6.661   8.032   7.648 -0.6968 -0.8557  0.8591
  524MOL0     H69113   6.455   8.183   7.713 -2.3220 -1.9175 -0.3543
  524MOL0     H69114   6.499   8.160   7.881 -2.3929 -1.6091  0.9717
  524MOL0     H69115   6.490   7.925   7.859 -2.9099 -2.7199 -0.2668
  524MOL0     H69116   6.461   7.935   7.686  0.6996 -1.7540  0.5088
  524MOL0     H69117   6.289   8.055   7.910 -1.1415 -3.1254  1.4681
  524MOL0     H69118   6.266   8.077   7.735  1.2031 -0.1991 -1.0706
  524MOL0     H69119   6.224   7.832   7.709 -2.5697 -2.3893  0.6252
  524MOL0     H69120   6.111   7.876   7.833 -0.2475 -1.8330  2.5448
  524MOL0     H69121   6.112   7.743   8.047 -0.0904  3.1552 -2.1467
  524MOL0     H69122   6.218   7.552   8.237 -3.4528 -0.2812 -2.3840
  524MOL0     H69123   6.374   7.475   8.185 -0.3388 -1.6664  0.7202
  524MOL0     H69124   6.180   7.329   8.213 -0.8901 -0.2490 -0.9370
  524MOL0     H69125   6.257   7.328   8.057  2.9233  0.0519  1.1466
  524MOL0     H69126   6.065   7.453   7.952 -1.3657 -0.8527 -0.1023
  524MOL0     H69127   6.008   7.325   8.038 -1.3393  0.8067  1.7828
  524MOL0     H69128   5.872   7.535   8.074 -0.1462 -1.1103 -0.5456
  524MOL0     H69129   6.025   7.591   8.171 -1.4430 -0.1714  2.9891
  524MOL0     H69130   5.837   7.289   8.427 -0.9843 -0.1484 -1.9335
  524MOL0     H69131   5.738   7.373   8.633  3.8650 -2.2375  0.9124
  524MOL0     H69132   5.570   7.788   8.895 -0.5325  0.6916  1.9256
  524MOL0     H69133   5.536   7.852   9.115 -2.0192 -0.2075 -0.8274
  524MOL0     H69134   5.465   7.789   9.454 -4.1253 -1.0538 -3.1048
  524MOL0     H69135   5.462   7.851   9.297  0.8974 -0.2316 -0.4657
  524MOL0     H69136   5.703   7.925   9.313  0.3484  1.0595 -0.5788
  524MOL0     H69137   5.722   7.843   9.468 -1.0613  0.2995  2.3694
  524MOL0     H69138   5.688   8.099   9.499 -0.0623 -0.1644  0.4458
  524MOL0     H69139   5.587   7.981   9.592  0.9491  0.1244  0.2890
  524MOL0     H69140   5.524   8.094   9.318 -0.5506 -2.6527 -0.4351
  524MOL0     H69141   5.403   8.041   9.421 -1.5321  2.6203  1.4466
  524MOL0     H69142   5.571   8.290   9.473  0.0200 -2.0707  2.1507
  524MOL0     H69143   5.441   8.242   9.575  1.1431  2.9369  0.0783
  524MOL0     H69144   5.321   8.390   9.440  1.2372  1.0030 -1.4807
  524MOL0     H69145   5.281   8.242   9.357 -1.3471 -0.2613  2.3077
  524MOL0     H69146   5.529   8.372   9.250  0.5293  1.0686  2.0588
  524MOL0     H69147   5.395   8.298   9.166  0.3048 -1.7126  0.5228
  524MOL0     H69148   5.401   8.549   9.117 -3.7209  3.1977  0.1619
  524MOL0     H69149   5.411   8.570   9.301 -0.1847 -1.9890  1.0468
  524MOL0     H69150   5.631   7.463   9.257 -0.6207 -0.9541 -0.7222
  524MOL0     H69151   5.663   7.403   8.994 -0.8483 -0.3643  0.2939
  524MOL0     H69152   5.855   7.781   8.531 -2.7263  0.5576  0.2331
  524MOL0     H69153   5.937   7.705   8.319 -0.3750  0.9080  2.3355
  524MOL0     H69154   7.286   8.067   8.068 -0.3494 -1.1857  0.9758
  524MOL0     H69155   7.458   7.897   8.111 -1.1588 -1.6265  0.0672
  524MOL0     H69156   7.908   7.676   7.869  2.3571 -2.1467 -1.2332
  524MOL0     H69157   8.058   7.493   7.923  0.5144 -0.6715  1.4224
  524MOL0     H69158   8.175   7.158   8.052 -1.2753 -2.8518 -1.3837
  524MOL0     H69159   8.166   7.318   7.975 -0.3351  0.3463 -1.8337
  524MOL0     H69160   8.027   7.224   7.804 -0.3659  0.5102  0.5926
  524MOL0     H69161   8.190   7.143   7.802 -0.9277 -0.8739 -1.3704
  524MOL0     H69162   7.940   7.030   7.951 -2.6287 -4.0293 -1.0465
  524MOL0     H69163   8.100   6.955   7.929  1.6047  1.8572  1.8257
  524MOL0     H69164   8.049   6.947   7.674  0.2583 -2.5877  0.5533
  524MOL0     H69165   7.951   6.841   7.773 -3.8672  0.0062 -0.5821
  524MOL0     H69166   7.644   7.088   7.634 -0.4969 -0.3954 -2.1012
  524MOL0     H69167   7.730   7.271   8.079  1.4666 -0.5418  0.5269
  524MOL0     H69168   7.582   7.450   8.019  0.1651 -0.8493 -1.1655
  525MOL0     O69169   3.244   4.562   5.555  0.0188 -0.8040 -0.0501
  525MOL0     C69170   3.352   4.591   5.604 -0.2642  0.6422 -0.8534
  525MOL0     O69171   3.440   4.502   5.665 -0.0325  0.3440 -0.2656
  525MOL0     C69172   3.408   4.367   5.665 -0.5509 -0.1381 -0.0296
  525MOL0     C69173   3.483   4.276   5.592  0.2472  0.6489  0.0709
  525MOL0     C69174   3.454   4.142   5.597 -0.4863  0.2602 -0.2047
  525MOL0     C69175   3.339   4.096   5.659  0.3599  0.1555 -0.9378
  525MOL0     O69176   3.303   3.967   5.676  0.0397 -0.2134 -0.3343
  525MOL0     C69177   3.411   3.870   5.655  0.6075  0.4965  0.4388
  525MOL0     C69178   3.375   3.769   5.755 -0.4327  0.0561 -0.0010
  525MOL0     C69179   3.465   3.647   5.748  0.1456  0.0420  0.8309
  525MOL0     C69180   3.439   3.534   5.852  0.7751 -0.7174  0.1730
  525MOL0     C69181   3.499   3.556   5.991  0.6040 -0.3540 -0.1923
  525MOL0     C69182   3.432   3.467   6.102  0.0054  0.2442 -1.3593
  525MOL0     C69183   3.470   3.532   6.243 -0.6422  0.2496  1.1963
  525MOL0     C69184   3.481   3.433   6.363 -0.3843 -1.0173 -0.0621
  525MOL0     N69185   3.346   3.387   6.417  0.3428 -0.3066 -0.2275
  525MOL0     C69186   3.256   3.307   6.352 -0.3962  1.5713  0.2011
  525MOL0     C69187   3.148   3.304   6.433 -0.0012  0.4148  0.6678
  525MOL0     C69188   3.021   3.242   6.399  0.3129 -0.1033  0.3900
  525MOL0     C69189   3.027   3.098   6.326  0.2105 -0.3828  0.3620
  525MOL0     C69190   2.886   3.050   6.295  0.8976  0.4720 -0.1212
  525MOL0     C69191   2.819   3.108   6.171 -0.0518 -0.2074 -0.1467
  525MOL0     O69192   2.765   3.240   6.189  0.4302 -0.7284 -0.1383
  525MOL0     C69193   2.640   3.232   6.256 -0.0898 -0.2731 -0.5181
  525MOL0     C69194   2.641   3.302   6.374  0.3107 -0.8296 -0.0478
  525MOL0     C69195   2.512   3.312   6.443  0.5888  0.1984 -0.6074
  525MOL0     C69196   2.396   3.245   6.403 -0.5990 -0.1646 -0.2561
  525MOL0     C69197   2.271   3.274   6.481  0.1466 -0.1460  0.3514
  525MOL0     O69198   2.155   3.231   6.434  0.0562 -0.6027  0.8506
  525MOL0     C69199   2.047   3.227   6.523  0.5331  0.4325 -0.0820
  525MOL0     C69200   2.055   3.140   6.637 -0.0279  0.9182  0.5931
  525MOL0     C69201   1.948   3.117   6.710  0.4949 -0.1199  0.4012
  525MOL0     C69202   1.821   3.179   6.684  0.4733 -0.6968 -0.2088
  525MOL0     O69203   1.723   3.152   6.779  0.2138 -0.3824  0.1912
  525MOL0     C69204   1.597   3.207   6.755  0.5231 -0.2718  0.7266
  525MOL0     C69205   1.497   3.142   6.846  0.3395  0.1289 -0.0507
  525MOL0     C69206   1.353   3.189   6.800 -0.0171  0.0696  0.6617
  525MOL0     C69207   1.242   3.096   6.858  0.5537 -0.5328 -0.1875
  525MOL0     C69208   1.109   3.140   6.792 -0.0184 -0.3611 -0.1199
  525MOL0     C69209   0.996   3.046   6.841  0.2414 -0.1303 -0.7665
  525MOL0     C69210   0.866   3.056   6.763  0.1027  0.3990  0.4552
  525MOL0     C69211   0.771   2.955   6.827  0.2016  0.3464 -0.5016
  525MOL0    Cl69212   0.599   3.002   6.781  0.0398  0.2225  0.5587
  525MOL0     C69213   1.814   3.261   6.572 -0.5853 -0.7117  0.4023
  525MOL0     C69214   1.925   3.277   6.489 -0.5709 -0.4374  0.3770
  525MOL0     O69215   2.293   3.322   6.589  0.2342 -0.0449 -1.0699
  525MOL0     C69216   2.395   3.184   6.281 -0.2017  0.6479 -0.1914
  525MOL0     C69217   2.518   3.175   6.208  0.3411  0.2316 -0.3592
  525MOL0     N69218   3.175   3.378   6.543  0.4212  1.2547  0.1505
  525MOL0     N69219   3.291   3.432   6.532 -0.6668 -0.0732  1.0308
  525MOL0     C69220   3.258   4.186   5.717 -0.4031  0.4786  0.0283
  525MOL0     C69221   3.296   4.318   5.731  0.1949  0.1397 -0.0954
  525MOL0     C69222   3.399   4.742   5.605  0.2358  0.2683 -0.1716
  525MOL0     C69223   3.495   4.808   5.690 -0.1605  0.8683 -1.1739
  525MOL0     C69224   3.518   4.945   5.668  0.4189  0.5703 -0.9791
  525MOL0     C69225   3.444   5.017   5.571  0.8882 -0.9899 -0.8365
  525MOL0     O69226   3.455   5.147   5.559 -0.4154 -0.4869  0.4172
  525MOL0     C69227   3.348   5.223   5.490  0.1811 -0.1516 -0.4197
  525MOL0     C69228   3.382   5.364   5.527 -1.3169  0.7360 -0.4113
  525MOL0     C69229   3.270   5.454   5.484  0.4092  0.1611 -0.0023
  525MOL0     C69230   3.315   5.600   5.497  0.0119  0.3195 -0.2893
  525MOL0     C69231   3.393   5.651   5.389  0.3796  1.1649 -0.0628
  525MOL0     C69232   3.465   5.697   5.301 -0.1122  0.7181  0.3680
  525MOL0     C69233   3.363   4.955   5.486 -0.1040  0.2432 -0.0623
  525MOL0     C69234   3.336   4.819   5.504  1.0016  0.1661 -0.1975
  525MOL0     H69235   3.561   4.324   5.532  0.1157 -2.4465 -2.8934
  525MOL0     H69236   3.496   4.068   5.529 -3.6933 -0.1737 -1.9139
  525MOL0     H69237   3.508   3.914   5.677 -0.3801  3.4278 -0.6150
  525MOL0     H69238   3.415   3.830   5.553 -0.8325 -0.8068  0.8559
  525MOL0     H69239   3.268   3.745   5.744 -0.4161  0.8756 -2.3564
  525MOL0     H69240   3.387   3.813   5.854 -0.9719  2.5300 -0.9709
  525MOL0     H69241   3.570   3.670   5.770  0.6920  0.5422 -1.9424
  525MOL0     H69242   3.469   3.601   5.649  3.2195 -0.3921  1.0646
  525MOL0     H69243   3.330   3.533   5.858  0.5798  4.4633  2.5326
  525MOL0     H69244   3.486   3.440   5.822  0.8930 -0.3128 -0.9335
  525MOL0     H69245   3.469   3.660   6.013  1.0167 -0.1572 -0.5454
  525MOL0     H69246   3.607   3.541   5.992  0.3386 -2.4637 -0.3625
  525MOL0     H69247   3.475   3.367   6.091  3.1126  1.1753  0.7851
  525MOL0     H69248   3.323   3.462   6.097 -0.1675  0.4354  1.1492
  525MOL0     H69249   3.568   3.577   6.228 -0.9572  0.7128  0.4707
  525MOL0     H69250   3.413   3.625   6.254  1.6117  2.5005 -3.2102
  525MOL0     H69251   3.540   3.478   6.443  0.4817 -0.7940 -0.8170
  525MOL0     H69252   3.534   3.347   6.322  0.9061 -0.1611 -0.2376
  525MOL0     H69253   3.274   3.254   6.259  2.3740 -0.5848  1.7774
  525MOL0     H69254   2.955   3.314   6.349 -0.5788 -1.1919 -0.0473
  525MOL0     H69255   2.966   3.212   6.489 -1.8784  2.7855  0.1499
  525MOL0     H69256   3.080   3.036   6.399  0.9014 -1.7741 -1.2564
  525MOL0     H69257   3.081   3.103   6.231  1.4732  0.0328  1.0734
  525MOL0     H69258   2.884   2.943   6.270 -0.1399  0.1787  1.0514
  525MOL0     H69259   2.819   3.054   6.382 -0.3202  1.9753 -1.0670
  525MOL0     H69260   2.736   3.039   6.151 -0.9882  0.4846  1.1875
  525MOL0     H69261   2.887   3.110   6.085  0.2441  5.8292 -0.2084
  525MOL0     H69262   2.737   3.344   6.400  0.3795  0.8298 -2.6366
  525MOL0     H69263   2.517   3.361   6.540 -1.4370 -2.3120  0.8715
  525MOL0     H69264   2.146   3.089   6.666 -1.5967 -1.9449  0.7570
  525MOL0     H69265   1.970   3.052   6.794  2.3642  1.7097  1.4173
  525MOL0     H69266   1.573   3.193   6.649  1.6487 -1.4773  0.6076
  525MOL0     H69267   1.589   3.314   6.777 -1.2549 -0.0806 -0.5611
  525MOL0     H69268   1.517   3.153   6.953  0.4220  3.0367 -0.2826
  525MOL0     H69269   1.502   3.035   6.828 -2.5059  0.2603 -2.4100
  525MOL0     H69270   1.338   3.170   6.694  0.0812 -1.0543  0.8397
  525MOL0     H69271   1.337   3.294   6.828 -1.8126 -0.2496  1.0009
  525MOL0     H69272   1.260   2.989   6.862  1.8637 -0.2896  0.9738
  525MOL0     H69273   1.244   3.134   6.961 -0.7186  0.8256 -0.6268
  525MOL0     H69274   1.113   3.141   6.683 -3.3273 -2.8860 -0.4361
  525MOL0     H69275   1.074   3.241   6.816 -0.8161 -0.1002 -2.1503
  525MOL0     H69276   0.984   3.071   6.947  2.1141 -1.0218 -0.3183
  525MOL0     H69277   1.037   2.945   6.843 -0.1750 -0.2931 -0.3240
  525MOL0     H69278   0.843   3.161   6.787  2.8036  1.2485 -0.2652
  525MOL0     H69279   0.873   3.065   6.654  1.4953  2.0521  0.6385
  525MOL0     H69280   0.787   2.928   6.932  0.9734 -0.4548 -0.8044
  525MOL0     H69281   0.793   2.858   6.781  5.2149 -0.8025  3.3748
  525MOL0     H69282   1.728   3.325   6.551  0.3584  0.0660 -1.3352
  525MOL0     H69283   1.911   3.356   6.415  0.3375  1.3038  1.9892
  525MOL0     H69284   2.301   3.140   6.250 -1.2176  3.7805 -1.8877
  525MOL0     H69285   2.513   3.137   6.107 -0.6634  1.6537 -0.8727
  525MOL0     H69286   3.167   4.154   5.766  0.6762 -3.1623 -0.0219
  525MOL0     H69287   3.239   4.386   5.794  0.4167 -0.3927  0.6913
  525MOL0     H69288   3.546   4.746   5.763  0.5220 -0.2487 -2.5286
  525MOL0     H69289   3.589   5.002   5.727  2.8990 -0.5120 -2.7025
  525MOL0     H69290   3.249   5.202   5.530  0.2659 -1.5186 -0.8513
  525MOL0     H69291   3.361   5.213   5.382  0.3645  0.3572 -0.4480
  525MOL0     H69292   3.401   5.366   5.635  0.4526 -0.6723 -0.6605
  525MOL0     H69293   3.478   5.366   5.475 -0.5498 -1.4731  0.8018
  525MOL0     H69294   3.183   5.444   5.549  0.8133 -0.8662  0.3962
  525MOL0     H69295   3.235   5.436   5.382  0.4452  0.8608 -0.1400
  525MOL0     H69296   3.226   5.661   5.511  1.7666  3.9695 -3.1387
  525MOL0     H69297   3.371   5.614   5.590 -2.6740  2.1032  1.1792
  525MOL0     H69298   3.519   5.740   5.219  0.9270 -0.8739  0.1568
  525MOL0     H69299   3.306   4.994   5.403 -0.1346 -0.4857 -0.3856
  525MOL0     H69300   3.265   4.771   5.437 -0.3120 -0.4589  1.5916
  526MOL0     O69301   6.157   2.962   3.342  0.2136  0.0763  0.9685
  526MOL0     C69302   6.181   2.857   3.274 -1.2653 -0.4235  0.4122
  526MOL0     O69303   6.088   2.768   3.224 -0.2253  0.1305 -0.1574
  526MOL0     C69304   5.963   2.814   3.222  0.8680  0.8987 -0.8941
  526MOL0     C69305   5.894   2.857   3.103 -0.1383 -0.1530 -0.0194
  526MOL0     C69306   5.777   2.928   3.100  0.9266 -0.5938  0.7386
  526MOL0     C69307   5.721   2.974   3.221 -0.3186 -0.4604  0.1169
  526MOL0     O69308   5.603   3.047   3.227  0.2933 -0.2216  0.0242
  526MOL0     C69309   5.494   2.968   3.281 -0.7537 -0.6153 -0.2096
  526MOL0     C69310   5.388   2.967   3.182 -0.3585  0.2753  0.7593
  526MOL0     C69311   5.280   2.860   3.191 -0.4981  0.2477  0.1253
  526MOL0     C69312   5.169   2.865   3.086 -0.6058  0.1189  0.3265
  526MOL0     C69313   5.058   2.761   3.118  0.3181  0.8249 -0.8963
  526MOL0     C69314   4.936   2.802   3.039 -0.1609 -0.0775 -0.2426
  526MOL0     C69315   4.807   2.741   3.100 -0.6152  0.4511  0.2703
  526MOL0     C69316   4.688   2.773   3.001  0.0702 -0.5029  0.1323
  526MOL0     N69317   4.578   2.693   3.038  1.3940 -0.2252 -0.6310
  526MOL0     C69318   4.548   2.564   2.995 -0.4295 -0.1111  1.0519
  526MOL0     C69319   4.472   2.514   3.095 -0.5918 -0.0082 -0.1816
  526MOL0     C69320   4.436   2.371   3.078  0.3405  0.1558  0.2765
  526MOL0     C69321   4.319   2.338   3.170  1.0608  0.0360  0.3833
  526MOL0     C69322   4.282   2.191   3.139  0.1605  0.3310  0.3762
  526MOL0     C69323   4.174   2.131   3.226  0.7629 -0.0752  0.4137
  526MOL0     O69324   4.103   2.041   3.139 -0.5399 -0.4654 -1.1562
  526MOL0     C69325   4.000   1.968   3.195 -0.9551  0.8450  0.7061
  526MOL0     C69326   3.903   1.927   3.112  0.1652  0.5160  0.3044
  526MOL0     C69327   3.786   1.863   3.160  0.4812  0.5747 -0.1027
  526MOL0     C69328   3.768   1.823   3.295 -0.0027 -0.3489  0.2683
  526MOL0     C69329   3.645   1.763   3.352  0.8520 -0.3608  0.2168
  526MOL0     O69330   3.634   1.762   3.494  0.1314  0.2074 -0.5401
  526MOL0     C69331   3.514   1.736   3.545 -0.1676  0.0920  0.7210
  526MOL0     C69332   3.523   1.632   3.644  0.7195 -0.0488  0.7800
  526MOL0     C69333   3.410   1.583   3.702 -0.3454  0.3284 -0.9084
  526MOL0     C69334   3.281   1.627   3.667  0.0949  0.6891  0.6702
  526MOL0     O69335   3.169   1.580   3.729  0.3433 -0.0878 -0.4115
  526MOL0     C69336   3.040   1.601   3.659 -0.0379 -0.0935  1.3111
  526MOL0     C69337   2.933   1.510   3.719 -0.8731 -0.5311 -0.3420
  526MOL0     C69338   2.781   1.540   3.687  1.2381  0.1647 -0.1493
  526MOL0     C69339   2.689   1.494   3.805 -0.5980 -0.2212  0.9051
  526MOL0     C69340   2.548   1.522   3.777 -0.3402  0.1932  0.9464
  526MOL0     C69341   2.454   1.427   3.856 -1.2098 -0.3656  0.1050
  526MOL0     C69342   2.325   1.511   3.894 -0.1720 -0.0341  0.1287
  526MOL0     C69343   2.208   1.424   3.946 -0.2789 -0.0749  0.0331
  526MOL0    Cl69344   2.252   1.318   4.081 -0.4791 -0.2035  0.1116
  526MOL0     C69345   3.275   1.742   3.581 -0.4872 -0.1187  0.7967
  526MOL0     C69346   3.389   1.796   3.512  0.8872 -0.9926  0.2503
  526MOL0     O69347   3.557   1.732   3.273  0.0232 -0.5043  0.5291
  526MOL0     C69348   3.878   1.869   3.374  0.4679  0.0750 -0.1501
  526MOL0     C69349   3.986   1.952   3.334 -0.0382 -0.5528 -0.2942
  526MOL0     N69350   4.431   2.617   3.179  0.4880 -0.1070 -0.5601
  526MOL0     N69351   4.502   2.720   3.153 -0.4513 -0.1420  0.8393
  526MOL0     C69352   5.783   2.929   3.343  0.2193 -0.2855  0.3646
  526MOL0     C69353   5.894   2.851   3.339 -0.4247  0.3024  0.4613
  526MOL0     C69354   6.316   2.839   3.220 -0.4110 -0.3409  0.9566
  526MOL0     C69355   6.419   2.895   3.290 -0.5904 -0.1231  0.2308
  526MOL0     C69356   6.547   2.884   3.240 -0.3408 -0.3611  0.3806
  526MOL0     C69357   6.573   2.795   3.135 -0.2087  0.3392  0.4931
  526MOL0     O69358   6.702   2.766   3.096  0.9320  0.0342  0.1810
  526MOL0     C69359   6.803   2.733   3.190 -0.1702 -0.0590  0.2656
  526MOL0     C69360   6.939   2.732   3.118  0.2238  0.0044  0.8862
  526MOL0     C69361   7.064   2.719   3.202  0.1323 -0.2454 -0.2177
  526MOL0     C69362   7.063   2.734   3.361 -0.3479 -0.4051  0.0926
  526MOL0     C69363   7.196   2.714   3.402 -0.5368  0.3440 -0.0354
  526MOL0     C69364   7.309   2.674   3.437 -0.9505  0.5526  0.4073
  526MOL0     C69365   6.476   2.732   3.070 -0.7947  0.0421  0.9889
  526MOL0     C69366   6.342   2.752   3.108  1.0706 -0.2521 -0.3201
  526MOL0     H69367   5.951   2.848   3.011 -1.2773 -1.3498 -0.6481
  526MOL0     H69368   5.728   2.952   3.007 -1.6039 -3.2015  1.2603
  526MOL0     H69369   5.458   3.015   3.374  1.9560 -3.5521  2.5967
  526MOL0     H69370   5.526   2.867   3.311  2.5143  0.2663 -0.2778
  526MOL0     H69371   5.438   2.949   3.087 -2.4383 -0.2692 -0.3102
  526MOL0     H69372   5.334   3.062   3.177 -1.1885  0.0544  3.4841
  526MOL0     H69373   5.235   2.875   3.290 -1.2664  1.1042 -0.3488
  526MOL0     H69374   5.323   2.759   3.198 -2.0769 -0.4407  0.3124
  526MOL0     H69375   5.122   2.963   3.085 -1.6318 -0.3507 -1.3075
  526MOL0     H69376   5.223   2.858   2.991  2.3865  0.2927  1.9214
  526MOL0     H69377   5.027   2.763   3.223  1.4067 -2.3642 -0.3779
  526MOL0     H69378   5.090   2.658   3.100  0.8576  0.5748  1.2291
  526MOL0     H69379   4.943   2.777   2.933  0.8104  0.6118 -0.3563
  526MOL0     H69380   4.923   2.911   3.033 -2.1069  0.0883  3.6171
  526MOL0     H69381   4.820   2.632   3.106  0.5083  0.5071 -0.6443
  526MOL0     H69382   4.782   2.778   3.200 -3.4839  2.5499 -1.0991
  526MOL0     H69383   4.721   2.731   2.905 -0.3054  0.8212 -0.6064
  526MOL0     H69384   4.665   2.880   2.998  2.5581  0.1422  1.4745
  526MOL0     H69385   4.593   2.516   2.908 -2.7217 -0.5379  0.0164
  526MOL0     H69386   4.523   2.309   3.101  1.5363  1.3389 -0.8293
  526MOL0     H69387   4.409   2.368   2.972  3.0818  0.5936 -0.5015
  526MOL0     H69388   4.233   2.399   3.140 -0.0762 -1.4936  0.4387
  526MOL0     H69389   4.345   2.342   3.276 -1.8416 -1.7849  1.2908
  526MOL0     H69390   4.253   2.182   3.034  1.1105  1.5704 -0.0165
  526MOL0     H69391   4.375   2.134   3.146 -0.1566 -0.1831  0.4268
  526MOL0     H69392   4.106   2.202   3.274  0.0418 -0.4780  0.0016
  526MOL0     H69393   4.220   2.077   3.309  1.1802 -0.6248 -0.1639
  526MOL0     H69394   3.902   1.954   3.007  0.7333  0.1207  0.1931
  526MOL0     H69395   3.704   1.832   3.096  0.3569 -2.3488  1.2921
  526MOL0     H69396   3.621   1.587   3.658  0.4233 -0.4129  1.8160
  526MOL0     H69397   3.425   1.506   3.776 -0.0801  0.3517 -0.9392
  526MOL0     H69398   3.056   1.572   3.555 -0.2639 -0.0366  1.2604
  526MOL0     H69399   3.008   1.705   3.667 -0.3657 -0.0578 -0.2031
  526MOL0     H69400   2.948   1.500   3.827 -1.9777 -2.3568 -0.2975
  526MOL0     H69401   2.952   1.409   3.681  2.6524  1.1365 -3.7104
  526MOL0     H69402   2.750   1.480   3.602  0.5618 -0.8220  0.7623
  526MOL0     H69403   2.761   1.646   3.669 -0.6856 -0.1949 -0.3084
  526MOL0     H69404   2.703   1.387   3.821  1.3017 -0.2895 -0.7811
  526MOL0     H69405   2.719   1.545   3.897 -0.6653  1.1224  0.1962
  526MOL0     H69406   2.530   1.505   3.671  0.5997  1.2486  0.6018
  526MOL0     H69407   2.524   1.625   3.804 -0.2177 -0.2113  2.7375
  526MOL0     H69408   2.501   1.375   3.940  0.3204 -0.1651 -0.6063
  526MOL0     H69409   2.430   1.353   3.779  0.3812  1.0075 -1.7882
  526MOL0     H69410   2.364   1.580   3.970 -2.8629  1.5877  0.1907
  526MOL0     H69411   2.293   1.575   3.811  0.1344  0.8591  0.6841
  526MOL0     H69412   2.168   1.365   3.862 -2.1284  0.8084  0.2302
  526MOL0     H69413   2.129   1.497   3.967 -0.1123  1.4036 -3.6669
  526MOL0     H69414   3.180   1.782   3.546  1.2960 -0.0761 -4.9811
  526MOL0     H69415   3.385   1.894   3.466 -1.6367 -0.0141  2.3213
  526MOL0     H69416   3.860   1.867   3.481 -1.4395 -0.7810 -0.4384
  526MOL0     H69417   4.060   1.993   3.402  1.2672  1.1369 -2.5548
  526MOL0     H69418   5.728   2.957   3.432 -1.9857  0.1429 -1.0428
  526MOL0     H69419   5.950   2.842   3.432  1.1437  1.0309 -0.3675
  526MOL0     H69420   6.407   2.954   3.380 -3.4092 -2.1403  1.3257
  526MOL0     H69421   6.627   2.941   3.286  0.8265  2.5643 -4.5182
  526MOL0     H69422   6.792   2.632   3.231 -2.1086 -0.5416 -1.2420
  526MOL0     H69423   6.812   2.810   3.267  1.5152  0.8025 -0.7382
  526MOL0     H69424   6.928   2.647   3.051  2.6042  1.0559 -0.9971
  526MOL0     H69425   6.952   2.818   3.052 -0.7728  0.0107  0.6779
  526MOL0     H69426   7.141   2.790   3.170 -2.8127  4.5040  2.0267
  526MOL0     H69427   7.099   2.616   3.201  1.3251  0.0173  2.9071
  526MOL0     H69428   7.043   2.840   3.380  0.7438 -0.3157  0.8046
  526MOL0     H69429   6.995   2.662   3.408  1.9736 -3.2577 -0.5776
  526MOL0     H69430   7.413   2.647   3.442 -1.8932 -4.0563 -0.5699
  526MOL0     H69431   6.498   2.650   3.002  0.3773  0.2163  1.1433
  526MOL0     H69432   6.260   2.707   3.052 -1.8961  2.6525  1.3400
  527MOL0     O69433   7.143   3.800   0.032  0.2444 -0.0417 -0.2148
  527MOL0     C69434   7.101   3.686   0.008 -0.1876 -0.0614 -0.9115
  527MOL0     O69435   6.988   3.658  -0.052  0.3566 -0.1762  0.0663
  527MOL0     C69436   6.896   3.750  -0.090  0.3286 -0.2147 -0.1921
  527MOL0     C69437   6.855   3.741  -0.217 -0.7735 -0.7234 -0.0079
  527MOL0     C69438   6.764   3.820  -0.282 -0.1102 -0.1235 -0.4518
  527MOL0     C69439   6.703   3.919  -0.206  0.0730  0.1818  0.2064
  527MOL0     O69440   6.635   4.015  -0.275  0.1227  0.4503  0.8395
  527MOL0     C69441   6.541   4.095  -0.208  0.6484 -0.2801  0.9452
  527MOL0     C69442   6.455   4.168  -0.314  0.2933  0.2719  0.5964
  527MOL0     C69443   6.384   4.289  -0.256  0.6719  0.1929 -0.5524
  527MOL0     C69444   6.323   4.380  -0.357  0.3799  0.1641  0.2197
  527MOL0     C69445   6.248   4.503  -0.289  0.1341  0.4264  0.4136
  527MOL0     C69446   6.221   4.611  -0.407  0.3671 -0.0007 -0.2089
  527MOL0     C69447   6.137   4.723  -0.357  0.3757 -0.1649 -0.7318
  527MOL0     C69448   6.082   4.817  -0.472  0.2829  0.0405  0.9644
  527MOL0     N69449   6.020   4.934  -0.419 -0.5903  0.6388 -0.6519
  527MOL0     C69450   5.938   4.946  -0.305  0.8052  0.6174 -0.0145
  527MOL0     C69451   5.933   5.079  -0.281  0.2085  0.6932  0.4561
  527MOL0     C69452   5.850   5.155  -0.188 -0.6471 -0.4176  0.0387
  527MOL0     C69453   5.919   5.295  -0.158  0.5084 -0.0792  0.1394
  527MOL0     C69454   5.845   5.391  -0.058  0.5720 -0.4485  0.4431
  527MOL0     C69455   5.701   5.428  -0.105  0.0738  0.2453  0.7352
  527MOL0     O69456   5.632   5.492   0.004 -0.1377  0.5404 -1.0841
  527MOL0     C69457   5.498   5.519  -0.018 -0.3594 -0.4669 -0.2354
  527MOL0     C69458   5.430   5.513  -0.141  0.0079  0.0866 -0.7205
  527MOL0     C69459   5.301   5.567  -0.152 -0.5854  0.0030 -0.8766
  527MOL0     C69460   5.228   5.599  -0.032  0.4812 -0.9454  0.8176
  527MOL0     C69461   5.087   5.651  -0.044 -0.5802 -0.4304 -0.0872
  527MOL0     O69462   4.996   5.642   0.071  0.2562 -0.3940  0.4424
  527MOL0     C69463   4.872   5.706   0.065 -0.4601  0.0510 -0.3314
  527MOL0     C69464   4.788   5.717  -0.047  0.3716 -0.0907 -0.2877
  527MOL0     C69465   4.666   5.788  -0.039 -0.6151  0.1765 -0.0442
  527MOL0     C69466   4.623   5.845   0.084 -0.0195 -0.1397 -0.6716
  527MOL0     O69467   4.506   5.925   0.074  0.6068 -0.0784 -0.0835
  527MOL0     C69468   4.442   5.953   0.199  0.0438 -0.3337 -0.1317
  527MOL0     C69469   4.306   6.004   0.170  0.7545  0.3676 -0.4986
  527MOL0     C69470   4.212   5.896   0.119  0.5378  0.8677  0.0352
  527MOL0     C69471   4.080   5.969   0.094  0.1019 -0.2140 -0.6116
  527MOL0     C69472   3.972   5.872   0.037 -1.0449 -0.7237 -0.0286
  527MOL0     C69473   3.848   5.953  -0.015 -0.0483  0.4175 -1.1880
  527MOL0     C69474   3.741   5.866  -0.087 -0.1185  0.4236  0.4722
  527MOL0     C69475   3.653   5.936  -0.180 -0.3230 -0.4780 -0.0316
  527MOL0    Cl69476   3.526   6.033  -0.089  0.5290 -0.3468 -0.6631
  527MOL0     C69477   4.704   5.821   0.200  0.5528  0.1942  0.1522
  527MOL0     C69478   4.829   5.754   0.187  0.3512  0.1838  0.0148
  527MOL0     O69479   5.053   5.709  -0.148  1.0634 -0.3098  0.5933
  527MOL0     C69480   5.293   5.584   0.090  0.4033  0.3442 -0.0939
  527MOL0     C69481   5.428   5.550   0.094 -1.1718 -1.4962 -0.1464
  527MOL0     N69482   6.027   5.144  -0.360  0.2085 -0.9422  1.1378
  527MOL0     N69483   6.066   5.063  -0.449 -0.0886  0.3510 -0.5925
  527MOL0     C69484   6.741   3.926  -0.068  0.0507 -0.1414  0.4765
  527MOL0     C69485   6.832   3.841  -0.008  0.6203  0.4524 -1.0679
  527MOL0     C69486   7.185   3.568   0.048 -0.2171  0.3456  0.6413
  527MOL0     C69487   7.306   3.579   0.123 -0.1661 -0.1773  0.0699
  527MOL0     C69488   7.377   3.471   0.171  0.2261  0.2455 -0.0659
  527MOL0     C69489   7.339   3.343   0.143 -0.0994  0.5534 -0.0635
  527MOL0     O69490   7.422   3.247   0.200  0.3491  0.3640  0.2041
  527MOL0     C69491   7.378   3.109   0.178 -0.4775 -0.2195 -0.0169
  527MOL0     C69492   7.488   3.008   0.217  0.4954 -0.9960 -0.1259
  527MOL0     C69493   7.557   2.936   0.096  0.2147 -0.0409  0.2545
  527MOL0     C69494   7.686   2.867   0.137  0.3263  0.7064  0.0870
  527MOL0     C69495   7.742   2.764   0.043  0.3769  0.6112 -0.8436
  527MOL0     C69496   7.800   2.679  -0.024  0.1279  0.1987  0.0236
  527MOL0     C69497   7.222   3.323   0.062 -0.6837 -0.3738 -0.3580
  527MOL0     C69498   7.149   3.436   0.023  0.0462 -0.1569 -0.0592
  527MOL0     H69499   6.893   3.664  -0.284  0.5166 -0.2194  0.1050
  527MOL0     H69500   6.733   3.804  -0.385 -1.6811 -1.9151  0.2304
  527MOL0     H69501   6.587   4.172  -0.146  0.4166  1.9250 -1.4520
  527MOL0     H69502   6.474   4.036  -0.144  1.4823  0.0801  2.1855
  527MOL0     H69503   6.386   4.093  -0.354  1.3258 -1.8534  2.5601
  527MOL0     H69504   6.508   4.222  -0.393 -4.3646  3.2100 -0.8826
  527MOL0     H69505   6.451   4.356  -0.201 -2.2436  3.5463 -0.7189
  527MOL0     H69506   6.301   4.260  -0.191 -1.2537  1.4393 -2.3251
  527MOL0     H69507   6.407   4.415  -0.418  1.0887  0.6654  1.4384
  527MOL0     H69508   6.245   4.329  -0.415 -0.0565  2.1824 -1.0766
  527MOL0     H69509   6.308   4.539  -0.205  1.2868 -1.1818  0.3377
  527MOL0     H69510   6.154   4.453  -0.261  1.2323 -3.5721 -2.2397
  527MOL0     H69511   6.179   4.557  -0.492  3.3349 -3.3125  0.1941
  527MOL0     H69512   6.316   4.647  -0.447 -1.2651  2.2973 -2.3206
  527MOL0     H69513   6.047   4.685  -0.307 -0.2078  1.1472 -0.7429
  527MOL0     H69514   6.191   4.791  -0.291 -1.9157  1.8657 -0.7793
  527MOL0     H69515   6.006   4.770  -0.534  1.2074 -1.5617  1.0110
  527MOL0     H69516   6.160   4.836  -0.547 -1.1630  2.0975 -0.1076
  527MOL0     H69517   5.878   4.870  -0.257 -0.1583  0.2796 -1.7062
  527MOL0     H69518   5.833   5.095  -0.099  2.0904 -0.9691  0.2530
  527MOL0     H69519   5.751   5.168  -0.234 -1.1965  0.3576  1.3622
  527MOL0     H69520   5.943   5.350  -0.249 -2.1914 -0.7082 -1.0465
  527MOL0     H69521   6.022   5.280  -0.124  1.1011  0.8537 -1.1644
  527MOL0     H69522   5.829   5.332   0.033 -1.4779 -1.7727 -0.6977
  527MOL0     H69523   5.905   5.479  -0.034  1.9424 -1.0216 -0.7179
  527MOL0     H69524   5.642   5.339  -0.128 -0.0187 -0.5883  3.8741
  527MOL0     H69525   5.712   5.496  -0.191  2.5437  0.3735  1.0996
  527MOL0     H69526   5.476   5.476  -0.233  0.0782  0.2059 -0.7343
  527MOL0     H69527   5.254   5.578  -0.249  2.3163  1.2634 -2.2454
  527MOL0     H69528   4.800   5.674  -0.146 -1.2725 -1.8993  0.2601
  527MOL0     H69529   4.615   5.800  -0.134  1.3167 -1.2630 -1.3406
  527MOL0     H69530   4.499   6.034   0.247 -3.1542  3.3608 -1.9432
  527MOL0     H69531   4.424   5.870   0.268 -2.4272  0.1116 -0.1630
  527MOL0     H69532   4.307   6.076   0.088 -1.1367  2.2056  0.9524
  527MOL0     H69533   4.259   6.045   0.261 -2.3569 -0.3924 -1.6482
  527MOL0     H69534   4.197   5.820   0.196  0.7911 -0.4108 -1.1277
  527MOL0     H69535   4.245   5.837   0.033 -0.7943 -0.7518  0.5787
  527MOL0     H69536   4.046   6.014   0.187  0.2708 -1.0281 -0.1515
  527MOL0     H69537   4.099   6.052   0.024 -3.2771  1.3001  0.0735
  527MOL0     H69538   3.953   5.803   0.120 -0.7555 -0.0840  0.5867
  527MOL0     H69539   4.011   5.811  -0.045 -2.2649  1.1724 -2.1266
  527MOL0     H69540   3.885   6.015  -0.097  0.9383 -1.1812 -1.9905
  527MOL0     H69541   3.796   6.022   0.052 -1.5401 -0.5345 -1.3162
  527MOL0     H69542   3.792   5.798  -0.155 -2.5724  1.2728 -2.4531
  527MOL0     H69543   3.679   5.806  -0.019  0.6791 -0.4604  0.4487
  527MOL0     H69544   3.612   5.862  -0.248 -1.1402  1.0813 -1.3125
  527MOL0     H69545   3.706   6.006  -0.245  0.0824 -0.3350  0.4415
  527MOL0     H69546   4.672   5.863   0.295 -1.2867  1.4172 -0.9634
  527MOL0     H69547   4.900   5.738   0.267  0.2748 -0.2394 -0.0019
  527MOL0     H69548   5.243   5.621   0.179 -3.1397 -1.3746 -1.1670
  527MOL0     H69549   5.457   5.537   0.197 -0.7023 -0.4369 -0.1348
  527MOL0     H69550   6.696   4.005  -0.009 -1.3045 -1.6428  1.5282
  527MOL0     H69551   6.855   3.838   0.098 -0.1917  1.1126 -0.8629
  527MOL0     H69552   7.349   3.675   0.149  1.8208 -0.9956  0.0600
  527MOL0     H69553   7.471   3.490   0.223 -1.1331  3.3270  1.5117
  527MOL0     H69554   7.345   3.093   0.076 -0.2087  2.6300 -0.6373
  527MOL0     H69555   7.293   3.090   0.244 -1.1016 -0.4530 -0.8688
  527MOL0     H69556   7.568   3.050   0.278  0.6561 -2.8691  1.0538
  527MOL0     H69557   7.441   2.932   0.282 -0.0823 -2.1004 -1.7737
  527MOL0     H69558   7.588   3.003   0.016  1.7938 -0.4395  0.5101
  527MOL0     H69559   7.478   2.868   0.062 -1.7179  3.0328 -1.9657
  527MOL0     H69560   7.758   2.937   0.178 -0.9087  0.6829  2.4521
  527MOL0     H69561   7.650   2.810   0.223  1.1904  0.4737  0.3054
  527MOL0     H69562   7.856   2.608  -0.082 -0.3706 -0.4796  0.3428
  527MOL0     H69563   7.180   3.225   0.046  0.5316 -1.0399  0.4060
  527MOL0     H69564   7.049   3.410  -0.012 -0.5187  1.8521 -0.0538
  528MOL0     O69565   0.062   5.853   3.504  0.2670 -0.0835 -0.2533
  528MOL0     C69566   0.113   5.945   3.574 -0.4815  0.6187 -0.2826
  528MOL0     O69567   0.055   6.015   3.675  0.7433 -0.8524  0.1425
  528MOL0     C69568  -0.077   5.985   3.703 -0.7162 -0.1148  0.0727
  528MOL0     C69569  -0.191   6.025   3.617 -0.7100  0.1695 -0.7402
  528MOL0     C69570  -0.322   5.998   3.658 -0.0740  1.1532 -0.6807
  528MOL0     C69571  -0.349   5.928   3.774 -0.2385  0.2709 -0.5915
  528MOL0     O69572  -0.483   5.914   3.811 -0.3524 -0.3888 -0.3851
  528MOL0     C69573  -0.510   5.817   3.921  0.0496 -0.7677  0.3536
  528MOL0     C69574  -0.647   5.798   3.959  0.8425  0.4886 -0.3760
  528MOL0     C69575  -0.730   5.925   3.961 -0.7707  0.2148  0.3043
  528MOL0     C69576  -0.798   5.955   3.814  0.1038  0.2538  0.4685
  528MOL0     C69577  -0.927   6.041   3.842 -0.7382  0.1160  0.5918
  528MOL0     C69578  -0.888   6.185   3.880  1.1780 -0.5429 -1.1136
  528MOL0     C69579  -1.002   6.291   3.869 -1.7148  0.3153  0.8389
  528MOL0     C69580  -1.122   6.267   3.954  0.1475 -0.4964  0.0578
  528MOL0     N69581  -1.211   6.376   3.934 -0.1030  0.1309  0.5309
  528MOL0     C69582  -1.193   6.509   3.978 -0.1174 -0.0244  0.1177
  528MOL0     C69583  -1.315   6.561   3.957 -0.3776 -0.6876  0.7727
  528MOL0     C69584  -1.356   6.704   3.976  0.2706 -0.2450  0.3903
  528MOL0     C69585  -1.503   6.744   3.934 -0.8723  0.1960 -0.3241
  528MOL0     C69586  -1.537   6.893   3.970  0.4430  0.2184 -0.5364
  528MOL0     C69587  -1.683   6.922   3.932 -0.0454 -0.1828 -0.0299
  528MOL0     O69588  -1.706   7.060   3.925 -0.0172 -0.8995 -0.3619
  528MOL0     C69589  -1.801   7.113   3.844  0.3484  0.2343 -0.2799
  528MOL0     C69590  -1.924   7.058   3.804  0.1541  0.5971 -0.2327
  528MOL0     C69591  -2.014   7.131   3.725 -0.0707 -0.5150  0.5522
  528MOL0     C69592  -1.973   7.256   3.673  1.0387  0.2154 -1.0438
  528MOL0     C69593  -2.072   7.337   3.597 -0.8346 -0.9137 -0.7142
  528MOL0     O69594  -2.010   7.407   3.496  0.0544 -0.1384 -0.1784
  528MOL0     C69595  -2.092   7.498   3.430 -0.6224  0.7693  0.2604
  528MOL0     C69596  -2.212   7.463   3.357 -0.2796 -0.4325 -0.3632
  528MOL0     C69597  -2.280   7.566   3.280  0.4655  0.1118  0.0450
  528MOL0     C69598  -2.219   7.692   3.254  0.2269 -0.6910 -0.2025
  528MOL0     O69599  -2.282   7.779   3.168 -0.0880  0.3360  0.5601
  528MOL0     C69600  -2.216   7.880   3.086  0.2378 -1.1571  0.2061
  528MOL0     C69601  -2.311   8.000   3.096  0.5199 -0.0937 -0.6517
  528MOL0     C69602  -2.251   8.125   3.168 -0.5316 -0.2341 -0.3334
  528MOL0     C69603  -2.351   8.204   3.249  0.2846 -0.0152 -0.6855
  528MOL0     C69604  -2.276   8.309   3.337  0.4540 -0.8204 -0.8562
  528MOL0     C69605  -2.369   8.400   3.420 -0.2576  0.4827  0.1416
  528MOL0     C69606  -2.463   8.320   3.518  0.4738 -0.6206  0.0443
  528MOL0     C69607  -2.533   8.414   3.619  0.9094  1.1844 -0.3206
  528MOL0    Cl69608  -2.664   8.509   3.543 -0.0854  0.3380  0.5525
  528MOL0     C69609  -2.094   7.712   3.305  0.6670  0.9715 -0.4658
  528MOL0     C69610  -2.039   7.620   3.391  0.7170  0.0072 -0.0033
  528MOL0     O69611  -2.193   7.346   3.624 -0.3343  0.1496  0.1958
  528MOL0     C69612  -1.848   7.299   3.693 -0.3854  0.5289 -0.0662
  528MOL0     C69613  -1.767   7.220   3.779  0.5343 -0.1307  0.6258
  528MOL0     N69614  -1.405   6.460   3.907 -0.1501 -0.0058  0.8714
  528MOL0     N69615  -1.337   6.351   3.894  0.1971  0.3973  0.0655
  528MOL0     C69616  -0.238   5.895   3.862 -0.0165  1.1207  0.2022
  528MOL0     C69617  -0.108   5.927   3.825 -0.3665  0.0821 -0.1905
  528MOL0     C69618   0.257   5.990   3.544  0.4284  0.7400 -0.4460
  528MOL0     C69619   0.331   5.927   3.443 -0.8194 -0.2180 -0.5715
  528MOL0     C69620   0.466   5.969   3.411  0.7202 -0.2070 -0.0519
  528MOL0     C69621   0.527   6.072   3.491 -0.4465 -0.1607 -0.2251
  528MOL0     O69622   0.654   6.113   3.451 -0.0951 -0.3703  0.4120
  528MOL0     C69623   0.717   6.229   3.509  0.6767  0.7431  0.3754
  528MOL0     C69624   0.868   6.229   3.513 -0.6050 -0.0103 -0.2912
  528MOL0     C69625   0.944   6.239   3.375  0.3992  0.3118 -0.4140
  528MOL0     C69626   0.922   6.368   3.304 -0.0184 -0.2423  0.1193
  528MOL0     C69627   0.991   6.482   3.362  0.6275 -0.4322  0.0836
  528MOL0     C69628   1.038   6.578   3.431 -0.2533  0.2628  0.6083
  528MOL0     C69629   0.448   6.132   3.586  0.0460 -0.0544  0.3930
  528MOL0     C69630   0.318   6.098   3.613  0.0462  0.7068 -1.1031
  528MOL0     H69631  -0.171   6.057   3.515 -0.4248 -1.9074 -1.3845
  528MOL0     H69632  -0.406   6.026   3.595 -2.1127  1.2845  1.8933
  528MOL0     H69633  -0.461   5.840   4.016  1.1297  2.2731 -0.8267
  528MOL0     H69634  -0.459   5.726   3.890  2.1948 -0.2460  2.1192
  528MOL0     H69635  -0.653   5.784   4.067 -3.0616  0.7933 -0.3965
  528MOL0     H69636  -0.696   5.717   3.904 -0.8097  2.7896 -2.5360
  528MOL0     H69637  -0.675   6.011   3.999  0.1710 -0.5357  0.6550
  528MOL0     H69638  -0.805   5.916   4.040 -1.2908 -0.3893 -0.2429
  528MOL0     H69639  -0.725   6.004   3.751  1.7998 -2.4557  0.1574
  528MOL0     H69640  -0.829   5.854   3.786  2.1494 -1.1502  2.8304
  528MOL0     H69641  -0.982   5.992   3.923  0.1391 -2.6071 -0.3336
  528MOL0     H69642  -0.991   6.043   3.753 -0.9559 -3.1932  0.5423
  528MOL0     H69643  -0.799   6.220   3.827  0.9307  2.2886  0.1692
  528MOL0     H69644  -0.851   6.174   3.982  0.1658 -0.0321 -0.6738
  528MOL0     H69645  -0.947   6.384   3.889 -0.7748  0.0769 -0.4958
  528MOL0     H69646  -1.040   6.307   3.768  0.4577  3.7061  0.3763
  528MOL0     H69647  -1.086   6.267   4.057  0.4888  0.3130 -0.0508
  528MOL0     H69648  -1.172   6.170   3.947 -2.2000  0.6874 -0.6517
  528MOL0     H69649  -1.110   6.558   4.029  0.1024 -2.1999  2.0051
  528MOL0     H69650  -1.287   6.780   3.940  0.9831 -0.3068  1.5812
  528MOL0     H69651  -1.353   6.716   4.084 -0.1435  0.4683  0.3277
  528MOL0     H69652  -1.573   6.674   3.982  2.2155 -2.5390  0.5530
  528MOL0     H69653  -1.497   6.725   3.826 -0.9076 -2.1171  0.0226
  528MOL0     H69654  -1.508   6.925   4.070  1.9857 -0.1309 -0.8527
  528MOL0     H69655  -1.472   6.940   3.896 -0.1527 -0.3969 -1.4783
  528MOL0     H69656  -1.749   6.882   4.011 -0.5272  0.2582 -0.2038
  528MOL0     H69657  -1.708   6.871   3.839  0.2971  1.7885 -1.2572
  528MOL0     H69658  -1.946   6.956   3.835 -4.1122  1.3102 -0.2976
  528MOL0     H69659  -2.107   7.078   3.705  0.0942 -0.8885  0.7749
  528MOL0     H69660  -2.251   7.362   3.364  5.2860 -2.7962  2.3519
  528MOL0     H69661  -2.375   7.538   3.236 -0.5123  1.1876  1.3821
  528MOL0     H69662  -2.205   7.848   2.982  0.4390 -0.3234 -0.0316
  528MOL0     H69663  -2.116   7.900   3.126  0.0560 -1.1967  0.6793
  528MOL0     H69664  -2.399   7.971   3.154  1.4565 -1.9353 -0.0748
  528MOL0     H69665  -2.348   8.030   2.998  0.3284  0.8932 -0.2962
  528MOL0     H69666  -2.204   8.189   3.092  2.0763  1.1774  2.2912
  528MOL0     H69667  -2.169   8.085   3.228  2.6287  1.0159 -3.4718
  528MOL0     H69668  -2.422   8.258   3.185 -1.6412 -1.0935  0.4536
  528MOL0     H69669  -2.405   8.131   3.310  0.4692  0.6873  0.3518
  528MOL0     H69670  -2.216   8.372   3.271  1.7113  0.0260  1.0010
  528MOL0     H69671  -2.213   8.247   3.401  0.8473 -1.4028 -1.8030
  528MOL0     H69672  -2.419   8.475   3.358 -3.2606 -0.0347  1.7528
  528MOL0     H69673  -2.306   8.456   3.489 -0.3425  0.1141  0.5252
  528MOL0     H69674  -2.544   8.265   3.471 -1.7871  2.4428  0.0879
  528MOL0     H69675  -2.397   8.252   3.574  0.2374 -1.3209 -0.5190
  528MOL0     H69676  -2.452   8.481   3.648  0.9166  1.0273  0.0211
  528MOL0     H69677  -2.568   8.370   3.712 -0.3964  2.6266 -0.0987
  528MOL0     H69678  -2.054   7.813   3.305  1.6153  0.6130  0.5919
  528MOL0     H69679  -1.946   7.636   3.444  0.2558 -0.5409  1.0051
  528MOL0     H69680  -1.810   7.389   3.647  2.4078 -0.1000  0.8346
  528MOL0     H69681  -1.666   7.255   3.798  0.6217 -0.2141  0.3157
  528MOL0     H69682  -0.262   5.851   3.959 -1.8373 -3.1818 -1.9123
  528MOL0     H69683  -0.023   5.889   3.880 -1.5987 -3.3802 -0.4343
  528MOL0     H69684   0.283   5.849   3.385 -3.1333  1.5970 -1.2546
  528MOL0     H69685   0.502   5.936   3.314 -1.2621  1.3232 -1.4085
  528MOL0     H69686   0.682   6.245   3.611  1.9964  3.1946  0.5276
  528MOL0     H69687   0.679   6.315   3.453 -0.1986  1.1366  1.5455
  528MOL0     H69688   0.914   6.287   3.594 -0.2438 -1.8231  0.8447
  528MOL0     H69689   0.902   6.132   3.550  1.6241  0.5553 -0.6520
  528MOL0     H69690   0.910   6.153   3.316  0.9620  0.0368 -0.3404
  528MOL0     H69691   1.051   6.224   3.391  0.1804 -0.1727  0.6643
  528MOL0     H69692   0.953   6.380   3.200 -1.6132  0.3369 -0.3319
  528MOL0     H69693   0.815   6.391   3.302  0.5648  3.0821 -1.9318
  528MOL0     H69694   1.082   6.658   3.487  0.5994  0.2756 -0.0767
  528MOL0     H69695   0.480   6.221   3.640  3.1654 -0.2509 -0.8952
  528MOL0     H69696   0.263   6.149   3.691  2.0440  2.4045 -0.7029
  529MOL0     O69697   2.026   6.434   4.957  0.3767 -0.2127  0.3427
  529MOL0     C69698   2.147   6.444   4.976  0.5515 -0.1374  0.0196
  529MOL0     O69699   2.214   6.560   5.008  0.6536 -0.6566 -0.4242
  529MOL0     C69700   2.159   6.688   5.035 -0.2734  0.3111  0.0133
  529MOL0     C69701   2.052   6.738   4.961 -0.6118  0.8336  0.5245
  529MOL0     C69702   2.019   6.876   4.973  0.6427  0.5383 -0.0844
  529MOL0     C69703   2.082   6.959   5.063 -0.8109  1.2410  0.3489
  529MOL0     O69704   2.054   7.095   5.071  0.4265  0.1941 -0.1058
  529MOL0     C69705   1.943   7.155   5.000  0.3735  0.0115 -0.6507
  529MOL0     C69706   1.965   7.177   4.854 -0.0835 -0.6202 -0.3086
  529MOL0     C69707   1.834   7.167   4.780 -0.2833 -0.2468 -0.8755
  529MOL0     C69708   1.842   7.165   4.631 -0.4274 -0.3436 -0.0761
  529MOL0     C69709   1.697   7.151   4.582  0.1450  1.2240  0.0153
  529MOL0     C69710   1.675   7.199   4.443 -0.4207  0.5046 -0.1296
  529MOL0     C69711   1.541   7.143   4.402  0.4677  0.2112  0.0773
  529MOL0     C69712   1.500   7.181   4.258 -0.7349 -1.0075 -0.5631
  529MOL0     N69713   1.354   7.135   4.234 -0.7682  0.7716  0.2778
  529MOL0     C69714   1.319   7.000   4.215 -0.1748 -0.2115  0.0230
  529MOL0     C69715   1.185   7.010   4.200  0.0052 -0.1411 -0.1408
  529MOL0     C69716   1.091   6.904   4.156 -0.4375  0.1688 -0.4524
  529MOL0     C69717   0.944   6.942   4.170  0.4741  0.1633 -0.1756
  529MOL0     C69718   0.837   6.832   4.126  1.4465  0.4918  0.2760
  529MOL0     C69719   0.696   6.900   4.121  0.1727  0.1497 -0.7064
  529MOL0     O69720   0.620   6.779   4.085 -0.2314 -0.2010 -0.3736
  529MOL0     C69721   0.481   6.785   4.078  0.0823 -0.8148  0.2200
  529MOL0     C69722   0.418   6.678   4.011  1.3774 -0.1023 -0.8274
  529MOL0     C69723   0.288   6.683   3.978  0.4381 -0.2435 -0.4903
  529MOL0     C69724   0.212   6.800   4.001  0.1995  0.1038 -0.9513
  529MOL0     C69725   0.073   6.814   3.950 -0.5482  0.1655 -0.4724
  529MOL0     O69726   0.014   6.931   3.968 -0.3504 -0.2949 -0.0740
  529MOL0     C69727  -0.110   6.937   3.906  0.4841  0.3593  0.3181
  529MOL0     C69728  -0.222   6.876   3.964 -0.4227 -0.3743  0.3594
  529MOL0     C69729  -0.344   6.866   3.890 -0.1012 -0.2424  0.0073
  529MOL0     C69730  -0.354   6.927   3.760  0.6364  0.4945  0.3065
  529MOL0     O69731  -0.474   6.900   3.696  1.1811 -0.7562  0.4606
  529MOL0     C69732  -0.497   6.972   3.574 -0.7786 -0.0706 -0.0256
  529MOL0     C69733  -0.647   6.916   3.539 -0.1814 -0.2454  0.5828
  529MOL0     C69734  -0.661   6.904   3.391  0.5664 -0.4676  0.2149
  529MOL0     C69735  -0.608   6.778   3.320  0.3977 -0.0837 -0.6039
  529MOL0     C69736  -0.701   6.667   3.267 -0.1986  0.1138  0.1946
  529MOL0     C69737  -0.755   6.699   3.126 -0.2026 -0.2305  0.1497
  529MOL0     C69738  -0.824   6.585   3.047  0.8704 -0.3133  0.7950
  529MOL0     C69739  -0.856   6.634   2.898  0.2851  1.1088  0.4821
  529MOL0    Cl69740  -0.968   6.765   2.899  0.4838  0.3304  0.0954
  529MOL0     C69741  -0.245   7.001   3.708 -0.2991  0.7611  0.0823
  529MOL0     C69742  -0.114   7.001   3.776 -0.2321 -0.3822  0.2858
  529MOL0     O69743   0.023   6.714   3.899  0.2035 -0.2080 -0.4974
  529MOL0     C69744   0.269   6.897   4.079  0.5353 -0.6021 -0.0669
  529MOL0     C69745   0.402   6.895   4.105  0.4253 -0.4919 -0.6386
  529MOL0     N69746   1.150   7.142   4.196  0.2479 -0.2362  0.4512
  529MOL0     N69747   1.243   7.215   4.230  0.4553  0.3548  0.4123
  529MOL0     C69748   2.185   6.910   5.140  0.1076 -0.0066 -0.3384
  529MOL0     C69749   2.231   6.778   5.113 -0.2564 -0.0381 -0.8507
  529MOL0     C69750   2.210   6.312   4.989 -0.6822 -0.8037  0.1904
  529MOL0     C69751   2.324   6.301   5.065 -1.4773 -0.2093  0.8027
  529MOL0     C69752   2.405   6.187   5.065 -0.7146  0.1430 -1.1454
  529MOL0     C69753   2.370   6.077   4.985 -0.3290  0.2832 -0.2437
  529MOL0     O69754   2.466   5.980   4.983  0.3201  0.4763  0.5993
  529MOL0     C69755   2.444   5.855   4.913  0.2147 -0.4463  0.1116
  529MOL0     C69756   2.526   5.742   4.967  0.2117  0.2619 -0.2534
  529MOL0     C69757   2.471   5.707   5.110 -0.3184 -0.7763  0.7777
  529MOL0     C69758   2.573   5.601   5.158 -0.0091 -1.0826 -0.7784
  529MOL0     C69759   2.542   5.545   5.289  0.2196 -1.2181 -0.1556
  529MOL0     C69760   2.535   5.493   5.399 -0.9370  0.1414 -0.6489
  529MOL0     C69761   2.257   6.078   4.905  1.0129 -0.2881 -0.3429
  529MOL0     C69762   2.181   6.195   4.910  0.2654  0.3873  0.2926
  529MOL0     H69763   2.011   6.671   4.887  3.5403 -2.9287  1.2471
  529MOL0     H69764   1.943   6.923   4.911 -0.2328 -1.5156 -0.6300
  529MOL0     H69765   1.925   7.240   5.066 -2.3236 -0.4315 -0.7149
  529MOL0     H69766   1.856   7.094   5.024  0.9272 -1.1773 -1.5753
  529MOL0     H69767   2.031   7.097   4.816 -0.1724 -0.9102  0.1457
  529MOL0     H69768   2.005   7.279   4.850 -0.5992 -0.3669  0.6972
  529MOL0     H69769   1.781   7.256   4.813  0.7642 -0.1777  0.7165
  529MOL0     H69770   1.777   7.082   4.819  1.4341  0.4291  3.7816
  529MOL0     H69771   1.901   7.250   4.596  3.2163 -2.4955  0.2619
  529MOL0     H69772   1.903   7.076   4.609  1.8587  1.3040 -0.7773
  529MOL0     H69773   1.627   7.202   4.649  0.9802  0.3071  1.6284
  529MOL0     H69774   1.690   7.042   4.586  1.8008  1.1409  3.0622
  529MOL0     H69775   1.755   7.154   4.384  0.0701 -1.4800  1.9319
  529MOL0     H69776   1.681   7.308   4.439  2.4510  0.3764 -2.4067
  529MOL0     H69777   1.550   7.034   4.409  1.7091  0.4075  2.4873
  529MOL0     H69778   1.461   7.184   4.464  0.3345  0.8172 -0.4773
  529MOL0     H69779   1.574   7.137   4.190  0.4601  0.2548 -0.1143
  529MOL0     H69780   1.512   7.289   4.253  1.5575 -1.0992  1.2570
  529MOL0     H69781   1.379   6.911   4.208 -0.3998 -0.5320  1.6667
  529MOL0     H69782   1.113   6.813   4.212  1.2858  1.4836  1.1589
  529MOL0     H69783   1.108   6.883   4.050 -0.8009 -1.2144 -0.2462
  529MOL0     H69784   0.920   7.030   4.110 -0.9508  2.2029  3.1115
  529MOL0     H69785   0.933   6.987   4.269  0.3394  1.7696 -0.9045
  529MOL0     H69786   0.866   6.775   4.037 -1.7654 -1.1747  0.1758
  529MOL0     H69787   0.817   6.768   4.213  0.8034  1.2024  0.6563
  529MOL0     H69788   0.677   6.972   4.041  2.8236  2.8223  0.8126
  529MOL0     H69789   0.666   6.939   4.219 -1.4755 -2.4821 -0.0821
  529MOL0     H69790   0.470   6.583   4.005 -1.8334 -1.9973 -1.2909
  529MOL0     H69791   0.244   6.595   3.932 -0.1791  0.3821 -1.1252
  529MOL0     H69792  -0.199   6.838   4.063  0.0229  1.6559  1.0771
  529MOL0     H69793  -0.431   6.817   3.933  0.1034 -0.6313 -0.0244
  529MOL0     H69794  -0.426   6.944   3.496  0.0781 -0.8085  0.9846
  529MOL0     H69795  -0.498   7.081   3.583 -1.5069  0.1446 -2.1930
  529MOL0     H69796  -0.724   6.976   3.588 -0.8209 -2.2208  2.0941
  529MOL0     H69797  -0.658   6.822   3.593  3.2952  1.1359  4.1936
  529MOL0     H69798  -0.617   6.993   3.346 -1.5207  1.1627  1.2203
  529MOL0     H69799  -0.768   6.918   3.371  0.9732 -0.8497 -2.6240
  529MOL0     H69800  -0.543   6.800   3.235  1.6465 -2.4883 -0.3716
  529MOL0     H69801  -0.543   6.733   3.396 -0.8711  0.3597  0.7805
  529MOL0     H69802  -0.785   6.646   3.333 -0.1268 -1.2649 -0.1266
  529MOL0     H69803  -0.634   6.581   3.255 -1.0899 -0.5665  0.0557
  529MOL0     H69804  -0.674   6.737   3.063  0.6441 -1.8983  0.1678
  529MOL0     H69805  -0.834   6.773   3.141  2.1683  1.8881  3.9776
  529MOL0     H69806  -0.762   6.495   3.039  0.5915 -0.3876 -4.3748
  529MOL0     H69807  -0.924   6.570   3.089 -0.4903  0.4784 -1.9025
  529MOL0     H69808  -0.894   6.553   2.835 -0.5520  3.1867 -1.8400
  529MOL0     H69809  -0.762   6.664   2.851 -0.0788  2.1544  0.3867
  529MOL0     H69810  -0.259   7.037   3.607 -2.1512 -2.3345 -0.9097
  529MOL0     H69811  -0.023   7.046   3.737  1.6845 -1.8815  2.6903
  529MOL0     H69812   0.220   6.991   4.101  1.2658 -0.1653 -0.2641
  529MOL0     H69813   0.456   6.980   4.146  0.3668 -0.5357 -0.4711
  529MOL0     H69814   2.244   6.978   5.201 -2.1143  1.2877  0.4720
  529MOL0     H69815   2.332   6.758   5.146  0.0844  2.7756  0.1140
  529MOL0     H69816   2.342   6.381   5.137  3.9678 -1.8081  1.6866
  529MOL0     H69817   2.497   6.180   5.122 -0.5855  3.5145 -0.7340
  529MOL0     H69818   2.466   5.853   4.805 -2.8548 -4.4507 -0.6584
  529MOL0     H69819   2.337   5.831   4.915 -0.8184  3.5279  1.8224
  529MOL0     H69820   2.519   5.655   4.900  0.5819  0.0716 -0.0468
  529MOL0     H69821   2.632   5.765   4.978  0.7939 -2.9839  2.7484
  529MOL0     H69822   2.368   5.670   5.106 -0.8413  0.4707  1.6376
  529MOL0     H69823   2.467   5.793   5.178  2.5984  2.4155 -2.6907
  529MOL0     H69824   2.576   5.528   5.076 -1.0483  1.0990 -2.9175
  529MOL0     H69825   2.673   5.645   5.163  0.1338 -1.5734  2.4948
  529MOL0     H69826   2.522   5.450   5.496 -2.1937 -1.2741 -1.3796
  529MOL0     H69827   2.227   5.987   4.854  0.7298 -1.8187  2.3998
  529MOL0     H69828   2.095   6.201   4.844 -1.8008 -1.2127  2.6725
  530MOL0     O69829   6.680   5.378   2.987 -0.5082  0.0764 -0.2494
  530MOL0     C69830   6.778   5.457   2.979  0.6670  0.1052  1.3740
  530MOL0     O69831   6.772   5.596   2.985 -0.0965  0.4684  0.2697
  530MOL0     C69832   6.668   5.656   3.054  1.0861  0.0596 -0.3807
  530MOL0     C69833   6.590   5.608   3.158  0.9249  0.5984 -0.5612
  530MOL0     C69834   6.479   5.680   3.207 -0.0761  0.8828 -0.9033
  530MOL0     C69835   6.442   5.795   3.151  1.1668  0.1766 -0.2967
  530MOL0     O69836   6.322   5.858   3.179 -0.3279  0.2011  0.4424
  530MOL0     C69837   6.231   5.814   3.278 -0.2105  0.0157 -0.6085
  530MOL0     C69838   6.111   5.902   3.264 -0.1260  0.2309  0.4699
  530MOL0     C69839   5.996   5.841   3.344 -0.2647  0.0496 -0.4667
  530MOL0     C69840   5.864   5.918   3.308 -0.1310 -0.7022 -0.6636
  530MOL0     C69841   5.762   5.853   3.402 -0.2657  0.1211 -0.9487
  530MOL0     C69842   5.614   5.917   3.396 -0.1609  0.2794 -0.5199
  530MOL0     C69843   5.518   5.866   3.509 -0.2609 -0.6053 -0.5898
  530MOL0     C69844   5.400   5.948   3.558  0.2559 -1.1832  0.8817
  530MOL0     N69845   5.297   5.957   3.449 -1.1052 -0.0057 -0.5071
  530MOL0     C69846   5.171   5.909   3.459  0.4215  0.4311 -0.1052
  530MOL0     C69847   5.103   5.950   3.349  0.3298  0.0818 -0.1406
  530MOL0     C69848   4.961   5.916   3.312 -0.3969  0.7546  0.7999
  530MOL0     C69849   4.864   6.013   3.360 -0.2462 -0.3723  0.4482
  530MOL0     C69850   4.723   5.977   3.331  0.4373  0.0782 -0.2972
  530MOL0     C69851   4.684   5.915   3.195  0.0132 -0.2977 -1.2014
  530MOL0     O69852   4.545   5.936   3.176  0.3524 -0.4907 -0.7961
  530MOL0     C69853   4.452   5.856   3.234 -0.1840 -0.1227 -0.6903
  530MOL0     C69854   4.317   5.890   3.196 -0.1620 -0.9409 -0.2888
  530MOL0     C69855   4.209   5.819   3.248 -0.4600 -0.2327 -0.2007
  530MOL0     C69856   4.228   5.713   3.340 -0.6269 -0.3815 -0.1119
  530MOL0     C69857   4.122   5.634   3.403  0.0843 -0.5442 -0.2166
  530MOL0     O69858   4.139   5.508   3.418  0.7389  0.3459  0.2165
  530MOL0     C69859   4.024   5.440   3.464  0.6830  0.1331 -0.4261
  530MOL0     C69860   4.007   5.441   3.600 -0.2173  0.4095 -0.2381
  530MOL0     C69861   3.889   5.389   3.656  0.2824 -0.2117 -0.5082
  530MOL0     C69862   3.798   5.323   3.578 -0.2163 -0.5934  0.0929
  530MOL0     O69863   3.680   5.276   3.635 -0.6572 -0.9760 -0.2482
  530MOL0     C69864   3.705   5.187   3.746  0.9544  0.0958 -0.3598
  530MOL0     C69865   3.570   5.127   3.774  0.2106  0.4627  0.1685
  530MOL0     C69866   3.465   5.231   3.816 -0.1445  0.2177 -0.3071
  530MOL0     C69867   3.326   5.178   3.800 -0.1829  0.5181  0.0103
  530MOL0     C69868   3.221   5.288   3.830  0.6323  0.5635 -0.5679
  530MOL0     C69869   3.080   5.239   3.808  0.1654 -0.2617 -0.2428
  530MOL0     C69870   2.990   5.360   3.800 -0.2874  0.3747 -0.3085
  530MOL0     C69871   2.840   5.328   3.821  0.1566 -1.2673 -0.8453
  530MOL0    Cl69872   2.787   5.237   3.681  0.5806  0.2158  0.0828
  530MOL0     C69873   3.819   5.311   3.438 -0.0423  0.0159 -0.3803
  530MOL0     C69874   3.934   5.364   3.385  0.4986 -0.6850 -0.1646
  530MOL0     O69875   4.023   5.693   3.429  0.9641 -0.1935  0.0244
  530MOL0     C69876   4.366   5.670   3.355  0.0623  0.7314 -0.5988
  530MOL0     C69877   4.474   5.741   3.304 -0.9861 -1.6646  0.5750
  530MOL0     N69878   5.192   6.019   3.266  0.2695 -0.4855 -0.4381
  530MOL0     N69879   5.300   6.026   3.332  0.6881 -0.0136 -0.5503
  530MOL0     C69880   6.522   5.845   3.050  0.1014  0.6907 -0.3124
  530MOL0     C69881   6.637   5.781   3.009  0.3209 -1.4599  0.3383
  530MOL0     C69882   6.911   5.411   2.928  0.9290 -0.5536 -0.3722
  530MOL0     C69883   6.931   5.271   2.923  0.4127 -0.3153 -0.1189
  530MOL0     C69884   7.059   5.219   2.907  0.2148  0.0225 -0.5750
  530MOL0     C69885   7.173   5.298   2.897  0.0104 -0.0538 -0.2162
  530MOL0     O69886   7.301   5.260   2.903  0.1270 -0.4191  1.0301
  530MOL0     C69887   7.332   5.119   2.892 -0.3844 -0.7610  0.6229
  530MOL0     C69888   7.482   5.084   2.862 -0.1271 -0.7139  0.1608
  530MOL0     C69889   7.587   5.180   2.921  0.9299 -0.4866 -0.0437
  530MOL0     C69890   7.727   5.128   2.918 -0.0408 -0.1290 -0.5039
  530MOL0     C69891   7.762   5.107   2.774  0.0923 -0.7117  0.2483
  530MOL0     C69892   7.785   5.109   2.651 -0.4811 -0.3134  0.4240
  530MOL0     C69893   7.151   5.438   2.891  0.2692  0.6002 -0.5058
  530MOL0     C69894   7.023   5.494   2.904  1.0637  0.5839  1.0325
  530MOL0     H69895   6.625   5.522   3.215  2.1239  1.5018  0.1311
  530MOL0     H69896   6.439   5.642   3.301  2.3381 -0.1088 -0.1862
  530MOL0     H69897   6.263   5.826   3.382 -3.8735 -2.3609  1.0172
  530MOL0     H69898   6.205   5.708   3.273 -1.4965  0.3578 -1.7410
  530MOL0     H69899   6.078   5.937   3.166 -0.3776  3.2845  1.5652
  530MOL0     H69900   6.129   5.997   3.314 -1.9595 -0.2964  2.2731
  530MOL0     H69901   6.021   5.847   3.450  0.4570  1.7889 -0.6989
  530MOL0     H69902   5.994   5.734   3.323  3.8747 -0.5848  1.5381
  530MOL0     H69903   5.874   6.026   3.313 -0.5837 -0.6230 -1.2515
  530MOL0     H69904   5.835   5.881   3.209  0.6555 -0.5275 -0.9641
  530MOL0     H69905   5.786   5.870   3.507 -1.4914  2.1634 -0.9392
  530MOL0     H69906   5.771   5.745   3.389 -0.0922  0.3146 -2.7454
  530MOL0     H69907   5.579   5.906   3.293  1.6392 -0.3785 -1.0915
  530MOL0     H69908   5.625   6.025   3.409 -0.4125  0.4809 -1.8414
  530MOL0     H69909   5.484   5.765   3.486 -1.0666 -0.5286  0.1663
  530MOL0     H69910   5.578   5.856   3.600  1.5484  2.4948 -1.2851
  530MOL0     H69911   5.431   6.051   3.574 -2.5692 -0.0748 -0.1153
  530MOL0     H69912   5.355   5.915   3.652  0.5671 -0.0162  1.4485
  530MOL0     H69913   5.130   5.842   3.534  1.2747  1.9779  1.7996
  530MOL0     H69914   4.944   5.818   3.356  0.3988 -0.2907 -1.0756
  530MOL0     H69915   4.955   5.888   3.206  2.3070 -3.6699  1.5850
  530MOL0     H69916   4.881   6.116   3.328 -0.8823 -0.8567 -1.6443
  530MOL0     H69917   4.883   6.011   3.468 -0.0061 -0.0926  0.4121
  530MOL0     H69918   4.685   5.899   3.397 -1.2558 -2.0072 -3.4896
  530MOL0     H69919   4.669   6.071   3.348  0.5517 -0.1839  1.6258
  530MOL0     H69920   4.706   5.808   3.192 -0.6840 -0.7626  3.2075
  530MOL0     H69921   4.736   5.979   3.123  5.1537  0.2492  2.4246
  530MOL0     H69922   4.301   5.962   3.116  0.5693 -1.1689 -0.6467
  530MOL0     H69923   4.107   5.849   3.231 -1.0601 -2.2487 -0.4250
  530MOL0     H69924   4.074   5.496   3.664  2.4044 -0.8013 -1.7700
  530MOL0     H69925   3.865   5.409   3.760 -2.4946 -1.6254 -0.7964
  530MOL0     H69926   3.753   5.238   3.830 -0.2126 -1.4087  1.2951
  530MOL0     H69927   3.771   5.106   3.712  0.2306 -0.3462 -0.7261
  530MOL0     H69928   3.572   5.033   3.829  5.6957 -1.7385 -2.9775
  530MOL0     H69929   3.527   5.098   3.678  1.9465  0.6977 -0.7126
  530MOL0     H69930   3.468   5.313   3.743  1.9784  1.8546  1.4661
  530MOL0     H69931   3.480   5.278   3.914 -2.1974 -1.4802  0.9099
  530MOL0     H69932   3.309   5.150   3.695  1.1887 -2.1286  0.4059
  530MOL0     H69933   3.319   5.084   3.856 -1.1495  1.3251  1.2816
  530MOL0     H69934   3.239   5.390   3.795 -2.0155  1.4255  0.3731
  530MOL0     H69935   3.224   5.317   3.936 -0.0778 -1.6096  0.0968
  530MOL0     H69936   3.054   5.176   3.893 -1.9239  0.4410 -0.3056
  530MOL0     H69937   3.076   5.182   3.715  1.6122  0.0196 -0.5007
  530MOL0     H69938   3.019   5.429   3.880 -0.2993 -3.7963  3.6875
  530MOL0     H69939   2.998   5.410   3.703 -1.5169  0.4213 -0.4058
  530MOL0     H69940   2.777   5.417   3.830  0.9994 -0.8157  1.5848
  530MOL0     H69941   2.820   5.266   3.908 -0.7036  2.1141  1.6046
  530MOL0     H69942   3.744   5.263   3.377 -1.4495  2.1114 -0.3890
  530MOL0     H69943   3.954   5.358   3.279 -1.0468  0.1957 -0.5380
  530MOL0     H69944   4.370   5.577   3.411 -2.6125  1.8078  1.6030
  530MOL0     H69945   4.579   5.721   3.322  0.0942  3.3705  1.3880
  530MOL0     H69946   6.483   5.940   3.015 -1.7474 -0.5401 -1.8821
  530MOL0     H69947   6.692   5.827   2.927  0.6043 -0.7710  0.8996
  530MOL0     H69948   6.846   5.206   2.939  0.6896 -0.8455 -0.7878
  530MOL0     H69949   7.071   5.111   2.902  0.0090 -0.0888  0.9676
  530MOL0     H69950   7.259   5.075   2.823 -1.5658  0.7495  0.8757
  530MOL0     H69951   7.313   5.066   2.986  0.9980  1.9300  2.5388
  530MOL0     H69952   7.499   4.979   2.883 -1.1914 -1.0452 -0.5076
  530MOL0     H69953   7.488   5.092   2.753  3.4276  0.1302  0.3106
  530MOL0     H69954   7.558   5.186   3.026  0.3820  0.8833 -0.2538
  530MOL0     H69955   7.580   5.278   2.873 -1.7157 -0.9793 -0.8385
  530MOL0     H69956   7.803   5.194   2.961 -3.2837  2.4006  1.8797
  530MOL0     H69957   7.720   5.036   2.977 -0.2304  0.2983  0.1492
  530MOL0     H69958   7.796   5.117   2.545 -1.2511  1.7001  0.4440
  530MOL0     H69959   7.222   5.515   2.862 -1.5743  2.8424  0.5988
  530MOL0     H69960   7.018   5.602   2.905  4.0568  0.8199  1.7974
  531MOL0     O69961   6.060   8.822   8.267 -0.0507 -0.1999  0.9269
  531MOL0     C69962   6.072   8.700   8.258 -0.3399 -0.5728  0.6017
  531MOL0     O69963   5.992   8.607   8.313 -0.5760  0.6775 -0.7218
  531MOL0     C69964   5.886   8.641   8.396 -0.1376 -0.1659 -0.8619
  531MOL0     C69965   5.890   8.756   8.480 -0.0163 -0.9104  0.2625
  531MOL0     C69966   5.782   8.788   8.564 -0.4225 -0.0535  0.0652
  531MOL0     C69967   5.667   8.713   8.569 -0.8679 -0.9411  0.3462
  531MOL0     O69968   5.568   8.759   8.648 -0.4193 -0.0407  0.1406
  531MOL0     C69969   5.448   8.680   8.674  0.6387  0.0423  0.6784
  531MOL0     C69970   5.357   8.760   8.769 -0.0008  0.4720  0.9361
  531MOL0     C69971   5.218   8.691   8.790 -0.2350 -0.1491  0.3736
  531MOL0     C69972   5.153   8.756   8.913  0.1891 -0.2679  0.8351
  531MOL0     C69973   5.008   8.706   8.933  0.0171 -0.1945  0.1222
  531MOL0     C69974   4.931   8.787   9.045  0.0503 -0.4323  0.7411
  531MOL0     C69975   4.779   8.761   9.072 -0.3197 -0.0082  0.4910
  531MOL0     C69976   4.741   8.615   9.079 -0.6781  0.9031 -0.4515
  531MOL0     N69977   4.601   8.602   9.042 -0.5027 -0.1158  0.1055
  531MOL0     C69978   4.554   8.620   8.914  0.2331 -0.4241 -0.0179
  531MOL0     C69979   4.428   8.559   8.900 -0.2300 -0.3789  0.0952
  531MOL0     C69980   4.327   8.571   8.784  0.1584 -0.7746  0.2269
  531MOL0     C69981   4.178   8.586   8.835 -0.0282 -0.1942 -0.2927
  531MOL0     C69982   4.070   8.547   8.725  0.0196  0.2960 -0.3041
  531MOL0     C69983   3.942   8.513   8.803  0.5054  1.0628  0.5417
  531MOL0     O69984   3.858   8.425   8.712 -0.8872  0.0218  0.0681
  531MOL0     C69985   3.766   8.348   8.784  0.8723 -1.1432 -0.1059
  531MOL0     C69986   3.689   8.412   8.895 -0.2256  0.3731 -0.9648
  531MOL0     C69987   3.563   8.361   8.931  0.2234  1.0711  0.3179
  531MOL0     C69988   3.512   8.237   8.887  0.2477  0.5160  0.7040
  531MOL0     C69989   3.387   8.180   8.945  0.5570  0.0309  0.4889
  531MOL0     O69990   3.328   8.244   9.055 -0.0323  0.5155 -0.0185
  531MOL0     C69991   3.214   8.199   9.117  0.3246  0.3779 -0.5877
  531MOL0     C69992   3.163   8.068   9.124  0.3875 -0.9856 -0.8483
  531MOL0     C69993   3.037   8.046   9.186 -0.3065 -0.1498 -0.2449
  531MOL0     C69994   2.970   8.154   9.245  0.5229 -0.1847  0.1101
  531MOL0     O69995   2.859   8.131   9.320  0.5757 -0.6679  0.3450
  531MOL0     C69996   2.738   8.119   9.231 -0.2480 -0.0829 -0.0185
  531MOL0     C69997   2.626   8.045   9.317 -0.9997 -0.0073  0.0254
  531MOL0     C69998   2.675   7.900   9.355  0.4059 -1.0238 -0.2617
  531MOL0     C69999   2.566   7.824   9.440  0.0008  0.1074 -0.6550
  531MOL0     C70000   2.627   7.689   9.501 -0.2845  0.3049 -0.0843
  531MOL0     C70001   2.540   7.649   9.618  0.4835  0.3567  0.4456
  531MOL0     C70002   2.603   7.543   9.694 -0.5538  0.3604 -0.4535
  531MOL0     C70003   2.516   7.502   9.806 -0.5250  1.2265  0.2909
  531MOL0    Cl70004   2.355   7.450   9.742 -0.5048 -0.1858  0.1587
  531MOL0     C70005   3.035   8.279   9.240 -0.7293 -0.5038 -0.6139
  531MOL0     C70006   3.167   8.300   9.190 -0.5248  0.1761 -0.0170
  531MOL0     O70007   3.333   8.091   8.880  0.3760  0.1753  0.6125
  531MOL0     C70008   3.578   8.181   8.774 -0.4574  0.5256 -0.2896
  531MOL0     C70009   3.706   8.229   8.731 -0.7329  0.2319  0.1088
  531MOL0     N70010   4.401   8.513   9.028  0.3963 -0.4847  0.0817
  531MOL0     N70011   4.506   8.542   9.106 -0.3539  0.2923 -1.1861
  531MOL0     C70012   5.666   8.590   8.506  0.4931  0.1050  0.6371
  531MOL0     C70013   5.771   8.557   8.415 -0.1397  0.0910  0.0496
  531MOL0     C70014   6.189   8.647   8.183 -1.0073 -0.6446 -1.1827
  531MOL0     C70015   6.205   8.518   8.121 -0.0298  0.0404 -0.6835
  531MOL0     C70016   6.319   8.470   8.047 -0.5526  0.5431 -1.0093
  531MOL0     C70017   6.441   8.557   8.056  0.7866 -0.6031  0.6947
  531MOL0     O70018   6.559   8.536   7.996  0.4023 -0.6674  0.3232
  531MOL0     C70019   6.588   8.409   7.924  0.1245 -0.3732 -0.2101
  531MOL0     C70020   6.739   8.417   7.902 -0.2619  1.3526 -0.2877
  531MOL0     C70021   6.805   8.387   8.036 -0.3329 -0.7096 -0.6381
  531MOL0     C70022   6.954   8.381   8.015  0.4846 -0.0340  0.4441
  531MOL0     C70023   7.018   8.325   8.137 -0.5186  0.4332 -0.2047
  531MOL0     C70024   7.078   8.277   8.233  0.4214  0.0762  0.1137
  531MOL0     C70025   6.432   8.678   8.126  0.2300 -0.0975  0.9211
  531MOL0     C70026   6.312   8.731   8.190 -0.9790 -0.5332 -0.5980
  531MOL0     H70027   5.972   8.827   8.475 -1.5903  0.9101 -3.1469
  531MOL0     H70028   5.792   8.891   8.596 -0.2725 -0.4849  1.4628
  531MOL0     H70029   5.468   8.586   8.726  1.1253 -2.2039 -3.2274
  531MOL0     H70030   5.393   8.665   8.581  5.3281 -1.0380 -2.2229
  531MOL0     H70031   5.340   8.863   8.736  1.7292  0.5965  0.3368
  531MOL0     H70032   5.410   8.761   8.865 -3.0213 -3.1438  2.9419
  531MOL0     H70033   5.227   8.582   8.790 -2.2632 -0.4853  4.1821
  531MOL0     H70034   5.153   8.706   8.703  0.3887 -0.8794 -0.2326
  531MOL0     H70035   5.212   8.728   9.000 -1.2059 -3.0336  0.9814
  531MOL0     H70036   5.145   8.863   8.890 -2.9331  0.2580  3.5793
  531MOL0     H70037   4.994   8.599   8.951 -1.0763  0.3068  2.6862
  531MOL0     H70038   4.967   8.727   8.833  2.0024 -0.9536 -0.9042
  531MOL0     H70039   4.947   8.893   9.026  0.8877 -0.7142 -0.1873
  531MOL0     H70040   4.990   8.759   9.133 -1.1252  2.5289  2.6005
  531MOL0     H70041   4.741   8.815   9.159 -2.9412 -0.1456 -0.4641
  531MOL0     H70042   4.718   8.805   8.992  1.4652  0.8703 -0.4402
  531MOL0     H70043   4.765   8.587   9.182 -2.3928  2.8656  0.5643
  531MOL0     H70044   4.788   8.550   9.006 -0.6267 -0.2726  0.5829
  531MOL0     H70045   4.608   8.659   8.829 -2.1563  0.0051 -1.4486
  531MOL0     H70046   4.347   8.481   8.725  2.7131 -1.1360  1.4831
  531MOL0     H70047   4.356   8.656   8.721 -0.5564 -1.2052 -0.6972
  531MOL0     H70048   4.163   8.687   8.872  2.2964 -0.3292  1.2496
  531MOL0     H70049   4.165   8.521   8.922  3.7428 -1.8215 -0.7492
  531MOL0     H70050   4.053   8.630   8.655  1.5622 -0.1214 -1.2122
  531MOL0     H70051   4.109   8.463   8.668 -0.2719  1.0351 -1.6468
  531MOL0     H70052   3.894   8.606   8.833 -2.5998  0.5464 -2.1710
  531MOL0     H70053   3.968   8.463   8.896  1.3755  0.7325  0.1311
  531MOL0     H70054   3.732   8.501   8.938 -0.4945  1.5954 -3.1319
  531MOL0     H70055   3.505   8.423   9.000 -2.3846 -1.7858  0.9265
  531MOL0     H70056   3.201   7.982   9.071 -0.8025 -2.2916  0.3366
  531MOL0     H70057   2.987   7.950   9.196  0.0519 -0.1605  1.8821
  531MOL0     H70058   2.748   8.060   9.139  0.3717  1.9371 -1.3239
  531MOL0     H70059   2.707   8.217   9.193  1.0055  0.4954  0.4190
  531MOL0     H70060   2.530   8.046   9.263 -1.9703  0.2658  1.6999
  531MOL0     H70061   2.622   8.105   9.408  0.7272  2.0315 -1.1612
  531MOL0     H70062   2.763   7.912   9.419  1.5032 -1.6230 -1.6035
  531MOL0     H70063   2.706   7.839   9.270 -0.2346 -2.3054  0.3976
  531MOL0     H70064   2.534   7.886   9.525 -0.5448  0.8546 -1.3944
  531MOL0     H70065   2.485   7.803   9.370  1.4585  0.4434 -2.5058
  531MOL0     H70066   2.728   7.718   9.531 -0.4283  1.9328 -1.0771
  531MOL0     H70067   2.625   7.608   9.428  4.4567 -0.8462  0.7654
  531MOL0     H70068   2.445   7.621   9.572  0.6310  1.3985 -0.5160
  531MOL0     H70069   2.536   7.729   9.692  1.3784  1.2249 -0.4185
  531MOL0     H70070   2.627   7.463   9.623  3.8341  1.2081 -0.1725
  531MOL0     H70071   2.691   7.580   9.747  0.8063 -1.0267 -1.6743
  531MOL0     H70072   2.506   7.571   9.890 -2.2637  0.2011  0.9782
  531MOL0     H70073   2.563   7.419   9.859  1.4365  2.6252  0.8693
  531MOL0     H70074   2.996   8.355   9.307 -3.0592 -3.4078  1.5997
  531MOL0     H70075   3.216   8.397   9.189  0.5570 -0.3578 -0.9343
  531MOL0     H70076   3.553   8.082   8.737  2.2532 -0.4877  0.3378
  531MOL0     H70077   3.758   8.177   8.652  0.9108  1.6942  0.1684
  531MOL0     H70078   5.573   8.533   8.506 -1.0835  2.5342  0.7585
  531MOL0     H70079   5.768   8.458   8.369  1.4454  0.3136 -0.6019
  531MOL0     H70080   6.131   8.439   8.117  0.6837 -0.5969 -3.6153
  531MOL0     H70081   6.322   8.372   8.002 -0.2159 -0.9629  2.0602
  531MOL0     H70082   6.540   8.395   7.827  0.9408  1.4256 -0.9310
  531MOL0     H70083   6.565   8.332   7.998 -2.5418  2.8964  2.7809
  531MOL0     H70084   6.767   8.345   7.824  1.8596 -0.6021  2.1064
  531MOL0     H70085   6.764   8.522   7.885 -1.0018  1.6735  0.5063
  531MOL0     H70086   6.780   8.285   8.064  0.5959 -0.9902 -0.7958
  531MOL0     H70087   6.776   8.470   8.102  0.3559 -1.1758  0.2686
  531MOL0     H70088   6.970   8.323   7.923 -0.7540 -0.3108  0.3881
  531MOL0     H70089   6.989   8.481   7.987 -1.8618  0.5595 -0.5770
  531MOL0     H70090   7.127   8.227   8.314 -0.1132  0.4155  0.6618
  531MOL0     H70091   6.511   8.753   8.120  0.1988  0.0027  1.6348
  531MOL0     H70092   6.325   8.824   8.243 -1.1961 -2.1353  2.4876
  532MOL0     O70093   0.691   9.033   4.651  0.0288  0.3538 -0.3817
  532MOL0     C70094   0.725   9.030   4.533 -0.4674  0.2081  0.8063
  532MOL0     O70095   0.648   9.058   4.424 -0.1256 -0.2873 -0.2999
  532MOL0     C70096   0.512   9.092   4.432 -0.1921 -0.2927  0.8769
  532MOL0     C70097   0.455   9.173   4.539 -0.7716 -0.4151  0.1103
  532MOL0     C70098   0.334   9.239   4.533  0.1743  0.0089  0.2295
  532MOL0     C70099   0.254   9.226   4.422  0.2938  0.2678  0.0182
  532MOL0     O70100   0.133   9.287   4.407 -0.2484 -1.5929 -0.1651
  532MOL0     C70101   0.022   9.227   4.480  0.0856 -0.9995 -0.2121
  532MOL0     C70102  -0.100   9.316   4.457 -0.1265  0.5529 -0.2357
  532MOL0     C70103  -0.231   9.273   4.525 -0.5352  0.3970  0.8054
  532MOL0     C70104  -0.347   9.376   4.491  0.1250  0.0303 -1.0229
  532MOL0     C70105  -0.472   9.366   4.584 -0.1413  0.6441  0.1881
  532MOL0     C70106  -0.443   9.402   4.731 -1.1462  0.0992  0.0706
  532MOL0     C70107  -0.390   9.542   4.749 -0.6575  0.0880 -0.1195
  532MOL0     C70108  -0.376   9.595   4.893  0.8968 -0.4964  0.1063
  532MOL0     N70109  -0.280   9.701   4.913 -0.4396  0.6549 -0.7825
  532MOL0     C70110  -0.303   9.832   4.913 -0.3935 -0.6637  0.3452
  532MOL0     C70111  -0.192   9.901   4.950 -0.7435  0.8043  0.6351
  532MOL0     C70112  -0.178  10.046   4.979  0.2538  0.4171 -0.3681
  532MOL0     C70113  -0.311  10.121   4.956 -0.7104 -0.3876  0.0086
  532MOL0     C70114  -0.306  10.265   5.003  0.4472 -0.4451 -0.6229
  532MOL0     C70115  -0.440  10.315   5.060 -0.0784  0.9715  0.8742
  532MOL0     O70116  -0.540  10.333   4.959 -0.2084  1.1135 -0.0500
  532MOL0     C70117  -0.662  10.388   4.982  0.4830 -0.4581 -0.6372
  532MOL0     C70118  -0.748  10.387   4.880  0.7279  1.4494  0.2520
  532MOL0     C70119  -0.879  10.438   4.896  1.1901  1.2003  0.2195
  532MOL0     C70120  -0.925  10.502   5.011 -0.0496  0.4548  0.3569
  532MOL0     C70121  -1.061  10.560   5.023  0.3738 -0.1468  0.6486
  532MOL0     O70122  -1.151  10.536   4.920 -1.0490 -0.3719 -0.7296
  532MOL0     C70123  -1.274  10.591   4.922 -0.9405 -0.1236 -0.0002
  532MOL0     C70124  -1.364  10.565   5.032 -0.1330 -0.0260 -0.6274
  532MOL0     C70125  -1.501  10.605   5.030  0.9112  0.5576  0.1699
  532MOL0     C70126  -1.558  10.665   4.918 -0.0637 -0.4323  0.6677
  532MOL0     O70127  -1.684  10.704   4.917  0.0949  0.6610  0.4159
  532MOL0     C70128  -1.726  10.810   4.842 -0.4060 -0.3248  0.3632
  532MOL0     C70129  -1.673  10.932   4.915 -0.0316  0.0138 -0.2629
  532MOL0     C70130  -1.753  11.047   4.848  0.2128 -0.4064 -0.6451
  532MOL0     C70131  -1.735  11.055   4.705  0.1173  0.0573  0.0344
  532MOL0     C70132  -1.812  11.175   4.651  0.1404  0.0350 -0.1265
  532MOL0     C70133  -1.860  11.147   4.509 -0.0638  0.0130  0.0600
  532MOL0     C70134  -1.913  11.270   4.435 -0.1040  1.0091  0.1058
  532MOL0     C70135  -1.945  11.236   4.291  0.5858  0.0489 -0.5015
  532MOL0    Cl70136  -1.974  11.383   4.200 -0.0430 -0.5284  0.2439
  532MOL0     C70137  -1.473  10.681   4.806 -0.1394  0.4743  0.4739
  532MOL0     C70138  -1.337  10.634   4.807  0.3184  0.5427  0.2886
  532MOL0     O70139  -1.078  10.634   5.120  0.2718 -0.5113 -0.0933
  532MOL0     C70140  -0.836  10.496   5.121 -0.0062  0.1552  0.0207
  532MOL0     C70141  -0.710  10.433   5.111  0.5892  1.1576 -0.3472
  532MOL0     N70142  -0.087   9.809   4.963 -0.1809  0.1400  0.4913
  532MOL0     N70143  -0.144   9.696   4.945  0.4232  0.0630  0.1284
  532MOL0     C70144   0.311   9.146   4.320  0.0706 -1.1554  0.3864
  532MOL0     C70145   0.428   9.075   4.326 -0.0890 -0.7749  0.0523
  532MOL0     C70146   0.868   8.990   4.507  0.7085  0.8129  0.6469
  532MOL0     C70147   0.918   8.974   4.373  0.0113 -0.4979 -0.2936
  532MOL0     C70148   1.044   8.929   4.342  0.0629  0.5152  0.2570
  532MOL0     C70149   1.137   8.915   4.451  0.4615  0.8321 -0.0733
  532MOL0     O70150   1.274   8.901   4.442  0.3456  0.6591 -0.1058
  532MOL0     C70151   1.335   8.877   4.313 -0.4394 -0.1733  0.8705
  532MOL0     C70152   1.481   8.913   4.319 -0.1285 -0.3893 -0.1893
  532MOL0     C70153   1.574   8.825   4.237  0.0678  0.3822 -0.2532
  532MOL0     C70154   1.617   8.698   4.297  0.8173 -0.2635  0.2674
  532MOL0     C70155   1.696   8.724   4.423  0.2643 -0.4557  0.8651
  532MOL0     C70156   1.758   8.753   4.522  0.1605  0.5714 -0.6055
  532MOL0     C70157   1.085   8.936   4.583 -0.3431  0.7632 -0.3256
  532MOL0     C70158   0.957   8.959   4.612  0.2528 -0.5847  0.0878
  532MOL0     H70159   0.512   9.193   4.629 -2.4489 -0.2534  1.1781
  532MOL0     H70160   0.297   9.299   4.617 -3.2353  0.1735 -1.2121
  532MOL0     H70161   0.044   9.235   4.587 -1.0242  0.5602 -0.0625
  532MOL0     H70162  -0.002   9.121   4.470 -2.7713 -0.4080 -0.6299
  532MOL0     H70163  -0.115   9.325   4.349  2.3051  2.2006 -0.5060
  532MOL0     H70164  -0.066   9.412   4.497  2.4635 -0.6467  0.6241
  532MOL0     H70165  -0.213   9.276   4.632  1.7555  3.5129  0.4698
  532MOL0     H70166  -0.257   9.172   4.492  0.7679  0.8723 -2.0162
  532MOL0     H70167  -0.313   9.480   4.495  1.9926 -0.5720  0.4804
  532MOL0     H70168  -0.371   9.377   4.384  2.8531  1.0907 -1.7023
  532MOL0     H70169  -0.521   9.268   4.582 -1.9446  1.4273 -3.4939
  532MOL0     H70170  -0.547   9.441   4.557  0.5271  1.6604  1.1071
  532MOL0     H70171  -0.367   9.329   4.761  0.0742  0.9198 -0.9060
  532MOL0     H70172  -0.536   9.389   4.786 -0.1222 -1.8691  1.4513
  532MOL0     H70173  -0.292   9.539   4.701 -0.0027  0.9903  1.1083
  532MOL0     H70174  -0.451   9.608   4.689  1.2793 -1.5259 -4.2314
  532MOL0     H70175  -0.335   9.512   4.950 -2.0743 -3.3056 -1.4856
  532MOL0     H70176  -0.474   9.619   4.937  0.5825 -0.6335 -0.5073
  532MOL0     H70177  -0.399   9.882   4.905  0.6731  1.7472  1.5455
  532MOL0     H70178  -0.088  10.073   4.924  1.0349 -1.4573 -0.0909
  532MOL0     H70179  -0.154  10.065   5.085  1.4745  1.0710 -0.7416
  532MOL0     H70180  -0.393  10.067   5.003  0.6968 -2.2497  0.4203
  532MOL0     H70181  -0.331  10.127   4.849  1.9046 -2.7208 -0.7400
  532MOL0     H70182  -0.222  10.276   5.071 -0.6416 -0.0317  0.7097
  532MOL0     H70183  -0.283  10.331   4.920  0.2127 -0.6977 -0.8906
  532MOL0     H70184  -0.420  10.406   5.116  0.0757 -0.0567  2.5613
  532MOL0     H70185  -0.476  10.233   5.123 -0.2029 -0.3485 -0.8395
  532MOL0     H70186  -0.708  10.355   4.784  3.2096  0.5869  1.4791
  532MOL0     H70187  -0.947  10.447   4.812 -1.5198  1.8136  2.3296
  532MOL0     H70188  -1.325  10.512   5.118 -1.8086 -3.6632 -1.9048
  532MOL0     H70189  -1.566  10.590   5.115 -0.0427  1.2845 -0.4160
  532MOL0     H70190  -1.834  10.811   4.823 -0.4128  0.5076  0.4166
  532MOL0     H70191  -1.682  10.808   4.742  0.3667 -1.3649  0.7038
  532MOL0     H70192  -1.568  10.961   4.905  0.4783  0.4766  4.3589
  532MOL0     H70193  -1.697  10.920   5.021 -1.7354 -0.3612 -0.6561
  532MOL0     H70194  -1.725  11.144   4.890 -0.2821 -0.6732  0.3237
  532MOL0     H70195  -1.861  11.038   4.864  0.4300  0.3333  1.6822
  532MOL0     H70196  -1.629  11.056   4.681 -0.2421 -1.8277 -1.8862
  532MOL0     H70197  -1.795  10.971   4.669 -1.9225  0.3408  2.4949
  532MOL0     H70198  -1.743  11.259   4.661  0.8416 -0.6684  1.1279
  532MOL0     H70199  -1.903  11.195   4.709  0.6720  1.4133  0.2543
  532MOL0     H70200  -1.937  11.070   4.514 -1.2131  1.1843  1.8843
  532MOL0     H70201  -1.775  11.104   4.456 -1.2646 -1.7759 -0.5118
  532MOL0     H70202  -2.000  11.312   4.486  1.0583  3.2744  0.3318
  532MOL0     H70203  -1.829  11.339   4.439  1.3688 -0.7133  0.5116
  532MOL0     H70204  -2.041  11.184   4.288 -1.0624  2.7328  1.5290
  532MOL0     H70205  -1.858  11.184   4.248  1.1862  0.4014  0.2600
  532MOL0     H70206  -1.498  10.717   4.708 -0.6052  1.1756  0.8441
  532MOL0     H70207  -1.280  10.638   4.714  0.7737  0.6078  0.5689
  532MOL0     H70208  -0.857  10.524   5.224  3.3619 -1.4497  1.2731
  532MOL0     H70209  -0.650  10.414   5.199  1.5009  0.6969 -1.0419
  532MOL0     H70210   0.254   9.141   4.228 -0.1952  0.3059  0.4350
  532MOL0     H70211   0.473   9.020   4.243  1.2571  1.9190 -1.1453
  532MOL0     H70212   0.853   9.014   4.296  1.4579  0.4911 -1.0656
  532MOL0     H70213   1.075   8.925   4.238 -2.1620 -0.2745 -0.4295
  532MOL0     H70214   1.290   8.950   4.246  2.0087  0.4322 -0.2304
  532MOL0     H70215   1.319   8.778   4.269  0.7231  1.8415 -4.9239
  532MOL0     H70216   1.485   9.017   4.289 -1.0961 -0.4677 -0.6244
  532MOL0     H70217   1.516   8.916   4.423  3.6437  4.3558 -1.2877
  532MOL0     H70218   1.664   8.880   4.206  1.1359 -1.6678 -1.0009
  532MOL0     H70219   1.517   8.807   4.145 -1.8576 -1.5660  1.2108
  532MOL0     H70220   1.532   8.636   4.328  1.6611 -0.7004  1.8251
  532MOL0     H70221   1.679   8.647   4.223  0.4846  0.5595 -0.5969
  532MOL0     H70222   1.825   8.770   4.605  0.5229  0.6145 -0.9026
  532MOL0     H70223   1.156   8.941   4.664 -3.9018  0.0453  3.1450
  532MOL0     H70224   0.930   8.977   4.715 -1.5591 -2.2461 -0.0467
  533MOL0     O70225   7.466   7.885   0.136 -0.3829 -0.0472  0.7682
  533MOL0     C70226   7.562   7.912   0.197  0.4107  0.1541 -0.7399
  533MOL0     O70227   7.601   7.852   0.313 -0.4516 -0.1032  0.1461
  533MOL0     C70228   7.505   7.828   0.408  0.6646 -0.9056  0.4443
  533MOL0     C70229   7.379   7.895   0.425 -0.3276  0.0910  1.0945
  533MOL0     C70230   7.283   7.841   0.511 -0.3251  0.1859 -0.0351
  533MOL0     C70231   7.315   7.727   0.589 -0.8052 -0.5998 -0.5049
  533MOL0     O70232   7.239   7.677   0.694  0.2793  0.2998  0.0669
  533MOL0     C70233   7.107   7.715   0.706  0.2018 -0.4311  0.0711
  533MOL0     C70234   7.027   7.620   0.806 -0.5383  0.3253 -0.0059
  533MOL0     C70235   6.877   7.677   0.820 -0.4195 -1.2115  0.8019
  533MOL0     C70236   6.797   7.605   0.924 -0.0420  0.1235  0.2004
  533MOL0     C70237   6.644   7.644   0.920 -0.3254 -0.2048  0.3719
  533MOL0     C70238   6.589   7.569   1.041  0.1114 -0.1184  0.4783
  533MOL0     C70239   6.452   7.623   1.072 -0.0414  0.1767  0.3039
  533MOL0     C70240   6.383   7.536   1.177 -0.1129  0.1537  0.1049
  533MOL0     N70241   6.238   7.564   1.188  0.4606 -0.2338 -0.6288
  533MOL0     C70242   6.186   7.643   1.284  0.8839  0.1715 -0.3386
  533MOL0     C70243   6.053   7.636   1.243  1.8155 -0.0766  0.0500
  533MOL0     C70244   5.940   7.694   1.316 -0.3498  0.3504 -0.6809
  533MOL0     C70245   5.794   7.661   1.267  0.0159  0.2793 -1.2942
  533MOL0     C70246   5.751   7.515   1.296 -1.1041 -0.5375  0.1616
  533MOL0     C70247   5.632   7.482   1.205  0.0418 -1.2392  0.5993
  533MOL0     O70248   5.589   7.351   1.229  0.1587  0.4075 -0.4444
  533MOL0     C70249   5.458   7.314   1.270 -0.6199 -0.4874  0.6056
  533MOL0     C70250   5.436   7.198   1.338  1.0587 -0.5728 -0.3665
  533MOL0     C70251   5.306   7.156   1.375 -0.2516 -0.1802  0.0958
  533MOL0     C70252   5.206   7.251   1.351  0.1560  0.1470  1.0250
  533MOL0     C70253   5.062   7.239   1.397 -0.3430 -0.0605 -0.1263
  533MOL0     O70254   5.024   7.113   1.439  0.5732 -0.7952  0.2969
  533MOL0     C70255   4.890   7.089   1.460 -0.3772  0.4529 -0.0929
  533MOL0     C70256   4.801   7.158   1.546  0.8419 -0.8695  0.3704
  533MOL0     C70257   4.674   7.115   1.576 -0.3036 -0.1749  0.0302
  533MOL0     C70258   4.624   6.997   1.513  0.1531 -0.9015  0.7815
  533MOL0     O70259   4.499   6.953   1.553  0.4841 -0.0674  0.1728
  533MOL0     C70260   4.411   6.879   1.458 -0.3046 -1.2199 -1.1788
  533MOL0     C70261   4.263   6.888   1.497 -0.3522 -0.0960  0.4588
  533MOL0     C70262   4.199   7.020   1.458  0.3346  0.3243  0.4329
  533MOL0     C70263   4.060   7.047   1.502  0.6477 -0.0315  0.4352
  533MOL0     C70264   4.036   7.196   1.484  0.4710  0.2184 -0.2604
  533MOL0     C70265   3.918   7.258   1.572  0.5308 -0.0836  0.1633
  533MOL0     C70266   3.914   7.219   1.715  0.4074 -0.1034 -0.8634
  533MOL0     C70267   3.825   7.319   1.790  1.3374  0.4585 -0.2366
  533MOL0    Cl70268   3.643   7.286   1.760  0.3770 -0.4357 -0.0693
  533MOL0     C70269   4.699   6.933   1.419 -0.4392  0.0068  0.0837
  533MOL0     C70270   4.831   6.976   1.389 -0.4019 -0.1348 -0.4109
  533MOL0     O70271   4.993   7.334   1.408  0.8235  0.7446 -0.4033
  533MOL0     C70272   5.228   7.381   1.284 -0.2956  1.1115  0.4558
  533MOL0     C70273   5.357   7.396   1.231  0.3240 -0.7039  0.1866
  533MOL0     N70274   6.034   7.563   1.125  0.2825  0.4543 -0.5185
  533MOL0     N70275   6.147   7.533   1.082  0.1605 -0.6097  0.2579
  533MOL0     C70276   7.447   7.678   0.578 -0.5110  0.3288 -0.1075
  533MOL0     C70277   7.538   7.730   0.490 -0.1908 -0.0208 -0.0060
  533MOL0     C70278   7.641   8.034   0.152 -0.4566  0.8463 -0.5386
  533MOL0     C70279   7.622   8.096   0.025 -0.1943  0.2971 -0.3841
  533MOL0     C70280   7.691   8.208  -0.017 -1.0256  0.6105 -0.2886
  533MOL0     C70281   7.780   8.274   0.080 -0.5738  0.0479 -0.4468
  533MOL0     O70282   7.868   8.381   0.052  0.1164 -0.5729 -0.0681
  533MOL0     C70283   7.863   8.432  -0.078  0.0865  0.3979  0.5809
  533MOL0     C70284   7.753   8.537  -0.079  0.0464 -0.4646  0.2585
  533MOL0     C70285   7.790   8.685  -0.138  0.7684  0.3879  0.2499
  533MOL0     C70286   7.836   8.784  -0.033  0.5930  0.6322  0.0405
  533MOL0     C70287   7.826   8.922  -0.086 -0.1052 -0.6392  0.3347
  533MOL0     C70288   7.822   9.037  -0.141  0.2998  0.7728  0.0636
  533MOL0     C70289   7.783   8.214   0.212 -0.5327 -0.2141  0.6147
  533MOL0     C70290   7.726   8.094   0.248 -0.3300  1.3643 -0.3957
  533MOL0     H70291   7.354   7.983   0.368  1.1720 -0.3799 -0.3552
  533MOL0     H70292   7.184   7.886   0.512 -0.6544 -0.4672 -1.0178
  533MOL0     H70293   7.066   7.718   0.605  0.2461  0.7149  0.0705
  533MOL0     H70294   7.101   7.820   0.737  4.0560 -0.2804  0.8900
  533MOL0     H70295   7.082   7.614   0.900  1.1836  0.7805 -0.9477
  533MOL0     H70296   7.026   7.520   0.760  2.6739  0.7551 -1.2656
  533MOL0     H70297   6.833   7.661   0.721  1.2389  0.3401 -0.2559
  533MOL0     H70298   6.878   7.783   0.848 -2.0814 -1.2139  0.9218
  533MOL0     H70299   6.810   7.498   0.909 -3.7849 -1.0666  3.6700
  533MOL0     H70300   6.849   7.630   1.017  3.0575 -1.0141 -1.1106
  533MOL0     H70301   6.588   7.605   0.834 -1.9067 -1.8696  2.0726
  533MOL0     H70302   6.637   7.753   0.927  0.2844  0.0489 -1.9495
  533MOL0     H70303   6.663   7.584   1.120  0.1123  0.4561  0.3775
  533MOL0     H70304   6.583   7.464   1.014 -0.3702  0.2602 -0.9728
  533MOL0     H70305   6.472   7.728   1.096  1.9947  0.1475 -0.9882
  533MOL0     H70306   6.386   7.606   0.987  0.5070  1.3939 -0.3928
  533MOL0     H70307   6.439   7.563   1.268 -0.1959 -0.2691  0.2860
  533MOL0     H70308   6.392   7.431   1.146 -1.1390 -0.6613  2.3221
  533MOL0     H70309   6.225   7.703   1.366 -1.1529 -0.6227  1.3170
  533MOL0     H70310   5.958   7.802   1.316 -2.3830  0.7266 -1.4895
  533MOL0     H70311   5.951   7.653   1.417 -0.9869  0.6525 -0.4815
  533MOL0     H70312   5.782   7.701   1.166 -0.2686  2.2558 -0.5273
  533MOL0     H70313   5.725   7.718   1.330 -2.0305 -3.0027 -0.3288
  533MOL0     H70314   5.833   7.445   1.275 -1.4219 -0.0891 -2.9388
  533MOL0     H70315   5.725   7.504   1.402  0.6650 -0.9873  0.5923
  533MOL0     H70316   5.650   7.506   1.100  1.0699  2.0841  1.4116
  533MOL0     H70317   5.561   7.550   1.254  1.2326 -0.5188  1.3777
  533MOL0     H70318   5.522   7.136   1.363  1.6664  1.2100  2.3707
  533MOL0     H70319   5.298   7.072   1.443 -1.5235 -0.2954 -0.1708
  533MOL0     H70320   4.840   7.245   1.597  1.0251  0.6030 -2.1115
  533MOL0     H70321   4.614   7.170   1.647  1.5658  1.5973  0.3594
  533MOL0     H70322   4.440   6.774   1.468 -0.4082 -1.4259 -2.7822
  533MOL0     H70323   4.429   6.912   1.355 -1.9247  4.0677 -0.0767
  533MOL0     H70324   4.259   6.881   1.607 -0.2729 -0.5653  0.4319
  533MOL0     H70325   4.214   6.803   1.448 -3.7194  1.9669 -0.0839
  533MOL0     H70326   4.196   7.027   1.349 -0.6355 -1.5224  0.2965
  533MOL0     H70327   4.271   7.091   1.500 -1.5951  2.3541  0.4984
  533MOL0     H70328   3.980   6.995   1.449 -2.1907  0.6745  3.6247
  533MOL0     H70329   4.048   7.026   1.609 -3.4597  0.9654  0.3384
  533MOL0     H70330   4.012   7.196   1.378 -0.6683 -4.9062 -0.2787
  533MOL0     H70331   4.132   7.247   1.494  0.6276 -0.1748  0.3512
  533MOL0     H70332   3.819   7.245   1.528  0.3490  1.3078  0.1236
  533MOL0     H70333   3.933   7.366   1.570  0.4742 -0.0109  2.1832
  533MOL0     H70334   3.873   7.117   1.710 -4.2449  1.4953 -0.7583
  533MOL0     H70335   4.013   7.214   1.761  0.2781 -2.4725 -0.6888
  533MOL0     H70336   3.856   7.420   1.763 -1.6338  0.7958 -3.0935
  533MOL0     H70337   3.845   7.298   1.896 -2.8213 -0.6096  0.5425
  533MOL0     H70338   4.652   6.849   1.370 -2.9623 -0.0855  2.4621
  533MOL0     H70339   4.903   6.921   1.329  2.0601  1.9351  0.4709
  533MOL0     H70340   5.147   7.451   1.268 -3.5787 -1.0751  5.1066
  533MOL0     H70341   5.377   7.478   1.164 -2.9491  0.8310  0.8983
  533MOL0     H70342   7.467   7.584   0.630 -1.2708 -0.7789 -1.7183
  533MOL0     H70343   7.640   7.691   0.495  0.2814  1.2463  1.1697
  533MOL0     H70344   7.561   8.044  -0.048 -0.7840  0.3694  0.0579
  533MOL0     H70345   7.673   8.242  -0.119 -0.6631 -0.1365 -0.6091
  533MOL0     H70346   7.851   8.360  -0.159 -0.6297  2.7021 -1.5207
  533MOL0     H70347   7.954   8.484  -0.108  0.1278 -1.2752 -2.6355
  533MOL0     H70348   7.686   8.500  -0.157  0.9339 -0.4131 -0.5382
  533MOL0     H70349   7.716   8.544   0.024 -0.8764  0.6449 -0.1292
  533MOL0     H70350   7.688   8.718  -0.161  0.2183 -0.0291  1.9557
  533MOL0     H70351   7.851   8.688  -0.228  2.2364 -0.9851  1.1538
  533MOL0     H70352   7.773   8.773   0.055 -0.2688 -2.5073 -0.8420
  533MOL0     H70353   7.939   8.752  -0.012  0.9021  1.1064 -0.6720
  533MOL0     H70354   7.815   9.132  -0.190  3.2792 -0.0806 -2.3009
  533MOL0     H70355   7.853   8.244   0.289  0.9397 -2.3832  0.2223
  533MOL0     H70356   7.737   8.055   0.349  0.3925 -3.9160 -2.1729
  534MOL0     O70357   8.651   0.291   0.123  0.3319 -0.1227 -0.2332
  534MOL0     C70358   8.730   0.291   0.029  0.4167  0.7576 -0.6605
  534MOL0     O70359   8.704   0.245  -0.094  0.6503 -0.4238  0.2691
  534MOL0     C70360   8.573   0.249  -0.135  0.2960 -0.6199  0.2702
  534MOL0     C70361   8.505   0.365  -0.182  0.4440 -1.1489 -0.1416
  534MOL0     C70362   8.366   0.352  -0.219 -0.7437 -0.1891 -0.4992
  534MOL0     C70363   8.293   0.233  -0.205  0.3896  0.4510 -0.0292
  534MOL0     O70364   8.169   0.223  -0.261 -0.3476 -0.2818 -0.0532
  534MOL0     C70365   8.082   0.104  -0.241 -0.9608  0.4795 -0.2965
  534MOL0     C70366   7.956   0.111  -0.330  0.2171  0.0084 -0.2153
  534MOL0     C70367   7.989   0.117  -0.485 -0.1689  1.5834 -1.1302
  534MOL0     C70368   7.861   0.129  -0.570 -0.2358 -0.2275  0.6140
  534MOL0     C70369   7.881   0.131  -0.721 -0.3642 -0.0301  0.7205
  534MOL0     C70370   7.758   0.155  -0.789 -0.6642 -0.5174 -0.0019
  534MOL0     C70371   7.773   0.163  -0.942 -0.5437 -0.5953 -0.2483
  534MOL0     C70372   7.835   0.301  -0.978  0.5172 -0.1080 -0.0850
  534MOL0     N70373   7.751   0.417  -0.943 -0.0760  0.3238 -0.7121
  534MOL0     C70374   7.652   0.460  -1.023 -0.2961 -0.1883  1.0119
  534MOL0     C70375   7.610   0.574  -0.966  0.3770  0.1937  0.1843
  534MOL0     C70376   7.500   0.655  -1.019  0.5702 -0.7566  0.2391
  534MOL0     C70377   7.360   0.591  -1.012 -0.2704  0.0443 -0.1289
  534MOL0     C70378   7.260   0.695  -0.956 -0.2399 -0.3195 -0.1005
  534MOL0     C70379   7.113   0.634  -0.962 -0.6152 -0.9342  0.2791
  534MOL0     O70380   7.068   0.595  -1.089  0.0633 -0.4550  0.1817
  534MOL0     C70381   6.932   0.583  -1.088 -0.2407 -0.4291 -0.5550
  534MOL0     C70382   6.871   0.465  -1.034 -0.0246 -0.7359 -0.9224
  534MOL0     C70383   6.736   0.450  -1.043  0.6930 -0.9413  0.5097
  534MOL0     C70384   6.657   0.552  -1.105  0.4775 -0.6478  0.2122
  534MOL0     C70385   6.508   0.547  -1.116 -0.8800  0.8552 -0.5303
  534MOL0     O70386   6.458   0.452  -1.043  0.0474  0.1268 -0.2884
  534MOL0     C70387   6.318   0.442  -1.023 -0.5223 -0.1220  1.0543
  534MOL0     C70388   6.285   0.387  -0.901 -0.0366 -0.0262  0.9122
  534MOL0     C70389   6.150   0.358  -0.879 -0.5248  0.2278  0.0456
  534MOL0     C70390   6.042   0.401  -0.962  0.3964  0.1595  0.6961
  534MOL0     O70391   5.912   0.389  -0.921 -0.5806  0.3596  0.0684
  534MOL0     C70392   5.803   0.421  -1.008  0.6383 -0.8371  0.2879
  534MOL0     C70393   5.658   0.396  -0.952  0.2166  0.2410 -0.3694
  534MOL0     C70394   5.559   0.489  -1.029 -0.1415  0.6356 -0.1691
  534MOL0     C70395   5.412   0.458  -0.980  0.8657  1.0691  0.6781
  534MOL0     C70396   5.308   0.557  -1.025 -0.1423 -0.3099  0.3888
  534MOL0     C70397   5.180   0.535  -0.955 -0.1364  0.4120  0.5552
  534MOL0     C70398   5.087   0.418  -0.990 -1.4547  0.4169  1.4675
  534MOL0     C70399   4.943   0.452  -0.985 -0.5839  0.4094  0.8005
  534MOL0    Cl70400   4.894   0.465  -0.807 -0.0237  0.2180  0.0393
  534MOL0     C70401   6.086   0.446  -1.087  1.0227 -0.6585 -0.2963
  534MOL0     C70402   6.215   0.481  -1.114  0.3478 -1.1643 -0.4095
  534MOL0     O70403   6.442   0.635  -1.172  0.1241  0.0024 -0.6452
  534MOL0     C70404   6.716   0.666  -1.154 -0.6986 -0.2208 -0.7309
  534MOL0     C70405   6.854   0.684  -1.143  0.0192 -0.1041  0.0098
  534MOL0     N70406   7.691   0.608  -0.863  0.2916  0.2661  0.7590
  534MOL0     N70407   7.777   0.507  -0.842  0.0548  0.0810 -0.2082
  534MOL0     C70408   8.363   0.130  -0.145 -0.8223 -0.3432  0.2115
  534MOL0     C70409   8.499   0.142  -0.114 -0.1956  0.1227 -0.6448
  534MOL0     C70410   8.876   0.321   0.055 -0.8488 -0.1602  0.6696
  534MOL0     C70411   8.908   0.347   0.189 -0.2545 -0.5355 -0.3537
  534MOL0     C70412   9.046   0.366   0.216 -0.7186 -0.5385  1.2319
  534MOL0     C70413   9.144   0.368   0.117 -0.8827  0.0140 -0.1581
  534MOL0     O70414   9.281   0.379   0.157 -0.2008  0.8167 -0.1896
  534MOL0     C70415   9.377   0.413   0.049  0.1948  0.1589  0.0097
  534MOL0     C70416   9.514   0.445   0.120 -0.7204  0.8864  0.0727
  534MOL0     C70417   9.511   0.598   0.169 -0.1729  0.2924 -0.2254
  534MOL0     C70418   9.536   0.695   0.056  0.6091 -0.3603  0.8265
  534MOL0     C70419   9.672   0.673  -0.007 -0.5797 -0.4443 -0.2731
  534MOL0     C70420   9.779   0.632  -0.043  0.2841  0.2931 -0.2012
  534MOL0     C70421   9.107   0.342  -0.013  0.0510 -1.1005  0.1992
  534MOL0     C70422   8.976   0.324  -0.042  0.8272  0.1033 -0.1603
  534MOL0     H70423   8.563   0.455  -0.201  1.4452 -1.3233  1.8540
  534MOL0     H70424   8.318   0.445  -0.249  0.3259  0.5376 -0.0058
  534MOL0     H70425   8.054   0.100  -0.136 -1.4951  0.8332 -0.4212
  534MOL0     H70426   8.138   0.013  -0.262  0.0541  1.0548 -0.1568
  534MOL0     H70427   7.883   0.185  -0.297 -0.9607 -1.2386  0.0582
  534MOL0     H70428   7.900   0.019  -0.310 -0.8860  0.7221  0.0714
  534MOL0     H70429   8.050   0.034  -0.520  0.0731  1.3768 -0.2335
  534MOL0     H70430   8.059   0.200  -0.500  0.5161  1.5674  1.5013
  534MOL0     H70431   7.808   0.033  -0.562 -1.8241  0.2020 -2.9700
  534MOL0     H70432   7.812   0.221  -0.537  4.1409  1.6519  2.6361
  534MOL0     H70433   7.932   0.045  -0.765 -0.7493  1.4250 -2.9059
  534MOL0     H70434   7.953   0.212  -0.737  2.4930 -2.4624  0.2889
  534MOL0     H70435   7.718   0.250  -0.752  1.1232  0.7685 -1.2513
  534MOL0     H70436   7.684   0.076  -0.770 -0.7017 -0.8130 -1.3105
  534MOL0     H70437   7.822   0.085  -1.001  2.2162  0.8111  0.0387
  534MOL0     H70438   7.673   0.169  -0.988 -1.2694  1.6726  1.4526
  534MOL0     H70439   7.855   0.303  -1.086  4.1270  2.0191  0.4348
  534MOL0     H70440   7.936   0.318  -0.940 -0.4491  0.0842  2.5835
  534MOL0     H70441   7.612   0.412  -1.112  1.0642 -4.0443  2.2264
  534MOL0     H70442   7.521   0.659  -1.127 -1.6342 -2.1224 -0.3072
  534MOL0     H70443   7.503   0.753  -0.971 -0.4055  0.0702 -1.3045
  534MOL0     H70444   7.361   0.509  -0.940  0.9505 -0.1475 -0.3463
  534MOL0     H70445   7.320   0.548  -1.104 -0.4757 -1.0759  0.4716
  534MOL0     H70446   7.275   0.731  -0.854 -1.3566 -2.9733  1.1056
  534MOL0     H70447   7.250   0.786  -1.015 -1.1256  0.2205  0.8517
  534MOL0     H70448   7.051   0.712  -0.917  1.5676  0.3034  1.3516
  534MOL0     H70449   7.108   0.544  -0.900 -0.6210 -2.6602 -2.0748
  534MOL0     H70450   6.938   0.382  -1.009 -0.2926 -0.6741  0.0332
  534MOL0     H70451   6.681   0.366  -1.002  0.8872 -1.4220 -0.1839
  534MOL0     H70452   6.361   0.353  -0.832  1.0706  1.6946  0.5931
  534MOL0     H70453   6.131   0.303  -0.788 -2.2425 -2.0231 -1.5668
  534MOL0     H70454   5.815   0.380  -1.108 -2.4202  0.1869 -0.5932
  534MOL0     H70455   5.814   0.529  -1.026  1.9162 -0.7027  1.5998
  534MOL0     H70456   5.662   0.423  -0.846 -1.7970  1.4639 -0.5480
  534MOL0     H70457   5.632   0.290  -0.955 -0.6841  0.4132  0.6065
  534MOL0     H70458   5.561   0.463  -1.136 -1.8770 -0.0094 -0.0829
  534MOL0     H70459   5.593   0.592  -1.014  1.8524  0.5179 -2.9916
  534MOL0     H70460   5.382   0.356  -1.006  1.2912  0.1508  3.3888
  534MOL0     H70461   5.407   0.458  -0.871 -1.8574  0.5640  0.6048
  534MOL0     H70462   5.299   0.552  -1.133  0.0057  2.3230  0.1968
  534MOL0     H70463   5.335   0.659  -0.998  0.9498 -0.5469  0.2337
  534MOL0     H70464   5.117   0.625  -0.955  1.9935  1.9828  0.8234
  534MOL0     H70465   5.208   0.519  -0.851  1.7265  1.9785  0.3587
  534MOL0     H70466   5.117   0.398  -1.093  1.5083  2.4127  1.8271
  534MOL0     H70467   5.113   0.334  -0.925  1.0446  0.6620  0.8708
  534MOL0     H70468   4.882   0.381  -1.042  1.8891 -1.5052  0.3593
  534MOL0     H70469   4.936   0.538  -1.052  0.3273 -1.8056 -2.3467
  534MOL0     H70470   6.019   0.491  -1.159  2.4981  0.8287 -0.7889
  534MOL0     H70471   6.237   0.541  -1.202  0.8251  2.2481  1.8254
  534MOL0     H70472   6.661   0.741  -1.209 -0.0922  2.3389  1.8905
  534MOL0     H70473   6.905   0.770  -1.184  0.8079 -0.1980  0.7579
  534MOL0     H70474   8.324   0.032  -0.118 -0.6517 -0.2632  0.7544
  534MOL0     H70475   8.558   0.066  -0.063  0.0818  1.8931  1.8126
  534MOL0     H70476   8.834   0.349   0.268  0.2359  2.2377  0.1600
  534MOL0     H70477   9.068   0.369   0.322  2.2273  0.5155  0.6862
  534MOL0     H70478   9.349   0.491  -0.022 -0.8211 -1.3664 -1.3363
  534MOL0     H70479   9.381   0.318  -0.005 -1.1582 -0.2587  0.6038
  534MOL0     H70480   9.530   0.380   0.206  6.6739  0.1683 -1.2389
  534MOL0     H70481   9.593   0.417   0.050  0.9722  2.7175  1.1459
  534MOL0     H70482   9.583   0.621   0.247  1.3559  0.3390 -1.5996
  534MOL0     H70483   9.410   0.621   0.204 -0.7824  1.8360 -2.6800
  534MOL0     H70484   9.458   0.686  -0.020 -0.8079  2.2241  1.8598
  534MOL0     H70485   9.544   0.796   0.096  2.0527  0.3241 -1.0598
  534MOL0     H70486   9.872   0.591  -0.074  1.0597  1.5990  0.3331
  534MOL0     H70487   9.174   0.321  -0.096 -0.0533  1.1344 -0.5206
  534MOL0     H70488   8.946   0.299  -0.143 -3.1395 -2.3037  1.4118
  535MOL0     O70489   5.550   0.768   4.935 -0.8152 -0.8392 -0.1925
  535MOL0     C70490   5.634   0.862   4.962 -0.8419 -0.2486  0.8235
  535MOL0     O70491   5.718   0.872   5.070  0.4488 -0.2577  0.5710
  535MOL0     C70492   5.705   0.781   5.177 -0.3473  0.2786  0.2283
  535MOL0     C70493   5.585   0.773   5.247  0.2694  0.6317  0.0267
  535MOL0     C70494   5.581   0.692   5.361  0.3867  1.2311 -0.0562
  535MOL0     C70495   5.694   0.606   5.388 -0.6369  0.4175 -1.0769
  535MOL0     O70496   5.700   0.506   5.485  0.2814 -0.4851 -0.2408
  535MOL0     C70497   5.584   0.481   5.568 -0.1901 -0.4717 -0.5115
  535MOL0     C70498   5.618   0.371   5.653  0.7192  0.4946  0.9562
  535MOL0     C70499   5.510   0.349   5.748  0.7682  0.5304 -1.0129
  535MOL0     C70500   5.535   0.213   5.821 -0.1581 -0.0178 -0.0627
  535MOL0     C70501   5.439   0.204   5.941 -0.0909 -0.5757  0.8638
  535MOL0     C70502   5.286   0.171   5.895 -0.8920 -0.0997 -0.1383
  535MOL0     C70503   5.203   0.109   6.006 -0.7218  0.7428  0.1901
  535MOL0     C70504   5.209   0.177   6.143 -0.6852  1.0710 -0.1855
  535MOL0     N70505   5.145   0.087   6.236 -0.0348 -0.3636  0.1931
  535MOL0     C70506   5.013   0.084   6.269 -0.1079  0.0742  0.6647
  535MOL0     C70507   4.998   0.037   6.396  0.9167 -0.4831  0.0653
  535MOL0     C70508   4.865   0.038   6.485 -0.1095 -0.0059  0.1200
  535MOL0     C70509   4.735  -0.026   6.431 -0.1708 -0.2006  0.1272
  535MOL0     C70510   4.769  -0.159   6.356  0.8994 -0.4292  0.6575
  535MOL0     C70511   4.634  -0.219   6.308 -0.2706  0.2882 -0.5067
  535MOL0     O70512   4.560  -0.242   6.428  0.1269  0.7665  0.3135
  535MOL0     C70513   4.443  -0.314   6.435  0.2767 -0.0499  0.4900
  535MOL0     C70514   4.400  -0.409   6.348 -0.0207 -0.0021  0.4220
  535MOL0     C70515   4.273  -0.470   6.357 -0.3799  0.1989  0.7808
  535MOL0     C70516   4.190  -0.432   6.467 -1.1973 -0.9145  0.5047
  535MOL0     C70517   4.070  -0.488   6.503  0.2084  0.9927 -0.5957
  535MOL0     O70518   3.986  -0.410   6.575  0.1282  0.4531  0.0540
  535MOL0     C70519   3.856  -0.448   6.596  1.1469 -0.5036 -0.4510
  535MOL0     C70520   3.749  -0.363   6.544 -0.2303 -0.4239  0.0371
  535MOL0     C70521   3.621  -0.390   6.581  1.2106  0.0100  0.1681
  535MOL0     C70522   3.589  -0.510   6.658 -0.1554  1.0410  0.0805
  535MOL0     O70523   3.461  -0.551   6.673 -0.0267 -0.2631 -0.1530
  535MOL0     C70524   3.372  -0.471   6.744  1.1704  0.1215  0.6419
  535MOL0     C70525   3.231  -0.532   6.699  0.4264  0.3439 -0.3877
  535MOL0     C70526   3.109  -0.456   6.766 -0.2602  0.2871  0.0491
  535MOL0     C70527   3.068  -0.331   6.683 -0.0093  0.4502  0.4050
  535MOL0     C70528   2.918  -0.291   6.701 -0.6394  0.3395 -0.0776
  535MOL0     C70529   2.903  -0.177   6.811 -0.0250 -0.1400  0.5579
  535MOL0     C70530   2.964  -0.047   6.760  0.2384 -0.6320 -0.2405
  535MOL0     C70531   3.059   0.023   6.864 -0.8278 -0.5273 -0.5100
  535MOL0    Cl70532   3.211  -0.074   6.900 -0.1114 -0.5503  0.4713
  535MOL0     C70533   3.687  -0.602   6.675 -0.5938 -0.5830 -0.4231
  535MOL0     C70534   3.820  -0.571   6.653 -0.2325 -0.6277  0.1285
  535MOL0     O70535   4.052  -0.606   6.465  0.3150  0.6279 -0.0466
  535MOL0     C70536   4.237  -0.331   6.559 -0.5111  0.2212  0.8990
  535MOL0     C70537   4.365  -0.282   6.541 -0.5423  0.0908  0.0546
  535MOL0     N70538   5.126  -0.005   6.432  1.0089 -0.6603  0.2639
  535MOL0     N70539   5.210   0.021   6.339 -0.7946 -0.4921  0.1275
  535MOL0     C70540   5.808   0.619   5.312 -0.2560 -1.0353  0.1786
  535MOL0     C70541   5.823   0.712   5.213  0.0526 -0.3200  0.3972
  535MOL0     C70542   5.655   0.959   4.856  0.2139 -0.2072  0.3499
  535MOL0     C70543   5.749   1.064   4.875  0.4875  0.1111 -0.5109
  535MOL0     C70544   5.774   1.159   4.778 -0.9512 -0.0181  0.8589
  535MOL0     C70545   5.719   1.138   4.651  0.5527  0.1480 -0.3451
  535MOL0     O70546   5.741   1.224   4.547 -1.0432 -0.0840  0.3498
  535MOL0     C70547   5.759   1.362   4.588 -0.1560  0.0208  0.0206
  535MOL0     C70548   5.785   1.452   4.465 -0.5470  1.0796 -0.9031
  535MOL0     C70549   5.638   1.487   4.405 -0.1478  0.4134 -0.1478
  535MOL0     C70550   5.553   1.578   4.493  0.9572 -0.4147  0.4141
  535MOL0     C70551   5.427   1.611   4.437 -0.7733  0.1887 -0.2080
  535MOL0     C70552   5.306   1.614   4.394  0.0942  0.3058 -0.3610
  535MOL0     C70553   5.620   1.032   4.629 -0.8441  0.0768  0.1458
  535MOL0     C70554   5.591   0.943   4.726  0.0100  0.6099 -0.0253
  535MOL0     H70555   5.496   0.821   5.208  1.1642  0.6123 -2.2209
  535MOL0     H70556   5.491   0.678   5.420 -0.6050  3.2361 -0.9706
  535MOL0     H70557   5.493   0.456   5.512 -0.2799  1.2240 -1.1764
  535MOL0     H70558   5.553   0.567   5.629 -1.3952 -1.7573  0.7631
  535MOL0     H70559   5.712   0.386   5.706  2.0836  0.8093 -1.4063
  535MOL0     H70560   5.626   0.288   5.582  2.0664 -0.9458  2.7043
  535MOL0     H70561   5.415   0.328   5.698 -0.8066  0.9996  1.6236
  535MOL0     H70562   5.507   0.436   5.814  3.1783  2.2631 -2.9717
  535MOL0     H70563   5.524   0.124   5.758 -3.3065  0.8843 -0.9975
  535MOL0     H70564   5.631   0.214   5.874 -0.7305  1.5408  1.0260
  535MOL0     H70565   5.442   0.290   6.008  0.7678  0.5391 -0.5624
  535MOL0     H70566   5.470   0.118   6.001 -1.4114 -0.5699  1.5872
  535MOL0     H70567   5.289   0.098   5.814 -1.1029  1.4282 -1.6058
  535MOL0     H70568   5.251   0.267   5.854  1.9391  1.9441  1.8874
  535MOL0     H70569   5.097   0.105   5.978  0.0213 -1.1468 -2.7725
  535MOL0     H70570   5.249   0.010   6.017  3.4585  1.9145 -3.7709
  535MOL0     H70571   5.152   0.270   6.134 -1.0254  0.7475 -1.6439
  535MOL0     H70572   5.313   0.196   6.171 -0.3749 -1.8043  1.0179
  535MOL0     H70573   4.938   0.143   6.217 -1.8407 -1.0729  1.7659
  535MOL0     H70574   4.835   0.143   6.497 -2.3366  0.0815 -4.3281
  535MOL0     H70575   4.901   0.003   6.582  2.9895 -2.1875 -1.6463
  535MOL0     H70576   4.690   0.047   6.363  0.3784 -0.6595 -0.7600
  535MOL0     H70577   4.662  -0.039   6.511 -0.7211 -0.2340 -0.3744
  535MOL0     H70578   4.823  -0.134   6.263  0.9693 -1.9671  0.2501
  535MOL0     H70579   4.822  -0.225   6.425  1.5358 -1.9804 -1.2182
  535MOL0     H70580   4.657  -0.320   6.273 -1.4876 -1.0211  2.1227
  535MOL0     H70581   4.566  -0.157   6.249 -2.8346  1.8157  3.5624
  535MOL0     H70582   4.467  -0.454   6.276  2.2553 -0.4744  2.6714
  535MOL0     H70583   4.235  -0.544   6.287 -3.5931  3.5125 -1.3113
  535MOL0     H70584   3.768  -0.263   6.507  0.5697  1.2191  4.3484
  535MOL0     H70585   3.540  -0.325   6.552 -1.7547 -1.6860  3.8286
  535MOL0     H70586   3.377  -0.364   6.722 -1.7513  0.0702 -0.7601
  535MOL0     H70587   3.401  -0.488   6.848  2.5170 -3.4889 -0.1758
  535MOL0     H70588   3.231  -0.633   6.740 -0.9430  0.1585 -0.7860
  535MOL0     H70589   3.219  -0.529   6.591  2.7443 -1.5673 -0.7700
  535MOL0     H70590   3.135  -0.418   6.865 -0.5198  1.4563 -0.3101
  535MOL0     H70591   3.023  -0.521   6.787 -0.2218  1.2162  3.7174
  535MOL0     H70592   3.124  -0.241   6.711 -1.2316  2.1386 -2.2617
  535MOL0     H70593   3.076  -0.364   6.579  0.8285 -3.5595  1.5470
  535MOL0     H70594   2.856  -0.379   6.722 -2.0950  1.1380 -0.8229
  535MOL0     H70595   2.885  -0.250   6.605 -3.8237 -0.8049  0.3849
  535MOL0     H70596   2.954  -0.215   6.900 -0.7254 -3.2115 -0.2275
  535MOL0     H70597   2.799  -0.153   6.834 -0.0344  1.2151 -0.8017
  535MOL0     H70598   3.019  -0.066   6.667  0.8399  1.0005 -0.2522
  535MOL0     H70599   2.881   0.017   6.730  1.1379  0.3003 -0.8611
  535MOL0     H70600   2.996   0.020   6.953 -1.3971  0.1601 -0.8766
  535MOL0     H70601   3.073   0.128   6.835  1.1044  0.4852  3.4119
  535MOL0     H70602   3.660  -0.701   6.713  1.2190 -1.2283 -0.7363
  535MOL0     H70603   3.889  -0.650   6.683 -0.1114  0.2821  2.4787
  535MOL0     H70604   4.185  -0.302   6.650  0.4383  2.0052  0.9271
  535MOL0     H70605   4.400  -0.216   6.619  3.5562 -0.5987 -0.9807
  535MOL0     H70606   5.896   0.558   5.327  0.3561 -1.7577 -4.8316
  535MOL0     H70607   5.917   0.697   5.161  0.7799 -3.5910  2.4080
  535MOL0     H70608   5.799   1.074   4.971  2.1013 -4.7226 -0.5807
  535MOL0     H70609   5.855   1.229   4.799 -0.1652 -1.3769  2.7633
  535MOL0     H70610   5.860   1.361   4.630  0.2984  0.1854 -1.0443
  535MOL0     H70611   5.674   1.391   4.650  0.6131  0.0600  1.0865
  535MOL0     H70612   5.827   1.545   4.504 -1.2678  0.9344  0.3013
  535MOL0     H70613   5.857   1.400   4.402  0.0639 -0.5378  0.9934
  535MOL0     H70614   5.587   1.395   4.375 -1.5388  1.5520 -1.4777
  535MOL0     H70615   5.668   1.542   4.315  2.6482 -1.5949 -0.5565
  535MOL0     H70616   5.530   1.541   4.593 -1.1303  0.7823  0.4280
  535MOL0     H70617   5.605   1.673   4.511 -0.2027 -0.2088  3.0239
  535MOL0     H70618   5.202   1.623   4.374  0.1640  0.0759 -0.8397
  535MOL0     H70619   5.571   1.025   4.532 -0.6432 -0.6824  0.0889
  535MOL0     H70620   5.517   0.866   4.703 -0.5398  1.3820 -0.9012
  536MOL0     O70621   8.138   4.699   2.834  0.0597 -0.2151 -0.0497
  536MOL0     C70622   8.103   4.791   2.762 -0.0214  0.3667  1.1702
  536MOL0     O70623   8.045   4.783   2.643  0.1113 -0.1327  0.8513
  536MOL0     C70624   8.046   4.657   2.581 -0.3655 -0.3918  0.4272
  536MOL0     C70625   7.926   4.611   2.533  0.4989  0.0739 -0.0878
  536MOL0     C70626   7.914   4.488   2.467  0.5323 -0.1783  0.5383
  536MOL0     C70627   8.030   4.421   2.436  0.3643  1.2288  0.8999
  536MOL0     O70628   8.014   4.302   2.366 -0.0949  0.2696  0.3527
  536MOL0     C70629   8.031   4.187   2.458  0.3243 -0.6974 -0.1547
  536MOL0     C70630   8.024   4.057   2.383  0.1112 -0.2426  0.2923
  536MOL0     C70631   8.033   3.941   2.484  0.2165 -0.2486  0.2161
  536MOL0     C70632   7.898   3.899   2.544  0.0940  0.5659 -0.5600
  536MOL0     C70633   7.894   3.801   2.659 -0.2901  0.4818 -0.2529
  536MOL0     C70634   7.754   3.795   2.724 -0.0970 -0.6451  0.2439
  536MOL0     C70635   7.639   3.774   2.622 -0.2026 -0.3461 -0.6470
  536MOL0     C70636   7.653   3.646   2.550 -1.0091 -0.0983 -0.6221
  536MOL0     N70637   7.529   3.575   2.513  0.0775 -0.0469  0.1600
  536MOL0     C70638   7.431   3.627   2.438 -0.7282 -0.3452  0.1949
  536MOL0     C70639   7.320   3.546   2.469 -0.2598 -0.1506  0.1343
  536MOL0     C70640   7.180   3.569   2.444 -0.4217 -0.5252 -0.1014
  536MOL0     C70641   7.118   3.647   2.561  0.3038  0.2796  1.3599
  536MOL0     C70642   6.977   3.704   2.533 -0.4161 -1.0210  0.5027
  536MOL0     C70643   6.871   3.595   2.527 -0.9036 -0.4103 -0.2676
  536MOL0     O70644   6.760   3.652   2.461 -0.5008 -0.0936 -0.1267
  536MOL0     C70645   6.647   3.578   2.445  1.0209 -0.3879 -0.2562
  536MOL0     C70646   6.541   3.616   2.360  0.9005  0.3029 -0.8336
  536MOL0     C70647   6.433   3.530   2.337  0.5061 -0.5619  0.3534
  536MOL0     C70648   6.422   3.401   2.395 -0.7790 -0.7316  0.2993
  536MOL0     C70649   6.308   3.311   2.380  0.5287  0.0839  0.0894
  536MOL0     O70650   6.193   3.369   2.330  1.1335  0.4527  0.2074
  536MOL0     C70651   6.079   3.287   2.339  0.1991  0.1915  0.4502
  536MOL0     C70652   5.974   3.354   2.404  0.2012 -0.1701 -0.3086
  536MOL0     C70653   5.847   3.292   2.408 -0.0037 -1.0981 -1.1321
  536MOL0     C70654   5.830   3.163   2.359  0.0828 -0.0716  0.4806
  536MOL0     O70655   5.698   3.126   2.360 -0.7602  0.6385  0.5466
  536MOL0     C70656   5.664   3.001   2.290  0.0435  0.0329  0.6812
  536MOL0     C70657   5.518   2.982   2.272 -0.6270  0.2768 -0.0777
  536MOL0     C70658   5.456   3.091   2.178 -0.3109 -0.6707  0.4509
  536MOL0     C70659   5.299   3.096   2.187  0.3204 -0.3916  0.5741
  536MOL0     C70660   5.223   2.954   2.197  0.8104 -1.2956 -0.8909
  536MOL0     C70661   5.073   2.980   2.212 -0.5394 -0.7196 -0.5856
  536MOL0     C70662   5.011   2.837   2.237  0.3881 -0.0345 -0.6894
  536MOL0     C70663   4.863   2.849   2.289 -0.3915  0.3087 -0.2819
  536MOL0    Cl70664   4.804   2.681   2.338  0.2238 -0.2804 -0.1329
  536MOL0     C70665   5.939   3.088   2.301  0.7083 -0.2234 -0.2177
  536MOL0     C70666   6.063   3.157   2.288 -0.8394 -0.4706  0.0508
  536MOL0     O70667   6.311   3.198   2.423 -0.9638  0.1360 -0.1612
  536MOL0     C70668   6.528   3.366   2.475 -0.1316 -0.1707 -0.8162
  536MOL0     C70669   6.639   3.445   2.500 -0.2932 -0.5988 -0.6342
  536MOL0     N70670   7.365   3.440   2.543  0.1045 -1.1006 -0.6986
  536MOL0     N70671   7.487   3.469   2.579 -0.1369 -0.3092  0.3339
  536MOL0     C70672   8.157   4.459   2.487  0.4736 -0.2948 -0.6994
  536MOL0     C70673   8.161   4.577   2.564  0.1771  0.5812 -0.3742
  536MOL0     C70674   8.126   4.928   2.818 -0.1260  0.2447 -0.3191
  536MOL0     C70675   8.162   4.946   2.955  0.6671 -0.2240  0.3680
  536MOL0     C70676   8.181   5.080   2.999 -0.1615  0.1048  0.7900
  536MOL0     C70677   8.181   5.179   2.912  0.7652  0.0668  0.9344
  536MOL0     O70678   8.190   5.311   2.943 -0.6558 -0.3022 -0.0310
  536MOL0     C70679   8.068   5.367   2.987 -0.0632  0.3521  0.3929
  536MOL0     C70680   8.050   5.351   3.129  0.1666  0.9054 -0.1650
  536MOL0     C70681   8.161   5.389   3.232 -0.1337  0.1044 -0.2143
  536MOL0     C70682   8.205   5.534   3.229  0.3117  0.7159 -0.3517
  536MOL0     C70683   8.108   5.623   3.297 -0.2262  0.5409  0.6772
  536MOL0     C70684   8.040   5.704   3.346  0.8188 -0.3062 -0.1155
  536MOL0     C70685   8.131   5.163   2.779  0.4308  0.0945 -0.1493
  536MOL0     C70686   8.103   5.036   2.733 -0.1748  0.0288 -0.0380
  536MOL0     H70687   7.833   4.666   2.542  1.1072  1.1872 -0.4279
  536MOL0     H70688   7.828   4.441   2.421 -0.8200  0.2518  2.5051
  536MOL0     H70689   7.967   4.178   2.546  0.8610 -0.7346  0.2353
  536MOL0     H70690   8.131   4.190   2.501  0.2759  1.0869 -0.0733
  536MOL0     H70691   8.092   4.061   2.298  1.1493  0.1202  1.1264
  536MOL0     H70692   7.925   4.052   2.336 -0.1807 -0.3738  0.9066
  536MOL0     H70693   8.103   3.977   2.560 -1.5498  2.2926  0.7822
  536MOL0     H70694   8.080   3.860   2.428  1.9028  0.7947  0.0510
  536MOL0     H70695   7.861   3.981   2.606 -0.3974  0.8481 -1.2092
  536MOL0     H70696   7.827   3.874   2.465 -0.0281  2.6859 -1.2041
  536MOL0     H70697   7.962   3.838   2.736  0.9953 -1.6010 -0.3194
  536MOL0     H70698   7.935   3.702   2.639  1.1150  1.0005 -0.0719
  536MOL0     H70699   7.737   3.873   2.798 -0.0177  0.3381 -0.7483
  536MOL0     H70700   7.745   3.708   2.790 -2.3199  0.9014  2.1494
  536MOL0     H70701   7.555   3.763   2.691 -1.2563  2.3381 -1.3369
  536MOL0     H70702   7.616   3.861   2.559 -0.4392 -1.3000 -1.9050
  536MOL0     H70703   7.719   3.574   2.599 -0.7878 -0.0724 -0.8756
  536MOL0     H70704   7.712   3.671   2.461 -0.4537 -1.4672 -0.6615
  536MOL0     H70705   7.425   3.719   2.381 -0.4825 -2.6405 -4.0131
  536MOL0     H70706   7.135   3.470   2.429 -3.0879  0.5047  0.4615
  536MOL0     H70707   7.171   3.626   2.351 -1.8863  0.4378  0.5970
  536MOL0     H70708   7.189   3.727   2.582 -1.6582  2.5249 -0.0799
  536MOL0     H70709   7.111   3.588   2.653 -3.3372 -2.9363 -0.6441
  536MOL0     H70710   6.953   3.763   2.622 -0.6411 -1.4256  0.7192
  536MOL0     H70711   6.983   3.765   2.443  1.5826 -4.4770 -1.9141
  536MOL0     H70712   6.862   3.585   2.635 -1.1661  2.0273 -0.0184
  536MOL0     H70713   6.918   3.504   2.488  0.6491  0.0984  0.3276
  536MOL0     H70714   6.532   3.714   2.315 -1.2308  0.8322  0.6296
  536MOL0     H70715   6.353   3.571   2.276  0.2544 -1.4408  0.0733
  536MOL0     H70716   5.989   3.449   2.455  0.0374 -0.1314 -0.3343
  536MOL0     H70717   5.772   3.344   2.466  0.8489 -0.1813 -0.8311
  536MOL0     H70718   5.696   2.920   2.357  0.4610  0.9742  1.6374
  536MOL0     H70719   5.715   3.007   2.193  1.7747 -3.0505  1.2550
  536MOL0     H70720   5.476   2.995   2.373 -0.1473 -0.5906  0.2424
  536MOL0     H70721   5.499   2.878   2.242  0.6197 -1.0668  3.2896
  536MOL0     H70722   5.486   3.069   2.075  2.0816 -0.0588  0.9601
  536MOL0     H70723   5.498   3.189   2.200  0.6386 -1.0193  0.2549
  536MOL0     H70724   5.275   3.148   2.281 -0.5742  1.0221 -0.3866
  536MOL0     H70725   5.263   3.156   2.103 -0.1601 -1.5372 -0.0501
  536MOL0     H70726   5.259   2.902   2.286 -1.4974  0.2421  1.0679
  536MOL0     H70727   5.237   2.888   2.110  0.8753 -1.9079 -0.4201
  536MOL0     H70728   5.029   3.027   2.123 -1.0791 -0.0986 -0.0054
  536MOL0     H70729   5.062   3.049   2.296  0.4531 -0.1913 -0.8824
  536MOL0     H70730   5.016   2.785   2.140 -3.3297 -0.4460 -0.8022
  536MOL0     H70731   5.072   2.782   2.309  1.1216  0.7090 -0.7266
  536MOL0     H70732   4.808   2.911   2.219 -1.0285 -0.7392 -0.7402
  536MOL0     H70733   4.873   2.915   2.376  2.9614 -0.3906 -0.0042
  536MOL0     H70734   5.929   2.985   2.268  1.3972 -0.5876  0.6962
  536MOL0     H70735   6.141   3.107   2.233 -1.0143 -0.2560 -0.3992
  536MOL0     H70736   6.532   3.266   2.517  0.8707  0.5044  0.7756
  536MOL0     H70737   6.713   3.402   2.567 -0.8036  0.3344  0.5764
  536MOL0     H70738   8.254   4.413   2.470  0.9472 -0.4389  1.9444
  536MOL0     H70739   8.261   4.596   2.600  0.1255 -2.5694  1.8437
  536MOL0     H70740   8.180   4.867   3.027  3.6718  0.6323  0.6923
  536MOL0     H70741   8.225   5.105   3.095  2.7001  2.0860 -0.8535
  536MOL0     H70742   7.980   5.323   2.938  0.7392 -1.4901  0.5300
  536MOL0     H70743   8.081   5.473   2.966 -2.1709  0.2578 -1.8387
  536MOL0     H70744   7.954   5.397   3.157  0.2763  0.2501  1.3611
  536MOL0     H70745   8.041   5.244   3.147 -0.0985  1.4280  3.7536
  536MOL0     H70746   8.248   5.325   3.214  0.0880  0.0745  0.9054
  536MOL0     H70747   8.130   5.356   3.332 -0.7615 -0.3198 -0.5370
  536MOL0     H70748   8.306   5.537   3.271  0.2580  1.0286 -0.2397
  536MOL0     H70749   8.227   5.560   3.125  1.9949 -5.7435 -2.0688
  536MOL0     H70750   7.996   5.793   3.386  2.9597  0.7506  0.0083
  536MOL0     H70751   8.121   5.253   2.720 -0.2003  0.4759  0.5142
  536MOL0     H70752   8.072   5.021   2.630  0.0159  1.0070 -0.2495
  537MOL0     O70753   3.765   2.924   4.373 -0.4575  0.7160  0.0266
  537MOL0     C70754   3.691   2.983   4.452  0.6315 -0.1598 -0.6416
  537MOL0     O70755   3.731   3.040   4.575  0.1993  0.6861 -0.5620
  537MOL0     C70756   3.865   3.070   4.586 -0.2547  0.3723 -0.1624
  537MOL0     C70757   3.903   3.047   4.720 -0.8804 -0.1643  0.2010
  537MOL0     C70758   4.032   3.085   4.771  0.8409  0.4400  0.4376
  537MOL0     C70759   4.120   3.138   4.680 -0.1306  0.6140 -0.0305
  537MOL0     O70760   4.252   3.158   4.719 -0.2634 -0.3414 -0.3897
  537MOL0     C70761   4.345   3.143   4.609 -0.4447  0.2632  0.5819
  537MOL0     C70762   4.487   3.167   4.664  0.3186  0.4973  0.6447
  537MOL0     C70763   4.544   3.079   4.772 -0.2475  0.4656  0.0903
  537MOL0     C70764   4.533   2.929   4.727  0.2386 -0.5215 -0.2280
  537MOL0     C70765   4.590   2.836   4.829 -0.6422 -1.1787  0.1620
  537MOL0     C70766   4.744   2.818   4.821  0.2943 -0.3291 -1.1832
  537MOL0     C70767   4.798   2.709   4.922 -0.0654  0.4875  0.8794
  537MOL0     C70768   4.755   2.565   4.880  0.6909 -0.0066 -0.1205
  537MOL0     N70769   4.798   2.454   4.960 -0.2614  0.3308 -0.3992
  537MOL0     C70770   4.923   2.440   5.013 -0.7396 -1.0546  0.1538
  537MOL0     C70771   4.925   2.312   5.065  0.1480 -0.4411  0.6774
  537MOL0     C70772   5.028   2.243   5.148  0.2034 -0.1407 -0.2935
  537MOL0     C70773   5.023   2.290   5.294  0.5642  0.6995 -0.3425
  537MOL0     C70774   4.968   2.191   5.397  0.3234  0.5022 -0.4116
  537MOL0     C70775   4.821   2.220   5.417  0.3609 -0.1973 -0.0058
  537MOL0     O70776   4.801   2.314   5.526 -0.1356 -0.0950  0.0239
  537MOL0     C70777   4.786   2.263   5.652 -0.9426  0.0698 -0.3219
  537MOL0     C70778   4.855   2.154   5.710 -0.8130  0.0028 -0.2272
  537MOL0     C70779   4.816   2.095   5.824 -0.4879  0.6873 -0.7677
  537MOL0     C70780   4.721   2.158   5.905 -0.1234 -0.2745 -0.2099
  537MOL0     C70781   4.664   2.084   6.022  0.1566 -0.7260 -0.9314
  537MOL0     O70782   4.700   1.956   6.038  0.0357  0.0112  0.9557
  537MOL0     C70783   4.676   1.898   6.159 -0.9953 -0.5113 -0.0712
  537MOL0     C70784   4.575   1.814   6.175  0.4097  0.2814 -0.0287
  537MOL0     C70785   4.554   1.761   6.302 -1.3505 -0.1740  0.1256
  537MOL0     C70786   4.645   1.778   6.411  0.1647  0.5646 -0.6733
  537MOL0     O70787   4.639   1.702   6.530  0.7240  0.6755 -0.1234
  537MOL0     C70788   4.522   1.639   6.585 -0.5432  1.1140 -1.0075
  537MOL0     C70789   4.532   1.620   6.735 -0.4299  0.0970 -0.5188
  537MOL0     C70790   4.556   1.751   6.803 -0.0942 -1.0017 -1.1461
  537MOL0     C70791   4.573   1.727   6.955  0.2565  0.1303 -0.6328
  537MOL0     C70792   4.589   1.859   7.035  0.6005  0.2886  0.4069
  537MOL0     C70793   4.573   1.843   7.191 -0.5269  0.2024  0.3329
  537MOL0     C70794   4.688   1.746   7.249 -0.0151  0.1527 -0.3559
  537MOL0     C70795   4.729   1.760   7.389  1.2228 -0.5224  0.3543
  537MOL0    Cl70796   4.588   1.693   7.489 -0.0839  0.1440 -0.1401
  537MOL0     C70797   4.754   1.862   6.382 -0.3932  0.4021 -0.7633
  537MOL0     C70798   4.770   1.920   6.258 -0.5163  0.5919 -0.7313
  537MOL0     O70799   4.612   2.154   6.109  0.2179 -0.2352  0.0389
  537MOL0     C70800   4.650   2.273   5.859 -1.1563 -0.0759 -0.0012
  537MOL0     C70801   4.679   2.321   5.721  0.0056 -0.3178 -0.8171
  537MOL0     N70802   4.805   2.257   5.045 -0.6184  0.3244 -0.1502
  537MOL0     N70803   4.727   2.342   4.982 -0.6035 -0.3153 -0.4367
  537MOL0     C70804   4.082   3.161   4.547  0.3019  0.5382 -0.3948
  537MOL0     C70805   3.952   3.135   4.504 -0.0290  0.1620  0.8092
  537MOL0     C70806   3.544   2.997   4.414 -0.7678  0.2646  0.5624
  537MOL0     C70807   3.490   2.968   4.289  1.8059 -0.4351  0.7684
  537MOL0     C70808   3.355   2.959   4.262  0.0965 -0.0822  0.4082
  537MOL0     C70809   3.262   3.003   4.365 -0.2843  0.6742  0.2978
  537MOL0     O70810   3.124   2.994   4.351 -0.0181  1.1496  0.3366
  537MOL0     C70811   3.071   2.909   4.245 -0.4886  0.1317 -0.0648
  537MOL0     C70812   2.922   2.927   4.254 -0.9464  0.6593 -0.0143
  537MOL0     C70813   2.845   2.844   4.142  0.3266  1.3350  0.1849
  537MOL0     C70814   2.707   2.898   4.102  0.5010  0.7139  0.5526
  537MOL0     C70815   2.601   2.871   4.206 -0.7779 -0.5398 -0.1924
  537MOL0     C70816   2.516   2.851   4.295 -0.7735  0.1356  0.9018
  537MOL0     C70817   3.317   3.033   4.484 -0.1600  0.8801  0.0869
  537MOL0     C70818   3.451   3.021   4.519  0.0314  0.0189  0.4705
  537MOL0     H70819   3.833   2.998   4.786 -0.8347  1.3186  1.3981
  537MOL0     H70820   4.064   3.067   4.874 -2.6451  1.0296  1.7366
  537MOL0     H70821   4.324   3.221   4.534  0.5444  3.4318  3.3379
  537MOL0     H70822   4.333   3.047   4.559 -1.1115 -0.0976  1.4078
  537MOL0     H70823   4.486   3.273   4.689  0.1429  1.3702 -2.6647
  537MOL0     H70824   4.547   3.150   4.574 -1.3752 -1.7917 -0.1832
  537MOL0     H70825   4.491   3.115   4.861 -0.9092  2.6604 -1.1109
  537MOL0     H70826   4.649   3.097   4.795 -0.5339 -1.1481  3.1208
  537MOL0     H70827   4.427   2.902   4.729  0.5709 -1.8909  0.0429
  537MOL0     H70828   4.567   2.913   4.624 -2.9371  0.5508 -1.5581
  537MOL0     H70829   4.536   2.742   4.814 -2.6885  0.0188 -0.4093
  537MOL0     H70830   4.578   2.875   4.930  0.1274 -0.5419  0.0194
  537MOL0     H70831   4.775   2.921   4.842  0.4095 -1.2420  4.5451
  537MOL0     H70832   4.773   2.778   4.723  1.3975 -2.3924 -0.0704
  537MOL0     H70833   4.907   2.709   4.923 -0.0445 -1.1482  0.7060
  537MOL0     H70834   4.764   2.731   5.024  0.2785 -1.3383  1.4266
  537MOL0     H70835   4.795   2.557   4.778  0.3421 -3.0821 -0.1084
  537MOL0     H70836   4.646   2.556   4.880  0.2071  3.8932 -0.9645
  537MOL0     H70837   4.992   2.523   5.002 -1.4700 -0.2700  1.2332
  537MOL0     H70838   5.128   2.243   5.104  0.2472 -2.0816 -0.2936
  537MOL0     H70839   4.995   2.138   5.151 -0.7554  0.1234 -1.0984
  537MOL0     H70840   4.977   2.389   5.295 -0.6018  0.2062  1.7512
  537MOL0     H70841   5.125   2.318   5.322  0.6035 -1.2205  1.7615
  537MOL0     H70842   4.980   2.088   5.363  2.7915  0.3489  0.7044
  537MOL0     H70843   5.030   2.195   5.487  1.4869 -4.4390 -0.7000
  537MOL0     H70844   4.786   2.121   5.445  1.8164 -0.8765 -0.5018
  537MOL0     H70845   4.779   2.268   5.328  0.7641  2.5021  1.1605
  537MOL0     H70846   4.938   2.114   5.653  1.7369  2.5719  1.4046
  537MOL0     H70847   4.861   1.999   5.847 -1.0128  0.3094 -1.2865
  537MOL0     H70848   4.513   1.798   6.087  1.6728 -0.3807 -0.8238
  537MOL0     H70849   4.473   1.691   6.320 -1.8919  0.4108  0.0070
  537MOL0     H70850   4.527   1.545   6.529  2.4590  1.7503 -1.9832
  537MOL0     H70851   4.433   1.698   6.562 -0.0246  1.6388 -1.7107
  537MOL0     H70852   4.613   1.548   6.742 -1.1615 -0.6517  0.5460
  537MOL0     H70853   4.440   1.584   6.781 -0.7252  1.3804 -0.0551
  537MOL0     H70854   4.466   1.813   6.791  0.6900  0.2139 -0.9688
  537MOL0     H70855   4.646   1.792   6.756  0.9025 -3.8839 -1.9489
  537MOL0     H70856   4.491   1.666   6.994  2.1345 -0.1584  3.3727
  537MOL0     H70857   4.663   1.665   6.967 -0.4715 -0.7055  0.8498
  537MOL0     H70858   4.526   1.940   6.998 -1.1211 -0.9964  0.4165
  537MOL0     H70859   4.693   1.894   7.029  0.6106  0.0915 -1.0674
  537MOL0     H70860   4.470   1.812   7.208 -0.4124 -0.9585 -0.9496
  537MOL0     H70861   4.594   1.944   7.228  1.4789 -0.1710  0.3122
  537MOL0     H70862   4.668   1.642   7.222 -1.0716  0.2022  0.1748
  537MOL0     H70863   4.773   1.760   7.181  0.1545  0.1081 -0.1545
  537MOL0     H70864   4.755   1.863   7.414  0.2170  0.2199 -1.3974
  537MOL0     H70865   4.815   1.697   7.410  1.3023  0.2606  2.6464
  537MOL0     H70866   4.816   1.881   6.469 -0.5486 -0.7261 -0.3928
  537MOL0     H70867   4.866   1.966   6.236  0.4259 -0.4517  0.9275
  537MOL0     H70868   4.574   2.324   5.917  0.4401 -1.5971  3.8196
  537MOL0     H70869   4.610   2.395   5.684 -1.3812 -0.3254  1.5535
  537MOL0     H70870   4.142   3.205   4.468 -0.2747 -0.2761 -1.3152
  537MOL0     H70871   3.930   3.166   4.402  3.4396 -0.4264 -0.2835
  537MOL0     H70872   3.546   2.939   4.201 -3.7739 -2.2565 -2.7039
  537MOL0     H70873   3.327   2.907   4.171  2.4151 -0.1936 -0.3154
  537MOL0     H70874   3.088   2.802   4.257  0.2325  0.0378 -1.6778
  537MOL0     H70875   3.100   2.943   4.145 -1.2746 -3.0861 -1.4976
  537MOL0     H70876   2.901   2.892   4.355 -0.7802  1.4209  0.2913
  537MOL0     H70877   2.912   3.035   4.239  1.7994  1.3415  2.2219
  537MOL0     H70878   2.838   2.737   4.162 -3.4736  1.1868 -1.1338
  537MOL0     H70879   2.909   2.844   4.054 -2.5876 -0.6743 -2.1365
  537MOL0     H70880   2.714   3.005   4.081 -2.2001  0.4842 -2.2084
  537MOL0     H70881   2.687   2.848   4.007 -1.4177  1.8310  0.3217
  537MOL0     H70882   2.441   2.856   4.372 -0.5643  2.4865  1.0186
  537MOL0     H70883   3.244   3.058   4.560 -1.9380 -0.1899 -1.1955
  537MOL0     H70884   3.481   3.014   4.623  1.8372 -2.3902 -0.1006
  538MOL0     O70885   1.216   1.284   3.675 -0.3652 -0.1934 -0.1873
  538MOL0     C70886   1.161   1.179   3.643 -0.3876  0.6358  0.2709
  538MOL0     O70887   1.197   1.098   3.540  0.2913 -0.0964 -1.4256
  538MOL0     C70888   1.285   1.136   3.448 -0.3801  1.2860 -1.3881
  538MOL0     C70889   1.409   1.066   3.434  0.3669 -0.2028  0.0397
  538MOL0     C70890   1.504   1.117   3.348  0.2586 -0.0456  0.1515
  538MOL0     C70891   1.485   1.242   3.294 -0.4114 -0.4375 -1.4283
  538MOL0     O70892   1.586   1.298   3.211 -0.1944 -0.2449  0.1136
  538MOL0     C70893   1.542   1.314   3.071 -0.6896 -0.8884  0.0064
  538MOL0     C70894   1.657   1.391   3.001 -0.2575  0.5104 -0.1973
  538MOL0     C70895   1.679   1.528   3.081  0.0380  0.1028  0.2534
  538MOL0     C70896   1.761   1.625   3.001  0.5528 -0.3045 -0.0408
  538MOL0     C70897   1.785   1.760   3.077 -0.2406  0.0232 -0.2407
  538MOL0     C70898   1.902   1.847   3.012  0.3482  0.6754  0.0090
  538MOL0     C70899   2.047   1.773   3.022 -0.6575  0.6406  0.3535
  538MOL0     C70900   2.141   1.887   3.023 -1.0786  0.2149  0.7616
  538MOL0     N70901   2.282   1.838   3.028  0.2211  0.1110  0.0500
  538MOL0     C70902   2.333   1.741   2.944  0.3290 -0.9710 -0.4275
  538MOL0     C70903   2.444   1.704   3.015  0.0249 -0.1798 -0.1820
  538MOL0     C70904   2.534   1.594   2.995 -0.7905 -1.6305  0.6519
  538MOL0     C70905   2.471   1.465   2.953 -0.0893  0.0175  1.1433
  538MOL0     C70906   2.384   1.408   3.057  0.0980  0.2788 -0.9967
  538MOL0     C70907   2.289   1.307   2.989  0.4029  1.0926 -0.1928
  538MOL0     O70908   2.264   1.200   3.083  0.3968  1.0674  0.1223
  538MOL0     C70909   2.167   1.199   3.176 -0.4470  0.1633 -0.2644
  538MOL0     C70910   2.144   1.090   3.267 -0.3711  0.2594 -0.5469
  538MOL0     C70911   2.047   1.089   3.365 -0.7374  0.2957  0.1381
  538MOL0     C70912   1.962   1.204   3.390 -0.3140 -0.6458 -0.1589
  538MOL0     C70913   1.870   1.215   3.502 -0.4667 -0.3243  0.2913
  538MOL0     O70914   1.848   1.345   3.545  0.0358 -0.1826 -0.6092
  538MOL0     C70915   1.761   1.362   3.650  0.4703 -0.2143 -0.8543
  538MOL0     C70916   1.625   1.352   3.648  0.4299 -0.8719  0.0604
  538MOL0     C70917   1.549   1.361   3.769 -0.2426 -0.2455 -0.0504
  538MOL0     C70918   1.619   1.391   3.897  0.1124 -0.6924  0.5236
  538MOL0     O70919   1.551   1.410   4.016 -0.2840  0.4000  1.0144
  538MOL0     C70920   1.441   1.315   4.027  0.7938  0.7722  1.6107
  538MOL0     C70921   1.422   1.293   4.176  0.1354  0.7696  0.4149
  538MOL0     C70922   1.532   1.241   4.262 -0.2553  1.0776 -0.0159
  538MOL0     C70923   1.506   1.242   4.406  0.3729  0.4126  0.2479
  538MOL0     C70924   1.562   1.120   4.484  0.6880 -0.6460 -0.5767
  538MOL0     C70925   1.710   1.128   4.493  0.3072 -0.8762 -0.6845
  538MOL0     C70926   1.764   1.037   4.599 -0.5251  0.3185 -0.7667
  538MOL0     C70927   1.918   1.051   4.618 -1.1443  0.0015  0.0378
  538MOL0    Cl70928   1.973   1.203   4.716 -0.0136 -0.1836 -0.6284
  538MOL0     C70929   1.761   1.396   3.897 -0.2527 -0.0845 -0.7663
  538MOL0     C70930   1.831   1.391   3.775  0.8615 -1.0970  1.0589
  538MOL0     O70931   1.822   1.113   3.541  0.3081 -0.6658 -0.4802
  538MOL0     C70932   1.998   1.314   3.303  0.5787  0.2178  0.0963
  538MOL0     C70933   2.088   1.309   3.195  0.0687 -1.2232 -0.3413
  538MOL0     N70934   2.458   1.780   3.130  0.1433  0.5865 -0.0336
  538MOL0     N70935   2.365   1.863   3.127 -0.0513  0.9180  0.1463
  538MOL0     C70936   1.364   1.311   3.308 -0.0659  1.4236  1.0459
  538MOL0     C70937   1.265   1.249   3.381 -0.1324 -0.5186 -0.0201
  538MOL0     C70938   1.040   1.136   3.714  0.1341 -1.3156  0.4861
  538MOL0     C70939   1.002   1.211   3.820  0.1589 -0.1759  0.2868
  538MOL0     C70940   0.891   1.175   3.895 -0.2847 -0.1091 -0.0543
  538MOL0     C70941   0.829   1.051   3.875  0.3494 -0.2372 -0.2195
  538MOL0     O70942   0.725   0.987   3.949 -0.0351 -0.5796 -0.2317
  538MOL0     C70943   0.645   1.061   4.042 -1.2192  0.5137  0.0503
  538MOL0     C70944   0.543   0.962   4.108 -0.1357  1.2114  0.0462
  538MOL0     C70945   0.458   0.897   4.001  0.5763  0.4975 -0.3860
  538MOL0     C70946   0.340   0.824   4.064 -0.0761  0.0108  0.2353
  538MOL0     C70947   0.383   0.703   4.136 -0.1350  0.3102  1.2428
  538MOL0     C70948   0.414   0.615   4.200  0.5668  0.1981  0.1057
  538MOL0     C70949   0.875   0.975   3.763  0.4057  0.0780  0.2735
  538MOL0     C70950   0.974   1.019   3.675 -0.1699 -0.4276 -0.2335
  538MOL0     H70951   1.432   0.977   3.492  1.8606 -0.1345 -0.4093
  538MOL0     H70952   1.604   1.077   3.339  2.0193  3.5663  1.5073
  538MOL0     H70953   1.446   1.365   3.068  1.3737  3.4610  0.2572
  538MOL0     H70954   1.531   1.214   3.029  1.0427 -1.9596  1.8988
  538MOL0     H70955   1.636   1.407   2.894 -0.7958  0.1253 -0.1552
  538MOL0     H70956   1.754   1.342   3.015  0.9349  2.7670 -0.1072
  538MOL0     H70957   1.725   1.515   3.180  2.6180 -2.6764 -1.1571
  538MOL0     H70958   1.581   1.570   3.106  0.5247  0.9800  0.7565
  538MOL0     H70959   1.856   1.575   2.980  0.9270  0.5962 -0.5673
  538MOL0     H70960   1.712   1.652   2.908  0.1938  2.0724  0.7709
  538MOL0     H70961   1.820   1.752   3.180 -0.8680 -0.8636 -0.0842
  538MOL0     H70962   1.692   1.816   3.090 -1.0281 -1.5078  0.9976
  538MOL0     H70963   1.915   1.936   3.075 -0.0056  1.0209 -0.3948
  538MOL0     H70964   1.879   1.876   2.909  0.1488 -1.8081 -0.7104
  538MOL0     H70965   2.047   1.710   3.111 -2.7578 -4.6791 -2.9107
  538MOL0     H70966   2.063   1.710   2.934 -2.0928 -3.2628  2.6306
  538MOL0     H70967   2.122   1.948   3.112 -2.0258  0.2631  0.5383
  538MOL0     H70968   2.129   1.951   2.935 -1.5200 -2.1271 -0.9815
  538MOL0     H70969   2.298   1.680   2.861 -2.2759 -0.2980  0.1153
  538MOL0     H70970   2.596   1.569   3.081  1.6142 -3.4692 -1.4410
  538MOL0     H70971   2.607   1.627   2.920  2.3091 -4.8478  1.9732
  538MOL0     H70972   2.552   1.394   2.934  1.9457  2.2502  0.9687
  538MOL0     H70973   2.427   1.495   2.858  0.6600 -0.6868  0.5513
  538MOL0     H70974   2.461   1.366   3.122 -0.7279 -0.6709 -0.6034
  538MOL0     H70975   2.324   1.488   3.102 -3.1993 -2.9792  0.9708
  538MOL0     H70976   2.338   1.277   2.896 -1.4349  2.8398 -1.8361
  538MOL0     H70977   2.190   1.346   2.963 -0.8543 -0.9878  1.2316
  538MOL0     H70978   2.191   0.995   3.244  0.1649  0.5330 -0.5960
  538MOL0     H70979   2.017   1.002   3.423 -2.4850  2.3227  2.4975
  538MOL0     H70980   1.570   1.328   3.558 -0.6212 -0.9912  0.7158
  538MOL0     H70981   1.441   1.349   3.774 -0.3374 -0.9227 -2.4834
  538MOL0     H70982   1.449   1.222   3.971  2.4062  0.3079  2.5388
  538MOL0     H70983   1.354   1.370   3.991  1.8789  0.3179 -2.0821
  538MOL0     H70984   1.333   1.231   4.194  1.5128 -1.2132  0.7107
  538MOL0     H70985   1.402   1.392   4.219 -2.7385  0.9222 -0.9913
  538MOL0     H70986   1.617   1.301   4.227 -1.1380  2.2562 -0.2138
  538MOL0     H70987   1.562   1.142   4.228  2.3515  2.1448 -1.1632
  538MOL0     H70988   1.549   1.337   4.438  1.2765  0.6252 -1.4915
  538MOL0     H70989   1.396   1.245   4.413  0.3687 -1.5733  1.9100
  538MOL0     H70990   1.536   1.031   4.425  1.7020 -0.6194 -1.0891
  538MOL0     H70991   1.527   1.107   4.586  2.9700 -0.6552  0.2699
  538MOL0     H70992   1.740   1.229   4.524  1.4694 -0.7564 -2.0851
  538MOL0     H70993   1.761   1.113   4.397 -0.0410 -1.2204 -0.8182
  538MOL0     H70994   1.713   1.055   4.694 -2.3866 -0.2173 -1.6199
  538MOL0     H70995   1.746   0.934   4.567  2.5639  0.5127 -3.7406
  538MOL0     H70996   1.973   1.036   4.525 -1.1616  2.1566 -0.3773
  538MOL0     H70997   1.946   0.962   4.674 -2.0495 -0.3342 -0.0300
  538MOL0     H70998   1.811   1.406   3.993  0.3893 -3.2681 -0.6478
  538MOL0     H70999   1.939   1.381   3.781  0.8603 -1.5960  0.4256
  538MOL0     H71000   1.935   1.402   3.305 -2.8089 -2.0535  1.0653
  538MOL0     H71001   2.096   1.399   3.136  0.6558 -1.0055  0.0523
  538MOL0     H71002   1.366   1.408   3.260  0.4814  0.1399 -1.6968
  538MOL0     H71003   1.172   1.302   3.401  0.0285 -0.2165 -0.0575
  538MOL0     H71004   1.048   1.304   3.852  1.3142 -0.4013 -0.6271
  538MOL0     H71005   0.871   1.227   3.988 -0.6426  1.0454 -0.7595
  538MOL0     H71006   0.604   1.149   3.993 -0.2910  0.8617 -0.1046
  538MOL0     H71007   0.710   1.106   4.118  3.1606 -0.8957 -2.5482
  538MOL0     H71008   0.604   0.888   4.160  0.1289  1.5325  0.1944
  538MOL0     H71009   0.475   1.011   4.178  1.6281  1.8955  1.3291
  538MOL0     H71010   0.518   0.830   3.939 -1.0614  1.2696 -2.9551
  538MOL0     H71011   0.411   0.970   3.936 -2.5763 -0.2622  0.8486
  538MOL0     H71012   0.280   0.890   4.126  0.7198  1.0646 -0.0885
  538MOL0     H71013   0.262   0.796   3.992 -1.2368 -0.8845  1.7695
  538MOL0     H71014   0.430   0.537   4.271 -1.6940 -2.4867 -2.1145
  538MOL0     H71015   0.831   0.879   3.739  0.9087 -0.1240  0.1498
  538MOL0     H71016   1.003   0.951   3.595  2.6713 -2.6645  2.4250
  539MOL0     O71017   3.513   8.982   9.546  0.1695  0.0175  0.5155
  539MOL0     C71018   3.556   9.088   9.506  0.1482 -0.7406  0.4200
  539MOL0     O71019   3.497   9.211   9.508 -0.0235  0.4189 -0.3623
  539MOL0     C71020   3.376   9.237   9.559  0.5252  0.3204  0.2125
  539MOL0     C71021   3.283   9.140   9.614  0.7508 -0.9416  0.2817
  539MOL0     C71022   3.161   9.182   9.661  1.1886  0.1887  0.6231
  539MOL0     C71023   3.115   9.314   9.643  0.4075  0.1370  0.1818
  539MOL0     O71024   2.985   9.334   9.692 -1.0611 -0.2790  0.6098
  539MOL0     C71025   2.932   9.462   9.685 -0.3679 -0.1010 -0.4686
  539MOL0     C71026   2.795   9.463   9.761  0.2677 -0.4712  0.0464
  539MOL0     C71027   2.689   9.371   9.696  0.5032 -0.1788 -0.0348
  539MOL0     C71028   2.568   9.375   9.791  0.9359 -0.8429 -0.3306
  539MOL0     C71029   2.433   9.346   9.711 -0.0013 -0.2024 -0.6872
  539MOL0     C71030   2.442   9.203   9.655  0.5515  0.2234  0.1424
  539MOL0     C71031   2.336   9.190   9.545 -0.4120 -0.4959 -0.0602
  539MOL0     C71032   2.381   9.249   9.410 -0.4447 -0.1907  0.3932
  539MOL0     N71033   2.271   9.284   9.319 -0.0371 -0.2329  0.3250
  539MOL0     C71034   2.176   9.201   9.264 -0.2435  0.1223 -0.3091
  539MOL0     C71035   2.090   9.278   9.189  0.3885 -0.7137  0.1131
  539MOL0     C71036   1.968   9.222   9.109  0.5594  0.4255  0.5128
  539MOL0     C71037   1.994   9.081   9.037  0.0558  0.1253 -0.3203
  539MOL0     C71038   1.865   9.020   8.967 -1.3198 -0.4988 -1.0635
  539MOL0     C71039   1.777   9.089   8.867 -0.2737 -0.0598  0.5349
  539MOL0     O71040   1.703   8.978   8.804 -0.2763  0.1792 -0.5866
  539MOL0     C71041   1.571   8.986   8.777 -0.2227  0.6472  0.4166
  539MOL0     C71042   1.488   9.097   8.795  0.3879 -0.2224 -0.6005
  539MOL0     C71043   1.353   9.092   8.756 -0.1375 -1.0270 -0.1829
  539MOL0     C71044   1.292   8.977   8.703  0.0642 -0.3491 -0.1237
  539MOL0     C71045   1.161   8.972   8.633 -0.2152  1.2921  0.0149
  539MOL0     O71046   1.100   9.096   8.605  0.1846 -0.0148  0.2785
  539MOL0     C71047   0.978   9.090   8.546 -0.4678  0.5149  0.1698
  539MOL0     C71048   0.866   9.100   8.626 -0.3942 -0.2086  0.6201
  539MOL0     C71049   0.743   9.086   8.562  1.0228  0.1710 -0.3592
  539MOL0     C71050   0.722   9.072   8.420 -0.5296  0.2218 -0.2689
  539MOL0     O71051   0.600   9.099   8.364  0.1078  0.8310  0.6095
  539MOL0     C71052   0.585   9.092   8.220 -0.2136 -0.3904  0.2920
  539MOL0     C71053   0.446   9.134   8.170  0.0330 -0.2560  0.0513
  539MOL0     C71054   0.406   9.058   8.043  0.3239  0.4980 -0.4347
  539MOL0     C71055   0.260   9.092   8.022 -0.4180 -0.0368 -1.2085
  539MOL0     C71056   0.213   9.061   7.880  0.0454  0.4765  0.2180
  539MOL0     C71057   0.248   9.192   7.792 -0.0145  0.1482  0.3463
  539MOL0     C71058   0.172   9.326   7.810  0.2346 -0.6469  0.2629
  539MOL0     C71059   0.023   9.298   7.840 -0.6801  0.3295 -0.4457
  539MOL0    Cl71060  -0.060   9.458   7.852 -0.0618  0.1072  0.2045
  539MOL0     C71061   0.843   9.075   8.342  0.5018 -0.7035 -0.5944
  539MOL0     C71062   0.966   9.088   8.405 -0.5643 -0.9991 -0.2298
  539MOL0     O71063   1.105   8.866   8.602  0.4724 -0.0035  0.1559
  539MOL0     C71064   1.369   8.855   8.699 -0.1664  0.1375  0.5794
  539MOL0     C71065   1.503   8.861   8.732 -0.8306 -0.3082  0.6839
  539MOL0     N71066   2.133   9.408   9.205 -0.9476  0.2604  0.3823
  539MOL0     N71067   2.242   9.411   9.279  0.5462 -0.2896  0.2725
  539MOL0     C71068   3.199   9.408   9.578 -0.1198  0.1720  0.6248
  539MOL0     C71069   3.334   9.374   9.547  0.2078  0.1090 -0.6347
  539MOL0     C71070   3.690   9.079   9.423  0.5110  0.8538 -0.0132
  539MOL0     C71071   3.751   9.192   9.369  0.0605 -0.0782 -0.0852
  539MOL0     C71072   3.873   9.187   9.309 -0.1557 -0.0425  0.5265
  539MOL0     C71073   3.944   9.067   9.284 -0.1323  0.3480  1.0578
  539MOL0     O71074   4.058   9.062   9.205  0.0493  0.1250 -0.8314
  539MOL0     C71075   4.161   9.164   9.223  0.9210  0.1075  0.1849
  539MOL0     C71076   4.295   9.090   9.194  0.7896  0.2613 -0.3371
  539MOL0     C71077   4.306   9.051   9.049 -0.3717  0.1311  0.3333
  539MOL0     C71078   4.436   8.964   9.029  0.3960 -0.1023  0.2030
  539MOL0     C71079   4.567   9.026   9.072 -0.4318  0.6678  0.1521
  539MOL0     C71080   4.668   9.067   9.120 -0.5391 -0.5273  0.2559
  539MOL0     C71081   3.884   8.952   9.332 -0.6859  0.5362  0.6501
  539MOL0     C71082   3.756   8.956   9.397  0.6844  0.0666 -0.2269
  539MOL0     H71083   3.314   9.037   9.622 -0.2895 -1.2868  0.0449
  539MOL0     H71084   3.095   9.107   9.704  0.2768  0.7476  0.2366
  539MOL0     H71085   2.913   9.481   9.579 -1.4971  0.2014 -0.2277
  539MOL0     H71086   2.993   9.536   9.736 -4.1663  2.7924  0.3218
  539MOL0     H71087   2.750   9.561   9.741 -1.0648 -1.2102 -0.7251
  539MOL0     H71088   2.820   9.430   9.862  2.1830 -0.7967 -0.4835
  539MOL0     H71089   2.734   9.272   9.684  0.2101 -0.9107  3.7250
  539MOL0     H71090   2.657   9.412   9.600 -3.6119  1.3390  1.7893
  539MOL0     H71091   2.586   9.303   9.872  1.8978 -0.8838 -0.5772
  539MOL0     H71092   2.561   9.475   9.834  3.6877  0.5735 -2.8415
  539MOL0     H71093   2.406   9.430   9.646  2.1931  2.1067  1.1638
  539MOL0     H71094   2.346   9.339   9.777 -0.1878  0.9380 -0.7895
  539MOL0     H71095   2.420   9.130   9.733 -0.8520 -1.0307 -1.3789
  539MOL0     H71096   2.536   9.168   9.611  1.4849  0.9808  1.4596
  539MOL0     H71097   2.323   9.082   9.528  0.1210 -0.4527 -0.7836
  539MOL0     H71098   2.244   9.239   9.578 -0.0492  0.3170 -0.2553
  539MOL0     H71099   2.445   9.171   9.367 -1.0462  0.3964 -1.7023
  539MOL0     H71100   2.447   9.331   9.437  0.6597 -0.3989 -1.5058
  539MOL0     H71101   2.170   9.094   9.276 -0.9555  0.3533  1.8760
  539MOL0     H71102   1.944   9.292   9.028  2.3495 -1.2638 -1.6046
  539MOL0     H71103   1.878   9.218   9.170 -0.7476  1.0676 -1.2628
  539MOL0     H71104   2.015   9.006   9.114 -0.4214 -0.3543 -0.6458
  539MOL0     H71105   2.076   9.099   8.968  0.2865  0.0368 -0.0705
  539MOL0     H71106   1.909   8.932   8.919 -3.3693 -1.3779 -1.4169
  539MOL0     H71107   1.795   8.989   9.045 -1.4081  0.4245 -0.7645
  539MOL0     H71108   1.857   9.119   8.799 -1.1353  0.6944 -0.1689
  539MOL0     H71109   1.722   9.176   8.902 -0.7027 -0.3985  0.7105
  539MOL0     H71110   1.525   9.182   8.851  1.0857 -1.2008  0.4603
  539MOL0     H71111   1.294   9.183   8.760 -0.9207 -1.2934 -3.1653
  539MOL0     H71112   0.867   9.099   8.735  2.7827  1.2778  0.7049
  539MOL0     H71113   0.657   9.080   8.628  2.4864  0.0809  1.6098
  539MOL0     H71114   0.589   8.991   8.179  0.4637 -0.1151 -0.3377
  539MOL0     H71115   0.654   9.164   8.176  0.4678  1.1282  3.5615
  539MOL0     H71116   0.436   9.242   8.155 -0.0986 -0.3262 -0.3779
  539MOL0     H71117   0.384   9.105   8.255  3.4433  1.6803  3.5760
  539MOL0     H71118   0.424   8.950   8.049  1.0334  0.6172 -0.3859
  539MOL0     H71119   0.467   9.084   7.956  3.9549  0.7694  1.9845
  539MOL0     H71120   0.193   9.040   8.090  2.1741 -2.6086 -0.4163
  539MOL0     H71121   0.244   9.199   8.037  3.8002  0.5748  0.1857
  539MOL0     H71122   0.109   9.033   7.861  0.2977 -0.3109 -0.0642
  539MOL0     H71123   0.276   8.980   7.842  0.6580  1.0392  0.0139
  539MOL0     H71124   0.215   9.162   7.692 -4.2838  1.0750  1.2867
  539MOL0     H71125   0.354   9.218   7.791  0.2466 -0.6989 -2.3451
  539MOL0     H71126   0.212   9.391   7.888  0.3152  2.7604 -2.3964
  539MOL0     H71127   0.181   9.388   7.721  4.0900  3.3918  3.0373
  539MOL0     H71128   0.020   9.251   7.938  0.0898  3.8292  1.4021
  539MOL0     H71129  -0.017   9.235   7.760  1.5026  1.2556 -2.3961
  539MOL0     H71130   0.852   9.066   8.234 -0.9498 -0.6544 -0.7389
  539MOL0     H71131   1.058   9.101   8.349 -0.4554  3.2613  0.6825
  539MOL0     H71132   1.313   8.771   8.657 -2.8086  1.0978  1.9567
  539MOL0     H71133   1.559   8.768   8.722 -0.8034  0.0146 -3.9759
  539MOL0     H71134   3.164   9.509   9.561  3.3164  1.4725  0.4823
  539MOL0     H71135   3.401   9.451   9.512  0.8762  0.2844  0.9622
  539MOL0     H71136   3.704   9.289   9.380  0.3997 -0.1965  3.7668
  539MOL0     H71137   3.904   9.279   9.260 -2.5517  0.3269 -0.4258
  539MOL0     H71138   4.149   9.206   9.323 -0.3404  0.0879  0.0581
  539MOL0     H71139   4.160   9.242   9.146  1.6442  0.0644  0.1289
  539MOL0     H71140   4.381   9.152   9.221  1.0784 -0.0776 -0.4816
  539MOL0     H71141   4.292   8.995   9.248 -0.2409 -0.6451 -1.9144
  539MOL0     H71142   4.313   9.145   8.994 -0.5437 -1.0954 -1.8882
  539MOL0     H71143   4.218   8.996   9.015 -1.0249  0.7818  0.9315
  539MOL0     H71144   4.423   8.869   9.082  0.1092  0.9672  2.1395
  539MOL0     H71145   4.435   8.937   8.923 -0.6531 -1.4354  0.5212
  539MOL0     H71146   4.767   9.107   9.132  0.3143 -0.9653 -3.8377
  539MOL0     H71147   3.931   8.858   9.306 -6.4954 -2.4857 -0.5890
  539MOL0     H71148   3.698   8.873   9.435  0.0703  0.7999  0.4979
  540MOL0     O71149   0.103   8.197  10.517 -0.3088 -1.3008 -0.6345
  540MOL0     C71150   0.193   8.257  10.447  0.4205  0.2214  0.5492
  540MOL0     O71151   0.182   8.278  10.313  0.4912  0.2308  0.1525
  540MOL0     C71152   0.087   8.209  10.245  0.2640 -0.5284 -0.0134
  540MOL0     C71153  -0.056   8.214  10.277  0.7540 -0.6263  0.1745
  540MOL0     C71154  -0.140   8.124  10.207  0.5212 -0.1368  0.2915
  540MOL0     C71155  -0.100   8.056  10.094 -0.1377  0.2864 -0.0300
  540MOL0     O71156  -0.197   8.010  10.017 -0.7026  0.1335 -0.1220
  540MOL0     C71157  -0.172   7.923   9.909 -0.0935 -0.1348 -0.0748
  540MOL0     C71158  -0.289   7.845   9.872 -0.2290 -0.2319 -0.3252
  540MOL0     C71159  -0.307   7.734   9.981 -0.8945 -0.9170 -0.0705
  540MOL0     C71160  -0.418   7.638   9.948  0.6727  0.9535  0.2356
  540MOL0     C71161  -0.535   7.701   9.873  0.2829  0.1703  0.5483
  540MOL0     C71162  -0.661   7.610   9.856  0.4879  0.6795 -0.3023
  540MOL0     C71163  -0.785   7.673   9.794  0.1442 -0.6398 -0.4877
  540MOL0     C71164  -0.772   7.697   9.649  0.0774 -0.0747 -0.5492
  540MOL0     N71165  -0.898   7.749   9.606  0.6669 -0.8784 -0.7896
  540MOL0     C71166  -0.930   7.885   9.589 -0.3754  0.3383 -0.0226
  540MOL0     C71167  -1.061   7.891   9.551 -0.1456  0.6630  0.1246
  540MOL0     C71168  -1.142   8.005   9.501 -0.5857 -0.2528 -0.8191
  540MOL0     C71169  -1.104   8.142   9.564 -0.7493 -0.1690 -0.0787
  540MOL0     C71170  -1.154   8.261   9.499 -0.7766 -0.3561  0.3510
  540MOL0     C71171  -1.301   8.254   9.475  1.0810  0.3309 -0.2158
  540MOL0     O71172  -1.334   8.364   9.391  0.1103 -0.4119 -0.0029
  540MOL0     C71173  -1.463   8.401   9.361  0.6500  0.4590  0.1171
  540MOL0     C71174  -1.495   8.492   9.254 -0.8329 -0.0460  0.5925
  540MOL0     C71175  -1.626   8.524   9.222 -0.1503  0.7326  0.1829
  540MOL0     C71176  -1.735   8.459   9.292  0.0340 -0.9586  0.6891
  540MOL0     C71177  -1.873   8.512   9.265 -0.1278  0.1896  0.2173
  540MOL0     O71178  -1.890   8.618   9.185  0.2598  0.3691  0.3948
  540MOL0     C71179  -2.013   8.678   9.175  0.0533 -0.1657  0.6418
  540MOL0     C71180  -2.120   8.611   9.119 -0.7707  0.4144  0.0483
  540MOL0     C71181  -2.234   8.675   9.072  1.1096  0.5294 -0.2007
  540MOL0     C71182  -2.266   8.804   9.111  0.0522 -0.8620  0.2389
  540MOL0     O71183  -2.384   8.853   9.064 -0.8051  0.3212  0.1648
  540MOL0     C71184  -2.411   8.988   9.082  0.1665 -0.8074 -0.5427
  540MOL0     C71185  -2.553   9.026   9.029 -0.3805 -0.0940 -0.2738
  540MOL0     C71186  -2.593   9.162   9.074  0.6612  0.2371  0.2023
  540MOL0     C71187  -2.750   9.175   9.046 -0.9644  1.5190  0.3924
  540MOL0     C71188  -2.783   9.311   9.103  0.1633  0.3915 -0.3727
  540MOL0     C71189  -2.902   9.372   9.032 -1.5646  0.4943  0.4544
  540MOL0     C71190  -2.952   9.492   9.118 -0.8283  0.2047 -0.0510
  540MOL0     C71191  -3.087   9.544   9.085  0.1442 -0.4490  0.4117
  540MOL0    Cl71192  -3.126   9.694   9.174  0.1848 -0.3972 -0.1346
  540MOL0     C71193  -2.167   8.878   9.182  0.3670  0.5701  0.0322
  540MOL0     C71194  -2.040   8.820   9.198 -0.1702  0.3833 -0.4274
  540MOL0     O71195  -1.961   8.463   9.334  0.0337 -0.1659  0.3510
  540MOL0     C71196  -1.704   8.372   9.400 -0.7276 -0.1953 -0.1035
  540MOL0     C71197  -1.570   8.351   9.432  1.0086 -0.4841 -0.1642
  540MOL0     N71198  -1.100   7.759   9.537  0.4838  0.0491  1.0282
  540MOL0     N71199  -1.000   7.683   9.565  0.7623 -0.2809 -0.4727
  540MOL0     C71200   0.037   8.070  10.050 -0.7069  0.0071  0.1744
  540MOL0     C71201   0.124   8.152  10.122  0.4329  0.7275 -0.4656
  540MOL0     C71202   0.315   8.315  10.519 -0.1154 -0.0272  0.6220
  540MOL0     C71203   0.337   8.282  10.658 -0.1771  0.9466  0.1354
  540MOL0     C71204   0.454   8.325  10.720  0.1685  0.8354 -0.5778
  540MOL0     C71205   0.552   8.402  10.654  0.0293 -1.0788  0.5436
  540MOL0     O71206   0.671   8.426  10.715  0.0095 -0.4423 -0.1849
  540MOL0     C71207   0.771   8.491  10.631  0.3065  0.6215  0.5360
  540MOL0     C71208   0.901   8.457  10.710  0.7647  0.5648  0.1054
  540MOL0     C71209   0.948   8.560  10.815  0.4683  0.1399  0.9067
  540MOL0     C71210   1.053   8.493  10.910  0.5988  0.3413 -0.5162
  540MOL0     C71211   1.134   8.591  10.987 -0.2732  0.2127  0.2058
  540MOL0     C71212   1.199   8.675  11.048 -0.1062  1.0973 -0.7915
  540MOL0     C71213   0.526   8.435  10.511 -0.4137 -0.3226  0.7781
  540MOL0     C71214   0.410   8.389  10.451  1.4104 -0.3592 -0.6873
  540MOL0     H71215  -0.096   8.270  10.360 -0.7180 -0.3361 -0.7063
  540MOL0     H71216  -0.248   8.116  10.220  0.4592 -2.7017 -1.1684
  540MOL0     H71217  -0.085   7.858   9.927  2.1890  2.8839  0.7742
  540MOL0     H71218  -0.148   7.996   9.830 -1.3425  0.4662  0.0800
  540MOL0     H71219  -0.265   7.805   9.773  1.8152 -2.9061  1.1202
  540MOL0     H71220  -0.379   7.906   9.878  0.5832  0.9031  1.1800
  540MOL0     H71221  -0.303   7.786  10.077 -1.6357 -0.2162 -0.4100
  540MOL0     H71222  -0.219   7.670   9.970  1.2075  1.9430 -1.5174
  540MOL0     H71223  -0.387   7.548   9.894  1.7525  0.3828  1.7448
  540MOL0     H71224  -0.457   7.603  10.044  3.5551  2.1354  1.9666
  540MOL0     H71225  -0.496   7.717   9.772  1.2912 -2.8101  0.3501
  540MOL0     H71226  -0.560   7.796   9.920  0.0595  0.5788 -0.3859
  540MOL0     H71227  -0.680   7.581   9.960  2.3521 -3.2100 -0.8538
  540MOL0     H71228  -0.649   7.512   9.808  0.2143 -0.1604  1.2570
  540MOL0     H71229  -0.862   7.596   9.802 -0.9540 -0.2184 -4.7737
  540MOL0     H71230  -0.809   7.767   9.846  0.4862 -1.6929  1.6776
  540MOL0     H71231  -0.739   7.609   9.593 -4.3972 -1.1714 -1.8282
  540MOL0     H71232  -0.696   7.774   9.639  1.6192 -1.4491  0.0047
  540MOL0     H71233  -0.861   7.966   9.607 -0.5269  0.7842 -1.3411
  540MOL0     H71234  -1.243   7.969   9.519  0.5003 -2.9530  0.4791
  540MOL0     H71235  -1.118   8.009   9.394  1.7514 -3.5352 -0.5654
  540MOL0     H71236  -0.996   8.154   9.571 -1.0851  3.0905  1.7170
  540MOL0     H71237  -1.139   8.139   9.668  0.6319 -4.1333  0.4304
  540MOL0     H71238  -1.133   8.347   9.563 -0.0387 -1.5588  1.8009
  540MOL0     H71239  -1.091   8.278   9.412  1.8175 -2.9908  1.5228
  540MOL0     H71240  -1.356   8.249   9.569 -4.8940  2.3362 -3.1206
  540MOL0     H71241  -1.329   8.166   9.417  0.1943 -0.0441  0.7519
  540MOL0     H71242  -1.409   8.536   9.206 -0.2441 -0.8677  0.8713
  540MOL0     H71243  -1.637   8.620   9.173 -1.1523  1.5785  1.9910
  540MOL0     H71244  -2.100   8.507   9.094  1.8762  0.8307  0.1677
  540MOL0     H71245  -2.314   8.617   9.027  0.7708  1.0473 -0.2757
  540MOL0     H71246  -2.341   9.054   9.032  3.2906 -2.3658  1.4598
  540MOL0     H71247  -2.415   9.009   9.190 -2.5299  1.0368 -0.9001
  540MOL0     H71248  -2.616   8.948   9.073  3.8017 -3.2041  0.7622
  540MOL0     H71249  -2.576   9.007   8.924 -0.1423 -0.5878 -0.2384
  540MOL0     H71250  -2.549   9.230   9.001  0.1451 -1.2576 -1.5840
  540MOL0     H71251  -2.561   9.179   9.177  0.5506  1.2189  0.0782
  540MOL0     H71252  -2.755   9.166   8.937  2.4225 -1.1703  0.2803
  540MOL0     H71253  -2.797   9.092   9.101  1.9003  0.7009  1.8221
  540MOL0     H71254  -2.704   9.387   9.100  1.2315 -0.4509  2.8924
  540MOL0     H71255  -2.806   9.287   9.207  0.1780 -0.4244 -0.5513
  540MOL0     H71256  -2.984   9.301   9.016 -2.7660  1.5351  1.7239
  540MOL0     H71257  -2.867   9.402   8.932  0.5973 -1.3843  0.5542
  540MOL0     H71258  -2.962   9.462   9.223  1.2901 -2.0512 -0.3911
  540MOL0     H71259  -2.874   9.565   9.096 -0.5426  0.5109  1.8224
  540MOL0     H71260  -3.179   9.488   9.101 -1.4558  1.8022 -0.3214
  540MOL0     H71261  -3.082   9.561   8.977  4.1949  2.0954  0.7728
  540MOL0     H71262  -2.180   8.978   9.222 -0.9324  0.3219  0.2994
  540MOL0     H71263  -1.966   8.889   9.238 -0.3495  0.7880 -0.7916
  540MOL0     H71264  -1.792   8.337   9.452  0.1034  0.5695  1.9334
  540MOL0     H71265  -1.559   8.302   9.529 -3.1851 -0.2141  0.6544
  540MOL0     H71266   0.066   8.039   9.950 -0.2409 -0.2011  0.3702
  540MOL0     H71267   0.230   8.154  10.096  0.4590 -1.3501 -0.7001
  540MOL0     H71268   0.278   8.227  10.731 -0.3357 -2.5835 -2.3868
  540MOL0     H71269   0.478   8.298  10.823  1.2116 -1.2169 -1.2938
  540MOL0     H71270   0.740   8.596  10.627  2.5904  1.3144 -0.9628
  540MOL0     H71271   0.782   8.450  10.530 -0.3574 -0.7824  1.0079
  540MOL0     H71272   0.888   8.357  10.752 -1.1218  0.3370 -0.9343
  540MOL0     H71273   0.980   8.457  10.634  3.2373 -1.5904  2.4549
  540MOL0     H71274   0.861   8.591  10.876 -0.9115 -1.0683 -0.3674
  540MOL0     H71275   0.981   8.645  10.756 -0.7481 -0.8409 -1.2959
  540MOL0     H71276   1.003   8.432  10.986 -3.0324  0.4051 -2.6281
  540MOL0     H71277   1.118   8.426  10.854 -1.3202 -1.7472 -0.3919
  540MOL0     H71278   1.240   8.759  11.100  0.9815  1.4215 -2.1149
  540MOL0     H71279   0.600   8.487  10.451 -1.0583  1.6454  1.5921
  540MOL0     H71280   0.379   8.429  10.355 -0.7726  0.5526  0.3211
  541MOL0     O71281  11.267   6.251   1.814 -0.0534 -0.0851  0.8194
  541MOL0     C71282  11.262   6.129   1.785  0.3888 -0.3983  0.4904
  541MOL0     O71283  11.346   6.030   1.834 -0.8565  0.6148 -0.5505
  541MOL0     C71284  11.420   6.062   1.946 -0.3714 -0.4248  0.4622
  541MOL0     C71285  11.545   6.122   1.935  0.0100  0.9523  0.8171
  541MOL0     C71286  11.615   6.143   2.060 -0.1617 -0.2409  0.4454
  541MOL0     C71287  11.559   6.151   2.186  0.4640 -0.6801 -0.4882
  541MOL0     O71288  11.640   6.182   2.290 -0.1967 -0.5186 -0.0843
  541MOL0     C71289  11.588   6.156   2.423  0.2071  0.4260 -0.5233
  541MOL0     C71290  11.684   6.205   2.527 -0.0194 -0.4892  0.1336
  541MOL0     C71291  11.820   6.126   2.522 -0.8698 -0.4614  0.6112
  541MOL0     C71292  11.930   6.175   2.618  0.1011 -1.0342  1.2894
  541MOL0     C71293  12.053   6.080   2.633 -0.2037  0.3376  0.0527
  541MOL0     C71294  12.152   6.114   2.523 -0.4534 -1.5562 -0.6890
  541MOL0     C71295  12.289   6.043   2.525 -0.2063 -0.0238 -0.0537
  541MOL0     C71296  12.391   6.069   2.406  0.7730 -0.0526  0.4107
  541MOL0     N71297  12.482   6.184   2.444  0.4222  0.4598  0.1024
  541MOL0     C71298  12.438   6.312   2.453 -0.0223  0.3506  0.4369
  541MOL0     C71299  12.543   6.386   2.492  0.8197 -0.1870 -0.4252
  541MOL0     C71300  12.531   6.525   2.536 -0.5405  0.8919  0.3250
  541MOL0     C71301  12.534   6.499   2.687 -0.3142 -0.1718 -0.2532
  541MOL0     C71302  12.525   6.647   2.744  0.8710  0.0484  0.4312
  541MOL0     C71303  12.548   6.642   2.899 -0.2470 -0.1310 -0.5018
  541MOL0     O71304  12.579   6.774   2.959  0.5246 -0.4476  0.2622
  541MOL0     C71305  12.496   6.879   2.951 -0.2857  1.1737  0.3359
  541MOL0     C71306  12.551   7.005   2.974 -0.0868 -0.0197  1.3661
  541MOL0     C71307  12.473   7.118   2.948 -0.0654  0.0481 -0.2435
  541MOL0     C71308  12.344   7.109   2.900  0.3078  0.2368  0.6280
  541MOL0     C71309  12.280   7.232   2.864  1.4143 -1.3270  0.2460
  541MOL0     O71310  12.142   7.229   2.856 -0.4069 -0.9407  0.4931
  541MOL0     C71311  12.073   7.341   2.813  0.0320  0.7337  0.0856
  541MOL0     C71312  11.970   7.331   2.720  0.4322 -0.2171 -1.7536
  541MOL0     C71313  11.880   7.444   2.693 -1.1467  0.3477  0.1610
  541MOL0     C71314  11.901   7.565   2.765  0.1099  0.7698  0.1710
  541MOL0     O71315  11.824   7.671   2.733 -0.8137 -0.9101 -0.6365
  541MOL0     C71316  11.808   7.778   2.836  0.7506 -0.1542  0.0112
  541MOL0     C71317  11.700   7.873   2.785  0.1282 -1.1612 -0.8541
  541MOL0     C71318  11.556   7.819   2.778  0.8569 -0.1406 -0.6422
  541MOL0     C71319  11.455   7.930   2.776  0.2640  0.5759  0.2319
  541MOL0     C71320  11.318   7.868   2.732  0.4108  0.3656 -1.0705
  541MOL0     C71321  11.220   7.986   2.701  0.0031 -0.2428  0.2389
  541MOL0     C71322  11.079   7.934   2.718  0.9603 -1.0882  0.3042
  541MOL0     C71323  11.063   7.807   2.634  0.5100  0.1630 -0.2939
  541MOL0    Cl71324  11.110   7.828   2.455 -0.1634 -0.1328  0.1044
  541MOL0     C71325  12.006   7.579   2.852 -0.6607  0.1518 -0.0937
  541MOL0     C71326  12.085   7.464   2.871  0.0994 -0.1684 -0.4914
  541MOL0     O71327  12.347   7.328   2.850 -0.5376  0.3657 -0.5355
  541MOL0     C71328  12.279   6.985   2.912 -0.1669 -0.1192 -0.2798
  541MOL0     C71329  12.357   6.869   2.925 -0.4638  1.1833 -0.0163
  541MOL0     N71330  12.647   6.299   2.514  0.1586  0.1374  0.2771
  541MOL0     N71331  12.609   6.178   2.494  0.5476 -0.0223  0.4837
  541MOL0     C71332  11.418   6.104   2.193 -0.1869 -0.2376  0.8016
  541MOL0     C71333  11.361   6.048   2.077 -0.1321 -0.2409  0.1896
  541MOL0     C71334  11.158   6.084   1.697 -0.2567  0.3516  0.1872
  541MOL0     C71335  11.062   6.169   1.651 -0.1280 -0.5613  0.5000
  541MOL0     C71336  10.970   6.140   1.549  0.6201 -0.5257  0.5088
  541MOL0     C71337  10.962   6.005   1.504 -0.8475  0.6424 -0.0316
  541MOL0     O71338  10.856   5.976   1.421 -0.4691 -0.8314  0.8951
  541MOL0     C71339  10.819   5.834   1.411  0.2986 -0.5274  1.4839
  541MOL0     C71340  10.724   5.824   1.285  0.4711  0.7618 -0.3828
  541MOL0     C71341  10.700   5.676   1.247  0.6691  0.1316  0.4380
  541MOL0     C71342  10.820   5.611   1.184 -0.0836 -0.2704 -0.3625
  541MOL0     C71343  10.908   5.681   1.084  0.8377  0.0819 -0.2527
  541MOL0     C71344  10.969   5.735   0.996  0.0551 -0.8880  0.4065
  541MOL0     C71345  11.053   5.912   1.558 -0.1569 -0.2129  0.4527
  541MOL0     C71346  11.151   5.950   1.650 -0.2314 -0.6990 -0.2419
  541MOL0     H71347  11.596   6.130   1.840 -1.3472  3.6901  0.2067
  541MOL0     H71348  11.719   6.175   2.059  0.8782 -3.3321 -0.4969
  541MOL0     H71349  11.580   6.048   2.440  0.7555  0.4054 -0.3714
  541MOL0     H71350  11.490   6.192   2.453 -1.5295 -3.2909 -1.1592
  541MOL0     H71351  11.643   6.201   2.628 -0.7643 -0.0694 -0.1420
  541MOL0     H71352  11.704   6.307   2.491 -0.7830  0.5821  2.5482
  541MOL0     H71353  11.864   6.137   2.423  0.8776 -0.6164  1.3464
  541MOL0     H71354  11.800   6.020   2.541  2.1572 -1.3303 -0.4524
  541MOL0     H71355  11.953   6.275   2.582 -0.5706 -1.7598 -1.4074
  541MOL0     H71356  11.879   6.189   2.714 -3.4347 -1.8720 -0.2760
  541MOL0     H71357  12.022   5.976   2.620 -0.3217  0.1185  1.8468
  541MOL0     H71358  12.102   6.092   2.730 -1.6633  1.8509  0.6777
  541MOL0     H71359  12.167   6.223   2.522  1.4517 -1.7857 -1.8635
  541MOL0     H71360  12.113   6.080   2.427 -0.1533 -3.0811 -0.2890
  541MOL0     H71361  12.335   6.066   2.622  1.4130 -0.6372 -0.6545
  541MOL0     H71362  12.257   5.939   2.533  0.5411 -0.3913 -1.5061
  541MOL0     H71363  12.343   6.090   2.310  2.1707 -1.6572 -0.6898
  541MOL0     H71364  12.451   5.979   2.392 -1.9557 -2.2944  2.1701
  541MOL0     H71365  12.344   6.360   2.428  0.9108  1.8109 -0.3869
  541MOL0     H71366  12.441   6.569   2.491 -1.3405 -1.5837 -0.6430
  541MOL0     H71367  12.620   6.574   2.495 -1.3257  0.1163 -2.5201
  541MOL0     H71368  12.621   6.442   2.721 -0.0258 -0.2021 -1.0200
  541MOL0     H71369  12.446   6.449   2.728  1.0313 -1.0484  1.7101
  541MOL0     H71370  12.610   6.706   2.710  0.3345 -0.4716 -2.0046
  541MOL0     H71371  12.431   6.697   2.717  1.0342  0.4290  0.5655
  541MOL0     H71372  12.637   6.583   2.918  0.2257  0.7404  0.0864
  541MOL0     H71373  12.456   6.601   2.942 -1.0003  1.5039 -0.4507
  541MOL0     H71374  12.656   7.019   2.998  1.2813 -1.7101 -2.7491
  541MOL0     H71375  12.523   7.211   2.970 -0.3107  0.3575 -0.9614
  541MOL0     H71376  11.957   7.237   2.668  1.6113 -0.7677 -1.0823
  541MOL0     H71377  11.799   7.436   2.621 -2.2267  0.8452  1.2737
  541MOL0     H71378  11.901   7.835   2.851 -1.2032  3.1501  0.4382
  541MOL0     H71379  11.768   7.738   2.929 -0.5097 -0.8199 -0.7901
  541MOL0     H71380  11.714   7.910   2.683  0.5704  2.0055  0.2472
  541MOL0     H71381  11.698   7.960   2.851 -0.6871  1.5963 -4.2040
  541MOL0     H71382  11.520   7.768   2.868  0.3012  0.9643 -0.2298
  541MOL0     H71383  11.543   7.762   2.686  0.2750  0.7253 -1.1122
  541MOL0     H71384  11.448   7.989   2.868  1.8841  0.7964  0.2465
  541MOL0     H71385  11.489   8.003   2.702  0.4848  1.4242  1.1439
  541MOL0     H71386  11.276   7.812   2.816 -0.8009 -0.3685 -2.1305
  541MOL0     H71387  11.320   7.794   2.651  1.2076 -0.6611 -0.1400
  541MOL0     H71388  11.235   8.019   2.597  1.1249 -1.2119  0.0690
  541MOL0     H71389  11.241   8.062   2.776 -0.9538 -2.5788  3.0432
  541MOL0     H71390  11.053   7.912   2.822 -3.3918  0.9127 -0.1341
  541MOL0     H71391  11.007   8.006   2.678 -0.1107 -0.6801  2.8227
  541MOL0     H71392  10.963   7.764   2.631  1.9133 -3.5747  0.4429
  541MOL0     H71393  11.119   7.730   2.689  0.3435  0.8820  0.9278
  541MOL0     H71394  12.020   7.662   2.920 -2.1566 -0.6978  1.3418
  541MOL0     H71395  12.165   7.485   2.941  0.6351 -4.3857  0.4140
  541MOL0     H71396  12.172   6.980   2.895 -0.6618  2.9385  1.2278
  541MOL0     H71397  12.321   6.766   2.921 -0.3779  1.0137  2.0364
  541MOL0     H71398  11.354   6.103   2.281  1.0348  3.0318  1.8630
  541MOL0     H71399  11.260   6.006   2.072  0.5549 -1.8895 -0.9214
  541MOL0     H71400  11.065   6.264   1.704  0.7642 -2.1588  3.5580
  541MOL0     H71401  10.894   6.211   1.519 -1.6902 -3.1601 -0.2856
  541MOL0     H71402  10.770   5.817   1.508 -2.5003  0.4333  0.3198
  541MOL0     H71403  10.907   5.770   1.398  3.5005  3.4705  1.4158
  541MOL0     H71404  10.631   5.873   1.315  1.7288  4.0220 -1.3449
  541MOL0     H71405  10.771   5.880   1.204  2.3898  1.3853  1.0780
  541MOL0     H71406  10.620   5.664   1.173  0.9845  0.7816 -0.0197
  541MOL0     H71407  10.662   5.623   1.335 -2.2099  1.0076 -0.1781
  541MOL0     H71408  10.890   5.588   1.265  0.3533 -2.5146 -1.3002
  541MOL0     H71409  10.789   5.514   1.145  1.1517 -1.6695  1.9170
  541MOL0     H71410  10.999   5.791   0.910 -2.8323 -0.1859 -0.2409
  541MOL0     H71411  11.037   5.810   1.526 -0.0605  0.2212 -1.0796
  541MOL0     H71412  11.231   5.887   1.688  1.1152  1.3922  0.5983
  542MOL0     O71413   8.319   7.016   5.803  0.7546 -0.1912 -0.1338
  542MOL0     C71414   8.378   7.115   5.854 -0.6283  0.5278 -0.6226
  542MOL0     O71415   8.336   7.206   5.950  1.1826 -0.0788  0.0638
  542MOL0     C71416   8.209   7.221   6.003  0.4250 -0.2460  0.2686
  542MOL0     C71417   8.184   7.343   6.059  0.3765  0.8771 -0.0620
  542MOL0     C71418   8.050   7.364   6.109 -0.7050  0.0519 -0.2696
  542MOL0     C71419   7.942   7.279   6.082 -0.1162 -0.7664 -0.1681
  542MOL0     O71420   7.816   7.309   6.124  0.5367  0.0996 -0.6144
  542MOL0     C71421   7.759   7.226   6.231 -0.5822  0.0349  0.6529
  542MOL0     C71422   7.651   7.304   6.303 -0.5894  0.7420  0.3429
  542MOL0     C71423   7.692   7.421   6.394  0.2902 -0.1300  0.7022
  542MOL0     C71424   7.567   7.519   6.377 -0.7593 -0.5822  0.1785
  542MOL0     C71425   7.568   7.607   6.256 -0.4534 -0.0037  0.0076
  542MOL0     C71426   7.446   7.700   6.254  1.1884 -0.4281 -0.4623
  542MOL0     C71427   7.453   7.795   6.133 -0.0607 -0.5194  0.8491
  542MOL0     C71428   7.335   7.896   6.136  0.2678 -0.1265  0.2737
  542MOL0     N71429   7.199   7.834   6.136  0.5104  0.2734 -0.9725
  542MOL0     C71430   7.157   7.757   6.032  0.6107 -0.3647 -0.4807
  542MOL0     C71431   7.033   7.724   6.064  0.1227  0.0028  1.0415
  542MOL0     C71432   6.936   7.680   5.959  0.7778  0.0648 -0.0381
  542MOL0     C71433   6.879   7.799   5.873  0.7073 -0.1404  0.3288
  542MOL0     C71434   6.820   7.743   5.750  0.7086  0.0698 -0.3099
  542MOL0     C71435   6.722   7.832   5.669  0.1196  0.0105  0.3797
  542MOL0     O71436   6.634   7.911   5.759  0.4370  0.5825  0.2642
  542MOL0     C71437   6.504   7.956   5.720 -0.5173 -0.2538  0.0606
  542MOL0     C71438   6.413   7.975   5.820  0.3182  0.9000 -0.5772
  542MOL0     C71439   6.285   8.021   5.780  1.0546  0.5002 -0.2110
  542MOL0     C71440   6.248   8.048   5.643 -0.3552 -0.7067 -0.0080
  542MOL0     C71441   6.114   8.076   5.598 -0.2272  0.2185  0.6473
  542MOL0     O71442   6.082   8.039   5.470 -0.1620 -1.1085 -0.0377
  542MOL0     C71443   5.954   8.046   5.418 -0.2081 -0.3246 -0.3354
  542MOL0     C71444   5.876   7.926   5.394  0.3686  0.4137 -0.7751
  542MOL0     C71445   5.751   7.926   5.341  0.2599  0.1625  1.1060
  542MOL0     C71446   5.702   8.048   5.284  1.1517  0.5434  0.5013
  542MOL0     O71447   5.584   8.059   5.208  0.5492 -0.0649  0.6694
  542MOL0     C71448   5.517   7.942   5.177  0.2036  0.4859 -0.6881
  542MOL0     C71449   5.394   7.973   5.079 -1.1603  0.4115 -0.4007
  542MOL0     C71450   5.285   8.060   5.139  0.6026  1.0001  0.2068
  542MOL0     C71451   5.144   8.081   5.064 -0.6388  0.2359 -2.1379
  542MOL0     C71452   5.156   8.081   4.915  0.5066 -0.1825 -0.0912
  542MOL0     C71453   5.215   8.205   4.846  0.0125  0.6240 -0.0450
  542MOL0     C71454   5.186   8.209   4.697 -0.0898 -0.0058  0.8461
  542MOL0     C71455   5.265   8.100   4.623  0.4553 -0.3211  0.2648
  542MOL0    Cl71456   5.238   8.141   4.453 -0.1893  0.0923 -0.3190
  542MOL0     C71457   5.774   8.168   5.293 -1.0186  0.8319 -0.0796
  542MOL0     C71458   5.901   8.165   5.366 -0.4553 -0.3032  0.4954
  542MOL0     O71459   6.031   8.120   5.675 -0.0408 -0.4299 -0.1069
  542MOL0     C71460   6.348   8.015   5.548  0.3651 -0.5184 -1.0565
  542MOL0     C71461   6.475   7.973   5.585  0.1650  0.6028  0.2058
  542MOL0     N71462   7.002   7.764   6.193 -0.2140  0.2549 -0.5559
  542MOL0     N71463   7.113   7.821   6.243 -0.4993 -0.4505  0.6667
  542MOL0     C71464   7.970   7.158   6.027 -0.4359 -0.4829  0.2485
  542MOL0     C71465   8.107   7.127   5.993  0.4920  0.4069 -0.8955
  542MOL0     C71466   8.516   7.131   5.800  0.4734 -0.0656 -0.3822
  542MOL0     C71467   8.543   7.077   5.672  0.2412  0.3164  0.0322
  542MOL0     C71468   8.676   7.088   5.625  0.7275  0.5557 -0.0881
  542MOL0     C71469   8.776   7.137   5.710 -0.8495 -0.4635 -0.5618
  542MOL0     O71470   8.901   7.161   5.652 -1.0974 -0.2657  0.1829
  542MOL0     C71471   8.951   7.079   5.555 -0.4599 -0.1612  0.2144
  542MOL0     C71472   9.111   7.071   5.563  0.4951  0.5256  0.1107
  542MOL0     C71473   9.198   7.187   5.547 -0.3048 -0.3712  0.2342
  542MOL0     C71474   9.175   7.288   5.665 -0.4169  0.6904  0.1386
  542MOL0     C71475   9.314   7.349   5.683  0.4385 -0.0386 -0.2801
  542MOL0     C71476   9.427   7.406   5.696  0.2978 -0.6788 -0.3897
  542MOL0     C71477   8.747   7.201   5.835  0.2216 -0.1703  0.3318
  542MOL0     C71478   8.614   7.201   5.876 -0.1355 -0.4490  0.3518
  542MOL0     H71479   8.254   7.423   6.081 -0.2329  1.6232 -0.7815
  542MOL0     H71480   8.028   7.453   6.167  2.1027  0.0761  0.9102
  542MOL0     H71481   7.834   7.201   6.306 -0.4450  2.2569  1.3304
  542MOL0     H71482   7.725   7.126   6.204 -0.2037 -0.2467  1.2107
  542MOL0     H71483   7.597   7.229   6.363 -1.7981 -1.1725 -2.8937
  542MOL0     H71484   7.576   7.333   6.229 -0.3863  0.8869  0.1971
  542MOL0     H71485   7.786   7.465   6.361 -0.5327  2.4001  1.5245
  542MOL0     H71486   7.716   7.385   6.495  1.0336 -0.6757  0.3451
  542MOL0     H71487   7.470   7.468   6.371 -1.1271  0.2318 -1.2979
  542MOL0     H71488   7.563   7.583   6.466 -0.6611 -1.5744  0.9198
  542MOL0     H71489   7.570   7.544   6.167 -2.9135 -1.2232  0.7135
  542MOL0     H71490   7.662   7.663   6.259 -3.0622  4.9486  2.0645
  542MOL0     H71491   7.451   7.755   6.348  1.1178 -1.5810  0.2299
  542MOL0     H71492   7.352   7.646   6.244  2.1076 -2.0966 -0.5138
  542MOL0     H71493   7.545   7.853   6.144 -1.5006  1.9231  0.8774
  542MOL0     H71494   7.457   7.750   6.033  4.1711  0.8617  0.1623
  542MOL0     H71495   7.334   7.972   6.056 -1.5637 -0.3629  0.0408
  542MOL0     H71496   7.344   7.950   6.231 -2.9399  0.0140  0.5840
  542MOL0     H71497   7.203   7.744   5.935  1.2900 -0.3092 -0.1741
  542MOL0     H71498   6.862   7.626   6.019  2.0557 -0.8506  0.7710
  542MOL0     H71499   6.983   7.602   5.899  2.2698  1.2972 -0.5222
  542MOL0     H71500   6.969   7.858   5.853  1.4068 -1.7207 -1.4692
  542MOL0     H71501   6.794   7.843   5.926 -1.1667 -0.8771 -1.8604
  542MOL0     H71502   6.905   7.707   5.690  1.4411  2.3099 -0.6922
  542MOL0     H71503   6.760   7.665   5.798 -0.6172 -0.7253 -3.0331
  542MOL0     H71504   6.657   7.766   5.610 -1.7198  0.4085  1.8439
  542MOL0     H71505   6.779   7.906   5.613  0.9978  0.0603  1.3134
  542MOL0     H71506   6.431   7.945   5.923 -2.0720 -1.9688 -0.8671
  542MOL0     H71507   6.205   8.022   5.853  1.1522 -0.2846 -0.0923
  542MOL0     H71508   5.921   7.831   5.421  0.0592  0.4522 -0.0940
  542MOL0     H71509   5.698   7.831   5.340  2.7471 -1.4068  3.2511
  542MOL0     H71510   5.474   7.901   5.269  1.7207 -1.5106 -0.8104
  542MOL0     H71511   5.575   7.864   5.128 -1.5166 -0.6605 -1.0045
  542MOL0     H71512   5.346   7.877   5.057 -0.0282  0.0770 -1.5587
  542MOL0     H71513   5.441   8.024   4.994  2.2284  0.8450  1.5752
  542MOL0     H71514   5.323   8.160   5.162  1.1424  0.7706  0.3243
  542MOL0     H71515   5.256   8.014   5.235 -0.8029 -2.4541 -1.6935
  542MOL0     H71516   5.077   7.999   5.092  0.8168 -1.3980 -3.2759
  542MOL0     H71517   5.096   8.173   5.100 -0.6146 -1.3503  2.5772
  542MOL0     H71518   5.049   8.076   4.892  0.0810  0.6511  1.5541
  542MOL0     H71519   5.199   7.988   4.875 -0.7219 -0.4286 -0.9008
  542MOL0     H71520   5.323   8.214   4.862 -0.1455  1.0654  0.8906
  542MOL0     H71521   5.162   8.296   4.876 -3.4261 -0.9397 -0.9296
  542MOL0     H71522   5.080   8.183   4.693 -0.0780 -0.0233  0.6204
  542MOL0     H71523   5.189   8.308   4.651  0.0833  0.5368  1.9793
  542MOL0     H71524   5.219   8.002   4.639 -0.0613 -0.2936 -0.9607
  542MOL0     H71525   5.369   8.084   4.651 -0.3929 -1.5702  3.0942
  542MOL0     H71526   5.757   8.253   5.229  1.2197  1.2535 -0.2115
  542MOL0     H71527   5.961   8.255   5.369 -0.8715  0.0181 -0.3038
  542MOL0     H71528   6.330   8.040   5.444  0.6091  3.7867 -0.2363
  542MOL0     H71529   6.557   7.969   5.514 -1.7388  3.4092 -2.3808
  542MOL0     H71530   7.896   7.082   6.005 -0.7163 -0.3725  0.7924
  542MOL0     H71531   8.124   7.028   5.951 -0.3966  1.0944 -3.0339
  542MOL0     H71532   8.467   7.040   5.604  0.6719 -3.3819  1.3250
  542MOL0     H71533   8.679   7.033   5.532 -0.7331 -1.5377  1.0237
  542MOL0     H71534   8.921   7.117   5.456  0.0249  0.3992  0.2771
  542MOL0     H71535   8.916   6.976   5.567  2.1958 -0.8525  3.3441
  542MOL0     H71536   9.126   7.040   5.666 -1.5562  3.7356  1.5679
  542MOL0     H71537   9.137   6.987   5.498 -2.2567 -0.5176  0.2292
  542MOL0     H71538   9.186   7.234   5.449  3.6784  3.2726  1.1995
  542MOL0     H71539   9.302   7.154   5.544  1.6734  4.9503 -0.1401
  542MOL0     H71540   9.098   7.359   5.632  2.1220  4.0027  0.8107
  542MOL0     H71541   9.126   7.240   5.750 -1.9169 -2.4569 -2.2968
  542MOL0     H71542   9.508   7.474   5.713  1.3317 -1.4726 -1.9106
  542MOL0     H71543   8.825   7.259   5.883  0.6722  0.6060 -1.2637
  542MOL0     H71544   8.589   7.263   5.961  1.0181  2.5343 -1.3125
  543MOL0     O71545   5.257  10.797   4.899  0.3324  0.4948 -0.3549
  543MOL0     C71546   5.240  10.679   4.935 -0.7086  0.5210  0.1823
  543MOL0     O71547   5.320  10.574   4.903  0.9782 -0.3801 -0.1254
  543MOL0     C71548   5.443  10.593   4.844 -0.4052 -0.3325  0.2950
  543MOL0     C71549   5.478  10.532   4.717 -0.3484  0.0400 -0.5143
  543MOL0     C71550   5.608  10.552   4.672  0.1334 -0.4765  0.2673
  543MOL0     C71551   5.701  10.634   4.732  0.7338 -0.1177 -0.4658
  543MOL0     O71552   5.812  10.674   4.663  0.3873 -0.0734  0.6497
  543MOL0     C71553   5.936  10.674   4.726  0.6049 -0.0575 -0.0368
  543MOL0     C71554   6.038  10.630   4.615  0.2304  0.8254  0.0470
  543MOL0     C71555   6.168  10.583   4.676  0.3367  0.1097 -0.3551
  543MOL0     C71556   6.275  10.600   4.568 -1.3122  0.2251 -0.5759
  543MOL0     C71557   6.419  10.536   4.597 -0.4011 -0.2658 -0.1704
  543MOL0     C71558   6.414  10.387   4.571 -0.0291 -0.0642 -0.1407
  543MOL0     C71559   6.547  10.316   4.606  0.4387 -0.6724 -0.2398
  543MOL0     C71560   6.544  10.164   4.589  0.1559 -0.9437  0.3587
  543MOL0     N71561   6.432  10.110   4.669 -1.1197 -0.3052  0.3726
  543MOL0     C71562   6.420  10.117   4.805  0.5676 -0.2852 -0.8007
  543MOL0     C71563   6.282  10.097   4.823  0.0816 -0.0928  0.5501
  543MOL0     C71564   6.200  10.115   4.950 -0.0424  0.4709  0.7350
  543MOL0     C71565   6.092  10.003   4.972 -0.5243 -0.0536  0.2104
  543MOL0     C71566   6.149   9.862   4.995  0.3040  0.3180 -0.3506
  543MOL0     C71567   6.210   9.867   5.133  0.0415  0.1745 -0.4948
  543MOL0     O71568   6.122   9.879   5.239 -0.2686 -0.0397  0.2322
  543MOL0     C71569   6.160   9.833   5.367  0.0643  0.4483  1.0811
  543MOL0     C71570   6.292   9.795   5.395  0.5325 -0.6663  0.9616
  543MOL0     C71571   6.326   9.746   5.519 -0.4247 -0.5860  0.6720
  543MOL0     C71572   6.231   9.746   5.620  0.2471 -0.0823  0.4224
  543MOL0     C71573   6.258   9.671   5.746 -0.5435 -0.4712 -0.6236
  543MOL0     O71574   6.381   9.625   5.770  0.8190  0.4292 -0.1742
  543MOL0     C71575   6.415   9.562   5.883  0.3555  0.5928  0.0335
  543MOL0     C71576   6.539   9.501   5.882  0.3244  0.6240 -0.1514
  543MOL0     C71577   6.579   9.426   5.989  0.2963  0.1884 -0.3039
  543MOL0     C71578   6.501   9.391   6.099 -0.1301 -0.3743  0.0081
  543MOL0     O71579   6.563   9.312   6.190 -0.4602 -0.0068 -0.5394
  543MOL0     C71580   6.479   9.257   6.290 -0.4945  0.3649  0.7352
  543MOL0     C71581   6.550   9.234   6.428  1.2174  0.1011 -0.1572
  543MOL0     C71582   6.660   9.126   6.427 -0.0839 -0.7486 -0.2919
  543MOL0     C71583   6.722   9.119   6.570 -0.1100  0.5487  0.1391
  543MOL0     C71584   6.823   9.228   6.591 -0.6552 -0.9247  0.6901
  543MOL0     C71585   6.907   9.216   6.721  0.4111 -0.3538 -0.4907
  543MOL0     C71586   6.997   9.334   6.739  0.0858 -0.9079  0.6370
  543MOL0     C71587   7.086   9.331   6.865 -0.4955 -0.9011 -0.2258
  543MOL0    Cl71588   7.190   9.468   6.904 -0.0131 -0.1237 -0.1211
  543MOL0     C71589   6.385   9.463   6.111  0.3286 -1.3660 -0.6801
  543MOL0     C71590   6.341   9.547   6.000 -0.0589  0.4992 -0.4832
  543MOL0     O71591   6.167   9.672   5.831  0.6875 -0.3325  0.0310
  543MOL0     C71592   6.105   9.797   5.600 -0.4351 -0.2663  1.2487
  543MOL0     C71593   6.064   9.844   5.470  0.1051  0.5985 -0.2949
  543MOL0     N71594   6.232  10.053   4.707  0.1055  0.3931 -0.3953
  543MOL0     N71595   6.324  10.057   4.615 -0.7223 -0.5477  0.3924
  543MOL0     C71596   5.675  10.676   4.862 -0.2443 -0.0438 -0.0571
  543MOL0     C71597   5.546  10.648   4.914  0.2017  0.5415 -0.2810
  543MOL0     C71598   5.132  10.629   5.022  2.0502 -1.4665  0.2015
  543MOL0     C71599   5.006  10.690   5.010 -0.2118 -0.0843 -0.8536
  543MOL0     C71600   4.893  10.644   5.083  0.1180  0.2343 -0.8475
  543MOL0     C71601   4.910  10.519   5.158  0.7228 -0.5770 -0.1655
  543MOL0     O71602   4.825  10.479   5.255 -1.0826 -0.3510  0.0450
  543MOL0     C71603   4.713  10.406   5.202  0.1226 -0.8382 -1.0142
  543MOL0     C71604   4.729  10.254   5.162 -0.3101 -0.6863 -0.1059
  543MOL0     C71605   4.783  10.184   5.294  0.7199 -0.4035 -0.3297
  543MOL0     C71606   4.676  10.145   5.393 -0.9639 -0.1365  0.2339
  543MOL0     C71607   4.590  10.041   5.340 -0.0875 -0.8059 -0.4070
  543MOL0     C71608   4.523   9.956   5.278 -0.2759 -0.2308 -0.3148
  543MOL0     C71609   5.030  10.449   5.161  0.3750  0.3231  0.6063
  543MOL0     C71610   5.138  10.506   5.094  0.4358 -0.1693 -0.3189
  543MOL0     H71611   5.410  10.462   4.670  0.2708 -0.2282 -1.0170
  543MOL0     H71612   5.628  10.499   4.579  0.0478  0.5810 -0.3789
  543MOL0     H71613   5.949  10.618   4.819 -0.7178 -0.0264  0.1847
  543MOL0     H71614   5.954  10.779   4.750 -1.2897 -0.3787  3.3435
  543MOL0     H71615   6.054  10.710   4.542 -1.0265 -0.7770 -2.0990
  543MOL0     H71616   5.993  10.547   4.559 -0.0725  0.3646  0.9470
  543MOL0     H71617   6.169  10.477   4.703  4.1509 -0.1824 -1.1467
  543MOL0     H71618   6.189  10.644   4.765 -2.2848 -0.4352  0.7487
  543MOL0     H71619   6.253  10.544   4.477  1.2061  1.4464 -2.0300
  543MOL0     H71620   6.290  10.706   4.543  1.7533  0.4435  1.6068
  543MOL0     H71621   6.437  10.553   4.704 -1.9233 -1.8593  0.3877
  543MOL0     H71622   6.483  10.593   4.528 -1.5847 -0.4323 -1.4521
  543MOL0     H71623   6.376  10.352   4.474 -3.0825 -2.7003  1.7957
  543MOL0     H71624   6.335  10.350   4.637  0.9239 -0.7842  0.6358
  543MOL0     H71625   6.629  10.357   4.547  1.2045 -0.5406  0.8782
  543MOL0     H71626   6.564  10.330   4.713  3.0873 -2.3860 -0.3113
  543MOL0     H71627   6.645  10.127   4.604  0.8078  1.1985  1.6838
  543MOL0     H71628   6.539  10.156   4.480  2.0380  3.4624 -0.2375
  543MOL0     H71629   6.494  10.143   4.880  0.1289 -0.9558 -0.1213
  543MOL0     H71630   6.146  10.205   4.918 -0.7987 -1.2455 -3.5877
  543MOL0     H71631   6.271  10.132   5.031  0.1121 -1.4869  1.0510
  543MOL0     H71632   6.032  10.006   4.880 -1.0297 -2.3740  0.3926
  543MOL0     H71633   6.017  10.028   5.047 -0.8753  0.1522 -0.2004
  543MOL0     H71634   6.065   9.793   4.996 -0.7880  1.6214  0.1783
  543MOL0     H71635   6.235   9.838   4.932  1.8017  2.2880  0.8231
  543MOL0     H71636   6.286   9.944   5.152  0.9923 -1.3048  2.2139
  543MOL0     H71637   6.262   9.771   5.145 -1.1874 -0.7059 -1.8790
  543MOL0     H71638   6.367   9.794   5.317  0.2817  2.2118  0.5725
  543MOL0     H71639   6.421   9.702   5.547  0.6608  1.1518 -0.1157
  543MOL0     H71640   6.599   9.508   5.792  0.1388 -1.5036 -0.4932
  543MOL0     H71641   6.684   9.399   5.991 -0.4456 -3.2989 -0.6553
  543MOL0     H71642   6.446   9.159   6.254  2.5553 -1.0480  1.4587
  543MOL0     H71643   6.387   9.310   6.315 -2.3656 -2.0982 -0.5033
  543MOL0     H71644   6.472   9.206   6.499  1.9990  0.0041  0.6807
  543MOL0     H71645   6.588   9.330   6.464  2.6921  1.0076 -3.7350
  543MOL0     H71646   6.738   9.159   6.357 -1.6976  0.0404 -1.8073
  543MOL0     H71647   6.607   9.032   6.410 -2.0283  0.1997  0.2278
  543MOL0     H71648   6.643   9.130   6.644  0.0294 -2.2967  0.8436
  543MOL0     H71649   6.765   9.019   6.585 -1.3287 -0.3484 -1.9314
  543MOL0     H71650   6.776   9.326   6.581  1.2093 -0.1442 -1.0016
  543MOL0     H71651   6.900   9.219   6.514  1.7969  0.4479  2.8689
  543MOL0     H71652   6.957   9.120   6.729  2.3281  0.3008 -3.1893
  543MOL0     H71653   6.838   9.223   6.806 -0.1300 -2.9765 -0.6395
  543MOL0     H71654   7.061   9.351   6.652  1.3947 -1.4916  1.4491
  543MOL0     H71655   6.937   9.425   6.754  1.9155  0.5665 -0.4749
  543MOL0     H71656   7.150   9.244   6.850 -1.3295 -1.4214 -0.8757
  543MOL0     H71657   7.030   9.309   6.957 -0.6622  3.3098  0.8914
  543MOL0     H71658   6.333   9.462   6.206  0.1749  1.3357 -0.6502
  543MOL0     H71659   6.244   9.593   6.016 -0.7087 -0.1080 -2.5176
  543MOL0     H71660   6.028   9.813   5.675 -4.0844  0.8387 -2.3396
  543MOL0     H71661   5.973   9.891   5.434 -1.3907 -0.4929  1.8669
  543MOL0     H71662   5.740  10.728   4.931 -1.7544  4.7416 -1.8456
  543MOL0     H71663   5.527  10.673   5.018 -1.3144  4.0259 -1.2311
  543MOL0     H71664   4.988  10.787   4.964  2.0623  0.8823  0.1302
  543MOL0     H71665   4.799  10.697   5.088 -0.6451 -0.8924 -2.3699
  543MOL0     H71666   4.678  10.458   5.113  0.9620  1.6687  0.0412
  543MOL0     H71667   4.627  10.421   5.268  0.0009  2.7383 -1.7889
  543MOL0     H71668   4.639  10.208   5.120 -0.1047 -0.0528 -1.2840
  543MOL0     H71669   4.813  10.248   5.093  1.8011  1.1844  2.1084
  543MOL0     H71670   4.840  10.262   5.346 -3.8379  4.0715 -1.3623
  543MOL0     H71671   4.844  10.099   5.259  1.7500  0.5206 -0.8404
  543MOL0     H71672   4.715  10.106   5.488 -0.6574 -0.7913 -0.1562
  543MOL0     H71673   4.624  10.237   5.421 -2.2582 -0.2786 -1.5728
  543MOL0     H71674   4.477   9.881   5.216  1.9208 -1.1600 -0.9434
  543MOL0     H71675   5.035  10.354   5.213  0.9054 -2.1059 -3.3872
  543MOL0     H71676   5.232  10.453   5.107  0.6933  0.8472  2.6214
  544MOL0     O71677  10.539   0.848   7.186  0.1529  0.0930 -0.4602
  544MOL0     C71678  10.439   0.852   7.252  0.0671  0.2471  0.6689
  544MOL0     O71679  10.439   0.847   7.380 -0.0916 -0.2232 -0.5965
  544MOL0     C71680  10.537   0.853   7.474  0.1360  0.2127  0.0342
  544MOL0     C71681  10.491   0.850   7.605  0.4372 -0.7525 -0.3821
  544MOL0     C71682  10.577   0.871   7.716 -0.1454  0.1342 -0.6554
  544MOL0     C71683  10.716   0.890   7.699  0.5340 -0.0331 -0.7507
  544MOL0     O71684  10.814   0.899   7.790  0.4778  0.5425  0.0018
  544MOL0     C71685  10.795   0.856   7.925  0.2154 -0.1123 -0.7891
  544MOL0     C71686  10.896   0.915   8.031 -0.3853  0.3509  0.1419
  544MOL0     C71687  11.034   0.924   7.965 -0.3502 -0.0505 -0.4788
  544MOL0     C71688  11.135   0.982   8.060  0.0789  0.3785 -0.7691
  544MOL0     C71689  11.274   0.998   7.994  0.5376  0.4222 -1.3893
  544MOL0     C71690  11.356   1.124   8.032  0.1226 -0.2373 -0.2805
  544MOL0     C71691  11.403   1.109   8.177 -0.6601 -0.2932 -0.6372
  544MOL0     C71692  11.492   0.981   8.206  0.3551 -0.2366  0.4568
  544MOL0     N71693  11.594   0.958   8.101  0.0750 -1.2010  0.6008
  544MOL0     C71694  11.697   1.036   8.065 -0.0741 -0.2852 -0.5594
  544MOL0     C71695  11.781   0.953   7.995 -0.2628  0.4269 -0.6538
  544MOL0     C71696  11.914   0.987   7.937 -0.5665  0.2691  0.4534
  544MOL0     C71697  11.887   1.089   7.827 -0.9926  0.1306 -0.4377
  544MOL0     C71698  11.954   1.067   7.696 -0.3644 -0.0146 -0.3097
  544MOL0     C71699  11.895   0.942   7.625  0.2315  0.5655 -0.6578
  544MOL0     O71700  11.808   0.977   7.520 -0.5963  0.6461  0.7219
  544MOL0     C71701  11.683   1.021   7.545 -0.0428 -0.6868 -1.5233
  544MOL0     C71702  11.585   0.958   7.638  0.3979 -0.5483  0.2164
  544MOL0     C71703  11.455   1.011   7.645 -0.3803  0.8091 -0.0558
  544MOL0     C71704  11.419   1.125   7.570  1.0761  0.4633 -0.1330
  544MOL0     C71705  11.285   1.179   7.582 -0.6523  0.4966 -0.4825
  544MOL0     O71706  11.247   1.255   7.474 -0.7140  0.0768  0.4796
  544MOL0     C71707  11.112   1.293   7.458  0.4793  0.4120  0.2413
  544MOL0     C71708  11.066   1.425   7.478  0.0094 -0.1728 -1.0681
  544MOL0     C71709  10.929   1.461   7.479 -0.5309 -0.3765 -0.1146
  544MOL0     C71710  10.822   1.365   7.447  0.2338  0.5069  0.2622
  544MOL0     O71711  10.695   1.404   7.462 -0.0654 -0.7043  0.4906
  544MOL0     C71712  10.598   1.351   7.371  0.0193  0.4079 -0.4668
  544MOL0     C71713  10.461   1.385   7.426  0.0727  0.5172 -0.8113
  544MOL0     C71714  10.372   1.263   7.381 -0.3686 -0.1727  0.5844
  544MOL0     C71715  10.227   1.300   7.372 -0.0490 -0.5295 -0.0024
  544MOL0     C71716  10.146   1.208   7.280 -0.6896 -0.2431 -0.7782
  544MOL0     C71717   9.997   1.252   7.248 -0.0763  0.8208  1.0275
  544MOL0     C71718   9.902   1.248   7.375  0.0311  0.3261 -0.2860
  544MOL0     C71719   9.757   1.299   7.353 -0.8567  0.2444  0.0666
  544MOL0    Cl71720   9.661   1.265   7.497  0.2728 -0.4708 -0.2816
  544MOL0     C71721  10.865   1.233   7.423 -0.6417  0.2434 -0.5299
  544MOL0     C71722  11.005   1.196   7.433  0.0339 -0.4256  0.4314
  544MOL0     O71723  11.214   1.146   7.674 -0.5899 -0.1083 -0.4779
  544MOL0     C71724  11.508   1.177   7.477 -0.5261  0.6483 -0.1850
  544MOL0     C71725  11.638   1.130   7.463 -0.0723 -0.3069  0.2379
  544MOL0     N71726  11.727   0.831   7.987  0.0136  0.4704  0.6087
  544MOL0     N71727  11.624   0.834   8.063 -0.4373 -0.3134  0.4834
  544MOL0     C71728  10.752   0.899   7.565 -0.2827  0.5640 -0.1090
  544MOL0     C71729  10.673   0.890   7.452 -0.4247  0.2108  0.2475
  544MOL0     C71730  10.308   0.850   7.188 -0.6649 -0.9178  0.1005
  544MOL0     C71731  10.188   0.864   7.257  0.5332 -0.0370 -0.7862
  544MOL0     C71732  10.063   0.892   7.201  0.2388 -0.2687 -0.0773
  544MOL0     C71733  10.057   0.900   7.063 -0.0439  1.1238 -0.3401
  544MOL0     O71734   9.941   0.942   7.005  0.5059  0.3082  0.6009
  544MOL0     C71735   9.932   0.927   6.861  0.6155 -1.0154  0.4687
  544MOL0     C71736   9.795   0.976   6.809 -0.6970  0.7244 -0.3692
  544MOL0     C71737   9.784   1.129   6.803  0.1957 -0.2633  0.1890
  544MOL0     C71738   9.723   1.181   6.675 -0.8651  0.0061 -0.2339
  544MOL0     C71739   9.592   1.124   6.659 -0.3493 -0.9812 -0.0800
  544MOL0     C71740   9.475   1.093   6.639  0.6322  0.7377  0.0963
  544MOL0     C71741  10.175   0.882   6.994  0.0889  0.7657  0.8267
  544MOL0     C71742  10.298   0.856   7.048  0.2165  0.0962 -0.9101
  544MOL0     H71743  10.384   0.840   7.623  0.6771  0.1962  1.9062
  544MOL0     H71744  10.532   0.874   7.814 -0.8179  0.5907 -0.9671
  544MOL0     H71745  10.801   0.747   7.922  0.0570 -0.1888  0.6406
  544MOL0     H71746  10.693   0.876   7.959  0.9307  0.5413  1.1457
  544MOL0     H71747  10.902   0.856   8.123  0.7391  1.7118  0.9955
  544MOL0     H71748  10.866   1.019   8.046 -2.2657  0.0450 -1.2130
  544MOL0     H71749  11.035   0.984   7.874 -0.5644  0.2495 -0.2851
  544MOL0     H71750  11.066   0.821   7.946  2.5328  0.8517 -1.0593
  544MOL0     H71751  11.088   1.077   8.090 -2.3837 -0.4838 -1.6789
  544MOL0     H71752  11.142   0.905   8.137  0.8745 -0.7761 -1.9411
  544MOL0     H71753  11.257   1.014   7.888  0.7387 -1.4515 -1.7343
  544MOL0     H71754  11.330   0.905   8.001  0.8922  0.6214 -1.5509
  544MOL0     H71755  11.293   1.212   8.020 -1.3323 -1.2775 -0.5563
  544MOL0     H71756  11.442   1.145   7.968 -0.4668  4.1498  0.0783
  544MOL0     H71757  11.456   1.202   8.203  0.2190 -0.4253 -1.8627
  544MOL0     H71758  11.311   1.093   8.234 -0.3595 -2.1872 -0.6481
  544MOL0     H71759  11.436   0.891   8.231  1.2780 -1.2758 -0.9890
  544MOL0     H71760  11.534   0.999   8.305 -0.8557 -2.2716  1.4062
  544MOL0     H71761  11.729   1.135   8.097  0.9504  0.0356 -2.4107
  544MOL0     H71762  11.960   0.893   7.906 -1.5070  0.1166 -0.5303
  544MOL0     H71763  11.990   1.023   8.006 -0.2338 -2.3509  1.5494
  544MOL0     H71764  11.927   1.185   7.863 -0.3121 -1.4741  3.5559
  544MOL0     H71765  11.779   1.099   7.815 -1.4523 -4.9367 -2.8222
  544MOL0     H71766  11.929   1.150   7.629 -1.1677 -0.2039 -0.2493
  544MOL0     H71767  12.062   1.051   7.702 -0.3090 -0.3869 -1.8505
  544MOL0     H71768  11.856   0.874   7.701  0.2793 -0.8608 -1.8641
  544MOL0     H71769  11.984   0.898   7.579  2.2811  2.9518  0.7426
  544MOL0     H71770  11.625   0.879   7.700  2.0931 -0.5259 -0.7662
  544MOL0     H71771  11.386   0.972   7.719  1.6397 -1.2837  0.8153
  544MOL0     H71772  11.142   1.501   7.495  0.3511 -0.0240 -3.0618
  544MOL0     H71773  10.882   1.557   7.501  0.5073  0.1584 -0.1669
  544MOL0     H71774  10.592   1.242   7.366  0.0557  0.3626  0.2626
  544MOL0     H71775  10.610   1.397   7.273  1.3213  0.3838 -0.3284
  544MOL0     H71776  10.424   1.478   7.382 -3.8070 -1.0945 -1.3227
  544MOL0     H71777  10.452   1.397   7.534  1.0836 -2.5252 -0.2782
  544MOL0     H71778  10.397   1.170   7.433 -0.7948 -1.5770 -1.5631
  544MOL0     H71779  10.413   1.245   7.281  1.4666  0.0340  1.2526
  544MOL0     H71780  10.181   1.304   7.471  1.1832  0.3902  0.5459
  544MOL0     H71781  10.213   1.401   7.332 -1.3516 -1.1932 -1.3277
  544MOL0     H71782  10.131   1.120   7.343 -1.6387  2.1190  2.5146
  544MOL0     H71783  10.206   1.178   7.193 -0.7361  1.6863 -1.5204
  544MOL0     H71784   9.956   1.185   7.172 -1.5962  2.7463  0.0576
  544MOL0     H71785  10.007   1.352   7.204  1.7975  1.5125  2.8280
  544MOL0     H71786   9.907   1.146   7.413  0.7531 -0.1296 -1.5466
  544MOL0     H71787   9.952   1.309   7.452  0.7347 -2.4271  1.5757
  544MOL0     H71788   9.715   1.233   7.277 -0.5883  0.6116 -0.4042
  544MOL0     H71789   9.750   1.404   7.323  0.5660  0.5088  0.5850
  544MOL0     H71790  10.800   1.148   7.405  0.7576 -1.1220  0.6722
  544MOL0     H71791  11.030   1.091   7.424  0.3376 -0.5235  2.1791
  544MOL0     H71792  11.492   1.266   7.417  1.9221  0.2881 -1.4777
  544MOL0     H71793  11.701   1.189   7.396 -0.2693  2.7627  2.5217
  544MOL0     H71794  10.860   0.910   7.559  0.2736 -2.8067  1.4237
  544MOL0     H71795  10.712   0.889   7.351 -2.0255  0.1049 -0.4038
  544MOL0     H71796  10.190   0.858   7.365 -0.2075  0.4886 -0.7386
  544MOL0     H71797   9.980   0.913   7.267  0.0987 -1.4760  0.1451
  544MOL0     H71798   9.941   0.819   6.847  1.1227 -0.6824 -2.3066
  544MOL0     H71799  10.001   0.980   6.795 -2.0227 -1.5016 -2.9910
  544MOL0     H71800   9.787   0.930   6.710 -0.5822 -0.7255  0.2710
  544MOL0     H71801   9.720   0.929   6.874  0.6301  0.3080  0.9073
  544MOL0     H71802   9.885   1.170   6.808  0.9803 -1.8904 -1.1836
  544MOL0     H71803   9.724   1.169   6.885 -0.0997  0.4197 -0.3511
  544MOL0     H71804   9.729   1.290   6.690  0.3876 -0.3359  2.1952
  544MOL0     H71805   9.769   1.162   6.577 -0.4733 -1.3341  0.1992
  544MOL0     H71806   9.372   1.068   6.623 -0.2523  1.3548  3.9199
  544MOL0     H71807  10.178   0.879   6.885  0.3698 -0.7831  0.8543
  544MOL0     H71808  10.374   0.849   6.972  0.9950  1.3555 -0.2671
  545MOL0     O71809   0.694  10.173   4.395 -0.6730 -0.4748  0.3762
  545MOL0     C71810   0.756  10.225   4.487  1.2875 -0.0578 -0.6504
  545MOL0     O71811   0.749  10.359   4.521 -0.6324 -0.2063 -0.8799
  545MOL0     C71812   0.646  10.425   4.462 -0.4106 -0.0975  0.0902
  545MOL0     C71813   0.520  10.409   4.523 -0.1632  0.7395 -0.0230
  545MOL0     C71814   0.405  10.482   4.484 -0.2348 -0.1449 -0.2342
  545MOL0     C71815   0.411  10.571   4.384 -0.8773 -0.2097 -0.1422
  545MOL0     O71816   0.303  10.649   4.345  0.1402  0.1190 -0.0467
  545MOL0     C71817   0.297  10.681   4.205 -0.0828  0.4600 -0.2005
  545MOL0     C71818   0.156  10.731   4.170 -0.7215 -0.6643  0.3456
  545MOL0     C71819   0.042  10.640   4.196  0.0305  1.1161  0.1827
  545MOL0     C71820   0.033  10.523   4.088 -0.5601 -0.3903  0.3214
  545MOL0     C71821  -0.059  10.405   4.137  0.2666 -0.1606  0.5063
  545MOL0     C71822  -0.192  10.451   4.182 -0.2510  0.2727  1.1689
  545MOL0     C71823  -0.267  10.506   4.062 -0.1550  0.4120  0.3770
  545MOL0     C71824  -0.412  10.517   4.114  0.3362  1.1497  0.9237
  545MOL0     N71825  -0.498  10.477   4.004 -0.4677 -0.6063  0.3770
  545MOL0     C71826  -0.538  10.550   3.894  0.3170 -0.2143 -0.2453
  545MOL0     C71827  -0.631  10.477   3.825  0.9967 -0.7359  0.0011
  545MOL0     C71828  -0.692  10.529   3.693 -0.5822  0.0577  0.1883
  545MOL0     C71829  -0.809  10.446   3.644  0.6639  0.3663  0.3499
  545MOL0     C71830  -0.938  10.480   3.730 -0.1487 -0.3883  0.2577
  545MOL0     C71831  -1.069  10.419   3.676  0.1101  0.9352  0.0739
  545MOL0     O71832  -1.074  10.276   3.682  0.2175 -0.0009 -0.7121
  545MOL0     C71833  -1.190  10.221   3.648 -0.6083  0.3573  0.8993
  545MOL0     C71834  -1.182  10.089   3.639  1.0150  0.2522 -0.1306
  545MOL0     C71835  -1.281  10.013   3.589  0.6855 -0.0740 -0.9052
  545MOL0     C71836  -1.400  10.064   3.544 -0.5006  0.2576 -0.0141
  545MOL0     C71837  -1.502   9.980   3.486  0.4481 -0.5208  0.7941
  545MOL0     O71838  -1.489   9.849   3.504 -0.2611  0.2718  0.1275
  545MOL0     C71839  -1.600   9.767   3.495 -0.1034  0.2040 -0.0191
  545MOL0     C71840  -1.719   9.804   3.560  0.5386  0.1264 -0.4075
  545MOL0     C71841  -1.836   9.721   3.563  0.5932  0.0629  0.1976
  545MOL0     C71842  -1.839   9.593   3.510 -0.3488 -0.6463  0.3667
  545MOL0     O71843  -1.935   9.500   3.546 -0.6207 -0.0676 -0.0235
  545MOL0     C71844  -1.950   9.459   3.684  0.3812  0.0849  0.3995
  545MOL0     C71845  -2.084   9.383   3.695 -0.2245 -0.6428  0.3031
  545MOL0     C71846  -2.095   9.249   3.619 -0.5418 -0.2536  0.0259
  545MOL0     C71847  -1.956   9.163   3.634 -0.5438  0.7206  0.4441
  545MOL0     C71848  -1.962   9.043   3.537  0.6068 -0.7674  0.0176
  545MOL0     C71849  -1.853   8.953   3.589  0.5148 -0.4869  0.2196
  545MOL0     C71850  -1.855   8.816   3.515 -0.0811 -0.7214  0.2634
  545MOL0     C71851  -1.726   8.745   3.505 -0.3960 -0.5448  0.9005
  545MOL0    Cl71852  -1.620   8.785   3.372  0.2680 -0.4030 -0.2153
  545MOL0     C71853  -1.723   9.544   3.439  0.9662  0.1176 -0.2953
  545MOL0     C71854  -1.609   9.630   3.436 -0.2256 -0.3814  0.9467
  545MOL0     O71855  -1.601  10.035   3.437 -0.8155 -0.2634  0.0079
  545MOL0     C71856  -1.420  10.204   3.554 -0.3888  0.1520  1.1469
  545MOL0     C71857  -1.319  10.281   3.621 -0.1918  0.2580 -0.0977
  545MOL0     N71858  -0.658  10.364   3.899 -1.1354 -0.0666 -0.3925
  545MOL0     N71859  -0.577  10.363   4.007 -0.3030  0.7327 -0.0149
  545MOL0     C71860   0.539  10.586   4.327 -0.1127 -0.6390 -0.3244
  545MOL0     C71861   0.657  10.521   4.363 -0.7707  0.5862  0.4197
  545MOL0     C71862   0.848  10.149   4.558 -0.2596  0.7758  0.6648
  545MOL0     C71863   0.923  10.210   4.659 -0.0109 -0.5797 -1.4799
  545MOL0     C71864   1.015  10.136   4.735 -0.5621 -0.4402 -0.2914
  545MOL0     C71865   1.047  10.001   4.714 -0.5588  0.6691  0.7302
  545MOL0     O71866   1.144   9.929   4.792  0.0584 -0.3522  0.2926
  545MOL0     C71867   1.281   9.973   4.796  1.9444  0.5772  1.2752
  545MOL0     C71868   1.351   9.997   4.659 -0.5685  0.2419  0.4856
  545MOL0     C71869   1.349   9.864   4.581 -0.0322 -0.1403  0.1030
  545MOL0     C71870   1.359   9.893   4.426 -1.0069  0.5306 -0.1173
  545MOL0     C71871   1.234   9.944   4.365 -0.2041 -0.3616 -0.3957
  545MOL0     C71872   1.130   9.990   4.317  0.0568 -0.2593 -0.2922
  545MOL0     C71873   0.971   9.943   4.614  0.0515  0.6087 -0.8490
  545MOL0     C71874   0.878  10.012   4.532  0.0540  0.3475 -0.7963
  545MOL0     H71875   0.507  10.329   4.595  3.2745 -1.1755 -1.2862
  545MOL0     H71876   0.311  10.463   4.536  2.0304 -1.6372  3.7622
  545MOL0     H71877   0.327  10.593   4.147 -1.0871  0.8196 -1.3184
  545MOL0     H71878   0.359  10.767   4.178  2.6012 -1.0062  0.9408
  545MOL0     H71879   0.166  10.748   4.062 -0.5456 -0.7955  0.3415
  545MOL0     H71880   0.142  10.831   4.211  1.9064 -0.1800  0.2099
  545MOL0     H71881  -0.048  10.701   4.206  0.2822  1.6284 -0.5889
  545MOL0     H71882   0.057  10.591   4.292  2.1278  0.4246 -0.4463
  545MOL0     H71883   0.001  10.569   3.995 -0.9998  2.4734  1.7631
  545MOL0     H71884   0.132  10.479   4.074  0.3317  1.1055  1.5838
  545MOL0     H71885   0.000  10.361   4.217  1.7377  0.8952  0.0474
  545MOL0     H71886  -0.065  10.328   4.060  1.2859 -1.3635  1.5890
  545MOL0     H71887  -0.183  10.528   4.260 -1.7112  0.9376  0.7097
  545MOL0     H71888  -0.242  10.358   4.211  0.2358  0.3073  2.1563
  545MOL0     H71889  -0.243  10.609   4.032 -2.0613  1.1094  1.0508
  545MOL0     H71890  -0.255  10.444   3.973  0.0747  2.2549 -0.9444
  545MOL0     H71891  -0.429  10.619   4.148 -0.2023  0.5818  2.4619
  545MOL0     H71892  -0.431  10.443   4.192  1.2799  0.2990  0.3832
  545MOL0     H71893  -0.520  10.655   3.876 -2.4557  0.1759 -1.2175
  545MOL0     H71894  -0.622  10.553   3.613 -2.3347  1.4521 -1.0037
  545MOL0     H71895  -0.737  10.625   3.720 -0.2583  0.7131 -1.5472
  545MOL0     H71896  -0.796  10.340   3.663  0.0955  0.4710  1.3943
  545MOL0     H71897  -0.822  10.464   3.537  0.7445  2.4991  0.6472
  545MOL0     H71898  -0.931  10.454   3.836  0.0422  0.1910  0.3916
  545MOL0     H71899  -0.962  10.587   3.733 -0.3201 -0.4017 -0.5100
  545MOL0     H71900  -1.079  10.452   3.572  1.0063 -0.1533 -0.3711
  545MOL0     H71901  -1.152  10.473   3.723 -0.7500  0.1308 -0.4858
  545MOL0     H71902  -1.087  10.046   3.668  0.0257 -0.9007  1.5732
  545MOL0     H71903  -1.257   9.909   3.572  2.8701  0.4546 -1.4581
  545MOL0     H71904  -1.748   9.892   3.617 -1.2081 -1.3044  1.0503
  545MOL0     H71905  -1.915   9.738   3.635  0.8564  0.0921  0.4812
  545MOL0     H71906  -1.949   9.543   3.754 -3.0570  0.5295  0.0793
  545MOL0     H71907  -1.861   9.398   3.706 -0.0722 -0.7551 -0.0184
  545MOL0     H71908  -2.159   9.458   3.667  0.4423 -0.1364 -0.1286
  545MOL0     H71909  -2.118   9.370   3.798 -0.8467 -1.5078  0.0130
  545MOL0     H71910  -2.117   9.280   3.516  0.3696  1.0104  0.1829
  545MOL0     H71911  -2.179   9.190   3.656  0.4163  0.0499  2.9557
  545MOL0     H71912  -1.866   9.221   3.611 -0.0952  0.0077  0.3646
  545MOL0     H71913  -1.957   9.130   3.738 -2.7022 -1.4734 -0.1812
  545MOL0     H71914  -1.943   9.087   3.439  1.0333  2.4035  1.3966
  545MOL0     H71915  -2.049   8.976   3.534 -0.3157  0.3566  0.5359
  545MOL0     H71916  -1.862   8.933   3.696 -0.0702  0.7786  0.4196
  545MOL0     H71917  -1.758   9.003   3.574 -0.9269  2.8148  1.1975
  545MOL0     H71918  -1.935   8.756   3.558  0.6784 -1.8411  0.1414
  545MOL0     H71919  -1.879   8.832   3.409 -2.7781  3.1633  1.2362
  545MOL0     H71920  -1.749   8.638   3.507 -0.8040 -0.4630  0.7097
  545MOL0     H71921  -1.690   8.781   3.602  0.9799  0.0345  0.2080
  545MOL0     H71922  -1.748   9.446   3.399 -2.1700  0.0319  1.4773
  545MOL0     H71923  -1.519   9.606   3.380  0.0870  0.9795  0.8387
  545MOL0     H71924  -1.515  10.250   3.527 -3.5773 -5.3398  1.4326
  545MOL0     H71925  -1.331  10.388   3.640  2.1653  0.5855 -0.1052
  545MOL0     H71926   0.559  10.667   4.257  4.0634 -0.8404  0.3751
  545MOL0     H71927   0.754  10.536   4.316 -0.4684  0.4883  1.0016
  545MOL0     H71928   0.902  10.309   4.698 -0.3025 -2.0494  2.5715
  545MOL0     H71929   1.050  10.196   4.818  1.6789  2.1463 -2.8783
  545MOL0     H71930   1.330   9.911   4.872  1.0129  1.5592  2.7428
  545MOL0     H71931   1.269  10.076   4.831 -2.4957  0.4601  0.5553
  545MOL0     H71932   1.315  10.081   4.599 -1.1570 -0.1477  0.2908
  545MOL0     H71933   1.446  10.034   4.699 -1.7792  1.3771  2.5085
  545MOL0     H71934   1.243   9.835   4.586 -0.4004  0.9289 -0.8726
  545MOL0     H71935   1.418   9.794   4.629 -0.3073  0.4480  1.3896
  545MOL0     H71936   1.442   9.956   4.392  0.5234 -0.9624  0.6765
  545MOL0     H71937   1.381   9.793   4.387 -0.2889  0.1831  1.1174
  545MOL0     H71938   1.041  10.030   4.275 -0.8616 -0.6055  1.2566
  545MOL0     H71939   0.983   9.835   4.611 -0.5948  0.4500  0.9438
  545MOL0     H71940   0.818   9.963   4.457 -0.8348  1.0778 -0.5960
  546MOL0     O71941   9.478   6.751   2.285 -0.2592 -0.0824  0.0004
  546MOL0     C71942   9.445   6.635   2.265 -0.3253 -0.3390  0.3089
  546MOL0     O71943   9.319   6.590   2.251 -0.1812  0.2379 -0.9389
  546MOL0     C71944   9.208   6.669   2.244  0.0150  0.3025 -0.1498
  546MOL0     C71945   9.194   6.786   2.312  0.5326 -0.2969 -0.3634
  546MOL0     C71946   9.072   6.851   2.309 -0.1695  0.0859 -0.2278
  546MOL0     C71947   8.967   6.812   2.220  0.5723  0.0882 -0.0740
  546MOL0     O71948   8.836   6.864   2.225 -0.3058 -0.3854  0.7915
  546MOL0     C71949   8.789   6.995   2.275 -0.4340 -0.6449 -0.1611
  546MOL0     C71950   8.754   7.068   2.149  0.4768 -0.2116 -0.1999
  546MOL0     C71951   8.682   7.192   2.182 -0.4283  0.0180 -0.5989
  546MOL0     C71952   8.605   7.237   2.057 -0.2314 -0.2368 -0.0532
  546MOL0     C71953   8.529   7.372   2.076  0.1318 -1.1452 -0.0515
  546MOL0     C71954   8.611   7.497   2.099 -0.0369  0.0644  0.2536
  546MOL0     C71955   8.529   7.628   2.101 -0.1692 -0.7189 -0.3406
  546MOL0     C71956   8.616   7.758   2.124  1.2787 -0.2708  0.7227
  546MOL0     N71957   8.693   7.749   2.247 -0.7149 -0.0047 -0.1872
  546MOL0     C71958   8.815   7.687   2.258 -0.0039  0.1607  0.6006
  546MOL0     C71959   8.844   7.695   2.392 -0.3706 -0.3717  0.6346
  546MOL0     C71960   8.968   7.633   2.475  0.5808  0.6209 -0.4044
  546MOL0     C71961   8.945   7.635   2.630 -0.6833  0.4250 -0.1198
  546MOL0     C71962   9.086   7.606   2.698 -0.1264 -0.3186  0.5038
  546MOL0     C71963   9.071   7.603   2.844  0.3491  0.6342 -0.4323
  546MOL0     O71964   9.189   7.601   2.915  0.4311  0.3305  0.1674
  546MOL0     C71965   9.232   7.483   2.978 -0.3854 -0.7353 -0.2278
  546MOL0     C71966   9.359   7.502   3.049  0.8879 -0.2096 -0.6484
  546MOL0     C71967   9.425   7.394   3.103  0.5424 -0.1556 -0.5541
  546MOL0     C71968   9.366   7.266   3.097  0.2708  0.2455  0.5558
  546MOL0     C71969   9.445   7.157   3.153 -0.5884 -0.2473 -0.5991
  546MOL0     O71970   9.520   7.177   3.259 -0.2140  0.3678  0.1831
  546MOL0     C71971   9.585   7.070   3.325 -0.7378  0.3416 -0.4666
  546MOL0     C71972   9.552   7.049   3.454 -0.5489  0.1255  0.1043
  546MOL0     C71973   9.613   6.945   3.529  0.1041  0.1176  0.1404
  546MOL0     C71974   9.722   6.879   3.480 -0.8785 -0.0640  0.0723
  546MOL0     O71975   9.789   6.791   3.567  0.5400 -0.1573  0.5722
  546MOL0     C71976   9.921   6.753   3.534 -0.8018  0.1557  0.7044
  546MOL0     C71977  10.026   6.866   3.521  0.1864 -0.4666  0.6105
  546MOL0     C71978  10.167   6.811   3.489  0.0567 -0.7087 -0.8271
  546MOL0     C71979  10.240   6.771   3.618 -0.7417  0.4922  0.5590
  546MOL0     C71980  10.388   6.743   3.585  0.3140 -0.0551  0.9540
  546MOL0     C71981  10.454   6.676   3.704 -0.1869 -0.9165  0.4475
  546MOL0     C71982  10.466   6.781   3.822 -0.9236 -0.2034  0.2885
  546MOL0     C71983  10.602   6.773   3.889 -0.6099 -0.4417  0.3144
  546MOL0    Cl71984  10.630   6.611   3.966 -0.2071  0.0038  0.0612
  546MOL0     C71985   9.770   6.921   3.349  0.1880 -0.1521 -0.0073
  546MOL0     C71986   9.700   7.020   3.272  0.7659  0.3167  0.2646
  546MOL0     O71987   9.432   7.055   3.099  0.1000 -0.3428  0.5355
  546MOL0     C71988   9.244   7.243   3.023 -0.0256  0.3029  1.3416
  546MOL0     C71989   9.183   7.353   2.958 -0.3308 -0.0475 -0.5067
  546MOL0     N71990   8.733   7.739   2.458  0.3195  0.7233 -0.1280
  546MOL0     N71991   8.647   7.786   2.371 -0.5566  0.1799 -0.2454
  546MOL0     C71992   8.982   6.689   2.146  0.7523  0.2564 -0.5461
  546MOL0     C71993   9.102   6.620   2.162 -0.2319 -0.0276 -0.4371
  546MOL0     C71994   9.549   6.534   2.291  0.3301  0.5036  0.6927
  546MOL0     C71995   9.520   6.393   2.295  0.0997  1.0726 -0.0974
  546MOL0     C71996   9.626   6.301   2.337  0.3910 -0.6406  1.1979
  546MOL0     C71997   9.753   6.343   2.367 -0.8908 -0.2196  0.6451
  546MOL0     O71998   9.866   6.264   2.386  0.4803 -0.1484 -0.0269
  546MOL0     C71999   9.850   6.165   2.488  0.0441 -0.2639  1.1973
  546MOL0     C72000   9.843   6.024   2.427 -0.2284  0.7551  0.3272
  546MOL0     C72001   9.831   5.925   2.546 -0.4188 -0.2351 -0.1893
  546MOL0     C72002   9.840   5.784   2.494 -0.2873  0.3027 -0.2365
  546MOL0     C72003   9.744   5.759   2.384  0.1544 -0.0674  1.1072
  546MOL0     C72004   9.673   5.738   2.287  0.0255  0.0596  0.3177
  546MOL0     C72005   9.784   6.484   2.357  0.3648  0.4586  0.1074
  546MOL0     C72006   9.675   6.573   2.321 -0.0588 -0.3636  0.1499
  546MOL0     H72007   9.280   6.807   2.374  1.3002 -0.6585 -1.2969
  546MOL0     H72008   9.055   6.941   2.367 -1.0148  0.5480 -1.1755
  546MOL0     H72009   8.854   7.052   2.341 -0.1610 -1.2110  0.0712
  546MOL0     H72010   8.696   6.979   2.329 -2.9622 -2.3258 -4.4224
  546MOL0     H72011   8.686   7.014   2.082  0.3878  0.1082 -0.3737
  546MOL0     H72012   8.853   7.085   2.106  1.3382 -1.1836  1.3463
  546MOL0     H72013   8.748   7.275   2.206 -1.8375  0.6111  1.5685
  546MOL0     H72014   8.608   7.178   2.262  0.6352 -0.5841  0.2927
  546MOL0     H72015   8.655   7.236   1.960 -0.9269  0.2101 -0.4283
  546MOL0     H72016   8.530   7.157   2.057 -0.5188 -0.2564  4.6469
  546MOL0     H72017   8.450   7.357   2.150  0.0522  2.8381  0.8455
  546MOL0     H72018   8.484   7.392   1.978  2.7137  3.2196 -0.6189
  546MOL0     H72019   8.693   7.503   2.026  1.3506 -0.4227  1.7096
  546MOL0     H72020   8.670   7.479   2.190  0.9800  0.2796 -0.3438
  546MOL0     H72021   8.494   7.630   1.997 -0.7410 -0.4115 -0.1448
  546MOL0     H72022   8.445   7.625   2.170 -0.4147 -4.3134 -0.5899
  546MOL0     H72023   8.555   7.848   2.126 -1.8380 -2.1795 -0.4436
  546MOL0     H72024   8.683   7.769   2.038  0.3471 -0.0934  0.0042
  546MOL0     H72025   8.872   7.654   2.172  0.4522  1.8183  0.2317
  546MOL0     H72026   9.046   7.702   2.443  0.7871  1.2001  1.2413
  546MOL0     H72027   8.997   7.532   2.444  2.8023  1.1334 -0.1735
  546MOL0     H72028   8.884   7.551   2.666 -0.5507  0.2157 -0.3860
  546MOL0     H72029   8.896   7.723   2.673 -0.4741  0.3669  0.2454
  546MOL0     H72030   9.119   7.505   2.669 -1.3632 -0.0805 -2.0196
  546MOL0     H72031   9.161   7.681   2.674  2.6278 -3.0380 -0.1148
  546MOL0     H72032   9.004   7.518   2.863 -0.3906  0.6964 -2.4783
  546MOL0     H72033   9.016   7.693   2.874 -1.2638 -0.5696  0.4028
  546MOL0     H72034   9.396   7.603   3.046 -0.9890  0.4953 -1.5801
  546MOL0     H72035   9.515   7.397   3.163 -0.9202  0.1122  1.7547
  546MOL0     H72036   9.477   7.116   3.494  0.8909  3.1656 -1.9424
  546MOL0     H72037   9.569   6.907   3.620  1.7681 -1.2164  0.4388
  546MOL0     H72038   9.921   6.697   3.440 -0.9277  1.6794 -0.2440
  546MOL0     H72039   9.959   6.686   3.611  2.8529 -1.1915 -2.0103
  546MOL0     H72040  10.021   6.928   3.611 -2.0924  0.6932 -0.2290
  546MOL0     H72041  10.004   6.924   3.431 -1.8236 -0.9189  0.7680
  546MOL0     H72042  10.213   6.894   3.433 -2.9680  1.1166 -0.8338
  546MOL0     H72043  10.162   6.715   3.437 -1.1804 -0.9567 -0.2649
  546MOL0     H72044  10.225   6.856   3.686 -1.3059  1.0186 -0.2085
  546MOL0     H72045  10.199   6.675   3.651 -1.6231  1.4865  2.5544
  546MOL0     H72046  10.445   6.830   3.550  2.1806 -2.5119 -2.7608
  546MOL0     H72047  10.394   6.672   3.503 -0.2555  3.4644 -2.4641
  546MOL0     H72048  10.552   6.641   3.673  0.8800  1.8224  0.4469
  546MOL0     H72049  10.392   6.591   3.735  0.2441 -2.3371 -2.3226
  546MOL0     H72050  10.448   6.885   3.792 -1.0043 -0.5322 -0.8780
  546MOL0     H72051  10.388   6.769   3.898 -0.8218  2.1236  0.8312
  546MOL0     H72052  10.594   6.842   3.973  0.2019 -0.2756  0.2608
  546MOL0     H72053  10.679   6.795   3.814 -0.2787 -0.6626  0.5884
  546MOL0     H72054   9.853   6.864   3.309 -3.2337 -5.5279 -0.6275
  546MOL0     H72055   9.734   7.052   3.175  3.9106 -1.6960  0.5739
  546MOL0     H72056   9.206   7.144   3.002 -2.5319  1.5593 -0.5173
  546MOL0     H72057   9.095   7.336   2.897 -0.1898  0.7755 -0.9514
  546MOL0     H72058   8.893   6.649   2.097  0.3223  1.1421 -0.5091
  546MOL0     H72059   9.129   6.517   2.138  0.3029  0.1347 -0.5373
  546MOL0     H72060   9.420   6.354   2.278 -0.7261  3.2217 -0.4881
  546MOL0     H72061   9.603   6.195   2.346 -1.8927 -0.5355 -1.8850
  546MOL0     H72062   9.762   6.200   2.542 -0.7895 -0.8040  0.2090
  546MOL0     H72063   9.932   6.169   2.561  0.8764  2.5049  0.2372
  546MOL0     H72064   9.758   6.012   2.359 -0.6233 -2.4140  1.1832
  546MOL0     H72065   9.933   6.002   2.369 -0.7252  2.0406 -0.9874
  546MOL0     H72066   9.732   5.942   2.590  0.0206 -1.7838  1.5106
  546MOL0     H72067   9.914   5.945   2.614  2.5325 -0.2011 -3.4941
  546MOL0     H72068   9.942   5.767   2.458 -0.4697  2.3949 -1.9292
  546MOL0     H72069   9.822   5.714   2.576 -1.5614 -2.0346 -2.3876
  546MOL0     H72070   9.603   5.712   2.210  0.0025 -1.2824  0.7629
  546MOL0     H72071   9.883   6.519   2.384  0.6318  0.9650 -1.4520
  546MOL0     H72072   9.705   6.678   2.314  2.5099 -0.9636  1.1277
  547MOL0     O72073   1.712   0.446   9.719  0.1255 -0.4174 -0.1158
  547MOL0     C72074   1.698   0.569   9.740 -1.0650  0.0859 -0.1979
  547MOL0     O72075   1.806   0.658   9.741 -0.5110 -0.2945 -0.5911
  547MOL0     C72076   1.926   0.617   9.699 -0.3469 -0.5288  1.1210
  547MOL0     C72077   1.986   0.685   9.591 -0.0150 -0.4054  0.7101
  547MOL0     C72078   2.119   0.664   9.559  0.9049  0.1804 -0.3191
  547MOL0     C72079   2.187   0.557   9.613  0.0992  0.8140 -0.0266
  547MOL0     O72080   2.314   0.519   9.569 -0.6121 -0.1246  0.0410
  547MOL0     C72081   2.386   0.608   9.475  0.1926  0.3612 -0.4276
  547MOL0     C72082   2.526   0.545   9.487 -0.5157 -1.1621  0.4662
  547MOL0     C72083   2.624   0.632   9.406  0.2170 -0.7330  0.4737
  547MOL0     C72084   2.769   0.562   9.391 -0.1466  0.4866 -0.5947
  547MOL0     C72085   2.872   0.662   9.331 -0.3211 -1.7308 -0.5427
  547MOL0     C72086   3.009   0.603   9.348 -0.1117 -0.0184  1.1671
  547MOL0     C72087   3.126   0.685   9.291 -0.3723 -0.2826 -0.0111
  547MOL0     C72088   3.120   0.705   9.139 -0.1561  0.0237 -0.2170
  547MOL0     N72089   3.241   0.765   9.083 -0.2914  0.5663 -0.2414
  547MOL0     C72090   3.332   0.684   9.028 -0.7033 -0.3775  0.6995
  547MOL0     C72091   3.436   0.766   8.996 -0.6919  0.1781 -0.8433
  547MOL0     C72092   3.565   0.724   8.939  0.9013 -0.9471 -0.8250
  547MOL0     C72093   3.679   0.746   9.034 -0.1785  0.0264 -0.5185
  547MOL0     C72094   3.675   0.673   9.159  0.5404 -0.5494  0.0786
  547MOL0     C72095   3.624   0.533   9.161  0.6525  0.0864  0.0096
  547MOL0     O72096   3.650   0.478   9.294 -0.1681 -0.0115  0.3182
  547MOL0     C72097   3.540   0.430   9.361  0.7517 -0.1924  0.1150
  547MOL0     C72098   3.440   0.516   9.394  0.2446  0.6930 -0.0102
  547MOL0     C72099   3.330   0.455   9.461  0.2121  0.1629  0.3543
  547MOL0     C72100   3.325   0.321   9.499  0.5722  0.6838 -0.3574
  547MOL0     C72101   3.212   0.265   9.577 -0.2473 -0.1170  0.4134
  547MOL0     O72102   3.116   0.354   9.608  0.1414 -0.5656 -1.3593
  547MOL0     C72103   2.996   0.320   9.674  0.2718  1.3568  0.2293
  547MOL0     C72104   2.973   0.363   9.807  1.1271 -1.0109  0.3408
  547MOL0     C72105   2.862   0.310   9.881 -0.1455 -0.8526 -0.7097
  547MOL0     C72106   2.768   0.217   9.824 -0.5553  0.3902  0.3448
  547MOL0     O72107   2.654   0.172   9.888 -0.2395 -0.0045 -1.3916
  547MOL0     C72108   2.550   0.116   9.817  0.0421  0.0208  0.9028
  547MOL0     C72109   2.434   0.144   9.911  0.4094 -0.1685  0.4544
  547MOL0     C72110   2.313   0.095   9.830 -0.3163 -0.1008 -0.2940
  547MOL0     C72111   2.182   0.086   9.914 -0.7234  0.2532  0.6041
  547MOL0     C72112   2.064   0.032   9.835  0.0694  0.3868  0.2992
  547MOL0     C72113   2.004   0.142   9.741  0.6590  0.2465  0.3486
  547MOL0     C72114   1.860   0.098   9.688  0.1400 -0.5657  0.0647
  547MOL0     C72115   1.840   0.197   9.569  0.2939 -0.6328 -0.8254
  547MOL0    Cl72116   1.673   0.167   9.496  0.4113 -0.1761  0.5243
  547MOL0     C72117   2.796   0.194   9.686 -0.0005 -0.3775  0.5621
  547MOL0     C72118   2.898   0.242   9.613 -0.4518 -0.1443  1.5467
  547MOL0     O72119   3.207   0.143   9.596 -0.0087 -0.0922 -0.0053
  547MOL0     C72120   3.428   0.237   9.456 -0.1075 -0.0552  0.0670
  547MOL0     C72121   3.538   0.298   9.387 -0.0119  0.1962  0.2232
  547MOL0     N72122   3.414   0.886   9.059  0.2225  0.3271 -0.5401
  547MOL0     N72123   3.300   0.875   9.122  0.5018 -0.1898  0.6740
  547MOL0     C72124   2.129   0.476   9.716 -0.5298  0.3613  0.9920
  547MOL0     C72125   1.998   0.517   9.760  0.1106 -0.3206 -0.3470
  547MOL0     C72126   1.562   0.622   9.751  0.1274  0.4989 -0.1746
  547MOL0     C72127   1.532   0.759   9.756 -0.5293  0.1269  0.5354
  547MOL0     C72128   1.400   0.798   9.740  0.2728  0.6064 -0.3219
  547MOL0     C72129   1.300   0.696   9.734 -0.2744 -0.0332 -0.4475
  547MOL0     O72130   1.171   0.737   9.709  1.2838 -0.2268  0.0001
  547MOL0     C72131   1.152   0.856   9.623  0.0046  0.1037 -0.1381
  547MOL0     C72132   1.051   0.819   9.516 -0.2539 -0.3381  0.9520
  547MOL0     C72133   1.069   0.699   9.434  0.0615  0.1527  0.4761
  547MOL0     C72134   1.175   0.711   9.325  0.1490  0.7504  0.5185
  547MOL0     C72135   1.304   0.666   9.367 -1.4042 -0.5812 -0.2067
  547MOL0     C72136   1.405   0.617   9.413  0.1698 -0.4281 -0.4470
  547MOL0     C72137   1.326   0.558   9.766  0.7325  0.0012  0.1560
  547MOL0     C72138   1.455   0.529   9.766 -0.6241 -1.1917 -0.0108
  547MOL0     H72139   1.930   0.766   9.546  1.7515  0.3369 -0.2526
  547MOL0     H72140   2.157   0.730   9.481 -0.6951  0.1857 -1.1375
  547MOL0     H72141   2.389   0.708   9.520  2.6423 -0.8684  2.5337
  547MOL0     H72142   2.350   0.613   9.372 -3.8782 -2.4071  0.6167
  547MOL0     H72143   2.525   0.442   9.451 -0.4907 -1.1524  0.4374
  547MOL0     H72144   2.557   0.538   9.591  4.1730 -0.8844 -0.6971
  547MOL0     H72145   2.635   0.730   9.455  1.1709 -0.0654 -1.0153
  547MOL0     H72146   2.586   0.645   9.304  1.4567  0.0277  0.0983
  547MOL0     H72147   2.805   0.528   9.489 -1.3419  1.8412  0.3565
  547MOL0     H72148   2.764   0.472   9.329  1.1218  1.0642 -1.5704
  547MOL0     H72149   2.873   0.750   9.396  0.7657 -1.5886 -0.7335
  547MOL0     H72150   2.851   0.693   9.228  1.5839  1.7307 -0.0283
  547MOL0     H72151   3.019   0.502   9.308  1.4978  0.4478  0.3207
  547MOL0     H72152   3.026   0.606   9.456  2.9494  1.3006  0.7589
  547MOL0     H72153   3.136   0.783   9.340  5.0603 -1.5775  2.1808
  547MOL0     H72154   3.219   0.629   9.296  1.6820  2.6411 -1.9019
  547MOL0     H72155   3.035   0.771   9.118 -0.1158  0.3084  0.4803
  547MOL0     H72156   3.102   0.610   9.089  0.8041  0.8576 -2.2686
  547MOL0     H72157   3.311   0.582   8.998 -1.1680  0.3829 -1.8289
  547MOL0     H72158   3.589   0.771   8.843 -1.6577  1.7027 -0.2830
  547MOL0     H72159   3.553   0.616   8.925 -2.4571 -0.5311 -2.0295
  547MOL0     H72160   3.696   0.852   9.057  1.5191 -0.3897  0.3581
  547MOL0     H72161   3.769   0.717   8.980 -1.4814 -2.1848 -1.6123
  547MOL0     H72162   3.781   0.665   9.184  1.0153 -2.8503 -2.2561
  547MOL0     H72163   3.626   0.735   9.235  1.0079 -0.4165  0.2751
  547MOL0     H72164   3.681   0.476   9.087 -0.1367 -0.7289  0.0248
  547MOL0     H72165   3.520   0.522   9.132  0.5073  0.8441  0.2132
  547MOL0     H72166   3.444   0.621   9.367  0.3269  0.3783 -1.2891
  547MOL0     H72167   3.249   0.519   9.495 -0.2628 -1.8793  3.4998
  547MOL0     H72168   3.046   0.427   9.856  0.3395  1.9685 -2.0351
  547MOL0     H72169   2.845   0.337   9.985 -0.1105  1.7021 -1.2938
  547MOL0     H72170   2.566   0.009   9.797 -2.0943 -0.3971  1.2217
  547MOL0     H72171   2.535   0.166   9.721 -0.6033 -0.2130  0.8725
  547MOL0     H72172   2.437   0.252   9.925 -1.1098  0.0071 -0.3834
  547MOL0     H72173   2.444   0.092  10.007 -2.1062  3.5796  3.0126
  547MOL0     H72174   2.338   0.001   9.779 -0.7699  1.3179 -3.4113
  547MOL0     H72175   2.301   0.175   9.756  1.3806  0.2677 -0.2186
  547MOL0     H72176   2.211   0.022   9.999  0.0332  2.3648  2.0174
  547MOL0     H72177   2.164   0.181   9.964  2.4617 -0.2569  3.0639
  547MOL0     H72178   1.994  -0.012   9.907  2.4248  2.6949  4.3924
  547MOL0     H72179   2.106  -0.050   9.777  0.7171  0.7119  0.2938
  547MOL0     H72180   2.079   0.167   9.665  1.1218 -2.5211 -0.1808
  547MOL0     H72181   1.992   0.232   9.802 -1.8439 -1.1293  2.0316
  547MOL0     H72182   1.857  -0.010   9.670 -4.0769 -0.7731  0.9696
  547MOL0     H72183   1.782   0.114   9.763  0.6754 -3.1481  1.3193
  547MOL0     H72184   1.918   0.172   9.496 -0.9569 -0.4556 -2.2728
  547MOL0     H72185   1.846   0.302   9.600 -1.1972 -0.7649  0.0195
  547MOL0     H72186   2.737   0.123   9.629  0.3796  0.9744 -1.6181
  547MOL0     H72187   2.919   0.211   9.511 -0.8608  0.9817  1.0980
  547MOL0     H72188   3.433   0.129   9.467  2.3049 -0.1055 -1.0229
  547MOL0     H72189   3.618   0.229   9.363 -0.7075 -1.9770  3.5729
  547MOL0     H72190   2.186   0.410   9.781  1.8724  0.3029 -1.0226
  547MOL0     H72191   1.955   0.465   9.845  0.0749  1.2858  0.6588
  547MOL0     H72192   1.609   0.836   9.755  3.3102 -3.3296  2.2036
  547MOL0     H72193   1.390   0.902   9.711  0.6453  1.1897  1.4728
  547MOL0     H72194   1.232   0.897   9.562 -0.0818  0.4178 -0.0399
  547MOL0     H72195   1.107   0.939   9.677  0.3691 -0.2043  0.6601
  547MOL0     H72196   0.961   0.802   9.576 -1.4699 -0.2284 -0.7462
  547MOL0     H72197   1.030   0.899   9.445 -0.5900 -0.9099  0.3990
  547MOL0     H72198   0.971   0.681   9.390 -0.5642  0.5494  1.6613
  547MOL0     H72199   1.099   0.615   9.498  1.4513  0.4412  0.2357
  547MOL0     H72200   1.140   0.650   9.240 -4.4094  0.2462  2.4449
  547MOL0     H72201   1.175   0.811   9.279 -0.3157 -0.3951 -2.2085
  547MOL0     H72202   1.488   0.568   9.459  0.2772 -0.5735 -0.7944
  547MOL0     H72203   1.253   0.480   9.781  2.8202 -2.4255 -1.5029
  547MOL0     H72204   1.474   0.422   9.765  0.1413 -1.0828  0.8790
  548MOL0     O72205   5.918   1.631   8.459 -0.1631 -0.5955  1.1722
  548MOL0     C72206   5.935   1.512   8.441 -0.1282 -0.3138  0.0079
  548MOL0     O72207   5.845   1.416   8.472  0.6841 -0.0474 -0.8087
  548MOL0     C72208   5.718   1.444   8.511 -0.5497  0.1112  0.5638
  548MOL0     C72209   5.653   1.561   8.548 -0.3547  0.8991 -0.4559
  548MOL0     C72210   5.524   1.562   8.586 -0.7149 -1.0285 -0.4038
  548MOL0     C72211   5.453   1.437   8.586 -0.1227 -0.6212  0.3930
  548MOL0     O72212   5.328   1.433   8.640  0.5790  1.0162 -0.1939
  548MOL0     C72213   5.321   1.431   8.784 -0.1100  0.2364  0.2063
  548MOL0     C72214   5.194   1.357   8.818 -0.4243 -0.1960  0.4344
  548MOL0     C72215   5.175   1.345   8.968  0.4322 -1.0208 -0.1089
  548MOL0     C72216   5.062   1.246   8.996  0.0974  0.4780 -0.2742
  548MOL0     C72217   5.027   1.233   9.148 -0.3823 -0.2211 -0.1692
  548MOL0     C72218   4.885   1.175   9.181  0.2219  0.0398  0.7898
  548MOL0     C72219   4.855   1.151   9.328 -0.4111  0.5065  0.0488
  548MOL0     C72220   4.741   1.058   9.362 -0.1454 -0.4478  0.6617
  548MOL0     N72221   4.749   0.926   9.297 -0.5935  0.1734 -0.7423
  548MOL0     C72222   4.847   0.838   9.323  0.0065  0.2046  0.5414
  548MOL0     C72223   4.822   0.727   9.246  0.0844 -0.4035 -0.1083
  548MOL0     C72224   4.914   0.606   9.241  0.3906  0.0426  0.0002
  548MOL0     C72225   4.834   0.489   9.294 -0.5315  0.4826  0.7055
  548MOL0     C72226   4.819   0.491   9.449 -0.7223 -1.1523 -0.3154
  548MOL0     C72227   4.738   0.386   9.509  0.6324 -0.5406  0.5987
  548MOL0     O72228   4.602   0.416   9.465 -0.8070 -0.1939  0.3239
  548MOL0     C72229   4.515   0.473   9.550  1.5947  0.4408  0.0327
  548MOL0     C72230   4.496   0.411   9.675 -0.2909 -0.8167 -0.0913
  548MOL0     C72231   4.394   0.461   9.763  0.2474  0.4145 -0.3471
  548MOL0     C72232   4.308   0.565   9.718 -0.3792  1.3080 -0.8603
  548MOL0     C72233   4.192   0.607   9.799 -0.4698  0.3990 -0.3420
  548MOL0     O72234   4.181   0.529   9.904  0.2275  0.0263 -0.3087
  548MOL0     C72235   4.058   0.535   9.971  0.2334 -0.5240 -1.1065
  548MOL0     C72236   4.018   0.659  10.024 -0.3383  0.6170 -1.2961
  548MOL0     C72237   3.901   0.677  10.088  0.5510 -0.0505 -1.1779
  548MOL0     C72238   3.806   0.569  10.097 -0.6979  0.3606  0.6956
  548MOL0     O72239   3.679   0.598  10.155 -0.3285  0.1999 -0.6895
  548MOL0     C72240   3.570   0.502  10.126 -0.3649 -0.4687 -0.1709
  548MOL0     C72241   3.443   0.576  10.132 -0.5436 -0.0363 -0.0547
  548MOL0     C72242   3.386   0.596  10.271 -0.1934  0.8878 -0.2163
  548MOL0     C72243   3.236   0.636  10.247 -0.2926  0.9405 -0.4480
  548MOL0     C72244   3.138   0.634  10.368  0.6445  0.3554  0.6456
  548MOL0     C72245   3.171   0.713  10.487 -0.3306 -0.1821  0.1048
  548MOL0     C72246   3.264   0.656  10.593  0.3537 -0.1550 -0.6305
  548MOL0     C72247   3.276   0.744  10.713  0.2504 -0.1392  0.0973
  548MOL0    Cl72248   3.332   0.917  10.657 -0.1223 -0.1399  0.1084
  548MOL0     C72249   3.840   0.449  10.025  0.0891  0.4711  0.2135
  548MOL0     C72250   3.965   0.434   9.966 -0.3109 -0.2783 -0.3738
  548MOL0     O72251   4.127   0.702   9.766 -0.0994 -0.0175  0.3898
  548MOL0     C72252   4.321   0.617   9.594  0.2390 -0.2883 -0.6908
  548MOL0     C72253   4.426   0.580   9.509  0.2134  0.3528  0.4516
  548MOL0     N72254   4.703   0.746   9.186 -0.5516  0.5548  0.2264
  548MOL0     N72255   4.669   0.870   9.203  0.1850 -0.3401 -0.2315
  548MOL0     C72256   5.511   1.314   8.545 -0.4166  0.0182  0.5598
  548MOL0     C72257   5.638   1.328   8.504 -0.4613 -0.6035 -0.0811
  548MOL0     C72258   6.066   1.477   8.392 -0.6328  0.7717 -0.0988
  548MOL0     C72259   6.159   1.574   8.341  0.8199 -0.7042  0.0881
  548MOL0     C72260   6.286   1.531   8.297 -1.1581  0.1188  0.0457
  548MOL0     C72261   6.318   1.397   8.300 -0.3391 -0.2517  0.9108
  548MOL0     O72262   6.436   1.344   8.234  0.2234 -0.5612 -0.2026
  548MOL0     C72263   6.555   1.428   8.250  0.3464  0.4759  0.3615
  548MOL0     C72264   6.666   1.343   8.176 -0.2117 -0.2466 -0.4714
  548MOL0     C72265   6.729   1.243   8.269 -0.1343  0.3910  0.0851
  548MOL0     C72266   6.839   1.159   8.202  0.6194  0.2764 -0.3408
  548MOL0     C72267   6.969   1.219   8.189  0.2053  0.1329  0.9075
  548MOL0     C72268   7.083   1.275   8.166  0.1269 -0.1646  0.7075
  548MOL0     C72269   6.230   1.303   8.355  0.3630 -1.2898 -0.2200
  548MOL0     C72270   6.103   1.340   8.395  0.9566 -0.0400  0.2813
  548MOL0     H72271   5.700   1.658   8.561 -2.7636  1.8806  1.8410
  548MOL0     H72272   5.478   1.656   8.615 -0.3427 -1.0466  0.2626
  548MOL0     H72273   5.320   1.532   8.825  0.8772  0.8529 -1.2273
  548MOL0     H72274   5.402   1.379   8.836  1.4822  0.7195 -1.6982
  548MOL0     H72275   5.195   1.256   8.778  0.6443 -0.1745  0.3870
  548MOL0     H72276   5.110   1.416   8.780 -0.4120  2.0517  3.4459
  548MOL0     H72277   5.149   1.444   9.007 -1.0917 -1.0368 -1.0152
  548MOL0     H72278   5.265   1.321   9.026  1.5559  1.4024 -0.7222
  548MOL0     H72279   4.972   1.275   8.941 -1.3604 -2.1675  0.5556
  548MOL0     H72280   5.094   1.152   8.952  0.0149  0.5071 -0.3963
  548MOL0     H72281   5.031   1.326   9.206 -0.7351 -1.5051  2.0360
  548MOL0     H72282   5.102   1.176   9.204 -0.8274  0.9777  1.7850
  548MOL0     H72283   4.869   1.086   9.121 -0.6669  1.5020 -1.2623
  548MOL0     H72284   4.813   1.241   9.131  1.5773  0.6571 -0.4116
  548MOL0     H72285   4.941   1.099   9.372 -0.0167 -0.4797 -1.7580
  548MOL0     H72286   4.836   1.244   9.381  2.4367  0.8447  0.6391
  548MOL0     H72287   4.645   1.097   9.327  0.0928 -0.7467 -0.3339
  548MOL0     H72288   4.730   1.050   9.471 -0.6993  3.0773  0.9974
  548MOL0     H72289   4.921   0.854   9.401  1.2889 -3.4310  0.2822
  548MOL0     H72290   5.007   0.642   9.286  0.5639 -1.9727  1.3769
  548MOL0     H72291   4.934   0.588   9.135  0.0570  1.3849 -0.3062
  548MOL0     H72292   4.899   0.406   9.265 -1.9081 -0.8185  1.2162
  548MOL0     H72293   4.742   0.472   9.238 -0.6256  2.2163  0.2718
  548MOL0     H72294   4.917   0.493   9.498 -2.7572  0.7159  4.3555
  548MOL0     H72295   4.783   0.591   9.474  3.9170  1.3477 -2.3250
  548MOL0     H72296   4.741   0.384   9.619 -4.1945 -0.9755  0.9253
  548MOL0     H72297   4.765   0.291   9.461  1.7598  1.5180 -3.1644
  548MOL0     H72298   4.548   0.321   9.704 -1.0198 -0.8569  1.1727
  548MOL0     H72299   4.401   0.415   9.860 -0.9582 -0.7488 -0.7839
  548MOL0     H72300   4.078   0.749  10.017 -1.9119  2.3612  3.5894
  548MOL0     H72301   3.870   0.765  10.145 -1.7907 -0.0055 -2.4002
  548MOL0     H72302   3.563   0.425  10.204 -1.1968  1.3849  1.6621
  548MOL0     H72303   3.579   0.462  10.024 -0.3173  1.9336 -1.1800
  548MOL0     H72304   3.371   0.509  10.083 -1.8467 -0.9488  2.8774
  548MOL0     H72305   3.463   0.665  10.072  0.7457  0.1968  0.6757
  548MOL0     H72306   3.432   0.680  10.323 -0.6704  3.2436 -3.2874
  548MOL0     H72307   3.393   0.504  10.330  1.6616  0.3600 -1.1790
  548MOL0     H72308   3.252   0.735  10.204  1.8339  0.7671 -0.1923
  548MOL0     H72309   3.200   0.574  10.165  1.0495  0.6127 -0.8243
  548MOL0     H72310   3.116   0.532  10.400 -2.5480  0.3608 -1.0892
  548MOL0     H72311   3.043   0.668  10.325  1.2655  1.4102  0.0401
  548MOL0     H72312   3.077   0.745  10.533 -1.0094  2.0092 -2.4950
  548MOL0     H72313   3.225   0.798  10.442  2.0035 -2.4680 -1.7104
  548MOL0     H72314   3.224   0.562  10.631  2.3895 -1.4228 -1.4955
  548MOL0     H72315   3.362   0.639  10.547  0.2440 -2.1332 -0.2199
  548MOL0     H72316   3.348   0.697  10.781 -1.1080 -0.5527  1.2838
  548MOL0     H72317   3.175   0.740  10.753 -0.9386 -0.6317 -2.7036
  548MOL0     H72318   3.773   0.364  10.035  2.6284 -1.5059  1.4767
  548MOL0     H72319   4.003   0.348   9.912 -0.5066 -0.6222  0.0271
  548MOL0     H72320   4.258   0.697   9.558  1.0687  1.6468  1.8453
  548MOL0     H72321   4.428   0.630   9.413  0.0280  1.1513  0.8569
  548MOL0     H72322   5.457   1.221   8.560  2.6675 -1.7225  2.0345
  548MOL0     H72323   5.699   1.250   8.459  0.0700  0.6962 -1.7167
  548MOL0     H72324   6.127   1.677   8.333 -1.7480 -1.5171 -1.6199
  548MOL0     H72325   6.344   1.612   8.255 -0.5192 -0.7131 -0.7129
  548MOL0     H72326   6.592   1.442   8.352  0.6803  3.0447 -0.0704
  548MOL0     H72327   6.537   1.524   8.202 -2.6656 -1.3175 -2.4974
  548MOL0     H72328   6.622   1.292   8.089 -0.8754 -0.5882  0.0566
  548MOL0     H72329   6.748   1.406   8.139 -1.5420  2.2953  0.6715
  548MOL0     H72330   6.653   1.167   8.291 -0.6658  0.2337 -2.0994
  548MOL0     H72331   6.774   1.296   8.354  0.6144  2.2121 -1.4019
  548MOL0     H72332   6.836   1.069   8.265 -0.8382  0.6990  0.2544
  548MOL0     H72333   6.808   1.129   8.102 -2.4177 -1.7889  1.0606
  548MOL0     H72334   7.176   1.327   8.159  0.0489  0.2131  2.0971
  548MOL0     H72335   6.249   1.196   8.354  2.6529 -0.9961  1.6652
  548MOL0     H72336   6.030   1.261   8.409 -0.0647  0.8610  0.0619
  549MOL0     O72337   3.952   7.644   5.493 -0.3543  1.1464  0.7033
  549MOL0     C72338   3.903   7.719   5.410 -0.3799 -0.8881  0.8590
  549MOL0     O72339   3.791   7.692   5.328  0.0624  0.3068 -0.2877
  549MOL0     C72340   3.707   7.580   5.344 -0.1342  0.3217 -0.2163
  549MOL0     C72341   3.759   7.446   5.331 -0.0392 -0.5892  0.0244
  549MOL0     C72342   3.675   7.340   5.336 -0.3998 -0.5075 -0.1549
  549MOL0     C72343   3.541   7.361   5.353  0.2107  0.1949  0.6797
  549MOL0     O72344   3.447   7.271   5.322 -0.3895  0.2743 -0.1282
  549MOL0     C72345   3.466   7.182   5.213  0.2622  0.5185  0.7206
  549MOL0     C72346   3.327   7.130   5.174 -0.1323 -0.3063  0.1652
  549MOL0     C72347   3.345   6.978   5.142  0.5037 -0.9428 -0.4995
  549MOL0     C72348   3.219   6.908   5.108 -1.0407 -0.3331  0.7261
  549MOL0     C72349   3.166   6.938   4.969 -0.7146  0.5886  0.9168
  549MOL0     C72350   3.033   6.865   4.948  0.2961 -0.5258  0.7456
  549MOL0     C72351   3.024   6.823   4.799 -0.1984 -0.2780 -0.0809
  549MOL0     C72352   3.005   6.948   4.710 -0.0688  0.5797  0.6407
  549MOL0     N72353   2.966   6.882   4.583  0.5959 -0.5117 -0.1279
  549MOL0     C72354   2.832   6.868   4.545  0.1722 -0.2574 -0.8720
  549MOL0     C72355   2.833   6.787   4.439 -0.0673  1.0852 -0.5139
  549MOL0     C72356   2.710   6.756   4.362  0.2508  0.2930  0.1762
  549MOL0     C72357   2.587   6.743   4.451 -0.4432 -0.5903 -0.8865
  549MOL0     C72358   2.475   6.669   4.373  0.6028 -0.2153  0.0749
  549MOL0     C72359   2.355   6.629   4.460 -0.3443 -0.6459  0.3267
  549MOL0     O72360   2.256   6.730   4.468  0.8335 -0.0626 -0.6207
  549MOL0     C72361   2.124   6.693   4.497  0.6313  0.0630 -0.1322
  549MOL0     C72362   2.027   6.787   4.457  0.0954 -0.2717 -0.4313
  549MOL0     C72363   1.898   6.765   4.480 -0.0408  0.1686 -0.2291
  549MOL0     C72364   1.852   6.658   4.564  0.3312  0.0891 -0.4207
  549MOL0     C72365   1.722   6.652   4.618 -0.5144 -0.3764  1.1651
  549MOL0     O72366   1.647   6.757   4.571  0.0111  0.0618  1.1153
  549MOL0     C72367   1.512   6.755   4.601  0.1098  0.6517 -0.0250
  549MOL0     C72368   1.417   6.782   4.497  0.4957 -0.5494 -1.1714
  549MOL0     C72369   1.279   6.788   4.523 -0.0163 -0.2940 -0.3693
  549MOL0     C72370   1.230   6.768   4.652 -0.7190 -0.3670  0.6909
  549MOL0     O72371   1.098   6.757   4.676 -0.2026 -0.0793 -0.7660
  549MOL0     C72372   1.028   6.877   4.675  0.4394 -0.7002  0.0608
  549MOL0     C72373   0.902   6.845   4.612  0.6185 -0.3298  0.3041
  549MOL0     C72374   0.808   6.965   4.627  0.1240  0.5189  1.1533
  549MOL0     C72375   0.668   6.923   4.571 -0.7666 -0.3300 -0.8115
  549MOL0     C72376   0.574   7.045   4.574  0.1433  0.3972 -0.3801
  549MOL0     C72377   0.428   7.003   4.569 -0.0200  0.0755 -0.2949
  549MOL0     C72378   0.332   7.092   4.648  0.0726 -1.2108 -1.2452
  549MOL0     C72379   0.186   7.063   4.617  0.3387 -0.1992 -0.3125
  549MOL0    Cl72380   0.147   7.110   4.450  0.1494  0.1293 -0.3456
  549MOL0     C72381   1.310   6.737   4.758  0.3947  0.4357  0.7940
  549MOL0     C72382   1.445   6.730   4.726  0.1624  0.6492 -0.4136
  549MOL0     O72383   1.686   6.550   4.675  0.1666 -0.0055  0.0331
  549MOL0     C72384   1.959   6.576   4.614  0.2084 -0.2306  0.6208
  549MOL0     C72385   2.089   6.575   4.567  0.8244 -0.6997 -0.6365
  549MOL0     N72386   2.963   6.761   4.401  0.0140 -0.0072  0.9194
  549MOL0     N72387   3.045   6.817   4.486 -0.2861  0.6033  0.4223
  549MOL0     C72388   3.482   7.495   5.381 -0.0722  0.7372  0.3350
  549MOL0     C72389   3.570   7.600   5.366  0.3931  0.3562  0.1697
  549MOL0     C72390   3.973   7.846   5.380 -0.0555 -0.0209 -0.5175
  549MOL0     C72391   4.088   7.890   5.445 -0.6683 -0.3212 -0.3499
  549MOL0     C72392   4.145   8.016   5.408 -0.4644  1.3360 -0.4658
  549MOL0     C72393   4.090   8.107   5.322  0.7506 -0.7294  0.7112
  549MOL0     O72394   4.140   8.234   5.282  0.0428 -0.0139 -0.3520
  549MOL0     C72395   4.202   8.306   5.387 -0.4127 -0.2610  0.5901
  549MOL0     C72396   4.355   8.285   5.386  0.9235  0.2622  0.5749
  549MOL0     C72397   4.427   8.384   5.489  0.5359  0.4761  0.0232
  549MOL0     C72398   4.420   8.329   5.634  0.0872  0.2071 -1.0281
  549MOL0     C72399   4.491   8.199   5.647 -0.3613  0.4323 -0.7225
  549MOL0     C72400   4.551   8.091   5.668  0.0558 -0.8010 -0.1816
  549MOL0     C72401   3.970   8.069   5.264  0.0218 -0.4058  0.9300
  549MOL0     C72402   3.916   7.941   5.295 -0.7534 -0.0923 -0.7668
  549MOL0     H72403   3.863   7.422   5.311  0.0424 -1.2254  1.1200
  549MOL0     H72404   3.716   7.241   5.319  1.8194  0.6629 -2.1398
  549MOL0     H72405   3.526   7.094   5.237 -0.7003 -0.5981 -0.7986
  549MOL0     H72406   3.515   7.224   5.124 -0.8264 -1.7995 -1.0874
  549MOL0     H72407   3.279   7.190   5.097  0.0267 -3.0631 -2.2253
  549MOL0     H72408   3.265   7.135   5.264  1.0107 -3.6794  1.3096
  549MOL0     H72409   3.385   6.940   5.236 -3.1815  0.0879  1.6650
  549MOL0     H72410   3.411   6.959   5.057  2.2367 -0.2852  0.6487
  549MOL0     H72411   3.247   6.803   5.108 -0.3251 -0.1575 -0.0062
  549MOL0     H72412   3.138   6.931   5.177 -0.5111 -1.2407  1.6768
  549MOL0     H72413   3.237   6.896   4.898 -1.4576 -2.2028  1.7255
  549MOL0     H72414   3.149   7.046   4.954 -4.3456  0.0300  0.0478
  549MOL0     H72415   2.948   6.926   4.979 -2.0495 -1.4863 -3.0965
  549MOL0     H72416   3.030   6.771   5.004 -0.2105 -2.6804 -2.5954
  549MOL0     H72417   3.116   6.772   4.770  0.0344  0.3110 -0.3858
  549MOL0     H72418   2.937   6.759   4.780  1.4002 -1.8607 -2.5616
  549MOL0     H72419   3.094   7.010   4.691  0.1620  0.2097  0.5009
  549MOL0     H72420   2.923   7.007   4.751  0.1757 -0.0323  2.0770
  549MOL0     H72421   2.748   6.926   4.580  0.4020 -0.6067  0.2816
  549MOL0     H72422   2.732   6.660   4.315  0.6097  0.7798 -0.6628
  549MOL0     H72423   2.690   6.830   4.285 -1.1352  0.3976  0.6076
  549MOL0     H72424   2.550   6.840   4.484 -1.7464 -1.0852 -0.8408
  549MOL0     H72425   2.606   6.678   4.537  1.4932 -0.9291 -1.5255
  549MOL0     H72426   2.439   6.735   4.293 -0.5520  1.8886  2.2051
  549MOL0     H72427   2.516   6.572   4.343  3.9363  0.3879  2.1424
  549MOL0     H72428   2.380   6.595   4.561 -0.8427  0.7723  0.9668
  549MOL0     H72429   2.313   6.544   4.406 -2.1244  0.1962  0.2992
  549MOL0     H72430   2.057   6.883   4.416 -0.2422 -0.6584 -1.6333
  549MOL0     H72431   1.817   6.832   4.452 -1.4270 -0.1702  2.5916
  549MOL0     H72432   1.448   6.822   4.401  0.0813  2.1501 -0.2588
  549MOL0     H72433   1.199   6.810   4.453  1.6497  1.8965 -1.7291
  549MOL0     H72434   1.072   6.956   4.613  0.6869  1.1888  2.4867
  549MOL0     H72435   1.014   6.919   4.776  0.0906  0.1424 -0.3265
  549MOL0     H72436   0.850   6.757   4.652  0.9500  0.9748  3.9169
  549MOL0     H72437   0.930   6.827   4.508  1.9085  1.0479  0.3903
  549MOL0     H72438   0.857   7.037   4.560 -0.4664 -1.6061 -1.7923
  549MOL0     H72439   0.792   7.005   4.727 -3.8135 -2.3009  1.8788
  549MOL0     H72440   0.694   6.891   4.470  4.1879  1.4387 -0.3910
  549MOL0     H72441   0.633   6.838   4.630  0.0004 -0.4049 -0.4527
  549MOL0     H72442   0.598   7.107   4.487 -2.2791 -3.0262 -3.8351
  549MOL0     H72443   0.603   7.092   4.668 -1.5946 -2.9098  1.9871
  549MOL0     H72444   0.418   6.899   4.600  1.3663 -0.0741 -0.2760
  549MOL0     H72445   0.401   7.010   4.463 -2.4245 -0.4277  0.2282
  549MOL0     H72446   0.352   7.083   4.755 -0.7314  3.3779 -0.4864
  549MOL0     H72447   0.348   7.196   4.617  3.2668 -1.0797  0.4668
  549MOL0     H72448   0.118   7.120   4.682  1.3273 -0.9838  1.4553
  549MOL0     H72449   0.165   6.958   4.637  0.0492 -0.0622  0.1154
  549MOL0     H72450   1.271   6.707   4.854 -3.2574  1.0255 -0.3550
  549MOL0     H72451   1.520   6.697   4.798  1.0599  0.0914 -1.5758
  549MOL0     H72452   1.946   6.503   4.693 -1.5964  1.4220  1.9377
  549MOL0     H72453   2.156   6.498   4.604  0.8795 -0.2233  0.2848
  549MOL0     H72454   3.374   7.508   5.389 -0.1845 -0.9137  2.3804
  549MOL0     H72455   3.537   7.703   5.364  0.3131  0.3270 -1.5067
  549MOL0     H72456   4.128   7.823   5.521 -0.6510  0.4882  0.3630
  549MOL0     H72457   4.243   8.023   5.452  0.4257 -1.8403 -1.7201
  549MOL0     H72458   4.175   8.275   5.488  0.2625 -2.1455  0.2338
  549MOL0     H72459   4.183   8.412   5.367  0.1426 -0.6315 -2.2824
  549MOL0     H72460   4.365   8.179   5.410  0.2085 -0.4508 -1.9800
  549MOL0     H72461   4.401   8.299   5.287 -3.0432 -1.9922 -1.8393
  549MOL0     H72462   4.371   8.479   5.489 -0.9014 -0.3163  1.3923
  549MOL0     H72463   4.530   8.407   5.459  1.1488 -0.3910  1.3767
  549MOL0     H72464   4.471   8.399   5.700 -0.8650 -0.8080  0.8787
  549MOL0     H72465   4.315   8.329   5.666  0.3286  0.9258 -0.2305
  549MOL0     H72466   4.623   8.013   5.675  2.4041  1.2495 -0.1627
  549MOL0     H72467   3.921   8.141   5.200  1.6828  1.3409  1.5346
  549MOL0     H72468   3.828   7.911   5.238  0.5334 -2.4826 -1.6430
  550MOL0     O72469   0.965   0.899   0.722 -0.5017 -0.2009 -0.3726
  550MOL0     C72470   1.034   1.000   0.743 -0.5701 -0.0112 -0.2591
  550MOL0     O72471   1.002   1.111   0.818  0.3611  0.5860  0.3306
  550MOL0     C72472   0.865   1.141   0.828 -0.5009 -0.1266 -0.3236
  550MOL0     C72473   0.813   1.219   0.729  0.0015  0.4557  0.1342
  550MOL0     C72474   0.679   1.260   0.730 -0.1901 -1.0381 -0.0784
  550MOL0     C72475   0.598   1.218   0.834 -1.1939 -0.0255  0.6367
  550MOL0     O72476   0.480   1.288   0.848  0.7032  0.4286  0.1099
  550MOL0     C72477   0.373   1.220   0.913  0.9990 -0.8936 -0.3112
  550MOL0     C72478   0.242   1.283   0.868 -0.4158  0.7296 -0.4538
  550MOL0     C72479   0.219   1.413   0.943  0.4998 -0.5952 -0.2255
  550MOL0     C72480   0.205   1.406   1.103  0.1001 -0.0808 -0.1276
  550MOL0     C72481   0.185   1.541   1.181 -0.2702  0.4973 -0.3208
  550MOL0     C72482   0.043   1.592   1.181 -0.4896  0.1371  0.1819
  550MOL0     C72483   0.037   1.743   1.236 -0.4751 -0.3323 -0.0630
  550MOL0     C72484  -0.104   1.797   1.213  0.7639  1.0457 -0.5253
  550MOL0     N72485  -0.107   1.877   1.086 -0.5986  0.1292 -0.4229
  550MOL0     C72486  -0.094   2.016   1.077 -0.0444  0.4771 -0.3087
  550MOL0     C72487  -0.122   2.041   0.946 -0.2263 -0.3891 -0.1171
  550MOL0     C72488  -0.159   2.171   0.889 -0.1926 -0.5622 -1.1378
  550MOL0     C72489  -0.318   2.203   0.895 -0.5842  0.0677 -0.9274
  550MOL0     C72490  -0.385   2.161   0.763  0.5065 -0.0074 -1.0482
  550MOL0     C72491  -0.537   2.186   0.776 -1.6076  1.2803  0.6021
  550MOL0     O72492  -0.576   2.321   0.792 -0.2150  0.6779  0.1785
  550MOL0     C72493  -0.707   2.352   0.805 -0.1165 -0.4058 -0.2827
  550MOL0     C72494  -0.818   2.276   0.764 -0.6313 -0.8275 -0.4130
  550MOL0     C72495  -0.951   2.333   0.771 -0.8975  1.0193 -0.3229
  550MOL0     C72496  -0.969   2.452   0.847 -0.4982  0.7994 -0.2667
  550MOL0     C72497  -1.112   2.507   0.859  0.1704  1.0317  0.0512
  550MOL0     O72498  -1.217   2.423   0.808 -0.7438 -0.1288 -0.2347
  550MOL0     C72499  -1.339   2.480   0.781  0.1379  0.3994  0.5549
  550MOL0     C72500  -1.413   2.568   0.859 -0.0504 -0.2211 -0.4188
  550MOL0     C72501  -1.538   2.619   0.810  0.4544 -0.3347 -0.6471
  550MOL0     C72502  -1.592   2.578   0.685  0.2625 -0.4065  1.0141
  550MOL0     O72503  -1.709   2.628   0.632 -0.2644  0.2849  1.0803
  550MOL0     C72504  -1.737   2.767   0.655  0.8397  0.1512 -0.2979
  550MOL0     C72505  -1.837   2.813   0.551 -0.4143 -0.0635 -0.9087
  550MOL0     C72506  -1.768   2.822   0.412 -0.3503 -0.2257 -0.5185
  550MOL0     C72507  -1.870   2.818   0.293 -0.5794 -0.3338  0.3352
  550MOL0     C72508  -1.797   2.867   0.164  0.1920 -0.2918  0.6570
  550MOL0     C72509  -1.712   2.758   0.092 -0.8322 -0.6816  0.2766
  550MOL0     C72510  -1.623   2.823  -0.010  0.7804  0.0088  0.2976
  550MOL0     C72511  -1.531   2.725  -0.085  0.2431  0.2557  0.6815
  550MOL0    Cl72512  -1.639   2.629  -0.178  0.1022 -0.1806 -0.2198
  550MOL0     C72513  -1.517   2.487   0.608 -0.1501  1.0431  0.1446
  550MOL0     C72514  -1.389   2.434   0.659  0.6543  0.6302 -0.0299
  550MOL0     O72515  -1.127   2.623   0.887  0.3440 -0.1363 -0.7143
  550MOL0     C72516  -0.859   2.520   0.902 -0.3591 -0.3276  1.2189
  550MOL0     C72517  -0.733   2.470   0.879  0.7318 -0.7665 -0.0882
  550MOL0     N72518  -0.139   1.922   0.882  0.2534  0.0860 -0.0029
  550MOL0     N72519  -0.126   1.821   0.964  0.2551 -0.6605 -0.1427
  550MOL0     C72520   0.646   1.129   0.929  0.4201 -0.6218  0.1129
  550MOL0     C72521   0.779   1.097   0.931 -0.6034  0.3362 -0.9962
  550MOL0     C72522   1.168   0.988   0.695 -0.3575  0.3823 -1.0387
  550MOL0     C72523   1.244   1.102   0.660 -0.7765  0.4285 -0.4193
  550MOL0     C72524   1.382   1.105   0.632 -0.6196  0.1172 -1.1331
  550MOL0     C72525   1.451   0.981   0.643  0.1280 -0.7674  0.0289
  550MOL0     O72526   1.584   0.987   0.602 -0.7988 -0.4641 -0.4239
  550MOL0     C72527   1.652   0.862   0.559  0.2149  0.2258  0.0406
  550MOL0     C72528   1.699   0.760   0.665 -0.1907 -0.2204  0.3447
  550MOL0     C72529   1.795   0.821   0.777  0.4937  0.1509  0.1574
  550MOL0     C72530   1.923   0.873   0.714 -0.5138  0.0172  1.0694
  550MOL0     C72531   2.032   0.873   0.817  0.8548 -0.1133  0.5738
  550MOL0     C72532   2.113   0.877   0.908 -0.1221  0.5051  0.7210
  550MOL0     C72533   1.374   0.867   0.670 -0.5905  0.2316 -0.0465
  550MOL0     C72534   1.242   0.873   0.701 -0.1603 -0.4712  0.3751
  550MOL0     H72535   0.887   1.258   0.660 -1.7071  0.2357 -1.9100
  550MOL0     H72536   0.628   1.326   0.660 -0.5387 -1.9636 -0.7219
  550MOL0     H72537   0.380   1.232   1.022  3.1019  1.5999 -0.6270
  550MOL0     H72538   0.371   1.114   0.885 -1.0114 -0.2181 -3.1189
  550MOL0     H72539   0.167   1.208   0.896 -1.4251  2.0289  0.4381
  550MOL0     H72540   0.232   1.279   0.759 -0.8096 -0.8831 -0.3802
  550MOL0     H72541   0.131   1.454   0.893  0.1398 -0.4526  0.5013
  550MOL0     H72542   0.307   1.477   0.930 -0.1599  1.3907  3.5704
  550MOL0     H72543   0.125   1.338   1.133  1.8885 -1.5476  1.5333
  550MOL0     H72544   0.299   1.364   1.142  0.6549 -0.2621 -1.5872
  550MOL0     H72545   0.247   1.625   1.148 -2.5739  3.0127  1.3284
  550MOL0     H72546   0.220   1.523   1.284  1.5564  4.3654 -0.0761
  550MOL0     H72547  -0.031   1.522   1.221 -3.7676  2.6345 -1.0389
  550MOL0     H72548   0.021   1.605   1.074 -1.1278 -0.2522  0.2599
  550MOL0     H72549   0.065   1.735   1.342 -2.7741  0.4328  0.6639
  550MOL0     H72550   0.115   1.807   1.195 -0.0038 -2.4149 -2.6876
  550MOL0     H72551  -0.137   1.852   1.301  2.5915  2.0798 -0.4531
  550MOL0     H72552  -0.172   1.713   1.193  1.1659  1.2752 -3.2396
  550MOL0     H72553  -0.088   2.081   1.164 -2.5444 -0.6583  0.8218
  550MOL0     H72554  -0.119   2.187   0.788 -1.8825 -1.3266 -1.9779
  550MOL0     H72555  -0.113   2.249   0.950 -1.7091 -1.2258  0.9818
  550MOL0     H72556  -0.333   2.308   0.921 -1.2660  0.2882 -2.1565
  550MOL0     H72557  -0.359   2.145   0.978 -0.2515  3.0280  1.5027
  550MOL0     H72558  -0.335   2.226   0.691  1.7119  0.9558  0.6012
  550MOL0     H72559  -0.372   2.054   0.746 -0.5441 -0.5163  0.9735
  550MOL0     H72560  -0.573   2.114   0.849  0.2088 -1.3203 -0.9020
  550MOL0     H72561  -0.567   2.150   0.677  1.7255  0.1004 -0.0945
  550MOL0     H72562  -0.817   2.185   0.704 -0.4568 -1.0961 -0.0030
  550MOL0     H72563  -1.034   2.286   0.720 -1.5104  4.1594 -2.5414
  550MOL0     H72564  -1.391   2.591   0.962  1.6627 -2.8189 -0.0960
  550MOL0     H72565  -1.594   2.684   0.876 -0.5922 -1.2297 -0.6272
  550MOL0     H72566  -1.647   2.826   0.636  0.6510  1.2145  1.8193
  550MOL0     H72567  -1.775   2.787   0.756 -0.2148  3.6355 -1.2131
  550MOL0     H72568  -1.894   2.895   0.595 -0.5156  0.1853 -1.5035
  550MOL0     H72569  -1.911   2.732   0.550  0.0503 -0.6134  1.6328
  550MOL0     H72570  -1.693   2.742   0.408  2.6056  2.1674  2.1623
  550MOL0     H72571  -1.704   2.910   0.415  0.2514 -0.6798  2.1057
  550MOL0     H72572  -1.892   2.711   0.285 -0.2153 -0.3015 -1.5284
  550MOL0     H72573  -1.961   2.878   0.303 -2.8524 -2.8288 -2.9883
  550MOL0     H72574  -1.713   2.933   0.189  3.2982 -1.3945 -4.9892
  550MOL0     H72575  -1.862   2.911   0.088  2.3653 -1.5408 -2.1728
  550MOL0     H72576  -1.774   2.689   0.035 -0.1355 -0.2980 -0.9777
  550MOL0     H72577  -1.656   2.693   0.160 -0.1349 -0.1994  0.1753
  550MOL0     H72578  -1.691   2.870  -0.082  3.3561 -1.5858 -3.4778
  550MOL0     H72579  -1.552   2.886   0.044 -0.9861  2.4435 -0.0352
  550MOL0     H72580  -1.473   2.652  -0.027  0.3055 -0.7056 -0.5374
  550MOL0     H72581  -1.467   2.785  -0.151  0.0790  1.8470  1.9370
  550MOL0     H72582  -1.554   2.459   0.509  1.9876  0.2685 -0.4987
  550MOL0     H72583  -1.332   2.361   0.602 -0.5398 -1.4499  1.2988
  550MOL0     H72584  -0.874   2.612   0.958 -0.6581  0.0921  0.4657
  550MOL0     H72585  -0.645   2.515   0.923  1.1271  1.3235 -2.7249
  550MOL0     H72586   0.578   1.113   1.012  1.4565 -0.4026  1.0277
  550MOL0     H72587   0.806   1.044   1.022 -3.3678  1.2388  0.4680
  550MOL0     H72588   1.191   1.196   0.649 -3.1528 -1.0029 -2.0477
  550MOL0     H72589   1.433   1.195   0.600  0.0569  0.3603  0.5194
  550MOL0     H72590   1.744   0.899   0.513  1.1929  0.8439  2.3065
  550MOL0     H72591   1.596   0.812   0.480  0.1650  1.4210 -0.6979
  550MOL0     H72592   1.614   0.721   0.722 -0.3687  1.1361  1.0499
  550MOL0     H72593   1.763   0.686   0.617  1.7756  1.9916 -0.5911
  550MOL0     H72594   1.833   0.745   0.846 -2.6784 -0.1176  1.8164
  550MOL0     H72595   1.753   0.904   0.835 -1.6416  0.3812 -1.5997
  550MOL0     H72596   1.951   0.799   0.638  0.4356 -0.9954  2.3483
  550MOL0     H72597   1.911   0.978   0.685  1.0875  0.9665  3.5399
  550MOL0     H72598   2.187   0.870   0.985  0.8957 -3.6641 -0.4010
  550MOL0     H72599   1.408   0.764   0.660  1.7991  1.1235 -2.2019
  550MOL0     H72600   1.194   0.781   0.734  0.3624 -0.2912  1.7203
  551MOL0     O72601   9.224   2.450   9.165  0.3723 -0.0863 -0.6362
  551MOL0     C72602   9.251   2.476   9.049  0.6607 -0.2216 -0.0148
  551MOL0     O72603   9.165   2.504   8.943  0.1469  0.0850  0.1669
  551MOL0     C72604   9.030   2.511   8.952  0.1993 -0.2475 -0.6099
  551MOL0     C72605   8.946   2.487   9.063 -0.4634  0.6840  0.2480
  551MOL0     C72606   8.811   2.484   9.046  0.3678  0.1676 -0.4479
  551MOL0     C72607   8.744   2.506   8.920  0.3533  0.2205  0.2693
  551MOL0     O72608   8.608   2.478   8.901  0.4128 -0.0847 -0.0829
  551MOL0     C72609   8.508   2.527   8.992 -0.7803 -0.5395 -0.1135
  551MOL0     C72610   8.368   2.511   8.933 -0.1770 -1.1061  0.1472
  551MOL0     C72611   8.258   2.616   8.974  0.3476 -0.7622 -0.0039
  551MOL0     C72612   8.118   2.559   8.965  0.2622 -0.1263 -0.1113
  551MOL0     C72613   8.014   2.648   9.041 -0.6300 -0.8137 -0.6492
  551MOL0     C72614   7.875   2.615   9.003 -0.4115 -0.6790  0.0667
  551MOL0     C72615   7.778   2.717   9.083 -0.1133 -0.7590  1.1548
  551MOL0     C72616   7.630   2.696   9.082 -0.2666 -0.2659  0.1691
  551MOL0     N72617   7.554   2.818   9.109 -0.4320  0.0216  0.0998
  551MOL0     C72618   7.533   2.921   9.024  0.1552 -0.0402  0.1876
  551MOL0     C72619   7.434   2.990   9.088 -0.7640 -0.3317  1.2324
  551MOL0     C72620   7.361   3.116   9.039 -0.1911  0.4392  0.2188
  551MOL0     C72621   7.215   3.117   9.062 -0.1560 -0.3703  0.0320
  551MOL0     C72622   7.137   3.230   8.984 -0.6010 -0.2899 -0.2077
  551MOL0     C72623   6.987   3.239   9.003  0.3288  0.1532 -0.7394
  551MOL0     O72624   6.936   3.127   8.949  1.1564 -0.4166  0.2438
  551MOL0     C72625   6.797   3.097   8.942  0.6794 -0.0973 -0.1343
  551MOL0     C72626   6.755   2.978   8.888  0.0673  0.4961  0.0865
  551MOL0     C72627   6.619   2.949   8.873 -0.9443 -0.4945  0.4060
  551MOL0     C72628   6.527   3.040   8.921 -0.3911 -0.1283 -0.1311
  551MOL0     C72629   6.385   3.014   8.904 -0.8716  0.4853 -0.2578
  551MOL0     O72630   6.296   3.099   8.954  0.4260  0.1615 -0.2128
  551MOL0     C72631   6.182   3.044   9.010 -0.4442 -0.8734  0.4422
  551MOL0     C72632   6.090   2.970   8.934 -0.3285  0.2301 -1.1500
  551MOL0     C72633   5.971   2.933   8.990  0.6268  0.7456 -0.5384
  551MOL0     C72634   5.950   2.940   9.131 -0.1320 -0.0355 -0.1494
  551MOL0     O72635   5.844   2.874   9.196 -0.4138  0.4489 -0.9068
  551MOL0     C72636   5.716   2.916   9.165 -0.7735  0.0741 -0.2219
  551MOL0     C72637   5.624   2.793   9.185 -1.2146 -0.4674  0.5638
  551MOL0     C72638   5.484   2.841   9.226 -0.1321 -0.2302  0.5686
  551MOL0     C72639   5.381   2.738   9.254 -1.1668  0.2556 -0.0287
  551MOL0     C72640   5.261   2.803   9.310  0.1653  0.1650  1.0920
  551MOL0     C72641   5.161   2.688   9.347 -0.1278  0.1618  0.0395
  551MOL0     C72642   5.022   2.735   9.391  1.1854 -0.3213  0.0841
  551MOL0     C72643   4.910   2.645   9.343 -0.5104  0.5125 -0.5368
  551MOL0    Cl72644   4.942   2.492   9.438 -0.1934  0.1087 -0.1913
  551MOL0     C72645   6.038   3.030   9.204 -0.0336 -0.7523 -0.0373
  551MOL0     C72646   6.150   3.087   9.144 -0.3817  0.5641  0.5728
  551MOL0     O72647   6.360   2.933   8.817 -0.2257  0.9275  0.7509
  551MOL0     C72648   6.570   3.158   8.981 -0.4093 -0.1078  0.8612
  551MOL0     C72649   6.708   3.187   8.996  0.8335 -0.4301  0.0029
  551MOL0     N72650   7.403   2.931   9.209  0.0238  0.0544  0.2084
  551MOL0     N72651   7.487   2.834   9.232 -0.3316  0.4414 -0.1140
  551MOL0     C72652   8.828   2.534   8.814 -0.2678  0.4049 -0.4859
  551MOL0     C72653   8.968   2.530   8.832  1.3598 -0.6294 -0.1131
  551MOL0     C72654   9.390   2.465   9.013 -0.1878 -0.4742  0.4895
  551MOL0     C72655   9.482   2.501   9.109 -0.2140 -0.3586 -0.4204
  551MOL0     C72656   9.615   2.509   9.088  0.3938  0.0706 -0.3485
  551MOL0     C72657   9.666   2.473   8.958 -0.5557  0.1551 -0.7430
  551MOL0     O72658   9.796   2.474   8.920  0.1321 -0.4774 -0.3649
  551MOL0     C72659   9.894   2.516   9.012 -0.2083  0.9770 -0.0794
  551MOL0     C72660  10.032   2.516   8.931  0.0960  0.6188 -0.3430
  551MOL0     C72661  10.029   2.613   8.811 -0.0846  0.0201 -0.7500
  551MOL0     C72662  10.172   2.660   8.774 -0.2538 -0.0986 -0.3211
  551MOL0     C72663  10.185   2.706   8.635 -0.5827 -0.1533 -0.3382
  551MOL0     C72664  10.198   2.746   8.522 -1.4773 -0.6460  0.9689
  551MOL0     C72665   9.573   2.435   8.861  0.3800 -0.7107  0.0576
  551MOL0     C72666   9.434   2.427   8.890 -0.1420  0.8581 -0.0294
  551MOL0     H72667   8.993   2.475   9.160  0.1429 -0.3449 -0.1663
  551MOL0     H72668   8.751   2.464   9.134 -1.7402  2.8384 -1.1464
  551MOL0     H72669   8.525   2.631   9.023 -0.3645 -0.8360  0.6935
  551MOL0     H72670   8.514   2.485   9.093 -0.3917 -0.6854 -0.1968
  551MOL0     H72671   8.351   2.409   8.967  5.0760 -2.3840 -0.1974
  551MOL0     H72672   8.366   2.511   8.824  0.2514  1.7242  0.0512
  551MOL0     H72673   8.274   2.697   8.903 -1.3792 -1.6557 -1.4841
  551MOL0     H72674   8.279   2.640   9.079 -0.6282 -1.0009  0.2533
  551MOL0     H72675   8.079   2.565   8.863 -0.5599 -1.4782  0.0874
  551MOL0     H72676   8.119   2.452   8.991  1.2446  0.1359  1.0380
  551MOL0     H72677   8.034   2.753   9.017 -1.3228 -1.2584 -3.5850
  551MOL0     H72678   8.034   2.630   9.147 -2.2652 -1.3408 -0.3968
  551MOL0     H72679   7.855   2.513   9.036 -0.7333 -0.4502  0.5878
  551MOL0     H72680   7.863   2.635   8.896  1.7219  1.4711  0.1389
  551MOL0     H72681   7.811   2.715   9.187  0.8364 -0.6758  0.8632
  551MOL0     H72682   7.792   2.818   9.042 -0.7164 -1.3745 -0.6570
  551MOL0     H72683   7.605   2.618   9.154 -3.2685 -1.4024 -1.9062
  551MOL0     H72684   7.596   2.659   8.984 -0.6539 -3.2878  1.3361
  551MOL0     H72685   7.569   2.942   8.923 -2.9982  2.0708 -0.6181
  551MOL0     H72686   7.378   3.130   8.932 -2.5867 -3.8766 -0.9783
  551MOL0     H72687   7.399   3.206   9.088  2.3267  0.5720 -1.7731
  551MOL0     H72688   7.199   3.135   9.169 -0.7293  1.0968 -0.2768
  551MOL0     H72689   7.158   3.025   9.042  1.3322 -1.2581 -0.2415
  551MOL0     H72690   7.176   3.331   9.001  1.4432 -0.8090 -1.4916
  551MOL0     H72691   7.156   3.236   8.877  2.5781  1.9102  0.3400
  551MOL0     H72692   6.953   3.328   8.950  3.7293  1.7632 -0.4941
  551MOL0     H72693   6.963   3.233   9.109  1.5438 -1.2032 -0.5110
  551MOL0     H72694   6.839   2.916   8.857  0.0203  0.0074  0.8953
  551MOL0     H72695   6.596   2.851   8.833 -2.9744  0.2830 -0.4797
  551MOL0     H72696   6.102   2.965   8.826 -0.1341  3.4746 -1.3815
  551MOL0     H72697   5.899   2.867   8.942 -0.5414  1.6503 -0.0494
  551MOL0     H72698   5.709   2.948   9.061 -1.4751  1.9133  0.3473
  551MOL0     H72699   5.689   3.000   9.231 -1.3474  0.7015 -1.2272
  551MOL0     H72700   5.672   2.727   9.257  1.9216  1.5951  0.5421
  551MOL0     H72701   5.618   2.736   9.091 -1.6712  1.8978 -0.9318
  551MOL0     H72702   5.451   2.914   9.152 -3.1139 -1.6602  0.3786
  551MOL0     H72703   5.508   2.901   9.314  0.2005  1.5440 -0.6698
  551MOL0     H72704   5.365   2.679   9.163 -3.0058  0.2710  0.2505
  551MOL0     H72705   5.410   2.650   9.312 -1.5377 -2.6185 -3.7722
  551MOL0     H72706   5.211   2.873   9.243 -1.5979  0.2226  2.3868
  551MOL0     H72707   5.291   2.860   9.398 -0.4328  2.9300 -0.3855
  551MOL0     H72708   5.208   2.635   9.431  0.1134 -0.5221 -0.5230
  551MOL0     H72709   5.148   2.608   9.274  2.4542  0.3822 -0.7765
  551MOL0     H72710   5.010   2.741   9.500 -1.9247 -0.8207 -0.1368
  551MOL0     H72711   5.002   2.839   9.363 -1.6929  0.0326  2.7609
  551MOL0     H72712   4.925   2.627   9.236  0.7493  2.4855 -0.7479
  551MOL0     H72713   4.807   2.679   9.354 -1.2944 -1.1628 -2.2013
  551MOL0     H72714   6.006   3.050   9.306 -0.0785 -1.9161  0.1912
  551MOL0     H72715   6.228   3.150   9.184  1.6960  0.1976 -2.5332
  551MOL0     H72716   6.505   3.228   9.033  2.2580  2.6801  0.7543
  551MOL0     H72717   6.738   3.277   9.049 -2.3098 -1.1388  3.3923
  551MOL0     H72718   8.777   2.548   8.719  2.7712  1.0823 -2.1590
  551MOL0     H72719   9.027   2.554   8.744 -0.0592 -1.9052 -1.4753
  551MOL0     H72720   9.448   2.525   9.209  2.6956  0.5933  0.4514
  551MOL0     H72721   9.676   2.534   9.174  0.2837 -2.8414  0.6708
  551MOL0     H72722   9.899   2.443   9.092  4.3961  0.7771 -0.3348
  551MOL0     H72723   9.879   2.612   9.062  1.7764 -0.1199  2.8703
  551MOL0     H72724  10.116   2.537   8.998  1.4914 -2.2224 -1.0374
  551MOL0     H72725  10.053   2.412   8.905 -0.0577  0.3429  0.6089
  551MOL0     H72726   9.966   2.700   8.833 -0.7948 -0.7545  0.4160
  551MOL0     H72727   9.974   2.572   8.726  0.3455 -0.7544 -0.6614
  551MOL0     H72728  10.184   2.743   8.844 -2.3696 -0.2387  0.2481
  551MOL0     H72729  10.246   2.584   8.801  1.9862  1.8807 -0.5722
  551MOL0     H72730  10.210   2.768   8.418 -1.8682 -1.2078  0.7927
  551MOL0     H72731   9.612   2.421   8.761  1.2661  1.4789  0.0353
  551MOL0     H72732   9.357   2.401   8.818  0.9901 -1.7954 -0.3831
  552MOL0     O72733   8.665   1.199   1.540  0.4399 -0.3840  0.3357
  552MOL0     C72734   8.653   1.211   1.415 -0.2571 -0.8046  0.3528
  552MOL0     O72735   8.750   1.225   1.327 -0.7656  0.2447  0.1376
  552MOL0     C72736   8.875   1.198   1.366 -1.2318 -0.0723 -0.6638
  552MOL0     C72737   8.975   1.285   1.317 -0.0637  0.2507 -0.4752
  552MOL0     C72738   9.106   1.258   1.353  0.1178 -0.2529 -0.1890
  552MOL0     C72739   9.155   1.147   1.421  0.0034  1.4031 -0.5498
  552MOL0     O72740   9.294   1.122   1.420  0.0231  0.3275  0.3950
  552MOL0     C72741   9.337   1.000   1.491 -0.6246  0.1283 -0.6840
  552MOL0     C72742   9.480   0.972   1.435  0.5687 -0.0938 -0.0740
  552MOL0     C72743   9.541   0.847   1.493 -0.4352  0.2479 -0.8342
  552MOL0     C72744   9.693   0.838   1.461 -0.4885 -0.2775 -0.5330
  552MOL0     C72745   9.754   0.712   1.522 -0.3055  0.6018  0.2027
  552MOL0     C72746   9.762   0.732   1.678  0.0826  0.9409 -0.2587
  552MOL0     C72747   9.827   0.617   1.768 -0.4244 -0.5793  0.6277
  552MOL0     C72748   9.728   0.510   1.813  0.9995  0.8017 -0.3062
  552MOL0     N72749   9.634   0.575   1.904  0.3121 -0.3496 -0.2643
  552MOL0     C72750   9.504   0.590   1.884  0.2912 -0.8740  0.2460
  552MOL0     C72751   9.456   0.659   1.996 -0.3270  0.6421  0.0870
  552MOL0     C72752   9.325   0.699   2.032  0.4510  1.5317 -0.0005
  552MOL0     C72753   9.213   0.644   1.945 -0.3810 -0.9643  0.6024
  552MOL0     C72754   9.063   0.668   1.991  0.1489  0.1796 -0.3351
  552MOL0     C72755   9.007   0.808   1.973 -0.2946  0.2509 -0.2057
  552MOL0     O72756   8.962   0.821   1.839 -0.1601  0.5212  0.2527
  552MOL0     C72757   8.827   0.851   1.812 -0.7338  0.3302  0.2295
  552MOL0     C72758   8.775   0.984   1.808  0.4582 -0.3818  0.7410
  552MOL0     C72759   8.635   0.995   1.779  0.1720  0.6061 -0.2024
  552MOL0     C72760   8.555   0.884   1.741 -0.0997 -0.1805 -1.1850
  552MOL0     C72761   8.418   0.904   1.704  1.2533 -0.3338 -0.1438
  552MOL0     O72762   8.357   0.801   1.646 -0.0754 -0.3389 -1.1985
  552MOL0     C72763   8.219   0.816   1.625 -0.0459 -0.9326  0.1218
  552MOL0     C72764   8.170   0.919   1.543  0.2349  0.0558 -0.9751
  552MOL0     C72765   8.029   0.916   1.513 -0.1231  0.0712  0.3360
  552MOL0     C72766   7.944   0.823   1.572  0.0922  0.2310  0.2961
  552MOL0     O72767   7.814   0.841   1.536 -0.3246  0.2426 -0.2819
  552MOL0     C72768   7.706   0.787   1.616  0.1039  0.4639  0.8264
  552MOL0     C72769   7.587   0.887   1.604  0.0875  0.6010 -0.8392
  552MOL0     C72770   7.470   0.818   1.547 -0.1902  0.0318 -0.4766
  552MOL0     C72771   7.346   0.904   1.554  0.5852  0.2734 -0.6568
  552MOL0     C72772   7.350   1.033   1.468 -0.2591 -0.9507  0.6195
  552MOL0     C72773   7.233   1.126   1.493  0.5481 -0.2449 -0.0176
  552MOL0     C72774   7.249   1.258   1.418  0.0621 -0.3413  0.2845
  552MOL0     C72775   7.117   1.340   1.437 -0.0703  1.0329  0.1507
  552MOL0    Cl72776   6.993   1.275   1.340  0.0856 -0.4749 -0.3043
  552MOL0     C72777   7.997   0.725   1.660 -1.0871 -0.1278 -0.5619
  552MOL0     C72778   8.132   0.728   1.694  0.5468 -0.1623  0.7411
  552MOL0     O72779   8.366   1.009   1.744  0.0785 -0.0797  0.5459
  552MOL0     C72780   8.613   0.760   1.747 -0.7507 -0.2376  0.1335
  552MOL0     C72781   8.745   0.747   1.778 -0.1168 -0.0689 -0.6925
  552MOL0     N72782   9.560   0.676   2.081 -0.4427 -0.3487 -0.2055
  552MOL0     N72783   9.664   0.629   2.021  0.4596 -0.5323  0.8841
  552MOL0     C72784   9.057   1.067   1.478  0.2283  0.4931  0.0370
  552MOL0     C72785   8.916   1.097   1.456 -0.7585  0.3116 -0.1152
  552MOL0     C72786   8.512   1.214   1.362  0.0122 -0.2112  0.2388
  552MOL0     C72787   8.483   1.209   1.220  0.2609  0.7052 -0.6143
  552MOL0     C72788   8.347   1.220   1.180 -0.5624 -0.1786 -0.1827
  552MOL0     C72789   8.245   1.231   1.272  0.6792 -0.1593  0.4799
  552MOL0     O72790   8.109   1.242   1.243 -0.4533 -0.0786  0.4037
  552MOL0     C72791   8.060   1.183   1.123 -0.2925  0.1060 -0.2898
  552MOL0     C72792   8.076   1.034   1.109  0.1440 -0.0997  1.2727
  552MOL0     C72793   8.025   0.972   0.976 -0.1201  0.0581  1.7053
  552MOL0     C72794   8.086   0.827   0.959  0.6091 -0.5999  0.7268
  552MOL0     C72795   8.019   0.733   1.051  1.0839  0.4225 -0.6915
  552MOL0     C72796   7.972   0.662   1.140  0.7133  0.1224  0.0517
  552MOL0     C72797   8.268   1.238   1.400  0.2420  0.6339 -0.0678
  552MOL0     C72798   8.401   1.232   1.450 -0.4990 -0.2058 -0.0759
  552MOL0     H72799   8.961   1.376   1.260  0.6631  1.2401  0.8552
  552MOL0     H72800   9.177   1.337   1.331 -2.1507  1.2731 -2.6050
  552MOL0     H72801   9.266   0.922   1.459 -2.7234  1.2215  1.0204
  552MOL0     H72802   9.339   1.004   1.601  0.0967  3.6547 -0.7148
  552MOL0     H72803   9.556   1.047   1.458  1.5156  0.0334 -3.2080
  552MOL0     H72804   9.471   0.958   1.327  6.0626  1.7421 -1.0884
  552MOL0     H72805   9.490   0.760   1.451  0.5484 -0.3797 -0.7740
  552MOL0     H72806   9.522   0.844   1.601  0.0805  0.8135 -0.7252
  552MOL0     H72807   9.698   0.830   1.352 -2.2682 -0.5584 -0.6305
  552MOL0     H72808   9.742   0.931   1.492 -0.8062  0.3657 -1.9179
  552MOL0     H72809   9.854   0.684   1.488 -0.8489  1.0928 -1.9640
  552MOL0     H72810   9.693   0.625   1.500 -4.5154  2.6987  2.3468
  552MOL0     H72811   9.659   0.731   1.714 -0.2142 -3.1559 -0.7536
  552MOL0     H72812   9.815   0.824   1.704 -1.7273  1.9842 -0.0341
  552MOL0     H72813   9.916   0.580   1.717 -0.7295  0.2287 -0.5156
  552MOL0     H72814   9.862   0.649   1.867 -1.8059 -0.7691  1.2136
  552MOL0     H72815   9.779   0.423   1.853  1.1322  0.9613 -0.1264
  552MOL0     H72816   9.677   0.469   1.725 -1.5271 -3.3214  2.7590
  552MOL0     H72817   9.441   0.546   1.807 -2.6606 -1.0586  2.5602
  552MOL0     H72818   9.308   0.807   2.036  0.1479  1.6163 -2.1015
  552MOL0     H72819   9.323   0.654   2.131  0.3272 -0.1730 -0.7385
  552MOL0     H72820   9.219   0.537   1.925 -0.3164 -1.2308  1.9693
  552MOL0     H72821   9.215   0.689   1.845 -2.1849  1.1652  1.4578
  552MOL0     H72822   8.993   0.594   1.951 -0.9157  0.8054  0.3135
  552MOL0     H72823   9.059   0.653   2.099  1.7725  3.7087  0.3489
  552MOL0     H72824   9.069   0.895   1.996  2.0569 -0.8683 -1.8309
  552MOL0     H72825   8.923   0.814   2.043  1.5220  2.0590  1.9822
  552MOL0     H72826   8.825   1.079   1.820 -1.8612  1.0703 -0.4055
  552MOL0     H72827   8.596   1.096   1.772 -3.6473 -0.6540  0.6083
  552MOL0     H72828   8.244   0.988   1.503  0.2925 -0.5687 -1.9944
  552MOL0     H72829   8.002   1.004   1.455  0.4250  0.6970  1.0080
  552MOL0     H72830   7.740   0.785   1.720  1.4993  1.1616  0.4029
  552MOL0     H72831   7.694   0.686   1.574  0.3254  1.4876 -1.8487
  552MOL0     H72832   7.615   0.963   1.531  0.9283 -0.4303 -1.6348
  552MOL0     H72833   7.562   0.918   1.706 -0.2749 -2.6480  0.2071
  552MOL0     H72834   7.454   0.724   1.602  0.3559 -0.3723 -0.9877
  552MOL0     H72835   7.490   0.790   1.443 -1.5906  1.5895 -1.2057
  552MOL0     H72836   7.249   0.856   1.536 -0.2837  2.1975 -1.3706
  552MOL0     H72837   7.338   0.934   1.659 -0.8111 -1.1093 -0.3229
  552MOL0     H72838   7.360   0.999   1.365  0.5442  0.6236  0.1499
  552MOL0     H72839   7.447   1.082   1.485  1.3708 -3.0483 -1.8877
  552MOL0     H72840   7.234   1.151   1.599 -4.3673 -0.5019  0.2904
  552MOL0     H72841   7.132   1.087   1.484 -0.0858  1.2005  0.5080
  552MOL0     H72842   7.323   1.316   1.475  2.1553 -1.4924 -1.1334
  552MOL0     H72843   7.279   1.251   1.314 -4.5650  0.6761 -1.3638
  552MOL0     H72844   7.133   1.441   1.397 -1.7725  0.3428 -2.5746
  552MOL0     H72845   7.086   1.347   1.542 -1.1619 -2.0503  0.1573
  552MOL0     H72846   7.946   0.637   1.699  2.0488 -2.7026 -1.8619
  552MOL0     H72847   8.169   0.657   1.766  0.9846  0.7312  1.4218
  552MOL0     H72848   8.568   0.664   1.726 -1.2636 -0.0561  0.3879
  552MOL0     H72849   8.785   0.647   1.792  0.8451  0.1595 -1.6434
  552MOL0     H72850   9.080   0.978   1.537 -2.1829  0.7830  1.5622
  552MOL0     H72851   8.843   1.030   1.501 -0.7349  0.9197  0.8673
  552MOL0     H72852   8.566   1.213   1.150 -0.4726  0.4492 -1.5141
  552MOL0     H72853   8.339   1.223   1.072  2.0795  1.8110 -0.4212
  552MOL0     H72854   8.094   1.244   1.039 -0.6581  0.8537  0.0965
  552MOL0     H72855   7.954   1.207   1.122 -0.2222  0.4037 -0.8774
  552MOL0     H72856   8.177   0.996   1.125 -0.3547 -2.8216 -1.1400
  552MOL0     H72857   8.014   0.984   1.184 -0.0983  1.2776  2.0107
  552MOL0     H72858   8.049   1.033   0.888 -0.4943 -1.4569  0.5187
  552MOL0     H72859   7.916   0.969   0.978 -0.1612  1.3162  3.2574
  552MOL0     H72860   8.077   0.792   0.856  0.4828  1.6950 -0.1109
  552MOL0     H72861   8.193   0.822   0.981  1.0256 -1.8089 -1.2736
  552MOL0     H72862   7.932   0.614   1.227 -2.6050 -1.1063 -1.9645
  552MOL0     H72863   8.186   1.246   1.470  1.3284 -0.2670  1.3663
  552MOL0     H72864   8.439   1.224   1.551  0.9351 -2.9374 -0.7567
  553MOL0     O72865   8.611   8.967   4.606  0.0023  0.3257 -0.4686
  553MOL0     C72866   8.664   8.878   4.680  0.4079 -0.6088 -0.2538
  553MOL0     O72867   8.599   8.790   4.759  0.0929  0.8784  0.3623
  553MOL0     C72868   8.484   8.821   4.809  0.4297 -0.4051 -0.4248
  553MOL0     C72869   8.424   8.945   4.835 -0.3575 -0.1800 -0.3522
  553MOL0     C72870   8.297   8.952   4.896 -0.4744 -0.4565 -0.2098
  553MOL0     C72871   8.220   8.843   4.922  0.7684  0.6631  1.3230
  553MOL0     O72872   8.092   8.844   4.962  0.3450  0.1839  0.2777
  553MOL0     C72873   8.031   8.965   5.008 -0.9049 -0.6976 -0.4026
  553MOL0     C72874   7.888   8.936   5.044  0.2842  0.1195  0.7064
  553MOL0     C72875   7.790   8.874   4.947  0.5652  1.1054  0.9678
  553MOL0     C72876   7.650   8.858   5.012 -0.3244 -0.7826  0.5784
  553MOL0     C72877   7.576   8.764   4.921  0.0724  0.0560  0.2364
  553MOL0     C72878   7.427   8.777   4.919  0.2468 -0.3526  0.1918
  553MOL0     C72879   7.346   8.649   4.867 -0.7882 -0.3545  1.0703
  553MOL0     C72880   7.190   8.658   4.879 -0.4796 -0.7956 -0.2108
  553MOL0     N72881   7.146   8.699   5.012 -0.1572 -0.5660  0.5698
  553MOL0     C72882   7.074   8.813   5.032 -0.3489  0.3432 -0.6203
  553MOL0     C72883   7.035   8.800   5.159  0.3210 -0.5901 -0.3262
  553MOL0     C72884   6.948   8.894   5.241  0.1064 -0.1197 -0.6221
  553MOL0     C72885   6.910   9.012   5.155  0.0055 -0.1175 -0.3779
  553MOL0     C72886   6.803   9.103   5.219 -1.1278  0.1915 -0.5493
  553MOL0     C72887   6.742   9.206   5.129 -1.0287  0.4952  0.8170
  553MOL0     O72888   6.673   9.143   5.016 -0.2988 -0.0595 -0.8130
  553MOL0     C72889   6.575   9.225   4.971  0.2814 -0.6259  0.7454
  553MOL0     C72890   6.584   9.318   4.861 -0.2503  0.0424 -0.7600
  553MOL0     C72891   6.471   9.392   4.814  0.2390 -0.2825 -0.2822
  553MOL0     C72892   6.351   9.362   4.877  0.1123 -1.1038 -0.3536
  553MOL0     C72893   6.222   9.416   4.819 -0.2429 -0.6518 -0.6174
  553MOL0     O72894   6.224   9.510   4.720  0.4636 -0.1526 -0.5051
  553MOL0     C72895   6.119   9.556   4.652 -0.3953 -0.1860  0.2801
  553MOL0     C72896   6.023   9.471   4.596 -0.0963  0.5228  0.9439
  553MOL0     C72897   5.920   9.524   4.523 -0.1164  0.0557 -0.2701
  553MOL0     C72898   5.916   9.662   4.505  0.5109 -0.2927  0.2299
  553MOL0     O72899   5.802   9.701   4.441  0.1760 -0.4093  0.4836
  553MOL0     C72900   5.774   9.843   4.433  0.9109 -0.7769 -0.4181
  553MOL0     C72901   5.627   9.872   4.380  0.5266  0.3969  0.4227
  553MOL0     C72902   5.611   9.832   4.239  0.3189  0.8404 -0.4307
  553MOL0     C72903   5.468   9.828   4.185  0.4210  0.9038  0.0327
  553MOL0     C72904   5.465   9.758   4.054  0.6813  0.1512  0.4299
  553MOL0     C72905   5.324   9.787   3.993  0.6795  0.0410  0.5583
  553MOL0     C72906   5.210   9.680   4.024  0.9238 -1.0511  0.0309
  553MOL0     C72907   5.070   9.712   3.973 -0.2763 -0.0650 -0.0721
  553MOL0    Cl72908   5.052   9.620   3.817  0.3977 -0.0104  0.0603
  553MOL0     C72909   6.010   9.745   4.567  0.4627 -0.2092 -0.1444
  553MOL0     C72910   6.115   9.688   4.629 -0.2949  0.2911  0.3628
  553MOL0     O72911   6.120   9.371   4.869  0.3366 -0.8779 -0.5881
  553MOL0     C72912   6.343   9.285   4.998  0.5421 -0.1585 -0.2195
  553MOL0     C72913   6.456   9.220   5.042 -0.9142 -0.2913  0.8680
  553MOL0     N72914   7.080   8.683   5.211  0.6065 -1.0312 -0.5562
  553MOL0     N72915   7.155   8.628   5.125 -0.8649 -1.1117 -0.5694
  553MOL0     C72916   8.277   8.719   4.904  0.2109  0.3042 -0.4588
  553MOL0     C72917   8.409   8.711   4.846 -0.2817  0.1705 -0.8057
  553MOL0     C72918   8.810   8.860   4.652  0.4984  0.7027 -0.3012
  553MOL0     C72919   8.893   8.971   4.639 -0.1225 -0.2844 -1.0976
  553MOL0     C72920   9.028   8.960   4.615 -0.6842  0.2288 -0.3591
  553MOL0     C72921   9.086   8.832   4.624  0.5018  0.0460  0.1013
  553MOL0     O72922   9.220   8.819   4.604 -0.0378  0.4364  0.2920
  553MOL0     C72923   9.296   8.865   4.717 -0.1419  0.2677 -0.5592
  553MOL0     C72924   9.441   8.788   4.715 -0.2304  0.8134  0.3041
  553MOL0     C72925   9.495   8.819   4.571 -0.0849  0.2397 -0.6162
  553MOL0     C72926   9.641   8.782   4.557  0.3104  0.0492  0.3228
  553MOL0     C72927   9.683   8.667   4.622  0.9247  1.0224 -0.2980
  553MOL0     C72928   9.728   8.564   4.674 -0.6886  0.0885  0.8822
  553MOL0     C72929   9.011   8.725   4.642  0.0658  0.3440 -0.4887
  553MOL0     C72930   8.874   8.740   4.662 -0.1601  0.6280  0.5616
  553MOL0     H72931   8.479   9.038   4.825  0.0290 -0.5735 -2.1107
  553MOL0     H72932   8.266   9.055   4.908 -0.1521 -0.3504 -0.2782
  553MOL0     H72933   8.042   9.048   4.936 -1.1957  0.4098  0.7881
  553MOL0     H72934   8.079   9.001   5.099 -0.0204 -0.2047 -1.0360
  553MOL0     H72935   7.843   9.033   5.068  1.5724  0.8515  0.2170
  553MOL0     H72936   7.870   8.898   5.146 -2.9255  0.8338  0.5233
  553MOL0     H72937   7.823   8.776   4.912 -0.1044  0.1782  2.8114
  553MOL0     H72938   7.786   8.933   4.854 -0.3043 -1.1510 -0.5015
  553MOL0     H72939   7.632   8.828   5.116 -1.2485 -0.3205  0.5712
  553MOL0     H72940   7.605   8.956   4.993  1.8655 -0.0294 -1.1831
  553MOL0     H72941   7.609   8.663   4.948 -0.3304  0.4558  2.4065
  553MOL0     H72942   7.606   8.780   4.818  1.3523  0.0617  0.5888
  553MOL0     H72943   7.391   8.869   4.871  0.2033  0.5768  1.9245
  553MOL0     H72944   7.406   8.792   5.025  0.3596 -1.7861  0.4307
  553MOL0     H72945   7.358   8.622   4.762 -1.8293  0.3426  0.7574
  553MOL0     H72946   7.378   8.570   4.936 -0.0563 -1.5412 -0.5329
  553MOL0     H72947   7.149   8.562   4.847 -0.3975 -1.6061  1.9751
  553MOL0     H72948   7.159   8.741   4.814  0.9244 -0.0741  0.0066
  553MOL0     H72949   7.057   8.895   4.963 -0.3890  2.5178  1.8239
  553MOL0     H72950   7.000   8.929   5.330 -0.1801 -1.9305  0.3055
  553MOL0     H72951   6.859   8.839   5.274  2.3716 -3.0211  1.1352
  553MOL0     H72952   6.872   8.983   5.057  0.1830  1.3776 -0.9160
  553MOL0     H72953   7.007   9.060   5.139  0.4957 -1.1454 -0.5512
  553MOL0     H72954   6.725   9.035   5.256 -1.2081 -0.9183 -2.6305
  553MOL0     H72955   6.840   9.150   5.311 -1.0017  0.5128 -0.7639
  553MOL0     H72956   6.815   9.276   5.086 -3.8470  1.3899 -3.1020
  553MOL0     H72957   6.679   9.273   5.188  0.5074  1.6343  1.2154
  553MOL0     H72958   6.683   9.327   4.818  1.7522 -1.8497  3.0174
  553MOL0     H72959   6.485   9.456   4.728 -0.2049 -0.4021 -0.4434
  553MOL0     H72960   6.019   9.366   4.626  2.2052 -0.3330 -1.3111
  553MOL0     H72961   5.835   9.460   4.503  1.6568 -2.7287  0.4236
  553MOL0     H72962   5.851   9.879   4.364  1.6615 -5.2267 -2.2297
  553MOL0     H72963   5.778   9.884   4.535  0.1652 -1.1161 -0.2480
  553MOL0     H72964   5.617   9.980   4.363  0.8616  0.2570 -0.7914
  553MOL0     H72965   5.548   9.843   4.449  1.7508 -0.1135  1.6454
  553MOL0     H72966   5.657   9.733   4.234  1.9259  1.5062  0.3636
  553MOL0     H72967   5.675   9.898   4.179  2.3400  0.8528  1.5988
  553MOL0     H72968   5.412   9.767   4.257  3.3128 -1.1926  0.6882
  553MOL0     H72969   5.437   9.932   4.175  0.3899  1.0313  1.2990
  553MOL0     H72970   5.476   9.650   4.064 -0.3141  0.0465  0.4214
  553MOL0     H72971   5.549   9.798   3.997  1.6468  0.9538  2.3010
  553MOL0     H72972   5.352   9.785   3.888  3.5383  2.0872  1.1485
  553MOL0     H72973   5.287   9.888   4.014  1.3117  0.5240 -0.5889
  553MOL0     H72974   5.244   9.578   4.003 -0.6297 -1.4929 -0.4812
  553MOL0     H72975   5.206   9.687   4.133  0.7699  0.7367 -0.0601
  553MOL0     H72976   5.058   9.820   3.967 -0.2709  0.0406  1.3604
  553MOL0     H72977   4.994   9.671   4.039  0.8890 -3.1723 -0.4665
  553MOL0     H72978   6.006   9.851   4.547  1.0145 -0.2233 -0.3372
  553MOL0     H72979   6.197   9.755   4.655  1.5617 -1.4777 -0.7028
  553MOL0     H72980   6.257   9.271   5.062  0.9663  0.0686  0.4164
  553MOL0     H72981   6.450   9.157   5.130 -1.3903  0.8880  1.7208
  553MOL0     H72982   8.224   8.633   4.944  1.8684 -1.3717 -1.6652
  553MOL0     H72983   8.450   8.610   4.847  3.0072  1.3181  2.3281
  553MOL0     H72984   8.846   9.068   4.645  2.5836  1.0770  0.0440
  553MOL0     H72985   9.100   9.039   4.593 -1.3704  1.9561  3.0106
  553MOL0     H72986   9.237   8.845   4.806  1.0885  0.0827  0.2428
  553MOL0     H72987   9.317   8.972   4.709 -0.5188  0.3104 -1.0392
  553MOL0     H72988   9.500   8.826   4.799  0.8331 -3.0396  1.5052
  553MOL0     H72989   9.427   8.680   4.722 -0.6861  0.8609  0.1181
  553MOL0     H72990   9.493   8.926   4.550  2.0611 -0.0352 -2.5589
  553MOL0     H72991   9.427   8.764   4.506 -1.5992 -0.4720  1.4403
  553MOL0     H72992   9.670   8.766   4.453  0.7361  0.6723  0.3484
  553MOL0     H72993   9.698   8.867   4.593  2.4514 -1.3638  0.4605
  553MOL0     H72994   9.764   8.483   4.734  1.1721 -0.5006 -0.9167
  553MOL0     H72995   9.064   8.630   4.639  1.6489  1.1805 -0.5669
  553MOL0     H72996   8.814   8.656   4.693 -1.7583  2.0234  1.4242
  554MOL0     O72997   5.015   9.482   0.952 -0.1761  0.0769  0.3989
  554MOL0     C72998   4.946   9.523   0.859  0.0067  0.6679 -0.0121
  554MOL0     O72999   4.812   9.557   0.868  0.0283  0.0215  0.5576
  554MOL0     C73000   4.735   9.562   0.983 -0.9179  0.0647  0.1521
  554MOL0     C73001   4.769   9.517   1.109  0.2910 -0.0472  0.4231
  554MOL0     C73002   4.678   9.523   1.212  0.2125 -0.1578 -0.0389
  554MOL0     C73003   4.548   9.571   1.196  0.7439 -0.1127  0.9960
  554MOL0     O73004   4.460   9.563   1.302 -0.4528  0.3328  0.4547
  554MOL0     C73005   4.344   9.645   1.314  0.1617 -0.0101  0.2027
  554MOL0     C73006   4.295   9.649   1.456  0.5732 -0.0508  0.4941
  554MOL0     C73007   4.185   9.758   1.463  0.2323 -0.1543 -0.3545
  554MOL0     C73008   4.157   9.780   1.611  0.0406  1.1292 -0.4548
  554MOL0     C73009   4.055   9.891   1.646  0.2073 -0.5796  0.1271
  554MOL0     C73010   3.916   9.865   1.586 -0.1114 -0.7191 -0.1363
  554MOL0     C73011   3.817   9.976   1.614  0.5884 -0.7990  1.0491
  554MOL0     C73012   3.676   9.930   1.576  0.3305 -0.3883 -0.3956
  554MOL0     N73013   3.569  10.019   1.609  0.2349 -0.2696 -0.4599
  554MOL0     C73014   3.483   9.990   1.712  0.0873  0.1809 -0.0809
  554MOL0     C73015   3.426  10.108   1.739  0.2441  0.0895 -0.1866
  554MOL0     C73016   3.301  10.102   1.822 -0.5128  0.6270 -1.1475
  554MOL0     C73017   3.176  10.109   1.734 -0.1723 -0.2124  0.3087
  554MOL0     C73018   3.051  10.076   1.819  0.0488 -0.4999 -0.7815
  554MOL0     C73019   2.918  10.076   1.753  0.4558 -0.4909  0.5249
  554MOL0     O73020   2.890  10.210   1.717 -0.0758  0.2951  0.2542
  554MOL0     C73021   2.792  10.246   1.621 -0.3481 -0.1189 -1.3570
  554MOL0     C73022   2.693  10.148   1.590  0.1255 -0.5937  0.0107
  554MOL0     C73023   2.577  10.194   1.519  0.2110 -0.2249  1.8657
  554MOL0     C73024   2.566  10.324   1.479  0.0525  0.5879  0.3690
  554MOL0     C73025   2.456  10.376   1.395 -0.1878 -0.4853  1.3594
  554MOL0     O73026   2.443  10.518   1.407 -0.0598 -0.0237 -0.3092
  554MOL0     C73027   2.334  10.572   1.345  0.7162 -0.1955 -0.6923
  554MOL0     C73028   2.209  10.525   1.370  0.1817 -0.4713 -0.9661
  554MOL0     C73029   2.097  10.602   1.316 -0.2046  0.9719 -1.0186
  554MOL0     C73030   2.118  10.717   1.251 -0.2865 -0.1795  0.3675
  554MOL0     O73031   2.002  10.775   1.208 -0.0839 -0.2538  0.6077
  554MOL0     C73032   2.004  10.897   1.131  0.7668  1.1136  0.0177
  554MOL0     C73033   1.856  10.937   1.104  0.0271 -0.0776  0.5457
  554MOL0     C73034   1.778  10.831   1.027 -0.3336  0.3378 -1.1952
  554MOL0     C73035   1.702  10.735   1.124 -0.5048 -0.2753 -0.8173
  554MOL0     C73036   1.693  10.592   1.081 -0.1364 -0.1657  0.5138
  554MOL0     C73037   1.557  10.544   1.139  0.1881 -0.8536  0.9681
  554MOL0     C73038   1.552  10.387   1.135 -0.2862 -0.2667  0.0352
  554MOL0     C73039   1.414  10.343   1.174 -0.0459  0.7870  0.2290
  554MOL0    Cl73040   1.286  10.389   1.068  0.2203 -0.2062 -0.2410
  554MOL0     C73041   2.244  10.775   1.244 -0.2088  0.0758 -0.3745
  554MOL0     C73042   2.355  10.698   1.288  0.5430  1.0315 -0.0270
  554MOL0     O73043   2.388  10.303   1.317  1.0983  0.6311  0.4346
  554MOL0     C73044   2.669  10.411   1.502  0.6795 -0.6265 -0.4928
  554MOL0     C73045   2.777  10.373   1.580  0.1274 -0.6930 -0.7077
  554MOL0     N73046   3.474  10.209   1.663 -0.4805 -0.0473 -0.3282
  554MOL0     N73047   3.564  10.160   1.585  0.5275  0.8321 -1.1989
  554MOL0     C73048   4.523   9.629   1.068 -0.5991  0.4475  0.7020
  554MOL0     C73049   4.614   9.626   0.964 -0.3018 -0.5736  0.5770
  554MOL0     C73050   5.013   9.515   0.729 -0.0813  0.0229  0.2942
  554MOL0     C73051   4.937   9.562   0.614  0.4608 -0.0408 -0.7840
  554MOL0     C73052   4.994   9.568   0.497 -0.7078 -0.2199  0.2286
  554MOL0     C73053   5.126   9.522   0.475  0.8303  0.2342  0.1851
  554MOL0     O73054   5.163   9.532   0.346  0.1162 -0.2100  0.2497
  554MOL0     C73055   5.302   9.519   0.318  0.1857 -0.4573  0.0495
  554MOL0     C73056   5.314   9.567   0.182 -0.1280  0.0011 -0.2906
  554MOL0     C73057   5.462   9.540   0.131  0.6792  0.4720  1.0548
  554MOL0     C73058   5.503   9.598  -0.008  0.8312  0.1760  0.0962
  554MOL0     C73059   5.401   9.560  -0.109 -0.5064  1.0858  0.5682
  554MOL0     C73060   5.321   9.535  -0.193  0.7426  0.1997  0.1612
  554MOL0     C73061   5.204   9.471   0.579  0.3825  0.2212 -0.2610
  554MOL0     C73062   5.151   9.479   0.710 -0.0585  0.5545 -0.8992
  554MOL0     H73063   4.868   9.473   1.122  0.5887 -0.2507 -1.9537
  554MOL0     H73064   4.695   9.466   1.303 -1.9810  1.8632  1.7655
  554MOL0     H73065   4.262   9.606   1.252  0.8548  2.0574 -2.2041
  554MOL0     H73066   4.379   9.744   1.281 -0.0657 -0.6450 -2.1215
  554MOL0     H73067   4.380   9.667   1.523  0.8144 -3.0851  1.1770
  554MOL0     H73068   4.250   9.552   1.480  0.1772  0.0683  0.2276
  554MOL0     H73069   4.096   9.723   1.410  1.2709 -0.8848 -1.6670
  554MOL0     H73070   4.213   9.853   1.415  0.9597 -1.5301 -2.8378
  554MOL0     H73071   4.134   9.685   1.660 -0.0907  0.8743 -1.0010
  554MOL0     H73072   4.254   9.806   1.655  0.1900  0.6417 -0.4852
  554MOL0     H73073   4.091   9.984   1.601 -0.7842 -0.2013  0.0943
  554MOL0     H73074   4.059   9.901   1.754 -0.0018 -0.4855  0.1262
  554MOL0     H73075   3.891   9.767   1.628  2.6358 -1.9244 -1.1210
  554MOL0     H73076   3.911   9.852   1.477 -2.9292 -0.4467 -0.1188
  554MOL0     H73077   3.813   9.998   1.722 -0.5689  2.9557  0.3834
  554MOL0     H73078   3.826  10.070   1.559 -1.0890 -2.0815 -1.6401
  554MOL0     H73079   3.674   9.840   1.638  2.3070  0.3747  0.9003
  554MOL0     H73080   3.670   9.918   1.467  1.6784  0.9363 -0.6482
  554MOL0     H73081   3.459   9.891   1.749 -2.4715 -0.2291 -2.5152
  554MOL0     H73082   3.295  10.186   1.891 -1.2443 -0.5907  0.3457
  554MOL0     H73083   3.311  10.010   1.882  0.2738  0.1836 -1.9417
  554MOL0     H73084   3.179  10.038   1.651 -1.9481  0.4936 -0.4041
  554MOL0     H73085   3.176  10.203   1.678 -2.9665 -0.9470 -1.1074
  554MOL0     H73086   3.078   9.983   1.871  2.0572 -1.0641 -2.6601
  554MOL0     H73087   3.042  10.159   1.888 -4.5660 -2.1477  0.9420
  554MOL0     H73088   2.839  10.040   1.819 -0.6689 -1.0459 -1.0381
  554MOL0     H73089   2.920  10.024   1.656 -0.3152  1.9579 -0.9064
  554MOL0     H73090   2.689  10.043   1.616 -1.3933 -0.6815 -0.4500
  554MOL0     H73091   2.501  10.119   1.501 -0.0501  0.5924 -0.9518
  554MOL0     H73092   2.207  10.433   1.429  0.9170 -0.1339 -0.4027
  554MOL0     H73093   2.001  10.552   1.320  0.8476 -1.0735  0.5421
  554MOL0     H73094   2.066  10.882   1.042  1.4317  3.1156  0.0786
  554MOL0     H73095   2.057  10.975   1.187  1.8567  1.0996 -0.9591
  554MOL0     H73096   1.850  11.028   1.045  2.1031 -3.1261 -5.1318
  554MOL0     H73097   1.797  10.960   1.193 -0.5559 -0.2355  0.2057
  554MOL0     H73098   1.850  10.774   0.969  1.2210 -0.5773  1.4597
  554MOL0     H73099   1.701  10.875   0.963 -3.3650  0.4771  2.1603
  554MOL0     H73100   1.748  10.730   1.223 -2.0786 -1.2551 -0.0933
  554MOL0     H73101   1.603  10.778   1.143  1.1850  2.7119  2.1894
  554MOL0     H73102   1.770  10.528   1.124 -1.6475 -1.0513  2.0883
  554MOL0     H73103   1.689  10.580   0.973 -1.6175  0.0399  0.5189
  554MOL0     H73104   1.482  10.587   1.072 -1.2256 -1.2023  2.2640
  554MOL0     H73105   1.535  10.574   1.241 -0.8473  0.7648  0.2976
  554MOL0     H73106   1.561  10.351   1.033 -3.5496  0.6125 -0.6976
  554MOL0     H73107   1.622  10.340   1.204 -0.2338 -0.5419 -0.2062
  554MOL0     H73108   1.375  10.369   1.273 -3.5304  0.8865 -1.0391
  554MOL0     H73109   1.416  10.235   1.162 -2.3848  0.6549  0.6059
  554MOL0     H73110   2.267  10.872   1.202  3.3556 -0.4490  0.0005
  554MOL0     H73111   2.461  10.712   1.269  0.4496  1.3657 -0.2936
  554MOL0     H73112   2.642  10.511   1.470 -4.2482 -1.3575  0.6911
  554MOL0     H73113   2.841  10.458   1.603  0.2257 -1.5266  2.6075
  554MOL0     H73114   4.423   9.662   1.041 -1.2205 -2.4411 -0.9195
  554MOL0     H73115   4.600   9.663   0.863 -0.2258 -1.3999  0.2557
  554MOL0     H73116   4.830   9.577   0.628  0.7943  0.0130  2.4315
  554MOL0     H73117   4.933   9.604   0.415 -0.5467  1.4407  0.8072
  554MOL0     H73118   5.334   9.415   0.330  0.9583 -0.9486 -4.5778
  554MOL0     H73119   5.365   9.574   0.389  0.7797  0.8879 -1.4422
  554MOL0     H73120   5.243   9.505   0.126 -0.8284  0.0357  0.5473
  554MOL0     H73121   5.291   9.673   0.166  1.4270  0.7318  1.8184
  554MOL0     H73122   5.480   9.433   0.124  0.0604  0.4017  0.3946
  554MOL0     H73123   5.526   9.594   0.202 -0.9897  0.6631  2.5040
  554MOL0     H73124   5.506   9.707  -0.001  0.9888  0.0678  2.6413
  554MOL0     H73125   5.604   9.562  -0.027  0.0008 -1.2434 -2.0741
  554MOL0     H73126   5.231   9.526  -0.250  0.0883  0.5643  1.1066
  554MOL0     H73127   5.306   9.433   0.581  0.1525 -0.5255 -1.8198
  554MOL0     H73128   5.212   9.448   0.794  0.9377  3.8717 -0.2552
  555MOL0     O73129  10.751   4.892  11.116 -0.3217 -0.0113 -0.2012
  555MOL0     C73130  10.743   4.798  11.196  0.0622 -0.1547  0.4607
  555MOL0     O73131  10.842   4.763  11.275 -0.5917 -0.7984 -0.2984
  555MOL0     C73132  10.960   4.818  11.262  0.9609 -0.7234  0.7485
  555MOL0     C73133  11.042   4.757  11.169  0.2503 -0.7825  0.5449
  555MOL0     C73134  11.170   4.810  11.146  1.0865 -0.1937  0.8879
  555MOL0     C73135  11.208   4.931  11.204  0.8589 -0.5314 -0.2083
  555MOL0     O73136  11.340   4.967  11.204 -0.0388 -0.0447  0.5560
  555MOL0     C73137  11.404   5.086  11.245  0.0030 -0.8282 -0.3240
  555MOL0     C73138  11.541   5.052  11.249 -0.6575 -0.7030 -0.0292
  555MOL0     C73139  11.577   4.939  11.350  0.6129 -0.6399  0.0368
  555MOL0     C73140  11.734   4.911  11.354  0.8758  0.2719  0.3320
  555MOL0     C73141  11.769   4.809  11.466 -0.1704  0.5538  0.3227
  555MOL0     C73142  11.743   4.655  11.425  0.8618  0.3758 -0.1867
  555MOL0     C73143  11.859   4.613  11.333  0.1661  0.1211 -0.4556
  555MOL0     C73144  11.955   4.524  11.410  0.5774  1.1574  0.6246
  555MOL0     N73145  12.073   4.488  11.335  0.2806  0.5226  0.6024
  555MOL0     C73146  12.133   4.363  11.335 -0.4013  0.2325  0.0716
  555MOL0     C73147  12.234   4.373  11.241  0.2348  0.1040  0.0228
  555MOL0     C73148  12.314   4.255  11.207 -0.2122  0.7334 -0.6903
  555MOL0     C73149  12.219   4.152  11.135  0.2594 -0.0850  0.4427
  555MOL0     C73150  12.291   4.018  11.111  0.1732  0.2351  0.1906
  555MOL0     C73151  12.381   4.030  10.980  0.0897 -0.1481 -0.1887
  555MOL0     O73152  12.431   3.900  10.934 -0.2906  0.0624 -0.7644
  555MOL0     C73153  12.496   3.896  10.812  0.3191 -0.2181 -0.8400
  555MOL0     C73154  12.567   4.000  10.763  0.4826 -0.1882  0.3696
  555MOL0     C73155  12.620   3.995  10.633  0.5135  0.0395  0.1569
  555MOL0     C73156  12.606   3.869  10.553 -0.5296 -0.7423 -0.1526
  555MOL0     C73157  12.663   3.861  10.416  0.9957 -0.5334  0.8040
  555MOL0     O73158  12.671   3.984  10.350 -0.7314 -0.1927 -0.1661
  555MOL0     C73159  12.680   3.999  10.207 -0.0162 -0.6779  0.4151
  555MOL0     C73160  12.686   3.899  10.101  0.7474  0.0545  0.5812
  555MOL0     C73161  12.679   3.938   9.964 -0.5314 -0.0642  0.2438
  555MOL0     C73162  12.654   4.071   9.929 -0.1889 -0.4410  0.5511
  555MOL0     O73163  12.641   4.106   9.793 -0.2303  0.6632  0.1964
  555MOL0     C73164  12.705   4.017   9.703  0.0731  0.5162  0.7963
  555MOL0     C73165  12.720   4.101   9.573 -0.4701 -0.0218 -0.2561
  555MOL0     C73166  12.771   4.014   9.465  0.4427 -0.3346  0.5649
  555MOL0     C73167  12.805   4.097   9.336  0.4141 -0.3200  0.5850
  555MOL0     C73168  12.893   4.021   9.232  0.9463  0.2183 -0.8795
  555MOL0     C73169  12.934   4.077   9.094 -0.5273 -0.2155 -0.2876
  555MOL0     C73170  13.030   4.195   9.114 -0.0353 -0.2690  0.0677
  555MOL0     C73171  13.139   4.199   9.006  0.1159  0.1266  1.3246
  555MOL0    Cl73172  13.071   4.216   8.835  0.1107 -0.0663  0.6191
  555MOL0     C73173  12.647   4.168  10.029 -0.2096  0.9141  0.2470
  555MOL0     C73174  12.669   4.134  10.165 -0.0179  1.0171 -0.1707
  555MOL0     O73175  12.667   3.751  10.359 -0.1710  0.1396  0.2756
  555MOL0     C73176  12.544   3.760  10.616  0.7849  0.9713 -0.2034
  555MOL0     C73177  12.487   3.774  10.744 -0.5459  0.3710  0.1541
  555MOL0     N73178  12.243   4.506  11.202  0.4092  0.0824  0.6189
  555MOL0     N73179  12.154   4.580  11.266 -0.1629  0.2757 -0.2651
  555MOL0     C73180  11.117   4.996  11.289  0.1154 -0.6517  0.2398
  555MOL0     C73181  10.996   4.933  11.325 -0.8142 -0.0707 -0.7243
  555MOL0     C73182  10.620   4.717  11.209 -0.1473  1.2157  0.0161
  555MOL0     C73183  10.621   4.612  11.302  0.2388  0.4660 -0.5449
  555MOL0     C73184  10.508   4.532  11.319 -0.1028  0.0182  0.6894
  555MOL0     C73185  10.395   4.560  11.243  0.4205 -0.4918 -0.5863
  555MOL0     O73186  10.276   4.481  11.255  0.4712  0.6433  0.3092
  555MOL0     C73187  10.267   4.364  11.339 -0.0122 -1.1400  0.8411
  555MOL0     C73188  10.228   4.420  11.478 -0.0709  0.3069  0.2311
  555MOL0     C73189  10.203   4.307  11.574 -0.7558  0.2956  0.2563
  555MOL0     C73190  10.345   4.262  11.636  0.2084  0.9602 -0.9714
  555MOL0     C73191  10.324   4.126  11.688 -0.3454  0.1311  0.1009
  555MOL0     C73192  10.300   4.013  11.740 -1.0527  0.4419 -0.6513
  555MOL0     C73193  10.397   4.665  11.149  0.2919  0.9529 -0.3042
  555MOL0     C73194  10.506   4.745  11.133  0.4290  0.4864 -0.1924
  555MOL0     H73195  11.012   4.669  11.113 -0.1049  0.3243 -1.0847
  555MOL0     H73196  11.248   4.761  11.089  1.7863  1.9949 -0.1536
  555MOL0     H73197  11.364   5.121  11.340 -1.1879 -2.7622 -0.0662
  555MOL0     H73198  11.377   5.163  11.172 -1.4587  1.5632  2.5212
  555MOL0     H73199  11.601   5.133  11.292  0.5709 -1.1287 -0.8888
  555MOL0     H73200  11.575   5.025  11.149  0.4479  0.2593  0.0631
  555MOL0     H73201  11.514   4.853  11.326 -3.3217  0.8291  3.7856
  555MOL0     H73202  11.538   4.969  11.447  0.4792 -0.7920  0.0302
  555MOL0     H73203  11.755   4.865  11.257 -3.7239 -2.0892  0.1627
  555MOL0     H73204  11.795   5.001  11.365 -2.6982  3.0546 -0.6046
  555MOL0     H73205  11.716   4.822  11.561  1.2547  1.8427  0.9942
  555MOL0     H73206  11.876   4.815  11.489 -0.4232  1.7147  1.3308
  555MOL0     H73207  11.648   4.659  11.372  0.3267  0.4842  0.7587
  555MOL0     H73208  11.730   4.596  11.517 -4.1800  0.2418 -0.7136
  555MOL0     H73209  11.814   4.560  11.249 -0.7423  1.1299 -0.6252
  555MOL0     H73210  11.905   4.703  11.290  1.9591 -0.5344 -0.0259
  555MOL0     H73211  11.891   4.441  11.443  1.6855  0.8628  2.1326
  555MOL0     H73212  11.990   4.576  11.499  2.3468 -0.6682  1.0653
  555MOL0     H73213  12.106   4.284  11.404 -0.8149 -0.4388 -0.8530
  555MOL0     H73214  12.350   4.206  11.297  0.5857 -0.4323 -1.6100
  555MOL0     H73215  12.401   4.290  11.151  3.3886 -2.5627  2.3193
  555MOL0     H73216  12.186   4.205  11.045 -0.6152 -2.6037 -0.8080
  555MOL0     H73217  12.135   4.125  11.200 -0.5974 -2.7904 -1.5875
  555MOL0     H73218  12.340   3.993  11.206  0.2556 -3.1952 -0.6332
  555MOL0     H73219  12.225   3.932  11.103  0.5116 -0.1063  0.9952
  555MOL0     H73220  12.462   4.099  11.008 -2.0738  1.5893  2.2471
  555MOL0     H73221  12.321   4.079  10.903 -0.5726 -2.8112 -1.4985
  555MOL0     H73222  12.574   4.092  10.820  0.0978  0.1577 -0.1300
  555MOL0     H73223  12.668   4.086  10.600  1.5865 -0.2346  0.9184
  555MOL0     H73224  12.701   3.794  10.124 -2.2620 -1.4946 -3.3212
  555MOL0     H73225  12.679   3.858   9.891  1.6128 -1.0376  1.2077
  555MOL0     H73226  12.636   3.933   9.689 -1.8556  1.3382  4.1075
  555MOL0     H73227  12.804   3.982   9.732  0.7604  0.0871 -1.8398
  555MOL0     H73228  12.791   4.182   9.592  0.3208 -1.0240  1.2891
  555MOL0     H73229  12.643   4.171   9.539  2.2267  2.5264 -1.5630
  555MOL0     H73230  12.691   3.942   9.448  0.7983 -1.5430  3.5041
  555MOL0     H73231  12.859   3.957   9.497  1.6938  1.4238  0.4275
  555MOL0     H73232  12.713   4.124   9.283  0.9130  0.5131  0.1222
  555MOL0     H73233  12.866   4.181   9.370  1.8048 -0.4297 -1.4567
  555MOL0     H73234  12.837   3.929   9.213  0.8444  0.4928 -1.9895
  555MOL0     H73235  12.982   3.982   9.281  1.1005  2.6482  0.9868
  555MOL0     H73236  12.847   4.105   9.034 -1.7302 -0.5061  1.2515
  555MOL0     H73237  12.980   3.995   9.038  1.5119  2.3136 -2.6093
  555MOL0     H73238  12.962   4.280   9.102 -1.6548 -1.3240  1.2555
  555MOL0     H73239  13.082   4.192   9.210  1.3273  2.9125 -0.4381
  555MOL0     H73240  13.211   4.117   9.009  1.3782  0.9823 -1.7695
  555MOL0     H73241  13.201   4.288   9.016  0.1791  0.3267 -0.5300
  555MOL0     H73242  12.636   4.267   9.987 -0.7398 -0.1976 -2.5009
  555MOL0     H73243  12.663   4.216  10.235  0.6604  0.5545  0.4380
  555MOL0     H73244  12.527   3.665  10.566 -0.1112 -0.6445  2.8703
  555MOL0     H73245  12.418   3.698  10.779  0.3572 -0.8597 -0.5987
  555MOL0     H73246  11.144   5.088  11.340 -2.3168  0.6996 -0.7632
  555MOL0     H73247  10.932   4.981  11.398  1.9259  0.2768  1.6290
  555MOL0     H73248  10.712   4.594  11.358 -1.1388 -1.3360  1.3210
  555MOL0     H73249  10.510   4.460  11.400 -0.1976  0.5197  1.1397
  555MOL0     H73250  10.355   4.301  11.352  1.5375  0.7903  0.2644
  555MOL0     H73251  10.175   4.310  11.314 -0.6049  0.5760 -0.9429
  555MOL0     H73252  10.309   4.487  11.507  4.0380 -3.2450 -1.8611
  555MOL0     H73253  10.138   4.482  11.470 -0.8785 -0.9753 -1.2994
  555MOL0     H73254  10.142   4.228  11.529 -0.1586  1.3340 -2.6021
  555MOL0     H73255  10.145   4.348  11.658  0.9697  1.3782  0.9708
  555MOL0     H73256  10.423   4.246  11.560 -1.0179  1.0077 -2.2984
  555MOL0     H73257  10.376   4.330  11.715  0.2748 -1.5651  1.2894
  555MOL0     H73258  10.265   3.918  11.775  0.5972  0.3608  0.9348
  555MOL0     H73259  10.303   4.677  11.096 -0.5406  0.4969  1.0272
  555MOL0     H73260  10.515   4.822  11.057 -2.2523 -0.6778 -1.8596
  556MOL0     O73261  11.020   2.376   0.479  0.0009 -0.1466  0.1769
  556MOL0     C73262  11.017   2.494   0.526  0.0268  0.9564  0.3953
  556MOL0     O73263  11.123   2.560   0.577  0.3657 -0.2710  0.3413
  556MOL0     C73264  11.250   2.524   0.529  0.2201 -0.1819  0.7418
  556MOL0     C73265  11.352   2.471   0.615 -0.1307 -0.8771 -0.4039
  556MOL0     C73266  11.489   2.455   0.571  0.4733 -0.2106 -0.1431
  556MOL0     C73267  11.520   2.514   0.449 -0.2068 -0.5792  0.1131
  556MOL0     O73268  11.648   2.541   0.417 -0.6685  0.7752 -0.5927
  556MOL0     C73269  11.698   2.671   0.465  1.2055 -0.5257  0.2250
  556MOL0     C73270  11.820   2.679   0.561  0.1669  0.9717 -0.2909
  556MOL0     C73271  11.949   2.609   0.514  0.4305 -0.1869  0.3515
  556MOL0     C73272  12.056   2.716   0.478 -0.5780 -0.5159 -0.1620
  556MOL0     C73273  12.180   2.642   0.446  0.6144 -0.1239 -0.1255
  556MOL0     C73274  12.281   2.728   0.373 -0.2339  0.0017 -1.0804
  556MOL0     C73275  12.405   2.639   0.353 -0.2383  0.8097  0.1787
  556MOL0     C73276  12.425   2.599   0.200 -0.3531  0.3429 -0.7379
  556MOL0     N73277  12.344   2.484   0.154 -0.5617  0.3339 -0.3234
  556MOL0     C73278  12.314   2.368   0.227 -0.2394  1.2051  0.4640
  556MOL0     C73279  12.232   2.298   0.154  0.3334  0.1669  0.6276
  556MOL0     C73280  12.173   2.168   0.206  0.1770  0.4141 -0.1430
  556MOL0     C73281  12.034   2.182   0.265 -0.1552  0.1204  0.1328
  556MOL0     C73282  12.026   2.236   0.407 -0.0854 -0.2228  0.3528
  556MOL0     C73283  12.063   2.124   0.511 -0.5216  0.0621  1.0206
  556MOL0     O73284  12.073   2.189   0.638 -0.7724 -0.3180  1.1465
  556MOL0     C73285  11.950   2.204   0.702 -0.5558  0.3522 -1.2557
  556MOL0     C73286  11.819   2.166   0.655  0.9074 -0.1561  0.2215
  556MOL0     C73287  11.709   2.155   0.732  0.8907 -0.1402 -0.0364
  556MOL0     C73288  11.719   2.179   0.870 -0.8537 -0.3850 -0.5779
  556MOL0     C73289  11.610   2.183   0.963  0.3844 -0.0061  0.1475
  556MOL0     O73290  11.631   2.211   1.097 -1.1433  0.1659 -0.4324
  556MOL0     C73291  11.517   2.216   1.174  0.1385 -0.8239 -0.8284
  556MOL0     C73292  11.398   2.283   1.151  0.9213 -0.5714  0.7149
  556MOL0     C73293  11.292   2.282   1.238  0.9513 -0.2625 -0.8021
  556MOL0     C73294  11.299   2.207   1.360  0.6117 -0.1709  0.1587
  556MOL0     O73295  11.203   2.201   1.457  0.7892  0.5776 -0.0923
  556MOL0     C73296  11.088   2.284   1.440  0.0761  0.1334 -0.2505
  556MOL0     C73297  11.001   2.294   1.566  0.2570 -0.0025 -0.3644
  556MOL0     C73298  10.868   2.363   1.548  0.0520  0.7086 -0.9695
  556MOL0     C73299  10.868   2.513   1.510  0.5454 -0.6854 -0.1539
  556MOL0     C73300  10.938   2.596   1.615 -0.0775  0.8033 -0.0084
  556MOL0     C73301  10.881   2.590   1.758 -0.2659 -0.9154  0.3423
  556MOL0     C73302  10.732   2.620   1.777  0.1179  0.7027  0.1540
  556MOL0     C73303  10.717   2.634   1.927 -0.4873 -0.0416  0.6560
  556MOL0    Cl73304  10.547   2.673   1.953  0.1289  0.2823 -0.3809
  556MOL0     C73305  11.416   2.138   1.390  0.2747 -0.8730 -0.3741
  556MOL0     C73306  11.520   2.142   1.292  0.0577  1.0833 -0.6855
  556MOL0     O73307  11.497   2.173   0.912  0.1308 -0.0826 -0.1382
  556MOL0     C73308  11.845   2.209   0.919 -0.1964  0.0060  0.8043
  556MOL0     C73309  11.964   2.227   0.838  0.8321  0.3007  0.4396
  556MOL0     N73310  12.188   2.387   0.051 -0.0724 -0.0583  0.2901
  556MOL0     N73311  12.257   2.495   0.052  0.8729 -0.6029  0.2486
  556MOL0     C73312  11.421   2.564   0.365 -0.2824 -0.2474  0.0249
  556MOL0     C73313  11.291   2.565   0.399  0.0134  0.5297 -0.0488
  556MOL0     C73314  10.895   2.567   0.532 -0.0643 -0.2855  0.7796
  556MOL0     C73315  10.777   2.517   0.473  0.3869  0.4375 -0.0909
  556MOL0     C73316  10.655   2.583   0.479  0.0088  0.3971  0.5234
  556MOL0     C73317  10.635   2.701   0.547  0.6265 -0.3381 -0.3501
  556MOL0     O73318  10.510   2.772   0.543 -0.5127 -0.0578 -0.9590
  556MOL0     C73319  10.404   2.723   0.476 -0.7133 -0.0232  0.1883
  556MOL0     C73320  10.285   2.777   0.552  0.1973  0.6307  0.2292
  556MOL0     C73321  10.151   2.719   0.478 -0.3367 -0.6427 -0.5461
  556MOL0     C73322  10.019   2.778   0.534  0.4263 -0.2666  0.4517
  556MOL0     C73323  10.009   2.922   0.504 -0.8498 -0.2656 -0.2213
  556MOL0     C73324   9.998   3.036   0.469 -0.5175 -0.2506 -0.2835
  556MOL0     C73325  10.750   2.748   0.619 -0.1630  0.2622 -0.4096
  556MOL0     C73326  10.874   2.688   0.602  0.5454 -0.2157 -0.3819
  556MOL0     H73327  11.319   2.427   0.709 -0.9599  0.6837  0.0818
  556MOL0     H73328  11.572   2.425   0.634  0.1103  0.5492  0.7103
  556MOL0     H73329  11.612   2.709   0.521 -0.3465 -2.8256 -0.4684
  556MOL0     H73330  11.723   2.734   0.380  6.1453 -1.7247  0.5103
  556MOL0     H73331  11.788   2.619   0.647  0.8303 -2.1908 -2.0869
  556MOL0     H73332  11.839   2.780   0.598  1.7730  0.9313 -0.9424
  556MOL0     H73333  11.924   2.550   0.424 -1.3399  0.7987  0.1388
  556MOL0     H73334  11.990   2.544   0.592  0.3576  2.7286  2.9951
  556MOL0     H73335  12.034   2.777   0.390  1.0380  0.1812 -0.1329
  556MOL0     H73336  12.073   2.776   0.568  2.1786 -2.6579  0.8898
  556MOL0     H73337  12.161   2.558   0.378 -2.3407 -0.4986  1.0240
  556MOL0     H73338  12.211   2.612   0.546  0.9909  0.0236 -0.1970
  556MOL0     H73339  12.312   2.811   0.438 -1.1034 -0.5227  0.0350
  556MOL0     H73340  12.246   2.780   0.283 -0.8672  0.7767 -0.4044
  556MOL0     H73341  12.477   2.709   0.395  0.1790  1.2270 -1.1798
  556MOL0     H73342  12.414   2.549   0.415  1.7430  0.8275  0.0086
  556MOL0     H73343  12.528   2.566   0.181 -0.6727 -1.5681  0.4901
  556MOL0     H73344  12.401   2.681   0.133 -3.5711  1.7851  1.8780
  556MOL0     H73345  12.356   2.346   0.324  0.6263  1.7219  0.2276
  556MOL0     H73346  12.236   2.109   0.272  0.5176  1.4878  0.5281
  556MOL0     H73347  12.157   2.112   0.114 -1.7874 -0.2130  0.5278
  556MOL0     H73348  11.986   2.085   0.277  2.4566 -1.3720 -0.6294
  556MOL0     H73349  11.968   2.240   0.201 -2.1687 -3.4068 -1.2424
  556MOL0     H73350  12.088   2.326   0.400 -1.3760  0.6089 -0.9885
  556MOL0     H73351  11.923   2.269   0.421 -0.1308 -0.1944 -0.0518
  556MOL0     H73352  12.152   2.082   0.464 -1.0721 -0.9949  0.8949
  556MOL0     H73353  11.987   2.046   0.507  1.2340 -1.7977  2.2221
  556MOL0     H73354  11.797   2.140   0.552 -1.2070 -0.5676  0.7391
  556MOL0     H73355  11.615   2.139   0.681  2.0379  2.5054 -3.3148
  556MOL0     H73356  11.392   2.340   1.059 -2.6665 -2.5277 -0.4495
  556MOL0     H73357  11.209   2.349   1.220 -0.4988 -1.6770  0.3915
  556MOL0     H73358  11.033   2.249   1.352 -1.2184  0.3691  0.4376
  556MOL0     H73359  11.112   2.384   1.405  0.5957  0.1198  0.0657
  556MOL0     H73360  11.056   2.351   1.642 -1.1750 -0.2683  0.9314
  556MOL0     H73361  10.988   2.193   1.605  1.6681 -1.0767 -2.5037
  556MOL0     H73362  10.807   2.357   1.638  0.1838  0.4425 -0.8980
  556MOL0     H73363  10.805   2.311   1.475  3.1591 -1.4638 -2.3420
  556MOL0     H73364  10.905   2.534   1.409  0.6606  2.1904  0.4260
  556MOL0     H73365  10.764   2.542   1.497  1.2454  2.4515  0.5767
  556MOL0     H73366  10.916   2.698   1.581  1.0512  1.0756  0.0289
  556MOL0     H73367  11.045   2.572   1.618 -0.4537 -1.0445 -0.4996
  556MOL0     H73368  10.931   2.664   1.821 -3.4400  1.6831  0.0691
  556MOL0     H73369  10.917   2.498   1.804 -0.3809  0.1073  2.6237
  556MOL0     H73370  10.703   2.711   1.723  0.6647  0.0032 -1.3742
  556MOL0     H73371  10.678   2.531   1.744  2.7345 -2.1232  2.8771
  556MOL0     H73372  10.781   2.713   1.967  0.9745 -1.0238  0.3561
  556MOL0     H73373  10.750   2.541   1.975 -0.3707 -0.2902  0.0903
  556MOL0     H73374  11.425   2.089   1.486 -0.0967  1.0401  0.6907
  556MOL0     H73375  11.613   2.086   1.292 -0.2320  0.5613 -1.9995
  556MOL0     H73376  11.867   2.234   1.023  2.3882 -0.1504  0.3734
  556MOL0     H73377  12.051   2.253   0.896 -0.4328 -0.2571  2.7441
  556MOL0     H73378  11.449   2.607   0.270  0.8361  0.7616  0.7852
  556MOL0     H73379  11.216   2.614   0.338 -1.7451  2.9349  3.6186
  556MOL0     H73380  10.766   2.417   0.434  1.3391 -0.1854  1.1863
  556MOL0     H73381  10.568   2.531   0.439 -1.6508  1.6921  2.2913
  556MOL0     H73382  10.399   2.614   0.466  0.2072 -0.2293  1.7761
  556MOL0     H73383  10.405   2.759   0.372 -0.9149  1.5403  0.7092
  556MOL0     H73384  10.297   2.757   0.659  0.8168 -0.6380 -0.0541
  556MOL0     H73385  10.277   2.883   0.527 -0.3480 -0.4287 -5.4768
  556MOL0     H73386  10.153   2.611   0.497 -0.9545 -0.6365 -0.4255
  556MOL0     H73387  10.157   2.733   0.370 -2.8744  2.0112 -0.4447
  556MOL0     H73388   9.932   2.733   0.483 -1.0759  1.7804  1.0670
  556MOL0     H73389  10.002   2.750   0.638 -2.7440 -0.4318  0.0099
  556MOL0     H73390  10.013   3.137   0.436  2.7479 -1.3768 -2.7764
  556MOL0     H73391  10.734   2.826   0.693  0.0630 -2.4667  2.7418
  556MOL0     H73392  10.955   2.745   0.647  1.0905 -0.1326 -1.4461
  557MOL0     O73393   6.613   0.343   6.223  1.0685 -0.2082 -0.1684
  557MOL0     C73394   6.585   0.354   6.338  0.1931 -0.0637  0.3114
  557MOL0     O73395   6.662   0.415   6.432 -0.0561  0.0284  0.3269
  557MOL0     C73396   6.799   0.413   6.396  0.3531 -0.3293 -0.0942
  557MOL0     C73397   6.874   0.300   6.361  0.3168 -0.0033  0.7916
  557MOL0     C73398   7.013   0.297   6.346 -0.2325 -0.0163 -0.2235
  557MOL0     C73399   7.082   0.421   6.359  0.6218  0.1456 -0.0188
  557MOL0     O73400   7.215   0.445   6.355 -0.5088 -0.2897  0.2738
  557MOL0     C73401   7.306   0.340   6.335 -1.0428  0.1704  0.8228
  557MOL0     C73402   7.452   0.385   6.334  0.0598 -0.9038  0.2752
  557MOL0     C73403   7.482   0.474   6.216 -1.2296 -0.7457  0.1814
  557MOL0     C73404   7.608   0.569   6.243 -0.6598  0.4773 -0.2521
  557MOL0     C73405   7.653   0.650   6.109 -0.0163 -0.3972 -0.2338
  557MOL0     C73406   7.804   0.686   6.087 -0.8016  0.3032 -0.9388
  557MOL0     C73407   7.902   0.567   6.090  0.3582 -0.1954  1.6313
  557MOL0     C73408   7.882   0.464   5.976  0.6014 -0.5958 -0.5841
  557MOL0     N73409   7.914   0.328   6.028 -0.4149  0.4928 -0.0622
  557MOL0     C73410   7.879   0.269   6.142  0.0374  0.8609  0.4506
  557MOL0     C73411   7.933   0.147   6.127  1.3499  0.4158 -0.1892
  557MOL0     C73412   7.935   0.043   6.236 -0.2444  0.3198 -0.0372
  557MOL0     C73413   8.044   0.080   6.343 -0.6576  0.6511 -0.2787
  557MOL0     C73414   8.021  -0.026   6.456  0.3885 -0.2355  0.3314
  557MOL0     C73415   8.156  -0.102   6.471  0.6642 -0.1221  0.7064
  557MOL0     O73416   8.197  -0.153   6.339  0.3256  0.0909 -0.6961
  557MOL0     C73417   8.326  -0.136   6.302 -0.1334 -0.2768 -0.2965
  557MOL0     C73418   8.429  -0.162   6.392  0.0765 -0.0734 -0.5274
  557MOL0     C73419   8.557  -0.141   6.357 -0.7745 -0.9431  0.7021
  557MOL0     C73420   8.597  -0.096   6.224 -0.7845  0.8473  0.5619
  557MOL0     C73421   8.738  -0.093   6.193  0.1671 -0.1033  0.3816
  557MOL0     O73422   8.777  -0.016   6.088  0.3944 -0.1516 -0.4554
  557MOL0     C73423   8.898  -0.013   6.023 -0.3282  0.0990  0.1969
  557MOL0     C73424   9.005  -0.113   6.037  0.5749 -0.0724  0.0135
  557MOL0     C73425   9.130  -0.083   5.988 -0.1331  0.8985  0.3420
  557MOL0     C73426   9.152   0.029   5.921  0.9079 -0.9004 -0.0457
  557MOL0     O73427   9.275   0.048   5.859  0.2183  0.0569 -0.1826
  557MOL0     C73428   9.317  -0.050   5.760  0.1947 -0.1688 -0.2728
  557MOL0     C73429   9.422   0.013   5.659  0.9010 -0.5401  0.4619
  557MOL0     C73430   9.476  -0.107   5.567  0.5819 -0.3623  0.1065
  557MOL0     C73431   9.515  -0.066   5.429 -0.0542 -0.2045  0.1025
  557MOL0     C73432   9.391  -0.053   5.341 -0.4776  0.6303  0.3212
  557MOL0     C73433   9.432  -0.003   5.198  0.5830  0.3919  0.1250
  557MOL0     C73434   9.299   0.030   5.122 -0.8504 -0.2135  0.3916
  557MOL0     C73435   9.226   0.156   5.160  0.7628 -0.4263  0.3594
  557MOL0    Cl73436   9.311   0.300   5.101 -0.1201  0.0604 -0.4146
  557MOL0     C73437   9.048   0.127   5.894 -0.3916  0.8271  0.5726
  557MOL0     C73438   8.919   0.100   5.947 -0.5079  0.1525 -0.0307
  557MOL0     O73439   8.809  -0.165   6.261  0.0470 -0.4774 -0.3476
  557MOL0     C73440   8.491  -0.074   6.135  0.0033  0.2015  0.1966
  557MOL0     C73441   8.361  -0.099   6.171  0.9107 -1.2556  0.2068
  557MOL0     N73442   8.002   0.142   6.012 -0.5674  0.5286  0.3347
  557MOL0     N73443   7.982   0.242   5.944  0.8074 -0.3754 -0.1519
  557MOL0     C73444   7.001   0.532   6.396 -0.6575 -0.1090  0.0786
  557MOL0     C73445   6.869   0.528   6.429  0.4346  0.1159 -0.0476
  557MOL0     C73446   6.453   0.280   6.384  0.0560 -0.2200 -0.7082
  557MOL0     C73447   6.403   0.305   6.515  0.7628  0.3364  0.3054
  557MOL0     C73448   6.284   0.245   6.553 -0.0726 -0.6581  0.7236
  557MOL0     C73449   6.214   0.161   6.461  0.1883 -0.0197  0.6260
  557MOL0     O73450   6.101   0.085   6.486 -0.0316 -0.6182  0.4943
  557MOL0     C73451   6.034   0.122   6.602 -0.3470 -0.8570  0.9610
  557MOL0     C73452   6.063   0.017   6.711  0.1511  0.3987  0.0394
  557MOL0     C73453   6.002  -0.120   6.687 -0.4431  0.4973  0.2705
  557MOL0     C73454   6.063  -0.236   6.759  0.0530 -0.0182  0.4135
  557MOL0     C73455   6.040  -0.223   6.905 -0.1901 -0.5783  0.0044
  557MOL0     C73456   6.038  -0.253   7.022 -0.8299  0.6484 -0.0043
  557MOL0     C73457   6.264   0.132   6.335 -0.6123 -0.7437  0.8392
  557MOL0     C73458   6.377   0.199   6.300 -0.5431 -0.4221  0.4651
  557MOL0     H73459   6.822   0.206   6.346 -0.8966  0.2397  3.0322
  557MOL0     H73460   7.066   0.208   6.313 -0.7549 -0.9872  1.4395
  557MOL0     H73461   7.295   0.300   6.234  2.1168 -2.6820  1.4201
  557MOL0     H73462   7.277   0.265   6.410 -1.9834  0.6175  0.9151
  557MOL0     H73463   7.502   0.288   6.320  1.1755 -0.1493 -1.3817
  557MOL0     H73464   7.482   0.429   6.429 -2.0005 -1.6897  1.3438
  557MOL0     H73465   7.391   0.524   6.183 -0.8268 -1.6621 -2.5824
  557MOL0     H73466   7.505   0.424   6.122  0.4874  2.0787 -1.0109
  557MOL0     H73467   7.585   0.651   6.312  0.9409  1.8928 -1.3012
  557MOL0     H73468   7.690   0.504   6.275  0.8504  1.2502 -2.3690
  557MOL0     H73469   7.591   0.740   6.111  0.6847  0.2722 -3.2689
  557MOL0     H73470   7.608   0.594   6.026 -1.3760  1.3563 -0.7232
  557MOL0     H73471   7.835   0.757   6.165 -1.6191 -0.3613  0.0196
  557MOL0     H73472   7.809   0.738   5.991 -0.9484  0.7328 -0.7184
  557MOL0     H73473   8.009   0.593   6.093  1.1437 -1.7040 -3.5045
  557MOL0     H73474   7.880   0.520   6.186 -0.7184  2.3531  2.7213
  557MOL0     H73475   7.938   0.477   5.883  2.5885 -1.0478  0.4995
  557MOL0     H73476   7.775   0.447   5.957 -0.0871 -2.1471  3.5035
  557MOL0     H73477   7.802   0.308   6.207  0.9038  1.0013  1.4275
  557MOL0     H73478   7.947  -0.054   6.186  0.5917  1.3489 -1.9275
  557MOL0     H73479   7.832   0.045   6.273 -0.2765 -0.8864 -0.0213
  557MOL0     H73480   8.022   0.181   6.380 -2.7452 -0.0802  0.6579
  557MOL0     H73481   8.140   0.077   6.290 -0.2232 -0.1960  0.5401
  557MOL0     H73482   8.013   0.021   6.554 -0.0817 -1.0984  0.7232
  557MOL0     H73483   7.948  -0.103   6.428  0.5412  1.0075 -4.4299
  557MOL0     H73484   8.148  -0.189   6.536  2.4084 -0.5469  0.4067
  557MOL0     H73485   8.235  -0.040   6.515  2.7351 -0.9821 -1.5626
  557MOL0     H73486   8.406  -0.171   6.497  0.9035  0.0245 -0.3328
  557MOL0     H73487   8.630  -0.149   6.437 -1.7462 -0.7269  1.6405
  557MOL0     H73488   8.981  -0.208   6.085  1.6555 -1.6479 -2.3669
  557MOL0     H73489   9.215  -0.149   6.004 -0.3861  1.1389  3.0814
  557MOL0     H73490   9.224  -0.078   5.711 -1.5143  1.4092  1.8612
  557MOL0     H73491   9.371  -0.130   5.812 -0.9513 -0.5445  0.3809
  557MOL0     H73492   9.504   0.058   5.714  1.3189 -2.4290  1.4753
  557MOL0     H73493   9.362   0.086   5.604 -1.1741 -0.6275  2.4519
  557MOL0     H73494   9.398  -0.183   5.563  2.2702 -2.6885  4.5102
  557MOL0     H73495   9.556  -0.156   5.622  2.1301  1.7027 -0.1669
  557MOL0     H73496   9.576   0.023   5.447 -0.4788 -0.5049  3.8863
  557MOL0     H73497   9.575  -0.136   5.370  1.0832  0.3455  0.5690
  557MOL0     H73498   9.328   0.025   5.385  0.5787  1.5733  0.2086
  557MOL0     H73499   9.336  -0.147   5.339  1.1773 -0.3663 -1.5489
  557MOL0     H73500   9.487  -0.080   5.143  1.9052  0.4083  1.3647
  557MOL0     H73501   9.488   0.091   5.207 -2.7466  3.1073 -3.5885
  557MOL0     H73502   9.327   0.041   5.017  2.8898  1.6128  1.4263
  557MOL0     H73503   9.221  -0.046   5.131 -1.1094  0.0673  0.5644
  557MOL0     H73504   9.199   0.168   5.265 -1.8846 -1.1065 -0.1682
  557MOL0     H73505   9.134   0.152   5.101  1.2958 -0.9716 -0.4567
  557MOL0     H73506   9.071   0.204   5.821  3.4243 -0.3259  0.3214
  557MOL0     H73507   8.842   0.174   5.930  0.6082  0.7795 -3.1686
  557MOL0     H73508   8.535  -0.049   6.040  0.9271  1.7706  0.9917
  557MOL0     H73509   8.282  -0.101   6.096  1.5114 -1.7849 -0.4274
  557MOL0     H73510   7.042   0.632   6.389  3.0369 -1.5446 -2.1713
  557MOL0     H73511   6.799   0.603   6.465 -0.1784 -0.4747  0.0157
  557MOL0     H73512   6.442   0.384   6.578  2.2534  1.4122 -1.8002
  557MOL0     H73513   6.256   0.271   6.655  0.0354 -0.3249  0.6698
  557MOL0     H73514   5.927   0.108   6.583 -0.3505 -1.7751  1.5609
  557MOL0     H73515   6.046   0.226   6.633 -2.3114 -1.0819  2.7361
  557MOL0     H73516   6.171   0.012   6.729  0.1678  0.7561  0.0579
  557MOL0     H73517   6.012   0.049   6.803 -0.3999  0.2657 -0.2159
  557MOL0     H73518   5.991  -0.140   6.580 -1.6412  0.0775  0.4625
  557MOL0     H73519   5.901  -0.110   6.726 -0.2881  0.1045  0.7917
  557MOL0     H73520   6.021  -0.330   6.722  2.4327 -0.0500 -2.5383
  557MOL0     H73521   6.168  -0.221   6.732  0.0072 -0.6217 -0.1163
  557MOL0     H73522   6.037  -0.274   7.127 -1.5813  1.0165  0.0666
  557MOL0     H73523   6.206   0.072   6.266  0.1209 -1.3058  0.7020
  557MOL0     H73524   6.414   0.205   6.198  2.0947  2.6683  1.3962
  558MOL0     O73525   7.770   8.895   3.499  0.6588  0.3873  0.3756
  558MOL0     C73526   7.854   8.902   3.590  0.6394  0.5899 -0.5356
  558MOL0     O73527   7.831   8.917   3.720  0.6516  0.6569 -0.0017
  558MOL0     C73528   7.706   8.937   3.764  0.1941 -0.5651 -1.1097
  558MOL0     C73529   7.652   9.063   3.758  0.3780 -1.0888 -0.4220
  558MOL0     C73530   7.519   9.088   3.791 -0.6573  0.2543 -0.1368
  558MOL0     C73531   7.435   8.981   3.818  0.7804  0.9866  1.3723
  558MOL0     O73532   7.301   9.002   3.847 -0.6073 -0.3507 -0.2498
  558MOL0     C73533   7.220   9.069   3.756 -0.5414  0.4367 -0.6440
  558MOL0     C73534   7.075   9.036   3.781  0.3588 -0.9573 -0.0698
  558MOL0     C73535   6.969   9.126   3.706  0.9495 -0.3172  0.2571
  558MOL0     C73536   6.824   9.105   3.748 -0.9957  0.8842  0.7158
  558MOL0     C73537   6.741   9.216   3.678 -0.0239  0.0134 -0.0264
  558MOL0     C73538   6.593   9.215   3.721 -0.1783  0.1103 -0.5414
  558MOL0     C73539   6.515   9.331   3.663  0.3575  0.1204  0.6742
  558MOL0     C73540   6.489   9.323   3.505  0.4710 -0.5623 -0.7684
  558MOL0     N73541   6.417   9.439   3.455 -0.3211 -0.1808 -0.2343
  558MOL0     C73542   6.401   9.482   3.329  0.0165 -0.8786 -0.0681
  558MOL0     C73543   6.321   9.597   3.328  0.1208 -0.8417  0.9006
  558MOL0     C73544   6.265   9.669   3.205 -0.5053  0.4852  0.3261
  558MOL0     C73545   6.368   9.769   3.152  0.2215  0.3278 -0.1657
  558MOL0     C73546   6.395   9.895   3.243  1.0912 -0.1672 -0.9578
  558MOL0     C73547   6.506   9.879   3.349 -0.2484 -0.6934  0.0905
  558MOL0     O73548   6.622   9.847   3.272 -0.0562 -0.0893 -0.5585
  558MOL0     C73549   6.700   9.736   3.299 -0.6646  0.5185 -0.4054
  558MOL0     C73550   6.705   9.662   3.422 -0.7513 -0.1198  0.0179
  558MOL0     C73551   6.799   9.551   3.414 -0.1176 -0.9997  0.6084
  558MOL0     C73552   6.870   9.512   3.302 -0.9537  0.7471 -0.2152
  558MOL0     C73553   6.976   9.401   3.314  0.9521  0.1722 -0.0132
  558MOL0     O73554   7.060   9.369   3.215  0.2009 -0.1385  0.0383
  558MOL0     C73555   7.133   9.251   3.225 -0.3232  0.1654 -0.1121
  558MOL0     C73556   7.250   9.251   3.148 -1.2150 -0.3822 -0.5996
  558MOL0     C73557   7.337   9.139   3.139  0.6068 -0.5294 -0.2356
  558MOL0     C73558   7.301   9.016   3.198 -0.5587 -0.5350 -0.0274
  558MOL0     O73559   7.370   8.897   3.183 -0.3473 -1.1635  0.2709
  558MOL0     C73560   7.515   8.885   3.212  0.2551 -0.2088  0.0882
  558MOL0     C73561   7.599   8.858   3.094 -0.0515 -0.7930 -0.7565
  558MOL0     C73562   7.744   8.836   3.140  0.3014  0.4495 -0.1171
  558MOL0     C73563   7.838   8.826   3.019  0.2094 -0.2608 -0.0435
  558MOL0     C73564   7.977   8.769   3.060 -0.1150  0.5921 -0.8800
  558MOL0     C73565   8.055   8.729   2.933 -0.6151 -0.4916  0.0919
  558MOL0     C73566   8.194   8.675   2.952  1.1154  0.4525  0.1176
  558MOL0     C73567   8.241   8.586   2.835 -0.0121  0.4637 -0.9610
  558MOL0    Cl73568   8.281   8.701   2.711  0.1531 -0.1304  0.5635
  558MOL0     C73569   7.182   9.014   3.277 -1.0549 -0.1500 -0.3222
  558MOL0     C73570   7.108   9.131   3.294 -0.4205  0.9285 -0.3940
  558MOL0     O73571   6.981   9.350   3.428  0.1003 -0.2945 -0.7744
  558MOL0     C73572   6.861   9.589   3.189  0.0413  0.3214  0.5529
  558MOL0     C73573   6.781   9.701   3.192  0.0639 -0.0132  0.5071
  558MOL0     N73574   6.302   9.619   3.466  0.8069  0.0065 -0.3463
  558MOL0     N73575   6.359   9.527   3.533 -0.6227 -0.0436 -0.6685
  558MOL0     C73576   7.487   8.847   3.816  0.3723 -0.9332  0.7994
  558MOL0     C73577   7.624   8.828   3.800 -0.0635  0.4589 -0.3526
  558MOL0     C73578   7.986   8.838   3.552 -0.6236 -0.8126  0.3563
  558MOL0     C73579   8.021   8.812   3.420 -0.0146 -0.9468 -0.7410
  558MOL0     C73580   8.157   8.784   3.381  0.2873 -0.1502  0.4947
  558MOL0     C73581   8.253   8.764   3.471  0.0196 -0.0257  0.0450
  558MOL0     O73582   8.379   8.754   3.419 -0.1503  0.0976 -0.6436
  558MOL0     C73583   8.479   8.837   3.484 -0.2956  1.1679 -0.1215
  558MOL0     C73584   8.592   8.891   3.385  0.4449  0.9062  0.4227
  558MOL0     C73585   8.685   8.782   3.331  0.4616 -0.5339  0.0361
  558MOL0     C73586   8.615   8.707   3.213 -0.0689  0.7518  1.1170
  558MOL0     C73587   8.697   8.647   3.109 -0.5655  0.4740 -1.4910
  558MOL0     C73588   8.757   8.598   3.017 -0.0803  0.2639 -0.0391
  558MOL0     C73589   8.226   8.789   3.605 -0.5074 -0.9453 -1.1236
  558MOL0     C73590   8.092   8.830   3.645  0.4387 -0.5846  0.3665
  558MOL0     H73591   7.698   9.158   3.733 -0.5319 -0.6889 -0.6383
  558MOL0     H73592   7.482   9.190   3.789  1.6068  1.5213  5.0710
  558MOL0     H73593   7.230   9.047   3.650 -1.6485  3.2354 -1.4201
  558MOL0     H73594   7.242   9.175   3.775  0.6472 -0.0689  1.0091
  558MOL0     H73595   7.055   9.041   3.888  0.6754  1.1297 -0.0649
  558MOL0     H73596   7.065   8.933   3.744  2.5927 -1.3540  0.2771
  558MOL0     H73597   6.979   9.118   3.597  3.0168  1.7527  0.2093
  558MOL0     H73598   6.986   9.233   3.721 -0.3403  0.1934 -1.6538
  558MOL0     H73599   6.783   9.010   3.712 -1.4223  1.7371 -1.1738
  558MOL0     H73600   6.825   9.092   3.857  1.5347  0.2649  0.6708
  558MOL0     H73601   6.744   9.191   3.572  2.3241  0.3408 -0.0958
  558MOL0     H73602   6.781   9.316   3.696 -3.5100  1.7287 -0.8653
  558MOL0     H73603   6.590   9.221   3.830  0.5030 -0.4598 -0.4821
  558MOL0     H73604   6.549   9.123   3.682  1.1202  0.3520 -2.7723
  558MOL0     H73605   6.419   9.344   3.714 -2.1360  0.9483 -3.7199
  558MOL0     H73606   6.563   9.429   3.677 -2.4028  1.8744 -1.1478
  558MOL0     H73607   6.431   9.233   3.480 -0.5555 -0.6237  1.5710
  558MOL0     H73608   6.582   9.324   3.447  0.6012  1.7451 -0.6072
  558MOL0     H73609   6.436   9.442   3.235 -0.7476  1.4394 -1.4344
  558MOL0     H73610   6.174   9.722   3.234 -0.6937  0.3982 -0.1063
  558MOL0     H73611   6.242   9.585   3.138 -0.7243  1.1087 -0.4011
  558MOL0     H73612   6.345   9.800   3.049  2.2651  1.7724 -0.2341
  558MOL0     H73613   6.460   9.711   3.148 -0.7982 -1.4276  0.6791
  558MOL0     H73614   6.413   9.974   3.169 -2.1080  2.0087  0.3878
  558MOL0     H73615   6.301   9.914   3.295  1.1125  1.2673 -1.3803
  558MOL0     H73616   6.458   9.822   3.429 -8.2684  0.4173 -2.9938
  558MOL0     H73617   6.525   9.975   3.397 -0.9590 -0.1127 -0.7556
  558MOL0     H73618   6.647   9.694   3.508 -0.0799 -1.7105  1.0846
  558MOL0     H73619   6.802   9.489   3.503 -0.6754 -0.8223  0.7554
  558MOL0     H73620   7.272   9.347   3.103 -1.3457  0.8810  1.8434
  558MOL0     H73621   7.430   9.141   3.083 -0.1928  0.8227 -1.5945
  558MOL0     H73622   7.535   8.796   3.272  4.7106  0.0490 -0.7066
  558MOL0     H73623   7.557   8.970   3.266 -2.3022 -0.5507  2.8956
  558MOL0     H73624   7.593   8.945   3.028 -1.1065 -2.3882 -2.8882
  558MOL0     H73625   7.551   8.776   3.041 -1.5495 -1.3705  1.3684
  558MOL0     H73626   7.759   8.739   3.188  0.7660 -0.7519 -2.5413
  558MOL0     H73627   7.774   8.914   3.210 -1.8412 -0.2044  1.6529
  558MOL0     H73628   7.807   8.753   2.943 -3.4360  0.6699  0.3712
  558MOL0     H73629   7.852   8.924   2.973 -0.9296 -0.0943 -0.0614
  558MOL0     H73630   7.972   8.679   3.122  1.4464  1.5308  0.6989
  558MOL0     H73631   8.036   8.842   3.116  3.7858 -0.2225 -3.5210
  558MOL0     H73632   8.064   8.822   2.876  1.3777 -0.8182 -0.1828
  558MOL0     H73633   8.004   8.653   2.874  0.2545  0.0739 -1.4379
  558MOL0     H73634   8.262   8.760   2.966  2.0894 -0.1923 -0.6153
  558MOL0     H73635   8.189   8.607   3.038 -1.9871  0.8801  0.3751
  558MOL0     H73636   8.156   8.525   2.803  1.2222 -0.8640 -1.8084
  558MOL0     H73637   8.329   8.528   2.865  0.5080  0.5514 -2.2656
  558MOL0     H73638   7.162   8.919   3.325  3.4136 -0.6386  0.9669
  558MOL0     H73639   7.018   9.122   3.355  1.8304 -0.1188  3.1140
  558MOL0     H73640   6.921   9.567   3.101 -0.7856 -0.3313  0.1378
  558MOL0     H73641   6.771   9.762   3.102 -0.6061  0.3441  0.8204
  558MOL0     H73642   7.427   8.765   3.853  1.1095 -0.9496  2.0228
  558MOL0     H73643   7.652   8.723   3.794 -0.5829  0.3537 -1.2116
  558MOL0     H73644   7.945   8.828   3.345 -2.5109  3.0471  2.2721
  558MOL0     H73645   8.184   8.789   3.276 -2.1984 -1.5849 -0.3109
  558MOL0     H73646   8.519   8.779   3.568 -0.0626 -0.1900 -1.1305
  558MOL0     H73647   8.431   8.923   3.532 -0.4882  0.3634  1.1619
  558MOL0     H73648   8.542   8.942   3.302  0.2873 -0.0456 -0.0834
  558MOL0     H73649   8.648   8.969   3.436  0.2961  0.0283  2.0058
  558MOL0     H73650   8.724   8.711   3.405 -0.5784 -0.7713  0.3725
  558MOL0     H73651   8.779   8.826   3.296 -0.4337  0.8169 -0.7767
  558MOL0     H73652   8.566   8.625   3.266 -0.8158  0.1202 -0.4947
  558MOL0     H73653   8.537   8.763   3.162 -0.4768  1.1632  2.1580
  558MOL0     H73654   8.821   8.551   2.945 -0.5066  0.9122 -0.8410
  558MOL0     H73655   8.306   8.766   3.676 -0.1959  1.9397 -0.4032
  558MOL0     H73656   8.077   8.848   3.751  0.5247 -0.5610  0.3745
  559MOL0     O73657   1.178   2.379   9.242  0.1476 -0.5101 -0.1671
  559MOL0     C73658   1.206   2.455   9.151 -0.1407  0.0326  0.1025
  559MOL0     O73659   1.119   2.511   9.073  0.4843 -0.9168 -0.2871
  559MOL0     C73660   0.987   2.479   9.086  0.3259 -0.3160 -0.3531
  559MOL0     C73661   0.943   2.349   9.054  0.4541  0.5464  0.2157
  559MOL0     C73662   0.803   2.320   9.065  0.1931  0.6793  0.6337
  559MOL0     C73663   0.707   2.418   9.100  0.6638  0.7069 -1.1696
  559MOL0     O73664   0.566   2.399   9.108 -1.1123 -0.1058 -0.6740
  559MOL0     C73665   0.505   2.290   9.042 -0.0834 -0.2656 -0.0494
  559MOL0     C73666   0.374   2.345   8.988  0.2945  1.1465  0.5450
  559MOL0     C73667   0.268   2.234   8.964  0.2106 -0.2106  0.2386
  559MOL0     C73668   0.130   2.296   8.927  0.6645 -0.3461 -0.7837
  559MOL0     C73669   0.023   2.205   8.878 -0.5988 -0.0482  1.0048
  559MOL0     C73670   0.051   2.141   8.737 -0.4487 -0.6021 -0.1382
  559MOL0     C73671   0.076   2.250   8.626 -0.8963 -1.0545  0.4475
  559MOL0     C73672   0.080   2.189   8.477 -0.3694  0.0056  0.0276
  559MOL0     N73673   0.067   2.307   8.384 -0.5416 -0.4228 -0.6878
  559MOL0     C73674   0.166   2.408   8.393  0.2475  0.0660  0.1925
  559MOL0     C73675   0.093   2.523   8.344  1.3488  0.1696 -0.9021
  559MOL0     C73676   0.147   2.660   8.308 -0.0411  0.2208  0.6755
  559MOL0     C73677   0.294   2.660   8.246 -0.0278  0.8122 -0.5660
  559MOL0     C73678   0.360   2.799   8.250  0.1943  0.7041  0.1563
  559MOL0     C73679   0.509   2.791   8.205  0.0821  0.1013 -0.5993
  559MOL0     O73680   0.586   2.701   8.287 -0.4846  0.0866  0.2719
  559MOL0     C73681   0.723   2.695   8.273  0.4023  0.2023  0.4616
  559MOL0     C73682   0.799   2.763   8.179  0.0074  0.3190 -0.3635
  559MOL0     C73683   0.948   2.759   8.183  0.3707 -0.4072  0.1537
  559MOL0     C73684   1.009   2.692   8.284 -0.4381 -0.4012 -0.0216
  559MOL0     C73685   1.152   2.681   8.288 -0.3296  0.7555 -0.0193
  559MOL0     O73686   1.207   2.562   8.335  0.1711 -0.3589  0.0134
  559MOL0     C73687   1.338   2.563   8.387  0.2269 -0.3156 -0.1540
  559MOL0     C73688   1.448   2.657   8.369  0.1794  0.0831 -0.1497
  559MOL0     C73689   1.565   2.646   8.434  0.8194 -0.2691 -1.1887
  559MOL0     C73690   1.590   2.535   8.510  0.1129 -0.1622 -0.4539
  559MOL0     O73691   1.711   2.523   8.568  0.3347  0.3177 -0.9280
  559MOL0     C73692   1.790   2.411   8.535 -0.4015 -0.4017 -0.4595
  559MOL0     C73693   1.936   2.441   8.523  0.0237  0.1402  0.2740
  559MOL0     C73694   2.024   2.311   8.530  0.2390  0.0023  1.0587
  559MOL0     C73695   2.170   2.340   8.539 -0.0995 -0.0813 -0.1286
  559MOL0     C73696   2.228   2.475   8.491  0.1613  0.3748 -0.0806
  559MOL0     C73697   2.382   2.464   8.500  0.2341  0.6993  0.3440
  559MOL0     C73698   2.438   2.485   8.634  0.6559  0.3609  0.6734
  559MOL0     C73699   2.422   2.634   8.676  0.0535  0.3931 -1.0080
  559MOL0    Cl73700   2.515   2.643   8.828 -0.0336 -0.1618  0.4025
  559MOL0     C73701   1.491   2.439   8.523 -0.4893 -0.3233 -0.3610
  559MOL0     C73702   1.368   2.453   8.465 -0.4965 -1.2316  0.3998
  559MOL0     O73703   1.220   2.763   8.225  0.7527  0.1237 -1.3415
  559MOL0     C73704   0.927   2.614   8.375 -0.1593 -0.5411 -0.4737
  559MOL0     C73705   0.788   2.615   8.366 -0.5569 -0.3538  0.0645
  559MOL0     N73706  -0.037   2.487   8.317  1.4412  0.8164  0.1784
  559MOL0     N73707  -0.054   2.362   8.352 -0.3273 -0.0286  0.6880
  559MOL0     C73708   0.756   2.549   9.142  0.5793  0.6365 -0.5702
  559MOL0     C73709   0.894   2.573   9.138  0.1252 -0.6568  0.2469
  559MOL0     C73710   1.343   2.502   9.131 -0.1049 -1.5390 -0.1353
  559MOL0     C73711   1.380   2.553   9.006 -0.1885 -0.2908 -0.3296
  559MOL0     C73712   1.510   2.581   8.981 -0.1285 -0.6258 -0.3405
  559MOL0     C73713   1.611   2.557   9.076 -0.0784  0.6155  0.2056
  559MOL0     O73714   1.740   2.581   9.055 -0.2709  0.3582  0.1763
  559MOL0     C73715   1.795   2.625   8.931 -0.6013  0.4952 -0.1847
  559MOL0     C73716   1.950   2.648   8.948  0.4975  0.5454 -0.9614
  559MOL0     C73717   1.993   2.766   8.859  0.1112 -0.3790 -0.4361
  559MOL0     C73718   2.124   2.819   8.901  0.4941 -0.2195 -0.8548
  559MOL0     C73719   2.165   2.927   8.809  0.5748  0.0753 -0.5364
  559MOL0     C73720   2.190   3.016   8.724 -0.8446  0.3511 -1.4414
  559MOL0     C73721   1.574   2.503   9.198 -0.0759 -0.5051 -0.6053
  559MOL0     C73722   1.444   2.475   9.226  0.6157 -0.1423  0.5361
  559MOL0     H73723   1.003   2.275   9.003 -0.9584  2.1918 -4.3539
  559MOL0     H73724   0.770   2.223   9.028  0.0361  0.8021  0.4503
  559MOL0     H73725   0.495   2.201   9.105 -0.5547 -1.4246 -1.7099
  559MOL0     H73726   0.559   2.247   8.957  2.5198  3.0657 -0.3123
  559MOL0     H73727   0.399   2.401   8.897 -0.4166  0.4013 -0.1217
  559MOL0     H73728   0.341   2.424   9.056  2.0754  4.0870 -1.7419
  559MOL0     H73729   0.264   2.178   9.058  1.2691  2.2588  1.8704
  559MOL0     H73730   0.290   2.161   8.886 -4.1553  1.9159 -3.4298
  559MOL0     H73731   0.081   2.345   9.012  0.9615 -0.7657 -0.3692
  559MOL0     H73732   0.142   2.368   8.846 -2.9972  0.1174 -1.0864
  559MOL0     H73733  -0.066   2.264   8.858  0.9624  1.7332 -1.2767
  559MOL0     H73734   0.011   2.126   8.953  0.2981 -0.8035  0.3806
  559MOL0     H73735  -0.038   2.084   8.709 -2.4644  1.3206  1.8934
  559MOL0     H73736   0.131   2.067   8.750  0.5033  0.4378  0.0031
  559MOL0     H73737   0.007   2.335   8.622 -1.0074 -1.1887 -2.2561
  559MOL0     H73738   0.179   2.283   8.642  0.6149 -5.3423  0.8831
  559MOL0     H73739   0.001   2.114   8.464 -0.3157  0.1993 -1.6767
  559MOL0     H73740   0.176   2.140   8.461 -0.6381 -0.6766  0.4517
  559MOL0     H73741   0.267   2.396   8.429 -0.5842 -1.3290  2.1887
  559MOL0     H73742   0.133   2.723   8.397  0.3377 -1.2405  1.8122
  559MOL0     H73743   0.096   2.681   8.214  0.9495 -0.3790 -0.0137
  559MOL0     H73744   0.279   2.630   8.142 -1.5018  2.1201 -0.7595
  559MOL0     H73745   0.360   2.600   8.310 -0.4627 -2.3828 -2.8375
  559MOL0     H73746   0.315   2.861   8.173  1.7721  1.3447 -0.3040
  559MOL0     H73747   0.341   2.843   8.349 -3.3924  0.3552 -0.2544
  559MOL0     H73748   0.555   2.890   8.209  0.3336 -0.0563  0.5221
  559MOL0     H73749   0.518   2.751   8.103 -0.1966 -2.6223  0.3683
  559MOL0     H73750   0.743   2.820   8.105  0.0968 -0.0719 -0.7327
  559MOL0     H73751   1.009   2.819   8.117  0.4885  1.6711  2.0552
  559MOL0     H73752   1.443   2.734   8.292  1.7843  0.5670  0.2015
  559MOL0     H73753   1.636   2.726   8.413 -0.3696  1.0500 -0.3603
  559MOL0     H73754   1.757   2.378   8.436  0.4007  2.5694 -1.8242
  559MOL0     H73755   1.770   2.328   8.603 -1.5697 -0.5778 -0.9848
  559MOL0     H73756   1.960   2.510   8.604 -0.4162 -0.6464  1.0966
  559MOL0     H73757   1.963   2.486   8.427  1.6390 -0.1042  0.5846
  559MOL0     H73758   2.016   2.268   8.430  0.6431  2.5098 -0.1443
  559MOL0     H73759   2.003   2.237   8.608  3.0655 -2.4091 -0.2828
  559MOL0     H73760   2.201   2.320   8.642  0.4615  0.4261 -0.1986
  559MOL0     H73761   2.207   2.259   8.475  1.6425  0.0581  0.6470
  559MOL0     H73762   2.193   2.557   8.554  1.6524 -0.5992  2.1849
  559MOL0     H73763   2.187   2.494   8.392 -1.4383  0.0248  0.4743
  559MOL0     H73764   2.433   2.529   8.428  1.6575 -1.4286 -0.6869
  559MOL0     H73765   2.414   2.361   8.482  1.0835  0.8597  0.8626
  559MOL0     H73766   2.391   2.420   8.708  0.5081 -0.7694 -0.3792
  559MOL0     H73767   2.543   2.458   8.625  0.8413  0.1994  2.9854
  559MOL0     H73768   2.318   2.665   8.685  0.3780  2.5030 -3.4298
  559MOL0     H73769   2.469   2.695   8.599  3.3279  0.0059  0.5189
  559MOL0     H73770   1.502   2.352   8.587 -1.9179 -0.1408  0.1609
  559MOL0     H73771   1.291   2.380   8.489  0.3823 -1.9359  1.1791
  559MOL0     H73772   0.974   2.554   8.453  0.1811  1.6279  1.0763
  559MOL0     H73773   0.732   2.556   8.438 -1.3709  3.2915  2.7437
  559MOL0     H73774   0.696   2.631   9.178  1.0103  0.4791  0.5367
  559MOL0     H73775   0.934   2.660   9.189 -0.3785  0.0477 -0.5316
  559MOL0     H73776   1.308   2.564   8.926  1.0369 -0.1425 -1.4364
  559MOL0     H73777   1.523   2.623   8.882  0.9416 -1.8706 -0.7560
  559MOL0     H73778   1.757   2.721   8.896 -0.7194  0.8828  0.9508
  559MOL0     H73779   1.777   2.544   8.860 -0.3150 -1.9741  2.3492
  559MOL0     H73780   1.959   2.679   9.052 -2.2122  0.4488 -0.6234
  559MOL0     H73781   1.995   2.550   8.928 -3.5872 -1.3451 -1.9315
  559MOL0     H73782   1.917   2.845   8.868 -0.1423 -0.8424  3.1295
  559MOL0     H73783   1.983   2.743   8.753 -2.2378 -0.8709 -0.1693
  559MOL0     H73784   2.106   2.864   8.999 -2.4198 -3.0376  0.0791
  559MOL0     H73785   2.200   2.740   8.894  1.8644  0.9981 -0.2227
  559MOL0     H73786   2.187   3.102   8.659 -1.7997  1.2314 -0.2789
  559MOL0     H73787   1.633   2.473   9.283 -2.0545 -2.9798  0.0297
  559MOL0     H73788   1.414   2.441   9.324 -0.6061 -0.8831 -0.0715
  560MOL0     O73789   2.280   8.365   8.862  0.0359  0.0378 -0.5817
  560MOL0     C73790   2.366   8.285   8.903  0.2478  0.9895  0.8308
  560MOL0     O73791   2.341   8.176   8.980  0.1425 -0.2033  0.1525
  560MOL0     C73792   2.241   8.183   9.077  0.4190 -0.5177 -0.2119
  560MOL0     C73793   2.112   8.166   9.034 -0.6937  0.4347  0.5976
  560MOL0     C73794   2.009   8.178   9.128 -0.5484 -0.4967  0.3672
  560MOL0     C73795   2.034   8.209   9.259 -0.1792  0.1633  0.5117
  560MOL0     O73796   1.941   8.249   9.352  0.2080  0.3229 -0.1379
  560MOL0     C73797   1.796   8.232   9.325 -0.9211 -0.1650 -0.2759
  560MOL0     C73798   1.720   8.253   9.452 -0.3837 -0.5768 -0.7546
  560MOL0     C73799   1.567   8.252   9.437  0.1322  0.3131  0.2221
  560MOL0     C73800   1.514   8.399   9.436  0.0972 -0.0748 -0.1629
  560MOL0     C73801   1.358   8.410   9.429 -0.2611  0.7995 -0.1789
  560MOL0     C73802   1.297   8.337   9.305 -0.3541  0.0161 -0.3767
  560MOL0     C73803   1.155   8.366   9.274 -0.1666 -0.6167  0.3611
  560MOL0     C73804   1.119   8.317   9.136  0.5026  0.2968  0.5750
  560MOL0     N73805   1.101   8.170   9.121  0.5946 -0.1307 -0.5032
  560MOL0     C73806   0.984   8.112   9.158  0.0079  0.2432  0.1147
  560MOL0     C73807   1.004   7.981   9.124  0.5355  0.1411  0.1842
  560MOL0     C73808   0.910   7.862   9.107 -0.1996  0.0264 -0.4003
  560MOL0     C73809   0.830   7.852   8.981 -0.1428  0.2297 -0.0356
  560MOL0     C73810   0.787   7.712   8.946 -0.0941 -0.1353  0.0268
  560MOL0     C73811   0.681   7.684   8.834  0.2750 -0.9060 -0.2350
  560MOL0     O73812   0.748   7.645   8.717 -0.3908  0.1222  0.5466
  560MOL0     C73813   0.686   7.624   8.599  0.6328 -0.1640 -0.0406
  560MOL0     C73814   0.567   7.686   8.560 -0.7469 -0.1020  0.7746
  560MOL0     C73815   0.520   7.681   8.424 -0.1059  0.2069  0.6364
  560MOL0     C73816   0.584   7.598   8.335 -0.8947  0.2500  0.1844
  560MOL0     C73817   0.529   7.568   8.197 -0.1879 -0.1305 -0.8158
  560MOL0     O73818   0.555   7.441   8.151 -0.2524  0.0135 -0.2497
  560MOL0     C73819   0.477   7.401   8.043  0.7927 -0.6968 -0.5927
  560MOL0     C73820   0.499   7.466   7.918  0.1298  0.1766  0.0499
  560MOL0     C73821   0.424   7.430   7.806 -1.9024 -0.0931 -0.6363
  560MOL0     C73822   0.328   7.328   7.823 -0.2574  0.9484  0.4661
  560MOL0     O73823   0.242   7.290   7.721 -0.3466 -0.4410  0.5453
  560MOL0     C73824   0.212   7.395   7.633  0.1746 -0.0296  0.0511
  560MOL0     C73825   0.116   7.338   7.524  0.5765  0.0958  0.2602
  560MOL0     C73826   0.088   7.451   7.421  0.2293 -0.4114 -0.2726
  560MOL0     C73827  -0.028   7.409   7.324 -0.5067  0.6525 -0.4639
  560MOL0     C73828   0.010   7.343   7.188  0.0828 -1.1036  0.0405
  560MOL0     C73829   0.118   7.439   7.121 -0.0282 -0.4146 -0.7810
  560MOL0     C73830   0.121   7.435   6.968 -0.7582 -0.4227  0.5903
  560MOL0     C73831   0.236   7.506   6.902  0.5472 -0.5487  0.1621
  560MOL0    Cl73832   0.366   7.392   6.929 -0.0014 -0.3299 -0.7890
  560MOL0     C73833   0.304   7.269   7.949  0.6433 -0.8254 -0.7065
  560MOL0     C73834   0.384   7.300   8.051 -0.6022 -0.4092  0.0331
  560MOL0     O73835   0.443   7.644   8.148 -0.0188  0.1087 -0.6708
  560MOL0     C73836   0.699   7.533   8.384 -0.3182  0.1634 -0.3122
  560MOL0     C73837   0.754   7.552   8.508  0.3069 -0.0640 -0.0119
  560MOL0     N73838   1.130   7.967   9.069 -0.9630 -0.5593  0.7276
  560MOL0     N73839   1.189   8.079   9.070  0.9326  0.1522 -0.1151
  560MOL0     C73840   2.163   8.226   9.298  1.4454  0.0945  0.6169
  560MOL0     C73841   2.273   8.221   9.210  0.7715 -0.0835 -0.2854
  560MOL0     C73842   2.506   8.296   8.854  0.3719  0.4376  0.5369
  560MOL0     C73843   2.603   8.216   8.909  0.3339 -0.5956  0.4656
  560MOL0     C73844   2.739   8.244   8.875 -0.9883 -0.8057 -0.7827
  560MOL0     C73845   2.782   8.350   8.790 -0.5662 -0.0204  0.1725
  560MOL0     O73846   2.911   8.373   8.747  0.2658 -0.7876 -0.1791
  560MOL0     C73847   2.999   8.418   8.842 -0.7390  0.1155  0.0200
  560MOL0     C73848   3.137   8.371   8.794  0.2341 -0.4716 -0.4386
  560MOL0     C73849   3.184   8.454   8.685 -0.4445 -0.2073  0.1332
  560MOL0     C73850   3.309   8.392   8.611 -0.3105  0.4954 -0.0511
  560MOL0     C73851   3.284   8.260   8.539 -0.6331 -0.6720 -0.2380
  560MOL0     C73852   3.271   8.146   8.503 -0.2861 -1.2105  0.9384
  560MOL0     C73853   2.675   8.430   8.739 -0.5836 -0.1355 -0.5045
  560MOL0     C73854   2.544   8.404   8.760 -0.1406  0.3535  0.3853
  560MOL0     H73855   2.079   8.166   8.930  0.0820  1.0747  0.3456
  560MOL0     H73856   1.910   8.175   9.083 -0.2492 -0.5017 -0.3058
  560MOL0     H73857   1.771   8.139   9.273 -0.1570  0.3936 -1.6852
  560MOL0     H73858   1.772   8.313   9.256 -1.2502  1.5597  1.7629
  560MOL0     H73859   1.756   8.351   9.483 -0.7353 -1.0205  1.1743
  560MOL0     H73860   1.757   8.185   9.528 -0.2553  0.5936  0.2555
  560MOL0     H73861   1.518   8.198   9.519 -1.1730 -0.1464 -0.8253
  560MOL0     H73862   1.525   8.210   9.346 -3.0168 -1.1392  2.1664
  560MOL0     H73863   1.563   8.468   9.505 -0.6849  0.3801 -0.0517
  560MOL0     H73864   1.544   8.436   9.338  2.4146 -0.3023  0.4000
  560MOL0     H73865   1.345   8.519   9.431  4.2219  1.5484 -0.2217
  560MOL0     H73866   1.309   8.375   9.519  1.4246  0.2576  0.5620
  560MOL0     H73867   1.298   8.237   9.350  1.8672  1.4209  3.0759
  560MOL0     H73868   1.361   8.350   9.217  1.1847 -4.3408 -0.1837
  560MOL0     H73869   1.083   8.324   9.345 -1.1556  3.1977  1.8731
  560MOL0     H73870   1.138   8.474   9.283 -0.7410 -0.7960  1.5881
  560MOL0     H73871   1.205   8.341   9.073 -0.0287 -1.5547 -0.9685
  560MOL0     H73872   1.034   8.372   9.092  1.7530  0.8193 -1.3019
  560MOL0     H73873   0.903   8.166   9.206  3.0474  2.2205  3.5277
  560MOL0     H73874   0.852   7.867   9.200  1.4947  1.3631  0.6383
  560MOL0     H73875   0.962   7.767   9.123 -0.5019  0.0584  0.9188
  560MOL0     H73876   0.888   7.896   8.899 -0.1383  0.0258 -0.1426
  560MOL0     H73877   0.740   7.913   8.988  1.4223  2.6897 -0.1688
  560MOL0     H73878   0.874   7.654   8.915  0.9239  2.1570 -1.6648
  560MOL0     H73879   0.744   7.670   9.037 -1.9557  1.0336 -0.2745
  560MOL0     H73880   0.631   7.780   8.816 -1.8518 -2.3452 -2.8215
  560MOL0     H73881   0.615   7.608   8.877  1.7788 -1.2238  1.6459
  560MOL0     H73882   0.523   7.735   8.646 -1.8043  1.2786 -0.5064
  560MOL0     H73883   0.426   7.730   8.405  0.3899  1.4678  1.3418
  560MOL0     H73884   0.575   7.544   7.911 -0.5357  0.6664 -3.5847
  560MOL0     H73885   0.457   7.468   7.710  1.7294  1.1542  0.9445
  560MOL0     H73886   0.299   7.446   7.591 -1.1853  1.5782 -0.9775
  560MOL0     H73887   0.156   7.458   7.703 -1.6599 -0.6037 -0.8276
  560MOL0     H73888   0.028   7.307   7.581  0.0794  0.7796 -0.1212
  560MOL0     H73889   0.155   7.250   7.473  3.5244  2.4117 -1.8480
  560MOL0     H73890   0.185   7.470   7.375  1.0628 -2.2436  0.6174
  560MOL0     H73891   0.062   7.550   7.460  1.1962 -0.3812  0.3333
  560MOL0     H73892  -0.079   7.336   7.387 -0.9140  0.4433 -1.0231
  560MOL0     H73893  -0.099   7.490   7.306 -1.2107  0.5464  1.6240
  560MOL0     H73894  -0.076   7.338   7.120 -0.2408 -1.9183  0.5058
  560MOL0     H73895   0.056   7.246   7.204  0.3017 -1.0287 -0.1213
  560MOL0     H73896   0.215   7.418   7.166 -0.1352  1.1207  0.2494
  560MOL0     H73897   0.097   7.544   7.146  1.9643  0.0154 -0.7457
  560MOL0     H73898   0.122   7.328   6.944  0.2054 -0.5259  1.0274
  560MOL0     H73899   0.025   7.480   6.941 -1.0785 -1.5930 -0.3108
  560MOL0     H73900   0.264   7.600   6.949 -0.4169 -1.0945  1.9402
  560MOL0     H73901   0.222   7.513   6.794  1.6902 -1.4175 -0.0603
  560MOL0     H73902   0.224   7.198   7.966  1.6836 -1.6872  0.9085
  560MOL0     H73903   0.394   7.223   8.127  0.7796 -0.3102 -0.0272
  560MOL0     H73904   0.740   7.466   8.310 -1.9369 -2.3039  0.8742
  560MOL0     H73905   0.855   7.524   8.536  0.4699  0.5789  0.0562
  560MOL0     H73906   2.195   8.257   9.397  3.0778  1.4938 -0.3070
  560MOL0     H73907   2.377   8.239   9.235 -0.0972  1.9724  2.2651
  560MOL0     H73908   2.585   8.142   8.986  0.8900 -0.1568  1.0361
  560MOL0     H73909   2.820   8.187   8.919 -1.2007 -0.2877  0.3258
  560MOL0     H73910   2.979   8.374   8.940  2.2696 -0.8086  0.3212
  560MOL0     H73911   3.005   8.527   8.851  4.2423 -0.1106  3.2865
  560MOL0     H73912   3.212   8.396   8.870 -0.5355  1.9686 -0.3943
  560MOL0     H73913   3.131   8.267   8.762  0.1651 -0.4796 -0.3994
  560MOL0     H73914   3.214   8.553   8.721  1.1287  0.1862 -2.0732
  560MOL0     H73915   3.101   8.479   8.617  0.0180  0.0370 -0.3459
  560MOL0     H73916   3.334   8.472   8.540 -3.2879  2.4391  0.8867
  560MOL0     H73917   3.383   8.373   8.689  0.5911 -3.4333 -1.6148
  560MOL0     H73918   3.257   8.048   8.462 -2.6056 -0.8051  0.6116
  560MOL0     H73919   2.708   8.503   8.666  0.0915  1.2729  1.1414
  560MOL0     H73920   2.467   8.473   8.727 -0.8395  0.7445  2.6720
  561MOL0     O73921   4.866   7.440   6.698  0.0571 -0.2409 -0.3728
  561MOL0     C73922   4.841   7.541   6.633 -0.1245 -0.7044 -0.4596
  561MOL0     O73923   4.912   7.658   6.628 -0.0704  0.4503  0.1747
  561MOL0     C73924   5.022   7.662   6.702 -0.1440 -0.4825  0.7561
  561MOL0     C73925   5.146   7.615   6.647  0.7179  1.0287 -0.6780
  561MOL0     C73926   5.264   7.615   6.731  0.0652  0.4342  0.5990
  561MOL0     C73927   5.266   7.663   6.856 -0.1517 -1.1591  0.2815
  561MOL0     O73928   5.371   7.671   6.940  0.7174 -0.0891  0.3509
  561MOL0     C73929   5.497   7.613   6.895  0.4745 -0.0772 -0.6593
  561MOL0     C73930   5.590   7.604   7.017 -0.0238 -0.2474  0.7201
  561MOL0     C73931   5.618   7.743   7.091  0.1292  1.0166  0.1049
  561MOL0     C73932   5.760   7.750   7.144  0.0035  0.6063 -0.0614
  561MOL0     C73933   5.785   7.881   7.218 -0.6277 -1.1804 -0.6622
  561MOL0     C73934   5.829   7.994   7.123  0.2733  0.5160  0.8188
  561MOL0     C73935   5.888   8.122   7.192  0.6538  0.4438  0.7324
  561MOL0     C73936   5.997   8.200   7.124 -0.6357 -0.0723  0.1030
  561MOL0     N73937   5.945   8.271   7.006 -0.5187 -0.9372 -0.3723
  561MOL0     C73938   5.987   8.265   6.872  0.1006 -0.3717  0.3718
  561MOL0     C73939   5.915   8.364   6.802 -0.1800  0.0902 -0.3410
  561MOL0     C73940   5.931   8.384   6.659 -0.0440  0.3282 -0.5284
  561MOL0     C73941   5.888   8.521   6.601 -0.4155  0.0314  0.6089
  561MOL0     C73942   5.884   8.529   6.445  0.2452  0.2729 -0.8965
  561MOL0     C73943   5.761   8.455   6.388  0.1649 -0.3779  0.4620
  561MOL0     O73944   5.718   8.521   6.262  1.0163 -0.5067  0.2252
  561MOL0     C73945   5.581   8.520   6.258 -0.5833  0.6362  0.0519
  561MOL0     C73946   5.514   8.401   6.247  0.2084 -0.5895 -0.5949
  561MOL0     C73947   5.373   8.392   6.244  0.3539  0.1325 -0.0767
  561MOL0     C73948   5.295   8.509   6.274 -0.1076 -0.0585  0.7324
  561MOL0     C73949   5.147   8.496   6.283  0.3264 -0.2367  0.9018
  561MOL0     O73950   5.087   8.606   6.315 -0.5182  0.3128 -0.0586
  561MOL0     C73951   4.949   8.624   6.306 -1.0838  0.2244  0.1035
  561MOL0     C73952   4.872   8.606   6.414  0.4541  0.1164 -0.2416
  561MOL0     C73953   4.731   8.615   6.413  0.0937 -0.1493 -0.7172
  561MOL0     C73954   4.665   8.651   6.296 -0.6176 -0.4466  0.3520
  561MOL0     O73955   4.529   8.641   6.270  0.1038  0.2493 -0.1996
  561MOL0     C73956   4.444   8.585   6.361 -0.0203  0.3112 -0.6852
  561MOL0     C73957   4.314   8.545   6.299 -0.4642 -0.3480  1.2957
  561MOL0     C73958   4.211   8.482   6.390  0.6283 -0.0980 -0.3785
  561MOL0     C73959   4.074   8.458   6.330  0.7594 -0.3789 -0.0025
  561MOL0     C73960   3.987   8.385   6.435  0.0173  0.3090 -1.2000
  561MOL0     C73961   3.846   8.390   6.413  0.4081 -0.1976 -0.7084
  561MOL0     C73962   3.818   8.302   6.282  0.2943  0.0254 -0.2345
  561MOL0     C73963   3.661   8.310   6.242  0.1800 -0.4635  0.2713
  561MOL0    Cl73964   3.551   8.256   6.372  0.2703  0.1150  0.3309
  561MOL0     C73965   4.744   8.682   6.175 -0.3558 -0.5756 -0.9517
  561MOL0     C73966   4.888   8.664   6.184 -0.2216 -0.0030  0.1436
  561MOL0     O73967   5.097   8.384   6.257 -0.5769 -0.9093  0.8790
  561MOL0     C73968   5.368   8.632   6.284  0.7478 -0.7944  0.3765
  561MOL0     C73969   5.507   8.640   6.277  0.0496 -0.6372 -0.7999
  561MOL0     N73970   5.840   8.439   6.891  0.4396  0.2754  0.2583
  561MOL0     N73971   5.859   8.378   7.005  0.9884 -1.3612  0.8128
  561MOL0     C73972   5.150   7.721   6.905  0.8292  0.1107 -0.7425
  561MOL0     C73973   5.035   7.719   6.828  0.0218  0.8561  0.2626
  561MOL0     C73974   4.718   7.538   6.544 -0.0194 -0.3040 -1.1514
  561MOL0     C73975   4.626   7.430   6.550 -0.4861  0.1965  0.2713
  561MOL0     C73976   4.507   7.431   6.479  0.1066  0.1609  0.5396
  561MOL0     C73977   4.476   7.537   6.405  0.1188 -0.5800  0.7984
  561MOL0     O73978   4.366   7.556   6.326 -0.3621  0.2003  0.0494
  561MOL0     C73979   4.346   7.462   6.214 -0.8911 -1.4413  0.0226
  561MOL0     C73980   4.210   7.503   6.141  0.1677  0.3538 -0.3041
  561MOL0     C73981   4.199   7.421   6.007  1.2830  0.5788  0.1121
  561MOL0     C73982   4.058   7.436   5.962 -0.6071  0.2414  0.2707
  561MOL0     C73983   4.051   7.365   5.829  0.1539 -0.8923 -0.8119
  561MOL0     C73984   4.018   7.328   5.717 -0.5335 -0.1314  0.1745
  561MOL0     C73985   4.564   7.642   6.394 -0.2481 -0.5574  0.2157
  561MOL0     C73986   4.681   7.647   6.467  0.1564 -0.5822 -0.3504
  561MOL0     H73987   5.143   7.581   6.544  2.4620 -0.2893 -0.3390
  561MOL0     H73988   5.357   7.575   6.691  0.7919  1.1580  1.4888
  561MOL0     H73989   5.546   7.681   6.824 -0.9345  0.1710 -1.4467
  561MOL0     H73990   5.492   7.512   6.852 -1.2851 -0.6521  0.7805
  561MOL0     H73991   5.673   7.542   6.981 -0.5857 -2.0136  2.2924
  561MOL0     H73992   5.544   7.537   7.090 -0.1950  0.0690  0.9055
  561MOL0     H73993   5.543   7.744   7.170 -0.9557  1.4334 -0.9028
  561MOL0     H73994   5.601   7.823   7.019  1.3652  1.2181  0.0095
  561MOL0     H73995   5.773   7.673   7.220 -1.9221  1.5486  1.2920
  561MOL0     H73996   5.827   7.746   7.058 -1.1867 -0.2400 -0.9876
  561MOL0     H73997   5.870   7.870   7.286  0.4055  3.2069 -0.9864
  561MOL0     H73998   5.696   7.904   7.277 -2.7136 -3.7282 -2.5416
  561MOL0     H73999   5.741   8.016   7.063 -0.3892 -1.7564  0.8698
  561MOL0     H74000   5.914   7.967   7.059  0.3023  2.5257 -0.0726
  561MOL0     H74001   5.805   8.184   7.229 -0.6529 -0.3230 -0.7607
  561MOL0     H74002   5.936   8.083   7.282  4.3433  1.9752 -0.3791
  561MOL0     H74003   6.087   8.146   7.095 -0.1488  0.9746 -0.3734
  561MOL0     H74004   6.006   8.274   7.204  0.2751  1.0987 -1.0413
  561MOL0     H74005   6.045   8.193   6.817 -0.1215  0.5512 -1.1228
  561MOL0     H74006   5.873   8.302   6.616 -1.2619 -1.7253  4.3102
  561MOL0     H74007   6.035   8.358   6.641 -0.3019 -1.8613  0.8288
  561MOL0     H74008   5.959   8.599   6.630 -1.6725  0.8232  1.6777
  561MOL0     H74009   5.790   8.550   6.639  0.7226  0.6321  3.3922
  561MOL0     H74010   5.874   8.635   6.419 -0.5010  0.3561 -0.2796
  561MOL0     H74011   5.972   8.484   6.397  1.4826  1.0006  0.5967
  561MOL0     H74012   5.686   8.453   6.468 -2.8453  0.7090 -2.1462
  561MOL0     H74013   5.786   8.349   6.375  1.8586  0.2353 -1.9435
  561MOL0     H74014   5.569   8.311   6.221  1.8238  0.5337 -1.2498
  561MOL0     H74015   5.338   8.292   6.221  3.0110 -1.2082  1.1958
  561MOL0     H74016   4.929   8.587   6.504 -1.1806  2.4247  1.4016
  561MOL0     H74017   4.667   8.604   6.500  2.3303 -2.5857  0.7747
  561MOL0     H74018   4.426   8.665   6.433  0.2201  1.0686 -1.4396
  561MOL0     H74019   4.487   8.488   6.388 -1.5519 -0.3432 -0.4980
  561MOL0     H74020   4.345   8.481   6.215  1.5382  1.3120  0.6897
  561MOL0     H74021   4.275   8.635   6.251  2.1482 -0.1139 -0.6074
  561MOL0     H74022   4.191   8.549   6.474 -1.9007 -1.4829  0.2144
  561MOL0     H74023   4.248   8.385   6.424 -0.0471 -0.5669 -0.9656
  561MOL0     H74024   4.021   8.549   6.304 -3.1930 -2.9732 -1.9348
  561MOL0     H74025   4.075   8.405   6.234 -0.9938  0.3533 -0.4502
  561MOL0     H74026   4.015   8.414   6.537 -0.0226 -0.1284 -1.0625
  561MOL0     H74027   4.016   8.280   6.421  0.7814  0.4665 -0.8257
  561MOL0     H74028   3.794   8.486   6.410  1.6336  0.4954 -0.5593
  561MOL0     H74029   3.802   8.341   6.501  0.9802 -0.3003 -0.4730
  561MOL0     H74030   3.876   8.321   6.192 -3.1009  3.8854 -1.9625
  561MOL0     H74031   3.829   8.196   6.307 -0.3946  0.2068  0.9285
  561MOL0     H74032   3.643   8.250   6.153  0.1068 -0.7041  0.4479
  561MOL0     H74033   3.631   8.413   6.222  1.2215  0.4180  2.8666
  561MOL0     H74034   4.697   8.720   6.085 -1.2820  1.6574  0.3791
  561MOL0     H74035   4.947   8.681   6.095  0.2656 -0.0253  0.4612
  561MOL0     H74036   5.310   8.723   6.289 -2.0340 -2.4913  2.1315
  561MOL0     H74037   5.565   8.731   6.290  0.7229 -1.2272  0.4609
  561MOL0     H74038   5.157   7.759   7.007  1.8956  2.3759 -1.5978
  561MOL0     H74039   4.946   7.750   6.883 -0.9033  0.4416 -0.9600
  561MOL0     H74040   4.648   7.334   6.597 -0.2428 -1.5139 -3.0708
  561MOL0     H74041   4.437   7.350   6.495 -0.5550  0.8044  0.9865
  561MOL0     H74042   4.344   7.361   6.254  0.6829 -1.5433 -0.0940
  561MOL0     H74043   4.432   7.479   6.148 -0.8637  1.4092  0.6749
  561MOL0     H74044   4.123   7.493   6.207 -0.3588 -1.3549 -1.2014
  561MOL0     H74045   4.220   7.610   6.120  0.1128 -0.1578 -3.4605
  561MOL0     H74046   4.217   7.315   6.024  1.5088  0.9057  2.1841
  561MOL0     H74047   4.273   7.452   5.932  0.3997 -0.3827 -1.2102
  561MOL0     H74048   3.990   7.399   6.039 -2.2143  1.0272 -0.7087
  561MOL0     H74049   4.058   7.545   5.951  2.1653  0.4314  1.4319
  561MOL0     H74050   3.976   7.279   5.632 -1.5472 -2.3921  1.8580
  561MOL0     H74051   4.528   7.720   6.327  2.2383  0.1619 -0.3950
  561MOL0     H74052   4.737   7.740   6.464  0.6468 -0.8433  0.3576
  562MOL0     O74053   9.274   5.666   6.914  0.4081  1.0107 -0.0079
  562MOL0     C74054   9.266   5.565   6.987  0.0646  0.0402 -1.1517
  562MOL0     O74055   9.374   5.500   7.044 -0.5963  0.4587  0.4225
  562MOL0     C74056   9.501   5.538   7.039  0.9360 -0.7307  0.0040
  562MOL0     C74057   9.576   5.514   7.152  0.3453 -0.2942 -1.0153
  562MOL0     C74058   9.713   5.540   7.161  0.5991  0.3012 -0.1334
  562MOL0     C74059   9.776   5.587   7.036  0.1398 -0.0915  0.5076
  562MOL0     O74060   9.902   5.637   7.037 -0.1139 -0.9632 -0.4983
  562MOL0     C74061   9.990   5.532   7.011 -0.4282  0.0558 -0.9681
  562MOL0     C74062  10.136   5.580   7.050  0.4746  0.0045 -0.6030
  562MOL0     C74063  10.221   5.468   7.017 -0.5045  0.0688 -0.3559
  562MOL0     C74064  10.371   5.513   7.018  0.3632  0.1329 -1.0699
  562MOL0     C74065  10.461   5.391   6.962  0.3230  0.0993 -0.1482
  562MOL0     C74066  10.449   5.244   7.009  0.2283 -0.2868 -0.6367
  562MOL0     C74067  10.476   5.227   7.166  0.6865 -0.3711  0.5980
  562MOL0     C74068  10.491   5.079   7.216 -0.8379 -0.2892 -0.7915
  562MOL0     N74069  10.360   5.012   7.217 -0.2383  0.1978 -0.0949
  562MOL0     C74070  10.273   5.028   7.324  0.4196 -1.1300  0.5993
  562MOL0     C74071  10.158   4.969   7.273  1.0769 -0.6202  0.1165
  562MOL0     C74072  10.024   4.968   7.351 -0.1078 -0.7906  1.1091
  562MOL0     C74073   9.994   4.830   7.408 -0.5168 -0.4066 -0.5232
  562MOL0     C74074  10.032   4.830   7.550 -0.3753 -0.1322 -0.5700
  562MOL0     C74075   9.953   4.720   7.627 -0.2582 -0.4195  0.0979
  562MOL0     O74076   9.988   4.735   7.764 -0.2408 -0.1143  0.0167
  562MOL0     C74077   9.897   4.705   7.863  0.6688  0.1220 -0.5691
  562MOL0     C74078   9.934   4.744   7.990  0.8072  0.6134 -0.0910
  562MOL0     C74079   9.851   4.713   8.104 -0.1009  0.2310  1.0558
  562MOL0     C74080   9.741   4.624   8.088 -1.5237 -0.3938  0.6614
  562MOL0     C74081   9.635   4.621   8.184  0.0547 -0.2257 -0.4722
  562MOL0     O74082   9.680   4.625   8.312 -0.7338 -0.1604  0.6852
  562MOL0     C74083   9.599   4.614   8.428 -0.6490  0.4425 -0.1906
  562MOL0     C74084   9.483   4.544   8.429 -0.8207 -0.7234 -0.0403
  562MOL0     C74085   9.409   4.524   8.545  0.2701  0.6224  0.4504
  562MOL0     C74086   9.462   4.567   8.670  0.4656 -1.3465  0.3583
  562MOL0     O74087   9.388   4.560   8.781  0.1908  0.4861 -0.0918
  562MOL0     C74088   9.359   4.435   8.834 -0.5373 -0.4026  0.5604
  562MOL0     C74089   9.219   4.439   8.891  0.1457  0.3755  0.4350
  562MOL0     C74090   9.178   4.295   8.941 -0.2961  0.6543 -0.1894
  562MOL0     C74091   9.031   4.271   8.948  1.1206  0.7394 -0.6844
  562MOL0     C74092   8.951   4.369   9.023  0.2767 -0.7628 -0.3580
  562MOL0     C74093   8.801   4.353   8.998 -0.0561  0.1113  0.5054
  562MOL0     C74094   8.732   4.242   9.097  0.6237  0.5647 -0.7509
  562MOL0     C74095   8.675   4.290   9.228  0.4484  1.0717  0.3502
  562MOL0    Cl74096   8.520   4.376   9.192  0.1169 -0.3117 -0.3947
  562MOL0     C74097   9.582   4.644   8.667  0.6945 -0.3969  0.3352
  562MOL0     C74098   9.650   4.664   8.548  0.0456  0.0172 -0.0596
  562MOL0     O74099   9.520   4.602   8.149 -0.1405  0.4233  0.2390
  562MOL0     C74100   9.727   4.560   7.959  0.5555  0.6904  0.4401
  562MOL0     C74101   9.804   4.610   7.854  0.2423 -0.1828 -0.8713
  562MOL0     N74102  10.181   4.922   7.149 -0.4632 -0.7211  0.5170
  562MOL0     N74103  10.305   4.950   7.110  0.4862 -0.1471  0.5886
  562MOL0     C74104   9.700   5.603   6.916 -0.1906  0.2820 -0.4831
  562MOL0     C74105   9.562   5.584   6.919 -0.3365 -0.4782 -0.0524
  562MOL0     C74106   9.134   5.513   7.030  0.6457  1.0031 -0.2251
  562MOL0     C74107   9.130   5.440   7.151 -0.3201  0.5502  0.3829
  562MOL0     C74108   9.007   5.386   7.189 -0.5836 -0.2393 -0.1287
  562MOL0     C74109   8.883   5.408   7.122 -0.0506 -0.1698  0.0625
  562MOL0     O74110   8.770   5.337   7.146  0.0573 -0.5698 -0.1627
  562MOL0     C74111   8.773   5.209   7.216 -0.3817 -0.0882  0.1056
  562MOL0     C74112   8.665   5.118   7.164  0.5905  0.0507 -0.1897
  562MOL0     C74113   8.528   5.143   7.240 -0.0078 -0.1112  0.1434
  562MOL0     C74114   8.444   5.262   7.206  0.4732  0.2117  0.5837
  562MOL0     C74115   8.363   5.247   7.074 -0.8076 -0.3166 -0.7875
  562MOL0     C74116   8.303   5.210   6.974  0.1966 -0.1135 -0.0166
  562MOL0     C74117   8.889   5.480   7.011 -0.9133 -0.2718 -0.5718
  562MOL0     C74118   9.013   5.530   6.960 -0.5922 -0.1548 -0.0702
  562MOL0     H74119   9.519   5.478   7.237 -0.6873  4.5570  0.6524
  562MOL0     H74120   9.772   5.525   7.251 -1.9693 -1.8653  1.3191
  562MOL0     H74121   9.988   5.499   6.907 -0.9786 -4.2623  0.2271
  562MOL0     H74122   9.960   5.442   7.065 -2.6447  1.2921  0.0181
  562MOL0     H74123  10.138   5.606   7.156 -0.6805  3.6412 -1.3560
  562MOL0     H74124  10.159   5.672   6.995  4.6829  0.3289  1.3799
  562MOL0     H74125  10.197   5.448   6.912  0.4277  1.2254 -0.8128
  562MOL0     H74126  10.223   5.376   7.076 -1.7170  0.4014  0.2318
  562MOL0     H74127  10.379   5.611   6.968 -0.5929 -0.1324 -1.7852
  562MOL0     H74128  10.378   5.546   7.122 -1.4729 -2.3471 -0.0674
  562MOL0     H74129  10.564   5.423   6.977 -0.9487  3.8368  2.0502
  562MOL0     H74130  10.431   5.396   6.857 -3.8200  0.8855  0.8787
  562MOL0     H74131  10.525   5.185   6.957  0.4409 -0.5194 -0.0757
  562MOL0     H74132  10.351   5.200   6.988  0.3438 -0.6266 -0.4697
  562MOL0     H74133  10.564   5.283   7.199  0.8569 -1.3143  1.8053
  562MOL0     H74134  10.393   5.272   7.221 -1.5747 -0.1810 -2.6498
  562MOL0     H74135  10.540   5.089   7.313  1.9039  3.6431 -2.2883
  562MOL0     H74136  10.556   5.036   7.139  1.6101  1.4378  0.1524
  562MOL0     H74137  10.281   5.090   7.413  0.0433 -0.1883 -0.0036
  562MOL0     H74138   9.943   4.989   7.281  1.4316 -0.2101 -0.5516
  562MOL0     H74139  10.025   5.047   7.427  0.6097 -0.1674  0.4585
  562MOL0     H74140  10.046   4.749   7.355 -0.1800 -0.7097  0.2500
  562MOL0     H74141   9.887   4.809   7.408 -1.1092  1.7054  3.0517
  562MOL0     H74142  10.136   4.795   7.557 -0.7283 -1.0078  0.4986
  562MOL0     H74143  10.019   4.928   7.597  1.0249 -1.0882  2.0075
  562MOL0     H74144   9.990   4.622   7.597 -1.3816 -2.0827  3.5731
  562MOL0     H74145   9.845   4.719   7.609 -0.3583  0.0012  0.6456
  562MOL0     H74146  10.019   4.811   7.997  1.3872  0.1899 -2.2254
  562MOL0     H74147   9.865   4.763   8.199  0.1005  0.5252  0.8758
  562MOL0     H74148   9.435   4.503   8.341 -1.5767  0.6937 -0.3106
  562MOL0     H74149   9.317   4.467   8.537 -0.2750  1.6338 -1.0961
  562MOL0     H74150   9.429   4.408   8.913 -0.9467 -1.5720  0.5325
  562MOL0     H74151   9.370   4.354   8.762 -3.1555 -0.9420  0.6411
  562MOL0     H74152   9.145   4.478   8.822  1.0749 -0.2094 -0.9305
  562MOL0     H74153   9.224   4.504   8.979  3.5694 -0.8970  1.3715
  562MOL0     H74154   9.223   4.285   9.040 -0.1601  1.6638 -0.1405
  562MOL0     H74155   9.214   4.223   8.866 -2.6924  0.0216 -0.8169
  562MOL0     H74156   8.989   4.262   8.848 -0.5978 -1.4758  0.1600
  562MOL0     H74157   9.002   4.175   8.991 -0.4498  1.3656 -0.2395
  562MOL0     H74158   8.977   4.473   9.000 -1.1893 -0.3388 -0.1883
  562MOL0     H74159   8.979   4.351   9.127 -0.4831  1.4909  0.2968
  562MOL0     H74160   8.775   4.328   8.895 -1.6791  2.8875  0.1577
  562MOL0     H74161   8.747   4.445   9.023 -0.2909 -0.5537  2.6443
  562MOL0     H74162   8.651   4.188   9.048  2.0020 -1.0751 -1.3063
  562MOL0     H74163   8.810   4.167   9.117  1.4559  1.3211 -1.0957
  562MOL0     H74164   8.740   4.351   9.290  0.1091  2.0164 -0.1953
  562MOL0     H74165   8.651   4.198   9.283 -1.9862  1.9010  0.8044
  562MOL0     H74166   9.627   4.688   8.756  2.2725 -0.9880 -0.1439
  562MOL0     H74167   9.740   4.725   8.551 -1.3156  2.1171  2.5386
  562MOL0     H74168   9.662   4.474   7.956  2.2674 -0.6789  0.5824
  562MOL0     H74169   9.791   4.580   7.750 -5.5909  2.4036 -1.2612
  562MOL0     H74170   9.733   5.640   6.819  1.5620  2.6245  0.8875
  562MOL0     H74171   9.508   5.587   6.825 -1.6450  0.7265  0.6902
  562MOL0     H74172   9.211   5.411   7.217 -0.9103 -1.2423  0.3740
  562MOL0     H74173   9.001   5.331   7.283 -1.3942  0.0796  0.0146
  562MOL0     H74174   8.767   5.225   7.324  2.1143  2.0205  0.0348
  562MOL0     H74175   8.866   5.154   7.198 -0.2418 -0.9619  3.0124
  562MOL0     H74176   8.658   5.130   7.055 -1.4238  3.7473  0.1869
  562MOL0     H74177   8.695   5.016   7.189  0.9619  0.2708  0.2749
  562MOL0     H74178   8.555   5.148   7.346  1.9746 -0.7905 -0.2865
  562MOL0     H74179   8.457   5.060   7.231 -2.2122  1.5215  1.4597
  562MOL0     H74180   8.369   5.275   7.284 -0.1641  0.0562  0.0060
  562MOL0     H74181   8.501   5.352   7.181  0.1609 -0.2894 -2.3204
  562MOL0     H74182   8.224   5.194   6.904 -1.7204 -0.2061  2.0844
  562MOL0     H74183   8.798   5.483   6.952 -0.5200  1.9953 -1.1254
  562MOL0     H74184   8.997   5.589   6.870 -4.3982 -0.6307  0.1406
  563MOL0     O74185   0.860   8.248  10.001 -0.1005 -0.4421 -0.0593
  563MOL0     C74186   0.876   8.193  10.105 -0.6675 -0.7852 -0.0099
  563MOL0     O74187   0.809   8.084  10.145  0.2205 -0.0956  0.8934
  563MOL0     C74188   0.693   8.041  10.077 -0.4618 -0.6420 -0.7207
  563MOL0     C74189   0.680   8.023   9.937 -0.0762 -1.0186  0.1567
  563MOL0     C74190   0.557   7.973   9.882 -0.0065 -0.5525 -0.6046
  563MOL0     C74191   0.452   7.937   9.970  0.5322 -0.6140 -0.9165
  563MOL0     O74192   0.331   7.885   9.935 -0.6149 -0.3258  1.0104
  563MOL0     C74193   0.304   7.880   9.787  0.0224 -0.4904  0.8887
  563MOL0     C74194   0.174   7.822   9.742  0.6524  0.2299  0.2107
  563MOL0     C74195   0.152   7.849   9.597  0.9782 -0.1584 -0.1162
  563MOL0     C74196   0.011   7.820   9.556  0.2790 -0.1410  0.3751
  563MOL0     C74197  -0.003   7.829   9.411  0.4327 -0.5329 -1.1503
  563MOL0     C74198  -0.132   7.763   9.353 -0.0183 -0.2379 -0.7370
  563MOL0     C74199  -0.176   7.840   9.227 -0.9553  0.5211 -0.0404
  563MOL0     C74200  -0.253   7.970   9.260  0.2366  0.0372 -0.3441
  563MOL0     N74201  -0.384   7.934   9.311  0.2479 -0.4900  0.5065
  563MOL0     C74202  -0.477   7.889   9.222  0.5817 -0.1575 -0.5280
  563MOL0     C74203  -0.574   7.833   9.302 -0.4726  0.5022  0.1116
  563MOL0     C74204  -0.716   7.780   9.268  0.8262 -0.6917  1.3020
  563MOL0     C74205  -0.823   7.889   9.236  0.1174 -0.7161  0.0183
  563MOL0     C74206  -0.934   7.835   9.161 -0.4188 -0.1830  0.5713
  563MOL0     C74207  -1.015   7.957   9.121  0.8354 -0.0592  0.2767
  563MOL0     O74208  -1.149   7.913   9.124 -0.0934 -0.2933  0.4646
  563MOL0     C74209  -1.251   8.005   9.101 -0.0447 -0.2225  0.6032
  563MOL0     C74210  -1.232   8.145   9.076 -0.1171  0.4524  0.2196
  563MOL0     C74211  -1.349   8.223   9.053  0.0657 -0.4733  0.4077
  563MOL0     C74212  -1.483   8.167   9.029  0.2142 -0.1597 -0.7050
  563MOL0     C74213  -1.599   8.249   8.988 -0.0250 -0.2564 -0.3899
  563MOL0     O74214  -1.720   8.183   8.990  0.8312 -0.2237  0.0145
  563MOL0     C74215  -1.843   8.234   8.949  0.7983  0.0536 -0.0654
  563MOL0     C74216  -1.959   8.179   8.989  0.1802  0.1096  0.2420
  563MOL0     C74217  -2.082   8.228   8.954  0.4165 -0.0192  0.6088
  563MOL0     C74218  -2.092   8.346   8.885  0.1564 -0.1805 -0.2181
  563MOL0     O74219  -2.218   8.385   8.858 -0.1384 -1.1372  0.3174
  563MOL0     C74220  -2.245   8.421   8.723  0.1316  0.5542  0.0151
  563MOL0     C74221  -2.284   8.571   8.717 -0.4065  1.0266  0.3483
  563MOL0     C74222  -2.417   8.596   8.644  1.1936 -0.1622 -0.2880
  563MOL0     C74223  -2.509   8.713   8.683 -1.0810 -0.2896 -0.2466
  563MOL0     C74224  -2.645   8.719   8.615  0.3919  0.6154 -0.3851
  563MOL0     C74225  -2.721   8.848   8.657  0.1366 -0.6949 -0.3289
  563MOL0     C74226  -2.862   8.850   8.590 -0.4024  0.4969  0.1883
  563MOL0     C74227  -2.962   8.943   8.663 -0.4266 -0.7429 -0.1570
  563MOL0    Cl74228  -2.882   9.097   8.666  0.0412 -0.3784 -0.4447
  563MOL0     C74229  -1.971   8.403   8.835 -0.3159  0.4849 -0.2874
  563MOL0     C74230  -1.851   8.342   8.868 -0.8469  0.0640  0.4416
  563MOL0     O74231  -1.579   8.367   8.966  0.9937  0.4921  0.7611
  563MOL0     C74232  -1.496   8.028   9.057 -0.2091  0.0955  0.8489
  563MOL0     C74233  -1.381   7.952   9.089  0.3424  0.2374  0.0978
  563MOL0     N74234  -0.535   7.846   9.438  0.1391  0.0397  0.8765
  563MOL0     N74235  -0.421   7.900   9.441  0.1933  0.4340  0.1298
  563MOL0     C74236   0.474   7.949  10.111  0.1558  0.4229  1.2826
  563MOL0     C74237   0.596   7.994  10.160  1.1446 -0.2561 -0.3029
  563MOL0     C74238   0.973   8.251  10.203 -1.5735  0.7939  0.6557
  563MOL0     C74239   0.985   8.207  10.340  0.4416  1.2591  0.2844
  563MOL0     C74240   1.092   8.249  10.423  0.0607 -0.0618  0.4142
  563MOL0     C74241   1.192   8.338  10.370  0.2116 -0.8179 -0.2364
  563MOL0     O74242   1.309   8.358  10.440 -0.2396 -0.5164  1.0987
  563MOL0     C74243   1.314   8.333  10.580 -0.7450  0.4940  0.0014
  563MOL0     C74244   1.381   8.199  10.607 -0.2661  0.5835  0.4309
  563MOL0     C74245   1.521   8.197  10.549 -0.6341 -0.3530  0.7893
  563MOL0     C74246   1.582   8.059  10.575  0.2553 -1.1147  0.7196
  563MOL0     C74247   1.730   8.056  10.549 -0.5441 -0.3492  0.0079
  563MOL0     C74248   1.849   8.036  10.537 -0.1659 -0.2979  0.2391
  563MOL0     C74249   1.183   8.392  10.247  0.4636  0.5262 -0.1879
  563MOL0     C74250   1.072   8.354  10.161 -0.5283  0.1758  0.0206
  563MOL0     H74251   0.766   8.048   9.875  0.4521  1.0035  1.5820
  563MOL0     H74252   0.565   7.932   9.781  0.9850 -1.4650 -0.1774
  563MOL0     H74253   0.386   7.834   9.732  2.5793  2.9285  1.4826
  563MOL0     H74254   0.322   7.983   9.754  2.6346 -2.2465 -4.3447
  563MOL0     H74255   0.094   7.870   9.799  1.0035  1.4121 -0.2635
  563MOL0     H74256   0.181   7.714   9.755 -1.2562  0.2993  2.4324
  563MOL0     H74257   0.219   7.782   9.542  0.0712 -1.6617  0.5424
  563MOL0     H74258   0.168   7.954   9.573  3.2355 -0.0927  1.3720
  563MOL0     H74259  -0.002   7.715   9.585  3.9833 -0.1824  2.5446
  563MOL0     H74260  -0.062   7.887   9.602  1.6612  0.7789  1.2949
  563MOL0     H74261   0.083   7.785   9.360 -0.6006 -1.6330 -2.0028
  563MOL0     H74262   0.002   7.935   9.382  0.4747  0.3608  1.8122
  563MOL0     H74263  -0.212   7.781   9.425 -0.4923  0.6590 -1.4553
  563MOL0     H74264  -0.113   7.657   9.339 -1.1804 -0.7088  0.9900
  563MOL0     H74265  -0.086   7.862   9.169 -1.1052 -0.5915 -0.7217
  563MOL0     H74266  -0.239   7.771   9.170  1.6623 -1.8070 -0.3714
  563MOL0     H74267  -0.258   8.038   9.174  0.1853  0.4007 -0.0597
  563MOL0     H74268  -0.196   8.026   9.335 -1.1667 -1.6108  2.0909
  563MOL0     H74269  -0.479   7.894   9.114 -3.2968  3.2520 -0.5542
  563MOL0     H74270  -0.747   7.718   9.352 -1.4113 -0.9612  0.3357
  563MOL0     H74271  -0.715   7.712   9.182 -2.1934  1.7407 -0.9056
  563MOL0     H74272  -0.774   7.971   9.183 -1.7840  1.7326  1.8195
  563MOL0     H74273  -0.861   7.933   9.328 -0.4816 -1.6475  0.2240
  563MOL0     H74274  -0.905   7.793   9.065 -1.4708  1.3384 -0.4658
  563MOL0     H74275  -0.997   7.762   9.212  2.2074  0.2579  4.9162
  563MOL0     H74276  -0.977   8.010   9.033  0.0556 -2.6795 -1.7592
  563MOL0     H74277  -1.006   8.032   9.200  3.7104  1.5875 -1.4484
  563MOL0     H74278  -1.143   8.207   9.087  0.7852 -0.7973  0.1364
  563MOL0     H74279  -1.344   8.329   9.032  2.0849 -0.6580 -0.2143
  563MOL0     H74280  -1.946   8.097   9.059  4.3690 -0.7910 -1.3423
  563MOL0     H74281  -2.166   8.161   8.971  1.5114 -1.6948 -0.3313
  563MOL0     H74282  -2.324   8.346   8.710  1.7277 -1.7126  2.1431
  563MOL0     H74283  -2.161   8.399   8.656  0.6550  1.5322  0.3378
  563MOL0     H74284  -2.204   8.630   8.670  0.0399  0.8071  0.8184
  563MOL0     H74285  -2.293   8.615   8.817  1.5785  3.1199 -0.2947
  563MOL0     H74286  -2.475   8.503   8.648  1.0552 -0.2232 -2.2964
  563MOL0     H74287  -2.399   8.621   8.539 -0.2022 -0.8342 -0.7110
  563MOL0     H74288  -2.527   8.714   8.791 -0.6453  0.6239 -0.1699
  563MOL0     H74289  -2.461   8.809   8.666 -0.0916 -0.5904  0.7240
  563MOL0     H74290  -2.704   8.633   8.648  1.1620  0.6761  1.2369
  563MOL0     H74291  -2.637   8.719   8.506  0.4160 -1.1684 -0.4054
  563MOL0     H74292  -2.667   8.938   8.626  0.9675 -1.2276 -0.4782
  563MOL0     H74293  -2.728   8.852   8.766  1.1621 -0.6765 -0.2479
  563MOL0     H74294  -2.855   8.875   8.484  2.0016 -0.7754 -0.0315
  563MOL0     H74295  -2.912   8.755   8.609 -2.3090  0.6478 -3.3158
  563MOL0     H74296  -2.975   8.918   8.769  1.5118  1.1953  0.5980
  563MOL0     H74297  -3.055   8.953   8.606  0.6272  3.3655 -1.4546
  563MOL0     H74298  -1.982   8.498   8.784 -3.2439 -1.2594 -3.2656
  563MOL0     H74299  -1.759   8.382   8.825  0.7387  0.1848  3.6519
  563MOL0     H74300  -1.599   7.995   9.048  0.6186 -2.5547  0.3799
  563MOL0     H74301  -1.388   7.846   9.109  2.2532 -0.5430 -2.7427
  563MOL0     H74302   0.401   7.917  10.185  1.3380  1.1290  2.8224
  563MOL0     H74303   0.615   7.994  10.267 -0.5587  1.5512  0.0482
  563MOL0     H74304   0.921   8.124  10.366  0.8551  0.3114 -1.5591
  563MOL0     H74305   1.084   8.199  10.519 -0.4882  1.1157  1.0081
  563MOL0     H74306   1.216   8.351  10.626 -0.6141  2.3747 -0.3774
  563MOL0     H74307   1.380   8.415  10.610  0.3173 -1.0629  2.1577
  563MOL0     H74308   1.379   8.178  10.714  1.8250 -1.0898  0.2091
  563MOL0     H74309   1.338   8.114  10.555 -1.3148  2.0800 -1.2755
  563MOL0     H74310   1.580   8.269  10.607  1.8452 -2.1772  0.7114
  563MOL0     H74311   1.517   8.218  10.442 -0.7077 -0.6758  0.7280
  563MOL0     H74312   1.563   8.028  10.678  3.1599  2.6012  2.6438
  563MOL0     H74313   1.532   7.996  10.500  0.1777 -1.9726  1.4733
  563MOL0     H74314   1.953   8.020  10.519 -0.5133 -1.0737 -1.2388
  563MOL0     H74315   1.262   8.458  10.213  0.8324  2.2102  3.4378
  563MOL0     H74316   1.079   8.395  10.061 -0.5997 -0.6188 -0.3181
  564MOL0     O74317   1.908   3.059   3.497  0.6226 -0.0909  0.2502
  564MOL0     C74318   1.926   3.182   3.473  0.8054  0.1548  0.1564
  564MOL0     O74319   1.836   3.283   3.499  0.1597 -0.2941 -0.4669
  564MOL0     C74320   1.721   3.242   3.553 -0.5303  0.8985  0.1191
  564MOL0     C74321   1.615   3.182   3.481 -0.3284  0.2947  0.5400
  564MOL0     C74322   1.488   3.164   3.536  0.6459  1.1378  0.1188
  564MOL0     C74323   1.461   3.199   3.674 -0.8190 -0.4452  1.4871
  564MOL0     O74324   1.340   3.201   3.729  0.2121  0.6541  0.3355
  564MOL0     C74325   1.245   3.098   3.697  0.1151 -0.2438  0.6457
  564MOL0     C74326   1.143   3.068   3.805 -0.6511  0.4690 -0.6431
  564MOL0     C74327   1.066   2.942   3.761  0.0584 -0.0618  0.0647
  564MOL0     C74328   1.001   2.872   3.875  0.7125  0.0352  0.0172
  564MOL0     C74329   0.886   2.785   3.812 -0.1769 -0.1882 -0.8236
  564MOL0     C74330   0.803   2.724   3.931 -0.1161  0.2926  0.1236
  564MOL0     C74331   0.723   2.603   3.865  0.2289  0.7887  0.8483
  564MOL0     C74332   0.618   2.526   3.950 -0.4196  0.6752  1.0318
  564MOL0     N74333   0.502   2.609   3.984  0.2481 -0.9259 -0.0279
  564MOL0     C74334   0.457   2.626   4.115 -1.2673  0.6554 -0.7321
  564MOL0     C74335   0.360   2.717   4.108 -0.0820  0.0519  0.1753
  564MOL0     C74336   0.280   2.776   4.223 -0.2209 -0.7077  0.4013
  564MOL0     C74337   0.153   2.698   4.241 -0.2530  0.7113  0.3334
  564MOL0     C74338   0.087   2.746   4.368  0.2214 -0.5276 -0.7382
  564MOL0     C74339  -0.053   2.685   4.392 -0.1500  1.4188  0.6870
  564MOL0     O74340  -0.119   2.738   4.510 -0.2934  0.3598  0.1368
  564MOL0     C74341  -0.251   2.751   4.488 -0.2278  0.2098 -0.8709
  564MOL0     C74342  -0.336   2.638   4.467 -0.6215  0.2443 -0.7037
  564MOL0     C74343  -0.472   2.658   4.458  0.7642  0.6205  0.2789
  564MOL0     C74344  -0.526   2.792   4.472  0.0261  0.6847  0.0210
  564MOL0     C74345  -0.673   2.816   4.476 -0.7707  0.0657  0.8719
  564MOL0     O74346  -0.717   2.904   4.566  0.2789 -0.1697 -0.1142
  564MOL0     C74347  -0.841   2.932   4.605 -0.2343  1.1433  0.8486
  564MOL0     C74348  -0.856   2.974   4.740 -0.6094 -1.3721  0.1346
  564MOL0     C74349  -0.983   3.010   4.777  0.0568  0.2337  0.1799
  564MOL0     C74350  -1.097   3.003   4.688 -0.2580 -0.0358  0.2052
  564MOL0     O74351  -1.220   3.037   4.731 -0.2563  0.1105 -0.0095
  564MOL0     C74352  -1.336   3.003   4.664  0.1069 -0.2075  0.3241
  564MOL0     C74353  -1.461   3.015   4.762 -0.7509  0.6757 -0.6020
  564MOL0     C74354  -1.432   2.944   4.905  0.4054  0.8391 -0.2126
  564MOL0     C74355  -1.434   2.787   4.900 -0.3164  0.4969  0.0771
  564MOL0     C74356  -1.304   2.735   4.956 -0.2886  0.9810  0.6455
  564MOL0     C74357  -1.294   2.748   5.103 -0.4655  0.1075 -0.9922
  564MOL0     C74358  -1.148   2.739   5.152  0.2219 -0.2491 -0.1055
  564MOL0     C74359  -1.129   2.756   5.307  0.8561 -0.0149  0.7493
  564MOL0    Cl74360  -1.176   2.927   5.344 -0.1516  0.6946 -0.2145
  564MOL0     C74361  -1.074   2.953   4.560  0.0111 -0.0842 -0.6213
  564MOL0     C74362  -0.948   2.916   4.522  0.3910  0.1947  0.4833
  564MOL0     O74363  -0.738   2.743   4.404 -0.0843  0.0423  1.1602
  564MOL0     C74364  -0.443   2.901   4.495 -0.1490  0.4729  0.4787
  564MOL0     C74365  -0.311   2.876   4.505  0.7541 -0.3391 -0.8746
  564MOL0     N74366   0.340   2.757   3.973 -0.0374 -0.5737 -0.3605
  564MOL0     N74367   0.430   2.700   3.904 -0.7587 -0.0323 -0.6299
  564MOL0     C74368   1.565   3.255   3.742 -0.3258 -0.6598 -0.4299
  564MOL0     C74369   1.688   3.277   3.689 -0.5951 -0.1460  1.1789
  564MOL0     C74370   2.053   3.219   3.412 -0.5467 -0.5941  0.0650
  564MOL0     C74371   2.060   3.347   3.360  0.1101  0.7500  0.4611
  564MOL0     C74372   2.180   3.394   3.306  0.4101 -0.4631 -0.5517
  564MOL0     C74373   2.295   3.316   3.301 -0.1334 -0.4201 -0.0165
  564MOL0     O74374   2.420   3.342   3.249 -0.1091 -0.2816  0.5352
  564MOL0     C74375   2.447   3.479   3.215 -0.0566  0.6866  0.3221
  564MOL0     C74376   2.591   3.491   3.158 -0.0260 -0.2900  0.1460
  564MOL0     C74377   2.700   3.448   3.253 -1.1244 -0.3910  0.5500
  564MOL0     C74378   2.834   3.402   3.180  0.0297 -0.7684  0.2792
  564MOL0     C74379   2.918   3.515   3.142  0.5244 -0.2867  0.1016
  564MOL0     C74380   2.988   3.599   3.100 -0.5989 -0.2514  0.4212
  564MOL0     C74381   2.286   3.182   3.345  0.1564 -0.6422 -0.3959
  564MOL0     C74382   2.162   3.131   3.396  0.5322 -1.2903 -0.3769
  564MOL0     H74383   1.622   3.156   3.376 -1.6787 -1.1166  0.7769
  564MOL0     H74384   1.404   3.138   3.472  0.8307  1.2455 -0.1707
  564MOL0     H74385   1.301   3.007   3.671  0.2182 -0.8460  2.7396
  564MOL0     H74386   1.193   3.128   3.605 -2.4976 -0.4098  1.9655
  564MOL0     H74387   1.084   3.157   3.828  3.8933  3.2630  1.4496
  564MOL0     H74388   1.200   3.044   3.895  4.4288  0.2014 -3.6023
  564MOL0     H74389   1.140   2.884   3.704 -0.1175  1.0421 -1.3278
  564MOL0     H74390   0.997   2.981   3.686  0.1711  0.4258  0.2114
  564MOL0     H74391   1.071   2.798   3.917 -1.6057 -2.5171 -0.3510
  564MOL0     H74392   0.965   2.950   3.942  2.1571  2.0902 -1.4655
  564MOL0     H74393   0.921   2.710   3.740 -0.5356 -2.7519  1.5143
  564MOL0     H74394   0.817   2.848   3.755 -0.3962  0.3361  0.0020
  564MOL0     H74395   0.735   2.799   3.973 -1.3538 -1.1558  0.7859
  564MOL0     H74396   0.850   2.690   4.023  0.6927 -1.8584 -1.0091
  564MOL0     H74397   0.681   2.635   3.769  1.0853  4.0595  1.4421
  564MOL0     H74398   0.800   2.526   3.852  2.2197  2.2432  3.2260
  564MOL0     H74399   0.664   2.488   4.042  0.2607 -0.8903  0.0803
  564MOL0     H74400   0.592   2.438   3.890  3.2437  1.1580 -1.5689
  564MOL0     H74401   0.499   2.575   4.201  0.0293 -2.6384 -3.1149
  564MOL0     H74402   0.256   2.883   4.221  1.2130 -0.3480  0.7896
  564MOL0     H74403   0.340   2.773   4.315 -1.3864  0.8931  1.2580
  564MOL0     H74404   0.176   2.591   4.253 -1.3536  0.6234  1.9565
  564MOL0     H74405   0.095   2.720   4.151  2.2024  0.0800 -1.4897
  564MOL0     H74406   0.159   2.728   4.449 -1.4415  1.9334  1.4353
  564MOL0     H74407   0.065   2.853   4.371 -0.2337 -0.6077  2.5491
  564MOL0     H74408  -0.050   2.576   4.390 -0.1695  1.3691  2.2801
  564MOL0     H74409  -0.101   2.716   4.298  1.7631  0.7901 -0.5424
  564MOL0     H74410  -0.291   2.540   4.451  1.6665  1.2418 -0.8589
  564MOL0     H74411  -0.539   2.572   4.455  1.5364  0.0314 -1.1024
  564MOL0     H74412  -0.766   2.984   4.800 -1.3102 -0.4053  1.0822
  564MOL0     H74413  -1.001   3.037   4.881  2.1821 -0.5123  0.7965
  564MOL0     H74414  -1.343   2.898   4.633 -3.2044  0.3017 -1.0765
  564MOL0     H74415  -1.347   3.067   4.576  2.2687 -1.6016 -1.0598
  564MOL0     H74416  -1.555   2.980   4.717 -1.3795  1.7403 -0.1351
  564MOL0     H74417  -1.481   3.120   4.783 -0.8902  0.5512 -0.0984
  564MOL0     H74418  -1.505   2.980   4.978  1.5598 -1.7003  2.4048
  564MOL0     H74419  -1.335   2.968   4.950  0.4862  2.1766 -1.0412
  564MOL0     H74420  -1.516   2.746   4.959  0.7778  1.8027  2.6808
  564MOL0     H74421  -1.443   2.755   4.796  2.0586 -0.0848 -0.0089
  564MOL0     H74422  -1.228   2.801   4.912  0.3118  1.0587  1.7719
  564MOL0     H74423  -1.294   2.634   4.916 -1.2497  0.1048  2.4950
  564MOL0     H74424  -1.343   2.657   5.138  0.3517  0.0521  0.0718
  564MOL0     H74425  -1.344   2.838   5.138 -0.2171 -0.2342  0.2813
  564MOL0     H74426  -1.114   2.637   5.128 -1.0011 -0.6049 -0.4035
  564MOL0     H74427  -1.083   2.799   5.088 -1.5408  1.1082 -0.7108
  564MOL0     H74428  -1.025   2.739   5.336  1.1090  1.2963  0.6621
  564MOL0     H74429  -1.192   2.694   5.372  1.0188  2.1274  3.0774
  564MOL0     H74430  -1.154   2.942   4.488 -0.8318  4.4352 -0.6977
  564MOL0     H74431  -0.930   2.873   4.424  1.5127 -2.8277  1.8729
  564MOL0     H74432  -0.491   2.997   4.507 -3.5563 -1.3094  3.1281
  564MOL0     H74433  -0.259   2.965   4.539 -2.3802  1.4407 -0.3160
  564MOL0     H74434   1.554   3.301   3.839  1.0079  0.4509 -0.7740
  564MOL0     H74435   1.764   3.331   3.743  1.6037  0.6099 -2.3622
  564MOL0     H74436   1.983   3.422   3.368  1.5287  2.1199  2.2890
  564MOL0     H74437   2.204   3.493   3.269  2.4146 -0.5827  0.2690
  564MOL0     H74438   2.421   3.551   3.293  1.9316  2.6086 -0.6802
  564MOL0     H74439   2.383   3.494   3.128  1.2513  0.5761 -0.6881
  564MOL0     H74440   2.593   3.421   3.074 -0.4636  2.1431 -2.0455
  564MOL0     H74441   2.615   3.589   3.114  0.4712 -0.6773 -0.4678
  564MOL0     H74442   2.661   3.359   3.302 -1.0801  0.4159  2.1448
  564MOL0     H74443   2.727   3.526   3.325 -0.5172 -0.4346  0.3769
  564MOL0     H74444   2.893   3.344   3.252 -1.3023 -4.3236 -1.2433
  564MOL0     H74445   2.808   3.338   3.095  0.4161  0.2977 -0.6651
  564MOL0     H74446   3.036   3.684   3.057  0.6580  0.2246  2.5930
  564MOL0     H74447   2.376   3.121   3.345  0.7106  0.1441 -1.4965
  564MOL0     H74448   2.163   3.027   3.426  1.3068 -0.3690  3.2145
  565MOL0     O74449   5.729   1.852   5.778  0.0680  0.3397 -0.3085
  565MOL0     C74450   5.801   1.931   5.714 -0.0248 -0.2873 -0.6314
  565MOL0     O74451   5.852   2.051   5.752  0.4509 -0.1728 -0.3280
  565MOL0     C74452   5.787   2.124   5.850 -0.6323  0.2182  0.5776
  565MOL0     C74453   5.872   2.179   5.945 -0.2001 -0.1742  0.1076
  565MOL0     C74454   5.817   2.253   6.042  0.8649 -0.4072  0.1180
  565MOL0     C74455   5.683   2.273   6.054 -0.0455 -0.2427 -0.5143
  565MOL0     O74456   5.640   2.360   6.155 -0.1135 -0.5956  0.5247
  565MOL0     C74457   5.494   2.385   6.175 -0.9428 -0.0176 -0.6084
  565MOL0     C74458   5.470   2.481   6.294  0.9665 -0.2935 -0.2375
  565MOL0     C74459   5.544   2.447   6.414  0.4279 -0.3104 -1.2500
  565MOL0     C74460   5.514   2.528   6.545  0.1130  0.0916 -0.6220
  565MOL0     C74461   5.358   2.508   6.600  0.3174 -1.1645  0.4408
  565MOL0     C74462   5.347   2.477   6.745 -0.3862 -0.2056 -0.8336
  565MOL0     C74463   5.206   2.452   6.782  0.4222  0.9432  0.2756
  565MOL0     C74464   5.180   2.425   6.937  0.2442 -0.4230 -0.4776
  565MOL0     N74465   5.156   2.550   7.012 -0.4445  0.2359 -0.8707
  565MOL0     C74466   5.052   2.632   6.990  0.2321  0.4429  0.7729
  565MOL0     C74467   5.085   2.741   7.061 -0.9281 -0.2735 -0.0598
  565MOL0     C74468   5.002   2.865   7.057 -0.6279 -0.9470  0.1177
  565MOL0     C74469   4.901   2.878   7.171  0.6506  0.1960 -0.7111
  565MOL0     C74470   4.967   2.868   7.313 -0.5419  0.0940 -0.3304
  565MOL0     C74471   4.867   2.915   7.425 -0.2008  0.2509 -0.7415
  565MOL0     O74472   4.734   2.867   7.393 -0.2324 -0.0355 -0.0784
  565MOL0     C74473   4.627   2.893   7.472 -0.3889  0.4279  0.4550
  565MOL0     C74474   4.534   2.796   7.470  0.6925 -0.3414 -0.1100
  565MOL0     C74475   4.425   2.808   7.557  0.4079 -0.2512  0.4387
  565MOL0     C74476   4.400   2.917   7.642 -1.0191  0.6395  0.2159
  565MOL0     C74477   4.279   2.924   7.731  0.0024  0.9851  1.0216
  565MOL0     O74478   4.193   2.817   7.721 -0.8324 -0.6349 -0.0797
  565MOL0     C74479   4.114   2.799   7.834 -0.0230 -0.5443  0.6574
  565MOL0     C74480   3.977   2.784   7.807  0.7364  0.5530  0.4343
  565MOL0     C74481   3.888   2.776   7.917 -1.0097  0.0036  0.6190
  565MOL0     C74482   3.940   2.766   8.045  0.7332  0.6911 -0.4331
  565MOL0     O74483   3.867   2.743   8.161  0.6100 -1.2488  0.0702
  565MOL0     C74484   3.721   2.750   8.150  0.2035 -0.8736  0.0870
  565MOL0     C74485   3.641   2.633   8.082 -0.0315 -0.0783  0.4535
  565MOL0     C74486   3.494   2.664   8.068 -0.2183  0.1321 -0.0792
  565MOL0     C74487   3.398   2.546   8.033  0.0004 -0.9265 -0.3611
  565MOL0     C74488   3.250   2.585   8.022 -0.8709 -0.1949  0.7704
  565MOL0     C74489   3.158   2.476   7.982 -0.7396  0.2201 -0.2358
  565MOL0     C74490   3.148   2.361   8.088  0.2531  0.3865  0.2660
  565MOL0     C74491   3.020   2.269   8.067  0.0471 -0.0175  0.0676
  565MOL0    Cl74492   2.974   2.174   8.215 -0.4523  0.2270 -0.1371
  565MOL0     C74493   4.074   2.777   8.071 -0.4649 -0.2612  0.1862
  565MOL0     C74494   4.161   2.799   7.963 -0.4620 -0.0569  0.2224
  565MOL0     O74495   4.288   3.014   7.818  0.2914 -0.5909  0.3051
  565MOL0     C74496   4.508   3.009   7.644  0.9274  0.2476  0.5175
  565MOL0     C74497   4.616   2.995   7.557 -0.7184 -1.2090  0.3108
  565MOL0     N74498   5.207   2.720   7.124 -0.0536  0.4592 -0.9511
  565MOL0     N74499   5.253   2.605   7.093 -1.1321 -1.0677 -0.0254
  565MOL0     C74500   5.594   2.222   5.958  0.7655  0.2390  0.2401
  565MOL0     C74501   5.646   2.137   5.858 -0.1167 -0.7838 -0.7891
  565MOL0     C74502   5.853   1.891   5.577  0.0357  0.1187  0.2633
  565MOL0     C74503   5.903   1.988   5.492 -0.8078 -0.0646 -0.6856
  565MOL0     C74504   5.949   1.948   5.371 -0.1869 -0.3093  0.2550
  565MOL0     C74505   5.938   1.821   5.312  0.0597  0.6983 -0.7014
  565MOL0     O74506   6.001   1.776   5.199  0.2184  0.3557  0.4144
  565MOL0     C74507   6.052   1.872   5.104  0.1575 -0.9372 -0.6321
  565MOL0     C74508   6.184   1.940   5.136  0.4974 -0.0230  0.4334
  565MOL0     C74509   6.315   1.870   5.091 -0.3093 -0.2416  0.5235
  565MOL0     C74510   6.334   1.821   4.948 -0.2864 -0.5482 -0.2524
  565MOL0     C74511   6.480   1.834   4.917  1.0730 -0.0958 -0.2018
  565MOL0     C74512   6.596   1.844   4.870 -0.2705  0.1864 -0.0236
  565MOL0     C74513   5.878   1.729   5.402 -0.4921  1.0583  0.0173
  565MOL0     C74514   5.842   1.758   5.537  0.2297  0.6676  0.1906
  565MOL0     H74515   5.978   2.155   5.938 -0.5069 -1.2930 -1.0452
  565MOL0     H74516   5.884   2.310   6.105  0.2250 -0.4537  0.8681
  565MOL0     H74517   5.441   2.292   6.197  0.3513 -0.3679  1.2499
  565MOL0     H74518   5.454   2.433   6.085  1.7565 -0.7364 -2.3029
  565MOL0     H74519   5.366   2.471   6.325  1.6983 -2.3794  1.7941
  565MOL0     H74520   5.491   2.585   6.267  0.4549 -0.4644 -1.3510
  565MOL0     H74521   5.647   2.473   6.389  0.1189  3.4913  0.6402
  565MOL0     H74522   5.532   2.339   6.430 -1.5932 -0.3773 -2.8595
  565MOL0     H74523   5.589   2.504   6.621  1.7035 -0.9816 -2.4546
  565MOL0     H74524   5.524   2.633   6.516 -0.6665 -0.0958 -1.6173
  565MOL0     H74525   5.304   2.429   6.547 -1.5262  0.3937 -0.1242
  565MOL0     H74526   5.309   2.604   6.581  0.8854 -0.1308  3.6188
  565MOL0     H74527   5.400   2.542   6.815  1.9880 -0.3152 -2.4067
  565MOL0     H74528   5.397   2.381   6.762  0.9607  0.6924  0.6069
  565MOL0     H74529   5.133   2.532   6.761 -0.4748  0.4697  1.4604
  565MOL0     H74530   5.176   2.360   6.732  2.9515  0.6505 -0.8056
  565MOL0     H74531   5.261   2.377   6.992 -0.8741 -2.3470 -0.4250
  565MOL0     H74532   5.086   2.370   6.947 -2.4270  3.3179 -2.3287
  565MOL0     H74533   4.963   2.626   6.928  1.2333 -0.2441 -0.6603
  565MOL0     H74534   4.942   2.862   6.966 -3.2051 -2.5195  1.7319
  565MOL0     H74535   5.064   2.955   7.066  3.2470 -3.3248 -0.3923
  565MOL0     H74536   4.824   2.801   7.163  0.8254  0.0256 -0.7575
  565MOL0     H74537   4.846   2.972   7.165 -0.5717 -0.4332  0.2126
  565MOL0     H74538   4.999   2.767   7.337 -4.0649 -0.7630  1.5269
  565MOL0     H74539   5.059   2.927   7.313  0.0283 -0.6149 -3.5886
  565MOL0     H74540   4.864   3.024   7.413  1.2974  0.3018 -0.7430
  565MOL0     H74541   4.903   2.895   7.527 -0.4383 -3.0405 -1.1881
  565MOL0     H74542   4.533   2.722   7.390 -1.2808 -2.3963  1.6986
  565MOL0     H74543   4.364   2.718   7.550  0.4565 -0.1344 -2.6368
  565MOL0     H74544   3.950   2.777   7.702  4.6728  1.5360 -0.8431
  565MOL0     H74545   3.782   2.764   7.896 -1.3136  3.6985 -0.6943
  565MOL0     H74546   3.696   2.845   8.103  1.2284  0.2678  1.7233
  565MOL0     H74547   3.678   2.752   8.250 -0.6084  1.2080 -0.2728
  565MOL0     H74548   3.658   2.547   8.147  0.9951  0.6900  1.2320
  565MOL0     H74549   3.681   2.604   7.984 -0.0511 -1.6458  0.8879
  565MOL0     H74550   3.474   2.736   7.989 -2.5398 -1.5255 -1.1322
  565MOL0     H74551   3.466   2.711   8.163  2.2749  2.1589 -0.2544
  565MOL0     H74552   3.434   2.475   7.957  1.4621 -1.9573  1.2166
  565MOL0     H74553   3.415   2.478   8.117  1.5896 -2.8388 -2.1086
  565MOL0     H74554   3.240   2.659   7.943 -0.4664 -1.2474 -0.2949
  565MOL0     H74555   3.219   2.638   8.112 -1.0646  1.6334 -0.3312
  565MOL0     H74556   3.212   2.431   7.898  3.5911  0.2415  2.2938
  565MOL0     H74557   3.067   2.535   7.964 -0.3125  0.3430 -2.2563
  565MOL0     H74558   3.238   2.300   8.074  0.2125  0.4725 -0.4222
  565MOL0     H74559   3.150   2.411   8.186 -1.4307 -0.1726  0.6204
  565MOL0     H74560   3.038   2.201   7.983 -0.4411 -1.5522  1.1628
  565MOL0     H74561   2.944   2.340   8.033  2.9037  1.4884 -4.0026
  565MOL0     H74562   4.100   2.779   8.176 -2.1351 -1.2242  0.6575
  565MOL0     H74563   4.266   2.816   7.983 -0.0051 -0.4715 -1.6647
  565MOL0     H74564   4.497   3.102   7.699 -2.0022 -0.5499  1.4812
  565MOL0     H74565   4.694   3.071   7.556 -0.3550 -1.5743 -1.0040
  565MOL0     H74566   5.486   2.222   5.958  0.7653  0.0250  0.0594
  565MOL0     H74567   5.580   2.093   5.784  0.2045 -3.1876  0.2493
  565MOL0     H74568   5.922   2.090   5.525 -0.9636 -0.1387 -0.3635
  565MOL0     H74569   5.990   2.033   5.317  1.1329  0.7577  2.7710
  565MOL0     H74570   5.976   1.951   5.107 -0.5921 -1.6311 -1.0969
  565MOL0     H74571   6.054   1.847   4.997  0.6814  2.3742 -1.5319
  565MOL0     H74572   6.182   2.040   5.092 -1.5114 -0.3294 -0.2629
  565MOL0     H74573   6.196   1.944   5.244  1.6400  2.7823  0.2695
  565MOL0     H74574   6.347   1.793   5.163  2.6576  0.6347  0.2758
  565MOL0     H74575   6.388   1.950   5.104  0.5915 -1.2596  2.0103
  565MOL0     H74576   6.299   1.719   4.932 -0.3994 -0.3222 -1.5355
  565MOL0     H74577   6.284   1.888   4.877  0.3302  0.4514  0.2289
  565MOL0     H74578   6.697   1.838   4.836 -0.4745 -0.5516 -0.5334
  565MOL0     H74579   5.858   1.629   5.368 -2.1253  1.1092  0.7417
  565MOL0     H74580   5.806   1.680   5.604 -0.1542 -0.0398 -0.8066
  566MOL0     O74581   7.104   6.014   9.740  0.0343 -0.0868 -0.4651
  566MOL0     C74582   7.185   6.055   9.824  0.6979  0.3467 -0.6319
  566MOL0     O74583   7.156   6.121   9.941 -0.1356  0.0527 -0.2260
  566MOL0     C74584   7.030   6.138   9.991  0.2824 -0.1713  0.7363
  566MOL0     C74585   6.935   6.034  10.006  0.3143  0.4545 -0.5300
  566MOL0     C74586   6.806   6.058  10.061 -1.1383 -0.1984  0.4802
  566MOL0     C74587   6.764   6.193  10.092  0.9728 -0.1065 -0.2051
  566MOL0     O74588   6.652   6.231  10.153  0.0601  1.0817 -0.8052
  566MOL0     C74589   6.540   6.159  10.102  0.0051 -0.1590  0.0708
  566MOL0     C74590   6.503   6.222   9.963  0.3525  0.7945  0.2109
  566MOL0     C74591   6.373   6.158   9.911 -1.4637  0.6637 -0.4961
  566MOL0     C74592   6.317   6.228   9.795 -0.2577  0.4710 -0.2926
  566MOL0     C74593   6.176   6.165   9.759  0.6342 -0.9998  0.3779
  566MOL0     C74594   6.089   6.277   9.691  0.6439 -0.0525  0.0204
  566MOL0     C74595   5.985   6.220   9.595 -0.2471 -0.0161  0.0801
  566MOL0     C74596   5.904   6.104   9.663  0.1298  1.0615 -0.0131
  566MOL0     N74597   5.827   6.168   9.769 -0.6196 -0.1126  0.7492
  566MOL0     C74598   5.744   6.278   9.745  0.7944 -0.2849  0.2550
  566MOL0     C74599   5.681   6.297   9.858  0.6639 -0.6088  0.6263
  566MOL0     C74600   5.573   6.397   9.884 -0.1438  0.8577  0.7423
  566MOL0     C74601   5.433   6.332   9.863  1.0052  0.7687 -0.0697
  566MOL0     C74602   5.320   6.429   9.885  0.5442 -0.1401  1.0900
  566MOL0     C74603   5.198   6.362   9.954  0.4636 -0.2257  0.7439
  566MOL0     O74604   5.160   6.258   9.859  0.0798  0.4379 -0.0422
  566MOL0     C74605   5.082   6.159   9.916  0.1849  1.2121  0.1305
  566MOL0     C74606   5.037   6.045   9.831  0.1035 -0.7351  0.2507
  566MOL0     C74607   4.945   5.953   9.879 -0.0040 -0.5278 -0.2566
  566MOL0     C74608   4.891   5.961  10.012 -0.2630  0.9255  0.0163
  566MOL0     C74609   4.781   5.876  10.061 -0.7992  0.0703  0.2112
  566MOL0     O74610   4.741   5.914  10.190 -0.3198  0.0530  0.6901
  566MOL0     C74611   4.667   5.830  10.273 -0.4272  0.5052 -0.1221
  566MOL0     C74612   4.574   5.890  10.351 -0.0784 -0.6128 -0.6742
  566MOL0     C74613   4.489   5.821  10.441  0.0175 -0.1109 -0.9369
  566MOL0     C74614   4.492   5.682  10.444  0.4996  0.4224 -0.2347
  566MOL0     O74615   4.387   5.606  10.502  0.0252  0.6527 -0.2889
  566MOL0     C74616   4.261   5.652  10.550  0.9665 -0.7653 -0.0191
  566MOL0     C74617   4.168   5.707  10.434  0.3033  0.5817  1.0768
  566MOL0     C74618   4.141   5.614  10.320 -0.4421  0.1127 -0.5041
  566MOL0     C74619   4.130   5.681  10.188  0.8052 -0.3653  0.2944
  566MOL0     C74620   4.270   5.678  10.110  0.5461 -0.6201  0.9828
  566MOL0     C74621   4.274   5.768   9.989 -0.2646 -0.0326 -0.0927
  566MOL0     C74622   4.406   5.776   9.906  0.0547 -0.5884 -0.3675
  566MOL0     C74623   4.435   5.925   9.887  0.6178 -0.0572  0.5782
  566MOL0    Cl74624   4.306   6.006   9.778 -0.1179  0.1973 -0.0398
  566MOL0     C74625   4.595   5.616  10.371 -0.4079 -0.1006 -0.3252
  566MOL0     C74626   4.680   5.684  10.295 -0.9131  0.5676 -0.2865
  566MOL0     O74627   4.727   5.791   9.989 -0.1494 -0.1762 -0.3228
  566MOL0     C74628   4.946   6.066  10.094 -0.1128  0.1564 -0.8467
  566MOL0     C74629   5.032   6.162  10.046 -0.0390  0.0165 -0.5369
  566MOL0     N74630   5.733   6.201   9.945 -0.7217  0.4832  0.8651
  566MOL0     N74631   5.813   6.113   9.891 -0.3917  0.3920  0.4040
  566MOL0     C74632   6.854   6.295  10.073 -0.2886 -0.3936  0.0174
  566MOL0     C74633   6.984   6.267  10.023 -0.0092  0.2244  0.6951
  566MOL0     C74634   7.311   5.995   9.812 -1.2438  0.0404  1.6113
  566MOL0     C74635   7.376   5.974   9.679  0.1148 -0.0713 -0.5134
  566MOL0     C74636   7.486   5.899   9.672 -0.8195 -0.9866  0.1765
  566MOL0     C74637   7.557   5.865   9.787  0.0872 -1.2779  0.0816
  566MOL0     O74638   7.665   5.792   9.752 -0.3606 -0.0557  0.2349
  566MOL0     C74639   7.760   5.776   9.847 -0.1523 -0.1765  0.0022
  566MOL0     C74640   7.888   5.733   9.782  0.4572 -0.8089  0.2314
  566MOL0     C74641   7.984   5.663   9.868 -0.0380 -0.1806  0.4443
  566MOL0     C74642   8.113   5.667   9.783 -1.3169  0.1933 -0.0550
  566MOL0     C74643   8.211   5.586   9.849  0.2234  0.0549 -0.5535
  566MOL0     C74644   8.298   5.542   9.925 -0.2390 -0.5817 -0.0332
  566MOL0     C74645   7.502   5.889   9.913 -0.3850 -0.1011 -0.1790
  566MOL0     C74646   7.389   5.967   9.925 -0.1849 -0.1726 -0.3774
  566MOL0     H74647   6.966   5.932   9.984 -2.0721 -0.3797 -0.2694
  566MOL0     H74648   6.745   5.970  10.076 -0.1031 -0.6246  2.5449
  566MOL0     H74649   6.458   6.185  10.170 -0.0261 -0.4038  0.1289
  566MOL0     H74650   6.552   6.050  10.093 -1.1525 -0.1003 -4.7501
  566MOL0     H74651   6.575   6.219   9.880 -0.8866 -0.6465 -0.8775
  566MOL0     H74652   6.486   6.328   9.982  0.6300  0.4508  2.6138
  566MOL0     H74653   6.308   6.161   9.999 -0.1667 -0.2654  0.5437
  566MOL0     H74654   6.392   6.054   9.882  1.6364  1.0531 -0.1819
  566MOL0     H74655   6.315   6.335   9.819 -1.9598  0.2932  0.5193
  566MOL0     H74656   6.386   6.223   9.711  1.1885  2.5968  0.6752
  566MOL0     H74657   6.119   6.130   9.846 -0.4127  0.4409  0.3222
  566MOL0     H74658   6.196   6.083   9.689  1.5211 -1.8872  1.6361
  566MOL0     H74659   6.151   6.347   9.632 -1.5642  1.1109 -1.0399
  566MOL0     H74660   6.037   6.339   9.764 -2.5786 -0.1884 -2.0004
  566MOL0     H74661   5.930   6.307   9.558 -0.2728 -0.6028 -1.3305
  566MOL0     H74662   6.039   6.185   9.507 -0.7747 -2.2744  0.5886
  566MOL0     H74663   5.964   6.025   9.709  0.8889  1.1604 -0.8207
  566MOL0     H74664   5.843   6.051   9.590 -1.6079  0.5920  1.6837
  566MOL0     H74665   5.739   6.346   9.661  1.4884 -1.3120 -0.6371
  566MOL0     H74666   5.582   6.483   9.818 -1.9096 -0.6423 -1.5739
  566MOL0     H74667   5.585   6.426   9.989  3.2948  0.4497  0.5643
  566MOL0     H74668   5.423   6.245   9.928 -0.0926  1.3672  0.5951
  566MOL0     H74669   5.417   6.296   9.761  0.1679 -1.6504  0.8558
  566MOL0     H74670   5.357   6.507   9.953 -1.2884  1.1153  0.7064
  566MOL0     H74671   5.300   6.466   9.784 -3.2356 -1.2295  1.2995
  566MOL0     H74672   5.116   6.435   9.960  2.4942  2.1183  1.8394
  566MOL0     H74673   5.231   6.330  10.052 -0.8556  0.3583  1.4116
  566MOL0     H74674   5.086   6.032   9.735  1.1030 -0.0200  0.6440
  566MOL0     H74675   4.900   5.878   9.816  1.0819 -0.2361 -1.4295
  566MOL0     H74676   4.586   5.998  10.351 -3.4447 -0.1105 -2.5840
  566MOL0     H74677   4.414   5.879  10.494  2.3427  0.8180  1.5301
  566MOL0     H74678   4.281   5.737  10.617 -3.6866 -0.4689  1.3516
  566MOL0     H74679   4.206   5.583  10.615  2.0879  1.0875  3.1136
  566MOL0     H74680   4.203   5.802  10.391 -1.7023  1.0518  0.3569
  566MOL0     H74681   4.068   5.727  10.473  0.1004  0.0934  0.8225
  566MOL0     H74682   4.059   5.544  10.340 -1.3970  0.7376 -2.0172
  566MOL0     H74683   4.222   5.542  10.306 -1.4580 -0.6822 -2.7603
  566MOL0     H74684   4.063   5.616  10.131  1.3165  0.2034 -1.0012
  566MOL0     H74685   4.075   5.776  10.185 -0.1757 -0.8962  0.6837
  566MOL0     H74686   4.304   5.575  10.094  0.1791 -0.8760  1.7595
  566MOL0     H74687   4.351   5.720  10.169 -1.0117  2.1845  1.2707
  566MOL0     H74688   4.258   5.872  10.019  1.3457  0.2691 -0.2139
  566MOL0     H74689   4.187   5.746   9.927 -0.4226  2.7178 -0.9722
  566MOL0     H74690   4.488   5.733   9.965  0.7166 -2.0561 -2.2789
  566MOL0     H74691   4.390   5.728   9.810  0.2184  0.9348 -1.1949
  566MOL0     H74692   4.528   5.925   9.829 -0.2916 -2.3572 -1.0416
  566MOL0     H74693   4.445   5.982   9.979  2.7183  3.0972 -1.4136
  566MOL0     H74694   4.605   5.508  10.380 -1.8486 -0.2787 -0.4935
  566MOL0     H74695   4.761   5.629  10.247 -1.1391 -0.1885  0.1811
  566MOL0     H74696   4.912   6.078  10.196  1.7108 -0.4346 -0.1404
  566MOL0     H74697   5.055   6.236  10.122  1.1557  0.5261 -1.3623
  566MOL0     H74698   6.816   6.395  10.086  0.3319 -0.0029 -1.0492
  566MOL0     H74699   7.053   6.351  10.027  0.8308 -0.4851  1.6684
  566MOL0     H74700   7.314   6.006   9.596 -1.2804 -2.8136 -0.6660
  566MOL0     H74701   7.515   5.870   9.571 -0.5304  1.1822 -0.4249
  566MOL0     H74702   7.733   5.698   9.919  1.4680 -0.2412  0.5914
  566MOL0     H74703   7.790   5.860   9.910  3.6391 -2.0795  1.0828
  566MOL0     H74704   7.868   5.664   9.699  1.4898 -0.3450 -0.4221
  566MOL0     H74705   7.921   5.825   9.733  1.4965 -0.8458  0.8369
  566MOL0     H74706   7.961   5.558   9.893  0.5794  0.1331  2.5296
  566MOL0     H74707   7.990   5.725   9.958 -1.7011  0.3066  0.2533
  566MOL0     H74708   8.096   5.622   9.684  0.1090 -2.6783  0.8899
  566MOL0     H74709   8.164   5.764   9.784 -1.0542  0.0530 -0.0075
  566MOL0     H74710   8.375   5.516   9.994 -0.5938 -0.0890  0.5652
  566MOL0     H74711   7.564   5.857   9.996 -0.4544  0.0129 -0.0808
  566MOL0     H74712   7.353   5.987  10.026 -1.0796  1.9119 -1.0548
  567MOL0     O74713   2.336   2.692   5.468 -0.0534 -0.1766  0.5436
  567MOL0     C74714   2.377   2.577   5.503  0.2040 -0.6881  0.1922
  567MOL0     O74715   2.298   2.485   5.573 -1.9492  0.3799 -0.5175
  567MOL0     C74716   2.162   2.503   5.584 -0.1383  0.3323 -0.1709
  567MOL0     C74717   2.084   2.430   5.494  0.4690  0.3906 -1.0314
  567MOL0     C74718   1.943   2.449   5.499 -0.8271 -0.2687  0.0159
  567MOL0     C74719   1.888   2.538   5.589  0.0053 -0.6643 -0.1591
  567MOL0     O74720   1.755   2.566   5.598 -0.1226  0.1161  0.3974
  567MOL0     C74721   1.712   2.633   5.487 -0.6812 -0.2542  0.0407
  567MOL0     C74722   1.572   2.679   5.498  0.5749 -0.6890  0.0822
  567MOL0     C74723   1.483   2.552   5.472 -1.0779 -0.2946  0.0105
  567MOL0     C74724   1.336   2.581   5.495  0.1601  0.0906 -0.3302
  567MOL0     C74725   1.265   2.576   5.360 -0.3947 -0.4993  0.0784
  567MOL0     C74726   1.128   2.631   5.382 -0.1626 -0.0438  0.3368
  567MOL0     C74727   1.034   2.525   5.438  0.2133 -1.2451 -0.7015
  567MOL0     C74728   0.896   2.584   5.491  0.1158 -0.3177 -0.1776
  567MOL0     N74729   0.805   2.488   5.548  0.7724 -0.2174  0.0307
  567MOL0     C74730   0.750   2.389   5.476  0.2082 -0.4444  0.5324
  567MOL0     C74731   0.642   2.349   5.540 -0.1974  0.3235 -0.2244
  567MOL0     C74732   0.542   2.249   5.479 -0.8699  0.6145 -0.5300
  567MOL0     C74733   0.419   2.241   5.563  0.2857 -0.5794 -0.0730
  567MOL0     C74734   0.297   2.140   5.549 -0.1939  0.6184  0.7041
  567MOL0     C74735   0.285   2.014   5.639 -0.2223 -1.0420 -0.3691
  567MOL0     O74736   0.181   1.916   5.627  0.8934  0.2090 -0.1611
  567MOL0     C74737   0.047   1.953   5.658  0.3914  0.1971  1.2585
  567MOL0     C74738   0.002   2.079   5.708  0.6235  0.0268 -0.0051
  567MOL0     C74739  -0.130   2.093   5.751  0.7520  0.3797 -1.1639
  567MOL0     C74740  -0.224   1.986   5.733 -0.3315  0.0449 -0.1585
  567MOL0     C74741  -0.362   2.016   5.762 -0.0357  0.2066 -0.7345
  567MOL0     O74742  -0.441   1.909   5.767  0.5237  0.1649 -0.3621
  567MOL0     C74743  -0.579   1.911   5.793  1.0447  0.2435 -0.4909
  567MOL0     C74744  -0.671   2.024   5.814 -0.0428 -0.4138  0.2619
  567MOL0     C74745  -0.807   2.002   5.837  0.2869 -0.6933  0.4583
  567MOL0     C74746  -0.860   1.870   5.827  0.3245 -0.3999 -0.0144
  567MOL0     O74747  -0.994   1.855   5.845  0.4359 -0.2805  1.0483
  567MOL0     C74748  -1.063   1.780   5.745 -0.8540  1.0216  1.0151
  567MOL0     C74749  -1.071   1.868   5.625 -0.4855 -0.4651 -0.7636
  567MOL0     C74750  -1.027   1.806   5.499 -0.4624  0.5564  0.0232
  567MOL0     C74751  -0.878   1.790   5.496 -0.1950 -0.1798  0.2811
  567MOL0     C74752  -0.829   1.785   5.349  0.7705  0.1285 -0.0412
  567MOL0     C74753  -0.711   1.697   5.309  0.5417 -0.0227  0.7209
  567MOL0     C74754  -0.596   1.709   5.407  0.4188 -0.2597 -0.1820
  567MOL0     C74755  -0.466   1.692   5.339  0.5481  1.0199 -0.1375
  567MOL0    Cl74756  -0.320   1.693   5.445  0.4082  0.2875 -0.3438
  567MOL0     C74757  -0.769   1.764   5.826  0.2272  0.6938 -0.6393
  567MOL0     C74758  -0.628   1.786   5.804  0.8992  0.1427  0.3775
  567MOL0     O74759  -0.392   2.136   5.776  0.0136  0.4386 -0.1765
  567MOL0     C74760  -0.180   1.860   5.683 -0.7485 -0.5559 -0.2899
  567MOL0     C74761  -0.045   1.843   5.649 -0.7209 -0.1924 -0.3285
  567MOL0     N74762   0.620   2.414   5.659 -0.5715 -0.5461 -0.1413
  567MOL0     N74763   0.718   2.501   5.658  0.2574  0.3400 -0.3043
  567MOL0     C74764   1.970   2.610   5.675 -0.3555 -0.2076  0.7175
  567MOL0     C74765   2.111   2.592   5.675  0.2849 -0.2771 -0.3375
  567MOL0     C74766   2.522   2.549   5.478  0.4593 -0.0697 -0.5973
  567MOL0     C74767   2.616   2.645   5.432 -0.8142  0.4935  0.0969
  567MOL0     C74768   2.746   2.604   5.414 -0.3189 -0.5861 -0.1432
  567MOL0     C74769   2.777   2.471   5.423 -0.0587  0.1357  0.3880
  567MOL0     O74770   2.890   2.415   5.377 -0.0351  0.8299 -0.0731
  567MOL0     C74771   2.995   2.498   5.335 -0.8274  0.2266 -0.0515
  567MOL0     C74772   3.068   2.580   5.451  0.4794  0.8093  0.1756
  567MOL0     C74773   3.117   2.479   5.564  0.4572 -0.4698 -0.5525
  567MOL0     C74774   3.230   2.557   5.629 -0.3938 -0.1491  0.8537
  567MOL0     C74775   3.288   2.474   5.740 -0.7720 -0.3793 -0.0343
  567MOL0     C74776   3.305   2.390   5.829 -0.6204  0.3546 -0.4394
  567MOL0     C74777   2.684   2.381   5.484 -0.6679  0.1969  0.2860
  567MOL0     C74778   2.554   2.414   5.512 -0.8365 -0.2665  0.7796
  567MOL0     H74779   2.131   2.355   5.431  0.9464  0.4757 -0.7853
  567MOL0     H74780   1.884   2.396   5.425  0.5080 -1.1821 -0.4227
  567MOL0     H74781   1.725   2.569   5.399  4.6358  1.1483 -0.5725
  567MOL0     H74782   1.776   2.720   5.467 -0.1573 -0.1324  2.0517
  567MOL0     H74783   1.556   2.753   5.418  1.4587 -0.3068  0.2510
  567MOL0     H74784   1.566   2.713   5.602 -1.2995  0.7528 -0.4336
  567MOL0     H74785   1.513   2.483   5.552 -1.6359  0.8900  1.2736
  567MOL0     H74786   1.498   2.510   5.372 -0.6215  1.8045 -0.8478
  567MOL0     H74787   1.301   2.504   5.565  0.3176 -0.9182 -1.3296
  567MOL0     H74788   1.327   2.673   5.554  1.7269 -1.2314  2.1538
  567MOL0     H74789   1.258   2.474   5.320 -0.7729 -0.1443 -0.7864
  567MOL0     H74790   1.325   2.631   5.287 -0.0915  1.6495  1.8494
  567MOL0     H74791   1.094   2.663   5.283  0.5091  1.6778  0.6244
  567MOL0     H74792   1.124   2.724   5.439 -0.4325 -0.0690  0.3579
  567MOL0     H74793   1.015   2.460   5.352 -1.8965 -0.9863 -0.4789
  567MOL0     H74794   1.069   2.468   5.524 -1.2541 -1.9681 -0.5478
  567MOL0     H74795   0.838   2.625   5.407  0.7765 -0.3465 -0.6585
  567MOL0     H74796   0.902   2.664   5.565 -1.1010  2.4845 -2.8943
  567MOL0     H74797   0.790   2.351   5.382  2.1455 -3.3292  2.3627
  567MOL0     H74798   0.592   2.153   5.467 -0.7798  0.8310 -2.0011
  567MOL0     H74799   0.506   2.275   5.379 -1.5371 -3.5285 -1.5266
  567MOL0     H74800   0.376   2.336   5.531 -0.5190 -1.1911 -0.8519
  567MOL0     H74801   0.443   2.243   5.670 -0.8413 -1.6513  0.2301
  567MOL0     H74802   0.201   2.186   5.524 -1.0662 -1.8033 -0.7460
  567MOL0     H74803   0.320   2.101   5.449 -1.1824 -0.5021  0.8901
  567MOL0     H74804   0.275   2.049   5.742 -1.7476 -1.9358 -0.1843
  567MOL0     H74805   0.374   1.953   5.628 -0.4420 -2.3871  3.6576
  567MOL0     H74806   0.071   2.160   5.730  1.3487  0.0631 -2.2039
  567MOL0     H74807  -0.159   2.196   5.768  1.8361  0.8804 -2.2669
  567MOL0     H74808  -0.629   2.124   5.807  2.6047 -1.5415 -1.8231
  567MOL0     H74809  -0.870   2.090   5.833 -3.2210 -3.0174 -2.6573
  567MOL0     H74810  -1.168   1.765   5.770 -1.0659  0.6632 -0.0552
  567MOL0     H74811  -1.024   1.682   5.718 -1.3708  1.3624 -1.1153
  567MOL0     H74812  -1.025   1.965   5.648 -1.4849 -0.2919  0.6103
  567MOL0     H74813  -1.176   1.894   5.608 -0.7221  0.1247  1.2954
  567MOL0     H74814  -1.049   1.876   5.418 -0.4491  1.8802  1.1323
  567MOL0     H74815  -1.080   1.711   5.489  2.6753 -1.2144 -1.5217
  567MOL0     H74816  -0.825   1.875   5.540  3.6373 -1.1654 -2.0205
  567MOL0     H74817  -0.847   1.705   5.558 -1.0856  0.6457  1.9232
  567MOL0     H74818  -0.787   1.881   5.317  1.8539 -0.8542 -1.7121
  567MOL0     H74819  -0.904   1.765   5.273 -1.4467  3.3807  1.0595
  567MOL0     H74820  -0.685   1.709   5.204 -0.9252  1.4679  0.4990
  567MOL0     H74821  -0.761   1.600   5.307 -0.4095  0.4415 -1.9371
  567MOL0     H74822  -0.601   1.807   5.456 -0.5073 -0.4151  0.0425
  567MOL0     H74823  -0.603   1.634   5.486  0.2493 -0.8077 -0.7052
  567MOL0     H74824  -0.455   1.767   5.260  0.0986 -0.1284 -1.3347
  567MOL0     H74825  -0.462   1.597   5.284  0.3010  1.2551 -0.5693
  567MOL0     H74826  -0.822   1.672   5.846 -0.3157  0.9922 -0.6923
  567MOL0     H74827  -0.561   1.701   5.811 -0.6356 -0.9662  3.4559
  567MOL0     H74828  -0.248   1.776   5.677  2.0697 -3.0362  0.1342
  567MOL0     H74829  -0.011   1.743   5.624  0.1078  0.0990 -0.3774
  567MOL0     H74830   1.926   2.691   5.734  2.4103  2.1704 -0.2583
  567MOL0     H74831   2.171   2.656   5.739  1.7086 -1.8021 -0.1096
  567MOL0     H74832   2.580   2.745   5.409 -1.4525 -0.3455 -3.0727
  567MOL0     H74833   2.812   2.679   5.373 -0.7123  1.1478  2.2134
  567MOL0     H74834   2.955   2.565   5.257  0.2180 -0.1864 -0.9714
  567MOL0     H74835   3.054   2.426   5.278  0.3424  1.8738 -1.0169
  567MOL0     H74836   3.149   2.633   5.401 -0.2972  0.4242 -1.5588
  567MOL0     H74837   2.998   2.654   5.490 -2.4912 -1.2244 -0.9664
  567MOL0     H74838   3.138   2.386   5.510 -1.0974 -1.5509  0.6147
  567MOL0     H74839   3.035   2.470   5.636  1.9560 -3.4118  0.9847
  567MOL0     H74840   3.304   2.582   5.552  0.3250  1.2398  1.9519
  567MOL0     H74841   3.203   2.659   5.659 -2.1199  1.3850 -4.6682
  567MOL0     H74842   3.352   2.322   5.898 -2.5963 -1.4126 -0.7606
  567MOL0     H74843   2.719   2.279   5.486 -0.8409  0.0989 -0.9676
  567MOL0     H74844   2.485   2.338   5.546 -1.0505 -1.1842 -1.5686
  568MOL0     O74845   9.233  10.944   1.164 -0.6184 -0.3110  0.9937
  568MOL0     C74846   9.263  10.897   1.271 -0.2008 -0.1548  0.0161
  568MOL0     O74847   9.176  10.863   1.371  0.5262 -0.0023  0.2558
  568MOL0     C74848   9.040  10.880   1.364  0.7701 -0.2429 -0.3492
  568MOL0     C74849   8.965  10.900   1.250 -0.3020 -0.0345  0.0237
  568MOL0     C74850   8.828  10.925   1.257 -0.9730 -0.8732  0.7174
  568MOL0     C74851   8.754  10.924   1.375  0.2831 -0.8435  0.3408
  568MOL0     O74852   8.619  10.959   1.382 -0.0063  0.4578  1.1544
  568MOL0     C74853   8.544  10.929   1.257  0.2301 -0.0477 -0.3107
  568MOL0     C74854   8.395  10.924   1.301  0.5649 -0.3255  0.6947
  568MOL0     C74855   8.307  10.880   1.182  0.6216  0.3148  0.9785
  568MOL0     C74856   8.304  10.732   1.177  0.2455  0.3855 -0.0147
  568MOL0     C74857   8.249  10.693   1.040  0.3228  0.4795 -0.2857
  568MOL0     C74858   8.126  10.764   0.982  0.2232  0.5877 -0.5642
  568MOL0     C74859   8.013  10.723   1.074 -0.0381  0.5749 -1.3675
  568MOL0     C74860   7.880  10.793   1.047  0.5795 -0.5737 -0.5499
  568MOL0     N74861   7.900  10.932   1.077 -0.2618 -0.1238  0.4281
  568MOL0     C74862   7.926  10.988   1.192 -0.3103  0.3431 -0.0135
  568MOL0     C74863   7.918  11.124   1.168  0.6356  0.8408 -1.5157
  568MOL0     C74864   7.956  11.242   1.263  0.6428  0.3439  0.0214
  568MOL0     C74865   8.096  11.217   1.332  0.5960 -0.1286 -0.1922
  568MOL0     C74866   8.137  11.316   1.434 -0.1266  0.0688 -0.9421
  568MOL0     C74867   8.287  11.287   1.470 -0.3735  0.3880  0.0664
  568MOL0     O74868   8.326  11.345   1.597 -0.3268 -0.1395  0.2913
  568MOL0     C74869   8.456  11.321   1.627 -0.4949  0.7012 -0.2325
  568MOL0     C74870   8.538  11.223   1.574  0.2366  0.0153  0.1936
  568MOL0     C74871   8.665  11.205   1.618  0.2623  0.3321 -0.6424
  568MOL0     C74872   8.713  11.261   1.733  0.0754 -0.6778  0.2769
  568MOL0     C74873   8.837  11.220   1.799 -0.4238 -0.2992 -0.0219
  568MOL0     O74874   8.887  11.098   1.759  0.6284 -0.3017 -0.2601
  568MOL0     C74875   8.993  11.051   1.825  1.0114  0.3501  0.3621
  568MOL0     C74876   9.115  11.054   1.763 -0.6646 -0.4199  0.3415
  568MOL0     C74877   9.231  11.024   1.835  0.5737  0.7825  0.5610
  568MOL0     C74878   9.228  10.983   1.967  0.4637  0.4375  0.0844
  568MOL0     O74879   9.354  10.962   2.024  0.3537 -0.7052 -0.0123
  568MOL0     C74880   9.430  11.076   2.062 -0.6363 -0.1720 -0.4920
  568MOL0     C74881   9.571  11.030   2.096  0.8114 -0.1009  0.0825
  568MOL0     C74882   9.663  11.147   2.135  0.4464  0.0187  0.1681
  568MOL0     C74883   9.627  11.210   2.258 -0.2566 -1.4602 -0.2730
  568MOL0     C74884   9.691  11.353   2.276 -0.0984  0.6643  0.2547
  568MOL0     C74885   9.630  11.460   2.175 -0.7960  0.5126 -0.5865
  568MOL0     C74886   9.721  11.583   2.160  0.1743  0.4901 -0.8448
  568MOL0     C74887   9.673  11.710   2.228 -0.5869  0.3779  0.7859
  568MOL0    Cl74888   9.598  11.681   2.393  0.5060 -0.0851  0.3287
  568MOL0     C74889   9.105  10.972   2.039 -0.5732  0.1629  0.6746
  568MOL0     C74890   8.987  11.009   1.966 -0.5719 -0.0178  0.0921
  568MOL0     O74891   8.884  11.290   1.889  0.1868  0.0385 -0.2495
  568MOL0     C74892   8.624  11.346   1.802  0.5805  0.8769 -1.1480
  568MOL0     C74893   8.503  11.375   1.749  0.0582 -0.7796  1.4643
  568MOL0     N74894   7.888  11.133   1.040 -0.3067 -0.3406  0.2135
  568MOL0     N74895   7.862  11.025   0.987  0.6657  1.2217  0.7131
  568MOL0     C74896   8.826  10.913   1.495 -0.0161  0.3088  0.6245
  568MOL0     C74897   8.966  10.877   1.488 -0.4255  0.5070  0.3480
  568MOL0     C74898   9.405  10.872   1.294 -0.1366  0.4042  0.5836
  568MOL0     C74899   9.454  10.862   1.423  0.2133  0.2721  0.5662
  568MOL0     C74900   9.587  10.860   1.461 -0.3659  0.1678  0.7228
  568MOL0     C74901   9.678  10.853   1.357 -0.9068  0.4496  0.7820
  568MOL0     O74902   9.810  10.873   1.394 -0.0912 -0.1040 -0.1543
  568MOL0     C74903   9.857  10.779   1.494  0.2957 -0.6277 -0.3680
  568MOL0     C74904  10.004  10.759   1.468  0.4895 -0.5644  0.6166
  568MOL0     C74905  10.094  10.876   1.499 -0.6492  0.4912  0.0032
  568MOL0     C74906  10.238  10.853   1.457 -0.6511  0.2461  0.5967
  568MOL0     C74907  10.318  10.954   1.519 -0.2587  0.0775 -0.7885
  568MOL0     C74908  10.377  11.050   1.573  0.6020 -0.7819  0.3458
  568MOL0     C74909   9.635  10.856   1.226 -0.2477 -0.0898  0.4246
  568MOL0     C74910   9.502  10.865   1.190  0.4335  0.4557  0.0546
  568MOL0     H74911   8.999  10.906   1.147  0.5166  3.6294  0.3980
  568MOL0     H74912   8.788  10.939   1.157  2.4609 -3.9720 -1.3746
  568MOL0     H74913   8.580  10.830   1.228 -1.9484 -0.8428 -0.4539
  568MOL0     H74914   8.559  11.007   1.182 -2.2980  1.2709  0.4586
  568MOL0     H74915   8.369  11.026   1.332 -1.2329 -0.5628  0.1117
  568MOL0     H74916   8.397  10.859   1.390  1.0915 -0.8290  0.3186
  568MOL0     H74917   8.341  10.920   1.086  0.4622  1.7628  1.5162
  568MOL0     H74918   8.211  10.916   1.218 -0.3962  1.0604 -2.1967
  568MOL0     H74919   8.397  10.682   1.207 -0.1622  1.0327  2.4984
  568MOL0     H74920   8.230  10.703   1.251 -1.2128  2.0911 -0.7458
  568MOL0     H74921   8.221  10.588   1.039 -0.3451  0.5965 -3.1507
  568MOL0     H74922   8.342  10.688   0.983  0.9536 -1.2151  0.8121
  568MOL0     H74923   8.114  10.719   0.883  2.8092  3.3202 -2.2874
  568MOL0     H74924   8.132  10.871   0.963 -1.2984  0.7745 -0.1412
  568MOL0     H74925   7.998  10.616   1.058  2.4515  0.2725 -2.0647
  568MOL0     H74926   8.044  10.739   1.178 -2.7904 -0.1941 -0.3578
  568MOL0     H74927   7.795  10.758   1.107 -0.4667 -0.1884 -1.7465
  568MOL0     H74928   7.845  10.784   0.943 -0.3691  1.7496 -0.4935
  568MOL0     H74929   7.950  10.956   1.292  1.3574  2.9844  0.5291
  568MOL0     H74930   7.877  11.259   1.337 -1.7337 -1.0444 -2.0173
  568MOL0     H74931   7.957  11.330   1.198 -0.8250 -1.7048 -3.0272
  568MOL0     H74932   8.177  11.220   1.258  1.5888 -0.5168  0.8541
  568MOL0     H74933   8.098  11.113   1.364  0.8856  0.2018  0.9093
  568MOL0     H74934   8.119  11.421   1.410 -4.1502  0.9194  4.1728
  568MOL0     H74935   8.070  11.282   1.513  0.4142 -0.9698 -0.9132
  568MOL0     H74936   8.342  11.337   1.390 -5.8902  2.0645 -3.2117
  568MOL0     H74937   8.285  11.178   1.478  0.0495  0.3190 -0.6645
  568MOL0     H74938   8.522  11.162   1.485 -1.4096 -0.5264  0.8369
  568MOL0     H74939   8.738  11.153   1.557 -0.0069 -1.3679  0.3955
  568MOL0     H74940   9.124  11.090   1.661  2.0960  2.2597  1.3820
  568MOL0     H74941   9.324  11.043   1.782 -0.6696  2.5764 -1.1641
  568MOL0     H74942   9.379  11.119   2.148 -0.8718  1.5260 -1.4360
  568MOL0     H74943   9.441  11.153   1.984 -0.8392 -3.8152 -4.5251
  568MOL0     H74944   9.626  10.979   2.016  0.1462 -0.6414 -0.0406
  568MOL0     H74945   9.569  10.954   2.174  1.1949 -0.7410 -0.5158
  568MOL0     H74946   9.671  11.220   2.054  0.6928 -0.1894  0.0041
  568MOL0     H74947   9.758  11.101   2.164  0.0323 -0.4147  0.8674
  568MOL0     H74948   9.519  11.227   2.261 -0.1926  0.7645 -3.9803
  568MOL0     H74949   9.657  11.155   2.348 -0.3237  1.0464  1.3802
  568MOL0     H74950   9.799  11.339   2.261 -0.0436 -0.1828  1.3197
  568MOL0     H74951   9.678  11.391   2.378 -2.0500 -2.6526  1.3761
  568MOL0     H74952   9.527  11.495   2.188 -1.5584 -0.4493 -3.4696
  568MOL0     H74953   9.623  11.407   2.080 -0.3543 -2.0515  0.7295
  568MOL0     H74954   9.827  11.562   2.177 -0.4638 -1.3352  1.5367
  568MOL0     H74955   9.714  11.601   2.053 -2.2077  1.7319 -0.5445
  568MOL0     H74956   9.595  11.750   2.162 -0.5501  3.0093  2.1787
  568MOL0     H74957   9.750  11.788   2.239 -0.1495 -0.0063  0.4947
  568MOL0     H74958   9.115  10.943   2.144  0.0809 -2.3558 -0.0042
  568MOL0     H74959   8.895  10.977   2.014  0.5595 -3.9856 -0.0158
  568MOL0     H74960   8.647  11.372   1.905 -0.0355 -3.9452  0.4596
  568MOL0     H74961   8.443  11.416   1.829 -1.5783 -0.9388  0.3872
  568MOL0     H74962   8.778  10.923   1.592  0.6433  3.0082  0.7596
  568MOL0     H74963   9.028  10.850   1.573  2.0827  1.8768 -0.9165
  568MOL0     H74964   9.384  10.859   1.506 -0.9551 -3.4442 -0.3429
  568MOL0     H74965   9.610  10.863   1.567 -2.7379 -0.7120  1.3283
  568MOL0     H74966   9.812  10.681   1.480 -1.6772  0.5372 -3.1260
  568MOL0     H74967   9.843  10.820   1.594 -4.3214 -0.5883 -0.7828
  568MOL0     H74968  10.026  10.680   1.541  0.3971 -0.7109  0.4836
  568MOL0     H74969  10.013  10.744   1.360 -2.7219  1.3954 -0.0538
  568MOL0     H74970  10.107  10.882   1.608 -0.0217 -1.0924  0.0358
  568MOL0     H74971  10.045  10.964   1.456 -1.3541  0.5275  0.8583
  568MOL0     H74972  10.277  10.756   1.491 -2.1141 -1.6009 -2.5103
  568MOL0     H74973  10.256  10.855   1.349 -1.1966  0.6878  0.5093
  568MOL0     H74974  10.433  11.126   1.624  0.9626  0.9716 -2.4329
  568MOL0     H74975   9.713  10.867   1.152 -1.5397 -0.6437 -1.0692
  568MOL0     H74976   9.486  10.871   1.083  0.9559  3.7765  0.0532
  569MOL0     O74977   7.509  10.884  10.026 -1.1393 -0.1042 -0.7969
  569MOL0     C74978   7.574  10.827   9.940 -0.1967 -0.5899 -0.5834
  569MOL0     O74979   7.561  10.842   9.804 -0.2667  0.2680  0.0332
  569MOL0     C74980   7.447  10.901   9.765  0.1676 -1.0056  0.0602
  569MOL0     C74981   7.311  10.862   9.790 -0.6017 -0.9602  0.0141
  569MOL0     C74982   7.204  10.939   9.739 -1.0043 -0.1249  0.2885
  569MOL0     C74983   7.225  11.054   9.664 -0.3271  0.3562  0.8417
  569MOL0     O74984   7.113  11.119   9.610 -0.5629 -0.6208 -0.4510
  569MOL0     C74985   7.128  11.130   9.465  0.7976 -0.2078 -0.3479
  569MOL0     C74986   6.993  11.092   9.403  0.6047 -0.0483 -0.7589
  569MOL0     C74987   6.888  11.209   9.415 -0.2613  1.3412 -0.5687
  569MOL0     C74988   6.756  11.153   9.367 -0.3256 -0.7885 -0.2554
  569MOL0     C74989   6.641  11.252   9.401 -0.7491 -0.2997  0.2975
  569MOL0     C74990   6.521  11.172   9.355  0.4004  0.0511  0.3105
  569MOL0     C74991   6.403  11.260   9.370 -0.1140  0.2652  0.5511
  569MOL0     C74992   6.286  11.188   9.295 -0.2150  0.6886  0.1891
  569MOL0     N74993   6.157  11.254   9.294 -0.9168  0.1530  0.7963
  569MOL0     C74994   6.034  11.194   9.270 -0.4873 -0.1378  0.1626
  569MOL0     C74995   5.954  11.300   9.259  0.4054  0.0025 -0.9061
  569MOL0     C74996   5.813  11.296   9.219 -0.1608  0.1844  0.5585
  569MOL0     C74997   5.807  11.366   9.079  0.1904 -0.1444 -0.8724
  569MOL0     C74998   5.872  11.303   8.968  0.7916  0.7561  0.7131
  569MOL0     C74999   5.808  11.168   8.918 -0.1316 -0.6518 -0.6740
  569MOL0     O75000   5.869  11.131   8.796 -0.0047 -0.0554  0.9603
  569MOL0     C75001   5.984  11.051   8.796 -0.3332 -0.5070  1.8107
  569MOL0     C75002   6.063  11.032   8.910 -0.6011  0.0271  0.1516
  569MOL0     C75003   6.187  10.955   8.904  0.6436  0.3960  0.1569
  569MOL0     C75004   6.217  10.886   8.776 -0.6930 -0.2549 -0.0721
  569MOL0     C75005   6.343  10.803   8.761  0.1603 -0.7202 -1.4133
  569MOL0     O75006   6.394  10.748   8.882  0.3510  0.1330 -0.9619
  569MOL0     C75007   6.511  10.679   8.870  0.3522  0.3795 -0.2563
  569MOL0     C75008   6.521  10.562   8.946  0.3059 -0.2928 -0.1759
  569MOL0     C75009   6.644  10.496   8.946  0.2254 -0.0239 -0.4602
  569MOL0     C75010   6.759  10.541   8.885  0.3927 -0.3000  0.4899
  569MOL0     O75011   6.872  10.465   8.877  0.9432  0.2611  0.1070
  569MOL0     C75012   6.935  10.444   8.750 -0.4115  0.2037 -0.4384
  569MOL0     C75013   7.056  10.530   8.755 -0.1312  0.1031  0.5589
  569MOL0     C75014   7.170  10.472   8.672 -0.1172 -0.8510 -0.0865
  569MOL0     C75015   7.279  10.573   8.685 -0.8057  0.5104 -0.5552
  569MOL0     C75016   7.402  10.525   8.597 -0.0614 -0.4822 -0.4160
  569MOL0     C75017   7.477  10.401   8.657 -1.0307  0.0255  0.2087
  569MOL0     C75018   7.578  10.337   8.560  0.0508  0.4330  0.7068
  569MOL0     C75019   7.514  10.276   8.441  0.9484  0.5398 -0.0373
  569MOL0    Cl75020   7.637  10.164   8.362 -0.4783  0.3898 -0.8020
  569MOL0     C75021   6.747  10.661   8.811  0.2899  0.6227  0.0450
  569MOL0     C75022   6.626  10.731   8.808 -0.3831  0.6371 -0.5306
  569MOL0     O75023   6.391  10.802   8.650  0.3328  0.6448 -0.0794
  569MOL0     C75024   6.128  10.902   8.678  0.4709  0.1294  0.0834
  569MOL0     C75025   6.018  10.983   8.681  0.3375  0.7184 -0.4107
  569MOL0     N75026   6.026  11.419   9.280  0.6270  0.2998 -0.0274
  569MOL0     N75027   6.149  11.387   9.308 -0.2954  1.3117 -0.2933
  569MOL0     C75028   7.354  11.097   9.642  0.6817  0.2450  0.3040
  569MOL0     C75029   7.459  11.016   9.689  0.4178  0.5830  0.6852
  569MOL0     C75030   7.700  10.759   9.988 -0.4311 -0.4514 -0.3447
  569MOL0     C75031   7.786  10.707   9.894  0.0291 -0.5327  0.3203
  569MOL0     C75032   7.896  10.635   9.928 -1.2129  0.4911 -0.9281
  569MOL0     C75033   7.920  10.617  10.061 -0.3115  0.2839 -0.2512
  569MOL0     O75034   8.040  10.556  10.099 -0.0975 -0.1475  0.8415
  569MOL0     C75035   8.094  10.574  10.230  1.0146 -0.1450  0.3334
  569MOL0     C75036   8.230  10.503  10.229  0.4809  0.7048  0.7360
  569MOL0     C75037   8.235  10.349  10.214  0.5353  0.0614  0.0593
  569MOL0     C75038   8.377  10.321  10.176 -0.2482 -0.4781  0.3094
  569MOL0     C75039   8.389  10.176  10.175 -0.4414 -0.3864  0.8280
  569MOL0     C75040   8.431  10.062  10.184 -0.4864  0.3865 -0.1180
  569MOL0     C75041   7.837  10.672  10.158  0.6186 -0.3239  0.3577
  569MOL0     C75042   7.727  10.746  10.122 -0.0027 -0.3749  0.1423
  569MOL0     H75043   7.296  10.767   9.840 -1.6910 -1.1938 -0.7300
  569MOL0     H75044   7.097  10.930   9.754 -1.6492  5.1182  0.6531
  569MOL0     H75045   7.199  11.059   9.423 -0.3867 -2.0853  0.7129
  569MOL0     H75046   7.158  11.232   9.439 -5.1734  2.0936  0.1576
  569MOL0     H75047   6.951  11.010   9.463 -0.5938  2.1134  1.5460
  569MOL0     H75048   6.998  11.050   9.302 -0.8763  2.2312 -1.8464
  569MOL0     H75049   6.918  11.294   9.352 -2.2073  2.3871 -0.1637
  569MOL0     H75050   6.888  11.230   9.522 -0.9362 -0.9781 -0.0556
  569MOL0     H75051   6.763  11.141   9.259  1.1270 -7.0689  0.1204
  569MOL0     H75052   6.743  11.052   9.409  4.0972 -1.7097 -0.6087
  569MOL0     H75053   6.644  11.347   9.348 -0.5286  0.1107  1.0417
  569MOL0     H75054   6.633  11.259   9.510 -3.5933 -1.9047  0.3024
  569MOL0     H75055   6.506  11.084   9.417 -1.6451  0.1889  0.0826
  569MOL0     H75056   6.534  11.155   9.248  0.5339  4.0587 -0.4648
  569MOL0     H75057   6.364  11.262   9.472 -1.2218  1.7469  0.1390
  569MOL0     H75058   6.418  11.364   9.337 -1.4650  0.3314  0.0681
  569MOL0     H75059   6.269  11.096   9.352  1.4757 -0.7247 -1.4708
  569MOL0     H75060   6.318  11.171   9.192 -1.0413 -0.7767  0.1571
  569MOL0     H75061   6.017  11.090   9.248  1.9459 -0.8543  1.2968
  569MOL0     H75062   5.749  11.358   9.283 -0.2323  3.2086 -2.2162
  569MOL0     H75063   5.775  11.194   9.214 -1.5534  0.5702  2.0834
  569MOL0     H75064   5.838  11.470   9.071  1.5005 -0.5091 -0.7487
  569MOL0     H75065   5.698  11.377   9.070 -0.2367  2.2215  3.9764
  569MOL0     H75066   5.874  11.366   8.878  0.2628  1.6169  1.2951
  569MOL0     H75067   5.977  11.286   8.995  1.2116 -2.1831 -2.0717
  569MOL0     H75068   5.704  11.185   8.888 -0.3454 -1.8211 -0.6416
  569MOL0     H75069   5.806  11.096   9.000 -3.7513  1.0332  0.9154
  569MOL0     H75070   6.020  11.072   9.002 -1.6934 -0.1449 -0.2752
  569MOL0     H75071   6.253  10.945   8.990 -0.1102 -1.9960  0.5384
  569MOL0     H75072   6.427  10.532   8.990 -1.1506  1.8936 -1.6024
  569MOL0     H75073   6.652  10.407   9.009  1.8590 -0.0313 -0.6249
  569MOL0     H75074   6.880  10.478   8.662  0.0642 -0.3397 -0.9523
  569MOL0     H75075   6.963  10.339   8.747  2.5927  0.8625  0.4863
  569MOL0     H75076   7.083  10.534   8.861 -0.2500 -1.9604  0.7192
  569MOL0     H75077   7.040  10.631   8.717 -0.1762 -0.2497 -0.3836
  569MOL0     H75078   7.136  10.479   8.568 -2.6957 -0.0032  0.7219
  569MOL0     H75079   7.190  10.370   8.707 -0.7563 -1.1400 -0.5222
  569MOL0     H75080   7.239  10.667   8.645  0.7829  1.0724 -0.9037
  569MOL0     H75081   7.306  10.580   8.791 -1.4988 -0.4612 -0.3080
  569MOL0     H75082   7.467  10.614   8.593  1.3344 -1.2438  2.6125
  569MOL0     H75083   7.374  10.496   8.495 -1.3447 -0.0531 -0.2031
  569MOL0     H75084   7.403  10.327   8.688 -1.7782  2.5378  5.5475
  569MOL0     H75085   7.535  10.424   8.747 -0.4866  2.3800 -0.6800
  569MOL0     H75086   7.667  10.392   8.531  4.7477 -5.1648  2.4531
  569MOL0     H75087   7.634  10.259   8.614  1.5883  0.4363 -0.8073
  569MOL0     H75088   7.467  10.355   8.382 -1.5056 -0.2037  0.7953
  569MOL0     H75089   7.423  10.226   8.474  1.1160 -0.8188 -1.5437
  569MOL0     H75090   6.816  10.712   8.744 -1.0185 -0.1546 -1.9865
  569MOL0     H75091   6.621  10.819   8.744  0.6976 -0.1779 -1.7939
  569MOL0     H75092   6.143  10.842   8.589 -2.8809  0.0904 -0.5828
  569MOL0     H75093   5.952  10.977   8.595 -2.0004  1.9354  1.2137
  569MOL0     H75094   7.380  11.180   9.577 -0.7271  0.6246  0.2001
  569MOL0     H75095   7.557  11.062   9.682  1.1305 -0.8480  0.8375
  569MOL0     H75096   7.768  10.714   9.787 -0.4304  0.4291  0.4549
  569MOL0     H75097   7.965  10.599   9.853 -1.4574 -0.1176 -0.8682
  569MOL0     H75098   8.020  10.536  10.301 -0.3141  0.5505 -0.6445
  569MOL0     H75099   8.115  10.679  10.250 -0.5986  0.1073  0.8794
  569MOL0     H75100   8.272  10.550  10.140 -1.7555  1.3956 -0.0367
  569MOL0     H75101   8.287  10.527  10.319  1.6533  2.5762 -0.4485
  569MOL0     H75102   8.177  10.313  10.128  1.0605  1.1272 -0.7578
  569MOL0     H75103   8.208  10.310  10.313 -0.2165 -0.6368 -0.4108
  569MOL0     H75104   8.400  10.352  10.074 -2.2374 -2.9857 -1.0187
  569MOL0     H75105   8.445  10.365  10.249 -1.2290  3.3812 -0.9143
  569MOL0     H75106   8.486   9.970  10.193 -1.3398 -0.3341 -1.8307
  569MOL0     H75107   7.872  10.670  10.261  0.3099 -1.0834  0.4565
  569MOL0     H75108   7.658  10.778  10.200  0.1746  1.2018 -0.3168
  570MOL0     O75109   2.897   8.692   1.277  0.4820 -0.3090 -0.7841
  570MOL0     C75110   2.862   8.669   1.165  1.0955  0.2570 -0.1637
  570MOL0     O75111   2.733   8.671   1.122  0.4164 -0.1142 -0.1695
  570MOL0     C75112   2.639   8.638   1.215 -0.5310 -0.6013  0.2167
  570MOL0     C75113   2.600   8.511   1.205 -0.5294  0.4438 -0.5593
  570MOL0     C75114   2.509   8.456   1.295  0.1867 -0.1630  0.1149
  570MOL0     C75115   2.456   8.542   1.393 -0.5760  1.0749 -0.9088
  570MOL0     O75116   2.378   8.508   1.501  0.3877 -0.5092 -0.1852
  570MOL0     C75117   2.311   8.387   1.502  1.0407  1.2392 -0.0635
  570MOL0     C75118   2.204   8.377   1.619 -0.1765 -0.7239 -0.1934
  570MOL0     C75119   2.098   8.272   1.590  0.2452 -0.4234  0.0227
  570MOL0     C75120   2.032   8.231   1.722 -0.0859  0.0130 -0.2045
  570MOL0     C75121   1.918   8.131   1.704  0.3152  0.3962 -0.2581
  570MOL0     C75122   1.861   8.091   1.844 -0.5655  0.1095  0.3780
  570MOL0     C75123   1.758   7.994   1.824  0.3869 -1.4840  1.1389
  570MOL0     C75124   1.657   8.007   1.937  0.2347 -0.3624  0.5337
  570MOL0     N75125   1.535   7.914   1.935 -0.3333  0.3889  1.6125
  570MOL0     C75126   1.502   7.816   2.025  1.0757  0.8805 -0.4083
  570MOL0     C75127   1.374   7.779   1.999 -0.1898  0.7989 -0.1114
  570MOL0     C75128   1.317   7.655   2.064 -0.1680  0.0483  0.0164
  570MOL0     C75129   1.218   7.668   2.188 -0.6544 -0.5451  0.0119
  570MOL0     C75130   1.090   7.721   2.129 -0.1007 -0.3738 -0.0404
  570MOL0     C75131   1.006   7.631   2.033  0.8744 -0.0357  0.1043
  570MOL0     O75132   0.968   7.504   2.078 -0.2227  0.2032  0.2483
  570MOL0     C75133   0.851   7.454   2.024 -0.4039 -0.2516  0.3463
  570MOL0     C75134   0.837   7.389   1.899 -0.0729  1.3352  0.4919
  570MOL0     C75135   0.708   7.347   1.864  0.4369 -0.0014  0.6570
  570MOL0     C75136   0.600   7.362   1.949 -0.0249  0.1356  0.3025
  570MOL0     C75137   0.465   7.313   1.904 -0.1324 -0.2150  0.3157
  570MOL0     O75138   0.483   7.211   1.823  0.0686  0.5522 -0.9310
  570MOL0     C75139   0.368   7.152   1.780  0.4390  0.3460  0.3548
  570MOL0     C75140   0.282   7.071   1.863  0.6208  0.4033 -0.2962
  570MOL0     C75141   0.171   6.986   1.818 -1.0497 -0.3982  0.1150
  570MOL0     C75142   0.138   7.004   1.681  0.1819 -0.6004  0.6853
  570MOL0     O75143   0.029   6.941   1.632 -0.3595  0.1545  0.2096
  570MOL0     C75144  -0.064   7.023   1.566 -0.9582 -0.6849  0.9824
  570MOL0     C75145  -0.157   6.947   1.472 -1.2158  0.4074 -0.3224
  570MOL0     C75146  -0.086   6.849   1.378  1.2334  0.2266 -0.6877
  570MOL0     C75147   0.015   6.897   1.273 -0.3025  0.0609 -0.0073
  570MOL0     C75148   0.039   6.790   1.162 -0.1311 -0.0954 -0.5754
  570MOL0     C75149  -0.076   6.792   1.065  0.0181 -0.6332  0.1333
  570MOL0     C75150  -0.055   6.698   0.945 -0.2555 -1.3180 -0.8705
  570MOL0     C75151  -0.093   6.555   0.982  0.0360  0.2330  0.2917
  570MOL0    Cl75152   0.011   6.436   0.896 -0.5623  0.5099  0.1596
  570MOL0     C75153   0.217   7.074   1.595  0.1771  0.1773  0.2653
  570MOL0     C75154   0.330   7.151   1.644 -0.4247  0.1190 -1.1942
  570MOL0     O75155   0.355   7.364   1.947  0.6677 -0.0882  0.4489
  570MOL0     C75156   0.611   7.443   2.058  0.4536  0.5732 -0.7426
  570MOL0     C75157   0.736   7.489   2.093 -0.2387 -0.7296 -0.0978
  570MOL0     N75158   1.322   7.876   1.905  0.5946 -0.3696 -0.9411
  570MOL0     N75159   1.421   7.948   1.870 -0.2178  1.3076  0.3450
  570MOL0     C75160   2.507   8.677   1.407 -0.4748  0.7227 -0.3500
  570MOL0     C75161   2.600   8.724   1.318  0.2119  0.2249  0.5720
  570MOL0     C75162   2.962   8.657   1.053  0.4580 -0.9927  0.6287
  570MOL0     C75163   2.927   8.693   0.923  0.3508 -1.2369  0.2611
  570MOL0     C75164   3.022   8.706   0.826  0.2886 -0.9808  0.0986
  570MOL0     C75165   3.150   8.667   0.845  0.0250  0.5605 -0.1713
  570MOL0     O75166   3.226   8.688   0.737 -0.7298  0.2920  0.6325
  570MOL0     C75167   3.352   8.609   0.728 -0.1662 -1.2842 -0.5395
  570MOL0     C75168   3.412   8.600   0.595 -0.0007  0.3444  0.7999
  570MOL0     C75169   3.320   8.537   0.481 -0.0268  0.4889  0.5825
  570MOL0     C75170   3.412   8.492   0.360 -0.4671 -0.5348  0.1595
  570MOL0     C75171   3.472   8.356   0.382  0.1281  0.1351  0.6204
  570MOL0     C75172   3.515   8.246   0.415 -0.3972 -0.1756 -0.5272
  570MOL0     C75173   3.191   8.611   0.962 -0.3946 -0.1743  0.3742
  570MOL0     C75174   3.099   8.623   1.072 -0.1574 -0.0588 -0.4454
  570MOL0     H75175   2.625   8.452   1.117  0.3998 -1.1217  0.6975
  570MOL0     H75176   2.495   8.349   1.287 -0.2772 -0.1967  1.2536
  570MOL0     H75177   2.378   8.300   1.503 -1.2885 -0.6796 -0.9522
  570MOL0     H75178   2.251   8.379   1.410  3.0221 -2.3089 -1.2653
  570MOL0     H75179   2.154   8.472   1.640  0.6111 -0.8430  2.6026
  570MOL0     H75180   2.259   8.359   1.712 -0.9777 -2.4245 -0.0049
  570MOL0     H75181   2.151   8.183   1.554  0.6984  0.2356 -0.9849
  570MOL0     H75182   2.022   8.303   1.517  3.8758 -0.0677 -4.0591
  570MOL0     H75183   2.094   8.186   1.800 -1.7430  1.1061  1.8749
  570MOL0     H75184   1.998   8.323   1.771  0.4891  1.3199 -2.1396
  570MOL0     H75185   1.960   8.044   1.653  2.3957  1.0933  0.1785
  570MOL0     H75186   1.841   8.183   1.645 -1.4247 -1.4499  0.2839
  570MOL0     H75187   1.815   8.180   1.886 -0.2897  0.9523 -1.0581
  570MOL0     H75188   1.948   8.053   1.899  1.0588  0.3708 -1.8600
  570MOL0     H75189   1.698   8.018   1.735  1.9889 -0.7568  0.2168
  570MOL0     H75190   1.801   7.895   1.808  0.7683 -1.1996  0.3728
  570MOL0     H75191   1.609   8.105   1.939 -0.4398 -0.6948  0.8480
  570MOL0     H75192   1.711   7.990   2.031  3.0986  0.9489 -0.7345
  570MOL0     H75193   1.569   7.763   2.092  2.2014  1.7845 -0.7858
  570MOL0     H75194   1.403   7.593   2.094  1.4267  2.0608 -0.1308
  570MOL0     H75195   1.252   7.596   1.999  0.8399  0.0262 -0.9923
  570MOL0     H75196   1.276   7.733   2.255 -0.0489  0.0753 -1.0946
  570MOL0     H75197   1.197   7.570   2.233  0.5899 -0.2945  1.1939
  570MOL0     H75198   1.022   7.764   2.204 -1.9445  0.4365 -2.0697
  570MOL0     H75199   1.112   7.808   2.066  1.7082 -0.1066  0.8974
  570MOL0     H75200   1.052   7.631   1.934 -0.5140  0.7039 -0.5673
  570MOL0     H75201   0.910   7.683   2.033  0.8144 -0.0496 -2.2652
  570MOL0     H75202   0.916   7.370   1.827 -0.7860 -1.6275  0.3623
  570MOL0     H75203   0.696   7.290   1.772 -0.9412  0.0352  0.7864
  570MOL0     H75204   0.306   7.081   1.969 -3.1484  1.8803  0.5732
  570MOL0     H75205   0.106   6.924   1.879  1.1365 -2.0124  0.9301
  570MOL0     H75206  -0.013   7.096   1.502 -1.8960  0.6696  1.7362
  570MOL0     H75207  -0.126   7.080   1.636 -0.9338 -1.1008  1.3445
  570MOL0     H75208  -0.216   7.023   1.420  1.2849  0.8449 -2.7362
  570MOL0     H75209  -0.217   6.889   1.542  1.4427  0.7316  2.5033
  570MOL0     H75210  -0.170   6.796   1.333  2.4803 -3.0331  0.5274
  570MOL0     H75211  -0.031   6.768   1.427  1.5274 -0.8706 -2.7331
  570MOL0     H75212  -0.022   6.988   1.226 -0.6299 -0.0504  0.0303
  570MOL0     H75213   0.107   6.939   1.315 -0.6773 -0.1443  1.0719
  570MOL0     H75214   0.046   6.691   1.208  0.7319 -0.6300 -1.8173
  570MOL0     H75215   0.132   6.807   1.107  1.1402  0.9128  1.7431
  570MOL0     H75216  -0.092   6.896   1.036 -2.1745 -0.0008  3.1122
  570MOL0     H75217  -0.177   6.780   1.105  0.3359 -1.4531  0.7040
  570MOL0     H75218  -0.112   6.748   0.866 -1.0308  3.3058  2.2397
  570MOL0     H75219   0.050   6.692   0.913 -0.0302  3.0991 -1.6267
  570MOL0     H75220  -0.199   6.552   0.957  0.2056  1.1565 -0.6023
  570MOL0     H75221  -0.086   6.533   1.089  0.0732 -0.7845  0.0873
  570MOL0     H75222   0.185   7.068   1.491 -0.7924  1.7573  0.4351
  570MOL0     H75223   0.397   7.208   1.581  0.1898 -0.8267 -1.4141
  570MOL0     H75224   0.529   7.451   2.128 -2.0905 -0.4424 -3.4007
  570MOL0     H75225   0.757   7.556   2.176  3.4374  2.0968 -2.9669
  570MOL0     H75226   2.448   8.735   1.477 -1.0495 -0.1755 -0.0729
  570MOL0     H75227   2.637   8.826   1.323 -0.6478  0.4848  2.6129
  570MOL0     H75228   2.820   8.712   0.912 -0.0256 -2.0133  2.2057
  570MOL0     H75229   2.984   8.748   0.734  0.7872  0.7166  0.6405
  570MOL0     H75230   3.323   8.506   0.750 -0.1049 -1.2728 -0.4037
  570MOL0     H75231   3.414   8.663   0.800 -0.9525  1.9110 -2.0733
  570MOL0     H75232   3.448   8.701   0.571  1.6328 -0.1054  1.2147
  570MOL0     H75233   3.498   8.534   0.607  0.0328  0.2312  0.0169
  570MOL0     H75234   3.254   8.616   0.444 -1.6388 -0.7947  0.6505
  570MOL0     H75235   3.275   8.446   0.520  0.3226  0.2701  0.4816
  570MOL0     H75236   3.336   8.483   0.282 -0.2896 -0.6998  0.0038
  570MOL0     H75237   3.497   8.559   0.343  0.4482 -1.5088  0.7522
  570MOL0     H75238   3.571   8.164   0.456 -0.1068 -0.7340 -1.9930
  570MOL0     H75239   3.290   8.571   0.982  0.7572  1.7044 -1.2407
  570MOL0     H75240   3.104   8.589   1.176 -2.2696 -0.4583 -0.4305
  571MOL0     O75241   0.294   8.339   7.466  0.2939 -0.1684 -0.0250
  571MOL0     C75242   0.308   8.223   7.439  0.6083  0.4412 -0.3202
  571MOL0     O75243   0.221   8.124   7.489  0.4231 -0.0185 -0.5694
  571MOL0     C75244   0.113   8.164   7.563 -0.1352  0.2126  0.2715
  571MOL0     C75245   0.129   8.246   7.680  0.8250  0.5726  0.4343
  571MOL0     C75246   0.020   8.299   7.751  0.3110  0.8616 -0.2394
  571MOL0     C75247  -0.104   8.275   7.710 -0.1567 -0.2077  0.6735
  571MOL0     O75248  -0.218   8.326   7.758 -1.3098  0.5058  0.5600
  571MOL0     C75249  -0.199   8.401   7.880  0.0084  0.0747 -0.8669
  571MOL0     C75250  -0.334   8.474   7.918 -0.6184  0.8140  0.2171
  571MOL0     C75251  -0.362   8.582   7.818  0.3905 -0.2265 -0.3914
  571MOL0     C75252  -0.494   8.666   7.847  0.7134 -0.0347 -0.6727
  571MOL0     C75253  -0.507   8.787   7.752 -0.3050  0.6474  0.2539
  571MOL0     C75254  -0.634   8.875   7.777  0.3715 -0.6935  0.0218
  571MOL0     C75255  -0.596   8.983   7.881  0.2500  0.4395  1.0500
  571MOL0     C75256  -0.713   9.056   7.952  0.7378  0.0375  1.0336
  571MOL0     N75257  -0.772   9.155   7.856 -0.0454  0.7731  0.7924
  571MOL0     C75258  -0.888   9.152   7.793  0.4886 -0.8574 -1.1758
  571MOL0     C75259  -0.898   9.275   7.720 -0.3611  0.2601 -0.2782
  571MOL0     C75260  -0.998   9.307   7.611  0.6492 -0.1981 -0.2049
  571MOL0     C75261  -1.124   9.367   7.667  0.0438 -0.4091  0.1787
  571MOL0     C75262  -1.111   9.487   7.774  1.0843  0.1949 -1.4380
  571MOL0     C75263  -1.243   9.557   7.812  0.0032  0.7217  0.0959
  571MOL0     O75264  -1.319   9.477   7.900 -0.1128  0.0667  0.3054
  571MOL0     C75265  -1.453   9.509   7.918 -0.8565 -0.6202  0.0806
  571MOL0     C75266  -1.513   9.618   7.861  0.0642  0.0096 -0.6295
  571MOL0     C75267  -1.647   9.650   7.893  1.4339  0.7535  0.0595
  571MOL0     C75268  -1.729   9.555   7.959 -0.6927 -0.3975 -0.0922
  571MOL0     C75269  -1.869   9.586   7.994 -0.3648 -0.2193 -0.7650
  571MOL0     O75270  -1.936   9.484   8.060  0.2905  0.2525 -0.4533
  571MOL0     C75271  -2.077   9.480   8.053  0.2094 -0.3373  0.0591
  571MOL0     C75272  -2.139   9.502   7.927 -0.3369 -0.6188  1.1011
  571MOL0     C75273  -2.280   9.516   7.907 -0.3991  0.4508 -0.0139
  571MOL0     C75274  -2.359   9.493   8.022  0.7006  0.4353  0.1443
  571MOL0     O75275  -2.495   9.498   8.018  0.5077 -0.2192 -0.4127
  571MOL0     C75276  -2.571   9.395   8.083 -0.4290  0.7108  0.2738
  571MOL0     C75277  -2.631   9.452   8.221  0.2651 -0.0916 -0.1436
  571MOL0     C75278  -2.775   9.391   8.257 -0.0541 -0.7761 -0.0468
  571MOL0     C75279  -2.782   9.234   8.259 -0.3247 -1.0467 -0.9452
  571MOL0     C75280  -2.921   9.185   8.303  0.2764  1.2405 -0.1577
  571MOL0     C75281  -3.054   9.246   8.237 -0.1893 -0.4982 -0.1378
  571MOL0     C75282  -3.165   9.169   8.312  0.2087 -0.0921 -0.1381
  571MOL0     C75283  -3.304   9.243   8.297 -0.4153  0.3401 -0.9603
  571MOL0    Cl75284  -3.350   9.271   8.128 -0.0935  0.0380  0.2394
  571MOL0     C75285  -2.300   9.468   8.147  0.2041 -0.1989  0.3615
  571MOL0     C75286  -2.161   9.462   8.158  0.5222  0.1845 -0.3465
  571MOL0     O75287  -1.914   9.683   7.947  0.5952 -0.8930 -0.5164
  571MOL0     C75288  -1.672   9.436   7.996 -0.0635 -0.5547 -0.2170
  571MOL0     C75289  -1.535   9.411   7.969 -0.0629  0.0288 -0.0632
  571MOL0     N75290  -0.781   9.351   7.751 -0.2403  0.2342  1.1929
  571MOL0     N75291  -0.717   9.279   7.838 -0.1721  0.6684  0.4941
  571MOL0     C75292  -0.126   8.195   7.595  0.0819  0.4993 -0.5228
  571MOL0     C75293  -0.017   8.136   7.520  0.1751  0.7449 -0.5705
  571MOL0     C75294   0.429   8.191   7.356  0.3959  0.2426 -0.2176
  571MOL0     C75295   0.513   8.290   7.288 -0.2688 -0.6017 -0.8480
  571MOL0     C75296   0.628   8.249   7.218  0.5515 -1.3880  0.3707
  571MOL0     C75297   0.654   8.112   7.226  0.6799 -1.1379  0.0001
  571MOL0     O75298   0.769   8.054   7.181 -0.2178  0.0506  0.4182
  571MOL0     C75299   0.889   8.121   7.150  0.6099  0.8900 -0.0063
  571MOL0     C75300   0.999   8.057   7.236 -0.1412  0.1977 -0.9227
  571MOL0     C75301   1.035   7.913   7.187  0.5676  0.3926 -0.3102
  571MOL0     C75302   1.105   7.827   7.301 -0.0929 -0.3093 -0.8848
  571MOL0     C75303   1.241   7.891   7.330  0.1915  0.8825 -0.0448
  571MOL0     C75304   1.358   7.924   7.355 -0.0324  0.7311  0.4952
  571MOL0     C75305   0.574   8.013   7.286 -0.0859 -0.3897 -0.6839
  571MOL0     C75306   0.454   8.054   7.346 -0.4677  0.1017 -0.0856
  571MOL0     H75307   0.217   8.297   7.719  1.4093  1.1720 -1.5078
  571MOL0     H75308   0.046   8.372   7.827 -0.3201  0.6654  0.1774
  571MOL0     H75309  -0.128   8.478   7.848  2.6407 -1.9507 -0.2375
  571MOL0     H75310  -0.161   8.334   7.956  3.0781  1.4894 -1.0186
  571MOL0     H75311  -0.307   8.517   8.015  1.2490 -0.0794  0.1383
  571MOL0     H75312  -0.413   8.400   7.934  0.8649 -1.3925 -1.9878
  571MOL0     H75313  -0.374   8.532   7.721  2.3948  2.0709 -1.9257
  571MOL0     H75314  -0.275   8.646   7.805  1.9194 -2.2443 -0.5681
  571MOL0     H75315  -0.567   8.586   7.832  1.0409 -0.1720 -1.6019
  571MOL0     H75316  -0.501   8.702   7.950  0.3664  4.1311 -1.9867
  571MOL0     H75317  -0.508   8.751   7.649  2.1228 -0.5500  0.5797
  571MOL0     H75318  -0.419   8.853   7.753 -0.4475  0.8497 -0.3048
  571MOL0     H75319  -0.718   8.814   7.812 -1.4566  2.4173  1.4943
  571MOL0     H75320  -0.667   8.915   7.682 -0.9600 -2.7718 -0.4516
  571MOL0     H75321  -0.531   8.944   7.960  0.2754  0.9292  1.2773
  571MOL0     H75322  -0.546   9.059   7.820 -0.2567 -0.9482 -1.2352
  571MOL0     H75323  -0.666   9.114   8.033  1.6322  1.9399 -0.7658
  571MOL0     H75324  -0.794   8.988   7.982 -0.9664  2.0472  1.2411
  571MOL0     H75325  -0.966   9.078   7.783 -1.4715  0.2024  3.5410
  571MOL0     H75326  -1.016   9.220   7.548  1.9990 -1.3416  0.9162
  571MOL0     H75327  -0.945   9.379   7.548  0.9365  0.6069  0.9178
  571MOL0     H75328  -1.178   9.289   7.721  0.2132  0.7424  2.1054
  571MOL0     H75329  -1.179   9.408   7.581  1.2683 -1.2311 -1.0384
  571MOL0     H75330  -1.071   9.450   7.869  2.5710  1.6946 -1.4272
  571MOL0     H75331  -1.041   9.556   7.726 -1.2730  2.1469 -2.2626
  571MOL0     H75332  -1.291   9.586   7.717  1.4954  1.0701 -0.5713
  571MOL0     H75333  -1.216   9.650   7.862 -1.6226  0.9372  0.6465
  571MOL0     H75334  -1.453   9.694   7.812  0.8287 -0.9746 -1.2742
  571MOL0     H75335  -1.681   9.746   7.856  0.4205 -0.2876 -1.8800
  571MOL0     H75336  -2.074   9.500   7.841 -2.4936 -4.3513 -0.6993
  571MOL0     H75337  -2.332   9.544   7.815 -0.7957  0.0936  0.0963
  571MOL0     H75338  -2.502   9.313   8.104 -0.7149  0.6401  0.9958
  571MOL0     H75339  -2.656   9.354   8.027 -0.6213  1.9952 -0.4266
  571MOL0     H75340  -2.631   9.561   8.224  2.2936  0.0841 -3.1348
  571MOL0     H75341  -2.567   9.420   8.304 -1.0757  1.9103  1.8141
  571MOL0     H75342  -2.849   9.442   8.195  0.5311  1.5179  1.0353
  571MOL0     H75343  -2.798   9.419   8.361  2.0736 -1.5546  0.6976
  571MOL0     H75344  -2.769   9.203   8.155 -1.8510  2.0052 -2.1830
  571MOL0     H75345  -2.701   9.211   8.329 -0.4812  0.7098 -0.1383
  571MOL0     H75346  -2.929   9.190   8.411  0.9774 -0.2114 -0.0155
  571MOL0     H75347  -2.921   9.078   8.281  0.7753  0.7804  1.8908
  571MOL0     H75348  -3.071   9.242   8.129 -0.5927 -0.5305 -0.0732
  571MOL0     H75349  -3.064   9.352   8.261  0.2904 -0.9321  2.2464
  571MOL0     H75350  -3.170   9.071   8.263  0.2692  0.8527 -2.1556
  571MOL0     H75351  -3.144   9.143   8.416 -0.0664 -2.4035 -0.5992
  571MOL0     H75352  -3.316   9.336   8.354 -2.3963  0.2561 -1.1645
  571MOL0     H75353  -3.382   9.173   8.331 -0.9554  1.3257 -0.0774
  571MOL0     H75354  -2.360   9.452   8.237 -0.7119  3.2091  0.4938
  571MOL0     H75355  -2.106   9.453   8.251  0.1047  3.3365  0.3162
  571MOL0     H75356  -1.738   9.371   8.053 -1.3472 -0.0829 -1.1207
  571MOL0     H75357  -1.498   9.316   8.006 -2.7957 -1.6135 -1.2892
  571MOL0     H75358  -0.228   8.168   7.569  0.1184  0.4271 -0.5926
  571MOL0     H75359  -0.049   8.088   7.427 -3.2385  1.4006  0.1117
  571MOL0     H75360   0.509   8.398   7.280  2.6810 -0.2428  0.9819
  571MOL0     H75361   0.685   8.320   7.159 -2.7662 -0.6536 -2.2606
  571MOL0     H75362   0.887   8.229   7.165 -3.6193  1.1408 -0.9702
  571MOL0     H75363   0.919   8.109   7.046 -1.6333 -3.2396 -0.3871
  571MOL0     H75364   1.090   8.118   7.244 -1.4398  1.9547  3.3869
  571MOL0     H75365   0.957   8.053   7.337  0.4660  4.5555 -0.2892
  571MOL0     H75366   1.093   7.917   7.094 -2.5360  1.5589 -2.3428
  571MOL0     H75367   0.945   7.858   7.158  0.3568  1.2778 -1.4142
  571MOL0     H75368   1.041   7.845   7.388 -0.4788 -0.9544 -1.0273
  571MOL0     H75369   1.106   7.719   7.284 -1.4590 -0.3244 -1.0151
  571MOL0     H75370   1.456   7.966   7.365 -0.7047  2.1005  1.8846
  571MOL0     H75371   0.595   7.907   7.284  1.2066 -0.1625  0.0222
  571MOL0     H75372   0.374   7.983   7.365  0.6308 -0.9489  0.7346
  572MOL0     O75373   3.059   8.336   5.665  0.4916 -0.4349  0.3862
  572MOL0     C75374   3.131   8.248   5.712 -0.7260  0.3060  0.3050
  572MOL0     O75375   3.090   8.117   5.736 -0.0948  0.9181  1.0268
  572MOL0     C75376   2.968   8.088   5.684 -0.8869  0.0978  0.6400
  572MOL0     C75377   2.863   8.044   5.758  0.1693 -0.2474 -0.7440
  572MOL0     C75378   2.737   8.003   5.708 -0.0046  0.0876 -0.5632
  572MOL0     C75379   2.717   8.010   5.571 -1.1336  0.0833 -0.0699
  572MOL0     O75380   2.593   7.980   5.518  0.4340 -0.4278  0.4552
  572MOL0     C75381   2.574   7.844   5.469 -0.1178  0.2960 -0.0085
  572MOL0     C75382   2.424   7.810   5.503 -0.3111  0.1948 -0.2423
  572MOL0     C75383   2.329   7.913   5.433  0.4583  0.0641  0.5287
  572MOL0     C75384   2.182   7.868   5.447 -0.8279  0.7848  0.5024
  572MOL0     C75385   2.092   7.982   5.441  0.6380  0.1868  0.7567
  572MOL0     C75386   1.947   7.931   5.411  0.2090  0.5913  0.4229
  572MOL0     C75387   1.839   8.038   5.437 -0.6854  1.4524  0.4503
  572MOL0     C75388   1.687   8.004   5.422 -0.0318  0.2876 -0.4698
  572MOL0     N75389   1.640   7.972   5.282  0.0193  0.3531  0.3954
  572MOL0     C75390   1.564   8.061   5.213 -0.7398 -0.6344 -0.5260
  572MOL0     C75391   1.522   7.993   5.103  0.7642  0.6909  0.7749
  572MOL0     C75392   1.448   8.035   4.978 -0.1548  0.1396 -0.6195
  572MOL0     C75393   1.300   8.012   5.000  1.0208  1.2344 -0.9524
  572MOL0     C75394   1.230   8.115   5.082  0.1682  0.3632 -0.4761
  572MOL0     C75395   1.085   8.076   5.107 -0.0076  0.6754 -0.0915
  572MOL0     O75396   1.080   7.979   5.211 -0.2498 -0.0530  0.3203
  572MOL0     C75397   0.955   7.936   5.230  0.1975 -0.7073 -0.7615
  572MOL0     C75398   0.943   7.826   5.308 -1.2910 -0.3350  0.1008
  572MOL0     C75399   0.822   7.771   5.341  0.9615  0.3793  0.3775
  572MOL0     C75400   0.704   7.825   5.296 -0.5525 -0.6983 -0.4093
  572MOL0     C75401   0.577   7.771   5.333  0.8582 -0.6066 -0.2412
  572MOL0     O75402   0.469   7.793   5.248 -0.2001  0.4355 -0.2815
  572MOL0     C75403   0.343   7.761   5.301 -0.1861  0.6136  0.6784
  572MOL0     C75404   0.294   7.802   5.418  0.2058 -0.0773 -0.2285
  572MOL0     C75405   0.182   7.761   5.479 -0.2278 -0.4714  0.9319
  572MOL0     C75406   0.093   7.676   5.397 -0.3569 -0.4672 -0.8094
  572MOL0     O75407  -0.026   7.630   5.443  0.2442 -0.3381 -0.1221
  572MOL0     C75408  -0.092   7.671   5.562  1.1217 -0.3626  0.0037
  572MOL0     C75409  -0.162   7.808   5.533  1.0300 -0.1370 -0.8863
  572MOL0     C75410  -0.293   7.783   5.454  0.1616 -0.1006  0.0418
  572MOL0     C75411  -0.370   7.915   5.460 -1.1300 -0.0723 -0.1548
  572MOL0     C75412  -0.513   7.901   5.419 -0.2143 -0.1550  0.0813
  572MOL0     C75413  -0.536   7.824   5.289  0.1569 -0.6150 -0.6798
  572MOL0     C75414  -0.685   7.817   5.230 -0.4814 -0.1257 -0.1861
  572MOL0     C75415  -0.790   7.790   5.351 -0.0594 -0.8523  0.9313
  572MOL0    Cl75416  -0.934   7.727   5.267  0.5380  0.2076  0.2022
  572MOL0     C75417   0.133   7.638   5.272  0.5751 -0.0062  0.0825
  572MOL0     C75418   0.264   7.676   5.225  1.3930  0.2741 -0.1742
  572MOL0     O75419   0.571   7.714   5.443  0.5404 -0.2681  0.8076
  572MOL0     C75420   0.708   7.928   5.205 -0.2407  0.2913 -0.0040
  572MOL0     C75421   0.836   7.984   5.170  0.1950  0.0596 -0.0208
  572MOL0     N75422   1.570   7.865   5.108  0.1607 -0.8205  0.0934
  572MOL0     N75423   1.644   7.849   5.217 -0.1918 -0.1429 -0.5597
  572MOL0     C75424   2.824   8.057   5.490  0.2043 -0.1566 -0.1916
  572MOL0     C75425   2.949   8.093   5.545  0.2716 -0.5262 -0.3937
  572MOL0     C75426   3.265   8.292   5.750 -0.3966 -0.3697 -0.3828
  572MOL0     C75427   3.341   8.214   5.841 -0.3120  0.4502  0.8162
  572MOL0     C75428   3.454   8.265   5.901 -0.2452  0.3185 -0.4451
  572MOL0     C75429   3.516   8.382   5.864 -0.1933 -0.5119  0.2689
  572MOL0     O75430   3.645   8.412   5.915  0.4488  0.0613 -0.4422
  572MOL0     C75431   3.702   8.545   5.894 -0.1175  0.1638  0.2953
  572MOL0     C75432   3.840   8.549   5.952  0.4842  0.4101  0.4879
  572MOL0     C75433   3.908   8.673   5.897 -0.2017 -1.1398  0.1971
  572MOL0     C75434   4.052   8.703   5.956  0.2802 -0.6232 -0.1846
  572MOL0     C75435   4.142   8.609   5.908 -0.9240  0.0407  0.4827
  572MOL0     C75436   4.208   8.512   5.876  0.4679  0.2714  0.7382
  572MOL0     C75437   3.438   8.464   5.786 -0.5766  0.3267 -0.4578
  572MOL0     C75438   3.313   8.427   5.725 -0.6857 -0.3480 -0.0650
  572MOL0     H75439   2.877   8.030   5.865  1.5152 -0.0446 -0.8699
  572MOL0     H75440   2.658   7.974   5.777  0.5529  0.3827  0.2168
  572MOL0     H75441   2.648   7.773   5.508 -1.0537 -3.1146 -3.7496
  572MOL0     H75442   2.589   7.842   5.360 -0.9798  1.1598 -0.1582
  572MOL0     H75443   2.415   7.815   5.612  0.3857  2.2523 -0.2492
  572MOL0     H75444   2.402   7.712   5.460  2.3818 -0.2101 -0.8708
  572MOL0     H75445   2.364   7.907   5.330 -0.1935 -0.9485  0.3618
  572MOL0     H75446   2.344   8.010   5.481  2.1429 -0.3693  0.9838
  572MOL0     H75447   2.160   7.796   5.367  2.9604  1.4414 -1.2989
  572MOL0     H75448   2.172   7.812   5.540 -0.8674 -1.4986 -0.7985
  572MOL0     H75449   2.111   8.043   5.352 -3.5442  1.6462  0.6285
  572MOL0     H75450   2.095   8.039   5.535  1.4034  1.6209 -0.0958
  572MOL0     H75451   1.935   7.840   5.471  5.0197 -1.8956 -1.7651
  572MOL0     H75452   1.936   7.908   5.305 -2.2774 -2.1338  1.1248
  572MOL0     H75453   1.857   8.080   5.536  0.3060  2.2302 -0.0442
  572MOL0     H75454   1.865   8.116   5.365 -0.3257  1.6341  0.7755
  572MOL0     H75455   1.629   8.086   5.468  1.0969  0.2333  1.1501
  572MOL0     H75456   1.663   7.914   5.479 -0.9031 -0.8822 -2.5696
  572MOL0     H75457   1.537   8.160   5.247 -0.4395 -0.3587 -1.0721
  572MOL0     H75458   1.488   7.979   4.893 -0.6951  2.8244 -2.7916
  572MOL0     H75459   1.478   8.135   4.946  0.9020 -0.2773 -0.9453
  572MOL0     H75460   1.290   7.911   5.041  0.0677  1.8032  0.2968
  572MOL0     H75461   1.238   8.012   4.909 -2.2010 -4.0498  0.7476
  572MOL0     H75462   1.265   8.122   5.185 -1.8993  2.2597  0.1566
  572MOL0     H75463   1.256   8.209   5.033  3.0480  0.5261  1.1458
  572MOL0     H75464   1.043   8.041   5.012 -0.9453  1.7355 -0.0933
  572MOL0     H75465   1.033   8.168   5.137  1.8595  2.2527 -1.3592
  572MOL0     H75466   1.041   7.793   5.343  0.7618  0.1528 -4.4612
  572MOL0     H75467   0.808   7.690   5.412 -0.4500  0.0607 -0.2375
  572MOL0     H75468   0.355   7.853   5.492  2.4254 -0.2310 -1.8707
  572MOL0     H75469   0.153   7.782   5.581 -1.0826  0.7800  0.4614
  572MOL0     H75470  -0.026   7.663   5.649  1.8920  0.4014 -0.4949
  572MOL0     H75471  -0.179   7.605   5.568 -0.4703  1.4021 -2.1526
  572MOL0     H75472  -0.100   7.889   5.493  1.6979  1.1619  2.4529
  572MOL0     H75473  -0.193   7.835   5.634  0.2523 -1.7276 -0.6713
  572MOL0     H75474  -0.356   7.715   5.511 -0.6123  1.1305  0.6783
  572MOL0     H75475  -0.268   7.761   5.349  0.3967 -0.1017  0.0971
  572MOL0     H75476  -0.372   7.962   5.558  1.3870  1.1211 -0.5658
  572MOL0     H75477  -0.307   7.986   5.404  2.4025 -0.6045  2.7516
  572MOL0     H75478  -0.550   8.004   5.411 -0.1480 -0.1894 -0.7470
  572MOL0     H75479  -0.580   7.867   5.498 -3.0125 -1.0572 -2.4875
  572MOL0     H75480  -0.496   7.723   5.292 -2.5732 -1.7962 -1.0731
  572MOL0     H75481  -0.482   7.877   5.210 -2.0978  0.3867 -1.6405
  572MOL0     H75482  -0.705   7.909   5.174 -0.0203 -0.5673 -1.1132
  572MOL0     H75483  -0.705   7.734   5.161 -0.3494 -0.7997  0.5796
  572MOL0     H75484  -0.810   7.876   5.416 -3.2660 -0.3593 -0.4879
  572MOL0     H75485  -0.737   7.719   5.415 -0.2255  0.3677  2.4726
  572MOL0     H75486   0.073   7.572   5.211  1.3584 -0.6517 -0.0096
  572MOL0     H75487   0.305   7.646   5.129  1.3614 -0.6338  0.0862
  572MOL0     H75488   0.621   7.965   5.152 -0.5959 -2.1217 -1.2437
  572MOL0     H75489   0.834   8.068   5.101 -3.3966  0.1585  0.0055
  572MOL0     H75490   2.796   8.070   5.386  0.4226  1.2674 -0.0883
  572MOL0     H75491   3.022   8.130   5.474 -1.1847  1.5776 -0.8607
  572MOL0     H75492   3.305   8.115   5.867 -1.1328  0.9406  1.6010
  572MOL0     H75493   3.507   8.200   5.970  1.2995  0.3096 -1.5945
  572MOL0     H75494   3.645   8.636   5.917  1.1660  1.1438 -0.3396
  572MOL0     H75495   3.731   8.543   5.789 -0.2650 -1.5866  0.2527
  572MOL0     H75496   3.839   8.546   6.062 -1.6968 -2.0959  0.5298
  572MOL0     H75497   3.894   8.463   5.910 -2.7519 -0.0990 -3.1977
  572MOL0     H75498   3.846   8.761   5.915 -0.1082 -0.7519 -1.2822
  572MOL0     H75499   3.923   8.659   5.790  1.3928  1.7580 -0.0492
  572MOL0     H75500   4.088   8.804   5.931 -0.9346  0.5587  2.4223
  572MOL0     H75501   4.053   8.701   6.065 -2.0676 -0.5820 -0.1096
  572MOL0     H75502   4.233   8.409   5.863 -0.3926  0.1120  0.2619
  572MOL0     H75503   3.463   8.567   5.766  0.9071 -0.0789 -0.8144
  572MOL0     H75504   3.260   8.507   5.675 -0.2614  2.8661  4.0040
  573MOL0     O75505   2.770   2.058   8.468 -0.0209 -0.6996 -0.4576
  573MOL0     C75506   2.677   2.094   8.542  0.8348  0.2280  0.1425
  573MOL0     O75507   2.660   2.210   8.613 -0.0429 -0.1436 -0.0698
  573MOL0     C75508   2.770   2.294   8.644 -0.5251 -0.2918 -0.4649
  573MOL0     C75509   2.746   2.386   8.741  0.3050 -0.0695 -0.1866
  573MOL0     C75510   2.828   2.497   8.762 -0.3327 -0.3511  0.3965
  573MOL0     C75511   2.955   2.508   8.701  0.0903  0.4035 -0.0277
  573MOL0     O75512   3.058   2.603   8.719 -0.9813  0.4072  0.3744
  573MOL0     C75513   3.032   2.725   8.776 -0.8993 -0.0511 -0.8043
  573MOL0     C75514   3.153   2.804   8.762  0.6376  0.3738  0.6684
  573MOL0     C75515   3.297   2.738   8.786  1.3288  0.2381 -1.2235
  573MOL0     C75516   3.410   2.805   8.726  0.0312  0.2575 -0.7090
  573MOL0     C75517   3.534   2.736   8.761 -0.2951  0.3433  0.9745
  573MOL0     C75518   3.650   2.803   8.696  0.0524  0.1016 -0.6157
  573MOL0     C75519   3.777   2.723   8.676 -0.4021 -0.8936  0.5098
  573MOL0     C75520   3.895   2.827   8.641  0.9449 -0.1745  0.5390
  573MOL0     N75521   4.021   2.766   8.593  0.0400  1.1459 -0.5140
  573MOL0     C75522   4.057   2.724   8.463  0.1509 -1.0171 -0.2426
  573MOL0     C75523   4.164   2.642   8.468  0.2070 -0.3259  0.8461
  573MOL0     C75524   4.235   2.580   8.353 -0.8090  0.4201  0.2382
  573MOL0     C75525   4.166   2.462   8.286  0.3230  0.7469  0.0580
  573MOL0     C75526   4.114   2.364   8.398 -0.5145 -0.2508 -0.0245
  573MOL0     C75527   4.042   2.250   8.338  0.1478 -1.2496  0.8662
  573MOL0     O75528   3.931   2.302   8.264  0.2976  1.1644 -0.6163
  573MOL0     C75529   3.828   2.215   8.239 -0.4305 -0.2874 -1.0191
  573MOL0     C75530   3.840   2.100   8.158 -0.1195  0.2184 -0.2634
  573MOL0     C75531   3.733   2.010   8.137  0.7433 -0.9818 -0.3047
  573MOL0     C75532   3.616   2.030   8.210 -0.2429  0.4901  0.5774
  573MOL0     C75533   3.496   1.932   8.202 -0.8653  0.2026 -0.2576
  573MOL0     O75534   3.378   1.985   8.262 -0.0657 -0.4276  0.6274
  573MOL0     C75535   3.263   1.934   8.225  1.4232 -0.4471  1.0561
  573MOL0     C75536   3.228   1.917   8.090 -0.9997  0.6082 -0.5144
  573MOL0     C75537   3.109   1.863   8.055  0.7540  0.7801 -0.2051
  573MOL0     C75538   3.013   1.829   8.157  0.1357 -0.2826  0.2166
  573MOL0     O75539   2.885   1.783   8.129  0.0959  0.0596  0.3004
  573MOL0     C75540   2.794   1.897   8.120 -0.5784 -0.6466  0.3867
  573MOL0     C75541   2.654   1.847   8.079 -0.0721  0.2326 -0.2789
  573MOL0     C75542   2.646   1.777   7.946 -0.7012  0.3597  0.0308
  573MOL0     C75543   2.515   1.715   7.901 -0.0788 -0.4968  0.2333
  573MOL0     C75544   2.403   1.815   7.883 -0.8654  0.2876 -0.1708
  573MOL0     C75545   2.266   1.748   7.848 -0.2924  0.5637 -0.2090
  573MOL0     C75546   2.171   1.865   7.876  0.5224  0.3651 -0.5938
  573MOL0     C75547   2.033   1.801   7.877 -0.9494  0.4307  0.1943
  573MOL0    Cl75548   1.909   1.931   7.893  0.1369  0.2576  0.2462
  573MOL0     C75549   3.050   1.833   8.290  0.1748 -0.6516 -0.0066
  573MOL0     C75550   3.174   1.895   8.326  0.4043  0.5168 -0.4377
  573MOL0     O75551   3.512   1.835   8.133 -0.4916 -0.3796  0.5048
  573MOL0     C75552   3.601   2.153   8.278  0.0816  0.3978 -0.4068
  573MOL0     C75553   3.706   2.244   8.305 -0.5755  0.4788  0.1189
  573MOL0     N75554   4.190   2.636   8.601  0.0403  0.0575 -0.1759
  573MOL0     N75555   4.108   2.703   8.676 -0.6296  0.5428 -1.5298
  573MOL0     C75556   2.985   2.404   8.612  0.5662 -0.4275  0.2671
  573MOL0     C75557   2.891   2.307   8.581 -1.5435  0.1390  0.2387
  573MOL0     C75558   2.548   2.015   8.530 -1.1123  1.6302 -0.5250
  573MOL0     C75559   2.447   2.036   8.625  0.1274  0.3777 -0.7544
  573MOL0     C75560   2.339   1.945   8.625 -0.0124 -0.7321  0.0510
  573MOL0     C75561   2.320   1.843   8.532  1.1079  0.4489  0.1774
  573MOL0     O75562   2.202   1.778   8.538  0.0434 -0.2182 -0.1921
  573MOL0     C75563   2.182   1.672   8.453  0.0361 -0.0793  0.0714
  573MOL0     C75564   2.036   1.618   8.465 -0.7263 -0.5308 -0.3828
  573MOL0     C75565   1.924   1.716   8.458 -0.9030  0.3482  0.2968
  573MOL0     C75566   1.813   1.681   8.547  0.2832 -0.5140  0.3239
  573MOL0     C75567   1.722   1.585   8.480  0.5119 -0.9803 -0.7914
  573MOL0     C75568   1.647   1.516   8.420  0.5239  0.6216  0.6772
  573MOL0     C75569   2.430   1.819   8.440  0.2076 -0.2544  0.0284
  573MOL0     C75570   2.545   1.908   8.440 -0.1451 -0.7862 -1.3820
  573MOL0     H75571   2.658   2.387   8.805 -0.3409 -0.8140 -1.0374
  573MOL0     H75572   2.799   2.564   8.842  3.0622  2.7733 -0.6997
  573MOL0     H75573   3.014   2.718   8.884  0.5288  1.4339 -0.4286
  573MOL0     H75574   2.940   2.768   8.735 -2.6402 -0.5107  2.2641
  573MOL0     H75575   3.136   2.899   8.814 -4.4588  0.1398  0.0040
  573MOL0     H75576   3.151   2.833   8.657 -0.3401 -0.4800  0.4316
  573MOL0     H75577   3.293   2.638   8.742  1.8635  0.5919 -2.0996
  573MOL0     H75578   3.306   2.737   8.895 -2.2417  0.3539 -0.8089
  573MOL0     H75579   3.384   2.813   8.620 -1.0939  1.0992 -0.3821
  573MOL0     H75580   3.424   2.906   8.766  1.9895  0.1142 -0.9041
  573MOL0     H75581   3.536   2.631   8.729  1.5825  1.1933 -2.0996
  573MOL0     H75582   3.537   2.746   8.870 -2.1497 -1.2280  1.2229
  573MOL0     H75583   3.683   2.884   8.761  0.5564 -1.7490  1.5426
  573MOL0     H75584   3.632   2.847   8.597  1.4747  0.9068 -0.5394
  573MOL0     H75585   3.811   2.676   8.770  2.8411 -0.5305 -0.3721
  573MOL0     H75586   3.759   2.659   8.590 -0.3406  0.4257 -0.5071
  573MOL0     H75587   3.923   2.892   8.725  0.6885  1.3887 -0.5364
  573MOL0     H75588   3.865   2.890   8.557  1.2148 -1.6716 -0.7059
  573MOL0     H75589   4.004   2.756   8.374  1.9113 -0.8609 -1.2916
  573MOL0     H75590   4.333   2.538   8.378 -2.0955 -1.8386  1.8533
  573MOL0     H75591   4.258   2.654   8.276 -3.5408  0.7448 -0.3934
  573MOL0     H75592   4.227   2.409   8.213 -1.2430  1.0576 -1.5196
  573MOL0     H75593   4.087   2.510   8.229 -1.7669 -1.6409  0.7451
  573MOL0     H75594   4.200   2.324   8.451  1.1527  1.1663 -1.5410
  573MOL0     H75595   4.054   2.425   8.466 -1.7037  1.5870 -2.5307
  573MOL0     H75596   3.998   2.178   8.407  0.0079 -1.2425  0.7841
  573MOL0     H75597   4.115   2.200   8.274 -0.5520 -0.9729 -0.1613
  573MOL0     H75598   3.929   2.073   8.104  0.2473  3.4498 -1.4821
  573MOL0     H75599   3.740   1.919   8.078 -0.2631 -0.9539 -0.4892
  573MOL0     H75600   3.293   1.948   8.009  1.2939 -0.2799  0.9001
  573MOL0     H75601   3.093   1.838   7.951 -0.2675  1.1808 -0.1512
  573MOL0     H75602   2.825   1.967   8.042 -0.5651 -1.1321 -0.0457
  573MOL0     H75603   2.783   1.956   8.212 -0.5555  2.8620 -1.6669
  573MOL0     H75604   2.582   1.929   8.075 -1.8210 -1.1432  1.3496
  573MOL0     H75605   2.632   1.772   8.156  1.3866  0.3438  0.2817
  573MOL0     H75606   2.730   1.707   7.942  0.3278  1.5465  0.1302
  573MOL0     H75607   2.659   1.862   7.878 -2.2230 -1.4890 -2.7637
  573MOL0     H75608   2.536   1.672   7.803  1.2307  1.1091 -0.2373
  573MOL0     H75609   2.499   1.627   7.964 -1.0847 -2.0369 -2.0430
  573MOL0     H75610   2.435   1.881   7.802  1.5992 -3.2603 -2.4073
  573MOL0     H75611   2.388   1.870   7.977  2.6211  1.1990 -0.0121
  573MOL0     H75612   2.248   1.660   7.911  0.6758  0.0073 -0.6853
  573MOL0     H75613   2.259   1.726   7.741  2.0680  1.1979 -0.5603
  573MOL0     H75614   2.182   1.910   7.975  0.3307  1.2844 -0.9768
  573MOL0     H75615   2.185   1.943   7.800  0.4499  0.8078 -0.1599
  573MOL0     H75616   2.027   1.735   7.964 -0.9177 -1.6768 -1.3383
  573MOL0     H75617   2.009   1.732   7.796  4.6859 -0.8950 -0.7987
  573MOL0     H75618   2.985   1.809   8.374  0.7208 -2.4675 -0.0506
  573MOL0     H75619   3.201   1.925   8.427  0.2720  0.6841 -0.4506
  573MOL0     H75620   3.508   2.187   8.323 -1.0481 -1.3273 -1.3283
  573MOL0     H75621   3.699   2.319   8.384  0.5709  0.9537 -0.2061
  573MOL0     H75622   3.073   2.405   8.549 -1.0535 -4.4144 -2.4656
  573MOL0     H75623   2.924   2.242   8.501 -2.8645  0.8690 -0.9484
  573MOL0     H75624   2.453   2.119   8.695  0.1551  1.4930 -2.0391
  573MOL0     H75625   2.254   1.970   8.688 -1.2790 -3.2398 -0.5539
  573MOL0     H75626   2.246   1.593   8.494 -0.0444 -0.4110 -0.4332
  573MOL0     H75627   2.210   1.703   8.352  0.0295  2.7170  0.8600
  573MOL0     H75628   2.030   1.550   8.380 -2.4283  3.7468 -4.1392
  573MOL0     H75629   2.040   1.566   8.560  1.9142  0.6831  0.2691
  573MOL0     H75630   1.891   1.710   8.354 -0.0570 -2.6913  0.1036
  573MOL0     H75631   1.963   1.815   8.483 -0.8890  0.8983 -1.7173
  573MOL0     H75632   1.855   1.624   8.630  1.4688 -0.0671  0.0500
  573MOL0     H75633   1.759   1.767   8.588 -1.3767 -1.6015  0.5134
  573MOL0     H75634   1.580   1.455   8.363  2.6451 -0.7631 -0.4623
  573MOL0     H75635   2.428   1.735   8.372 -0.0727 -0.1570 -0.0869
  573MOL0     H75636   2.612   1.898   8.355  1.3696  0.4170 -0.3714
  574MOL0     O75637   9.143   3.707  10.332 -0.1922  0.4152 -0.8000
  574MOL0     C75638   9.194   3.597  10.352 -0.2633 -0.0407  0.2696
  574MOL0     O75639   9.143   3.488  10.432 -0.4872 -0.3258 -0.2118
  574MOL0     C75640   9.004   3.499  10.447 -0.5728 -0.7045 -0.8925
  574MOL0     C75641   8.928   3.420  10.360 -0.4476 -0.7342  0.5958
  574MOL0     C75642   8.785   3.427  10.379 -0.0799  0.5781 -0.3770
  574MOL0     C75643   8.725   3.513  10.472 -0.6083 -0.4565  1.0050
  574MOL0     O75644   8.589   3.506  10.491  0.0226  0.0598  0.4464
  574MOL0     C75645   8.527   3.600  10.580  0.9532 -0.1258  0.1733
  574MOL0     C75646   8.383   3.571  10.571 -0.4074  0.3750 -0.4175
  574MOL0     C75647   8.322   3.601  10.427  0.4473 -0.3300  0.4679
  574MOL0     C75648   8.186   3.524  10.419 -0.5186  0.3859 -0.1922
  574MOL0     C75649   8.206   3.367  10.434  0.3795 -0.4317 -0.4560
  574MOL0     C75650   8.081   3.293  10.377 -0.1630  0.2362 -0.0862
  574MOL0     C75651   7.951   3.330  10.446  0.8990  0.0832 -0.2896
  574MOL0     C75652   7.842   3.258  10.378  0.2644 -0.8790 -0.1518
  574MOL0     N75653   7.732   3.262  10.475 -0.0607  0.1551 -0.2427
  574MOL0     C75654   7.609   3.304  10.438 -0.1134  0.2187  0.1681
  574MOL0     C75655   7.530   3.264  10.539  0.0320 -0.4641 -0.6565
  574MOL0     C75656   7.388   3.301  10.529  0.0705 -0.0048  0.0782
  574MOL0     C75657   7.314   3.174  10.482  0.4512  0.0579 -0.1194
  574MOL0     C75658   7.201   3.199  10.391 -0.3540  0.1239  1.0682
  574MOL0     C75659   7.080   3.267  10.447 -0.6316  0.4772 -0.4210
  574MOL0     O75660   6.974   3.258  10.349  0.0638  0.3920 -0.6176
  574MOL0     C75661   6.850   3.269  10.405 -0.2659 -0.8571 -0.2792
  574MOL0     C75662   6.756   3.210  10.328  0.1136 -0.7434  0.0102
  574MOL0     C75663   6.623   3.240  10.352 -0.0171  0.2819  0.2831
  574MOL0     C75664   6.580   3.310  10.463  0.3324 -0.6569 -0.3293
  574MOL0     C75665   6.432   3.322  10.489 -0.7320 -0.2710 -0.0485
  574MOL0     O75666   6.343   3.277  10.402  0.0318 -0.7232 -0.4466
  574MOL0     C75667   6.211   3.325  10.420  0.3421  0.2524  0.9346
  574MOL0     C75668   6.169   3.431  10.340 -0.2243 -0.4303 -0.7467
  574MOL0     C75669   6.041   3.485  10.353  0.2295  0.1571  0.4517
  574MOL0     C75670   5.944   3.423  10.434 -0.1950 -0.4414  0.1180
  574MOL0     O75671   5.813   3.471  10.437  0.3211 -0.2413  0.6947
  574MOL0     C75672   5.719   3.404  10.514 -1.1927 -0.7498 -0.2404
  574MOL0     C75673   5.574   3.448  10.494 -0.1876  0.0515  0.4994
  574MOL0     C75674   5.541   3.602  10.512 -0.7178 -0.1885 -0.0747
  574MOL0     C75675   5.566   3.674  10.373 -0.3589  0.1908 -0.3724
  574MOL0     C75676   5.520   3.821  10.404  0.3189  0.0866  0.6765
  574MOL0     C75677   5.552   3.913  10.288  0.4024  0.3661 -0.6380
  574MOL0     C75678   5.450   3.890  10.165  0.4878 -0.7142  0.0873
  574MOL0     C75679   5.354   4.015  10.136 -0.0681  0.4720  0.1389
  574MOL0    Cl75680   5.456   4.144  10.071  0.0085  0.3563 -0.1622
  574MOL0     C75681   5.985   3.320  10.518 -0.4100  0.5259  0.0751
  574MOL0     C75682   6.121   3.276  10.504  0.5492  0.4377 -0.0910
  574MOL0     O75683   6.406   3.370  10.597 -0.3713 -0.0183 -0.8775
  574MOL0     C75684   6.677   3.360  10.545 -1.1496 -0.6763  0.4651
  574MOL0     C75685   6.812   3.351  10.506  0.2425 -0.1587 -0.0172
  574MOL0     N75686   7.605   3.213  10.645 -0.1154  0.2200 -0.3068
  574MOL0     N75687   7.728   3.201  10.598  0.6069 -0.4412  1.0780
  574MOL0     C75688   8.806   3.596  10.548 -0.1577 -0.0045  1.0787
  574MOL0     C75689   8.949   3.590  10.545  1.0589  0.0879 -0.5399
  574MOL0     C75690   9.325   3.582  10.291 -0.3958 -0.5659 -0.0251
  574MOL0     C75691   9.409   3.695  10.264 -0.0461  0.1503 -0.9708
  574MOL0     C75692   9.534   3.683  10.203  0.4443 -0.0454 -0.2508
  574MOL0     C75693   9.573   3.557  10.163  0.0594 -0.5850  0.6072
  574MOL0     O75694   9.695   3.544  10.092  0.2238  0.1609  0.2521
  574MOL0     C75695   9.797   3.508  10.179  0.0858 -0.6990  0.2949
  574MOL0     C75696   9.928   3.550  10.114 -0.2811  0.8292  0.4255
  574MOL0     C75697   9.933   3.706  10.089 -0.0164  0.2272  0.6766
  574MOL0     C75698  10.034   3.750   9.983  0.3590  0.3000  0.7231
  574MOL0     C75699  10.176   3.716  10.005 -0.0546 -0.0723  0.7597
  574MOL0     C75700  10.292   3.694  10.031 -0.2738 -0.4502  0.1255
  574MOL0     C75701   9.505   3.440  10.196 -0.3653 -1.0378  0.6745
  574MOL0     C75702   9.377   3.454  10.260 -1.2896  0.6470  0.0670
  574MOL0     H75703   8.964   3.347  10.289  0.3589  0.8399 -0.6986
  574MOL0     H75704   8.733   3.347  10.327  0.0637 -0.8534  1.5694
  574MOL0     H75705   8.545   3.704  10.554 -0.5278  0.0803 -0.0993
  574MOL0     H75706   8.561   3.585  10.683 -2.4801 -0.3432  1.4146
  574MOL0     H75707   8.336   3.636  10.646 -0.2064  0.0511 -0.0105
  574MOL0     H75708   8.363   3.468  10.601  2.7710 -0.6619 -1.4800
  574MOL0     H75709   8.385   3.572  10.342  0.4669 -0.5586  0.5577
  574MOL0     H75710   8.309   3.708  10.410 -1.7674 -0.9456 -2.6800
  574MOL0     H75711   8.126   3.557  10.504  2.5151 -0.3837  2.4595
  574MOL0     H75712   8.135   3.550  10.326 -1.4831 -0.1932  0.1559
  574MOL0     H75713   8.225   3.338  10.538  2.0314  1.1953 -0.2497
  574MOL0     H75714   8.300   3.344  10.382  2.7654  1.1134  2.8751
  574MOL0     H75715   8.089   3.184  10.387  2.8151  0.5161  1.9044
  574MOL0     H75716   8.070   3.313  10.270 -0.0466 -1.1268 -0.3661
  574MOL0     H75717   7.963   3.306  10.552 -1.8989 -1.3639 -0.2109
  574MOL0     H75718   7.941   3.438  10.434  3.6800  0.5971  1.0834
  574MOL0     H75719   7.874   3.156  10.356  2.7821 -0.1090 -0.3814
  574MOL0     H75720   7.819   3.321  10.292  0.1644 -1.5824 -0.6438
  574MOL0     H75721   7.583   3.342  10.341  0.5312 -0.9812 -0.5046
  574MOL0     H75722   7.391   3.384  10.458  1.2378 -0.7528 -0.7917
  574MOL0     H75723   7.359   3.334  10.629  1.8029 -1.7877  1.2377
  574MOL0     H75724   7.268   3.119  10.565  0.3404 -0.2332 -0.3716
  574MOL0     H75725   7.380   3.101  10.434  0.4331 -1.8414  2.5257
  574MOL0     H75726   7.235   3.252  10.302 -0.2828 -1.4826  0.0864
  574MOL0     H75727   7.165   3.102  10.353  0.3136  0.0805  0.5242
  574MOL0     H75728   7.099   3.368  10.482  1.8606  0.4763 -1.6279
  574MOL0     H75729   7.047   3.217  10.539 -1.4002  3.0605  0.7911
  574MOL0     H75730   6.785   3.135  10.254  0.7577 -0.8500  0.3685
  574MOL0     H75731   6.554   3.179  10.295  0.1109 -0.6745  1.1221
  574MOL0     H75732   6.244   3.469  10.271 -1.2783  2.7482 -0.3080
  574MOL0     H75733   6.014   3.571  10.293 -0.5493 -0.6103 -0.3245
  574MOL0     H75734   5.740   3.414  10.621 -0.6355  1.1016 -0.4843
  574MOL0     H75735   5.744   3.297  10.512  2.0614 -0.0899 -0.4285
  574MOL0     H75736   5.505   3.403  10.567 -2.0293  2.3926  0.3532
  574MOL0     H75737   5.558   3.409  10.393  1.1493  0.0698  0.2677
  574MOL0     H75738   5.582   3.645  10.604 -1.7359 -0.5599  0.5674
  574MOL0     H75739   5.434   3.608  10.532 -0.4668 -0.2633  1.4933
  574MOL0     H75740   5.667   3.663  10.331 -1.3087  1.0965 -3.1583
  574MOL0     H75741   5.496   3.636  10.297 -1.1701 -1.1890  1.0091
  574MOL0     H75742   5.583   3.853  10.487 -0.1280 -1.2059  1.5457
  574MOL0     H75743   5.413   3.823  10.427 -0.4815  0.4398 -2.4981
  574MOL0     H75744   5.657   3.900  10.262  0.5205  0.6771 -0.3268
  574MOL0     H75745   5.547   4.019  10.316  1.1190  1.3764 -3.8477
  574MOL0     H75746   5.518   3.859  10.085  2.6551  1.2537  1.0430
  574MOL0     H75747   5.380   3.808  10.180 -4.0004  2.7756  0.0830
  574MOL0     H75748   5.300   4.047  10.226 -2.0313  1.5007 -1.3274
  574MOL0     H75749   5.276   3.993  10.063 -0.4406 -2.6105  1.3308
  574MOL0     H75750   5.931   3.292  10.608  2.0844  3.0235  2.6007
  574MOL0     H75751   6.145   3.190  10.565 -1.2811  0.8785  1.3669
  574MOL0     H75752   6.645   3.411  10.635 -0.9161  1.9167 -0.8048
  574MOL0     H75753   6.892   3.410  10.550  1.5599 -0.2577 -2.1793
  574MOL0     H75754   8.755   3.661  10.619 -3.2233 -1.0206 -0.0458
  574MOL0     H75755   9.012   3.652  10.609  0.6123 -1.1630  1.1826
  574MOL0     H75756   9.379   3.792  10.302  1.2349 -0.0360  0.6039
  574MOL0     H75757   9.584   3.772  10.166 -0.2280 -0.5350 -2.4895
  574MOL0     H75758   9.801   3.400  10.197 -0.8214 -0.3010  3.3491
  574MOL0     H75759   9.782   3.549  10.279 -2.7692 -0.0357 -0.3107
  574MOL0     H75760  10.013   3.533  10.182  0.9068 -0.0948 -1.2163
  574MOL0     H75761   9.933   3.493  10.021 -0.2793  0.6701  0.5230
  574MOL0     H75762   9.943   3.763  10.182 -1.5030 -0.6022  1.3895
  574MOL0     H75763   9.836   3.740  10.051  0.5535  0.0488 -1.0050
  574MOL0     H75764  10.003   3.704   9.888 -0.4335 -0.8043  1.5000
  574MOL0     H75765  10.009   3.855   9.962 -1.3520 -0.1946  0.1161
  574MOL0     H75766  10.393   3.665  10.053  0.9638  0.8386 -3.1198
  574MOL0     H75767   9.562   3.349  10.178  1.2393 -0.4094  2.2664
  574MOL0     H75768   9.323   3.367  10.297  1.1296  0.7811  4.6728
  575MOL0     O75769  11.211   3.698  10.138 -0.5365  0.4596  0.3113
  575MOL0     C75770  11.099   3.656  10.096 -0.4833  0.6510 -0.4038
  575MOL0     O75771  11.076   3.622   9.960  0.0799  0.3723 -0.6573
  575MOL0     C75772  11.181   3.653   9.883 -0.0477 -0.9687 -0.1046
  575MOL0     C75773  11.171   3.758   9.793 -0.6898 -0.1640 -0.2529
  575MOL0     C75774  11.274   3.776   9.700 -0.3992  0.2199  0.0377
  575MOL0     C75775  11.389   3.690   9.705  0.4086 -0.1692 -0.6246
  575MOL0     O75776  11.490   3.717   9.621 -0.1687  1.1717 -0.2841
  575MOL0     C75777  11.570   3.832   9.641  0.0899 -0.0611 -1.1175
  575MOL0     C75778  11.682   3.849   9.535  0.4927  0.1678  0.1759
  575MOL0     C75779  11.634   3.864   9.391 -0.1381 -0.0314 -1.1334
  575MOL0     C75780  11.753   3.853   9.289  0.0243  0.3497  0.3682
  575MOL0     C75781  11.703   3.875   9.144  0.8173 -0.0708 -0.4705
  575MOL0     C75782  11.627   3.751   9.083  0.5558  0.4706  0.2066
  575MOL0     C75783  11.548   3.798   8.960  0.4759  0.1214  0.4152
  575MOL0     C75784  11.509   3.693   8.857  0.1103  0.8717  0.2048
  575MOL0     N75785  11.444   3.766   8.745 -0.7646 -0.5069  0.6010
  575MOL0     C75786  11.312   3.786   8.729 -0.2803  0.1169 -0.3946
  575MOL0     C75787  11.301   3.871   8.626 -0.1174  0.5993 -0.2467
  575MOL0     C75788  11.172   3.928   8.565 -0.1399  0.3731  0.2009
  575MOL0     C75789  11.064   3.968   8.669 -0.5453  0.1900 -0.3760
  575MOL0     C75790  10.952   4.033   8.594  0.9806  0.6836 -0.5369
  575MOL0     C75791  10.840   3.927   8.570  0.6874  0.2198 -0.7782
  575MOL0     O75792  10.882   3.844   8.465  1.0961  1.0060  0.3924
  575MOL0     C75793  10.801   3.764   8.387 -0.6451  0.5450 -0.9138
  575MOL0     C75794  10.673   3.728   8.407  0.4959  0.5151  0.0205
  575MOL0     C75795  10.601   3.649   8.320 -0.3417  0.6531 -0.7352
  575MOL0     C75796  10.656   3.610   8.197 -0.0459 -0.6871  0.0062
  575MOL0     C75797  10.580   3.536   8.099 -0.2607 -0.1149 -0.1627
  575MOL0     O75798  10.469   3.462   8.139  0.1608  0.5971 -0.1239
  575MOL0     C75799  10.385   3.410   8.038 -0.6956  0.7616  0.6201
  575MOL0     C75800  10.256   3.460   8.021  0.6508 -0.4160 -0.8294
  575MOL0     C75801  10.167   3.415   7.925  0.5908  0.8315 -0.2596
  575MOL0     C75802  10.219   3.306   7.838 -0.5033 -1.3881  0.1529
  575MOL0     O75803  10.123   3.250   7.758  0.0465 -0.0242  0.3683
  575MOL0     C75804  10.135   3.111   7.718  0.4060  0.1268  0.4144
  575MOL0     C75805   9.995   3.036   7.699  0.4237 -0.8704 -0.0163
  575MOL0     C75806   9.941   2.977   7.830  0.4423  0.1685 -0.4707
  575MOL0     C75807   9.931   3.077   7.951 -0.6497 -0.7167 -0.8232
  575MOL0     C75808   9.837   3.200   7.932 -0.7365  0.0599  0.3259
  575MOL0     C75809   9.806   3.265   8.066 -0.6931 -0.0974  0.4605
  575MOL0     C75810   9.729   3.394   8.027 -0.5407  0.2828  0.2476
  575MOL0     C75811   9.741   3.494   8.129 -0.4043 -0.9036 -0.2998
  575MOL0    Cl75812   9.674   3.442   8.291 -0.0471  0.0479 -0.5862
  575MOL0     C75813  10.351   3.260   7.850  0.4621 -0.0574  0.8776
  575MOL0     C75814  10.437   3.317   7.947  0.2189 -0.4268  0.6208
  575MOL0     O75815  10.610   3.560   7.983  0.0791 -0.2266  0.6165
  575MOL0     C75816  10.792   3.645   8.167 -0.3240 -0.3103 -0.2934
  575MOL0     C75817  10.858   3.725   8.265  0.0056 -0.2646  0.8827
  575MOL0     N75818  11.423   3.896   8.569 -0.3944  0.8280 -0.3507
  575MOL0     N75819  11.505   3.834   8.640 -0.8304 -0.1384  0.8243
  575MOL0     C75820  11.401   3.586   9.799  0.1997 -0.1753 -0.1792
  575MOL0     C75821  11.290   3.558   9.882  1.6613  0.8786 -0.0157
  575MOL0     C75822  10.985   3.635  10.187 -0.8464 -0.1284  0.0788
  575MOL0     C75823  11.021   3.616  10.322  0.3287 -0.1598  0.7429
  575MOL0     C75824  10.917   3.612  10.413 -0.5736 -0.3259 -0.7495
  575MOL0     C75825  10.778   3.619  10.372  0.5885 -0.3742  0.0372
  575MOL0     O75826  10.686   3.612  10.477  0.7571 -0.4286 -0.2663
  575MOL0     C75827  10.544   3.635  10.443  0.0782 -0.1302 -0.1733
  575MOL0     C75828  10.437   3.655  10.556  0.0454  0.6663  0.1124
  575MOL0     C75829  10.495   3.730  10.677 -0.1625  0.2646 -0.9896
  575MOL0     C75830  10.404   3.705  10.797 -0.8766 -0.1677  0.1789
  575MOL0     C75831  10.442   3.784  10.911  0.2934 -0.5629 -0.3178
  575MOL0     C75832  10.484   3.853  11.012 -0.0572  0.1775  0.2508
  575MOL0     C75833  10.750   3.635  10.241  0.0527 -0.1159  0.2942
  575MOL0     C75834  10.852   3.647  10.144  0.6606 -1.0230  0.0203
  575MOL0     H75835  11.080   3.817   9.784 -0.4404  0.7799  2.5327
  575MOL0     H75836  11.263   3.849   9.620  3.2620 -1.8322 -2.7052
  575MOL0     H75837  11.609   3.837   9.743 -1.2726  1.8838 -0.6454
  575MOL0     H75838  11.509   3.922   9.639  0.2354  0.0378 -1.1067
  575MOL0     H75839  11.757   3.768   9.540  0.4282  0.0812 -0.2255
  575MOL0     H75840  11.736   3.942   9.554  0.7468 -0.3511  2.3314
  575MOL0     H75841  11.580   3.958   9.377  1.4766  0.9513 -1.0347
  575MOL0     H75842  11.575   3.778   9.359  0.0476 -0.1101 -1.2616
  575MOL0     H75843  11.823   3.934   9.315  3.0698 -2.3630  1.3257
  575MOL0     H75844  11.811   3.760   9.293  0.2487  0.3228 -2.0729
  575MOL0     H75845  11.792   3.889   9.083  2.2710 -1.9892  1.0910
  575MOL0     H75846  11.637   3.962   9.151 -0.9087 -1.4741  3.1962
  575MOL0     H75847  11.563   3.690   9.147  0.3935  1.1071  0.6576
  575MOL0     H75848  11.709   3.683   9.059  2.4955  3.2957 -1.9454
  575MOL0     H75849  11.455   3.840   9.000  0.3396  0.4905 -0.2597
  575MOL0     H75850  11.610   3.872   8.909  0.3629 -0.6245 -0.8425
  575MOL0     H75851  11.437   3.619   8.895 -0.4196 -0.6255 -3.2959
  575MOL0     H75852  11.599   3.642   8.821 -1.6143 -1.7492 -0.6894
  575MOL0     H75853  11.230   3.743   8.786  0.9925  0.3404  1.7127
  575MOL0     H75854  11.129   3.859   8.492 -1.6863 -0.2490  1.6401
  575MOL0     H75855  11.193   4.012   8.498 -0.8960  0.3858 -0.0306
  575MOL0     H75856  11.104   4.045   8.735 -2.3947  0.3473  0.6504
  575MOL0     H75857  11.036   3.880   8.727  3.6689  0.0780  1.8648
  575MOL0     H75858  10.902   4.114   8.648 -0.4950  0.2770 -1.2457
  575MOL0     H75859  10.980   4.071   8.496  2.7394  1.3041  0.1782
  575MOL0     H75860  10.749   3.976   8.534 -1.7433 -1.7084  2.3549
  575MOL0     H75861  10.815   3.875   8.662 -0.2122  0.5788 -0.8147
  575MOL0     H75862  10.623   3.759   8.498  2.4831  3.5717  0.2461
  575MOL0     H75863  10.500   3.615   8.342 -1.6474  5.5655  2.6213
  575MOL0     H75864  10.233   3.542   8.088  0.6767 -0.9405 -0.1637
  575MOL0     H75865  10.070   3.463   7.919  0.3479  0.4022  0.1436
  575MOL0     H75866  10.187   3.041   7.784 -0.3522 -1.9295 -1.0734
  575MOL0     H75867  10.198   3.114   7.629  1.2167  0.9764  0.9959
  575MOL0     H75868  10.005   2.949   7.634  2.9767 -1.6368  1.2555
  575MOL0     H75869   9.923   3.107   7.656  2.1833  0.9566 -0.0687
  575MOL0     H75870  10.000   2.887   7.852 -0.1535 -0.0937  0.1057
  575MOL0     H75871   9.839   2.947   7.804  0.2527 -1.1304  1.5387
  575MOL0     H75872   9.888   3.031   8.041 -0.6056 -1.1781 -1.0361
  575MOL0     H75873  10.031   3.111   7.980 -2.2767  2.1043  2.1891
  575MOL0     H75874   9.747   3.175   7.874  0.9148 -4.1989 -0.7945
  575MOL0     H75875   9.894   3.274   7.876  0.8910 -0.0911  1.7180
  575MOL0     H75876   9.900   3.298   8.113  0.7857 -0.1095 -2.3024
  575MOL0     H75877   9.747   3.202   8.133 -1.8176  2.2231  1.8216
  575MOL0     H75878   9.758   3.437   7.931 -0.6202  0.2207  0.1961
  575MOL0     H75879   9.622   3.370   8.022 -0.1806 -1.6372  1.1564
  575MOL0     H75880   9.680   3.581   8.105 -0.8225  0.1387  3.7487
  575MOL0     H75881   9.840   3.540   8.139 -0.8091 -0.0664 -0.0212
  575MOL0     H75882  10.387   3.169   7.803  0.1486 -0.4270  1.3411
  575MOL0     H75883  10.538   3.280   7.964  1.0849  1.5402  0.0934
  575MOL0     H75884  10.832   3.620   8.070 -0.3747 -2.7190  0.2289
  575MOL0     H75885  10.957   3.763   8.242 -0.8528  0.2427 -2.4496
  575MOL0     H75886  11.486   3.519   9.803 -0.8458 -1.7277 -2.2463
  575MOL0     H75887  11.287   3.474   9.951 -1.9768  0.2962 -0.7238
  575MOL0     H75888  11.121   3.621  10.363  1.4828  2.1488 -2.0044
  575MOL0     H75889  10.946   3.607  10.517  1.8987 -1.3043 -1.4015
  575MOL0     H75890  10.522   3.546  10.383  2.1964 -0.5748 -0.3779
  575MOL0     H75891  10.536   3.723  10.378 -1.2950 -0.2060 -0.1195
  575MOL0     H75892  10.341   3.697  10.523 -0.5047  2.2175  3.2793
  575MOL0     H75893  10.409   3.553  10.586 -0.1628 -0.8018 -4.4145
  575MOL0     H75894  10.488   3.838  10.657  1.7253  0.5776 -0.1182
  575MOL0     H75895  10.601   3.711  10.695  0.0838  1.9367 -0.4173
  575MOL0     H75896  10.296   3.715  10.784 -1.1236 -0.8239  1.5486
  575MOL0     H75897  10.423   3.600  10.822 -0.7177 -0.2925 -0.4540
  575MOL0     H75898  10.540   3.893  11.095  0.7268 -2.3946  1.0423
  575MOL0     H75899  10.647   3.649  10.212  0.3742  1.3244 -0.2396
  575MOL0     H75900  10.819   3.670  10.043  1.0968  2.0125  0.4598
  576MOL0     O75901   6.767   8.801   4.180  0.3966 -0.8413  0.5756
  576MOL0     C75902   6.698   8.806   4.084  0.7372 -0.0061 -0.1783
  576MOL0     O75903   6.706   8.728   3.976  0.0396  0.1244  0.2958
  576MOL0     C75904   6.810   8.633   3.967  0.1200  0.3405 -0.3052
  576MOL0     C75905   6.932   8.657   3.891  0.1167  0.6560 -0.3485
  576MOL0     C75906   7.033   8.559   3.873 -0.4389 -0.6638 -0.3920
  576MOL0     C75907   7.023   8.438   3.932 -0.7243 -0.1490  0.1722
  576MOL0     O75908   7.115   8.331   3.921 -0.8901  0.0650  0.3497
  576MOL0     C75909   7.155   8.305   3.781  0.1100 -0.5421  0.0827
  576MOL0     C75910   7.205   8.166   3.734 -0.0620 -0.3877 -0.5073
  576MOL0     C75911   7.357   8.155   3.764  0.0347 -1.4228 -0.4810
  576MOL0     C75912   7.432   8.056   3.679  1.3591  0.2058  0.4846
  576MOL0     C75913   7.583   8.059   3.705  1.1194 -0.1510 -0.2408
  576MOL0     C75914   7.612   7.988   3.841  0.3268  0.1406 -0.7191
  576MOL0     C75915   7.759   7.945   3.846 -0.3616  0.3479  0.7259
  576MOL0     C75916   7.791   7.882   3.989 -0.4385  0.0027  0.6229
  576MOL0     N75917   7.695   7.773   4.012  0.0763  0.1974 -0.3637
  576MOL0     C75918   7.726   7.643   3.966 -0.7594  0.4689 -0.0545
  576MOL0     C75919   7.627   7.571   4.016 -0.7599  0.0547  0.5352
  576MOL0     C75920   7.611   7.418   3.998 -0.0700  0.5924 -0.0345
  576MOL0     C75921   7.492   7.371   3.903 -0.3142  0.5803  0.1387
  576MOL0     C75922   7.498   7.221   3.871  0.0635 -0.0979 -0.2398
  576MOL0     C75923   7.368   7.175   3.795 -1.2843 -0.0737 -0.9550
  576MOL0     O75924   7.371   7.028   3.773 -0.3305 -0.2137  0.7519
  576MOL0     C75925   7.485   6.983   3.711  0.0687  0.0602  1.0266
  576MOL0     C75926   7.501   6.980   3.573  0.1557  0.4879 -0.3011
  576MOL0     C75927   7.616   6.931   3.517  0.3518  0.2319  0.1983
  576MOL0     C75928   7.716   6.871   3.595 -0.6412 -1.0678 -0.6259
  576MOL0     C75929   7.839   6.832   3.533 -0.8640  0.4037 -0.3305
  576MOL0     O75930   7.848   6.810   3.402 -0.2988  0.4242 -0.0593
  576MOL0     C75931   7.956   6.740   3.352 -0.3737 -0.4130  0.3701
  576MOL0     C75932   8.001   6.616   3.411  0.5691  0.2803  0.2383
  576MOL0     C75933   8.092   6.532   3.349  0.7865 -0.3689  0.1820
  576MOL0     C75934   8.160   6.578   3.230  0.5250  0.6590  0.3976
  576MOL0     O75935   8.253   6.495   3.162  0.2647  0.7742  0.1424
  576MOL0     C75936   8.387   6.510   3.189 -0.0472 -0.5588  0.2166
  576MOL0     C75937   8.476   6.427   3.103 -0.2631 -0.2190 -0.6396
  576MOL0     C75938   8.467   6.285   3.145  0.2884  0.3975 -1.1235
  576MOL0     C75939   8.589   6.197   3.110 -0.1843 -0.1937 -0.6531
  576MOL0     C75940   8.548   6.046   3.116 -0.5778  0.0706  0.4988
  576MOL0     C75941   8.662   5.948   3.136 -0.5160  0.2277 -0.4870
  576MOL0     C75942   8.627   5.798   3.123  0.3888 -0.6589 -0.7340
  576MOL0     C75943   8.757   5.722   3.090 -0.6816  0.3143  0.0685
  576MOL0    Cl75944   8.707   5.559   3.086  0.1992  0.6534 -0.0619
  576MOL0     C75945   8.109   6.699   3.172  0.1205 -0.6237  0.3551
  576MOL0     C75946   8.006   6.774   3.227  1.1126  0.2035  1.1125
  576MOL0     O75947   7.936   6.820   3.610 -0.3907 -0.2534  1.0360
  576MOL0     C75948   7.694   6.868   3.735 -0.1033 -0.1577 -0.7691
  576MOL0     C75949   7.587   6.934   3.796 -0.3383  0.7843 -0.6239
  576MOL0     N75950   7.535   7.646   4.088 -0.1232 -0.5511 -0.4425
  576MOL0     N75951   7.579   7.775   4.086 -0.1352 -0.6242 -0.3708
  576MOL0     C75952   6.900   8.395   3.989 -0.9009 -0.4390 -1.1330
  576MOL0     C75953   6.796   8.496   4.004  0.0700  0.5488 -0.1223
  576MOL0     C75954   6.564   8.874   4.101 -0.2903  0.5217 -0.1659
  576MOL0     C75955   6.499   8.853   4.225  0.2926 -0.5268 -0.0084
  576MOL0     C75956   6.362   8.901   4.240 -0.0898 -0.3861 -1.0501
  576MOL0     C75957   6.298   8.952   4.127 -0.7875  0.2464 -0.4266
  576MOL0     O75958   6.169   8.988   4.170 -0.1809  0.6672  0.4313
  576MOL0     C75959   6.066   8.999   4.065  0.3991 -0.3310 -0.2225
  576MOL0     C75960   5.929   9.039   4.133  0.6401 -0.1455  0.8962
  576MOL0     C75961   5.880   8.931   4.231 -0.1409  0.8457  1.2096
  576MOL0     C75962   5.816   8.974   4.364 -0.1197 -0.1213 -0.2156
  576MOL0     C75963   5.686   9.038   4.354 -0.0104 -0.3424  0.1620
  576MOL0     C75964   5.596   9.109   4.350  0.6413  0.8282  0.5669
  576MOL0     C75965   6.371   8.963   4.004  0.3538 -0.4666  0.2112
  576MOL0     C75966   6.501   8.921   3.989 -0.8938 -0.6465  1.2799
  576MOL0     H75967   6.948   8.754   3.844  0.5717  0.5195 -0.4838
  576MOL0     H75968   7.107   8.593   3.801  0.0555 -0.1896  0.3329
  576MOL0     H75969   7.225   8.382   3.747 -0.4016 -0.3925 -0.6599
  576MOL0     H75970   7.065   8.310   3.719 -0.5923 -3.4967  0.7290
  576MOL0     H75971   7.189   8.156   3.626 -0.9059  2.8905 -0.7723
  576MOL0     H75972   7.154   8.082   3.782  2.0273 -1.2610  0.3105
  576MOL0     H75973   7.362   8.128   3.870  0.6117  0.6497  0.0530
  576MOL0     H75974   7.393   8.254   3.736  0.3066 -1.8149 -1.5376
  576MOL0     H75975   7.395   7.953   3.682  2.2947 -0.1329  3.1731
  576MOL0     H75976   7.417   8.099   3.580  0.7440  0.5126  0.7066
  576MOL0     H75977   7.606   8.166   3.705 -1.1932  0.4969 -3.0595
  576MOL0     H75978   7.637   8.011   3.623 -1.2210  1.2449 -2.7770
  576MOL0     H75979   7.553   7.897   3.849  2.4143 -1.1202  3.1678
  576MOL0     H75980   7.593   8.048   3.931 -0.8210  0.9184 -1.4472
  576MOL0     H75981   7.784   7.879   3.762 -2.0178 -0.9012  1.1604
  576MOL0     H75982   7.832   8.026   3.838 -1.5314  1.4039  0.5270
  576MOL0     H75983   7.782   7.951   4.073  2.3069  1.4295 -0.1322
  576MOL0     H75984   7.898   7.858   3.994 -1.0092 -3.0376  0.2538
  576MOL0     H75985   7.809   7.609   3.904 -0.6048  0.4572  0.1585
  576MOL0     H75986   7.613   7.371   4.097 -0.3220 -0.2762 -0.4340
  576MOL0     H75987   7.699   7.382   3.943 -0.1373  1.3573 -0.6594
  576MOL0     H75988   7.507   7.416   3.804 -1.2169  1.2932  0.3153
  576MOL0     H75989   7.398   7.399   3.950  0.1791 -2.4813  3.3598
  576MOL0     H75990   7.582   7.211   3.801 -1.5693 -2.3116 -2.0273
  576MOL0     H75991   7.507   7.154   3.957  2.3717  0.1703 -0.1961
  576MOL0     H75992   7.361   7.226   3.698  2.0560  1.8838 -0.2989
  576MOL0     H75993   7.281   7.199   3.857 -1.0965  0.4340 -0.8858
  576MOL0     H75994   7.419   7.011   3.508  2.1459  2.0924 -2.2269
  576MOL0     H75995   7.627   6.932   3.409  0.1928  0.9876  0.1833
  576MOL0     H75996   7.966   6.583   3.508  1.0532 -0.0639  0.3026
  576MOL0     H75997   8.125   6.434   3.382  0.1165 -1.6215 -2.5354
  576MOL0     H75998   8.408   6.497   3.296 -1.4643  0.4766  0.6517
  576MOL0     H75999   8.399   6.618   3.175 -2.9092 -0.1195  0.5824
  576MOL0     H76000   8.576   6.468   3.121  0.0422 -1.5844  0.9543
  576MOL0     H76001   8.448   6.443   2.998  0.1231  3.1647 -0.3314
  576MOL0     H76002   8.377   6.238   3.103 -0.9940  2.1595 -0.4427
  576MOL0     H76003   8.453   6.284   3.253  1.7913  0.3305 -0.9016
  576MOL0     H76004   8.618   6.212   3.005  1.0231 -3.0349 -0.8152
  576MOL0     H76005   8.678   6.216   3.171  0.9340 -0.8485 -2.0282
  576MOL0     H76006   8.489   6.014   3.030  0.2685 -1.6714  0.5340
  576MOL0     H76007   8.480   6.020   3.199  0.2540 -1.5153  0.7102
  576MOL0     H76008   8.714   5.961   3.231 -0.8248  2.3189 -0.5557
  576MOL0     H76009   8.736   5.975   3.059  0.9617 -2.1850 -0.0002
  576MOL0     H76010   8.593   5.754   3.217  0.1240 -1.1411 -1.0524
  576MOL0     H76011   8.554   5.792   3.042  0.2388  1.8880 -0.8667
  576MOL0     H76012   8.836   5.741   3.164  1.1069  1.1963 -1.9559
  576MOL0     H76013   8.799   5.725   2.989  2.0319 -0.6218  1.0584
  576MOL0     H76014   8.150   6.739   3.080 -0.5783 -1.1081 -0.1767
  576MOL0     H76015   7.958   6.854   3.171  1.3477  0.5870  1.4530
  576MOL0     H76016   7.765   6.825   3.805 -2.7727 -2.7313  0.6027
  576MOL0     H76017   7.585   6.928   3.904 -4.0960 -1.1565 -0.6209
  576MOL0     H76018   6.881   8.293   4.021 -1.5150  0.3035  1.0525
  576MOL0     H76019   6.699   8.463   4.040  0.3277 -1.9025 -1.4574
  576MOL0     H76020   6.539   8.791   4.304 -0.9192 -1.5255 -0.1581
  576MOL0     H76021   6.310   8.890   4.334  1.4688  0.9084  0.0269
  576MOL0     H76022   6.057   8.902   4.015 -0.1531  0.2237 -1.2324
  576MOL0     H76023   6.103   9.081   4.002 -0.8493  1.5804  1.3938
  576MOL0     H76024   5.937   9.131   4.191 -0.7431 -0.0584  0.9722
  576MOL0     H76025   5.859   9.065   4.053  3.3082  0.4411 -1.4297
  576MOL0     H76026   5.967   8.872   4.259 -0.4300 -0.1299  0.1121
  576MOL0     H76027   5.805   8.872   4.178  0.4563  0.2148  1.0683
  576MOL0     H76028   5.788   8.887   4.424 -4.4491  1.4878  0.4453
  576MOL0     H76029   5.894   9.021   4.425  0.0050  1.5346 -1.5847
  576MOL0     H76030   5.506   9.165   4.365  1.4956  2.0607  1.2362
  576MOL0     H76031   6.326   9.005   3.914 -0.7527 -2.8704 -0.4417
  576MOL0     H76032   6.551   8.939   3.894 -0.7665 -0.6508  1.3462
  577MOL0     O76033   0.307   2.092   6.909  0.4251  0.2443  0.5912
  577MOL0     C76034   0.219   2.144   6.839 -0.4688 -0.7618 -0.4360
  577MOL0     O76035   0.232   2.184   6.709  0.5279 -0.4417 -0.1129
  577MOL0     C76036   0.344   2.147   6.638  0.6271  0.2340 -0.4229
  577MOL0     C76037   0.332   2.073   6.522  0.4081 -0.2222  0.3394
  577MOL0     C76038   0.440   2.033   6.447 -0.2968  0.4184 -0.5063
  577MOL0     C76039   0.569   2.071   6.479  0.5813 -0.2534 -0.6572
  577MOL0     O76040   0.670   2.034   6.386  0.2160 -0.0534 -0.8480
  577MOL0     C76041   0.806   2.027   6.426 -0.5880  0.7382 -1.0385
  577MOL0     C76042   0.880   2.158   6.394 -0.7081 -0.2080  0.2317
  577MOL0     C76043   1.031   2.141   6.393 -1.0075  0.6354 -0.9575
  577MOL0     C76044   1.111   2.269   6.357  0.0069 -0.2057 -0.1820
  577MOL0     C76045   1.269   2.250   6.384  0.4721 -0.1093  0.0476
  577MOL0     C76046   1.334   2.157   6.272 -0.1434 -0.3215 -0.0882
  577MOL0     C76047   1.482   2.142   6.309 -0.4232  0.4394 -0.4564
  577MOL0     C76048   1.567   2.259   6.249  0.5533 -0.7638  0.1050
  577MOL0     N76049   1.708   2.247   6.278  0.3743  0.2896  0.2661
  577MOL0     C76050   1.802   2.240   6.176  0.6952 -1.3527 -0.4509
  577MOL0     C76051   1.909   2.281   6.247  0.3146  0.1550 -0.5523
  577MOL0     C76052   2.044   2.298   6.175  0.0552  0.0678 -0.7425
  577MOL0     C76053   2.061   2.441   6.140 -0.4356 -0.6312 -0.1745
  577MOL0     C76054   2.169   2.478   6.032 -0.1266 -0.6403  0.4717
  577MOL0     C76055   2.284   2.381   6.027 -0.5105  0.4003 -0.5839
  577MOL0     O76056   2.386   2.433   5.946 -0.4266  0.0609  0.1359
  577MOL0     C76057   2.486   2.356   5.905 -0.5771  0.2296 -0.0183
  577MOL0     C76058   2.595   2.417   5.831 -0.1736  0.5967 -0.9962
  577MOL0     C76059   2.713   2.348   5.817  0.0422 -0.3970  0.2651
  577MOL0     C76060   2.731   2.212   5.852  0.9514  0.5228 -1.1123
  577MOL0     C76061   2.858   2.131   5.840 -0.0631  0.1673  0.5602
  577MOL0     O76062   2.956   2.206   5.787 -0.2224 -0.3606 -0.4534
  577MOL0     C76063   3.047   2.126   5.712 -0.7277 -0.1925 -0.9576
  577MOL0     C76064   3.055   2.112   5.573  0.4382 -1.1195 -0.2113
  577MOL0     C76065   3.147   2.034   5.514 -0.4145 -0.6245 -0.0479
  577MOL0     C76066   3.242   1.971   5.584 -0.4603 -0.1394 -0.3759
  577MOL0     O76067   3.343   1.914   5.511  0.1196  0.7816  0.9597
  577MOL0     C76068   3.457   1.860   5.574 -0.4496 -0.0981 -0.2674
  577MOL0     C76069   3.562   1.856   5.465 -1.3142  1.0744  0.8583
  577MOL0     C76070   3.705   1.829   5.531  0.4905 -0.2724 -0.5625
  577MOL0     C76071   3.807   1.800   5.411  0.3747 -0.2063 -0.9749
  577MOL0     C76072   3.951   1.792   5.461 -0.3350  1.2004 -0.0399
  577MOL0     C76073   4.052   1.764   5.353 -0.1612  0.0576 -0.4193
  577MOL0     C76074   4.079   1.872   5.244  0.2664 -0.0304  0.7797
  577MOL0     C76075   4.103   1.807   5.100 -0.3889 -0.2291 -0.2713
  577MOL0    Cl76076   4.228   1.689   5.112 -0.2348  0.1003  0.5236
  577MOL0     C76077   3.240   1.979   5.727  0.8133 -0.7194 -0.0086
  577MOL0     C76078   3.142   2.056   5.786 -0.2946  0.5445  0.6048
  577MOL0     O76079   2.868   2.014   5.883 -0.8570 -0.3698 -0.2587
  577MOL0     C76080   2.618   2.148   5.908 -0.1974  0.3388  0.3906
  577MOL0     C76081   2.496   2.221   5.931  0.0148  0.3798 -0.3280
  577MOL0     N76082   1.878   2.293   6.384 -1.0256  0.6191  1.2840
  577MOL0     N76083   1.757   2.278   6.396 -0.3921 -0.4059 -0.0069
  577MOL0     C76084   0.589   2.137   6.600  0.8437 -1.3401 -0.3739
  577MOL0     C76085   0.474   2.168   6.680 -0.1234  0.2447 -0.9440
  577MOL0     C76086   0.107   2.203   6.915  1.2711 -0.0674 -0.4280
  577MOL0     C76087   0.104   2.219   7.058 -0.0136  0.5710  0.1753
  577MOL0     C76088   0.000   2.284   7.133 -0.5858 -0.4382 -0.1682
  577MOL0     C76089  -0.119   2.312   7.058 -0.3189  0.0835 -1.0562
  577MOL0     O76090  -0.229   2.373   7.116 -0.1600 -0.0400  0.6282
  577MOL0     C76091  -0.231   2.406   7.258  0.1418 -0.0936  0.3745
  577MOL0     C76092  -0.366   2.458   7.311 -0.0104  0.1142 -0.3989
  577MOL0     C76093  -0.475   2.349   7.322  0.5685  0.4832  0.4521
  577MOL0     C76094  -0.597   2.395   7.410 -0.1082 -0.4562  0.5903
  577MOL0     C76095  -0.692   2.490   7.348  0.4497  0.1379  0.2760
  577MOL0     C76096  -0.761   2.567   7.288  0.3733  0.5287 -1.1362
  577MOL0     C76097  -0.126   2.285   6.928 -0.4461  0.6916  1.0437
  577MOL0     C76098  -0.014   2.240   6.850 -0.2617  0.0409  0.3265
  577MOL0     H76099   0.233   2.036   6.497  0.5747  1.0808 -2.8184
  577MOL0     H76100   0.432   1.975   6.355  0.1472 -0.9722  0.2992
  577MOL0     H76101   0.853   1.951   6.363 -0.8731  0.8720 -1.4155
  577MOL0     H76102   0.816   2.001   6.532 -0.3295 -2.8267 -1.8179
  577MOL0     H76103   0.862   2.237   6.468 -0.7781 -0.6438  0.6849
  577MOL0     H76104   0.847   2.194   6.296 -1.6558 -1.9857 -0.1432
  577MOL0     H76105   1.063   2.058   6.330  1.3453  0.5157  0.3054
  577MOL0     H76106   1.067   2.110   6.492  4.8288 -1.1500 -3.2252
  577MOL0     H76107   1.100   2.295   6.252 -0.1864 -0.0955 -0.1351
  577MOL0     H76108   1.080   2.354   6.418  2.5813  0.3108  0.5259
  577MOL0     H76109   1.290   2.210   6.483  0.7573 -1.7471 -0.6506
  577MOL0     H76110   1.320   2.346   6.373 -1.5346  1.3284  2.2379
  577MOL0     H76111   1.319   2.199   6.172 -1.1181 -1.4843 -0.4525
  577MOL0     H76112   1.282   2.061   6.279 -0.7078 -0.1169 -1.3231
  577MOL0     H76113   1.479   2.145   6.418 -4.2468 -2.6039 -0.2892
  577MOL0     H76114   1.513   2.043   6.274  1.3382  1.8413 -3.2293
  577MOL0     H76115   1.520   2.349   6.290 -0.0207 -1.1698  0.3649
  577MOL0     H76116   1.556   2.277   6.142 -2.5303 -1.9203  0.1380
  577MOL0     H76117   1.786   2.218   6.071 -1.1432  0.9323 -0.7415
  577MOL0     H76118   2.040   2.252   6.076  1.8249  0.8663 -1.2224
  577MOL0     H76119   2.125   2.263   6.239  1.5972  3.1375 -0.8311
  577MOL0     H76120   2.087   2.501   6.227  0.3248 -0.5762 -0.4306
  577MOL0     H76121   1.970   2.491   6.105 -0.0774  0.7501  0.8200
  577MOL0     H76122   2.118   2.463   5.936 -1.1543  0.3719  0.8352
  577MOL0     H76123   2.200   2.583   6.041 -2.1544 -0.0576  1.1727
  577MOL0     H76124   2.243   2.291   5.980  1.6414 -0.1785 -1.4774
  577MOL0     H76125   2.328   2.357   6.124  3.4104 -0.2439 -2.3229
  577MOL0     H76126   2.593   2.524   5.813  2.9511  1.3197  1.9145
  577MOL0     H76127   2.804   2.393   5.779 -0.2010  0.7922  1.0194
  577MOL0     H76128   2.980   2.165   5.515  0.5063  0.0350  0.7120
  577MOL0     H76129   3.163   2.029   5.407  0.1633 -0.4540  0.0296
  577MOL0     H76130   3.447   1.757   5.609  3.6759 -0.5477  0.1213
  577MOL0     H76131   3.491   1.926   5.655  1.8430  1.7411 -2.5737
  577MOL0     H76132   3.576   1.956   5.423  0.6189  1.5122  2.4100
  577MOL0     H76133   3.541   1.794   5.377  0.8418  1.0380  0.2998
  577MOL0     H76134   3.703   1.744   5.599  0.4857 -0.9709 -1.4277
  577MOL0     H76135   3.733   1.924   5.578 -0.4319 -0.0866 -0.3577
  577MOL0     H76136   3.781   1.704   5.364  0.8120 -0.0359 -1.5803
  577MOL0     H76137   3.807   1.876   5.332  2.1648 -1.4460 -2.2638
  577MOL0     H76138   3.955   1.718   5.541 -1.4858  0.3161 -0.7635
  577MOL0     H76139   3.968   1.891   5.505 -0.1177 -0.0311  2.8913
  577MOL0     H76140   4.016   1.669   5.314 -0.0096 -0.9479  1.7495
  577MOL0     H76141   4.146   1.731   5.399  1.4350 -0.6334 -3.8836
  577MOL0     H76142   3.988   1.933   5.245 -0.3037 -0.8701  1.3260
  577MOL0     H76143   4.174   1.920   5.271  0.7433 -0.5502  0.0500
  577MOL0     H76144   4.125   1.885   5.027 -4.5736  1.9772  0.5165
  577MOL0     H76145   4.019   1.755   5.054 -1.0980 -0.5371  1.3031
  577MOL0     H76146   3.321   1.941   5.788 -1.1761 -1.9770  1.9851
  577MOL0     H76147   3.153   2.069   5.893 -0.6088 -0.9715  0.8439
  577MOL0     H76148   2.637   2.047   5.941  0.3240  0.8746  1.7800
  577MOL0     H76149   2.425   2.157   5.983 -0.2651  0.5857 -0.4571
  577MOL0     H76150   0.687   2.173   6.632 -0.4787  2.0363  0.2916
  577MOL0     H76151   0.488   2.206   6.781 -0.9797 -0.5091 -0.5269
  577MOL0     H76152   0.191   2.181   7.111  0.2012 -2.0030 -1.8425
  577MOL0     H76153   0.017   2.315   7.235 -3.7289  1.2471 -0.0385
  577MOL0     H76154  -0.158   2.485   7.274  3.5406 -1.7308 -4.5732
  577MOL0     H76155  -0.201   2.317   7.314  3.0992 -0.5426 -1.7311
  577MOL0     H76156  -0.343   2.509   7.406 -3.7866  1.1989  0.1030
  577MOL0     H76157  -0.391   2.547   7.252  0.8054  1.1102  0.7010
  577MOL0     H76158  -0.425   2.259   7.358 -0.0141  0.2263  0.6262
  577MOL0     H76159  -0.516   2.321   7.225  0.0102  1.8693  0.2605
  577MOL0     H76160  -0.655   2.317   7.460  0.9447 -1.8035 -0.2180
  577MOL0     H76161  -0.551   2.443   7.497 -1.7119 -4.0071  3.6892
  577MOL0     H76162  -0.815   2.648   7.243 -0.3088  0.5479 -0.2821
  577MOL0     H76163  -0.224   2.303   6.886 -0.7716 -3.4262 -0.3910
  577MOL0     H76164  -0.035   2.214   6.747 -1.8397 -2.0832  1.1158
  578MOL0     O76165   9.305   0.926  10.311  0.0217 -0.1817  0.3181
  578MOL0     C76166   9.366   0.916  10.416 -0.9199 -0.3591 -0.1925
  578MOL0     O76167   9.442   0.809  10.463 -0.2470 -0.0651 -0.4328
  578MOL0     C76168   9.423   0.688  10.410 -0.0034 -0.1530  0.5614
  578MOL0     C76169   9.454   0.649  10.276  0.6410  0.3320  0.0442
  578MOL0     C76170   9.442   0.511  10.239 -0.9843 -0.3056 -0.1473
  578MOL0     C76171   9.420   0.409  10.333 -0.6031 -0.5781  0.5911
  578MOL0     O76172   9.406   0.282  10.289 -0.0209  0.4707  0.0315
  578MOL0     C76173   9.526   0.212  10.248 -0.3737 -0.7570 -0.0780
  578MOL0     C76174   9.538   0.086  10.322  0.3741 -0.6731  0.2833
  578MOL0     C76175   9.673   0.014  10.282  0.0847  0.5695 -1.0528
  578MOL0     C76176   9.795   0.096  10.271  0.3750  0.5259  0.1380
  578MOL0     C76177   9.928   0.023  10.300  0.3472 -0.1186 -0.5070
  578MOL0     C76178   9.965  -0.104  10.225  0.7175  0.1004  0.6745
  578MOL0     C76179  10.032  -0.073  10.089  0.6094  0.2934 -0.9422
  578MOL0     C76180  10.057  -0.207  10.007 -0.5729  0.0823  0.3511
  578MOL0     N76181   9.944  -0.279   9.952 -0.1768 -0.4478  0.3757
  578MOL0     C76182   9.885  -0.392  10.006  0.2723 -0.5911 -0.0452
  578MOL0     C76183   9.777  -0.410   9.929 -0.1377  0.3677  0.3467
  578MOL0     C76184   9.675  -0.521   9.933 -0.0345 -0.0818  0.1747
  578MOL0     C76185   9.581  -0.498  10.045  0.6518 -1.0173  0.3350
  578MOL0     C76186   9.611  -0.561  10.176 -0.2937 -0.0895 -0.5775
  578MOL0     C76187   9.574  -0.713  10.168  0.6720  0.1316  0.4086
  578MOL0     O76188   9.441  -0.761  10.148  0.3436  0.3864  0.6627
  578MOL0     C76189   9.342  -0.737  10.239 -0.2374 -0.1553 -0.2616
  578MOL0     C76190   9.372  -0.687  10.367 -1.0051  0.5146  0.0699
  578MOL0     C76191   9.270  -0.673  10.467  0.3542 -0.0669 -0.6597
  578MOL0     C76192   9.136  -0.709  10.433  1.4504 -0.7862 -0.7519
  578MOL0     C76193   9.029  -0.690  10.540  0.0620  0.1230  0.0062
  578MOL0     O76194   8.914  -0.764  10.511  0.2930 -0.7722  0.7427
  578MOL0     C76195   8.813  -0.788  10.597  0.3401 -0.4122  0.6399
  578MOL0     C76196   8.683  -0.778  10.554  1.1588 -0.4645  0.2445
  578MOL0     C76197   8.578  -0.811  10.641 -0.4067 -0.3642  0.0765
  578MOL0     C76198   8.609  -0.848  10.774 -0.8981  0.3114  0.1880
  578MOL0     O76199   8.508  -0.875  10.861 -0.5523  0.5306 -0.2816
  578MOL0     C76200   8.537  -0.926  10.993 -0.1056 -0.0855 -0.4670
  578MOL0     C76201   8.403  -0.944  11.069  0.6327 -0.9408  0.3889
  578MOL0     C76202   8.317  -1.065  11.025  0.0193  0.8049  0.6509
  578MOL0     C76203   8.178  -1.056  11.093  0.0642  0.2331  0.5278
  578MOL0     C76204   8.097  -0.940  11.030  0.5765 -0.4674  0.0491
  578MOL0     C76205   7.944  -0.929  11.057 -0.2680 -0.0558  0.6307
  578MOL0     C76206   7.891  -0.798  11.019  0.0096  0.4446  0.1667
  578MOL0     C76207   7.737  -0.808  11.004 -0.6120 -0.3271  0.0424
  578MOL0    Cl76208   7.665  -0.821  11.171 -0.6684  0.1111 -0.1165
  578MOL0     C76209   8.744  -0.850  10.811  0.3350 -0.1576 -0.2267
  578MOL0     C76210   8.844  -0.821  10.721 -0.3296 -0.1674 -0.2541
  578MOL0     O76211   9.052  -0.615  10.634 -0.2909 -0.0284 -0.7143
  578MOL0     C76212   9.105  -0.752  10.304  0.6825 -0.4676  0.2255
  578MOL0     C76213   9.207  -0.772  10.211  0.0280  0.4119 -0.8216
  578MOL0     N76214   9.770  -0.307   9.842  0.3366  0.3833 -0.0957
  578MOL0     N76215   9.866  -0.233   9.859 -0.0763 -0.1593  0.3164
  578MOL0     C76216   9.384   0.447  10.464 -0.1205 -0.8105  0.5240
  578MOL0     C76217   9.395   0.581  10.500 -0.0580 -0.4386 -0.0239
  578MOL0     C76218   9.356   1.027  10.513  0.1535  0.6567  0.1866
  578MOL0     C76219   9.332   1.159  10.472  0.1604 -0.6347 -0.3909
  578MOL0     C76220   9.330   1.254  10.562  0.8861  0.2330 -0.9318
  578MOL0     C76221   9.354   1.239  10.696  0.1533  0.8060 -0.6939
  578MOL0     O76222   9.335   1.334  10.784 -0.8162 -0.5430 -0.1624
  578MOL0     C76223   9.446   1.374  10.872  0.8414  0.7372  0.1398
  578MOL0     C76224   9.436   1.519  10.923  0.1375 -0.8005 -0.5350
  578MOL0     C76225   9.327   1.534  11.025  1.0258 -0.9462 -0.9229
  578MOL0     C76226   9.356   1.488  11.171  0.1219  0.0282  0.7089
  578MOL0     C76227   9.242   1.403  11.231 -0.2027  0.6981 -0.3957
  578MOL0     C76228   9.141   1.344  11.270 -0.6024 -0.4609  0.4949
  578MOL0     C76229   9.362   1.107  10.744 -0.5003  0.0969  0.6515
  578MOL0     C76230   9.358   1.000  10.650  0.3892  0.0113 -0.3227
  578MOL0     H76231   9.480   0.724  10.202 -0.0493  1.4482  0.9002
  578MOL0     H76232   9.463   0.497  10.134 -0.5444 -0.9551  0.0199
  578MOL0     H76233   9.609   0.277  10.278 -2.0759  0.4496  2.3778
  578MOL0     H76234   9.534   0.188  10.141  0.0455 -2.3940  0.2927
  578MOL0     H76235   9.460   0.011  10.305  2.2961 -2.6966 -0.0863
  578MOL0     H76236   9.530   0.106  10.429 -0.6259 -1.0272  0.2932
  578MOL0     H76237   9.665  -0.033  10.183 -2.1452 -0.8932 -0.2557
  578MOL0     H76238   9.678  -0.065  10.358 -0.0695  3.2079  1.9083
  578MOL0     H76239   9.805   0.130  10.167  1.0486  1.6689  0.5590
  578MOL0     H76240   9.796   0.184  10.335  1.5144 -0.0138  0.8997
  578MOL0     H76241   9.931   0.006  10.408  2.4407 -0.9142 -0.6587
  578MOL0     H76242  10.004   0.099  10.286 -1.1409  2.3303  3.1094
  578MOL0     H76243   9.885  -0.178  10.213  1.7078 -0.5151 -4.3256
  578MOL0     H76244  10.032  -0.156  10.294  1.9033 -3.7044 -2.9432
  578MOL0     H76245   9.964  -0.004  10.037  0.2988  0.7023 -0.0314
  578MOL0     H76246  10.120  -0.011  10.106 -0.2223  1.0358  0.9441
  578MOL0     H76247  10.128  -0.258  10.073 -0.8464  1.0614  1.4359
  578MOL0     H76248  10.128  -0.193   9.925  1.8273 -1.5319  2.0041
  578MOL0     H76249   9.907  -0.467  10.082 -0.0349 -1.0568 -0.4112
  578MOL0     H76250   9.727  -0.617   9.935 -1.3803 -0.8515  2.8191
  578MOL0     H76251   9.624  -0.511   9.837 -1.3511  1.0861  0.9516
  578MOL0     H76252   9.476  -0.513  10.016  0.5069 -0.2061  0.4156
  578MOL0     H76253   9.588  -0.390  10.065 -0.4670 -0.8890  0.1105
  578MOL0     H76254   9.720  -0.559  10.192 -0.0186 -1.2776 -2.0721
  578MOL0     H76255   9.571  -0.501  10.258  1.4950 -1.7119  1.6247
  578MOL0     H76256   9.610  -0.770  10.255  0.4810 -3.9815 -1.9341
  578MOL0     H76257   9.632  -0.760  10.088 -0.3214  1.7069 -1.2937
  578MOL0     H76258   9.477  -0.677  10.394 -0.5322  1.2915 -1.9284
  578MOL0     H76259   9.294  -0.654  10.571 -0.5577 -0.5688 -0.3496
  578MOL0     H76260   8.660  -0.759  10.450 -4.0031 -0.9382  1.0413
  578MOL0     H76261   8.473  -0.826  10.619 -1.2600  1.8411  2.1994
  578MOL0     H76262   8.588  -0.854  11.057 -0.0647 -0.8348  0.3539
  578MOL0     H76263   8.587  -1.022  10.980 -1.4797 -0.8219 -0.4409
  578MOL0     H76264   8.352  -0.848  11.059 -0.1785 -1.1578  2.0899
  578MOL0     H76265   8.416  -0.970  11.174 -0.2328 -4.4084 -0.2202
  578MOL0     H76266   8.363  -1.160  11.055 -3.7254 -1.5024 -0.3098
  578MOL0     H76267   8.304  -1.070  10.917  2.8088 -0.1481  0.2661
  578MOL0     H76268   8.125  -1.148  11.071  1.7359 -0.9371  1.2072
  578MOL0     H76269   8.187  -1.042  11.202 -2.1447 -1.9133  1.0805
  578MOL0     H76270   8.110  -0.932  10.922 -2.1336 -0.0447 -0.3245
  578MOL0     H76271   8.141  -0.854  11.081 -0.2222 -3.0101  5.7674
  578MOL0     H76272   7.929  -0.950  11.163  0.3895 -3.3264  0.1861
  578MOL0     H76273   7.906  -1.009  10.994  2.9322  0.9695 -3.0635
  578MOL0     H76274   7.918  -0.734  11.103  3.6341 -1.1891  0.4449
  578MOL0     H76275   7.943  -0.757  10.932  0.8518  0.1057  0.4905
  578MOL0     H76276   7.713  -0.898  10.947  0.4150 -0.8517  0.3990
  578MOL0     H76277   7.695  -0.725  10.946 -2.9942 -1.7563 -0.3959
  578MOL0     H76278   8.772  -0.868  10.914  0.2539 -1.6552 -0.4448
  578MOL0     H76279   8.946  -0.832  10.757 -0.5964 -1.4034  0.1672
  578MOL0     H76280   9.004  -0.769  10.270 -0.0821 -0.7507  2.4641
  578MOL0     H76281   9.178  -0.826  10.121 -2.0536 -1.2674  0.7581
  578MOL0     H76282   9.370   0.368  10.537  0.5501 -2.1590 -0.7617
  578MOL0     H76283   9.382   0.587  10.608 -0.0770 -3.7439  0.2740
  578MOL0     H76284   9.329   1.181  10.366 -2.4520  1.0963 -0.0418
  578MOL0     H76285   9.317   1.356  10.528 -0.2315  0.6596  0.6537
  578MOL0     H76286   9.527   1.366  10.800 -0.0321 -0.8480 -0.7218
  578MOL0     H76287   9.490   1.301  10.940  3.9175  2.4850  0.2240
  578MOL0     H76288   9.534   1.548  10.963 -0.8665 -0.7775  2.1324
  578MOL0     H76289   9.412   1.582  10.837  1.0042  4.2264  2.4751
  578MOL0     H76290   9.250   1.470  10.981  2.4539 -2.2532 -1.6147
  578MOL0     H76291   9.271   1.627  11.038 -2.4767 -2.9742 -0.2261
  578MOL0     H76292   9.448   1.428  11.167 -0.2063 -0.4418  0.0063
  578MOL0     H76293   9.370   1.577  11.233  0.4636 -0.5402  1.4631
  578MOL0     H76294   9.051   1.290  11.291 -2.1215 -0.0044 -3.8188
  578MOL0     H76295   9.376   1.079  10.848 -0.5174 -0.3814  0.5286
  578MOL0     H76296   9.374   0.901  10.692  1.3196  0.5198  0.5757
  579MOL0     O76297  10.130   8.587   2.720 -0.2711 -0.7733 -0.8978
  579MOL0     C76298  10.216   8.523   2.663 -0.6771  0.2304  0.7053
  579MOL0     O76299  10.213   8.492   2.532  0.0694 -0.2049  0.3955
  579MOL0     C76300  10.125   8.542   2.436 -0.0179 -0.0815  0.1703
  579MOL0     C76301  10.049   8.656   2.442 -0.6607  0.7542  1.2351
  579MOL0     C76302   9.961   8.677   2.342 -0.0053 -0.8558  0.2257
  579MOL0     C76303   9.935   8.592   2.239  0.3509 -0.4643  0.1895
  579MOL0     O76304   9.849   8.626   2.133 -0.0589 -0.5675  0.2505
  579MOL0     C76305   9.716   8.667   2.176  0.4807  1.2219  0.3207
  579MOL0     C76306   9.621   8.668   2.056 -0.3457  0.0522  0.6816
  579MOL0     C76307   9.595   8.524   2.007  0.2349 -0.4272  0.3490
  579MOL0     C76308   9.484   8.517   1.903 -0.6774 -0.0605 -0.6140
  579MOL0     C76309   9.476   8.381   1.832  0.3151 -0.0624  0.1127
  579MOL0     C76310   9.350   8.360   1.734  1.4175 -0.8978 -0.9208
  579MOL0     C76311   9.338   8.216   1.690  0.4807  0.9403  0.7620
  579MOL0     C76312   9.240   8.131   1.773 -0.4095  0.2693  0.3256
  579MOL0     N76313   9.292   7.993   1.783 -0.1220 -0.0705 -0.3652
  579MOL0     C76314   9.376   7.952   1.880  1.5333  0.0090 -0.8331
  579MOL0     C76315   9.405   7.822   1.857  0.3913  0.0600 -0.1480
  579MOL0     C76316   9.490   7.727   1.930  0.1564 -0.7525 -0.0269
  579MOL0     C76317   9.627   7.725   1.875  0.4014  0.2433 -0.5695
  579MOL0     C76318   9.692   7.599   1.932 -0.4451 -0.9499  0.5353
  579MOL0     C76319   9.843   7.593   1.913 -0.6659 -0.1645  0.8557
  579MOL0     O76320   9.917   7.688   1.992  0.4315 -0.4919 -0.1628
  579MOL0     C76321  10.049   7.704   1.989 -0.7093 -0.1848 -0.2493
  579MOL0     C76322  10.097   7.797   2.080 -1.1728 -0.0112  0.0104
  579MOL0     C76323  10.235   7.813   2.107  0.0566  0.1892  0.9216
  579MOL0     C76324  10.331   7.732   2.025 -0.0800 -0.5122 -1.2406
  579MOL0     C76325  10.475   7.752   2.029 -0.5643  0.9813 -0.3421
  579MOL0     O76326  10.557   7.711   1.924 -0.4730 -0.1289 -0.4415
  579MOL0     C76327  10.694   7.726   1.947  0.0338  0.1090 -1.1224
  579MOL0     C76328  10.754   7.644   2.052  0.2354  1.5407  0.3942
  579MOL0     C76329  10.892   7.646   2.074  0.9269 -0.0585  0.0763
  579MOL0     C76330  10.975   7.722   1.994  0.6956 -0.2687 -0.0031
  579MOL0     O76331  11.113   7.723   1.999  0.4018  0.6248 -0.8290
  579MOL0     C76332  11.172   7.591   2.008 -0.3059  0.4957  1.1805
  579MOL0     C76333  11.320   7.606   2.044  0.3304  0.0793  1.5979
  579MOL0     C76334  11.326   7.662   2.192 -0.2640  0.4421  0.2437
  579MOL0     C76335  11.472   7.680   2.226  0.5721  0.6984  0.3661
  579MOL0     C76336  11.484   7.722   2.374 -0.4527 -0.2714  0.0663
  579MOL0     C76337  11.627   7.774   2.409 -0.3219 -0.0651  0.5821
  579MOL0     C76338  11.724   7.651   2.409 -1.1662 -0.7526 -0.0614
  579MOL0     C76339  11.865   7.715   2.410  0.7645  1.0574 -1.0104
  579MOL0    Cl76340  11.897   7.771   2.255 -0.3021  0.0532 -0.4890
  579MOL0     C76341  10.919   7.801   1.897  0.1711 -0.2944  0.4169
  579MOL0     C76342  10.779   7.804   1.878  0.2315 -0.4562  0.7905
  579MOL0     O76343  10.510   7.819   2.129  0.0392  0.1724  0.4030
  579MOL0     C76344  10.277   7.641   1.934  0.0256 -0.0262 -0.1891
  579MOL0     C76345  10.146   7.629   1.914  0.3091  0.0156 -0.6676
  579MOL0     N76346   9.345   7.791   1.737 -0.4760  0.0917 -0.5551
  579MOL0     N76347   9.265   7.891   1.697  0.0105  0.1846  0.1464
  579MOL0     C76348  10.021   8.482   2.221 -0.7874 -0.3597 -0.5179
  579MOL0     C76349  10.114   8.451   2.323  0.1496  0.3366  0.8785
  579MOL0     C76350  10.338   8.469   2.734  1.0569  1.1753 -0.1452
  579MOL0     C76351  10.343   8.480   2.872 -0.7995  0.4414  1.7183
  579MOL0     C76352  10.443   8.412   2.938 -0.6250  1.0547  0.0475
  579MOL0     C76353  10.542   8.326   2.878  0.0495 -0.4618  0.2471
  579MOL0     O76354  10.632   8.266   2.952  0.2241  0.1777 -0.3587
  579MOL0     C76355  10.767   8.311   2.942 -0.5059  0.3523  0.2816
  579MOL0     C76356  10.816   8.333   3.083  0.0925 -0.1798 -0.3572
  579MOL0     C76357  10.731   8.423   3.177 -0.2266 -0.4166 -0.2214
  579MOL0     C76358  10.772   8.398   3.326  0.7189 -0.7406  0.7169
  579MOL0     C76359  10.888   8.473   3.358  0.4672  0.7458 -1.4577
  579MOL0     C76360  10.992   8.530   3.388  0.4464 -0.0177 -0.3632
  579MOL0     C76361  10.542   8.324   2.738  0.3805 -0.8810  0.5168
  579MOL0     C76362  10.447   8.395   2.666  0.8606 -0.7520 -0.1143
  579MOL0     H76363  10.054   8.728   2.523 -1.2223  0.9310  1.1191
  579MOL0     H76364   9.898   8.765   2.346  0.4335 -0.5282  0.0608
  579MOL0     H76365   9.713   8.769   2.217  2.7866  0.5217  2.5617
  579MOL0     H76366   9.680   8.602   2.256  0.8441 -1.6264 -1.6705
  579MOL0     H76367   9.657   8.729   1.973  0.6049 -0.1570  0.9301
  579MOL0     H76368   9.525   8.713   2.085 -0.8961 -0.3970 -0.3855
  579MOL0     H76369   9.572   8.463   2.095 -1.2454  1.1115  1.0893
  579MOL0     H76370   9.688   8.483   1.966  0.3224  0.0556  0.0632
  579MOL0     H76371   9.385   8.540   1.944 -0.5642 -2.0958  0.9784
  579MOL0     H76372   9.491   8.594   1.825 -0.2325  0.9579  0.4009
  579MOL0     H76373   9.474   8.295   1.900 -0.7826 -0.5679 -0.5396
  579MOL0     H76374   9.570   8.384   1.776 -0.4668  1.0292 -1.1990
  579MOL0     H76375   9.354   8.430   1.651 -4.1629 -0.3024 -1.0532
  579MOL0     H76376   9.264   8.385   1.796  2.7503 -1.2663  1.1674
  579MOL0     H76377   9.284   8.227   1.595 -2.0071  1.1812  2.1301
  579MOL0     H76378   9.437   8.169   1.691  0.9891  1.8457 -1.0759
  579MOL0     H76379   9.140   8.120   1.730  0.2735 -0.8209 -1.0754
  579MOL0     H76380   9.235   8.175   1.873 -0.2623 -1.0664  0.9525
  579MOL0     H76381   9.402   8.021   1.959 -0.7750  1.0821 -0.9165
  579MOL0     H76382   9.446   7.629   1.913 -0.6521 -0.2899 -0.6899
  579MOL0     H76383   9.492   7.759   2.034 -0.7399  0.5185 -0.3742
  579MOL0     H76384   9.683   7.817   1.893 -0.4525  0.9660 -1.5424
  579MOL0     H76385   9.622   7.712   1.766  1.9720  1.0223 -0.7610
  579MOL0     H76386   9.669   7.584   2.038  1.6692 -1.6338  0.9504
  579MOL0     H76387   9.661   7.507   1.883 -0.2447 -0.1132 -1.2429
  579MOL0     H76388   9.852   7.636   1.813 -4.7993  1.7160  1.0793
  579MOL0     H76389   9.872   7.489   1.925  1.0882  0.1733 -0.1283
  579MOL0     H76390  10.019   7.842   2.140  0.9803  0.1671  2.9138
  579MOL0     H76391  10.267   7.897   2.167  1.9318 -0.0293  0.2861
  579MOL0     H76392  10.696   7.564   2.096 -2.1642  1.2501 -2.8585
  579MOL0     H76393  10.935   7.575   2.144  3.3054 -0.6614 -1.8666
  579MOL0     H76394  11.161   7.546   1.909 -2.1859  0.1571  1.5070
  579MOL0     H76395  11.121   7.538   2.089 -0.3373  2.0253  2.2037
  579MOL0     H76396  11.375   7.671   1.976 -0.5298 -0.1400  0.6734
  579MOL0     H76397  11.361   7.505   2.036 -1.0977 -0.3622 -1.4973
  579MOL0     H76398  11.269   7.602   2.264 -2.6097  0.9827 -1.0551
  579MOL0     H76399  11.287   7.764   2.203  0.6877  0.6991  1.3496
  579MOL0     H76400  11.529   7.591   2.200  1.2423  0.8631  1.2148
  579MOL0     H76401  11.511   7.753   2.154 -1.8845  0.4291 -1.3607
  579MOL0     H76402  11.466   7.634   2.435  1.7017 -1.3016 -0.6801
  579MOL0     H76403  11.417   7.800   2.410  3.3621  2.5746  1.7435
  579MOL0     H76404  11.628   7.832   2.502  0.5931  2.3550 -0.8569
  579MOL0     H76405  11.663   7.841   2.331 -1.2740  1.5945  1.5013
  579MOL0     H76406  11.717   7.577   2.489 -2.0175  0.4546  1.0359
  579MOL0     H76407  11.714   7.595   2.316 -1.1371  0.0652 -0.5687
  579MOL0     H76408  11.942   7.643   2.436 -1.5391 -0.5357  2.0065
  579MOL0     H76409  11.886   7.796   2.479  1.1156 -1.2656  1.8075
  579MOL0     H76410  10.980   7.860   1.830  0.0653  0.6566  1.1366
  579MOL0     H76411  10.743   7.870   1.800  4.0425 -1.2614 -1.9656
  579MOL0     H76412  10.349   7.588   1.872 -1.1843  0.4259 -2.0895
  579MOL0     H76413  10.116   7.570   1.828 -2.0891  0.0747  0.0485
  579MOL0     H76414  10.014   8.425   2.129  0.8276  0.0121 -0.8950
  579MOL0     H76415  10.185   8.369   2.314  1.6351  1.4058  2.4224
  579MOL0     H76416  10.272   8.539   2.929 -0.4175  0.4247  2.2127
  579MOL0     H76417  10.452   8.421   3.045  1.7455  2.4016 -0.1845
  579MOL0     H76418  10.761   8.398   2.877 -2.3431 -0.2551 -0.4244
  579MOL0     H76419  10.838   8.247   2.888  2.2536  2.7075  0.8781
  579MOL0     H76420  10.837   8.236   3.130 -0.8307  0.9556  2.6671
  579MOL0     H76421  10.914   8.380   3.067  0.1504 -0.2831 -0.3092
  579MOL0     H76422  10.626   8.403   3.153 -0.1220 -0.9723 -0.2382
  579MOL0     H76423  10.751   8.528   3.156 -0.3616 -0.0069  1.5069
  579MOL0     H76424  10.692   8.450   3.379  1.3572 -0.8135  1.7767
  579MOL0     H76425  10.784   8.292   3.350  2.3673 -0.9582 -0.8786
  579MOL0     H76426  11.088   8.577   3.392  0.5962  0.4068 -4.6555
  579MOL0     H76427  10.622   8.283   2.678  0.0828 -0.7024 -0.0111
  579MOL0     H76428  10.445   8.393   2.557  1.4956 -1.1256 -0.1248
  580MOL0     O76429  10.293   5.294  10.948 -0.5168 -0.1837  0.2678
  580MOL0     C76430  10.361   5.203  10.983 -0.9503 -0.2914  0.5648
  580MOL0     O76431  10.327   5.065  10.988  0.4438 -0.2249 -0.7439
  580MOL0     C76432  10.192   5.042  10.968 -0.1675  0.4153  0.9369
  580MOL0     C76433  10.117   5.068  10.851  0.8252 -0.0559  0.2618
  580MOL0     C76434   9.982   5.012  10.829 -0.3499  0.1111  0.5510
  580MOL0     C76435   9.927   4.941  10.936  0.4171  1.1655  0.8075
  580MOL0     O76436   9.819   4.855  10.922 -0.9805 -0.0468 -0.7258
  580MOL0     C76437   9.728   4.878  10.816 -0.4957  1.2675  0.1013
  580MOL0     C76438   9.619   4.772  10.812  0.5773  0.7977 -0.3369
  580MOL0     C76439   9.517   4.769  10.696  0.2332  0.0564  0.9184
  580MOL0     C76440   9.375   4.736  10.750  0.1456 -1.1418 -0.0106
  580MOL0     C76441   9.283   4.667  10.649 -1.5190  0.0286  0.5826
  580MOL0     C76442   9.173   4.750  10.572 -0.1195  0.1488  0.1964
  580MOL0     C76443   9.069   4.823  10.666 -0.5433  1.3671 -0.1139
  580MOL0     C76444   9.011   4.745  10.787  0.0633  0.1472 -0.3482
  580MOL0     N76445   8.922   4.632  10.751  0.1623  0.4632 -0.3420
  580MOL0     C76446   8.803   4.622  10.812  0.4516  0.3611 -0.0731
  580MOL0     C76447   8.739   4.521  10.750 -0.0493  1.2364 -0.1470
  580MOL0     C76448   8.595   4.464  10.780 -0.0472 -0.4387  0.5133
  580MOL0     C76449   8.501   4.498  10.668  0.5504 -0.0348  0.4778
  580MOL0     C76450   8.351   4.463  10.698 -0.5125  0.0530 -0.4976
  580MOL0     C76451   8.246   4.498  10.592  0.3397 -0.4499  0.3054
  580MOL0     O76452   8.230   4.634  10.590 -0.8208 -0.1567 -0.4742
  580MOL0     C76453   8.104   4.681  10.574  0.1370  0.0270  0.3609
  580MOL0     C76454   7.985   4.604  10.537 -0.8074  0.2179  0.4201
  580MOL0     C76455   7.866   4.675  10.513 -1.0069  0.6438  0.3413
  580MOL0     C76456   7.854   4.810  10.529 -0.1331 -0.1140  0.0744
  580MOL0     C76457   7.713   4.866  10.507 -0.1164 -0.4858 -0.9612
  580MOL0     O76458   7.700   5.002  10.520 -0.3793  0.1179  0.5045
  580MOL0     C76459   7.580   5.060  10.510 -0.1397 -0.5529  0.9892
  580MOL0     C76460   7.473   5.042  10.597 -0.5493 -0.5838 -0.1093
  580MOL0     C76461   7.351   5.088  10.558 -0.0016 -0.5423 -0.8844
  580MOL0     C76462   7.322   5.154  10.445 -0.3073 -1.0939  0.6973
  580MOL0     O76463   7.194   5.201  10.419  0.3498  0.7013 -0.0136
  580MOL0     C76464   7.182   5.307  10.326 -0.9357 -0.2793 -0.5073
  580MOL0     C76465   7.030   5.329  10.311 -0.6756 -0.6164 -0.5043
  580MOL0     C76466   7.013   5.461  10.243  0.5493  0.6635 -0.2752
  580MOL0     C76467   6.862   5.503  10.254 -0.0232  0.3767 -0.1216
  580MOL0     C76468   6.844   5.646  10.284  0.4210  0.0828  0.0142
  580MOL0     C76469   6.696   5.686  10.322  0.0829 -0.3552 -0.2665
  580MOL0     C76470   6.703   5.820  10.387  1.1202 -1.2310  0.3133
  580MOL0     C76471   6.559   5.876  10.415  0.4636  0.1750 -0.0198
  580MOL0    Cl76472   6.459   5.769  10.519 -0.0279  0.1320 -0.2122
  580MOL0     C76473   7.434   5.165  10.351  0.3397  0.0654  0.7678
  580MOL0     C76474   7.563   5.126  10.387 -0.0663  1.7051 -1.0904
  580MOL0     O76475   7.623   4.789  10.466 -0.1057  0.1962  0.3214
  580MOL0     C76476   7.964   4.891  10.558  0.1479  0.8159 -0.4858
  580MOL0     C76477   8.087   4.821  10.590  0.9362 -0.1406 -0.7420
  580MOL0     N76478   8.827   4.465  10.661  0.2390  0.3137 -0.5570
  580MOL0     N76479   8.939   4.534  10.663 -0.0514 -0.3711  0.6438
  580MOL0     C76480  10.003   4.908  11.046  0.1561  0.3308  0.2270
  580MOL0     C76481  10.137   4.955  11.068  0.0049 -0.1802  0.5265
  580MOL0     C76482  10.500   5.233  11.004 -0.7889 -0.8720  0.5136
  580MOL0     C76483  10.603   5.140  10.979  0.3871  0.6955 -0.1933
  580MOL0     C76484  10.735   5.173  10.993  0.0686  0.4988  0.3331
  580MOL0     C76485  10.772   5.310  11.029 -0.8830 -0.3467  1.3760
  580MOL0     O76486  10.898   5.364  11.042 -0.6675  0.6567  0.6681
  580MOL0     C76487  11.009   5.278  11.024  1.0166  0.3606  0.1802
  580MOL0     C76488  11.145   5.343  11.029  0.0239 -0.7864 -0.7476
  580MOL0     C76489  11.175   5.430  10.899  0.3851 -0.6401  0.7359
  580MOL0     C76490  11.228   5.346  10.780  1.0447 -0.0255 -0.2694
  580MOL0     C76491  11.282   5.421  10.670 -0.0065 -0.7264  0.4322
  580MOL0     C76492  11.338   5.479  10.581  0.5161  0.2459  1.2197
  580MOL0     C76493  10.673   5.405  11.044 -0.0226  0.2379  0.3473
  580MOL0     C76494  10.544   5.364  11.036  0.2627  0.0296 -0.0386
  580MOL0     H76495  10.162   5.119  10.766 -3.1132 -0.0964 -2.0651
  580MOL0     H76496   9.935   5.014  10.731 -2.1061 -0.6008  1.3380
  580MOL0     H76497   9.781   4.867  10.721 -4.5682 -0.0629 -2.2805
  580MOL0     H76498   9.685   4.979  10.819  1.1758  1.9760  1.3289
  580MOL0     H76499   9.561   4.807  10.898 -2.3061 -0.2709 -1.7395
  580MOL0     H76500   9.656   4.670  10.827  0.4851  0.8950  0.6380
  580MOL0     H76501   9.563   4.715  10.613  0.1736  2.3461 -0.7023
  580MOL0     H76502   9.511   4.872  10.660 -0.4073  0.7526  2.8737
  580MOL0     H76503   9.381   4.668  10.835  0.0550 -2.4119 -1.0058
  580MOL0     H76504   9.330   4.829  10.789  0.9251  0.2305 -2.1969
  580MOL0     H76505   9.230   4.588  10.703  1.1359 -1.2640  1.4420
  580MOL0     H76506   9.344   4.611  10.577 -2.6186  1.1424 -1.3314
  580MOL0     H76507   9.127   4.692  10.491 -1.3027 -0.9500  1.6036
  580MOL0     H76508   9.235   4.823  10.519 -2.6784  2.5784  0.3252
  580MOL0     H76509   9.127   4.911  10.694  2.6979 -0.5577 -0.2250
  580MOL0     H76510   8.981   4.848  10.606 -0.9149  1.9727  0.6705
  580MOL0     H76511   8.943   4.814  10.837  2.0165  2.2066 -0.3772
  580MOL0     H76512   9.085   4.712  10.860 -2.3828 -1.5933  1.5372
  580MOL0     H76513   8.753   4.681  10.888 -2.2623 -0.6614 -0.9690
  580MOL0     H76514   8.565   4.508  10.875  1.2817  1.6383  0.0418
  580MOL0     H76515   8.601   4.355  10.793  4.0780 -0.2797  1.5781
  580MOL0     H76516   8.543   4.450  10.578  0.6419 -2.0429  1.5263
  580MOL0     H76517   8.504   4.606  10.651 -1.7391  0.1697  1.0285
  580MOL0     H76518   8.339   4.355  10.707  1.1584 -0.1476 -0.2656
  580MOL0     H76519   8.322   4.499  10.797  0.4865 -0.6319  0.0553
  580MOL0     H76520   8.157   4.439  10.616 -0.7521  1.1527  0.3373
  580MOL0     H76521   8.283   4.460  10.496 -0.4913  0.6589 -0.4697
  580MOL0     H76522   7.992   4.497  10.519  0.6251  0.3674 -0.0611
  580MOL0     H76523   7.788   4.608  10.477  0.1789  0.1646 -1.4901
  580MOL0     H76524   7.483   4.979  10.684  2.7045  0.5566  0.4894
  580MOL0     H76525   7.274   5.095  10.635  1.9676  0.1958  1.1017
  580MOL0     H76526   7.224   5.272  10.231  1.8467  1.1312  0.0989
  580MOL0     H76527   7.222   5.404  10.358 -0.0395 -0.8355  0.1219
  580MOL0     H76528   6.982   5.341  10.409 -1.4364 -1.3793 -0.7742
  580MOL0     H76529   6.984   5.247  10.254 -5.5252  1.6558 -0.3311
  580MOL0     H76530   7.039   5.445  10.138  1.7332  0.2207  0.0670
  580MOL0     H76531   7.068   5.540  10.295 -1.3841  1.8005  0.1535
  580MOL0     H76532   6.804   5.474  10.166  0.1213 -2.1060  0.5268
  580MOL0     H76533   6.813   5.442  10.331  3.2131 -2.5207 -0.0925
  580MOL0     H76534   6.881   5.706  10.201 -1.4355 -0.7882 -1.5302
  580MOL0     H76535   6.915   5.670  10.363  0.3219  1.3411 -0.2690
  580MOL0     H76536   6.646   5.611  10.384 -0.4801  0.8999  0.8551
  580MOL0     H76537   6.635   5.700  10.232  2.4922 -1.3087 -2.1772
  580MOL0     H76538   6.760   5.810  10.481 -0.6361  1.2797  1.7627
  580MOL0     H76539   6.739   5.886  10.308 -0.7748  2.0082  1.9376
  580MOL0     H76540   6.509   5.888  10.319 -2.6782 -2.3177  1.1160
  580MOL0     H76541   6.567   5.976  10.458  0.3624  0.7067 -1.1946
  580MOL0     H76542   7.429   5.207  10.251 -3.1433 -2.2334 -0.2202
  580MOL0     H76543   7.649   5.123  10.322  1.2368 -0.8599  0.6076
  580MOL0     H76544   7.940   4.995  10.575 -3.1695 -0.1388  1.7880
  580MOL0     H76545   8.166   4.889  10.616 -0.9028  3.1885 -3.1064
  580MOL0     H76546   9.948   4.840  11.111 -0.3482 -1.2896 -1.8098
  580MOL0     H76547  10.181   4.937  11.165 -3.9217  1.5021  2.8542
  580MOL0     H76548  10.592   5.035  10.956  1.9915  0.6216 -0.7434
  580MOL0     H76549  10.798   5.085  10.982 -1.5863 -0.7549  0.5190
  580MOL0     H76550  11.000   5.232  10.925  0.6763  3.8332 -1.5311
  580MOL0     H76551  11.009   5.193  11.093 -4.1695  0.0702  0.2194
  580MOL0     H76552  11.135   5.405  11.119 -2.6379 -1.9736 -0.1263
  580MOL0     H76553  11.226   5.271  11.039 -0.5499 -1.8270 -3.0841
  580MOL0     H76554  11.238   5.513  10.931 -2.0596  0.8551  1.9993
  580MOL0     H76555  11.083   5.485  10.877  0.3190 -0.6845  0.8940
  580MOL0     H76556  11.307   5.280  10.814 -0.4550 -0.8929  1.7231
  580MOL0     H76557  11.149   5.284  10.736  0.6953  0.3475 -0.1864
  580MOL0     H76558  11.407   5.518  10.509 -0.0864 -1.8367 -0.6004
  580MOL0     H76559  10.695   5.508  11.073  1.5932  0.6154 -1.9071
  580MOL0     H76560  10.460   5.424  11.072 -1.8977 -2.1464 -1.1299
  581MOL0     O76561   7.273   3.800   0.547 -0.0114  0.2250 -0.0770
  581MOL0     C76562   7.280   3.682   0.569  0.8400  0.4355  0.4052
  581MOL0     O76563   7.191   3.586   0.516 -0.1378  0.3228  0.2376
  581MOL0     C76564   7.067   3.631   0.462 -1.3772 -0.3889 -0.2865
  581MOL0     C76565   6.988   3.732   0.533 -0.8877 -0.2729  0.5922
  581MOL0     C76566   6.859   3.762   0.495  0.1197  0.9739 -0.0458
  581MOL0     C76567   6.798   3.679   0.390 -0.2330 -1.0334  0.5473
  581MOL0     O76568   6.661   3.699   0.373 -0.4869  0.0963  0.5716
  581MOL0     C76569   6.600   3.647   0.255 -0.1826  0.0184 -0.1512
  581MOL0     C76570   6.451   3.714   0.248 -0.6662  0.2590  0.7790
  581MOL0     C76571   6.460   3.862   0.211 -0.4545 -0.1304 -0.3607
  581MOL0     C76572   6.336   3.946   0.218 -0.5178 -0.6222  0.4541
  581MOL0     C76573   6.367   4.095   0.204 -0.4698 -0.1400  0.8128
  581MOL0     C76574   6.242   4.180   0.224 -0.9931  0.0419  0.5053
  581MOL0     C76575   6.257   4.332   0.193  0.6751  0.2134 -0.7878
  581MOL0     C76576   6.236   4.424   0.319 -0.1200  0.7389 -0.6426
  581MOL0     N76577   6.095   4.452   0.353  1.2627 -0.4056  0.4675
  581MOL0     C76578   6.005   4.362   0.386 -0.4642 -0.1096 -0.5165
  581MOL0     C76579   5.890   4.433   0.363  0.6762 -0.5322 -0.3048
  581MOL0     C76580   5.748   4.368   0.372 -0.7350  0.0735 -0.0270
  581MOL0     C76581   5.661   4.425   0.257 -0.2563 -0.1187 -0.4296
  581MOL0     C76582   5.516   4.387   0.261 -0.3665 -0.5523 -0.4539
  581MOL0     C76583   5.455   4.458   0.387  0.0619 -0.0114  0.4837
  581MOL0     O76584   5.312   4.458   0.367  0.2476 -0.4436 -0.2857
  581MOL0     C76585   5.231   4.552   0.427 -0.2064 -0.2245 -0.5002
  581MOL0     C76586   5.273   4.635   0.526  0.0809 -0.3182 -0.0677
  581MOL0     C76587   5.190   4.747   0.561  0.2669 -0.3651  0.0930
  581MOL0     C76588   5.058   4.760   0.517  0.1858  0.9906  0.0531
  581MOL0     C76589   4.967   4.861   0.559  1.2255 -0.7555  0.5447
  581MOL0     O76590   4.832   4.835   0.567 -0.1446 -0.1658 -1.1717
  581MOL0     C76591   4.743   4.927   0.606  0.3938 -0.7118  0.6827
  581MOL0     C76592   4.754   5.049   0.687 -0.3711 -0.0234 -0.0830
  581MOL0     C76593   4.638   5.121   0.721 -0.4981  0.7431  0.1584
  581MOL0     C76594   4.510   5.068   0.687 -0.4996  0.6431 -0.3567
  581MOL0     O76595   4.414   5.155   0.729  0.2029  1.1976 -0.2412
  581MOL0     C76596   4.287   5.091   0.757 -0.2425 -0.1005  0.4508
  581MOL0     C76597   4.273   5.072   0.907 -0.1012 -0.9100  0.7150
  581MOL0     C76598   4.212   5.199   0.980  0.5352 -0.0246 -0.0679
  581MOL0     C76599   4.317   5.278   1.061  0.0520 -0.0320 -0.5352
  581MOL0     C76600   4.380   5.395   0.983 -0.3968 -0.0989 -0.1826
  581MOL0     C76601   4.283   5.515   0.954  1.6291  1.1098  0.0384
  581MOL0     C76602   4.353   5.637   0.902 -1.0261 -0.3456  0.5070
  581MOL0     C76603   4.268   5.756   0.884  0.0702  0.1737 -0.7394
  581MOL0    Cl76604   4.194   5.829   1.037 -0.4596 -0.4511 -0.2721
  581MOL0     C76605   4.505   4.948   0.619  0.0099  0.0364  0.5786
  581MOL0     C76606   4.614   4.877   0.583 -0.6049 -0.4323 -0.3210
  581MOL0     O76607   5.019   4.974   0.571 -0.4469 -0.0001  0.6234
  581MOL0     C76608   5.020   4.654   0.431 -0.2908 -0.1268 -0.1405
  581MOL0     C76609   5.107   4.559   0.377  0.5450 -0.3132  0.6423
  581MOL0     N76610   5.916   4.569   0.352  0.2721  0.7501  0.1854
  581MOL0     N76611   6.041   4.583   0.356 -0.4279 -0.0640  0.8175
  581MOL0     C76612   6.880   3.589   0.324  0.4355 -0.1390  0.4159
  581MOL0     C76613   7.007   3.563   0.365 -0.0167 -0.1498 -0.1757
  581MOL0     C76614   7.396   3.629   0.648  0.7389 -0.7162  0.7470
  581MOL0     C76615   7.509   3.709   0.668  0.6410  0.4707 -0.3897
  581MOL0     C76616   7.618   3.667   0.751 -0.0678 -0.1665  0.0767
  581MOL0     C76617   7.614   3.533   0.805  0.0443 -1.0785 -0.4492
  581MOL0     O76618   7.721   3.481   0.878 -0.7345 -0.1437  0.1814
  581MOL0     C76619   7.777   3.582   0.970  0.9290 -0.1483  0.5231
  581MOL0     C76620   7.832   3.494   1.080 -0.1094 -0.0170  0.4180
  581MOL0     C76621   7.906   3.574   1.192 -0.2981 -1.0874  0.4307
  581MOL0     C76622   7.820   3.577   1.312  0.7540 -0.1305 -0.6475
  581MOL0     C76623   7.879   3.634   1.435  0.6782 -0.1080 -0.4959
  581MOL0     C76624   7.935   3.689   1.533  0.2172 -0.0477  0.5524
  581MOL0     C76625   7.500   3.449   0.781  0.0943 -0.2217 -0.5762
  581MOL0     C76626   7.380   3.502   0.716 -0.8240 -0.8346 -0.3760
  581MOL0     H76627   7.029   3.794   0.611  1.5331  0.4579 -1.1609
  581MOL0     H76628   6.796   3.837   0.542  0.4940  0.7157  0.8806
  581MOL0     H76629   6.589   3.541   0.282  2.7791  0.0899  1.7440
  581MOL0     H76630   6.661   3.658   0.165 -1.3550 -0.9997 -1.1123
  581MOL0     H76631   6.409   3.691   0.346 -1.2954 -1.5916  0.1009
  581MOL0     H76632   6.394   3.661   0.172  0.2393 -0.5468  0.6390
  581MOL0     H76633   6.496   3.866   0.107  0.8725  3.0007  0.0958
  581MOL0     H76634   6.538   3.900   0.278 -2.2907 -1.2894  2.6396
  581MOL0     H76635   6.261   3.913   0.146 -0.5678  0.0620  0.1808
  581MOL0     H76636   6.298   3.916   0.315 -2.6179  1.7947  0.4860
  581MOL0     H76637   6.426   4.119   0.115 -1.1935  0.9960  0.6105
  581MOL0     H76638   6.434   4.133   0.281 -0.8141  2.3920 -0.0176
  581MOL0     H76639   6.213   4.162   0.328 -0.1192 -0.8639  0.6110
  581MOL0     H76640   6.161   4.154   0.156 -1.3664  1.4792  0.3694
  581MOL0     H76641   6.354   4.341   0.142  0.2635 -2.7111 -2.2830
  581MOL0     H76642   6.183   4.362   0.119 -1.2927 -1.5361  0.3758
  581MOL0     H76643   6.282   4.521   0.301  0.6209 -0.0262 -3.5548
  581MOL0     H76644   6.286   4.371   0.400 -0.2816  0.7769 -0.5173
  581MOL0     H76645   6.025   4.257   0.405  4.3321  0.3880 -1.5366
  581MOL0     H76646   5.699   4.371   0.470 -1.9750 -1.3607 -0.5611
  581MOL0     H76647   5.763   4.262   0.347 -1.7478  0.0090 -0.4286
  581MOL0     H76648   5.716   4.385   0.172  2.8550  0.7910  1.0112
  581MOL0     H76649   5.681   4.533   0.259 -0.0784 -0.1418 -0.8827
  581MOL0     H76650   5.472   4.433   0.172  0.2088  1.3043  0.1737
  581MOL0     H76651   5.510   4.278   0.269  2.1454 -0.6086  2.0954
  581MOL0     H76652   5.488   4.561   0.398  1.9386 -0.4340 -0.7551
  581MOL0     H76653   5.483   4.405   0.478  0.5431  0.6621  0.7368
  581MOL0     H76654   5.374   4.634   0.565  0.2279  0.3146 -0.4243
  581MOL0     H76655   5.224   4.822   0.632 -0.0194  0.0104 -0.1624
  581MOL0     H76656   4.854   5.081   0.714  0.4818  1.5316 -4.3315
  581MOL0     H76657   4.647   5.215   0.773  0.3564  0.0324  1.3550
  581MOL0     H76658   4.268   5.000   0.700  2.1006  0.3146 -1.1085
  581MOL0     H76659   4.206   5.149   0.711  0.3005 -0.6886 -1.2958
  581MOL0     H76660   4.366   5.037   0.954 -1.8138 -2.8413  2.8746
  581MOL0     H76661   4.196   4.997   0.925  1.0979 -2.0895  1.1818
  581MOL0     H76662   4.133   5.161   1.045  0.9986  0.1512  0.6148
  581MOL0     H76663   4.165   5.264   0.906  0.8923 -2.7932 -2.9027
  581MOL0     H76664   4.263   5.324   1.145  0.8012 -0.8083  0.3956
  581MOL0     H76665   4.392   5.209   1.100  0.9306  1.0656 -0.2592
  581MOL0     H76666   4.438   5.366   0.895 -0.8721  0.1735 -0.5905
  581MOL0     H76667   4.451   5.437   1.055  1.2230 -1.5942 -0.8473
  581MOL0     H76668   4.226   5.539   1.044 -1.5204  1.3315 -1.8673
  581MOL0     H76669   4.210   5.478   0.881  0.4510 -0.2755  1.8331
  581MOL0     H76670   4.437   5.655   0.969  1.3689 -1.4458 -1.9927
  581MOL0     H76671   4.402   5.614   0.807 -1.7354  0.2283 -0.0085
  581MOL0     H76672   4.176   5.728   0.832  0.4740 -0.8642 -0.9025
  581MOL0     H76673   4.316   5.838   0.829 -0.2044 -0.2903 -1.6918
  581MOL0     H76674   4.409   4.907   0.588  0.1107 -0.3770  0.8005
  581MOL0     H76675   4.595   4.781   0.537  1.5169 -1.8839  1.5716
  581MOL0     H76676   4.921   4.655   0.387 -0.6595 -2.6598  0.4890
  581MOL0     H76677   5.073   4.485   0.305  1.2957 -0.2071  0.1728
  581MOL0     H76678   6.828   3.535   0.246 -0.2897  2.1947 -0.7925
  581MOL0     H76679   7.069   3.488   0.315 -0.4917 -1.2344  0.8239
  581MOL0     H76680   7.518   3.805   0.617  1.6734  0.0681 -1.0003
  581MOL0     H76681   7.701   3.737   0.754  0.8504 -1.1357 -1.6168
  581MOL0     H76682   7.712   3.666   0.998  1.2561  0.8418 -1.5595
  581MOL0     H76683   7.858   3.634   0.919  0.7571  0.3029  0.7049
  581MOL0     H76684   7.764   3.422   1.126 -0.3549 -1.7426 -2.3900
  581MOL0     H76685   7.908   3.437   1.024  3.9910  1.1951  4.1111
  581MOL0     H76686   7.920   3.674   1.151  0.1398 -1.6836 -0.9323
  581MOL0     H76687   8.005   3.527   1.202  1.4153  1.3877 -2.8461
  581MOL0     H76688   7.724   3.622   1.288  0.7137  2.1648  3.0890
  581MOL0     H76689   7.798   3.473   1.340  1.4522 -0.1474 -0.1083
  581MOL0     H76690   7.983   3.730   1.619 -2.3667  2.1226  1.1198
  581MOL0     H76691   7.493   3.345   0.813  1.3442 -0.0926  0.1564
  581MOL0     H76692   7.295   3.436   0.718  1.9951 -4.8321 -0.3264
  582MOL0     O76693   1.715   4.037   0.169  0.0711 -0.6343 -0.4417
  582MOL0     C76694   1.782   3.976   0.250  0.1927  0.0065  0.5886
  582MOL0     O76695   1.763   3.849   0.295 -0.4431 -0.0302 -0.7999
  582MOL0     C76696   1.655   3.779   0.263  1.0354  0.2256 -0.3533
  582MOL0     C76697   1.659   3.639   0.241 -0.6255 -1.1657  0.5834
  582MOL0     C76698   1.544   3.564   0.213  0.2036  0.0091 -0.0284
  582MOL0     C76699   1.413   3.622   0.225 -1.1147 -0.3707  0.5515
  582MOL0     O76700   1.288   3.561   0.209  0.7172  0.7731 -0.3572
  582MOL0     C76701   1.286   3.440   0.135  0.2728 -0.8589  0.1029
  582MOL0     C76702   1.147   3.377   0.113 -0.3389 -1.2070  0.5465
  582MOL0     C76703   1.093   3.323   0.243  0.6535 -0.5600  0.4456
  582MOL0     C76704   0.945   3.278   0.244  0.9359 -1.1558  0.6319
  582MOL0     C76705   0.928   3.193   0.368  0.3273 -0.5538  0.1655
  582MOL0     C76706   0.775   3.156   0.382 -0.4385 -0.1505  0.5080
  582MOL0     C76707   0.674   3.271   0.407 -0.6978 -0.0929 -0.5593
  582MOL0     C76708   0.524   3.223   0.397  0.4273  0.0623 -0.2079
  582MOL0     N76709   0.460   3.179   0.522 -0.7424 -0.6173  0.4710
  582MOL0     C76710   0.433   3.252   0.633  1.4033 -0.5729 -0.7390
  582MOL0     C76711   0.387   3.165   0.728 -0.3547  0.7752  0.1151
  582MOL0     C76712   0.316   3.205   0.864 -0.0305  0.4171 -0.2093
  582MOL0     C76713   0.423   3.163   0.977 -0.0990 -0.2405  0.4704
  582MOL0     C76714   0.377   3.229   1.112  0.0089  0.2793 -0.1535
  582MOL0     C76715   0.248   3.159   1.169 -0.6559 -0.0609 -0.5975
  582MOL0     O76716   0.152   3.266   1.182  0.2795 -1.1952  0.0455
  582MOL0     C76717   0.024   3.243   1.212  1.0609  0.1652  0.3494
  582MOL0     C76718  -0.059   3.360   1.229 -0.5188  0.0666 -0.4986
  582MOL0     C76719  -0.187   3.341   1.275 -0.0221  0.2756  0.4413
  582MOL0     C76720  -0.243   3.211   1.295 -0.5261 -0.1494 -0.7954
  582MOL0     C76721  -0.373   3.189   1.328  0.1454 -0.1242 -0.2994
  582MOL0     O76722  -0.457   3.289   1.345  0.0102  0.3185 -0.1536
  582MOL0     C76723  -0.597   3.257   1.344 -0.6652  1.0785  0.2088
  582MOL0     C76724  -0.669   3.250   1.224 -0.1599 -0.4687 -0.7475
  582MOL0     C76725  -0.808   3.221   1.216  0.5960 -0.1715 -0.5906
  582MOL0     C76726  -0.878   3.189   1.325 -1.0750 -0.2936  0.7004
  582MOL0     O76727  -1.007   3.149   1.318  1.0249 -0.2176  0.4688
  582MOL0     C76728  -1.087   3.183   1.208  0.0956  0.1771 -0.0458
  582MOL0     C76729  -1.235   3.138   1.246 -0.4623 -0.5567 -1.4471
  582MOL0     C76730  -1.294   3.211   1.368 -0.1537 -0.5032  0.1449
  582MOL0     C76731  -1.441   3.228   1.377  0.2524  0.6457  0.0315
  582MOL0     C76732  -1.508   3.089   1.390  0.1956 -0.6704  0.2568
  582MOL0     C76733  -1.651   3.087   1.407  0.2283 -0.4947  0.9130
  582MOL0     C76734  -1.727   3.137   1.275  0.3088 -0.1055 -0.6192
  582MOL0     C76735  -1.867   3.077   1.272  1.2278  0.6526 -0.3363
  582MOL0    Cl76736  -1.959   3.123   1.426  0.4206 -0.0210 -0.3042
  582MOL0     C76737  -0.805   3.198   1.443  0.3206 -0.2296 -0.2457
  582MOL0     C76738  -0.668   3.236   1.463  0.2692 -0.6227  0.5207
  582MOL0     O76739  -0.421   3.076   1.326  0.0703  0.1610  0.2185
  582MOL0     C76740  -0.156   3.105   1.287  0.3237 -0.6614  0.5642
  582MOL0     C76741  -0.022   3.116   1.237 -0.0930 -0.3455  0.3897
  582MOL0     N76742   0.387   3.036   0.672  0.9574 -0.1307 -0.6535
  582MOL0     N76743   0.438   3.049   0.552 -0.6705 -0.5965 -0.8134
  582MOL0     C76744   1.408   3.761   0.245 -0.2390  0.6096 -0.4217
  582MOL0     C76745   1.525   3.835   0.262 -0.3390  0.1185  0.3088
  582MOL0     C76746   1.921   4.030   0.270 -0.3280  0.7675  0.3309
  582MOL0     C76747   2.023   3.959   0.340  0.3159  1.4154 -0.5924
  582MOL0     C76748   2.143   4.014   0.362 -0.0572  0.2311  0.4367
  582MOL0     C76749   2.161   4.151   0.324 -0.7554  0.2241  0.4948
  582MOL0     O76750   2.276   4.206   0.378  0.1524 -0.4095 -0.6672
  582MOL0     C76751   2.251   4.298   0.489 -0.6854  0.0465  0.0130
  582MOL0     C76752   2.245   4.452   0.441  0.5573  0.5238  1.1832
  582MOL0     C76753   2.373   4.486   0.351 -0.3640 -0.3531  0.0341
  582MOL0     C76754   2.485   4.503   0.449 -0.1262 -0.6021  0.0150
  582MOL0     C76755   2.608   4.565   0.388  0.9611  0.5757 -0.4584
  582MOL0     C76756   2.704   4.629   0.344  0.1864 -0.6246  0.0313
  582MOL0     C76757   2.071   4.219   0.241 -0.1141  0.9477  0.3022
  582MOL0     C76758   1.957   4.153   0.213  0.6288 -0.6129  0.2034
  582MOL0     H76759   1.753   3.586   0.250  1.8313  2.7069 -0.0966
  582MOL0     H76760   1.555   3.456   0.204 -1.8305 -0.4209  1.8359
  582MOL0     H76761   1.353   3.365   0.178  0.9498  0.5552  1.6025
  582MOL0     H76762   1.315   3.464   0.032 -2.0231  3.8309  0.2599
  582MOL0     H76763   1.166   3.291   0.049 -0.8191 -0.8749 -0.0547
  582MOL0     H76764   1.076   3.439   0.057  0.3166 -1.3125 -0.4240
  582MOL0     H76765   1.098   3.399   0.322 -2.8275 -0.1576  0.4055
  582MOL0     H76766   1.157   3.244   0.284 -0.8529 -1.7337  0.6247
  582MOL0     H76767   0.886   3.370   0.243  1.1803 -0.9858  1.2020
  582MOL0     H76768   0.912   3.226   0.154  0.1565 -0.8255  0.7231
  582MOL0     H76769   0.974   3.240   0.455 -0.4878  1.9215 -0.6681
  582MOL0     H76770   0.979   3.097   0.351 -0.6894 -0.6767 -2.9079
  582MOL0     H76771   0.768   3.094   0.472 -0.9622  0.9377  1.2387
  582MOL0     H76772   0.742   3.098   0.296  1.9651  1.7800 -1.9007
  582MOL0     H76773   0.698   3.303   0.508  1.4226 -6.7436  1.5574
  582MOL0     H76774   0.673   3.358   0.339  2.4304  1.6676  1.4079
  582MOL0     H76775   0.515   3.139   0.329  2.6650  2.6915 -4.1594
  582MOL0     H76776   0.464   3.301   0.349 -1.4472 -1.5618 -0.6045
  582MOL0     H76777   0.448   3.359   0.643  0.9206 -0.4957 -0.8248
  582MOL0     H76778   0.227   3.142   0.868  0.9016 -0.8846  1.5524
  582MOL0     H76779   0.295   3.312   0.859  1.3449  0.6661 -4.3510
  582MOL0     H76780   0.518   3.209   0.947 -0.6949  0.6985 -0.0241
  582MOL0     H76781   0.442   3.055   0.986  6.3768  0.3557 -0.6261
  582MOL0     H76782   0.460   3.214   1.182 -0.0972 -0.6043 -0.2124
  582MOL0     H76783   0.365   3.338   1.111  1.5247  0.4947  0.7604
  582MOL0     H76784   0.276   3.117   1.266  1.3349 -1.1506 -1.5847
  582MOL0     H76785   0.226   3.078   1.099 -2.6305  0.2540 -0.3871
  582MOL0     H76786  -0.014   3.454   1.199  3.1506 -1.1650  0.6175
  582MOL0     H76787  -0.250   3.424   1.302 -3.6372 -2.0528 -0.1959
  582MOL0     H76788  -0.607   3.269   1.137  0.0587  1.2406 -0.2466
  582MOL0     H76789  -0.848   3.221   1.115 -0.1639 -1.0911 -0.3107
  582MOL0     H76790  -1.058   3.140   1.112  0.8645  0.9306 -0.1684
  582MOL0     H76791  -1.083   3.291   1.191 -0.3278  0.1681 -0.2052
  582MOL0     H76792  -1.244   3.029   1.255 -1.2835 -0.3119  3.5747
  582MOL0     H76793  -1.309   3.171   1.173 -2.7161  1.4693  1.5209
  582MOL0     H76794  -1.250   3.311   1.366  0.2775 -0.6701 -2.5293
  582MOL0     H76795  -1.262   3.168   1.463  1.3496  0.5024  0.1350
  582MOL0     H76796  -1.461   3.290   1.465  1.1648 -1.3650  1.7179
  582MOL0     H76797  -1.473   3.287   1.290 -0.2670  2.5904  1.4581
  582MOL0     H76798  -1.451   3.025   1.458  3.7490 -0.7191 -2.4071
  582MOL0     H76799  -1.479   3.044   1.294  2.7470 -0.2345  0.7478
  582MOL0     H76800  -1.681   3.147   1.494 -1.8933 -0.1174 -0.0208
  582MOL0     H76801  -1.690   2.985   1.420 -1.2531 -0.0953 -0.1628
  582MOL0     H76802  -1.724   3.247   1.271  0.4181 -0.0596  0.4553
  582MOL0     H76803  -1.670   3.113   1.185 -0.6631  1.9278 -1.8444
  582MOL0     H76804  -1.875   2.968   1.269 -0.9540  0.7977 -1.9289
  582MOL0     H76805  -1.917   3.108   1.180 -0.8844  0.3872  0.6623
  582MOL0     H76806  -0.874   3.185   1.527 -2.8945  0.6451 -2.5561
  582MOL0     H76807  -0.617   3.241   1.559  0.5926  0.3730  0.3100
  582MOL0     H76808  -0.186   3.002   1.303  1.0580 -1.0135 -0.2630
  582MOL0     H76809   0.039   3.026   1.232 -0.2293 -0.5496  1.8344
  582MOL0     H76810   1.310   3.808   0.240  0.2227  1.4712 -2.8859
  582MOL0     H76811   1.519   3.939   0.290  1.0010 -0.0668  1.3985
  582MOL0     H76812   1.990   3.857   0.361 -2.3273  2.4154  0.6356
  582MOL0     H76813   2.222   3.955   0.408  1.0578  0.3313 -1.2683
  582MOL0     H76814   2.340   4.291   0.552 -1.4427  0.7265  1.1799
  582MOL0     H76815   2.157   4.269   0.537 -0.8291  0.6735  0.1222
  582MOL0     H76816   2.151   4.457   0.385  1.4686 -0.0796 -0.4725
  582MOL0     H76817   2.243   4.522   0.525 -1.1015  2.2962 -0.2482
  582MOL0     H76818   2.363   4.571   0.284 -1.4356 -1.8366 -1.7743
  582MOL0     H76819   2.396   4.401   0.286 -1.8315 -0.6841 -0.0805
  582MOL0     H76820   2.464   4.582   0.522  4.7568  3.2042 -2.1799
  582MOL0     H76821   2.502   4.405   0.495 -0.5586 -1.4933 -1.6504
  582MOL0     H76822   2.788   4.685   0.308 -0.2677 -1.1141 -1.9390
  582MOL0     H76823   2.096   4.318   0.206  0.4218  2.1423  3.6471
  582MOL0     H76824   1.890   4.216   0.156  1.6371  3.7738  3.3291
  583MOL0     O76825  10.842   1.971   9.420  0.5922  0.0350  0.5933
  583MOL0     C76826  10.787   2.080   9.414  0.2292  1.0215 -0.0650
  583MOL0     O76827  10.847   2.191   9.382 -0.1242 -0.3524 -0.2721
  583MOL0     C76828  10.984   2.185   9.351 -0.0250  0.3035 -0.2055
  583MOL0     C76829  11.027   2.211   9.220  0.0108  0.1981 -0.9683
  583MOL0     C76830  11.152   2.208   9.182 -0.6441 -0.3381 -1.2155
  583MOL0     C76831  11.264   2.188   9.272  0.2821 -0.5534 -0.0148
  583MOL0     O76832  11.396   2.194   9.229 -0.4456  1.0734 -0.1304
  583MOL0     C76833  11.494   2.257   9.327  0.0269 -1.3872 -1.0487
  583MOL0     C76834  11.553   2.158   9.418 -0.0688  0.5325 -0.0987
  583MOL0     C76835  11.708   2.177   9.430 -0.7896  0.7362  0.6892
  583MOL0     C76836  11.760   2.064   9.522  0.0017  0.3396  0.7386
  583MOL0     C76837  11.881   2.100   9.610 -0.7993  0.0216  0.1845
  583MOL0     C76838  12.009   2.091   9.523  0.4348 -0.4334 -0.1805
  583MOL0     C76839  12.045   2.214   9.430  0.0409 -0.0604 -0.2821
  583MOL0     C76840  12.046   2.349   9.496 -0.3433 -0.6108  0.1842
  583MOL0     N76841  12.169   2.357   9.576 -0.5450  0.5734 -0.1719
  583MOL0     C76842  12.297   2.402   9.536 -0.4858 -0.3621 -0.0460
  583MOL0     C76843  12.373   2.407   9.651  0.5752  0.3689 -0.3585
  583MOL0     C76844  12.510   2.465   9.642 -0.4594  0.4422 -1.3452
  583MOL0     C76845  12.493   2.609   9.695 -0.6260 -0.2646  0.6234
  583MOL0     C76846  12.612   2.660   9.776  0.7674 -0.3440  0.3639
  583MOL0     C76847  12.624   2.815   9.782  0.0713 -0.3651 -0.3709
  583MOL0     O76848  12.753   2.836   9.852 -0.1824 -0.2232 -0.1171
  583MOL0     C76849  12.827   2.935   9.783 -0.3003  1.1111  0.6659
  583MOL0     C76850  12.784   3.045   9.714  0.3377 -1.4307  0.2451
  583MOL0     C76851  12.876   3.147   9.678 -0.0663 -0.3382  0.9617
  583MOL0     C76852  13.015   3.134   9.700  0.5092  0.5045  0.5470
  583MOL0     C76853  13.110   3.242   9.660  0.5712 -0.1730  0.3795
  583MOL0     O76854  13.246   3.227   9.679  0.6216 -0.5823 -0.6758
  583MOL0     C76855  13.350   3.306   9.629 -0.0577  0.0165  0.3246
  583MOL0     C76856  13.330   3.435   9.567  0.3495 -0.6314  0.1693
  583MOL0     C76857  13.438   3.496   9.498  0.2999  0.2669  0.2301
  583MOL0     C76858  13.565   3.442   9.486 -0.2983 -0.6787 -0.2907
  583MOL0     O76859  13.678   3.491   9.426 -0.0272 -0.2060  0.3304
  583MOL0     C76860  13.654   3.614   9.357 -0.5373 -0.9276  0.0885
  583MOL0     C76861  13.790   3.657   9.301 -0.5882 -0.4307 -0.7289
  583MOL0     C76862  13.848   3.542   9.222  0.0060 -0.1867 -0.2522
  583MOL0     C76863  13.988   3.587   9.169 -0.2673 -0.0477 -0.4911
  583MOL0     C76864  14.062   3.482   9.096 -0.2849 -0.3113  0.3057
  583MOL0     C76865  14.190   3.536   9.036  0.0166  0.5380  0.2033
  583MOL0     C76866  14.245   3.430   8.936 -0.1597 -0.4109  0.5751
  583MOL0     C76867  14.327   3.508   8.840  1.1351 -0.2730  1.0794
  583MOL0    Cl76868  14.366   3.414   8.699 -0.4095 -0.0634  0.3633
  583MOL0     C76869  13.585   3.323   9.557 -0.2282  0.5185 -0.1674
  583MOL0     C76870  13.478   3.263   9.635 -0.5308  0.2907  0.1859
  583MOL0     O76871  13.058   3.327   9.591  0.4752 -0.2775 -0.4540
  583MOL0     C76872  13.056   3.015   9.756 -0.5877 -0.4753  0.1161
  583MOL0     C76873  12.962   2.918   9.793 -0.7088  0.2611 -0.1027
  583MOL0     N76874  12.292   2.367   9.761  0.0105  0.3468 -0.3180
  583MOL0     N76875  12.175   2.350   9.710  0.0801  0.5019 -0.3724
  583MOL0     C76876  11.224   2.153   9.404 -0.9955  0.1243  0.0455
  583MOL0     C76877  11.085   2.159   9.448 -0.5884 -0.4430 -0.6106
  583MOL0     C76878  10.642   2.089   9.448  0.0645 -0.1983  0.2015
  583MOL0     C76879  10.567   1.966   9.478  0.6369 -0.3216  0.9370
  583MOL0     C76880  10.436   1.975   9.518  0.3111 -0.4270 -0.4389
  583MOL0     C76881  10.379   2.100   9.549  0.4836  0.9696  0.3025
  583MOL0     O76882  10.260   2.119   9.619 -0.6925 -1.0753  0.3246
  583MOL0     C76883  10.199   2.007   9.680  0.3945 -0.0079 -0.1967
  583MOL0     C76884  10.054   2.031   9.676  1.1554 -0.4737 -0.1135
  583MOL0     C76885   9.960   1.914   9.719 -0.3849 -0.7170  0.6432
  583MOL0     C76886   9.910   1.944   9.868 -0.9686  0.7277 -0.1149
  583MOL0     C76887  10.030   1.958   9.962 -0.2872  0.1066  0.3083
  583MOL0     C76888  10.127   1.956  10.041 -0.2883  0.1146  0.0360
  583MOL0     C76889  10.444   2.214   9.513 -0.6990 -0.1766  0.2654
  583MOL0     C76890  10.577   2.213   9.468  0.4665 -0.5141  0.5978
  583MOL0     H76891  10.952   2.219   9.142  0.4396  1.1619 -1.3004
  583MOL0     H76892  11.174   2.219   9.076 -2.7916 -1.4790 -1.8539
  583MOL0     H76893  11.444   2.331   9.391  0.1062 -3.2048  1.2760
  583MOL0     H76894  11.564   2.315   9.268 -0.2145 -2.6049 -2.5841
  583MOL0     H76895  11.527   2.059   9.381  1.4972 -0.9445  2.4493
  583MOL0     H76896  11.507   2.162   9.517  0.4367  1.1069  0.1168
  583MOL0     H76897  11.730   2.275   9.474  0.4834  0.7109  0.1721
  583MOL0     H76898  11.753   2.165   9.331 -0.5361  0.7655  0.8007
  583MOL0     H76899  11.684   2.027   9.591 -1.8339 -2.9453 -2.7328
  583MOL0     H76900  11.768   1.971   9.465 -3.1283 -1.3905  2.8241
  583MOL0     H76901  11.889   2.021   9.686  2.5653  0.3591  0.3221
  583MOL0     H76902  11.855   2.196   9.655 -0.2891  0.4351 -0.3933
  583MOL0     H76903  11.998   1.995   9.471 -2.0188  1.7395 -4.1630
  583MOL0     H76904  12.092   2.089   9.594  1.9830  2.6988 -1.7010
  583MOL0     H76905  12.131   2.187   9.368 -0.5922 -2.1890 -0.3345
  583MOL0     H76906  11.958   2.227   9.363  0.6844 -0.9815 -1.3318
  583MOL0     H76907  11.957   2.355   9.560  0.7329 -2.8870  2.0667
  583MOL0     H76908  12.048   2.427   9.420  1.3953 -0.5665  0.2310
  583MOL0     H76909  12.317   2.439   9.436 -0.2600 -0.5969 -0.0905
  583MOL0     H76910  12.551   2.451   9.541 -2.1430 -0.8298 -1.8975
  583MOL0     H76911  12.572   2.405   9.710 -1.2132 -0.1016 -1.1259
  583MOL0     H76912  12.404   2.617   9.759 -1.6980 -4.2180 -0.1557
  583MOL0     H76913  12.474   2.667   9.604  0.1104 -1.7545 -0.5102
  583MOL0     H76914  12.599   2.625   9.879 -2.3518  4.3772  1.8992
  583MOL0     H76915  12.702   2.614   9.733 -0.6356 -2.6797 -0.2175
  583MOL0     H76916  12.546   2.856   9.846  0.0433  0.2435 -0.7862
  583MOL0     H76917  12.616   2.854   9.681  0.5874 -2.2827 -1.2011
  583MOL0     H76918  12.679   3.070   9.714 -0.2082 -2.9822 -4.0959
  583MOL0     H76919  12.839   3.240   9.638  0.1940 -0.9934 -0.8932
  583MOL0     H76920  13.237   3.490   9.556  0.1989 -0.5915  1.5459
  583MOL0     H76921  13.413   3.590   9.451 -1.6801 -0.8310 -1.0017
  583MOL0     H76922  13.623   3.702   9.414 -0.7289  0.0581 -1.4769
  583MOL0     H76923  13.586   3.617   9.271 -1.2769  1.6661  0.6857
  583MOL0     H76924  13.848   3.690   9.387 -1.1975 -1.3966  0.0667
  583MOL0     H76925  13.780   3.748   9.240 -0.0457 -0.0437 -0.2450
  583MOL0     H76926  13.791   3.512   9.134  1.7889 -0.6855 -1.2868
  583MOL0     H76927  13.868   3.453   9.282 -3.0270 -1.6497 -1.2321
  583MOL0     H76928  13.967   3.675   9.108  0.0209  0.9736  0.8435
  583MOL0     H76929  14.048   3.613   9.257 -0.7771  3.0916 -0.9592
  583MOL0     H76930  14.005   3.445   9.010  2.4374 -1.6105 -1.0569
  583MOL0     H76931  14.069   3.398   9.166 -2.6860 -1.1983 -0.4192
  583MOL0     H76932  14.276   3.557   9.101 -0.0281  1.4066  0.0021
  583MOL0     H76933  14.171   3.628   8.979 -2.1975 -0.0348 -0.0799
  583MOL0     H76934  14.310   3.367   8.998 -1.6030 -2.3318  0.2309
  583MOL0     H76935  14.168   3.368   8.889 -1.2963  0.5167  1.1498
  583MOL0     H76936  14.407   3.553   8.899  1.6888  1.6292 -1.0049
  583MOL0     H76937  14.266   3.592   8.805 -0.9049 -1.7602  0.8729
  583MOL0     H76938  13.682   3.276   9.550 -0.8636 -0.6625 -1.5504
  583MOL0     H76939  13.514   3.176   9.689 -1.7582 -0.5095 -0.2634
  583MOL0     H76940  13.159   2.984   9.771 -0.9023 -1.9170 -0.5002
  583MOL0     H76941  12.998   2.836   9.854  1.4945  0.9828 -0.3432
  583MOL0     H76942  11.294   2.129   9.483 -2.2658 -0.4189  1.0527
  583MOL0     H76943  11.062   2.141   9.552 -0.1443 -1.8247 -0.7304
  583MOL0     H76944  10.607   1.871   9.444 -1.2420 -0.2434 -1.8625
  583MOL0     H76945  10.393   1.876   9.529  1.4076 -0.8100  0.6950
  583MOL0     H76946  10.235   2.004   9.783  0.0639  2.3538  0.0291
  583MOL0     H76947  10.209   1.910   9.630  0.8043  1.4162 -3.0668
  583MOL0     H76948  10.016   2.118   9.731  1.1313 -0.0854 -0.7392
  583MOL0     H76949  10.016   2.046   9.574 -2.4504 -1.7139  0.8774
  583MOL0     H76950  10.015   1.820   9.723 -0.6622 -0.8860  0.5473
  583MOL0     H76951   9.875   1.906   9.650 -0.5250  0.6900  0.6164
  583MOL0     H76952   9.857   2.039   9.856 -1.6759  0.2169 -1.1616
  583MOL0     H76953   9.838   1.864   9.891  0.3085  0.4181  3.3914
  583MOL0     H76954  10.202   1.963  10.116  1.5571  2.1514 -1.8498
  583MOL0     H76955  10.399   2.313   9.519 -1.1987 -0.2693 -1.3749
  583MOL0     H76956  10.612   2.310   9.432 -1.6799  0.6934  1.5432
  584MOL0     O76957   6.109   1.845   7.677  0.1022  0.3492  0.7341
  584MOL0     C76958   6.198   1.819   7.760  0.5088 -0.1466  0.1352
  584MOL0     O76959   6.182   1.802   7.896 -0.3555 -0.3055  0.9194
  584MOL0     C76960   6.054   1.800   7.940 -0.1951  0.1432  1.2057
  584MOL0     C76961   5.963   1.910   7.933  0.2589 -0.7103 -0.0797
  584MOL0     C76962   5.834   1.904   7.994 -0.5149  0.2344  0.8660
  584MOL0     C76963   5.789   1.793   8.070  0.0492  0.4268 -0.3383
  584MOL0     O76964   5.666   1.793   8.119  0.1232 -0.1295 -0.3113
  584MOL0     C76965   5.631   1.697   8.227  0.1194 -1.1963  0.4770
  584MOL0     C76966   5.549   1.589   8.167 -0.4078  0.5594  0.0803
  584MOL0     C76967   5.436   1.628   8.078 -0.3881  0.3630 -0.1598
  584MOL0     C76968   5.338   1.722   8.159  1.0617  1.1972  0.5273
  584MOL0     C76969   5.290   1.665   8.294 -0.3901 -0.5575  0.2533
  584MOL0     C76970   5.180   1.754   8.362 -0.8502 -0.4505 -1.2383
  584MOL0     C76971   5.170   1.742   8.517 -0.6134 -0.1353 -0.0649
  584MOL0     C76972   5.066   1.636   8.554 -0.2053 -0.5172  0.4767
  584MOL0     N76973   4.926   1.664   8.519 -0.6761  0.0501  0.4585
  584MOL0     C76974   4.847   1.750   8.594 -0.5141 -0.3641  0.6212
  584MOL0     C76975   4.722   1.746   8.547 -0.6308 -0.7288 -0.4063
  584MOL0     C76976   4.612   1.841   8.594  1.1045 -0.5792  0.0064
  584MOL0     C76977   4.521   1.883   8.481 -0.3608  0.7148  0.5622
  584MOL0     C76978   4.533   2.022   8.408 -0.2699  0.0002 -0.2058
  584MOL0     C76979   4.670   2.032   8.339 -0.2515 -0.6694  0.4958
  584MOL0     O76980   4.703   2.159   8.281  0.1964  0.1102  0.2431
  584MOL0     C76981   4.813   2.173   8.211 -0.0472  0.5205  0.4520
  584MOL0     C76982   4.913   2.068   8.195  0.2928 -0.7287  0.6449
  584MOL0     C76983   5.033   2.084   8.123  0.0711 -0.2457 -0.0519
  584MOL0     C76984   5.064   2.208   8.074  0.9715 -0.9505  0.4635
  584MOL0     C76985   5.171   2.236   7.986 -0.7554 -0.3786 -0.4134
  584MOL0     O76986   5.268   2.137   7.971 -0.2123 -0.1135 -0.8302
  584MOL0     C76987   5.370   2.129   7.877 -0.2987 -1.1549  1.0795
  584MOL0     C76988   5.417   2.007   7.832  0.1937 -0.6227  0.4871
  584MOL0     C76989   5.526   1.999   7.742  0.2171  1.2284 -1.1703
  584MOL0     C76990   5.597   2.102   7.705  0.5040 -0.5841  0.7605
  584MOL0     O76991   5.702   2.089   7.622  0.6871  1.6581  0.3711
  584MOL0     C76992   5.837   2.107   7.662 -0.2635 -0.1916  0.1927
  584MOL0     C76993   5.900   2.181   7.544  0.6267  0.5766 -0.6628
  584MOL0     C76994   6.041   2.128   7.511 -0.7898  0.0180  0.4898
  584MOL0     C76995   6.131   2.234   7.444 -0.3859 -0.6313  0.2407
  584MOL0     C76996   6.261   2.173   7.401 -0.0150 -1.5154 -0.3641
  584MOL0     C76997   6.342   2.266   7.315 -1.4504 -0.4734 -0.3115
  584MOL0     C76998   6.473   2.196   7.272 -0.0111 -0.5402  0.5980
  584MOL0     C76999   6.517   2.225   7.131  0.1824  0.5472 -0.3673
  584MOL0    Cl77000   6.570   2.398   7.117  0.0920  0.1914  0.0886
  584MOL0     C77001   5.558   2.229   7.753 -0.7276 -0.3274 -1.1816
  584MOL0     C77002   5.435   2.241   7.830  0.8438  0.6419 -0.8498
  584MOL0     O77003   5.167   2.337   7.915 -0.0856 -0.0187  0.4391
  584MOL0     C77004   4.974   2.316   8.104  0.2000 -0.6204  0.9071
  584MOL0     C77005   4.852   2.301   8.169  0.4418 -0.5109  0.9450
  584MOL0     N77006   4.728   1.643   8.446  0.2325  0.1277 -0.7231
  584MOL0     N77007   4.848   1.609   8.426  0.0280  0.6785  1.2344
  584MOL0     C77008   5.885   1.687   8.086 -0.5428 -0.0679 -0.4448
  584MOL0     C77009   6.014   1.699   8.024  0.2527 -0.0345 -0.6783
  584MOL0     C77010   6.342   1.814   7.717 -0.2400  0.0437 -1.3510
  584MOL0     C77011   6.370   1.879   7.599 -0.7482 -0.7109  0.1670
  584MOL0     C77012   6.505   1.888   7.563 -0.1326  0.0563  0.2888
  584MOL0     C77013   6.610   1.809   7.613  0.2149 -0.0356  0.7139
  584MOL0     O77014   6.739   1.829   7.571 -0.0768 -0.3958  0.0553
  584MOL0     C77015   6.839   1.765   7.648 -0.9905  0.2734  0.2771
  584MOL0     C77016   6.982   1.785   7.588  0.9114  0.2132  0.1692
  584MOL0     C77017   7.016   1.937   7.581 -0.0868  0.7822 -0.7153
  584MOL0     C77018   7.108   1.973   7.471 -0.5554  0.0679 -0.1654
  584MOL0     C77019   7.211   1.872   7.481 -0.6324  0.4894  0.4245
  584MOL0     C77020   7.314   1.802   7.506 -0.1587 -0.3620  0.1307
  584MOL0     C77021   6.576   1.737   7.726  0.7603 -0.4434 -0.3434
  584MOL0     C77022   6.448   1.748   7.781 -0.0817 -0.1283 -0.5237
  584MOL0     H77023   5.983   1.999   7.876  0.4779 -0.4118  0.4566
  584MOL0     H77024   5.763   1.986   7.995 -2.6032 -1.4421  3.3124
  584MOL0     H77025   5.567   1.760   8.290 -0.8244 -2.7527  1.1100
  584MOL0     H77026   5.723   1.656   8.269  0.8704 -0.1462 -0.0801
  584MOL0     H77027   5.521   1.516   8.244  0.7758 -0.4248 -0.3813
  584MOL0     H77028   5.621   1.535   8.104  4.1889  2.7940  2.9062
  584MOL0     H77029   5.382   1.544   8.034 -0.3956 -0.1187  0.7420
  584MOL0     H77030   5.474   1.679   7.989 -2.6722 -0.2350 -1.5747
  584MOL0     H77031   5.379   1.823   8.169  3.3268  0.2114  1.9253
  584MOL0     H77032   5.258   1.722   8.084  2.9907  1.0295 -1.6499
  584MOL0     H77033   5.374   1.669   8.363 -0.0121 -1.1193 -0.1672
  584MOL0     H77034   5.257   1.561   8.288 -0.7991 -0.3669 -1.2550
  584MOL0     H77035   5.079   1.758   8.321 -1.3366  3.2061 -0.0697
  584MOL0     H77036   5.215   1.857   8.350  1.0599 -0.9897 -0.7207
  584MOL0     H77037   5.267   1.710   8.556 -1.3358 -1.6533  0.5464
  584MOL0     H77038   5.145   1.842   8.553  1.4426  0.9862 -1.5272
  584MOL0     H77039   5.065   1.632   8.663  0.6810  0.5447  0.5443
  584MOL0     H77040   5.094   1.542   8.505 -0.7698 -0.1237 -0.6442
  584MOL0     H77041   4.886   1.816   8.671 -1.9779 -1.3000  2.2358
  584MOL0     H77042   4.636   1.921   8.665 -1.7001  2.2339 -1.9591
  584MOL0     H77043   4.549   1.779   8.658 -1.8801  1.9201 -0.2448
  584MOL0     H77044   4.418   1.872   8.519 -1.5378 -0.7974 -2.6815
  584MOL0     H77045   4.531   1.805   8.405  2.4497  0.2171  1.3323
  584MOL0     H77046   4.460   2.022   8.327  1.1155 -0.3276 -1.5109
  584MOL0     H77047   4.525   2.104   8.480  3.9636  1.1689 -0.7753
  584MOL0     H77048   4.688   1.950   8.269 -0.6867 -0.6549  0.3651
  584MOL0     H77049   4.734   2.021   8.427  0.3172  1.7306  0.4558
  584MOL0     H77050   4.893   1.971   8.239  0.1777 -1.5969 -1.2394
  584MOL0     H77051   5.115   2.012   8.116  1.8331  1.6271  0.4432
  584MOL0     H77052   5.371   1.921   7.879 -0.0912 -0.0382  1.3012
  584MOL0     H77053   5.553   1.905   7.694  2.1307  1.7566 -1.1924
  584MOL0     H77054   5.873   2.004   7.672 -3.3134 -1.3337  0.5687
  584MOL0     H77055   5.848   2.160   7.758 -4.5811  0.3678  0.5838
  584MOL0     H77056   5.916   2.285   7.574  0.2100  0.0677  1.4423
  584MOL0     H77057   5.841   2.167   7.453 -0.2310 -0.0502 -0.0234
  584MOL0     H77058   6.021   2.040   7.449  0.0526  1.1759 -1.5497
  584MOL0     H77059   6.093   2.095   7.600 -2.5750 -2.5651  0.6946
  584MOL0     H77060   6.073   2.282   7.365 -2.0836 -2.1400  0.5085
  584MOL0     H77061   6.157   2.312   7.517  0.7251 -0.9875  0.2459
  584MOL0     H77062   6.233   2.078   7.355  2.1286 -2.0123 -0.7415
  584MOL0     H77063   6.336   2.143   7.475 -0.1407 -0.8252  0.0534
  584MOL0     H77064   6.356   2.366   7.358  0.3899 -1.7039  2.1754
  584MOL0     H77065   6.285   2.294   7.226 -0.4269  1.6701 -0.3684
  584MOL0     H77066   6.556   2.229   7.335 -0.2499  0.4297  0.4203
  584MOL0     H77067   6.468   2.088   7.287 -1.5607 -0.4064  1.1688
  584MOL0     H77068   6.448   2.193   7.052 -0.3524 -1.8077  0.9767
  584MOL0     H77069   6.602   2.166   7.097  0.9956 -0.5014  3.1149
  584MOL0     H77070   5.609   2.324   7.737 -0.1925  0.1752  2.6557
  584MOL0     H77071   5.405   2.340   7.862  0.1457  0.0814  0.2555
  584MOL0     H77072   5.019   2.414   8.089 -0.1065 -0.6041  0.0340
  584MOL0     H77073   4.788   2.388   8.175  0.8207  0.4734 -4.3743
  584MOL0     H77074   5.871   1.590   8.133 -2.8821 -0.1680 -1.2172
  584MOL0     H77075   6.086   1.620   8.042  2.5438  2.4360  2.0491
  584MOL0     H77076   6.293   1.930   7.542  1.4989  2.4527 -0.3159
  584MOL0     H77077   6.537   1.952   7.481 -0.4709  0.5965  0.5716
  584MOL0     H77078   6.823   1.657   7.662  0.4803 -0.1475 -1.0228
  584MOL0     H77079   6.837   1.810   7.748  0.0826  1.3230 -0.1441
  584MOL0     H77080   7.061   1.729   7.639  0.5440 -0.9579 -0.5084
  584MOL0     H77081   6.965   1.754   7.485 -4.5358  3.2137 -0.2280
  584MOL0     H77082   7.071   1.966   7.672 -1.1960  2.0634 -0.4252
  584MOL0     H77083   6.922   1.991   7.593  1.0722  2.5558  1.1009
  584MOL0     H77084   7.065   1.978   7.370  1.3579 -0.8414 -1.0659
  584MOL0     H77085   7.150   2.068   7.505  1.6038 -0.5078 -1.0920
  584MOL0     H77086   7.403   1.745   7.526  1.1364  0.4743 -2.6584
  584MOL0     H77087   6.649   1.670   7.770 -1.4296 -1.8025  1.4605
  584MOL0     H77088   6.425   1.704   7.877  0.5334  3.0057  1.1968
  585MOL0     O77089   9.377   7.903   2.236 -0.0602 -0.0823 -0.3859
  585MOL0     C77090   9.336   7.802   2.300  0.5064  0.0547 -0.4349
  585MOL0     O77091   9.214   7.745   2.275 -0.4338 -0.2258  0.0835
  585MOL0     C77092   9.138   7.808   2.183 -0.0618  0.3294 -0.5186
  585MOL0     C77093   9.079   7.932   2.188 -0.1745  0.6117 -0.2434
  585MOL0     C77094   9.002   7.989   2.090 -0.0150 -0.8396  0.7648
  585MOL0     C77095   8.971   7.914   1.966 -0.3727 -1.4697  0.0808
  585MOL0     O77096   8.888   7.970   1.874 -0.0699  0.7241  0.2372
  585MOL0     C77097   8.825   7.870   1.793 -0.4503 -0.0080 -0.8612
  585MOL0     C77098   8.699   7.936   1.726  0.6584  0.1597 -0.4148
  585MOL0     C77099   8.560   7.900   1.799 -0.9992  0.0781 -0.6336
  585MOL0     C77100   8.452   7.949   1.700  0.8840 -0.7100 -0.1536
  585MOL0     C77101   8.411   7.846   1.591 -0.0326  0.2004 -0.0192
  585MOL0     C77102   8.353   7.920   1.468 -0.5705  0.0402 -0.0944
  585MOL0     C77103   8.260   7.833   1.380 -0.5578  0.7871 -0.2611
  585MOL0     C77104   8.124   7.779   1.437 -0.4320  0.0071 -0.6548
  585MOL0     N77105   8.056   7.876   1.513  0.7026 -0.5896  0.1066
  585MOL0     C77106   7.994   7.985   1.462  0.6204  0.1377  0.5592
  585MOL0     C77107   7.933   8.045   1.561  1.5221  0.7280  0.4294
  585MOL0     C77108   7.835   8.167   1.533 -0.4478  0.3394 -0.3170
  585MOL0     C77109   7.733   8.175   1.653 -0.8771  0.6012  0.1374
  585MOL0     C77110   7.669   8.310   1.658 -0.1125 -0.2882 -0.1158
  585MOL0     C77111   7.574   8.315   1.770 -0.1820  0.1778  0.5758
  585MOL0     O77112   7.469   8.222   1.746 -0.3549 -0.5206  0.1597
  585MOL0     C77113   7.349   8.235   1.807  0.1153 -0.2439 -0.6202
  585MOL0     C77114   7.327   8.306   1.924 -0.0494 -1.0856  0.3641
  585MOL0     C77115   7.197   8.324   1.969  0.4346 -0.2060  0.2270
  585MOL0     C77116   7.091   8.270   1.894  0.9920 -0.3142 -0.0165
  585MOL0     C77117   6.945   8.300   1.935 -0.4424  0.0815  0.1326
  585MOL0     O77118   6.939   8.325   2.075 -0.2201 -0.6608  0.3576
  585MOL0     C77119   6.827   8.349   2.143  0.4042  0.1414 -0.6552
  585MOL0     C77120   6.826   8.457   2.233 -0.2630  0.3446 -0.9841
  585MOL0     C77121   6.711   8.467   2.322 -0.9576  0.6574  0.1387
  585MOL0     C77122   6.601   8.384   2.307  0.0218  0.1127 -0.2911
  585MOL0     O77123   6.491   8.402   2.394 -0.2970  0.1394  0.8136
  585MOL0     C77124   6.387   8.307   2.398  0.8205  0.3186  0.1860
  585MOL0     C77125   6.265   8.345   2.490  0.2749 -0.9847  1.0203
  585MOL0     C77126   6.187   8.455   2.415 -0.4086 -1.0015 -0.9129
  585MOL0     C77127   6.064   8.492   2.494  0.3122 -0.3213  0.0864
  585MOL0     C77128   5.954   8.386   2.494  0.2724  0.5366 -0.2331
  585MOL0     C77129   5.864   8.437   2.600  0.1139 -0.8744 -0.2632
  585MOL0     C77130   5.720   8.392   2.574 -0.3798 -0.6916  0.0026
  585MOL0     C77131   5.621   8.436   2.683  0.0696  0.2965  0.1266
  585MOL0    Cl77132   5.649   8.349   2.841  0.6385  0.2323 -0.3939
  585MOL0     C77133   6.606   8.283   2.210  0.5956 -0.5638  0.7965
  585MOL0     C77134   6.719   8.261   2.133  0.8696 -1.0881  0.6357
  585MOL0     O77135   6.855   8.283   1.856  0.0457  0.3064 -1.4022
  585MOL0     C77136   7.124   8.189   1.779 -0.2891 -0.4213  0.7527
  585MOL0     C77137   7.252   8.156   1.743  0.0972 -0.2718 -0.4302
  585MOL0     N77138   7.959   7.968   1.678 -0.0448  0.1915  0.1965
  585MOL0     N77139   8.040   7.871   1.645 -0.2100 -0.7340 -0.0597
  585MOL0     C77140   9.038   7.796   1.956  0.5149  0.3261  0.4416
  585MOL0     C77141   9.107   7.738   2.063  0.6541 -0.2568  0.3369
  585MOL0     C77142   9.425   7.745   2.398  0.5337 -0.1036 -0.5320
  585MOL0     C77143   9.540   7.810   2.451 -0.2408 -0.0709  0.7179
  585MOL0     C77144   9.611   7.752   2.556 -0.4252 -0.8245 -0.1104
  585MOL0     C77145   9.585   7.626   2.603 -0.0052  0.1452 -1.1460
  585MOL0     O77146   9.646   7.570   2.705  0.3438  0.1651 -0.1212
  585MOL0     C77147   9.720   7.645   2.801  0.0208  0.6735  0.0183
  585MOL0     C77148   9.867   7.649   2.765  0.6024 -0.3452  0.1005
  585MOL0     C77149   9.954   7.704   2.883 -0.7038 -0.6655 -0.7225
  585MOL0     C77150   9.959   7.600   2.994 -0.5889 -0.1229  0.3690
  585MOL0     C77151  10.059   7.491   2.976  0.2565 -0.6448 -0.9267
  585MOL0     C77152  10.137   7.397   2.962  0.6262  0.4237 -0.1795
  585MOL0     C77153   9.474   7.560   2.553  0.1343  0.4852  0.1731
  585MOL0     C77154   9.392   7.617   2.455 -0.0338  0.1273  1.3194
  585MOL0     H77155   9.085   7.996   2.275  0.9939  1.3064 -0.8069
  585MOL0     H77156   8.970   8.093   2.090  1.2434 -0.4368  0.4210
  585MOL0     H77157   8.796   7.788   1.859  3.7725 -0.1084  1.2106
  585MOL0     H77158   8.893   7.835   1.714  1.2128 -0.6780  0.7887
  585MOL0     H77159   8.705   7.900   1.623  1.3021  0.8568 -0.6257
  585MOL0     H77160   8.700   8.045   1.724  1.0215  0.2338  1.4328
  585MOL0     H77161   8.567   7.955   1.893 -1.0967 -1.0127  0.0187
  585MOL0     H77162   8.561   7.794   1.825  2.8526 -0.4726 -2.2678
  585MOL0     H77163   8.367   7.974   1.764  1.3117 -1.0071  0.5400
  585MOL0     H77164   8.484   8.040   1.648  2.9352 -0.4224  1.4716
  585MOL0     H77165   8.339   7.774   1.631 -1.1476  0.3779 -1.6362
  585MOL0     H77166   8.495   7.782   1.564 -0.0206  0.2155 -0.0184
  585MOL0     H77167   8.432   7.972   1.413 -0.1702 -0.8885 -0.4284
  585MOL0     H77168   8.286   7.994   1.512  1.2838  0.3685  2.4074
  585MOL0     H77169   8.230   7.888   1.290  0.0556  3.1984  0.9438
  585MOL0     H77170   8.307   7.747   1.330 -1.8373  2.0202 -3.9700
  585MOL0     H77171   8.133   7.696   1.507  0.0040  1.0796  0.5994
  585MOL0     H77172   8.055   7.747   1.358 -1.4176  2.3518 -0.8282
  585MOL0     H77173   8.007   8.028   1.363  0.5190 -1.8561 -0.3598
  585MOL0     H77174   7.800   8.153   1.430  0.8212  0.4642 -0.7836
  585MOL0     H77175   7.887   8.263   1.524  0.4069 -0.1014 -0.1611
  585MOL0     H77176   7.783   8.161   1.749 -0.8951  0.3882  0.1171
  585MOL0     H77177   7.658   8.098   1.635  0.7395 -0.2550 -4.1494
  585MOL0     H77178   7.737   8.393   1.682  0.0302  0.0111 -1.4797
  585MOL0     H77179   7.620   8.319   1.561 -0.8367  0.9312  0.3356
  585MOL0     H77180   7.534   8.415   1.784  1.6082  0.9789  0.1893
  585MOL0     H77181   7.625   8.279   1.860  2.5544 -0.9007 -1.2796
  585MOL0     H77182   7.411   8.356   1.970  1.0146  0.4234 -2.9743
  585MOL0     H77183   7.183   8.375   2.064  2.4554 -1.5311  1.2975
  585MOL0     H77184   6.904   8.533   2.235 -3.5481  4.1741  2.8729
  585MOL0     H77185   6.693   8.546   2.394 -3.2497  0.3755 -0.0459
  585MOL0     H77186   6.430   8.214   2.436  1.0293 -0.9761 -2.9670
  585MOL0     H77187   6.350   8.301   2.295  0.7231  3.8514 -0.1225
  585MOL0     H77188   6.300   8.391   2.582  2.1760  2.6327 -1.2629
  585MOL0     H77189   6.207   8.257   2.518 -0.5845 -0.1635  1.9177
  585MOL0     H77190   6.154   8.426   2.314  1.0978  2.6816 -2.6457
  585MOL0     H77191   6.251   8.542   2.396 -1.6033 -0.2328 -1.5752
  585MOL0     H77192   6.094   8.506   2.598 -0.8765 -3.5960  0.9947
  585MOL0     H77193   6.023   8.586   2.455  1.4631  0.2556  0.2106
  585MOL0     H77194   5.980   8.282   2.517  0.9659  0.8159  0.2650
  585MOL0     H77195   5.895   8.381   2.402 -0.6104 -1.3082  0.3776
  585MOL0     H77196   5.866   8.547   2.600  0.1401 -0.8513  1.5588
  585MOL0     H77197   5.903   8.410   2.698  0.8739  1.9476  0.2907
  585MOL0     H77198   5.688   8.419   2.473 -0.0217 -1.0338 -0.2069
  585MOL0     H77199   5.715   8.282   2.575  3.6459 -1.0115  2.0756
  585MOL0     H77200   5.521   8.401   2.657  0.2856 -1.4451  1.4948
  585MOL0     H77201   5.631   8.543   2.703  1.2523 -0.1599  2.2300
  585MOL0     H77202   6.516   8.225   2.190 -1.4369  3.1232 -2.1119
  585MOL0     H77203   6.724   8.192   2.050  1.8422  0.9498 -1.0936
  585MOL0     H77204   7.044   8.150   1.718  0.1713  1.8544 -1.4612
  585MOL0     H77205   7.267   8.101   1.651 -2.7358  4.4505 -4.2178
  585MOL0     H77206   9.046   7.725   1.875 -3.2216  0.5790 -0.2892
  585MOL0     H77207   9.138   7.635   2.043  0.5214 -0.2203 -0.0592
  585MOL0     H77208   9.577   7.902   2.407 -1.0918  0.6101  1.3907
  585MOL0     H77209   9.689   7.801   2.613 -0.6192 -1.1452  0.4304
  585MOL0     H77210   9.707   7.583   2.890 -0.7138 -0.7544 -1.0436
  585MOL0     H77211   9.682   7.748   2.809 -1.6698  0.1095 -0.3366
  585MOL0     H77212   9.895   7.548   2.732  1.3406  0.6398 -2.6413
  585MOL0     H77213   9.872   7.718   2.680 -1.4616  1.2654  1.1908
  585MOL0     H77214   9.913   7.795   2.926 -0.7339 -1.6408  1.4319
  585MOL0     H77215  10.055   7.725   2.846 -0.8655 -0.0463 -0.8144
  585MOL0     H77216   9.992   7.644   3.088 -1.5237 -1.4477  1.3630
  585MOL0     H77217   9.856   7.570   3.017 -0.5194  0.4529  1.4543
  585MOL0     H77218  10.201   7.312   2.952  0.1614 -0.2201  1.9613
  585MOL0     H77219   9.462   7.461   2.595  3.1442 -0.6637 -1.3628
  585MOL0     H77220   9.310   7.557   2.416  0.3480  0.4341 -0.0072
  586MOL0     O77221   0.639   9.634   4.932  0.3114  0.2486  0.6053
  586MOL0     C77222   0.677   9.702   4.838  0.1933  0.1429  0.2697
  586MOL0     O77223   0.790   9.677   4.755  0.0030  0.6194 -0.6845
  586MOL0     C77224   0.864   9.564   4.788 -0.3838 -0.1569 -0.6960
  586MOL0     C77225   0.999   9.575   4.824 -1.0040 -0.2872 -0.2606
  586MOL0     C77226   1.083   9.463   4.851  1.1515 -0.3460  0.9487
  586MOL0     C77227   1.034   9.340   4.827 -0.6022 -1.1968 -0.1263
  586MOL0     O77228   1.115   9.233   4.816 -1.0276  1.0553  0.2028
  586MOL0     C77229   1.191   9.194   4.932  0.3020  0.6782  0.0222
  586MOL0     C77230   1.084   9.148   5.033 -0.0279  0.0390  1.0071
  586MOL0     C77231   1.152   9.064   5.148 -0.2245  0.6515  1.8409
  586MOL0     C77232   1.265   9.152   5.219  0.2085 -0.1697 -0.0298
  586MOL0     C77233   1.294   9.085   5.354 -0.3097 -0.1907 -0.4523
  586MOL0     C77234   1.386   8.963   5.346  0.4292 -0.5680  0.5415
  586MOL0     C77235   1.407   8.900   5.485  1.6232 -0.7445  0.7448
  586MOL0     C77236   1.503   8.787   5.474 -0.8656  0.4259  0.3343
  586MOL0     N77237   1.641   8.824   5.485  0.1654 -0.3082  0.2907
  586MOL0     C77238   1.716   8.850   5.599  0.4363 -0.3908  0.9307
  586MOL0     C77239   1.849   8.883   5.557  0.7892  0.5123  0.3525
  586MOL0     C77240   1.969   8.904   5.645  0.1110  0.3910 -0.3913
  586MOL0     C77241   2.099   8.831   5.600  0.4592 -0.0819  0.6159
  586MOL0     C77242   2.064   8.682   5.583 -0.5347  0.2782  0.7559
  586MOL0     C77243   2.101   8.600   5.706  0.3223 -0.4901 -0.4960
  586MOL0     O77244   2.063   8.465   5.694 -0.6265  0.4374 -0.5126
  586MOL0     C77245   1.941   8.419   5.740  0.1108 -0.5711  0.6901
  586MOL0     C77246   1.923   8.285   5.764 -0.1629 -0.2137  0.3874
  586MOL0     C77247   1.800   8.237   5.811  0.4133 -0.6526  0.8949
  586MOL0     C77248   1.683   8.321   5.789 -0.4806 -0.0823 -0.5232
  586MOL0     C77249   1.543   8.272   5.803  0.3508  0.4585 -0.0508
  586MOL0     O77250   1.442   8.349   5.740  0.4839  0.7038  0.2965
  586MOL0     C77251   1.317   8.311   5.714  0.3047 -0.5347 -0.1134
  586MOL0     C77252   1.286   8.216   5.612  0.8022 -0.0925  0.6436
  586MOL0     C77253   1.150   8.173   5.607 -0.1162 -0.2481 -0.2972
  586MOL0     C77254   1.044   8.233   5.681  0.1964  0.0041  0.3382
  586MOL0     O77255   0.913   8.197   5.645  0.8640 -0.6555 -0.3031
  586MOL0     C77256   0.871   8.147   5.518 -0.6036  0.0281  0.9509
  586MOL0     C77257   0.718   8.164   5.497  0.1587  0.2009 -0.0294
  586MOL0     C77258   0.655   8.301   5.539 -0.2433 -0.0522 -0.1094
  586MOL0     C77259   0.511   8.317   5.489  0.5132 -0.1608 -0.1288
  586MOL0     C77260   0.423   8.212   5.533  0.8840  0.4010  0.0850
  586MOL0     C77261   0.281   8.248   5.518  0.2474 -0.5081 -0.0005
  586MOL0     C77262   0.189   8.144   5.590  0.7054 -0.4179  0.2988
  586MOL0     C77263   0.067   8.198   5.665 -0.6044  0.0586 -0.3884
  586MOL0    Cl77264  -0.068   8.078   5.709  0.0240  0.2876  0.0915
  586MOL0     C77265   1.079   8.333   5.773  0.0366 -0.4015 -0.0547
  586MOL0     C77266   1.212   8.363   5.794 -0.1320  0.2007 -0.3419
  586MOL0     O77267   1.527   8.167   5.866  0.2780  0.2584 -0.0784
  586MOL0     C77268   1.707   8.459   5.767 -0.1606  0.1290  0.0293
  586MOL0     C77269   1.833   8.511   5.750  0.1321 -0.0402  0.9937
  586MOL0     N77270   1.839   8.898   5.416  0.3186  1.6894 -0.8631
  586MOL0     N77271   1.718   8.864   5.381 -0.4756 -1.3783  0.5694
  586MOL0     C77272   0.909   9.326   4.764  0.2722  0.0245 -0.2579
  586MOL0     C77273   0.816   9.434   4.759 -0.3620 -0.4994 -0.3391
  586MOL0     C77274   0.605   9.821   4.819  0.4670 -1.1373  0.7520
  586MOL0     C77275   0.567   9.901   4.928 -0.2524  0.1980 -0.0972
  586MOL0     C77276   0.488  10.011   4.922 -0.1721  0.6498  0.0361
  586MOL0     C77277   0.437  10.034   4.802  0.5970 -0.1583 -0.6266
  586MOL0     O77278   0.353  10.145   4.778  0.0027 -0.0315  0.1455
  586MOL0     C77279   0.215  10.097   4.735 -0.1994 -0.1608 -0.3461
  586MOL0     C77280   0.162  10.193   4.628  0.3159 -0.4743 -0.1526
  586MOL0     C77281   0.056  10.129   4.536  0.0621  0.9468 -0.6933
  586MOL0     C77282  -0.009  10.232   4.451 -0.0029 -0.2936 -0.2373
  586MOL0     C77283  -0.131  10.296   4.509 -0.1380  0.1391  0.5322
  586MOL0     C77284  -0.233  10.347   4.542  0.6485  0.5591 -0.4124
  586MOL0     C77285   0.486   9.972   4.683 -0.7570  0.4951  0.8102
  586MOL0     C77286   0.571   9.862   4.688  0.2261 -0.2574 -1.4921
  586MOL0     H77287   1.042   9.674   4.833 -1.7236 -0.0773  1.0693
  586MOL0     H77288   1.183   9.492   4.883  1.4451 -0.8682  0.5060
  586MOL0     H77289   1.256   9.279   4.954 -0.0301  1.4783 -1.8559
  586MOL0     H77290   1.259   9.116   4.896  0.5739  0.4999  0.9003
  586MOL0     H77291   1.015   9.076   4.987  1.4711  1.0580 -3.3043
  586MOL0     H77292   1.018   9.233   5.055  1.1848  1.3179 -0.0759
  586MOL0     H77293   1.206   8.985   5.095  2.9017  4.3635 -1.0869
  586MOL0     H77294   1.065   9.036   5.208 -2.1802 -2.4432 -1.9408
  586MOL0     H77295   1.350   9.158   5.150  0.3416  2.9445  0.2562
  586MOL0     H77296   1.231   9.256   5.224  0.6608  0.1949 -2.7474
  586MOL0     H77297   1.196   9.063   5.399 -0.9069 -0.2821 -1.7425
  586MOL0     H77298   1.357   9.159   5.403  4.2326 -2.4587 -2.3009
  586MOL0     H77299   1.476   8.998   5.296  0.5475 -2.8703 -0.9862
  586MOL0     H77300   1.335   8.888   5.285  0.8796 -0.7002  0.3236
  586MOL0     H77301   1.426   8.971   5.566 -0.3277  1.9713 -0.9823
  586MOL0     H77302   1.306   8.870   5.515  0.6098  1.3386 -0.3930
  586MOL0     H77303   1.489   8.743   5.375 -1.7366  2.7121 -0.6145
  586MOL0     H77304   1.488   8.715   5.555  0.2818  1.5960  1.6435
  586MOL0     H77305   1.692   8.823   5.702 -2.1812 -1.8216  0.0445
  586MOL0     H77306   1.952   8.877   5.750  1.2145  4.4693  1.0643
  586MOL0     H77307   1.985   9.009   5.672 -2.4423  0.6095  0.5902
  586MOL0     H77308   2.176   8.855   5.674  1.2768  3.5279 -1.1652
  586MOL0     H77309   2.123   8.876   5.503 -2.1412 -1.8411 -0.9610
  586MOL0     H77310   1.961   8.661   5.551 -0.0908 -0.7876 -0.0080
  586MOL0     H77311   2.129   8.651   5.501  1.3330 -1.3945  2.7785
  586MOL0     H77312   2.047   8.643   5.791  1.4065  1.4673 -0.7352
  586MOL0     H77313   2.209   8.593   5.723  0.2171  0.1059  0.5051
  586MOL0     H77314   2.008   8.217   5.761  2.0893  2.4497  0.6130
  586MOL0     H77315   1.797   8.134   5.844 -1.6783 -0.4997  1.3336
  586MOL0     H77316   1.369   8.181   5.551  1.4233  0.4564  1.1582
  586MOL0     H77317   1.128   8.098   5.533 -0.7920 -1.3713  1.0092
  586MOL0     H77318   0.892   8.041   5.501 -0.1139  0.0719  1.2576
  586MOL0     H77319   0.920   8.214   5.448 -0.7951  0.8286  1.5692
  586MOL0     H77320   0.669   8.086   5.557 -0.6948  1.1293  0.5151
  586MOL0     H77321   0.696   8.143   5.392  1.6015 -2.8456  0.1750
  586MOL0     H77322   0.714   8.378   5.488  0.3894 -0.4022  0.0773
  586MOL0     H77323   0.654   8.315   5.647 -0.6891 -2.9150  0.3407
  586MOL0     H77324   0.475   8.410   5.535  1.4438 -0.4365  1.2247
  586MOL0     H77325   0.499   8.326   5.381 -2.1201  1.2422  0.1946
  586MOL0     H77326   0.443   8.190   5.638 -2.7445 -2.5783  0.3745
  586MOL0     H77327   0.437   8.121   5.474 -0.8913 -1.3038  2.1167
  586MOL0     H77328   0.256   8.252   5.412  0.5948 -1.6536 -0.1395
  586MOL0     H77329   0.266   8.347   5.563  1.2581  0.7922 -2.3254
  586MOL0     H77330   0.155   8.078   5.510  0.6574  2.1531 -1.9616
  586MOL0     H77331   0.250   8.092   5.665 -0.1210  0.1763  1.4098
  586MOL0     H77332   0.020   8.276   5.605 -0.9502 -0.2598 -0.5350
  586MOL0     H77333   0.098   8.248   5.758 -3.5612  0.5193  0.4676
  586MOL0     H77334   1.002   8.387   5.827  2.1059  2.8996 -0.1051
  586MOL0     H77335   1.255   8.426   5.871  0.6599 -1.3232  0.5199
  586MOL0     H77336   1.621   8.525   5.763 -1.2854 -1.0318  2.7740
  586MOL0     H77337   1.842   8.616   5.722  2.5352 -0.5588 -0.4631
  586MOL0     H77338   0.893   9.222   4.739 -0.1153 -0.7363  2.7174
  586MOL0     H77339   0.714   9.416   4.728 -0.7520  0.0182  0.6172
  586MOL0     H77340   0.585   9.859   5.026  1.1563 -1.3323 -0.9615
  586MOL0     H77341   0.480  10.068   5.014 -0.3425 -2.1102  1.8181
  586MOL0     H77342   0.141  10.083   4.815  1.5301  0.6125  1.4680
  586MOL0     H77343   0.220  10.001   4.684 -1.1175 -0.0679 -0.6467
  586MOL0     H77344   0.116  10.282   4.671  0.7846 -0.0905 -0.4360
  586MOL0     H77345   0.248  10.229   4.571  0.2069  0.3024  0.1550
  586MOL0     H77346  -0.012  10.064   4.592 -0.9008  2.7818  0.3478
  586MOL0     H77347   0.106  10.062   4.465 -1.9277 -2.8349  1.1075
  586MOL0     H77348   0.065  10.312   4.440  1.3216 -1.2130  1.4714
  586MOL0     H77349  -0.043  10.197   4.354 -0.1947  1.9080 -1.0158
  586MOL0     H77350  -0.310  10.405   4.589  0.3034  0.0583 -0.3464
  586MOL0     H77351   0.465  10.003   4.581  1.0074  1.9613  0.8295
  586MOL0     H77352   0.623   9.796   4.619  3.2916 -2.1847  2.2803
  587MOL0     O77353   3.460   7.843   0.442 -0.0064 -0.6151  0.1689
  587MOL0     C77354   3.541   7.877   0.524  0.6879 -0.3879 -0.4863
  587MOL0     O77355   3.517   7.961   0.633  0.4092  1.4144 -0.4032
  587MOL0     C77356   3.394   8.013   0.651  0.9248  0.7712 -0.4639
  587MOL0     C77357   3.388   8.139   0.692  0.0031  0.3755 -0.0527
  587MOL0     C77358   3.268   8.203   0.727 -0.4452  0.1292 -0.4059
  587MOL0     C77359   3.153   8.131   0.731 -0.6615  0.0984  0.2523
  587MOL0     O77360   3.035   8.175   0.776 -0.4065 -0.4031  0.0384
  587MOL0     C77361   3.020   8.306   0.840  0.7614 -0.0259  0.7379
  587MOL0     C77362   2.879   8.325   0.886  0.2093  0.2400  0.2303
  587MOL0     C77363   2.777   8.314   0.774 -0.1376 -0.1737 -0.3661
  587MOL0     C77364   2.640   8.332   0.821  0.0377 -0.0956 -0.4437
  587MOL0     C77365   2.538   8.329   0.700  0.2768 -0.7094 -0.2443
  587MOL0     C77366   2.406   8.274   0.733  1.2423 -0.5730  0.3888
  587MOL0     C77367   2.324   8.238   0.609 -0.1968 -0.2939  0.0024
  587MOL0     C77368   2.189   8.179   0.654 -0.2220 -0.4867  0.9855
  587MOL0     N77369   2.103   8.117   0.547 -0.3929  0.2821  0.4840
  587MOL0     C77370   2.138   7.990   0.485  0.2742  0.0331 -0.2402
  587MOL0     C77371   2.021   7.973   0.421 -0.4164 -0.0740 -0.5661
  587MOL0     C77372   2.011   7.849   0.336 -0.0262 -0.4489  0.6128
  587MOL0     C77373   1.871   7.791   0.303  0.4722 -0.7841 -0.4143
  587MOL0     C77374   1.797   7.867   0.190 -0.8234 -0.3516  0.4666
  587MOL0     C77375   1.658   7.819   0.180 -0.5382 -0.1018  0.4984
  587MOL0     O77376   1.660   7.680   0.139  0.7282 -0.4889  0.5819
  587MOL0     C77377   1.544   7.634   0.073 -0.5265 -0.0012  0.3155
  587MOL0     C77378   1.509   7.697  -0.048  0.5450  0.6529 -0.3517
  587MOL0     C77379   1.388   7.660  -0.108 -0.4261 -0.3873  0.2504
  587MOL0     C77380   1.315   7.549  -0.064 -0.3374 -1.2538 -0.2194
  587MOL0     C77381   1.203   7.505  -0.152 -0.8382 -0.3809 -0.0279
  587MOL0     O77382   1.173   7.587  -0.259 -0.6420  0.7649  0.1024
  587MOL0     C77383   1.045   7.571  -0.301  0.2388 -0.2870  0.8733
  587MOL0     C77384   0.936   7.561  -0.216 -0.0278 -0.6587  0.5935
  587MOL0     C77385   0.804   7.569  -0.260  1.2696  0.3935  0.4755
  587MOL0     C77386   0.762   7.577  -0.399  0.0392 -0.1574  0.5061
  587MOL0     O77387   0.631   7.573  -0.442  0.2505 -0.2082  0.0553
  587MOL0     C77388   0.515   7.569  -0.351 -0.5682  0.5281  0.5885
  587MOL0     C77389   0.391   7.577  -0.431 -0.1983  0.2096 -0.0695
  587MOL0     C77390   0.272   7.537  -0.340  0.2763  1.2731 -0.2383
  587MOL0     C77391   0.141   7.525  -0.420  0.2536 -0.4164 -0.4468
  587MOL0     C77392   0.015   7.513  -0.331 -0.2292 -0.2158 -0.4528
  587MOL0     C77393  -0.110   7.460  -0.418 -0.0686  0.8522  0.2463
  587MOL0     C77394  -0.148   7.559  -0.531  0.2457  0.0081  0.3613
  587MOL0     C77395  -0.129   7.495  -0.678  0.4426  0.8058 -0.1787
  587MOL0    Cl77396  -0.197   7.332  -0.672  0.5713 -0.2548 -0.1116
  587MOL0     C77397   0.874   7.590  -0.485 -0.0555 -0.8151  0.0110
  587MOL0     C77398   1.010   7.589  -0.446  0.6262 -1.2496  0.5937
  587MOL0     O77399   1.151   7.398  -0.124  0.2012 -0.5347  0.3442
  587MOL0     C77400   1.354   7.477   0.058 -0.1564 -0.3811  0.1422
  587MOL0     C77401   1.474   7.519   0.124 -1.0239  0.3737 -0.3488
  587MOL0     N77402   1.930   8.071   0.446  0.0779  0.0392  0.0719
  587MOL0     N77403   1.981   8.171   0.508  0.3460  0.8108 -0.9231
  587MOL0     C77404   3.150   7.999   0.686 -0.2590  1.0050 -0.3296
  587MOL0     C77405   3.273   7.940   0.654  0.5767  0.0274  0.7084
  587MOL0     C77406   3.676   7.820   0.531 -0.0534 -0.0693  1.1905
  587MOL0     C77407   3.733   7.771   0.411  0.7890 -0.1800  0.0080
  587MOL0     C77408   3.859   7.705   0.416  0.3879  0.8346  0.3315
  587MOL0     C77409   3.926   7.685   0.539  0.1027  0.6738 -0.0215
  587MOL0     O77410   4.037   7.612   0.552  0.1180 -0.2534  0.6954
  587MOL0     C77411   4.100   7.549   0.447  0.3428 -0.3319 -0.0793
  587MOL0     C77412   4.198   7.649   0.382  0.2495  0.1863 -0.4639
  587MOL0     C77413   4.326   7.686   0.463 -1.0056 -0.5412 -0.1539
  587MOL0     C77414   4.449   7.678   0.370 -0.6123  0.6348 -0.2311
  587MOL0     C77415   4.570   7.732   0.428 -0.4190  0.4274 -0.2986
  587MOL0     C77416   4.672   7.771   0.480 -0.4880  0.5900  1.2578
  587MOL0     C77417   3.878   7.748   0.650 -0.3908 -0.2401  0.1325
  587MOL0     C77418   3.757   7.811   0.650  0.8196  0.8451 -0.0837
  587MOL0     H77419   3.481   8.195   0.696 -0.3937  1.0805 -0.3473
  587MOL0     H77420   3.263   8.310   0.745  0.9095  0.5199 -2.0713
  587MOL0     H77421   3.045   8.390   0.775 -1.4969  0.2843  0.1692
  587MOL0     H77422   3.075   8.316   0.933  0.6178 -2.0775  1.0919
  587MOL0     H77423   2.862   8.422   0.934 -0.1045 -0.8563  2.4446
  587MOL0     H77424   2.863   8.248   0.962 -2.6236 -2.0443 -2.4483
  587MOL0     H77425   2.772   8.211   0.738 -0.7164 -1.7795  3.7705
  587MOL0     H77426   2.797   8.385   0.693 -5.6719  4.1256  1.3918
  587MOL0     H77427   2.618   8.242   0.880 -0.6550 -0.3164 -1.0214
  587MOL0     H77428   2.626   8.418   0.887 -0.6565 -1.1430  0.8131
  587MOL0     H77429   2.584   8.262   0.628  0.8277 -1.5416  0.8505
  587MOL0     H77430   2.518   8.427   0.655  0.6560  0.2192  1.5023
  587MOL0     H77431   2.351   8.356   0.778 -2.3766 -3.8102  2.4621
  587MOL0     H77432   2.405   8.186   0.798 -3.1841 -1.7296 -0.8842
  587MOL0     H77433   2.312   8.317   0.534 -0.5160 -0.2544  0.0920
  587MOL0     H77434   2.380   8.156   0.563  0.8016  1.8791 -2.9801
  587MOL0     H77435   2.138   8.269   0.689  1.0473 -0.0901  1.8778
  587MOL0     H77436   2.215   8.104   0.730  0.9923 -0.4564  0.6129
  587MOL0     H77437   2.231   7.938   0.504  0.3514  0.4415  0.5595
  587MOL0     H77438   2.068   7.772   0.391  0.6822 -0.0143  0.5057
  587MOL0     H77439   2.068   7.881   0.248 -2.2321  1.0486 -0.3448
  587MOL0     H77440   1.814   7.806   0.395  2.0666 -0.2788  0.5140
  587MOL0     H77441   1.884   7.686   0.275 -0.4673 -1.1267  0.3755
  587MOL0     H77442   1.796   7.967   0.235  2.0637 -0.1649  0.3210
  587MOL0     H77443   1.844   7.854   0.092 -1.1161 -0.5560  0.3524
  587MOL0     H77444   1.600   7.882   0.111 -0.0236  1.0468  1.0851
  587MOL0     H77445   1.607   7.829   0.276  2.3175 -0.8214  2.2078
  587MOL0     H77446   1.583   7.762  -0.094  1.3311  1.7121  2.1929
  587MOL0     H77447   1.361   7.712  -0.199  1.3480 -2.3258 -1.4795
  587MOL0     H77448   0.947   7.560  -0.108 -0.7158  0.0286  0.6714
  587MOL0     H77449   0.731   7.571  -0.179  1.3679  3.0868  0.5760
  587MOL0     H77450   0.527   7.658  -0.289 -0.4154  2.8568 -2.5141
  587MOL0     H77451   0.506   7.478  -0.291 -5.2568  1.8099  2.2631
  587MOL0     H77452   0.400   7.510  -0.517  0.4131  0.6231 -0.3362
  587MOL0     H77453   0.370   7.677  -0.470 -1.1096 -1.3978 -4.1959
  587MOL0     H77454   0.255   7.621  -0.271 -0.9997 -0.0375  1.1075
  587MOL0     H77455   0.295   7.448  -0.282  5.1464  0.9107 -2.2005
  587MOL0     H77456   0.131   7.605  -0.494 -0.3934  2.1842  2.2252
  587MOL0     H77457   0.151   7.429  -0.471  1.0801  0.2796 -1.6524
  587MOL0     H77458  -0.014   7.614  -0.302 -1.4953 -0.0525 -2.1113
  587MOL0     H77459   0.034   7.453  -0.242 -2.6239 -0.1852  0.1548
  587MOL0     H77460  -0.199   7.450  -0.356 -0.0930  1.1418  0.2619
  587MOL0     H77461  -0.089   7.357  -0.450  1.2441  1.1499  0.0683
  587MOL0     H77462  -0.250   7.597  -0.515 -0.4695 -0.9981 -1.5414
  587MOL0     H77463  -0.079   7.644  -0.524 -0.0745  0.3468 -0.4753
  587MOL0     H77464  -0.025   7.484  -0.711  0.6714 -0.4505  0.9259
  587MOL0     H77465  -0.183   7.561  -0.747 -0.3780  0.9003  0.5400
  587MOL0     H77466   0.867   7.601  -0.592  1.4856 -4.0040 -0.5250
  587MOL0     H77467   1.080   7.593  -0.529 -0.5628 -0.6393 -0.4048
  587MOL0     H77468   1.293   7.391   0.084  0.3730 -0.3451  1.5925
  587MOL0     H77469   1.504   7.453   0.204  0.1632 -3.7066 -3.7945
  587MOL0     H77470   3.055   7.948   0.699 -0.3974  1.5201  0.7801
  587MOL0     H77471   3.267   7.833   0.637 -3.2944 -0.1194  2.0654
  587MOL0     H77472   3.689   7.792   0.314 -0.0347 -2.2210 -0.1053
  587MOL0     H77473   3.898   7.662   0.324 -0.8984 -0.5781  0.4117
  587MOL0     H77474   4.035   7.496   0.377  0.3501 -0.8902  0.3299
  587MOL0     H77475   4.161   7.467   0.486  2.2366 -0.6335 -3.3996
  587MOL0     H77476   4.237   7.604   0.290  4.2506 -1.5599  1.8121
  587MOL0     H77477   4.148   7.744   0.361  0.2679  0.3430  0.1657
  587MOL0     H77478   4.333   7.626   0.554 -2.1101 -0.7516 -0.2004
  587MOL0     H77479   4.331   7.785   0.511  1.2555 -1.6381  2.0697
  587MOL0     H77480   4.474   7.572   0.360  0.1979  0.6210  1.5974
  587MOL0     H77481   4.444   7.729   0.273  2.3983  1.9096  0.1632
  587MOL0     H77482   4.772   7.787   0.516  0.4781 -0.8382 -0.6002
  587MOL0     H77483   3.922   7.739   0.748 -0.6812 -0.1987  0.2693
  587MOL0     H77484   3.703   7.839   0.740 -1.6538  0.4202 -1.3467
  588MOL0     O77485   1.537   4.830   3.712 -0.2856 -0.3789  0.2939
  588MOL0     C77486   1.511   4.933   3.773  0.0900 -0.5348  0.3120
  588MOL0     O77487   1.386   4.974   3.807  0.1280  0.7026  0.7502
  588MOL0     C77488   1.282   4.896   3.766 -0.1903 -0.4778 -0.6360
  588MOL0     C77489   1.228   4.912   3.641 -0.6110  0.2651 -0.1361
  588MOL0     C77490   1.106   4.854   3.620 -0.3125  0.5574  0.6558
  588MOL0     C77491   1.044   4.764   3.701  0.9983 -0.2780  0.4184
  588MOL0     O77492   0.934   4.689   3.643  0.0462 -0.2191 -0.8592
  588MOL0     C77493   0.882   4.584   3.728  0.3452 -0.2534  0.3872
  588MOL0     C77494   0.774   4.628   3.826  0.4647  0.0430 -0.5181
  588MOL0     C77495   0.630   4.627   3.759  0.3420  0.6506 -0.6174
  588MOL0     C77496   0.513   4.650   3.850  0.0274 -0.1190 -0.0727
  588MOL0     C77497   0.380   4.654   3.774 -0.0319 -0.1287 -0.2488
  588MOL0     C77498   0.259   4.663   3.855  1.1188 -0.7277 -0.9654
  588MOL0     C77499   0.223   4.536   3.926 -0.4704  0.3173  0.8336
  588MOL0     C77500   0.100   4.541   4.005  0.4553  0.1771  0.2216
  588MOL0     N77501  -0.025   4.511   3.934  0.4537 -0.3682  0.1252
  588MOL0     C77502  -0.142   4.589   3.930 -0.3296  0.7136 -0.9206
  588MOL0     C77503  -0.227   4.507   3.860  0.1847 -0.0625 -0.6879
  588MOL0     C77504  -0.364   4.552   3.835  0.3157 -0.3320 -0.3265
  588MOL0     C77505  -0.441   4.493   3.955  0.4945  0.1754 -0.1373
  588MOL0     C77506  -0.590   4.509   3.945  0.1241 -0.4533 -0.7822
  588MOL0     C77507  -0.671   4.432   4.054  0.0850  0.9740 -0.2093
  588MOL0     O77508  -0.794   4.496   4.065  0.3268  0.6502  0.1073
  588MOL0     C77509  -0.902   4.428   4.112  0.1993 -0.2457  0.2257
  588MOL0     C77510  -0.916   4.288   4.143  0.8767  0.0011  0.1210
  588MOL0     C77511  -1.031   4.230   4.193 -0.7646 -0.0951  0.4482
  588MOL0     C77512  -1.146   4.303   4.201 -0.2521 -0.2440 -0.3989
  588MOL0     C77513  -1.272   4.242   4.245 -0.1040 -0.3790 -1.0360
  588MOL0     O77514  -1.377   4.328   4.293 -0.5641 -0.3099  0.1071
  588MOL0     C77515  -1.509   4.285   4.312 -0.8180  0.3457 -0.5214
  588MOL0     C77516  -1.573   4.157   4.292 -0.2631 -0.6717  0.9306
  588MOL0     C77517  -1.710   4.138   4.303 -0.4038  0.2385  0.7145
  588MOL0     C77518  -1.789   4.245   4.352 -0.1491 -0.3451 -0.0672
  588MOL0     O77519  -1.929   4.240   4.363 -0.8190  0.7279 -0.6702
  588MOL0     C77520  -2.012   4.354   4.345 -0.2732 -0.1658 -0.6072
  588MOL0     C77521  -2.163   4.322   4.351 -0.1310  0.3955  1.1675
  588MOL0     C77522  -2.239   4.438   4.272  0.0524  0.3998 -0.3660
  588MOL0     C77523  -2.396   4.447   4.280  0.0031  0.1659  0.6877
  588MOL0     C77524  -2.456   4.308   4.289 -0.3572  0.7524  0.6229
  588MOL0     C77525  -2.611   4.315   4.272 -0.4246  0.5656  0.3776
  588MOL0     C77526  -2.662   4.354   4.134  0.3112  0.5116  0.4452
  588MOL0     C77527  -2.813   4.319   4.119  0.4987 -0.7604 -0.5343
  588MOL0    Cl77528  -2.900   4.404   4.254 -0.4758  0.3008 -0.1039
  588MOL0     C77529  -1.727   4.372   4.372 -0.1305  0.1478 -0.5737
  588MOL0     C77530  -1.588   4.386   4.352  0.0041  0.5136 -0.6659
  588MOL0     O77531  -1.281   4.124   4.228  0.4398 -0.1673  0.5450
  588MOL0     C77532  -1.139   4.441   4.167  1.1124  0.2226  0.6680
  588MOL0     C77533  -1.020   4.500   4.126 -0.0996  0.8399 -1.2108
  588MOL0     N77534  -0.164   4.396   3.829 -0.2666 -0.5361  0.7237
  588MOL0     N77535  -0.041   4.410   3.853  0.4321 -0.2241  0.1331
  588MOL0     C77536   1.096   4.757   3.831 -0.2917 -0.2878 -0.5404
  588MOL0     C77537   1.213   4.822   3.866 -0.0882 -0.3025 -0.7013
  588MOL0     C77538   1.626   5.019   3.804  0.7703 -0.1657  0.5171
  588MOL0     C77539   1.760   4.976   3.784  0.5601  0.3865 -0.2689
  588MOL0     C77540   1.873   5.051   3.827  0.4430  0.7131 -0.1700
  588MOL0     C77541   1.864   5.173   3.891  0.6423 -0.3219 -0.6836
  588MOL0     O77542   1.975   5.233   3.942 -0.7035  0.3440 -0.0685
  588MOL0     C77543   1.968   5.365   3.993  0.2396 -0.1415  0.3677
  588MOL0     C77544   1.961   5.353   4.139  0.4761  0.1894 -0.6375
  588MOL0     C77545   1.963   5.481   4.230  0.9115 -0.7261 -0.6410
  588MOL0     C77546   1.935   5.440   4.380  0.0320  0.0588 -0.4430
  588MOL0     C77547   2.033   5.345   4.430 -0.3430  0.4224 -0.3393
  588MOL0     C77548   2.101   5.258   4.478  0.0265 -0.4567 -0.5628
  588MOL0     C77549   1.729   5.226   3.907 -0.0072 -0.1310 -0.5068
  588MOL0     C77550   1.617   5.154   3.857 -0.2047 -1.1182  0.9179
  588MOL0     H77551   1.274   4.965   3.558  2.5457 -0.3176  1.1042
  588MOL0     H77552   1.053   4.867   3.526 -0.8471  0.9477  1.0139
  588MOL0     H77553   0.969   4.550   3.784  0.9633  1.7019  0.7070
  588MOL0     H77554   0.850   4.506   3.658  1.0676 -2.5499  2.5063
  588MOL0     H77555   0.795   4.725   3.872  2.3576 -1.1670  1.4248
  588MOL0     H77556   0.787   4.557   3.909 -0.4302  2.2032  1.5897
  588MOL0     H77557   0.612   4.531   3.709 -0.2187  0.5075 -0.1478
  588MOL0     H77558   0.643   4.709   3.689  2.7677  2.0685  1.3154
  588MOL0     H77559   0.501   4.563   3.915 -4.0082 -0.7442 -1.4258
  588MOL0     H77560   0.534   4.744   3.903 -0.4081 -1.0258  1.7680
  588MOL0     H77561   0.364   4.561   3.719 -1.0810 -2.7841  4.0667
  588MOL0     H77562   0.384   4.743   3.710  1.0343 -0.9419 -1.3580
  588MOL0     H77563   0.171   4.696   3.799 -1.8492 -1.5618  2.7343
  588MOL0     H77564   0.272   4.740   3.931  1.4290  0.5268 -2.2679
  588MOL0     H77565   0.231   4.458   3.849  2.1313  0.3484  0.9802
  588MOL0     H77566   0.306   4.508   3.991  0.4378 -0.6072 -0.6584
  588MOL0     H77567   0.091   4.633   4.063  0.4384  0.2611  0.0867
  588MOL0     H77568   0.123   4.456   4.070  4.0238  0.3801 -0.5767
  588MOL0     H77569  -0.161   4.676   3.992  2.2409  1.5918 -1.2358
  588MOL0     H77570  -0.411   4.518   3.742 -2.1792  0.1072  0.7132
  588MOL0     H77571  -0.371   4.661   3.829 -2.2031 -0.4686 -0.8224
  588MOL0     H77572  -0.420   4.546   4.048 -0.9426 -0.4344  0.5644
  588MOL0     H77573  -0.407   4.389   3.961 -0.7357 -0.3640 -1.8390
  588MOL0     H77574  -0.608   4.617   3.941  0.8126  0.1123  4.1724
  588MOL0     H77575  -0.627   4.455   3.857 -1.8345 -2.0580  0.9098
  588MOL0     H77576  -0.623   4.431   4.152 -2.5285  0.5097  1.1591
  588MOL0     H77577  -0.684   4.328   4.022 -0.4359  0.4480  1.6101
  588MOL0     H77578  -0.839   4.213   4.130  1.1799 -0.0491  1.8988
  588MOL0     H77579  -1.045   4.125   4.219  1.5024 -0.9893 -1.5192
  588MOL0     H77580  -1.516   4.071   4.259  1.4923  1.2412 -1.4316
  588MOL0     H77581  -1.752   4.041   4.279 -3.5452  1.2668  1.6799
  588MOL0     H77582  -1.991   4.409   4.253 -2.1198  1.1169 -0.3194
  588MOL0     H77583  -1.991   4.412   4.436  0.8473  1.7714 -2.0247
  588MOL0     H77584  -2.203   4.300   4.450 -2.4866  0.0273  0.2093
  588MOL0     H77585  -2.177   4.227   4.299 -1.7561  1.9664 -1.5099
  588MOL0     H77586  -2.214   4.427   4.166 -2.3897 -0.5476 -0.9119
  588MOL0     H77587  -2.194   4.527   4.315 -0.2578 -0.7707  2.6369
  588MOL0     H77588  -2.432   4.503   4.367 -0.2264 -0.1279  0.7829
  588MOL0     H77589  -2.428   4.507   4.194 -0.0967  0.4825  0.9426
  588MOL0     H77590  -2.444   4.251   4.382  0.3675 -1.2200 -0.6079
  588MOL0     H77591  -2.404   4.242   4.218 -3.6552 -1.0012 -0.3698
  588MOL0     H77592  -2.649   4.379   4.353 -1.3165  2.1430 -1.2197
  588MOL0     H77593  -2.651   4.214   4.282  1.0504 -0.3247 -2.0219
  588MOL0     H77594  -2.649   4.459   4.108  4.5049 -0.2626 -1.5293
  588MOL0     H77595  -2.608   4.298   4.057 -0.4592  0.6856 -0.2370
  588MOL0     H77596  -2.849   4.216   4.112 -0.9810 -0.2190 -1.3726
  588MOL0     H77597  -2.844   4.353   4.019 -0.0072 -0.6992 -0.3581
  588MOL0     H77598  -1.777   4.457   4.417 -2.6300 -0.3319 -2.2258
  588MOL0     H77599  -1.532   4.473   4.381  2.2630 -0.7077 -1.1269
  588MOL0     H77600  -1.227   4.501   4.181  2.4499  2.3954  0.1835
  588MOL0     H77601  -1.006   4.605   4.103  2.2033 -0.0012 -4.2675
  588MOL0     H77602   1.046   4.710   3.916  0.8602 -0.3198  0.1295
  588MOL0     H77603   1.234   4.813   3.972 -1.7851  1.0523 -0.2062
  588MOL0     H77604   1.784   4.877   3.745  1.0423 -0.0862  1.1683
  588MOL0     H77605   1.973   5.014   3.805  0.0406  0.2744 -1.3320
  588MOL0     H77606   1.891   5.423   3.941  1.8221  1.4368 -0.2866
  588MOL0     H77607   2.062   5.416   3.973  0.4209  0.0744  1.7347
  588MOL0     H77608   1.872   5.295   4.167  0.2069  2.0750  3.1613
  588MOL0     H77609   2.051   5.298   4.165 -0.0861 -0.8063 -0.7590
  588MOL0     H77610   1.894   5.560   4.198 -1.7511 -2.5138  0.3639
  588MOL0     H77611   2.065   5.522   4.235  0.6286  0.1480 -1.5755
  588MOL0     H77612   1.938   5.530   4.443  0.3239  0.9711 -1.7172
  588MOL0     H77613   1.833   5.402   4.381  0.8752 -2.3559  0.1827
  588MOL0     H77614   2.146   5.183   4.539  2.7590  2.3945  1.2223
  588MOL0     H77615   1.717   5.321   3.956 -3.5813  0.3042 -1.9124
  588MOL0     H77616   1.519   5.196   3.878 -0.8388  0.0259 -3.4294
  589MOL0     O77617   6.765   5.332   1.981  0.5895 -0.1346 -0.2095
  589MOL0     C77618   6.821   5.395   1.894  0.5050  0.6005  0.1803
  589MOL0     O77619   6.804   5.525   1.866 -0.1501 -0.2877 -0.5023
  589MOL0     C77620   6.717   5.607   1.940  0.1733 -0.3033  0.6470
  589MOL0     C77621   6.702   5.598   2.080 -0.1450 -0.1256  0.2913
  589MOL0     C77622   6.612   5.675   2.147 -0.3513  0.0415  0.5112
  589MOL0     C77623   6.535   5.776   2.083 -0.2387 -0.0761 -0.2537
  589MOL0     O77624   6.441   5.857   2.141  0.3498  0.5805 -0.6019
  589MOL0     C77625   6.388   5.825   2.274  0.0988  0.1564  0.9099
  589MOL0     C77626   6.301   5.942   2.321  0.3370  0.6527 -0.3705
  589MOL0     C77627   6.154   5.909   2.294 -0.2885 -0.3907  0.5961
  589MOL0     C77628   6.046   5.969   2.395 -0.4225 -0.1546  0.2446
  589MOL0     C77629   5.952   5.853   2.440  0.0883 -0.6062 -0.2218
  589MOL0     C77630   5.826   5.913   2.506  0.4861  0.8141 -0.4908
  589MOL0     C77631   5.765   5.790   2.572 -0.5927  0.1830  0.5368
  589MOL0     C77632   5.638   5.827   2.638  0.0248  0.1259 -0.7833
  589MOL0     N77633   5.588   5.714   2.716  0.2147 -0.3291  0.1405
  589MOL0     C77634   5.528   5.613   2.657 -0.4003 -0.3951 -0.2397
  589MOL0     C77635   5.472   5.547   2.759  0.1621 -0.4684  0.0965
  589MOL0     C77636   5.383   5.434   2.737 -0.1194 -0.3945 -0.5639
  589MOL0     C77637   5.335   5.375   2.873 -0.5007 -0.2721 -0.1339
  589MOL0     C77638   5.276   5.233   2.846 -0.6646  0.0405 -0.2703
  589MOL0     C77639   5.146   5.225   2.767 -0.3311 -0.3810 -1.1443
  589MOL0     O77640   5.114   5.086   2.753  0.3207 -0.4593  0.3304
  589MOL0     C77641   4.983   5.077   2.715 -0.0049  0.5509  0.2211
  589MOL0     C77642   4.896   5.167   2.669  0.4817 -0.4678 -1.0677
  589MOL0     C77643   4.761   5.138   2.644 -0.3537  0.5808  0.1395
  589MOL0     C77644   4.710   5.004   2.673 -0.0440  0.1019  0.8749
  589MOL0     C77645   4.565   4.980   2.655 -0.4844  0.6744 -0.0275
  589MOL0     O77646   4.533   4.840   2.677  0.1110 -0.9365  0.0525
  589MOL0     C77647   4.398   4.812   2.669  0.4348  1.3593  0.1824
  589MOL0     C77648   4.343   4.731   2.570 -0.1049  0.6967  0.2018
  589MOL0     C77649   4.204   4.703   2.558 -0.0381 -0.3119 -0.3235
  589MOL0     C77650   4.118   4.754   2.650  0.1229 -0.5100 -0.3355
  589MOL0     O77651   3.981   4.725   2.641  0.2807  0.5359  0.3060
  589MOL0     C77652   3.883   4.786   2.731 -1.4452 -1.1062 -0.2602
  589MOL0     C77653   3.742   4.764   2.686  0.2512 -0.8631  0.1431
  589MOL0     C77654   3.639   4.795   2.802  0.4936  0.6551 -1.4945
  589MOL0     C77655   3.501   4.728   2.763 -0.2660  0.3172  0.7661
  589MOL0     C77656   3.423   4.796   2.640  0.5979 -0.1251 -0.4778
  589MOL0     C77657   3.275   4.764   2.626 -0.1317 -0.2853  0.4844
  589MOL0     C77658   3.239   4.622   2.612  0.9327  0.8076 -0.1114
  589MOL0     C77659   3.094   4.607   2.556  0.0374 -0.4198 -1.0496
  589MOL0    Cl77660   3.070   4.447   2.495 -0.3751 -0.3706  0.1598
  589MOL0     C77661   4.172   4.832   2.762 -0.7533 -0.2450 -0.6489
  589MOL0     C77662   4.307   4.869   2.758 -0.1868  0.0460 -0.8752
  589MOL0     O77663   4.490   5.067   2.611 -0.7107  0.4846 -0.0060
  589MOL0     C77664   4.800   4.912   2.718 -0.6284  0.5820  0.4561
  589MOL0     C77665   4.936   4.947   2.732  0.0863 -0.3934 -0.5667
  589MOL0     N77666   5.490   5.612   2.879 -0.8136 -0.4352  0.3260
  589MOL0     N77667   5.567   5.711   2.849 -0.7571 -0.8118 -0.3505
  589MOL0     C77668   6.574   5.808   1.947  1.0888  0.3014 -0.4026
  589MOL0     C77669   6.666   5.723   1.881 -0.6529  0.0508 -0.5665
  589MOL0     C77670   6.930   5.327   1.819 -0.1077  0.7302  0.6751
  589MOL0     C77671   7.037   5.396   1.772  0.1922 -0.4265  0.2148
  589MOL0     C77672   7.135   5.331   1.696 -0.9326  0.2206 -0.2262
  589MOL0     C77673   7.132   5.193   1.664 -0.4451  0.3382  0.3082
  589MOL0     O77674   7.229   5.151   1.578  0.1944  0.4771 -0.8339
  589MOL0     C77675   7.231   5.016   1.532  0.8464 -0.0173 -0.4769
  589MOL0     C77676   7.267   4.910   1.642 -0.0309  0.1568  0.2741
  589MOL0     C77677   7.417   4.918   1.677 -0.7614  0.7475  1.0639
  589MOL0     C77678   7.429   4.993   1.816 -0.3315 -0.2979 -0.4237
  589MOL0     C77679   7.381   4.904   1.922 -0.0354  0.1879  0.6691
  589MOL0     C77680   7.348   4.811   1.992 -0.5199 -0.1670 -0.1025
  589MOL0     C77681   7.024   5.119   1.717  0.4039  0.0177 -0.2690
  589MOL0     C77682   6.924   5.185   1.791 -0.5698 -0.4691  0.0581
  589MOL0     H77683   6.758   5.521   2.132  0.3742 -2.7707 -3.7675
  589MOL0     H77684   6.582   5.672   2.251  0.4155  1.6194  0.8112
  589MOL0     H77685   6.468   5.799   2.344  0.0293 -2.0599  0.2558
  589MOL0     H77686   6.323   5.737   2.276  0.3174 -0.0012  1.4197
  589MOL0     H77687   6.319   6.035   2.265  0.7844  0.0583 -1.2334
  589MOL0     H77688   6.324   5.959   2.427  0.4715 -0.5022 -0.2031
  589MOL0     H77689   6.141   5.801   2.280  0.0745 -0.3107 -0.4852
  589MOL0     H77690   6.128   5.940   2.192  0.5175 -4.2982 -1.0051
  589MOL0     H77691   6.101   6.010   2.480  1.5867 -0.3094 -0.9168
  589MOL0     H77692   5.990   6.051   2.349 -1.6638 -1.8783 -1.5098
  589MOL0     H77693   6.014   5.786   2.500  0.1382 -1.1467 -0.8687
  589MOL0     H77694   5.923   5.805   2.346  1.1551 -1.5401 -0.0865
  589MOL0     H77695   5.754   5.951   2.432  0.4512  2.8440  0.5075
  589MOL0     H77696   5.860   5.990   2.576  2.6248  1.0171 -1.6583
  589MOL0     H77697   5.744   5.705   2.506 -1.1742  0.5850  0.1992
  589MOL0     H77698   5.839   5.744   2.639 -2.4504 -2.0991  1.1527
  589MOL0     H77699   5.566   5.863   2.565  1.0088  0.4988 -1.5949
  589MOL0     H77700   5.643   5.914   2.704 -3.0902 -0.0201 -0.2271
  589MOL0     H77701   5.534   5.588   2.551  2.2318  3.7320 -1.2818
  589MOL0     H77702   5.430   5.354   2.680  0.8321 -0.6031  0.4989
  589MOL0     H77703   5.299   5.466   2.674  1.2075  2.3316 -1.1295
  589MOL0     H77704   5.264   5.445   2.918 -0.7461 -1.6658  1.7366
  589MOL0     H77705   5.421   5.369   2.939 -2.2863  1.2184  2.5030
  589MOL0     H77706   5.354   5.177   2.793  0.6568  0.5816  1.0293
  589MOL0     H77707   5.242   5.176   2.933 -4.3360 -2.2953 -2.9778
  589MOL0     H77708   5.155   5.274   2.670 -1.4043  1.0876 -0.5319
  589MOL0     H77709   5.071   5.274   2.829 -0.0877 -0.7552 -0.5363
  589MOL0     H77710   4.923   5.268   2.642  0.4966 -0.5710 -1.4637
  589MOL0     H77711   4.698   5.223   2.622 -0.7166  0.4532  0.6536
  589MOL0     H77712   4.415   4.689   2.500  0.9112 -1.4700  2.3868
  589MOL0     H77713   4.161   4.657   2.470  1.3965 -2.3228 -0.0362
  589MOL0     H77714   3.900   4.894   2.736 -0.9491 -1.2139  0.5133
  589MOL0     H77715   3.891   4.745   2.832  1.8525 -1.0371 -0.3721
  589MOL0     H77716   3.729   4.662   2.651  0.1426 -0.0100 -2.5521
  589MOL0     H77717   3.716   4.828   2.601 -0.3384 -2.2044 -0.7165
  589MOL0     H77718   3.632   4.901   2.827 -0.0700  0.6634 -1.6702
  589MOL0     H77719   3.676   4.742   2.890 -0.7272 -1.1676 -2.0059
  589MOL0     H77720   3.517   4.622   2.741 -1.7708 -0.4585  2.9765
  589MOL0     H77721   3.437   4.719   2.851  0.3369  1.5391  1.3472
  589MOL0     H77722   3.464   4.778   2.540 -0.2080 -1.3419 -0.6058
  589MOL0     H77723   3.426   4.905   2.648 -0.4957 -0.1365  0.3219
  589MOL0     H77724   3.242   4.835   2.549  0.1092 -0.2239  0.4349
  589MOL0     H77725   3.221   4.798   2.715 -2.3115 -1.0029 -0.4999
  589MOL0     H77726   3.306   4.564   2.549  1.2359 -2.2772  2.7339
  589MOL0     H77727   3.249   4.583   2.714  2.1059  0.9093 -0.1764
  589MOL0     H77728   3.076   4.680   2.476  0.9194  3.5201  2.0618
  589MOL0     H77729   3.016   4.623   2.631  1.0471  0.0594 -0.0803
  589MOL0     H77730   4.105   4.870   2.840 -0.1665 -0.1430 -0.1882
  589MOL0     H77731   4.352   4.935   2.832  0.1965 -0.3293 -0.7673
  589MOL0     H77732   4.758   4.813   2.728 -0.9380  0.5958 -0.6856
  589MOL0     H77733   5.006   4.868   2.758 -1.2539 -2.2283 -2.2429
  589MOL0     H77734   6.530   5.895   1.900 -0.7580  1.6179  3.3686
  589MOL0     H77735   6.690   5.746   1.778 -1.1686 -3.0072 -1.4769
  589MOL0     H77736   7.041   5.503   1.782 -0.4895 -0.3941  0.1900
  589MOL0     H77737   7.219   5.392   1.665  0.4925 -1.5930 -0.1094
  589MOL0     H77738   7.285   4.997   1.439  1.9229  1.0309 -0.0907
  589MOL0     H77739   7.134   4.971   1.507  1.7491 -0.3675 -3.7895
  589MOL0     H77740   7.205   4.924   1.731  1.6618  2.1005  1.2136
  589MOL0     H77741   7.247   4.812   1.598  2.2709 -0.7769  1.1269
  589MOL0     H77742   7.480   4.965   1.600  2.0788  1.7911  3.7886
  589MOL0     H77743   7.454   4.818   1.700 -0.8329 -0.1834 -2.2905
  589MOL0     H77744   7.535   5.021   1.826 -0.1895 -0.1866 -1.9570
  589MOL0     H77745   7.359   5.076   1.828 -1.8422 -1.7209  1.2947
  589MOL0     H77746   7.325   4.721   2.046 -3.6395  2.3528  3.2906
  589MOL0     H77747   7.000   5.018   1.686 -0.9236 -0.0154  0.7459
  589MOL0     H77748   6.832   5.129   1.802 -1.3505  0.5892 -0.8057
  590MOL0     O77749   8.868   3.639   4.753 -0.6415 -0.2477 -0.0444
  590MOL0     C77750   8.899   3.702   4.855  0.0937  0.1355  0.1633
  590MOL0     O77751   8.802   3.769   4.928 -0.4375 -0.4831  0.0942
  590MOL0     C77752   8.667   3.772   4.896 -0.1918 -1.5502 -0.1147
  590MOL0     C77753   8.582   3.667   4.856  0.5119 -0.1949  0.9319
  590MOL0     C77754   8.445   3.675   4.846  1.1742 -0.1084 -0.2656
  590MOL0     C77755   8.381   3.794   4.885 -0.0863 -0.5088 -0.1562
  590MOL0     O77756   8.248   3.793   4.887 -0.1006  0.2831 -0.4911
  590MOL0     C77757   8.175   3.910   4.884 -0.0686 -0.2485  0.3268
  590MOL0     C77758   8.055   3.872   4.806 -0.3364  0.6865 -0.1261
  590MOL0     C77759   7.956   3.985   4.800 -0.8689  1.0316 -0.3821
  590MOL0     C77760   7.840   3.945   4.699  0.9498  0.8374 -0.0227
  590MOL0     C77761   7.762   3.823   4.731  0.0371  0.5698 -0.8301
  590MOL0     C77762   7.684   3.767   4.611  0.8356  0.3816 -0.0009
  590MOL0     C77763   7.572   3.864   4.577  0.5455  0.4761 -0.4004
  590MOL0     C77764   7.462   3.775   4.524  0.3700 -0.2448  0.1201
  590MOL0     N77765   7.338   3.862   4.507 -0.0742  0.1769 -0.1014
  590MOL0     C77766   7.226   3.854   4.585 -0.3011 -0.4312  0.1670
  590MOL0     C77767   7.159   3.969   4.550  0.1502 -0.4076 -0.1820
  590MOL0     C77768   7.025   4.010   4.580 -1.0981  0.2588  0.5130
  590MOL0     C77769   6.992   3.974   4.723  1.0557 -0.0010 -0.2938
  590MOL0     C77770   6.945   4.097   4.813 -0.4829  0.7034  1.1851
  590MOL0     C77771   6.799   4.150   4.788 -0.0859  0.1707 -0.6108
  590MOL0     O77772   6.700   4.042   4.776 -0.6845  0.7158 -0.1026
  590MOL0     C77773   6.574   4.089   4.752  0.2277 -0.2479 -0.0485
  590MOL0     C77774   6.486   4.113   4.862  0.0697  0.1455  0.1631
  590MOL0     C77775   6.359   4.148   4.837  0.0220  0.3821 -0.9963
  590MOL0     C77776   6.320   4.187   4.707  0.5765 -0.3940 -0.4936
  590MOL0     C77777   6.190   4.236   4.678  0.4191 -0.4685 -0.4675
  590MOL0     O77778   6.177   4.312   4.568  0.3946 -0.4658  0.2222
  590MOL0     C77779   6.061   4.372   4.534  0.4904 -0.5671 -0.4056
  590MOL0     C77780   5.980   4.462   4.605  0.5576 -0.3140 -1.0742
  590MOL0     C77781   5.867   4.523   4.550 -0.4492  0.0030 -0.4402
  590MOL0     C77782   5.820   4.499   4.423  0.2082 -0.4044 -0.5578
  590MOL0     O77783   5.696   4.541   4.374 -0.6154 -0.1681 -0.1894
  590MOL0     C77784   5.604   4.573   4.471  0.6506 -0.6156 -0.1154
  590MOL0     C77785   5.480   4.613   4.384  0.3869 -0.6576 -0.5768
  590MOL0     C77786   5.372   4.667   4.472 -0.1997 -0.3799  0.5985
  590MOL0     C77787   5.241   4.663   4.396 -0.2339 -0.7167  0.2222
  590MOL0     C77788   5.183   4.520   4.417  0.1491 -0.5110 -0.1811
  590MOL0     C77789   5.044   4.504   4.350 -0.7633 -0.4616 -0.0336
  590MOL0     C77790   4.982   4.364   4.365  0.9847  0.1107  0.9572
  590MOL0     C77791   4.841   4.367   4.305  0.5969  0.0537  0.1488
  590MOL0    Cl77792   4.737   4.253   4.394 -0.1417  0.1604  0.5972
  590MOL0     C77793   5.889   4.392   4.351 -0.1503  0.6544 -0.0630
  590MOL0     C77794   6.010   4.337   4.404  0.3709  0.1073 -0.0211
  590MOL0     O77795   6.104   4.200   4.754  0.8269  0.6654 -0.3530
  590MOL0     C77796   6.412   4.166   4.597 -0.0311  0.7511 -0.3537
  590MOL0     C77797   6.543   4.117   4.620  0.2654  0.3631 -0.0997
  590MOL0     N77798   7.233   4.030   4.450  0.0130  0.7562 -0.3122
  590MOL0     N77799   7.339   3.968   4.427 -0.3063 -0.0628  0.2086
  590MOL0     C77800   8.465   3.894   4.928 -0.8835  0.2656  0.4241
  590MOL0     C77801   8.604   3.884   4.936 -0.1406 -0.3844 -0.5988
  590MOL0     C77802   9.041   3.704   4.899 -0.5639  0.0708 -0.5824
  590MOL0     C77803   9.076   3.751   5.030 -0.8666 -0.0348  0.8405
  590MOL0     C77804   9.212   3.748   5.068  0.2623 -0.0609 -0.2120
  590MOL0     C77805   9.309   3.686   4.983  0.5968 -0.0374  0.2492
  590MOL0     O77806   9.437   3.696   5.028 -0.1277 -0.5017 -0.3621
  590MOL0     C77807   9.547   3.657   4.939  0.5970  0.6728 -0.4261
  590MOL0     C77808   9.677   3.663   4.999  0.4359  0.5967  0.2819
  590MOL0     C77809   9.707   3.774   5.091  0.5853 -0.5917 -0.5698
  590MOL0     C77810   9.855   3.785   5.131  0.4845 -0.4467  0.0055
  590MOL0     C77811   9.943   3.779   5.024 -0.2173 -0.3890  0.6829
  590MOL0     C77812  10.025   3.767   4.932 -0.0836 -0.1679 -0.1209
  590MOL0     C77813   9.270   3.633   4.865  0.1358 -0.5420 -0.1380
  590MOL0     C77814   9.135   3.643   4.823  0.9134 -0.4027 -0.7202
  590MOL0     H77815   8.626   3.571   4.829  1.1986  0.8828 -2.0707
  590MOL0     H77816   8.386   3.588   4.816 -0.7486  0.3274  1.9567
  590MOL0     H77817   8.223   3.988   4.824 -1.5607  0.5235  0.0765
  590MOL0     H77818   8.154   3.936   4.988  0.3980  0.4363  0.2553
  590MOL0     H77819   8.008   3.795   4.867 -0.1691  0.7409  0.0699
  590MOL0     H77820   8.076   3.819   4.712  3.8849 -1.7517  1.9193
  590MOL0     H77821   8.014   4.071   4.767  1.8540 -0.9748 -1.1773
  590MOL0     H77822   7.919   4.012   4.900  2.4335  2.6735  0.5391
  590MOL0     H77823   7.767   4.027   4.698  0.0058  0.0699  1.9275
  590MOL0     H77824   7.886   3.931   4.600  0.0441  1.7147 -0.5837
  590MOL0     H77825   7.700   3.847   4.817  0.5488  0.3685 -0.4028
  590MOL0     H77826   7.824   3.739   4.763  0.6493  1.3872  0.1830
  590MOL0     H77827   7.647   3.669   4.644  1.1029  0.6279  1.0677
  590MOL0     H77828   7.753   3.739   4.531  0.6261 -2.1544  0.6205
  590MOL0     H77829   7.526   3.917   4.660 -0.3698 -1.3659  0.3166
  590MOL0     H77830   7.614   3.935   4.504  0.7920 -1.4674 -2.2537
  590MOL0     H77831   7.452   3.690   4.592  3.3902 -0.5405  0.3374
  590MOL0     H77832   7.487   3.732   4.426 -0.5897 -2.5010  0.8063
  590MOL0     H77833   7.200   3.781   4.660 -1.6080 -0.8068 -0.6194
  590MOL0     H77834   6.959   3.957   4.512 -0.9861  2.1944 -1.2228
  590MOL0     H77835   7.019   4.117   4.555 -0.7582 -0.0900 -1.2204
  590MOL0     H77836   7.064   3.913   4.777 -0.4291  1.0369  3.0835
  590MOL0     H77837   6.901   3.913   4.724  0.8875  0.2307  1.3342
  590MOL0     H77838   6.943   4.053   4.913 -0.2011 -0.9359  0.5034
  590MOL0     H77839   7.024   4.172   4.825 -0.7830  1.2943 -0.3576
  590MOL0     H77840   6.791   4.218   4.703  0.8626 -0.0223 -0.8674
  590MOL0     H77841   6.775   4.200   4.882  2.0996 -2.6345  1.6151
  590MOL0     H77842   6.516   4.101   4.965 -1.6982  0.8730  0.8096
  590MOL0     H77843   6.287   4.149   4.917 -0.2543 -0.8487 -1.2026
  590MOL0     H77844   6.009   4.482   4.708 -0.7095 -2.1044 -0.2963
  590MOL0     H77845   5.828   4.599   4.616 -1.3358 -1.6537  1.0523
  590MOL0     H77846   5.631   4.655   4.538 -3.4884  2.0189 -1.2429
  590MOL0     H77847   5.586   4.481   4.526 -0.4327 -0.4036 -0.0962
  590MOL0     H77848   5.442   4.520   4.340 -0.8833  0.6388 -2.3642
  590MOL0     H77849   5.503   4.691   4.311  0.9041  1.2765  1.5567
  590MOL0     H77850   5.386   4.770   4.504 -1.6513  0.6287 -1.7556
  590MOL0     H77851   5.351   4.610   4.562 -3.5023  1.2328  0.9878
  590MOL0     H77852   5.165   4.734   4.430 -2.2166 -2.1351 -0.9735
  590MOL0     H77853   5.246   4.685   4.289  1.9562 -0.0667  0.4098
  590MOL0     H77854   5.181   4.488   4.521  1.3440  0.8348  0.2781
  590MOL0     H77855   5.250   4.447   4.370 -1.5069 -1.3809 -1.2868
  590MOL0     H77856   5.049   4.535   4.246 -1.5320 -1.2259 -0.3139
  590MOL0     H77857   4.973   4.573   4.397 -1.5889 -0.9996 -0.4723
  590MOL0     H77858   5.044   4.303   4.300  2.3482  2.9581 -0.6274
  590MOL0     H77859   4.985   4.342   4.472 -1.2048 -2.0087  0.6661
  590MOL0     H77860   4.842   4.327   4.203  1.4225 -1.0757  0.5807
  590MOL0     H77861   4.783   4.455   4.331  1.3685  1.1144 -1.5551
  590MOL0     H77862   5.845   4.356   4.259 -1.3096 -1.5519  1.2815
  590MOL0     H77863   6.066   4.254   4.361  2.6556  0.4421  2.1060
  590MOL0     H77864   6.377   4.174   4.494 -1.2164 -1.4749 -0.1763
  590MOL0     H77865   6.613   4.102   4.539  1.6050 -0.6112  1.1751
  590MOL0     H77866   8.413   3.988   4.944 -3.1020 -1.0437  1.3390
  590MOL0     H77867   8.675   3.965   4.955  0.0850 -0.2678 -1.8726
  590MOL0     H77868   9.004   3.806   5.090 -0.8026  3.4078 -1.9191
  590MOL0     H77869   9.223   3.780   5.171 -1.2742 -1.2707  0.3721
  590MOL0     H77870   9.546   3.739   4.867 -0.9257  0.9381 -0.1341
  590MOL0     H77871   9.532   3.553   4.908 -2.2069  0.2327  1.9491
  590MOL0     H77872   9.691   3.566   5.048 -2.2312 -0.3186 -0.5829
  590MOL0     H77873   9.749   3.665   4.917 -1.4767  0.0043 -1.4927
  590MOL0     H77874   9.652   3.749   5.181  0.2218 -0.1027 -0.6511
  590MOL0     H77875   9.682   3.875   5.055 -0.2826 -0.1138  1.2795
  590MOL0     H77876   9.866   3.883   5.178 -2.3789  1.2229 -2.4475
  590MOL0     H77877   9.874   3.703   5.200 -0.6229 -1.8137 -1.2404
  590MOL0     H77878  10.094   3.767   4.851 -0.8271  0.3638 -0.7750
  590MOL0     H77879   9.345   3.576   4.810 -1.1978 -1.0805 -1.4794
  590MOL0     H77880   9.112   3.591   4.731 -2.0489  0.1585 -0.4016
  591MOL0     O77881  10.713   0.448   1.171 -0.0308  0.0280 -0.4476
  591MOL0     C77882  10.677   0.542   1.102  0.3756 -0.8179 -0.0405
  591MOL0     O77883  10.688   0.672   1.146 -0.4497  0.6294 -0.2318
  591MOL0     C77884  10.763   0.703   1.257 -0.2410  0.7064 -0.8716
  591MOL0     C77885  10.890   0.761   1.241 -0.4779  0.0139 -0.4047
  591MOL0     C77886  10.968   0.802   1.353  0.7341  0.1201 -0.1832
  591MOL0     C77887  10.932   0.763   1.488  0.7376 -0.2454 -0.0900
  591MOL0     O77888  11.011   0.794   1.591 -0.0158 -0.6615 -0.5309
  591MOL0     C77889  10.982   0.762   1.726 -0.2701 -1.0270  0.8783
  591MOL0     C77890  11.044   0.863   1.818  0.4974 -0.7573 -0.2252
  591MOL0     C77891  11.048   0.822   1.967  0.2806 -0.3337 -1.3816
  591MOL0     C77892  11.158   0.721   1.985  0.0044 -0.0839 -0.1217
  591MOL0     C77893  11.175   0.680   2.131 -0.0172  0.0741  0.4376
  591MOL0     C77894  11.301   0.607   2.160 -1.1469  0.9983 -0.4373
  591MOL0     C77895  11.315   0.566   2.308 -0.1100  0.3692 -0.0725
  591MOL0     C77896  11.430   0.477   2.307 -0.4599 -0.4652  0.3496
  591MOL0     N77897  11.447   0.431   2.438  0.4845  0.4635  0.0259
  591MOL0     C77898  11.369   0.338   2.493 -0.4593 -0.4918  0.0845
  591MOL0     C77899  11.432   0.303   2.607 -0.6867 -0.1224  0.3979
  591MOL0     C77900  11.394   0.202   2.713  0.2792 -0.3549 -0.4749
  591MOL0     C77901  11.386   0.253   2.852 -0.2290 -0.1968  0.4121
  591MOL0     C77902  11.483   0.172   2.946  0.0836  0.2218  0.4934
  591MOL0     C77903  11.631   0.201   2.929 -0.2060  0.0417 -0.2578
  591MOL0     O77904  11.716   0.132   3.025  0.1992 -0.1238  0.6078
  591MOL0     C77905  11.842   0.184   3.037 -0.1147 -0.6395  0.9600
  591MOL0     C77906  11.911   0.277   2.946  0.9555  0.5708 -0.2742
  591MOL0     C77907  12.048   0.311   2.966  0.5068  0.0835  0.3156
  591MOL0     C77908  12.124   0.253   3.069 -0.0690 -0.3552 -0.5264
  591MOL0     C77909  12.267   0.267   3.079 -0.7988  0.5341 -0.8248
  591MOL0     O77910  12.339   0.353   2.990 -0.1110 -0.0007  0.0186
  591MOL0     C77911  12.470   0.361   3.018 -0.2011 -0.2963 -0.0002
  591MOL0     C77912  12.514   0.460   3.104 -0.5005  0.2916  0.0689
  591MOL0     C77913  12.652   0.480   3.112  0.1787 -0.4172  1.0796
  591MOL0     C77914  12.746   0.414   3.037  1.0209  0.2505  0.4511
  591MOL0     O77915  12.883   0.447   3.047  0.7422  0.7523 -0.7804
  591MOL0     C77916  12.949   0.428   2.921 -0.2874  0.5413 -0.3435
  591MOL0     C77917  13.024   0.295   2.923  0.4355 -0.2422  0.7951
  591MOL0     C77918  13.177   0.309   2.891  0.2376  0.9203  0.5519
  591MOL0     C77919  13.252   0.370   3.016 -0.8456  0.2635  1.0119
  591MOL0     C77920  13.404   0.401   2.991 -0.5898  0.1070  0.0857
  591MOL0     C77921  13.499   0.284   3.006 -0.2253  0.8705 -0.7727
  591MOL0     C77922  13.654   0.318   3.030 -0.3556 -0.2151 -0.8633
  591MOL0     C77923  13.729   0.188   3.031 -0.2772  1.0690 -0.4231
  591MOL0    Cl77924  13.900   0.198   3.078 -0.0610 -0.1308  0.1877
  591MOL0     C77925  12.694   0.316   2.954  0.0261  0.1406 -1.3011
  591MOL0     C77926  12.567   0.290   2.943 -0.2954 -0.4774 -0.0843
  591MOL0     O77927  12.323   0.190   3.164 -1.0787 -0.4988 -0.6402
  591MOL0     C77928  12.061   0.158   3.155 -0.5902 -0.1526  0.3733
  591MOL0     C77929  11.931   0.123   3.132 -0.0335  0.0387 -0.6892
  591MOL0     N77930  11.546   0.377   2.615 -0.8176  0.2034 -1.1883
  591MOL0     N77931  11.552   0.457   2.512  0.5587 -0.2298 -0.4426
  591MOL0     C77932  10.795   0.712   1.501  0.4093 -0.2532 -0.6416
  591MOL0     C77933  10.715   0.687   1.390  0.7091  0.1194  0.4771
  591MOL0     C77934  10.617   0.524   0.966 -0.6659  0.0291  0.0071
  591MOL0     C77935  10.623   0.399   0.902  0.0565 -0.4387 -0.3400
  591MOL0     C77936  10.592   0.378   0.768 -0.2709  0.7000 -0.6321
  591MOL0     C77937  10.540   0.483   0.687 -0.4868 -1.0206 -0.9046
  591MOL0     O77938  10.502   0.445   0.554 -0.3671 -0.2024 -0.4258
  591MOL0     C77939  10.430   0.535   0.463  0.5839  0.4558  0.6914
  591MOL0     C77940  10.283   0.502   0.447  0.7508 -0.3962  0.0030
  591MOL0     C77941  10.214   0.609   0.358 -0.5207  0.5568  0.1067
  591MOL0     C77942  10.080   0.580   0.313  0.4755 -1.0589 -0.2842
  591MOL0     C77943  10.067   0.472   0.209  0.3106 -0.8106 -0.0278
  591MOL0     C77944  10.053   0.383   0.136 -0.5825  0.3180 -0.7769
  591MOL0     C77945  10.534   0.608   0.750  0.5935 -0.0027 -0.2046
  591MOL0     C77946  10.576   0.631   0.885  0.0279 -0.5658  0.1783
  591MOL0     H77947  10.935   0.777   1.143 -0.4303  3.1397  0.0238
  591MOL0     H77948  11.069   0.841   1.345  1.8347 -1.6557  3.1843
  591MOL0     H77949  11.007   0.658   1.748 -0.6140 -1.4288 -0.4737
  591MOL0     H77950  10.876   0.762   1.752 -0.4373  1.2016  0.3503
  591MOL0     H77951  11.004   0.964   1.810  1.2521 -0.5364 -1.3656
  591MOL0     H77952  11.148   0.868   1.784  0.8343  0.5771  0.9370
  591MOL0     H77953  10.950   0.783   1.997  0.4208  1.7609  2.3155
  591MOL0     H77954  11.064   0.914   2.023  1.4549 -1.0558 -0.5020
  591MOL0     H77955  11.113   0.630   1.943  1.2208 -0.6029 -0.3218
  591MOL0     H77956  11.248   0.750   1.931  1.5728  1.6967  3.1476
  591MOL0     H77957  11.095   0.613   2.162 -0.1297 -1.3764 -2.6888
  591MOL0     H77958  11.160   0.770   2.192 -4.4712  0.0708 -0.2944
  591MOL0     H77959  11.392   0.662   2.132  1.1704 -1.8471  0.9409
  591MOL0     H77960  11.308   0.519   2.095  2.8378  0.7556  0.0523
  591MOL0     H77961  11.339   0.644   2.380 -4.1909 -0.0578  2.0007
  591MOL0     H77962  11.219   0.524   2.339  0.8047 -1.7934  0.0728
  591MOL0     H77963  11.523   0.526   2.278  0.3722 -1.2613  1.5784
  591MOL0     H77964  11.427   0.399   2.231  2.7460 -1.6633  1.2736
  591MOL0     H77965  11.284   0.293   2.443 -0.4802 -0.6193  0.2360
  591MOL0     H77966  11.455   0.112   2.722 -0.5813 -0.7056  3.4759
  591MOL0     H77967  11.292   0.175   2.684 -0.8461 -0.7144  3.2840
  591MOL0     H77968  11.282   0.244   2.883 -0.5497 -1.9566 -1.0258
  591MOL0     H77969  11.401   0.361   2.862  1.0773 -0.4531  1.6793
  591MOL0     H77970  11.454   0.196   3.048 -3.5855 -0.2518 -0.2980
  591MOL0     H77971  11.463   0.069   2.915 -2.6571  0.6209  0.7529
  591MOL0     H77972  11.649   0.309   2.933  0.4791 -0.0762 -0.0751
  591MOL0     H77973  11.664   0.176   2.828  1.4249 -1.5627  0.6212
  591MOL0     H77974  11.846   0.317   2.869  1.2861  0.9652 -0.3513
  591MOL0     H77975  12.077   0.375   2.883  3.0065 -0.8379  0.3963
  591MOL0     H77976  12.446   0.519   3.163  0.9944 -0.0556  2.2463
  591MOL0     H77977  12.683   0.559   3.179  0.8027 -0.9561  1.4409
  591MOL0     H77978  13.033   0.499   2.924  2.1305 -2.1711  1.9689
  591MOL0     H77979  12.898   0.440   2.825  0.6977  0.4541 -0.8925
  591MOL0     H77980  12.978   0.229   2.847  1.2374  1.0756 -0.8970
  591MOL0     H77981  13.017   0.252   3.023 -0.1395 -0.4057  0.6889
  591MOL0     H77982  13.196   0.370   2.803 -2.3362 -0.3728 -1.0056
  591MOL0     H77983  13.211   0.207   2.868  1.9607  1.7297 -0.6902
  591MOL0     H77984  13.209   0.467   3.040  1.6308  1.7117 -0.0973
  591MOL0     H77985  13.239   0.308   3.105 -1.7842 -0.4260  0.4300
  591MOL0     H77986  13.428   0.481   3.061 -0.3193  0.5047 -0.4517
  591MOL0     H77987  13.409   0.453   2.895 -3.7566  0.4697 -0.0152
  591MOL0     H77988  13.486   0.223   2.916 -0.6006  1.3569 -1.0483
  591MOL0     H77989  13.461   0.227   3.092 -0.5198  0.6860 -1.0227
  591MOL0     H77990  13.693   0.389   2.957  0.9066  3.5740  3.0802
  591MOL0     H77991  13.660   0.374   3.124 -1.2184 -0.3045 -0.7484
  591MOL0     H77992  13.728   0.163   2.924  1.0959 -0.0696 -0.1984
  591MOL0     H77993  13.679   0.099   3.071  2.1453 -0.0440  0.2695
  591MOL0     H77994  12.757   0.251   2.894  0.4678 -0.2107 -0.4742
  591MOL0     H77995  12.521   0.215   2.879 -0.6118  1.1040 -1.7994
  591MOL0     H77996  12.115   0.099   3.229  0.5128  1.2217  0.7237
  591MOL0     H77997  11.880   0.050   3.193  1.0935  0.3139  0.6140
  591MOL0     H77998  10.771   0.686   1.603  2.0904  1.1812  0.1570
  591MOL0     H77999  10.617   0.640   1.399 -0.0254  1.6052  0.5656
  591MOL0     H78000  10.664   0.307   0.942 -3.6234 -3.3320 -2.5707
  591MOL0     H78001  10.607   0.284   0.716  1.0879  3.0569 -5.0559
  591MOL0     H78002  10.474   0.528   0.363  0.0974 -3.9484  0.5818
  591MOL0     H78003  10.431   0.635   0.506  0.8131  0.9753 -0.5015
  591MOL0     H78004  10.262   0.402   0.408 -0.9521 -0.9228  2.0755
  591MOL0     H78005  10.244   0.517   0.548  0.9210  0.9275 -0.1123
  591MOL0     H78006  10.267   0.629   0.264 -2.2349  0.3998 -0.9312
  591MOL0     H78007  10.206   0.702   0.414 -1.7549  0.8935 -0.5891
  591MOL0     H78008  10.016   0.553   0.398  0.8234 -1.8845 -0.2756
  591MOL0     H78009  10.034   0.670   0.271  0.1247 -0.5326  1.1789
  591MOL0     H78010  10.058   0.309   0.059  4.0434  0.1554 -0.5733
  591MOL0     H78011  10.491   0.686   0.689 -0.0068 -1.8506 -2.2527
  591MOL0     H78012  10.569   0.730   0.927  3.0591 -0.4324  0.5870
  592MOL0     O78013   7.499   4.806   8.399 -0.1728  0.1100  0.0284
  592MOL0     C78014   7.502   4.885   8.491 -0.3174 -1.0057 -0.0173
  592MOL0     O78015   7.399   4.971   8.523 -1.2924 -0.2523 -0.9352
  592MOL0     C78016   7.262   4.953   8.509  0.2680  0.2810 -0.5340
  592MOL0     C78017   7.181   5.058   8.548  1.0583 -0.2883 -0.2071
  592MOL0     C78018   7.045   5.049   8.554 -0.7502 -0.2191  1.0426
  592MOL0     C78019   6.981   4.930   8.523  0.1848 -0.2513  0.4834
  592MOL0     O78020   6.844   4.908   8.516 -0.1189 -0.0320 -0.3725
  592MOL0     C78021   6.750   4.963   8.614 -0.5491 -0.0003  0.8608
  592MOL0     C78022   6.609   4.939   8.573  0.0337 -0.1685  0.6304
  592MOL0     C78023   6.514   5.026   8.649  0.3532 -0.3359  0.8428
  592MOL0     C78024   6.374   4.991   8.604 -0.0595  0.0018 -0.0315
  592MOL0     C78025   6.279   5.112   8.640 -0.0430  0.8222 -0.1096
  592MOL0     C78026   6.263   5.153   8.784 -0.4457 -0.4064  0.5744
  592MOL0     C78027   6.164   5.268   8.811  0.2541  0.1907 -0.2348
  592MOL0     C78028   6.207   5.393   8.724 -0.1609  0.5719 -0.9712
  592MOL0     N78029   6.117   5.505   8.765  0.6713  0.1870  0.4778
  592MOL0     C78030   6.048   5.596   8.684  0.0027 -0.0900 -0.4507
  592MOL0     C78031   5.968   5.668   8.778  0.9122  0.7802 -0.4282
  592MOL0     C78032   5.858   5.768   8.758  0.0472 -0.6809  0.0648
  592MOL0     C78033   5.731   5.694   8.727  1.1792 -0.2543  0.6899
  592MOL0     C78034   5.611   5.790   8.698  0.3157  0.1744  0.0558
  592MOL0     C78035   5.549   5.830   8.842  0.7384  0.2451 -0.2936
  592MOL0     O78036   5.464   5.941   8.815 -0.0345 -0.7181  0.1681
  592MOL0     C78037   5.347   5.946   8.879 -0.1070  0.0464 -0.6211
  592MOL0     C78038   5.254   5.853   8.861 -0.0987 -0.1220  0.7100
  592MOL0     C78039   5.132   5.848   8.930  0.6722  0.0236  0.8223
  592MOL0     C78040   5.096   5.953   9.007 -0.4390  0.2544 -0.3178
  592MOL0     C78041   4.958   5.948   9.068 -0.5889  0.6064 -0.2139
  592MOL0     O78042   4.910   5.825   9.112 -0.2540 -0.4562 -0.4720
  592MOL0     C78043   4.788   5.804   9.164 -0.3369  0.0950  0.1086
  592MOL0     C78044   4.737   5.883   9.270 -0.0109 -0.0051  1.0142
  592MOL0     C78045   4.620   5.845   9.339  0.4852 -0.2144  0.6366
  592MOL0     C78046   4.551   5.720   9.305 -0.3062 -0.9896  0.1395
  592MOL0     O78047   4.444   5.657   9.362  0.4298 -1.0566 -0.4454
  592MOL0     C78048   4.377   5.728   9.475 -0.3628 -0.4018  0.9610
  592MOL0     C78049   4.259   5.648   9.541 -0.1139 -0.1816  0.0888
  592MOL0     C78050   4.308   5.526   9.618  0.7990  0.4625 -0.9074
  592MOL0     C78051   4.201   5.466   9.705  0.6399 -0.0190  0.0320
  592MOL0     C78052   4.238   5.334   9.756 -0.3045 -0.3501  0.9301
  592MOL0     C78053   4.146   5.270   9.864 -0.2025 -0.0855  0.0676
  592MOL0     C78054   4.115   5.364   9.976 -0.6982 -0.1869 -0.1917
  592MOL0     C78055   4.039   5.288  10.082 -0.3211 -0.2959 -0.8111
  592MOL0    Cl78056   3.881   5.259  10.022 -0.3438 -0.2541  0.0176
  592MOL0     C78057   4.609   5.641   9.204 -0.3305 -0.0898  0.6337
  592MOL0     C78058   4.719   5.685   9.125 -0.9768  0.3820 -0.0949
  592MOL0     O78059   4.889   6.055   9.079 -0.0244  0.5752  0.2356
  592MOL0     C78060   5.192   6.059   9.034  0.2271 -0.2906  0.0495
  592MOL0     C78061   5.317   6.047   8.969  0.2044 -0.2026  0.4289
  592MOL0     N78062   5.989   5.607   8.903  0.1708 -0.0477  0.0691
  592MOL0     N78063   6.075   5.514   8.892 -0.5545  0.2552  0.5297
  592MOL0     C78064   7.063   4.825   8.475  1.2436 -0.0936 -0.0172
  592MOL0     C78065   7.205   4.835   8.467 -0.2151 -0.1529 -0.1080
  592MOL0     C78066   7.640   4.917   8.550 -0.3227  0.7458 -0.2341
  592MOL0     C78067   7.745   4.835   8.515  0.7674 -0.2796 -0.1510
  592MOL0     C78068   7.873   4.867   8.555  0.3396  0.6527  0.0240
  592MOL0     C78069   7.898   4.977   8.641  0.1630 -0.3375 -1.0766
  592MOL0     O78070   8.029   4.982   8.686 -0.2835  0.0855  0.5758
  592MOL0     C78071   8.049   5.080   8.792 -0.2798 -0.0585 -1.1512
  592MOL0     C78072   8.184   5.067   8.867 -0.0166 -0.2962  0.0046
  592MOL0     C78073   8.238   5.207   8.921  0.1026 -0.0879 -0.8452
  592MOL0     C78074   8.376   5.252   8.870 -0.2323  0.5771 -0.6162
  592MOL0     C78075   8.372   5.277   8.732  0.0899  0.5016  0.4123
  592MOL0     C78076   8.374   5.289   8.611 -0.2786 -1.4068 -0.1222
  592MOL0     C78077   7.793   5.060   8.679  0.0518 -0.0933 -0.4637
  592MOL0     C78078   7.665   5.028   8.637  0.7672  0.7127  0.1627
  592MOL0     H78079   7.231   5.149   8.580  0.5383  0.1526 -0.6228
  592MOL0     H78080   6.981   5.134   8.574  1.3634  2.5239 -2.5232
  592MOL0     H78081   6.755   5.072   8.616  0.7657 -0.0362  0.3209
  592MOL0     H78082   6.770   4.920   8.713 -0.7027  1.6691  1.6484
  592MOL0     H78083   6.600   4.830   8.578 -0.1381 -0.2180 -0.3551
  592MOL0     H78084   6.594   4.966   8.467 -0.3310 -2.1189  0.1468
  592MOL0     H78085   6.548   5.123   8.612  1.8171 -1.5728 -1.2720
  592MOL0     H78086   6.532   5.008   8.756 -0.1319 -0.6817  0.8698
  592MOL0     H78087   6.371   4.974   8.496  0.1023  0.8218 -0.1663
  592MOL0     H78088   6.343   4.901   8.658  0.4470 -0.4279 -0.4396
  592MOL0     H78089   6.180   5.077   8.609 -0.6742  0.2635  2.2985
  592MOL0     H78090   6.313   5.194   8.576 -1.3911 -0.0291 -2.0202
  592MOL0     H78091   6.354   5.190   8.832  0.5449 -0.6336 -1.0379
  592MOL0     H78092   6.233   5.059   8.831 -2.6885 -0.2766 -0.4673
  592MOL0     H78093   6.065   5.239   8.774  1.0872 -0.5138 -2.0512
  592MOL0     H78094   6.167   5.287   8.918  0.6099  3.0590 -0.6653
  592MOL0     H78095   6.193   5.377   8.617  0.2345 -2.3826 -0.6478
  592MOL0     H78096   6.314   5.414   8.722  0.5249 -2.4867 -0.2896
  592MOL0     H78097   6.058   5.615   8.578  1.4845  0.4127 -0.2381
  592MOL0     H78098   5.890   5.832   8.675  0.1958 -2.4350 -1.2961
  592MOL0     H78099   5.843   5.824   8.850 -2.7316 -0.6327 -0.3353
  592MOL0     H78100   5.702   5.636   8.814 -1.2141 -3.2218 -1.8476
  592MOL0     H78101   5.747   5.629   8.640  4.5036  2.6842 -1.2023
  592MOL0     H78102   5.641   5.876   8.637  0.5161 -1.4147 -2.1841
  592MOL0     H78103   5.532   5.743   8.639  0.7390 -0.4383 -0.0237
  592MOL0     H78104   5.635   5.858   8.904  2.1105 -2.4432 -0.8093
  592MOL0     H78105   5.503   5.751   8.902  0.9045 -1.0204 -1.7656
  592MOL0     H78106   5.282   5.782   8.784  0.7327  2.0979 -1.1473
  592MOL0     H78107   5.070   5.763   8.901  1.3862 -0.4361  0.6233
  592MOL0     H78108   4.794   5.974   9.287  0.7166  0.0301 -1.3116
  592MOL0     H78109   4.596   5.903   9.427  0.4681  0.8790 -0.0775
  592MOL0     H78110   4.326   5.806   9.418  0.5027 -2.9704 -3.8571
  592MOL0     H78111   4.453   5.771   9.541 -0.1376  0.5505  0.0948
  592MOL0     H78112   4.184   5.620   9.467  1.3284  1.2586 -2.0413
  592MOL0     H78113   4.223   5.725   9.610  3.2979  0.7102  1.0862
  592MOL0     H78114   4.387   5.550   9.689 -0.2088  1.6359 -0.1506
  592MOL0     H78115   4.336   5.444   9.551 -1.1503 -1.0876  0.0603
  592MOL0     H78116   4.201   5.536   9.790 -1.7394  0.0903 -0.0109
  592MOL0     H78117   4.104   5.454   9.656  1.4377 -4.1838 -0.9222
  592MOL0     H78118   4.337   5.332   9.804  1.5862 -5.5791 -2.3152
  592MOL0     H78119   4.243   5.269   9.668 -2.8747  0.6915 -0.0753
  592MOL0     H78120   4.208   5.188   9.903 -1.6357 -0.8833  0.7335
  592MOL0     H78121   4.057   5.240   9.808  0.1135 -1.0469  0.0501
  592MOL0     H78122   4.212   5.402  10.008 -0.4129  1.1842 -2.4842
  592MOL0     H78123   4.055   5.447   9.937 -1.6831 -1.5459 -1.7395
  592MOL0     H78124   4.027   5.354  10.168  0.3922 -0.6478 -0.4335
  592MOL0     H78125   4.095   5.201  10.117  0.8963  1.1903  1.1143
  592MOL0     H78126   4.551   5.550   9.191 -3.1349  1.6619  0.1876
  592MOL0     H78127   4.768   5.630   9.045 -0.0726  3.0946 -1.5644
  592MOL0     H78128   5.180   6.132   9.113  3.5382 -0.3743  0.7652
  592MOL0     H78129   5.397   6.118   8.987  1.0370 -1.3867  1.6360
  592MOL0     H78130   7.010   4.737   8.442 -0.0076  1.9946 -4.4212
  592MOL0     H78131   7.267   4.752   8.433  1.8629  1.1233  0.4134
  592MOL0     H78132   7.740   4.755   8.441  0.6007  0.0433 -0.4889
  592MOL0     H78133   7.955   4.796   8.550  2.1150  2.7081 -4.0060
  592MOL0     H78134   7.966   5.075   8.863 -0.6335 -0.9006 -1.6027
  592MOL0     H78135   8.047   5.179   8.746  0.0307 -0.2611 -1.6099
  592MOL0     H78136   8.164   5.000   8.951  0.6040 -1.1023 -0.4718
  592MOL0     H78137   8.252   5.015   8.799 -2.0355 -3.1756 -0.0062
  592MOL0     H78138   8.241   5.194   9.030 -2.8907  1.5152 -0.4432
  592MOL0     H78139   8.160   5.284   8.915  0.0204 -0.0152  0.6560
  592MOL0     H78140   8.412   5.342   8.920  1.9873  0.4146 -1.7755
  592MOL0     H78141   8.451   5.176   8.890  0.2906  0.7777 -1.6960
  592MOL0     H78142   8.381   5.307   8.506  1.9977  2.1585  0.4683
  592MOL0     H78143   7.802   5.138   8.753  0.8636  0.1246 -0.7855
  592MOL0     H78144   7.581   5.094   8.655 -1.6602 -2.2660  0.7402
  593MOL0     O78145   1.416   1.772   0.950  0.4790  0.1612 -0.2935
  593MOL0     C78146   1.450   1.663   0.903  0.0856  0.4642 -0.0425
  593MOL0     O78147   1.385   1.546   0.920  0.0863  0.8141 -0.7609
  593MOL0     C78148   1.263   1.541   0.994 -0.2455  0.5802  0.1711
  593MOL0     C78149   1.165   1.456   0.945  0.2500  0.7710  0.2790
  593MOL0     C78150   1.036   1.441   1.007  0.0648 -0.4348  0.2286
  593MOL0     C78151   1.008   1.513   1.127 -0.0212  0.0200  0.2305
  593MOL0     O78152   0.899   1.479   1.197 -0.6541 -0.1372 -0.5197
  593MOL0     C78153   0.781   1.425   1.132 -0.0919  0.1463 -0.3570
  593MOL0     C78154   0.668   1.405   1.238  0.3329  0.2087  0.4580
  593MOL0     C78155   0.596   1.537   1.280  0.4861  0.2426  0.5750
  593MOL0     C78156   0.676   1.620   1.373 -0.2628  0.1004  0.1262
  593MOL0     C78157   0.601   1.733   1.435 -0.2608  0.5475  0.2240
  593MOL0     C78158   0.530   1.841   1.344  0.0479  1.3488 -0.1124
  593MOL0     C78159   0.621   1.926   1.265 -0.3526  0.4103  0.1766
  593MOL0     C78160   0.693   2.028   1.359  0.6660 -0.3693 -0.2958
  593MOL0     N78161   0.776   2.123   1.287 -0.3279  0.8322 -0.7751
  593MOL0     C78162   0.916   2.104   1.269 -0.4675  0.3869  0.8923
  593MOL0     C78163   0.944   2.212   1.200 -0.1301  0.3168  0.3203
  593MOL0     C78164   1.079   2.264   1.179  0.6205  0.0302  0.4212
  593MOL0     C78165   1.175   2.162   1.104  0.0581  0.1195 -0.3798
  593MOL0     C78166   1.299   2.242   1.059 -0.2865 -0.0056 -0.0305
  593MOL0     C78167   1.407   2.156   1.000  0.5852  0.2596  0.1762
  593MOL0     O78168   1.504   2.249   0.944  0.4561  0.2921 -0.6231
  593MOL0     C78169   1.589   2.187   0.851  1.1212 -0.7856 -0.2775
  593MOL0     C78170   1.730   2.205   0.860  0.2352  0.8369 -0.5900
  593MOL0     C78171   1.817   2.144   0.771  0.0239 -0.8528 -0.5499
  593MOL0     C78172   1.772   2.082   0.656  0.5807 -0.4080  0.1698
  593MOL0     C78173   1.865   2.061   0.547  0.3437 -0.8400  0.1079
  593MOL0     O78174   1.810   2.015   0.434 -0.8177  0.3366 -0.7382
  593MOL0     C78175   1.907   1.988   0.340 -0.6862  0.0637  0.0989
  593MOL0     C78176   1.945   1.858   0.320 -0.2345  0.2146  0.6639
  593MOL0     C78177   2.033   1.825   0.222  0.0733 -0.6446  0.3494
  593MOL0     C78178   2.083   1.925   0.131 -0.4001 -1.1479  0.0015
  593MOL0     O78179   2.181   1.905   0.035  0.0241 -0.0182  0.2410
  593MOL0     C78180   2.234   1.778  -0.000 -0.2218  1.0218  0.4972
  593MOL0     C78181   2.345   1.787  -0.107 -0.1945 -0.4160  0.4612
  593MOL0     C78182   2.412   1.654  -0.151  0.8731  0.0864 -0.9471
  593MOL0     C78183   2.491   1.687  -0.275  0.7844 -0.1797 -0.2451
  593MOL0     C78184   2.579   1.572  -0.313 -0.2200  0.4258 -1.0653
  593MOL0     C78185   2.493   1.458  -0.371  0.2807  0.1667 -0.3728
  593MOL0     C78186   2.555   1.329  -0.401 -0.5765 -0.6690 -0.6484
  593MOL0     C78187   2.640   1.260  -0.289  0.6388 -0.3357  0.2089
  593MOL0    Cl78188   2.656   1.097  -0.352 -0.4121 -0.0516 -0.2820
  593MOL0     C78189   2.032   2.054   0.145 -0.0642  0.1896  0.7403
  593MOL0     C78190   1.941   2.089   0.238 -0.0506  0.4886 -0.9794
  593MOL0     O78191   1.985   2.074   0.566  0.4276 -0.6517 -0.2058
  593MOL0     C78192   1.626   2.073   0.642  0.5473  0.3372 -0.6674
  593MOL0     C78193   1.535   2.119   0.747 -0.8672  0.3032  0.0743
  593MOL0     N78194   0.831   2.279   1.166 -0.4439 -0.0298  0.8919
  593MOL0     N78195   0.727   2.238   1.230  0.6904  0.2785 -0.9370
  593MOL0     C78196   1.106   1.599   1.176  0.7482 -0.6191  0.0173
  593MOL0     C78197   1.227   1.617   1.107 -0.6642 -0.4677 -0.1942
  593MOL0     C78198   1.575   1.662   0.833  0.5314  1.2634 -0.4710
  593MOL0     C78199   1.607   1.547   0.756  0.0912  0.8677  0.3332
  593MOL0     C78200   1.721   1.538   0.679 -0.3077  1.1849 -0.9968
  593MOL0     C78201   1.813   1.642   0.689  0.2599 -0.0398  0.4774
  593MOL0     O78202   1.933   1.640   0.621  0.5098  0.0479 -0.5666
  593MOL0     C78203   1.990   1.512   0.592 -0.2117  0.7234 -0.5541
  593MOL0     C78204   2.139   1.531   0.561  0.7014 -0.5461 -0.0185
  593MOL0     C78205   2.209   1.626   0.657  0.1442 -0.3879  0.6020
  593MOL0     C78206   2.197   1.594   0.809 -0.8627  0.8413  0.0992
  593MOL0     C78207   2.266   1.696   0.883  0.3531 -0.5795  0.4016
  593MOL0     C78208   2.321   1.785   0.949 -0.1165 -0.9471  0.6514
  593MOL0     C78209   1.784   1.760   0.754  0.4957 -0.7630 -0.1633
  593MOL0     C78210   1.665   1.768   0.838 -0.1304  0.8351  0.0878
  593MOL0     H78211   1.180   1.382   0.867 -3.0316  1.2829 -0.9945
  593MOL0     H78212   0.967   1.370   0.961  0.3714  0.9750 -2.6777
  593MOL0     H78213   0.786   1.328   1.081 -2.8102  0.9508 -2.3883
  593MOL0     H78214   0.751   1.499   1.058  0.4164 -3.1699 -4.2183
  593MOL0     H78215   0.711   1.361   1.329  0.2792 -1.2381 -0.1917
  593MOL0     H78216   0.594   1.332   1.206 -2.6425  2.2852  2.1617
  593MOL0     H78217   0.497   1.510   1.319 -0.6932  1.7830 -1.1473
  593MOL0     H78218   0.562   1.593   1.193 -4.4691 -0.6872  1.5886
  593MOL0     H78219   0.726   1.555   1.445  1.4069  1.9621  0.7655
  593MOL0     H78220   0.759   1.660   1.312  1.9205 -3.0085  0.8335
  593MOL0     H78221   0.671   1.781   1.504  0.3393 -1.0447  0.7675
  593MOL0     H78222   0.521   1.693   1.497 -0.3020  0.9938  0.4636
  593MOL0     H78223   0.460   1.912   1.390 -2.6375  0.6314 -2.7510
  593MOL0     H78224   0.465   1.786   1.275 -2.9619  0.3921  3.1684
  593MOL0     H78225   0.693   1.865   1.210 -0.8621 -0.5531  0.5564
  593MOL0     H78226   0.565   1.984   1.191  1.4962  0.0280 -1.6190
  593MOL0     H78227   0.760   1.981   1.431  1.9355 -0.3356 -1.3984
  593MOL0     H78228   0.621   2.081   1.421  0.6450 -1.7729  0.9278
  593MOL0     H78229   0.997   2.039   1.300  1.5171  1.8673 -0.9098
  593MOL0     H78230   1.126   2.290   1.275  1.9616 -3.6262  0.9512
  593MOL0     H78231   1.070   2.360   1.127  0.7147 -0.3206 -0.2582
  593MOL0     H78232   1.121   2.128   1.015 -1.1461 -1.2927  0.8300
  593MOL0     H78233   1.189   2.076   1.171 -2.2018 -2.1815 -2.6315
  593MOL0     H78234   1.294   2.324   0.988 -0.6968  1.1602  1.2985
  593MOL0     H78235   1.341   2.292   1.147  2.7338  3.4652 -3.1188
  593MOL0     H78236   1.364   2.083   0.932 -0.8680 -0.6706  1.9894
  593MOL0     H78237   1.451   2.095   1.080  2.6368  1.9429  0.4167
  593MOL0     H78238   1.768   2.257   0.947  0.0906  0.4227 -0.2793
  593MOL0     H78239   1.924   2.144   0.794 -0.4060 -0.8012  1.6623
  593MOL0     H78240   1.907   1.777   0.381  0.9561 -2.8350 -2.2858
  593MOL0     H78241   2.061   1.722   0.207 -3.0542 -1.5156 -0.3753
  593MOL0     H78242   2.147   1.727  -0.042 -1.7860  2.8355  1.4075
  593MOL0     H78243   2.265   1.715   0.083 -0.4439 -1.3754 -1.1421
  593MOL0     H78244   2.422   1.851  -0.062 -1.5530  0.8403  1.0967
  593MOL0     H78245   2.312   1.843  -0.195 -2.0598 -2.4058 -0.1815
  593MOL0     H78246   2.326   1.588  -0.161 -1.2678  2.0958  2.2685
  593MOL0     H78247   2.466   1.620  -0.062  0.0957  2.0796  0.3446
  593MOL0     H78248   2.426   1.714  -0.359  3.3332  0.6360 -2.0664
  593MOL0     H78249   2.554   1.775  -0.259  1.7100 -1.1199  1.5928
  593MOL0     H78250   2.627   1.551  -0.216  0.1840  4.5163 -0.2133
  593MOL0     H78251   2.649   1.590  -0.395 -0.9651 -0.4911 -1.9329
  593MOL0     H78252   2.457   1.493  -0.469  1.4502 -2.1138 -1.7032
  593MOL0     H78253   2.400   1.437  -0.318 -1.2577 -1.1395 -3.3577
  593MOL0     H78254   2.471   1.265  -0.428 -0.5098 -1.8806  1.7467
  593MOL0     H78255   2.631   1.345  -0.477 -0.3664 -1.3882 -0.5989
  593MOL0     H78256   2.598   1.267  -0.188  3.0546 -1.5390  1.3980
  593MOL0     H78257   2.742   1.299  -0.292  0.3504  0.3710 -0.8682
  593MOL0     H78258   2.064   2.132   0.076  0.5121  1.2984  2.1897
  593MOL0     H78259   1.902   2.189   0.254  1.6649  0.8149  1.9971
  593MOL0     H78260   1.582   2.038   0.549  0.6318 -1.1819 -0.1596
  593MOL0     H78261   1.429   2.109   0.727 -0.9064  0.9353 -0.0618
  593MOL0     H78262   1.087   1.658   1.265  1.8001 -0.1165 -0.0830
  593MOL0     H78263   1.310   1.674   1.148 -1.3982  0.3763  0.1482
  593MOL0     H78264   1.540   1.461   0.763  0.6031  0.5357  1.4204
  593MOL0     H78265   1.739   1.448   0.620 -2.2600  0.7989 -1.0454
  593MOL0     H78266   1.940   1.473   0.502  0.1691  3.0133 -1.8124
  593MOL0     H78267   1.993   1.433   0.668 -1.2274 -0.9240 -2.1310
  593MOL0     H78268   2.188   1.433   0.566  0.3905 -0.7088 -0.1667
  593MOL0     H78269   2.150   1.561   0.457  0.8402  1.2752  0.4935
  593MOL0     H78270   2.169   1.724   0.630 -1.4711 -1.2775 -0.3898
  593MOL0     H78271   2.312   1.636   0.623 -0.5698  0.7301 -1.4059
  593MOL0     H78272   2.095   1.574   0.842 -0.5576  1.2946  1.3606
  593MOL0     H78273   2.249   1.500   0.829 -1.9668  0.5598  1.8572
  593MOL0     H78274   2.366   1.865   1.005 -1.2336  0.6295 -0.6090
  593MOL0     H78275   1.853   1.844   0.746  1.1600 -1.3507 -0.7130
  593MOL0     H78276   1.635   1.854   0.897  2.0645  1.6513  0.0987
  594MOL0     O78277   7.034   6.655   0.475 -0.7123  0.1660  0.4284
  594MOL0     C78278   7.123   6.705   0.545 -0.0814  0.4175 -0.2937
  594MOL0     O78279   7.103   6.760   0.668  0.6641 -0.1066  0.1784
  594MOL0     C78280   6.987   6.755   0.740 -0.2437 -0.2496  0.0297
  594MOL0     C78281   6.886   6.659   0.723 -0.4919  0.0856  0.3259
  594MOL0     C78282   6.784   6.636   0.822 -0.9632 -0.0317 -0.0157
  594MOL0     C78283   6.788   6.724   0.933  0.6699  0.9071  0.4186
  594MOL0     O78284   6.676   6.701   1.019  0.2449 -0.3607 -0.4464
  594MOL0     C78285   6.603   6.826   1.036  0.5283 -0.1406  1.4568
  594MOL0     C78286   6.476   6.803   1.113  0.0331  0.0391 -0.7078
  594MOL0     C78287   6.384   6.722   1.021  0.8741  0.4077 -0.1510
  594MOL0     C78288   6.253   6.683   1.098 -0.4056  0.5421 -0.6436
  594MOL0     C78289   6.197   6.559   1.024 -0.9269  0.0094  0.5682
  594MOL0     C78290   6.075   6.494   1.086  0.4296 -0.3441 -0.4390
  594MOL0     C78291   5.966   6.602   1.104  0.1703  1.1157  0.1921
  594MOL0     C78292   5.846   6.532   1.168  0.8257 -0.2393  0.0464
  594MOL0     N78293   5.718   6.608   1.155 -0.2692 -0.2522 -1.4322
  594MOL0     C78294   5.611   6.569   1.084  0.4009  0.4778  0.5226
  594MOL0     C78295   5.510   6.639   1.138 -0.6591  0.3738  0.6402
  594MOL0     C78296   5.368   6.645   1.096  0.6989 -0.4376  0.6371
  594MOL0     C78297   5.275   6.593   1.210  0.4359 -0.1257 -0.4547
  594MOL0     C78298   5.131   6.653   1.211 -0.1980 -0.8427 -0.2133
  594MOL0     C78299   5.045   6.598   1.094  0.5322 -0.5828  0.2609
  594MOL0     O78300   4.932   6.692   1.063  0.9548  0.7640 -0.4019
  594MOL0     C78301   4.809   6.669   1.115 -0.2618 -0.2071  0.0841
  594MOL0     C78302   4.781   6.570   1.216 -0.1526  0.0556  0.7663
  594MOL0     C78303   4.648   6.549   1.261 -0.9626  0.0214 -0.2008
  594MOL0     C78304   4.544   6.629   1.203 -0.3547  1.0700 -0.3154
  594MOL0     C78305   4.393   6.626   1.237 -0.0310  0.0177  0.1009
  594MOL0     O78306   4.303   6.715   1.178 -0.8869 -0.6139 -0.3304
  594MOL0     C78307   4.163   6.705   1.194  0.7774 -0.2191  0.2957
  594MOL0     C78308   4.094   6.594   1.254 -0.2384  0.2614 -0.1901
  594MOL0     C78309   3.957   6.583   1.274 -0.5032 -0.3892 -0.8342
  594MOL0     C78310   3.878   6.690   1.229 -0.7478  0.0060 -0.2892
  594MOL0     O78311   3.739   6.704   1.245  0.4967  0.2249  0.4552
  594MOL0     C78312   3.677   6.632   1.358  0.9575 -0.4794  0.3347
  594MOL0     C78313   3.528   6.651   1.383  0.1789  0.2971 -0.4981
  594MOL0     C78314   3.452   6.610   1.256  0.1093 -0.7837 -0.1292
  594MOL0     C78315   3.301   6.635   1.291  0.2380 -0.8621  0.0015
  594MOL0     C78316   3.220   6.574   1.179 -0.8042 -0.6497 -0.4608
  594MOL0     C78317   3.225   6.643   1.047  0.0552  0.5226 -0.0397
  594MOL0     C78318   3.193   6.531   0.945 -0.3074  0.3972  0.2384
  594MOL0     C78319   3.045   6.507   0.924 -0.6578  0.4459 -0.8278
  594MOL0    Cl78320   2.961   6.653   0.875  0.0476 -0.2763 -0.0272
  594MOL0     C78321   3.939   6.791   1.151 -0.1180  0.5030 -0.1201
  594MOL0     C78322   4.078   6.801   1.134 -0.3688  1.0561 -0.2255
  594MOL0     O78323   4.370   6.567   1.341 -0.2311  0.1107 -0.8834
  594MOL0     C78324   4.574   6.733   1.118 -0.6039 -0.7481 -0.3377
  594MOL0     C78325   4.710   6.746   1.073  0.4278  0.4127 -0.3332
  594MOL0     N78326   5.557   6.717   1.241 -0.0731 -0.2799 -0.4416
  594MOL0     N78327   5.680   6.702   1.248 -0.8129 -0.0880 -0.0998
  594MOL0     C78328   6.876   6.826   0.940  0.1420  0.0399 -0.2060
  594MOL0     C78329   6.982   6.842   0.851 -0.2004 -0.0183  0.0852
  594MOL0     C78330   7.262   6.719   0.498  0.3131  0.3522 -0.6594
  594MOL0     C78331   7.369   6.722   0.591 -0.4369 -0.0534 -0.0761
  594MOL0     C78332   7.506   6.724   0.544  0.2638  0.9410  0.4171
  594MOL0     C78333   7.536   6.735   0.411  0.6777  0.4710 -0.3663
  594MOL0     O78334   7.668   6.725   0.365  0.0341  0.3707  0.3058
  594MOL0     C78335   7.733   6.850   0.370 -0.3147  0.1810 -0.1653
  594MOL0     C78336   7.871   6.855   0.321 -0.6976 -0.7798 -0.1303
  594MOL0     C78337   7.908   7.004   0.344  0.1484  0.3562 -0.3680
  594MOL0     C78338   8.054   7.025   0.298 -0.2285  0.2897  0.3045
  594MOL0     C78339   8.162   6.968   0.386  0.7093  0.6355  0.4530
  594MOL0     C78340   8.239   6.926   0.470 -0.6694 -0.0973  0.3359
  594MOL0     C78341   7.426   6.737   0.321 -0.2902 -0.2738  0.6643
  594MOL0     C78342   7.293   6.728   0.365 -1.1726  0.1419  0.4129
  594MOL0     H78343   6.887   6.588   0.641  1.4029 -0.9810  1.1947
  594MOL0     H78344   6.709   6.557   0.825  0.1951 -1.1521  0.7212
  594MOL0     H78345   6.582   6.870   0.938  1.3824 -0.2358  1.2242
  594MOL0     H78346   6.657   6.908   1.085  0.4540  2.1945 -2.0266
  594MOL0     H78347   6.418   6.892   1.140  1.6323  0.8452  0.1679
  594MOL0     H78348   6.498   6.738   1.197 -0.9976 -1.3576 -1.4742
  594MOL0     H78349   6.437   6.641   0.970 -2.2229 -1.3909 -0.7594
  594MOL0     H78350   6.358   6.791   0.941  1.3248  6.1451  3.9798
  594MOL0     H78351   6.278   6.660   1.202 -0.3988  3.3649  0.0601
  594MOL0     H78352   6.191   6.773   1.098  0.1650  0.9750  1.2634
  594MOL0     H78353   6.274   6.481   1.017 -2.1214 -1.0071 -3.4638
  594MOL0     H78354   6.161   6.599   0.929 -1.7920  0.4251  1.0625
  594MOL0     H78355   6.111   6.452   1.181  1.7708  1.8621  0.0986
  594MOL0     H78356   6.048   6.415   1.014  3.8857  0.5382 -2.9881
  594MOL0     H78357   5.997   6.687   1.164 -0.1489  0.3209  1.5255
  594MOL0     H78358   5.944   6.647   1.007  0.1631 -1.1410 -0.9330
  594MOL0     H78359   5.874   6.505   1.270 -0.4579 -2.0811 -0.0446
  594MOL0     H78360   5.841   6.439   1.110  3.8495  2.2767 -5.0500
  594MOL0     H78361   5.589   6.492   1.010  2.2129  1.4586 -1.1322
  594MOL0     H78362   5.345   6.581   1.011  0.4957  1.4107 -0.7625
  594MOL0     H78363   5.347   6.746   1.059 -0.2913 -1.1551 -0.8622
  594MOL0     H78364   5.312   6.616   1.310 -5.0740  0.6337  1.7970
  594MOL0     H78365   5.270   6.484   1.207  0.3059 -0.1084 -1.1433
  594MOL0     H78366   5.080   6.635   1.305 -1.7853 -2.4108 -1.3097
  594MOL0     H78367   5.158   6.759   1.217 -0.5808 -0.6801 -1.1245
  594MOL0     H78368   5.019   6.494   1.117 -1.2297 -0.4869 -1.1307
  594MOL0     H78369   5.104   6.587   1.003 -0.7119 -0.1184 -0.6233
  594MOL0     H78370   4.853   6.512   1.273 -1.3833 -0.8690  1.4200
  594MOL0     H78371   4.616   6.475   1.334 -0.0730  0.1160  0.3023
  594MOL0     H78372   4.143   6.500   1.275 -1.8016 -0.9865 -1.7827
  594MOL0     H78373   3.909   6.492   1.309  1.4628 -1.2031 -0.1189
  594MOL0     H78374   3.726   6.665   1.450 -0.6083  0.3561  0.9044
  594MOL0     H78375   3.700   6.526   1.343 -2.7528 -1.2877 -0.6693
  594MOL0     H78376   3.498   6.752   1.412 -3.9669  0.1787 -3.4037
  594MOL0     H78377   3.499   6.581   1.462 -1.9414  0.2441 -1.2546
  594MOL0     H78378   3.462   6.507   1.218 -2.8312  0.2863 -4.5903
  594MOL0     H78379   3.481   6.678   1.176  1.3790 -2.3173 -1.0400
  594MOL0     H78380   3.274   6.589   1.386  2.3032 -0.3323  0.8949
  594MOL0     H78381   3.291   6.743   1.298 -1.2801 -0.8509 -1.6058
  594MOL0     H78382   3.118   6.588   1.217 -0.3968  3.4494 -0.4913
  594MOL0     H78383   3.244   6.467   1.177 -0.2752 -0.5241 -1.2114
  594MOL0     H78384   3.329   6.665   1.021 -0.6246  0.6966 -2.9284
  594MOL0     H78385   3.157   6.729   1.048  0.1431  0.5909  0.3905
  594MOL0     H78386   3.228   6.560   0.846 -4.1396  0.2321 -1.3405
  594MOL0     H78387   3.250   6.441   0.973  2.8437  2.7929  2.3198
  594MOL0     H78388   3.002   6.479   1.021 -2.2316  1.3619 -1.2234
  594MOL0     H78389   3.011   6.424   0.861  1.4511 -1.1739  0.0248
  594MOL0     H78390   3.869   6.862   1.109  1.5094  2.6759  0.6345
  594MOL0     H78391   4.128   6.884   1.084  0.9096 -0.6123 -1.8568
  594MOL0     H78392   4.506   6.795   1.061  0.1898 -0.6620 -1.2051
  594MOL0     H78393   4.738   6.827   1.006 -0.2983 -1.6402 -3.3547
  594MOL0     H78394   6.882   6.902   1.017  1.0768 -1.5535  1.3709
  594MOL0     H78395   7.050   6.922   0.875  1.5743 -1.0864 -1.2041
  594MOL0     H78396   7.352   6.707   0.698  2.2517  0.1402  0.4445
  594MOL0     H78397   7.589   6.720   0.614 -0.6662  0.6774  1.5377
  594MOL0     H78398   7.731   6.870   0.477 -1.3868 -1.0370  0.0609
  594MOL0     H78399   7.672   6.929   0.325 -1.3850 -1.5465 -1.9095
  594MOL0     H78400   7.936   6.787   0.376 -1.4328 -1.9518 -0.6832
  594MOL0     H78401   7.887   6.827   0.217  2.5372  0.8383 -0.1832
  594MOL0     H78402   7.897   7.038   0.447 -0.6637 -1.2392  0.0963
  594MOL0     H78403   7.834   7.064   0.290  0.5589 -0.0801 -1.4580
  594MOL0     H78404   8.062   6.972   0.203 -0.2132  0.0967  0.4133
  594MOL0     H78405   8.088   7.128   0.288  1.7492 -0.4554 -1.1455
  594MOL0     H78406   8.329   6.906   0.525  0.6016 -1.0171 -1.9293
  594MOL0     H78407   7.449   6.730   0.215  3.2484  1.1217  1.2210
  594MOL0     H78408   7.220   6.709   0.287 -1.8035  2.7105  0.3175
  595MOL0     O78409   1.048   6.860   2.352 -0.5158  0.1014  0.0356
  595MOL0     C78410   1.080   6.887   2.468  0.5492 -0.4999 -0.6691
  595MOL0     O78411   0.989   6.895   2.565  0.5091 -0.5499  0.3880
  595MOL0     C78412   0.859   6.879   2.533  0.1076 -0.0715 -0.2843
  595MOL0     C78413   0.759   6.970   2.576 -0.2500 -0.3449  0.5349
  595MOL0     C78414   0.625   6.948   2.564  0.4595 -0.2995 -0.0189
  595MOL0     C78415   0.575   6.827   2.513 -0.4849  0.6015  0.5416
  595MOL0     O78416   0.441   6.829   2.491  0.3076  0.4106 -0.7918
  595MOL0     C78417   0.382   6.717   2.424 -0.2704  0.2099  0.3831
  595MOL0     C78418   0.236   6.725   2.449  0.3204  0.8070  0.1739
  595MOL0     C78419   0.134   6.650   2.357 -0.4588  0.1773 -0.0273
  595MOL0     C78420   0.117   6.730   2.225  0.1618 -0.7630 -0.3972
  595MOL0     C78421  -0.024   6.725   2.171 -0.1661 -0.0764  0.4513
  595MOL0     C78422  -0.121   6.810   2.256  0.8512 -0.1623  0.0847
  595MOL0     C78423  -0.241   6.824   2.171  0.6389 -0.4314 -0.2422
  595MOL0     C78424  -0.347   6.914   2.230 -0.1882 -0.1255 -0.2576
  595MOL0     N78425  -0.471   6.906   2.145  0.0678 -0.8304 -0.3161
  595MOL0     C78426  -0.497   6.967   2.028  0.2403  0.1434 -0.5774
  595MOL0     C78427  -0.625   6.948   1.998  1.0455 -0.1690 -0.5000
  595MOL0     C78428  -0.692   7.005   1.878  0.0809  0.6240  0.1989
  595MOL0     C78429  -0.606   6.965   1.762 -0.5161  0.1823 -0.8026
  595MOL0     C78430  -0.683   6.929   1.643  1.2580  0.1187 -0.0318
  595MOL0     C78431  -0.609   6.887   1.519 -0.3105 -0.3060 -0.4222
  595MOL0     O78432  -0.681   6.936   1.406 -0.1518 -0.4175 -1.0387
  595MOL0     C78433  -0.807   6.881   1.380  0.2240  0.2111 -0.2878
  595MOL0     C78434  -0.862   6.761   1.414  1.0894  0.3214 -0.4675
  595MOL0     C78435  -0.991   6.720   1.360 -0.0149 -0.0184 -0.3852
  595MOL0     C78436  -1.060   6.805   1.262 -0.4938  0.9150  1.0737
  595MOL0     C78437  -1.191   6.771   1.207 -0.6593  0.3369 -0.9351
  595MOL0     O78438  -1.233   6.636   1.226  0.2811 -0.3024  0.4986
  595MOL0     C78439  -1.331   6.581   1.148  0.6370  0.3178  0.4025
  595MOL0     C78440  -1.315   6.448   1.099  0.3132  0.0822 -0.5554
  595MOL0     C78441  -1.400   6.384   1.022  0.2892 -0.5909  0.4608
  595MOL0     C78442  -1.511   6.450   0.973  0.5015 -0.5098 -0.2468
  595MOL0     O78443  -1.596   6.396   0.879  0.1139 -0.2001 -0.7626
  595MOL0     C78444  -1.536   6.323   0.771 -0.3491 -0.1438  0.2822
  595MOL0     C78445  -1.615   6.369   0.644  0.4984  0.6591  0.5593
  595MOL0     C78446  -1.739   6.296   0.625  0.0301 -0.0883 -0.9384
  595MOL0     C78447  -1.827   6.344   0.508  0.9175  0.9888  0.4515
  595MOL0     C78448  -1.948   6.255   0.486 -0.6816  0.5360  0.4455
  595MOL0     C78449  -1.927   6.120   0.416  0.2012 -0.3842 -0.8718
  595MOL0     C78450  -1.867   6.143   0.279  0.2870 -0.0203 -0.2788
  595MOL0     C78451  -1.856   6.002   0.209  0.2698 -0.4832 -0.4083
  595MOL0    Cl78452  -2.009   5.903   0.191 -0.0908  0.0667 -0.2899
  595MOL0     C78453  -1.537   6.578   1.022  0.4693 -0.0874  0.6643
  595MOL0     C78454  -1.455   6.637   1.112 -0.8341 -0.7017 -0.2738
  595MOL0     O78455  -1.255   6.856   1.146 -0.6208  0.3932 -0.3677
  595MOL0     C78456  -0.998   6.924   1.229  0.2348  0.0769  0.8674
  595MOL0     C78457  -0.876   6.953   1.285  0.2728  0.6867  1.1449
  595MOL0     N78458  -0.690   6.879   2.103 -0.3248  0.4341 -0.2109
  595MOL0     N78459  -0.590   6.856   2.188 -0.5384  0.5370 -0.6077
  595MOL0     C78460   0.672   6.734   2.461  0.3232  0.8106 -0.8592
  595MOL0     C78461   0.809   6.760   2.481 -0.7346 -0.3429  0.1744
  595MOL0     C78462   1.217   6.932   2.496  0.1490 -0.0644 -1.0073
  595MOL0     C78463   1.309   6.964   2.396  0.3084  0.3938 -0.3324
  595MOL0     C78464   1.434   7.017   2.427 -1.2399 -0.5166 -0.8463
  595MOL0     C78465   1.472   7.042   2.558 -0.3976 -0.0387  0.4417
  595MOL0     O78466   1.596   7.100   2.568  0.1784 -0.2370  0.5115
  595MOL0     C78467   1.642   7.132   2.698 -0.7620  0.8276 -0.5440
  595MOL0     C78468   1.793   7.157   2.686 -0.3590 -0.5373  0.7986
  595MOL0     C78469   1.832   7.250   2.570 -0.0149  0.6174  0.0917
  595MOL0     C78470   1.777   7.391   2.566  0.3513 -0.1884  0.0446
  595MOL0     C78471   1.810   7.464   2.442  0.2021 -0.1353 -0.2151
  595MOL0     C78472   1.821   7.551   2.358  0.4134 -0.0872 -0.8784
  595MOL0     C78473   1.378   7.000   2.656 -0.8248 -0.1706 -0.2933
  595MOL0     C78474   1.255   6.957   2.625  0.3627  0.4254  0.7143
  595MOL0     H78475   0.800   7.065   2.610 -1.9149  0.8344 -0.5858
  595MOL0     H78476   0.554   7.027   2.587  1.3289  0.6148 -0.3951
  595MOL0     H78477   0.433   6.626   2.458  1.6370  0.3685 -1.7596
  595MOL0     H78478   0.397   6.729   2.316 -1.1038 -2.7340 -0.1406
  595MOL0     H78479   0.212   6.831   2.463  1.2311  0.9210  1.0204
  595MOL0     H78480   0.218   6.691   2.551 -0.6283  2.7788  0.7238
  595MOL0     H78481   0.041   6.636   2.413 -1.1686 -4.3721 -1.8571
  595MOL0     H78482   0.168   6.549   2.332  0.1961 -0.5680  3.4184
  595MOL0     H78483   0.131   6.834   2.254 -2.5693 -0.8779  1.7883
  595MOL0     H78484   0.198   6.707   2.155  2.9099 -2.4166  2.9953
  595MOL0     H78485  -0.058   6.621   2.164 -0.9943  0.1843  0.5029
  595MOL0     H78486  -0.025   6.769   2.071 -2.1136  0.0962  0.5159
  595MOL0     H78487  -0.084   6.909   2.285 -0.6962  1.7599 -3.7892
  595MOL0     H78488  -0.146   6.772   2.356 -1.4911  1.4795  0.2199
  595MOL0     H78489  -0.233   6.862   2.068 -0.9543 -0.3421 -0.3591
  595MOL0     H78490  -0.281   6.723   2.163 -0.8102  0.1946 -1.6254
  595MOL0     H78491  -0.311   7.017   2.241 -2.6412  0.6412  1.4474
  595MOL0     H78492  -0.365   6.882   2.333  0.0885 -0.4458 -0.3055
  595MOL0     H78493  -0.446   7.039   1.965 -0.1761  1.9282  1.0604
  595MOL0     H78494  -0.700   7.114   1.881 -0.3976  0.7510 -2.5901
  595MOL0     H78495  -0.791   6.962   1.864  0.3487  0.5498 -1.7648
  595MOL0     H78496  -0.541   6.883   1.795 -2.0967 -0.0400  2.1380
  595MOL0     H78497  -0.542   7.051   1.740 -2.3584  1.3958 -1.6434
  595MOL0     H78498  -0.758   6.853   1.668  0.1925  0.2215 -2.5864
  595MOL0     H78499  -0.744   7.018   1.623 -4.2453 -2.7590  1.8137
  595MOL0     H78500  -0.592   6.779   1.526 -0.4839 -0.2261  1.9964
  595MOL0     H78501  -0.508   6.930   1.526 -0.1121 -1.1163  3.4979
  595MOL0     H78502  -0.819   6.697   1.491  0.4828  0.6491  0.1411
  595MOL0     H78503  -1.043   6.628   1.385  2.5966 -1.3902  0.3061
  595MOL0     H78504  -1.227   6.392   1.132 -0.5557  0.9446  3.8183
  595MOL0     H78505  -1.364   6.291   0.979  0.3438 -0.4640  0.2308
  595MOL0     H78506  -1.541   6.217   0.799  1.2065 -0.2344  0.3420
  595MOL0     H78507  -1.429   6.348   0.765  0.0173 -1.1117  2.0474
  595MOL0     H78508  -1.566   6.363   0.546 -1.4386  1.3447 -0.5080
  595MOL0     H78509  -1.638   6.476   0.654  0.2803  0.4878  2.1913
  595MOL0     H78510  -1.805   6.292   0.712  0.0601 -1.8241 -0.9584
  595MOL0     H78511  -1.712   6.191   0.612  0.6510  0.1261 -1.4434
  595MOL0     H78512  -1.871   6.440   0.537 -1.3686 -0.3536  1.6816
  595MOL0     H78513  -1.776   6.354   0.411 -0.7868  2.2597 -0.3651
  595MOL0     H78514  -2.012   6.314   0.420  0.4127 -0.6010 -1.7905
  595MOL0     H78515  -1.999   6.237   0.580 -0.7131 -0.1532  0.3101
  595MOL0     H78516  -2.019   6.062   0.402 -0.1713  0.0496 -0.2602
  595MOL0     H78517  -1.866   6.053   0.476 -1.2792 -2.9927 -2.0783
  595MOL0     H78518  -1.936   6.219   0.240  1.1355  2.0552  1.9867
  595MOL0     H78519  -1.766   6.185   0.278 -0.1861  1.1945  0.4834
  595MOL0     H78520  -1.773   5.948   0.256  0.9436  0.9297  0.1028
  595MOL0     H78521  -1.825   6.024   0.107  0.2723 -1.8374 -0.7203
  595MOL0     H78522  -1.625   6.630   0.983  0.9954 -1.7400 -3.2581
  595MOL0     H78523  -1.481   6.736   1.149 -1.4122 -0.6986 -0.6728
  595MOL0     H78524  -1.028   7.002   1.159 -0.6793  0.3117  1.5025
  595MOL0     H78525  -0.836   7.052   1.269  1.3065  0.0745 -0.2380
  595MOL0     H78526   0.654   6.649   2.396  1.8254  0.6267 -1.0632
  595MOL0     H78527   0.880   6.681   2.456 -1.2129 -0.6746 -0.1519
  595MOL0     H78528   1.279   6.941   2.294  0.9352 -0.5637 -0.3059
  595MOL0     H78529   1.510   7.024   2.350  0.6497  1.4749  1.0564
  595MOL0     H78530   1.626   7.050   2.768  0.0937  0.2601 -0.9959
  595MOL0     H78531   1.583   7.216   2.735 -3.1346 -1.7217  2.0558
  595MOL0     H78532   1.842   7.196   2.776 -1.4468  1.2801  0.6506
  595MOL0     H78533   1.829   7.056   2.664 -0.6307 -0.9608  2.1907
  595MOL0     H78534   1.791   7.194   2.486 -4.1444  0.2126  2.1172
  595MOL0     H78535   1.939   7.270   2.560  0.4660 -2.2344 -1.2492
  595MOL0     H78536   1.669   7.390   2.583  0.3843 -0.1315  0.2707
  595MOL0     H78537   1.795   7.441   2.662  0.8062 -0.5884  0.1700
  595MOL0     H78538   1.837   7.634   2.293  1.4403  2.0320  1.8854
  595MOL0     H78539   1.395   7.039   2.756 -2.9481  1.0755 -0.3501
  595MOL0     H78540   1.177   6.934   2.698  0.1282  2.4221  1.1458
  596MOL0     O78541   4.621   0.475   3.910 -0.5156  0.6705  0.2924
  596MOL0     C78542   4.727   0.431   3.934 -0.0757  0.6050 -0.0985
  596MOL0     O78543   4.754   0.335   4.023  0.0184  0.9734 -0.0883
  596MOL0     C78544   4.663   0.303   4.120 -0.0394 -0.5241  0.3199
  596MOL0     C78545   4.653   0.373   4.244 -0.1152 -0.0780  0.1254
  596MOL0     C78546   4.555   0.336   4.338  0.1765  0.3534  0.3639
  596MOL0     C78547   4.478   0.226   4.318  0.7604  0.0725 -0.5051
  596MOL0     O78548   4.395   0.176   4.411  0.7112  0.0246 -0.2245
  596MOL0     C78549   4.257   0.206   4.399  0.8884 -0.2752  0.1658
  596MOL0     C78550   4.169   0.118   4.312 -0.0115  0.4381  0.1533
  596MOL0     C78551   4.186  -0.031   4.354  0.4275  0.1522  0.2235
  596MOL0     C78552   4.091  -0.106   4.260 -0.6021  0.5254 -0.4386
  596MOL0     C78553   3.945  -0.084   4.290 -0.7863 -0.1942  0.5937
  596MOL0     C78554   3.852  -0.160   4.196  0.4153  0.0817  0.6911
  596MOL0     C78555   3.862  -0.306   4.193  0.4756  0.1415 -0.0949
  596MOL0     C78556   3.741  -0.370   4.117 -0.9300 -0.1742  0.2507
  596MOL0     N78557   3.628  -0.343   4.194 -0.8417 -0.4940 -0.2800
  596MOL0     C78558   3.531  -0.253   4.162  0.3033 -0.3820 -0.7596
  596MOL0     C78559   3.419  -0.281   4.238 -0.5888 -0.1638 -0.6488
  596MOL0     C78560   3.297  -0.199   4.246  0.4037  0.9240  0.1401
  596MOL0     C78561   3.187  -0.262   4.155  0.0693 -0.6413 -0.1517
  596MOL0     C78562   3.061  -0.178   4.163  0.2448  0.5708  0.4487
  596MOL0     C78563   2.944  -0.235   4.254 -0.0017 -0.1752 -0.3205
  596MOL0     O78564   2.822  -0.152   4.236  0.3453  0.0662 -0.1060
  596MOL0     C78565   2.711  -0.176   4.318 -0.0768  1.2083  0.9548
  596MOL0     C78566   2.590  -0.131   4.267 -0.2814 -0.6029 -0.2436
  596MOL0     C78567   2.469  -0.155   4.333 -1.1065 -1.0782 -0.3567
  596MOL0     C78568   2.464  -0.227   4.452  0.1569 -0.0682 -0.5662
  596MOL0     C78569   2.340  -0.255   4.520  0.7429 -0.6723 -0.3747
  596MOL0     O78570   2.238  -0.166   4.493 -0.3585  0.4784 -0.9142
  596MOL0     C78571   2.122  -0.156   4.568  0.1349  0.1542  0.3453
  596MOL0     C78572   2.117  -0.082   4.689  0.3706  0.7453 -0.0500
  596MOL0     C78573   1.998  -0.044   4.753 -0.0732  0.1275  0.4064
  596MOL0     C78574   1.874  -0.090   4.703  0.0132  0.4326  0.3913
  596MOL0     O78575   1.752  -0.059   4.749  0.7050 -0.0526 -0.1363
  596MOL0     C78576   1.725  -0.030   4.885 -0.4343 -0.6159 -0.0493
  596MOL0     C78577   1.726   0.121   4.913 -0.4668 -0.3315 -0.1479
  596MOL0     C78578   1.600   0.194   4.854  0.2039 -0.6061 -0.3753
  596MOL0     C78579   1.580   0.337   4.922 -0.2444  0.2871 -0.8789
  596MOL0     C78580   1.455   0.410   4.890 -0.6643  0.2693  0.4699
  596MOL0     C78581   1.333   0.336   4.934  0.0730  0.1585  0.6940
  596MOL0     C78582   1.214   0.428   4.966  0.5706 -0.4440  0.3425
  596MOL0     C78583   1.099   0.359   5.046 -0.1295 -1.1273 -0.4717
  596MOL0    Cl78584   1.141   0.318   5.218  0.0702  0.1796 -0.3694
  596MOL0     C78585   1.880  -0.169   4.584 -0.2655  1.1168 -0.0553
  596MOL0     C78586   1.999  -0.201   4.521 -1.4656  0.5100  1.4285
  596MOL0     O78587   2.332  -0.357   4.583 -0.4393 -0.3590 -1.1923
  596MOL0     C78588   2.590  -0.278   4.495 -0.0687 -0.1684 -0.2538
  596MOL0     C78589   2.708  -0.257   4.420  0.2153 -0.2658 -0.7085
  596MOL0     N78590   3.452  -0.385   4.319  0.8565  0.2320  0.7137
  596MOL0     N78591   3.570  -0.417   4.296 -0.2180  0.6301 -0.3216
  596MOL0     C78592   4.496   0.154   4.196 -0.4047  0.5250 -0.1021
  596MOL0     C78593   4.584   0.191   4.100 -1.3684 -0.6332  0.2454
  596MOL0     C78594   4.839   0.486   3.853  0.3800 -0.2234 -0.6845
  596MOL0     C78595   4.971   0.451   3.895  0.5451  0.0579  1.0795
  596MOL0     C78596   5.082   0.488   3.826 -0.0656  0.9011  0.0773
  596MOL0     C78597   5.057   0.566   3.712 -0.2336 -0.2391 -0.3552
  596MOL0     O78598   5.157   0.639   3.647  0.0662  0.1630  0.7222
  596MOL0     C78599   5.291   0.664   3.693  1.0879 -1.2803 -0.4571
  596MOL0     C78600   5.387   0.626   3.585  0.3997  0.4117  0.2265
  596MOL0     C78601   5.526   0.634   3.628 -0.1017  0.3064 -0.2103
  596MOL0     C78602   5.624   0.615   3.513 -0.0147  0.2773 -0.0070
  596MOL0     C78603   5.752   0.560   3.545 -0.8065  0.7146  0.2687
  596MOL0     C78604   5.859   0.511   3.576  0.1116  0.3589 -0.2004
  596MOL0     C78605   4.937   0.599   3.666 -0.0743  0.0602 -0.1310
  596MOL0     C78606   4.824   0.565   3.740 -0.0225  0.2744 -0.0180
  596MOL0     H78607   4.731   0.445   4.269  1.0737 -1.2304 -0.1747
  596MOL0     H78608   4.552   0.379   4.437 -0.5412 -2.7657  1.8255
  596MOL0     H78609   4.230   0.304   4.358 -3.1575 -1.6111 -0.9132
  596MOL0     H78610   4.203   0.193   4.493 -2.1572 -0.9231 -1.5402
  596MOL0     H78611   4.192   0.124   4.205 -2.3945 -0.9618 -0.5080
  596MOL0     H78612   4.067   0.157   4.322 -0.9400 -0.8722 -2.9458
  596MOL0     H78613   4.161  -0.041   4.460 -1.3493  2.4699  0.0938
  596MOL0     H78614   4.284  -0.075   4.330 -0.5089 -2.9149  1.4512
  596MOL0     H78615   4.105  -0.073   4.157 -0.5929  1.5791 -0.1048
  596MOL0     H78616   4.107  -0.214   4.249 -0.8200  0.5143 -0.6721
  596MOL0     H78617   3.911   0.020   4.277 -1.6470 -0.0251  3.3739
  596MOL0     H78618   3.923  -0.103   4.396  2.3412 -1.3941  1.1305
  596MOL0     H78619   3.853  -0.102   4.103  0.2342  4.2357  3.0280
  596MOL0     H78620   3.750  -0.136   4.231  1.2307  1.0331  2.6072
  596MOL0     H78621   3.957  -0.337   4.149 -1.1236 -1.6099 -2.5672
  596MOL0     H78622   3.856  -0.341   4.297 -2.4281  0.5090 -0.0396
  596MOL0     H78623   3.742  -0.480   4.111 -1.8660 -0.3632  2.5964
  596MOL0     H78624   3.733  -0.337   4.013 -2.4505  0.6811  0.6040
  596MOL0     H78625   3.540  -0.167   4.097  0.8532  1.1895  1.3088
  596MOL0     H78626   3.307  -0.094   4.218 -0.4323  0.7149 -1.0147
  596MOL0     H78627   3.267  -0.196   4.351  1.9429 -1.9981  0.7957
  596MOL0     H78628   3.162  -0.362   4.191  0.9647 -0.8024  0.0653
  596MOL0     H78629   3.224  -0.278   4.053 -0.5707 -1.9482 -0.2000
  596MOL0     H78630   3.080  -0.073   4.188 -2.0407  0.5993  2.4137
  596MOL0     H78631   3.027  -0.177   4.059  2.7066 -0.2351 -0.4337
  596MOL0     H78632   2.974  -0.241   4.359 -1.0865 -0.1661 -0.0062
  596MOL0     H78633   2.931  -0.338   4.220  1.2501 -0.8478  1.1172
  596MOL0     H78634   2.592  -0.063   4.182 -0.6702  0.0267  0.2458
  596MOL0     H78635   2.386  -0.091   4.304 -1.3868 -0.5386  1.4841
  596MOL0     H78636   2.213  -0.047   4.727  1.4020 -2.4040  0.5799
  596MOL0     H78637   2.017   0.013   4.844  2.4679 -1.4205  0.9658
  596MOL0     H78638   1.797  -0.085   4.946  0.5952  3.1257  2.4347
  596MOL0     H78639   1.622  -0.060   4.908 -0.5001  0.2226  0.8002
  596MOL0     H78640   1.822   0.162   4.880 -1.2431  2.3409  0.6710
  596MOL0     H78641   1.724   0.113   5.022 -0.0100 -3.6667 -0.2839
  596MOL0     H78642   1.508   0.135   4.862 -0.3609  0.3149  0.1244
  596MOL0     H78643   1.607   0.203   4.745 -3.5603 -1.3233 -0.8166
  596MOL0     H78644   1.606   0.343   5.028  0.2820  2.3264 -1.0705
  596MOL0     H78645   1.658   0.407   4.891  2.2402 -2.0862 -0.3856
  596MOL0     H78646   1.432   0.436   4.786  0.9805  1.1644  0.3083
  596MOL0     H78647   1.463   0.511   4.930  0.2622  0.2332  0.3932
  596MOL0     H78648   1.357   0.281   5.026  1.2304  0.3561  0.5255
  596MOL0     H78649   1.315   0.265   4.853  0.9226  0.2797  0.3934
  596MOL0     H78650   1.236   0.520   5.021 -0.4315  1.5815 -2.4176
  596MOL0     H78651   1.182   0.464   4.867  2.3821 -1.3495 -0.6271
  596MOL0     H78652   1.064   0.267   4.999  2.4685 -1.1896 -2.4949
  596MOL0     H78653   1.013   0.426   5.051  2.7204  2.8746  0.1534
  596MOL0     H78654   1.788  -0.212   4.545 -1.2502 -0.0860  3.2315
  596MOL0     H78655   2.001  -0.262   4.432  2.3438  4.2047 -1.4131
  596MOL0     H78656   2.589  -0.328   4.592 -1.3819 -1.0726 -0.7092
  596MOL0     H78657   2.798  -0.308   4.455 -0.1381 -0.9857 -0.8377
  596MOL0     H78658   4.443   0.060   4.180 -0.7282  0.4682  1.1870
  596MOL0     H78659   4.608   0.122   4.020  1.6603 -1.3619  1.6034
  596MOL0     H78660   4.981   0.371   3.968  2.1289  0.5987  1.4897
  596MOL0     H78661   5.182   0.459   3.857 -0.3221 -4.5137 -2.8745
  596MOL0     H78662   5.316   0.611   3.785 -3.2783 -3.3530 -0.2296
  596MOL0     H78663   5.301   0.772   3.705 -1.4988 -1.1376  1.1705
  596MOL0     H78664   5.370   0.520   3.562 -0.8479  0.4808  0.7276
  596MOL0     H78665   5.367   0.691   3.500  0.2625 -1.4559 -1.2480
  596MOL0     H78666   5.531   0.546   3.693  1.1027  1.6430  1.6324
  596MOL0     H78667   5.550   0.715   3.698 -0.3912 -1.0508  1.5415
  596MOL0     H78668   5.576   0.545   3.444 -0.8374  2.1443 -1.4201
  596MOL0     H78669   5.635   0.704   3.450  1.7412 -2.6828 -4.3135
  596MOL0     H78670   5.953   0.468   3.603 -0.7914 -3.0250 -1.8439
  596MOL0     H78671   4.929   0.662   3.578  1.9667  3.1795  1.7356
  596MOL0     H78672   4.727   0.598   3.705 -0.8053  1.0064  2.6189
  597MOL0     O78673   8.131   3.123   9.132 -0.0882  0.4709  0.4397
  597MOL0     C78674   8.102   3.024   9.199  0.1692  0.2899  0.3420
  597MOL0     O78675   7.994   3.017   9.287  0.3289 -0.2624  0.4122
  597MOL0     C78676   7.893   3.112   9.290 -1.0159 -0.5472 -0.7439
  597MOL0     C78677   7.871   3.226   9.214  0.2734  0.0593  1.7094
  597MOL0     C78678   7.756   3.307   9.227  0.8270  0.3323 -0.6045
  597MOL0     C78679   7.655   3.272   9.318 -0.9522 -0.3380  0.8171
  597MOL0     O78680   7.542   3.348   9.314 -0.0296  1.1133  0.5889
  597MOL0     C78681   7.435   3.321   9.401  0.0236  0.1749 -0.0745
  597MOL0     C78682   7.353   3.442   9.432 -0.4837 -1.0640 -0.7763
  597MOL0     C78683   7.201   3.409   9.416 -0.4058  0.3163 -0.4567
  597MOL0     C78684   7.128   3.499   9.531 -1.3653  0.2442  0.6272
  597MOL0     C78685   6.975   3.505   9.507  0.1862  0.5394  0.2669
  597MOL0     C78686   6.928   3.602   9.400  0.1125 -0.1002  0.1702
  597MOL0     C78687   6.784   3.634   9.418  0.6248 -0.1506  0.0649
  597MOL0     C78688   6.726   3.730   9.306  0.1998 -0.2824 -0.1252
  597MOL0     N78689   6.584   3.743   9.318  1.2396  0.1518 -0.3703
  597MOL0     C78690   6.520   3.842   9.393  0.5521 -0.4458  0.2938
  597MOL0     C78691   6.389   3.832   9.354  0.1747  0.9456 -0.4757
  597MOL0     C78692   6.276   3.918   9.412 -0.4350 -0.0329  0.2973
  597MOL0     C78693   6.152   3.853   9.351 -0.5267  0.2283 -0.3835
  597MOL0     C78694   6.028   3.925   9.394  0.1942  0.8121 -0.3007
  597MOL0     C78695   5.908   3.851   9.334  0.3254  0.3315 -0.3025
  597MOL0     O78696   5.868   3.903   9.207 -0.5160  0.3434  0.9025
  597MOL0     C78697   5.753   3.984   9.212 -1.0692  0.0102 -0.3590
  597MOL0     C78698   5.628   3.940   9.255  0.0876 -0.5271  0.4515
  597MOL0     C78699   5.521   4.028   9.249  0.2318  0.8334 -0.0108
  597MOL0     C78700   5.536   4.160   9.199  0.5329  0.3157 -0.9709
  597MOL0     C78701   5.413   4.253   9.188 -0.4212  0.5487  0.2958
  597MOL0     O78702   5.437   4.385   9.191  0.7268  0.4849  0.5099
  597MOL0     C78703   5.352   4.478   9.131 -0.7472  1.5503  0.3134
  597MOL0     C78704   5.300   4.577   9.209  0.8984  0.1506  1.0468
  597MOL0     C78705   5.217   4.668   9.132 -0.0707  1.0582 -0.3714
  597MOL0     C78706   5.188   4.656   8.998 -0.1671 -0.0235  0.7365
  597MOL0     O78707   5.100   4.736   8.933 -0.4697  0.0816 -0.0367
  597MOL0     C78708   5.034   4.843   9.002  0.3055  0.1656 -0.2837
  597MOL0     C78709   4.947   4.916   8.902  0.8616  0.6057  0.4333
  597MOL0     C78710   4.873   5.035   8.967 -1.0559  0.0085  0.4154
  597MOL0     C78711   4.808   5.015   9.099  0.0022 -0.1515 -0.3940
  597MOL0     C78712   4.901   5.056   9.224  0.2676  0.5122 -0.2602
  597MOL0     C78713   4.881   5.193   9.284 -0.1534 -0.3901  0.7910
  597MOL0     C78714   4.766   5.196   9.381  0.3223  0.7550 -0.5262
  597MOL0     C78715   4.755   5.331   9.458 -0.5012 -0.7287 -0.0570
  597MOL0    Cl78716   4.623   5.333   9.580 -0.0441  0.0023 -0.3741
  597MOL0     C78717   5.246   4.548   8.928  0.0517  0.4504  0.1530
  597MOL0     C78718   5.318   4.447   8.987 -0.6229  0.2371 -0.3953
  597MOL0     O78719   5.301   4.193   9.170 -0.4016  0.8447 -0.0440
  597MOL0     C78720   5.666   4.202   9.170 -0.9971  0.3742  0.4141
  597MOL0     C78721   5.772   4.110   9.169 -0.0771  0.2604  0.3812
  597MOL0     N78722   6.380   3.725   9.262 -0.5154  0.0695 -0.1765
  597MOL0     N78723   6.498   3.668   9.240  0.8175  0.3227  0.3723
  597MOL0     C78724   7.680   3.156   9.386  0.3923  0.0173 -0.4905
  597MOL0     C78725   7.794   3.083   9.379 -0.5896  0.3742  0.1830
  597MOL0     C78726   8.207   2.919   9.221  0.1408  0.7927 -0.7461
  597MOL0     C78727   8.335   2.920   9.159 -0.3737  0.2537 -0.2626
  597MOL0     C78728   8.434   2.831   9.205  0.5513  0.2189 -0.0269
  597MOL0     C78729   8.398   2.728   9.288  0.3115  0.2646 -0.2606
  597MOL0     O78730   8.501   2.653   9.336 -0.6248 -0.1359  0.5093
  597MOL0     C78731   8.477   2.531   9.403 -0.6566 -0.0539  0.2127
  597MOL0     C78732   8.628   2.487   9.447  0.9744 -0.9572  0.5700
  597MOL0     C78733   8.625   2.348   9.507 -0.1553  0.2796  0.6310
  597MOL0     C78734   8.762   2.293   9.550 -0.4418 -0.1591  0.1160
  597MOL0     C78735   8.858   2.301   9.443 -0.2662 -0.3644 -0.9590
  597MOL0     C78736   8.941   2.295   9.355  0.2255 -0.7542 -0.4202
  597MOL0     C78737   8.265   2.722   9.340 -0.5633 -0.4225 -0.2828
  597MOL0     C78738   8.172   2.814   9.303 -0.0735 -0.4584 -0.1701
  597MOL0     H78739   7.939   3.239   9.131 -1.5834 -2.4662 -0.4014
  597MOL0     H78740   7.736   3.392   9.162  3.2386  1.8133  0.4310
  597MOL0     H78741   7.470   3.278   9.496  1.0826 -2.2483 -1.4512
  597MOL0     H78742   7.380   3.239   9.355 -0.0459  0.5215 -0.6038
  597MOL0     H78743   7.390   3.520   9.366 -1.8345 -0.8650 -1.3393
  597MOL0     H78744   7.372   3.478   9.533 -0.7836  3.5327 -2.1506
  597MOL0     H78745   7.171   3.305   9.431 -0.1143  0.6474  3.4874
  597MOL0     H78746   7.167   3.431   9.314  0.2523  2.2220 -0.3171
  597MOL0     H78747   7.150   3.455   9.628  0.2479 -0.2669  0.0619
  597MOL0     H78748   7.165   3.602   9.528  3.4253 -1.2584 -1.2558
  597MOL0     H78749   6.931   3.537   9.602  0.9293 -0.5210  0.9967
  597MOL0     H78750   6.941   3.401   9.498  0.6826  0.5300 -2.1192
  597MOL0     H78751   6.950   3.550   9.306 -2.0435 -2.2750  0.7716
  597MOL0     H78752   6.990   3.692   9.409  0.2859 -0.0600 -1.1275
  597MOL0     H78753   6.739   3.535   9.406  0.9934 -0.1019 -1.9169
  597MOL0     H78754   6.758   3.668   9.519 -5.2445  0.6938 -1.3629
  597MOL0     H78755   6.758   3.711   9.203 -2.1744  1.5817 -1.2822
  597MOL0     H78756   6.774   3.827   9.322 -0.0819 -0.1535 -0.0660
  597MOL0     H78757   6.567   3.906   9.467 -1.0635 -0.9261  1.7886
  597MOL0     H78758   6.289   4.021   9.377  0.0261 -0.9414 -2.3935
  597MOL0     H78759   6.274   3.909   9.521  0.4033 -1.2873  0.2273
  597MOL0     H78760   6.147   3.749   9.382 -0.2556  0.0945 -0.7928
  597MOL0     H78761   6.170   3.859   9.244 -2.2281  0.3026 -0.6940
  597MOL0     H78762   6.014   3.937   9.502  1.2081  0.6477 -0.1326
  597MOL0     H78763   6.024   4.027   9.355  0.0686  1.4630  1.3323
  597MOL0     H78764   5.823   3.845   9.402  0.7158 -0.9369  0.0952
  597MOL0     H78765   5.938   3.749   9.308  1.6329  0.8576 -1.0066
  597MOL0     H78766   5.626   3.833   9.273  1.1229 -0.3201  1.9281
  597MOL0     H78767   5.425   3.989   9.281  1.1263  1.3331  3.7766
  597MOL0     H78768   5.321   4.580   9.316 -2.2515  0.2434  1.7726
  597MOL0     H78769   5.189   4.756   9.189  0.2279  0.0594  1.3890
  597MOL0     H78770   5.119   4.909   9.020  2.3891 -1.5050 -3.2048
  597MOL0     H78771   4.970   4.819   9.088 -0.2462 -3.4421 -1.5361
  597MOL0     H78772   4.872   4.846   8.864  1.1076  1.0593 -0.9427
  597MOL0     H78773   5.000   4.944   8.810 -0.9225  2.0122 -0.2333
  597MOL0     H78774   4.795   5.066   8.896 -0.9501 -1.2814 -0.2868
  597MOL0     H78775   4.959   5.100   8.984 -1.8419  0.5306  2.6589
  597MOL0     H78776   4.722   5.083   9.097  1.2555  1.5318  0.4428
  597MOL0     H78777   4.779   4.909   9.103 -0.0276 -0.1964 -1.3836
  597MOL0     H78778   5.001   5.043   9.182 -0.0192  0.2185 -0.8777
  597MOL0     H78779   4.890   4.983   9.305  2.8496  3.0420  2.6077
  597MOL0     H78780   4.866   5.272   9.210 -2.0558 -1.9935 -0.6513
  597MOL0     H78781   4.973   5.213   9.340  2.1428 -1.2030 -2.4174
  597MOL0     H78782   4.669   5.163   9.342  0.3589  0.5606 -0.4507
  597MOL0     H78783   4.774   5.123   9.462 -0.6931  0.7823 -0.3930
  597MOL0     H78784   4.734   5.411   9.387 -0.8303  0.6225  1.4824
  597MOL0     H78785   4.847   5.352   9.514 -0.8534 -0.1177  0.3154
  597MOL0     H78786   5.230   4.544   8.821  2.1036 -0.5821 -0.1737
  597MOL0     H78787   5.350   4.361   8.930 -2.0597  0.3716 -1.4602
  597MOL0     H78788   5.688   4.303   9.136  3.5138  0.2859  2.4209
  597MOL0     H78789   5.874   4.135   9.141 -0.1434  3.1819  2.2801
  597MOL0     H78790   7.606   3.100   9.443 -0.3512  1.4905  0.0439
  597MOL0     H78791   7.799   2.994   9.441  1.2449  1.0870  1.1389
  597MOL0     H78792   8.367   3.004   9.099 -0.1047  0.2439 -0.1341
  597MOL0     H78793   8.532   2.852   9.165  0.8663 -3.0004 -1.1971
  597MOL0     H78794   8.418   2.468   9.335  2.1927 -1.3624 -1.2185
  597MOL0     H78795   8.427   2.562   9.495  1.1706  2.3905  0.4994
  597MOL0     H78796   8.683   2.484   9.352  1.2876 -1.6200  0.7619
  597MOL0     H78797   8.666   2.561   9.518 -0.4151  1.7863 -1.3559
  597MOL0     H78798   8.589   2.277   9.432 -5.2466  0.3855  2.6121
  597MOL0     H78799   8.564   2.332   9.596  1.0642  0.6799  1.5641
  597MOL0     H78800   8.793   2.341   9.643  0.3032 -1.4971  0.5971
  597MOL0     H78801   8.761   2.184   9.566  4.2811 -0.3593  0.2553
  597MOL0     H78802   9.026   2.285   9.291  1.2866  0.0885  0.7981
  597MOL0     H78803   8.229   2.636   9.396 -2.7136 -1.5569 -3.1719
  597MOL0     H78804   8.075   2.813   9.353  1.4250 -0.3848  2.9585
  598MOL0     O78805  11.249   7.130   8.125  0.3518 -0.1603 -0.6494
  598MOL0     C78806  11.344   7.062   8.147 -0.3393  0.2405 -0.8979
  598MOL0     O78807  11.393   6.962   8.066  1.0084 -0.4288  0.5259
  598MOL0     C78808  11.334   6.931   7.946  0.6519 -0.8948  1.1354
  598MOL0     C78809  11.355   7.010   7.829 -0.3950 -0.0682  0.6504
  598MOL0     C78810  11.299   6.969   7.704 -0.4812 -0.3995  0.0477
  598MOL0     C78811  11.216   6.852   7.702 -0.4877  0.3580 -0.5400
  598MOL0     O78812  11.156   6.824   7.589  0.7332 -0.1281  0.9179
  598MOL0     C78813  11.061   6.717   7.576 -0.8297 -0.0148 -0.4052
  598MOL0     C78814  11.020   6.701   7.435  0.1799  0.5192  0.4461
  598MOL0     C78815  10.909   6.589   7.442  0.2848 -0.1292  0.9231
  598MOL0     C78816  10.838   6.550   7.304 -0.2835  0.4199 -1.7161
  598MOL0     C78817  10.769   6.408   7.294 -0.2023  0.0741  0.4502
  598MOL0     C78818  10.651   6.379   7.382 -0.0041  0.0338 -0.0239
  598MOL0     C78819  10.519   6.441   7.333 -0.9416 -0.5335  0.4940
  598MOL0     C78820  10.423   6.339   7.390 -0.6419  0.1287 -1.2366
  598MOL0     N78821  10.281   6.383   7.388 -0.2941  0.5190  0.0569
  598MOL0     C78822  10.179   6.314   7.449 -0.2639 -0.0639  0.6247
  598MOL0     C78823  10.067   6.366   7.384 -0.1601  0.4502 -0.2929
  598MOL0     C78824   9.922   6.324   7.408 -0.7932 -0.2140  0.3301
  598MOL0     C78825   9.894   6.327   7.556  0.0050 -0.6245 -0.5667
  598MOL0     C78826   9.897   6.468   7.621 -0.2138  0.5337 -0.5906
  598MOL0     C78827   9.786   6.561   7.578  0.8058 -0.4949  0.4591
  598MOL0     O78828   9.671   6.549   7.669  0.0719 -0.4650  0.0023
  598MOL0     C78829   9.558   6.630   7.644  0.5096  1.1871  0.0886
  598MOL0     C78830   9.440   6.562   7.692  0.5779  1.0935  1.0926
  598MOL0     C78831   9.315   6.620   7.668 -0.0687 -0.7374 -0.5016
  598MOL0     C78832   9.305   6.748   7.614  0.3279 -0.8526  0.1522
  598MOL0     C78833   9.166   6.792   7.576 -0.5545  0.3546 -0.1264
  598MOL0     O78834   9.055   6.718   7.621 -0.3118  0.3395  0.2247
  598MOL0     C78835   8.932   6.774   7.593 -0.4536  1.1271  0.5330
  598MOL0     C78836   8.832   6.674   7.601  0.7759  0.7247 -0.1034
  598MOL0     C78837   8.698   6.712   7.572  0.8435 -0.4947 -0.6632
  598MOL0     C78838   8.657   6.839   7.528 -0.0564  1.0380 -0.4575
  598MOL0     O78839   8.527   6.850   7.473 -0.5466  0.0964  0.2247
  598MOL0     C78840   8.485   6.983   7.447 -0.7295  0.0515 -0.2804
  598MOL0     C78841   8.338   7.005   7.436  0.6917  0.3103 -0.5412
  598MOL0     C78842   8.315   7.146   7.388  0.4776 -0.0000  0.1693
  598MOL0     C78843   8.170   7.200   7.414 -1.0583  0.1237 -1.1443
  598MOL0     C78844   8.065   7.117   7.339  0.2217  0.3830  0.3214
  598MOL0     C78845   7.927   7.164   7.382 -0.7465 -0.4323 -0.4000
  598MOL0     C78846   7.823   7.073   7.328  0.2478 -0.2115 -0.0096
  598MOL0     C78847   7.793   7.082   7.175 -0.7264 -0.4270  0.4558
  598MOL0    Cl78848   7.659   6.971   7.151  0.2826 -0.2017 -0.6127
  598MOL0     C78849   8.756   6.933   7.524  0.4446  0.2963 -0.7492
  598MOL0     C78850   8.890   6.905   7.548 -0.7940  0.1101  0.2185
  598MOL0     O78851   9.155   6.895   7.507 -0.0926  0.3333  0.3960
  598MOL0     C78852   9.419   6.823   7.581 -0.9453 -0.0461  0.4981
  598MOL0     C78853   9.550   6.762   7.603  0.0866  0.0259 -0.7663
  598MOL0     N78854  10.107   6.454   7.292 -0.0205 -0.8789  0.7668
  598MOL0     N78855  10.230   6.474   7.302  0.1015 -0.4138 -0.2465
  598MOL0     C78856  11.197   6.776   7.817  0.8735 -0.1637 -0.9812
  598MOL0     C78857  11.251   6.818   7.938 -1.1710 -0.9135 -0.3507
  598MOL0     C78858  11.428   7.089   8.264 -0.2707 -0.3510 -0.2833
  598MOL0     C78859  11.543   7.011   8.283 -1.3427 -0.2064 -0.1912
  598MOL0     C78860  11.629   7.048   8.386 -0.2813  0.0948 -0.6786
  598MOL0     C78861  11.588   7.148   8.471 -0.6958  0.5086 -0.2955
  598MOL0     O78862  11.668   7.176   8.581  0.7333 -0.0258  0.2735
  598MOL0     C78863  11.753   7.289   8.561 -0.9612  0.2000 -0.6085
  598MOL0     C78864  11.816   7.342   8.695 -0.0449 -0.5850 -1.0449
  598MOL0     C78865  11.913   7.234   8.749  0.0238  0.3549  0.7708
  598MOL0     C78866  11.994   7.262   8.862 -0.0772 -0.2097 -0.7487
  598MOL0     C78867  11.929   7.290   8.984  0.3838  0.0629  0.0061
  598MOL0     C78868  11.885   7.337   9.086  0.4638 -0.7912  0.4255
  598MOL0     C78869  11.482   7.222   8.454 -0.3445  0.7618  0.3705
  598MOL0     C78870  11.404   7.197   8.353  0.0323  0.2444 -0.0976
  598MOL0     H78871  11.414   7.102   7.831 -1.2702  0.5117  0.3327
  598MOL0     H78872  11.328   7.038   7.625  3.1978  0.0693  1.5961
  598MOL0     H78873  10.968   6.732   7.633 -1.7789 -1.0261 -1.6165
  598MOL0     H78874  11.103   6.622   7.607 -0.8055  0.0143 -0.3475
  598MOL0     H78875  11.106   6.662   7.381  0.9754  1.2762  1.1448
  598MOL0     H78876  10.988   6.791   7.382  0.3512  2.2070  3.0550
  598MOL0     H78877  10.830   6.605   7.516 -0.1338 -1.5507  0.8137
  598MOL0     H78878  10.968   6.502   7.473  0.1226 -0.1195  1.2592
  598MOL0     H78879  10.769   6.629   7.273  0.4474  1.2729 -1.2404
  598MOL0     H78880  10.918   6.549   7.229  1.3335  2.0719 -0.1399
  598MOL0     H78881  10.843   6.329   7.304 -0.1022  0.0863 -0.1956
  598MOL0     H78882  10.734   6.392   7.192  0.1681 -2.0312  0.6098
  598MOL0     H78883  10.670   6.405   7.486 -1.9853  2.9224 -0.2599
  598MOL0     H78884  10.636   6.271   7.380 -0.3417  0.0152  2.1022
  598MOL0     H78885  10.484   6.537   7.371 -2.0259 -1.7647  2.7981
  598MOL0     H78886  10.520   6.437   7.224 -0.6529  1.5155  0.3970
  598MOL0     H78887  10.449   6.331   7.496 -0.6245  1.4007 -1.1351
  598MOL0     H78888  10.429   6.242   7.339 -1.8953  0.5758 -2.2924
  598MOL0     H78889  10.193   6.227   7.512  0.9083 -0.2083  0.1902
  598MOL0     H78890   9.904   6.222   7.374  1.5570 -1.1229  1.5690
  598MOL0     H78891   9.860   6.388   7.345 -2.8550 -1.1679  1.2917
  598MOL0     H78892   9.960   6.260   7.610 -1.7019 -1.7799  0.1656
  598MOL0     H78893   9.796   6.280   7.571  0.5454 -0.9329  2.6488
  598MOL0     H78894   9.878   6.445   7.726  0.3285 -0.0833 -0.6203
  598MOL0     H78895   9.998   6.508   7.612  0.9264 -1.4515  2.0538
  598MOL0     H78896   9.755   6.528   7.478  1.1371  1.7122 -0.4162
  598MOL0     H78897   9.817   6.665   7.573  2.8645 -1.0472  1.0661
  598MOL0     H78898   9.442   6.457   7.717 -3.1016  0.8242  0.8649
  598MOL0     H78899   9.225   6.563   7.690 -0.6678  0.6158  0.7563
  598MOL0     H78900   8.861   6.577   7.640  1.9657  1.1222  0.0382
  598MOL0     H78901   8.604   6.659   7.587 -0.6744  2.1318 -0.3035
  598MOL0     H78902   8.538   7.008   7.355 -0.4128 -0.1691 -0.1608
  598MOL0     H78903   8.518   7.053   7.524 -0.4330  0.9012 -1.1697
  598MOL0     H78904   8.287   6.995   7.533  0.5239 -1.8918 -0.8032
  598MOL0     H78905   8.286   6.936   7.368  1.0740  0.0060 -0.5256
  598MOL0     H78906   8.326   7.150   7.279  1.8630  1.8142  0.3177
  598MOL0     H78907   8.391   7.218   7.422  1.1363 -0.2608 -0.7064
  598MOL0     H78908   8.146   7.195   7.521  1.7402  4.1494 -0.0955
  598MOL0     H78909   8.154   7.308   7.405 -3.1196  0.1869  1.7920
  598MOL0     H78910   8.074   7.013   7.371  1.1098  1.8765  6.0984
  598MOL0     H78911   8.073   7.125   7.230 -4.5979  1.1143 -0.2195
  598MOL0     H78912   7.921   7.268   7.347  0.7442  0.1367  0.9148
  598MOL0     H78913   7.909   7.175   7.489  0.4656  1.2362 -0.3232
  598MOL0     H78914   7.845   6.966   7.341 -3.9788 -1.1384  0.8796
  598MOL0     H78915   7.734   7.091   7.388  1.6967 -2.6401  3.1923
  598MOL0     H78916   7.887   7.053   7.127 -0.1537 -3.6760  3.1337
  598MOL0     H78917   7.771   7.185   7.146  0.3980 -0.5251 -0.8464
  598MOL0     H78918   8.724   7.032   7.493 -0.7515 -0.4432 -2.0145
  598MOL0     H78919   8.957   6.991   7.553 -2.8918  1.8275  0.2314
  598MOL0     H78920   9.419   6.917   7.527  2.6444 -0.4351 -0.3779
  598MOL0     H78921   9.640   6.821   7.589  1.6924 -2.2703 -0.6543
  598MOL0     H78922  11.152   6.678   7.800 -3.5971  1.5827 -0.4495
  598MOL0     H78923  11.232   6.760   8.028 -2.9651 -1.1261 -0.8216
  598MOL0     H78924  11.574   6.923   8.228  0.2548  0.2101 -0.0162
  598MOL0     H78925  11.713   6.988   8.417  0.1704  2.5623  3.7527
  598MOL0     H78926  11.703   7.379   8.524  0.2056  2.1780  2.2738
  598MOL0     H78927  11.829   7.266   8.486  0.0675  1.4610  0.0016
  598MOL0     H78928  11.870   7.436   8.679  0.3151 -0.8223 -1.2481
  598MOL0     H78929  11.738   7.361   8.769  3.8546  0.1491  3.3901
  598MOL0     H78930  11.971   7.195   8.665 -1.7208  1.1120 -0.8651
  598MOL0     H78931  11.851   7.153   8.788 -0.6185  1.5060  2.2233
  598MOL0     H78932  12.052   7.169   8.868  0.0799 -0.0717  0.0999
  598MOL0     H78933  12.074   7.336   8.849  2.2283 -1.7728  2.8186
  598MOL0     H78934  11.842   7.394   9.166 -1.1919  0.0774 -0.9999
  598MOL0     H78935  11.466   7.306   8.521  1.3366  0.6260  0.9937
  598MOL0     H78936  11.326   7.271   8.334 -0.4833 -0.1822  0.3454
  599MOL0     O78937   2.086   1.729   3.679  0.9726 -0.1052 -0.6431
  599MOL0     C78938   2.011   1.686   3.592 -0.5291 -0.7733  0.0086
  599MOL0     O78939   2.049   1.596   3.484  0.7729 -0.1602 -0.1464
  599MOL0     C78940   2.180   1.553   3.476  0.2744 -0.8715 -0.5809
  599MOL0     C78941   2.217   1.424   3.507 -0.1933  0.5800  0.3424
  599MOL0     C78942   2.349   1.382   3.501  0.9434  0.1745  0.9593
  599MOL0     C78943   2.441   1.460   3.440  1.0036  0.4259  0.1984
  599MOL0     O78944   2.567   1.412   3.416 -0.3296  0.4393 -0.8664
  599MOL0     C78945   2.586   1.265   3.407  0.2147  0.1665  0.2645
  599MOL0     C78946   2.725   1.238   3.357  0.4909  0.4384 -0.2328
  599MOL0     C78947   2.757   1.101   3.377 -0.5971  0.6841 -0.6892
  599MOL0     C78948   2.674   1.025   3.273 -0.6551  0.6267 -0.2415
  599MOL0     C78949   2.575   0.923   3.346  0.3292 -0.2484  0.0575
  599MOL0     C78950   2.460   0.866   3.252 -0.8203 -0.4792  0.5469
  599MOL0     C78951   2.374   0.763   3.314  0.1248 -0.3767  0.1718
  599MOL0     C78952   2.322   0.665   3.208  0.1019 -0.1391 -0.1181
  599MOL0     N78953   2.219   0.723   3.120  0.2111 -0.2437  0.3607
  599MOL0     C78954   2.088   0.756   3.151  0.3334  0.1297 -0.1628
  599MOL0     C78955   2.039   0.806   3.041 -0.2905  0.1838  0.2744
  599MOL0     C78956   1.897   0.835   3.003 -0.6545  0.4332 -0.2105
  599MOL0     C78957   1.868   0.981   3.059  0.5318  0.7735  0.2521
  599MOL0     C78958   1.929   1.093   2.971  0.3112  0.0563  0.0231
  599MOL0     C78959   1.855   1.107   2.833 -0.0977 -0.5642  0.1414
  599MOL0     O78960   1.717   1.138   2.847 -0.4879 -0.4393 -0.4027
  599MOL0     C78961   1.642   1.137   2.736  0.4679 -0.5800 -0.3856
  599MOL0     C78962   1.681   1.119   2.603 -0.5400 -0.0910  0.8186
  599MOL0     C78963   1.581   1.108   2.499 -1.0468  0.1333  0.0002
  599MOL0     C78964   1.444   1.107   2.527 -0.9335  0.6040 -0.6472
  599MOL0     C78965   1.350   1.088   2.416 -0.6342 -0.0775  0.0589
  599MOL0     O78966   1.379   1.128   2.295 -0.1977 -1.0682  0.2956
  599MOL0     C78967   1.282   1.111   2.193 -0.5682  0.1218 -0.9959
  599MOL0     C78968   1.238   1.223   2.126  0.4241 -0.1774  0.7129
  599MOL0     C78969   1.161   1.202   2.007 -1.1628 -0.1034  0.0215
  599MOL0     C78970   1.117   1.073   1.972 -0.6451 -0.7579  0.2485
  599MOL0     O78971   1.024   1.068   1.870  0.1916 -0.2613 -1.4872
  599MOL0     C78972   0.987   0.948   1.809 -0.2433  0.2353 -0.0080
  599MOL0     C78973   0.853   0.891   1.878  0.3373  0.3129  0.2668
  599MOL0     C78974   0.733   0.988   1.881  0.0119 -0.3518 -0.7015
  599MOL0     C78975   0.602   0.914   1.922 -0.5940 -0.0898 -0.0279
  599MOL0     C78976   0.490   1.017   1.951 -0.0092  0.6250  1.0258
  599MOL0     C78977   0.362   0.940   1.990 -0.5426  1.1032 -0.1803
  599MOL0     C78978   0.244   1.031   2.007  0.3441 -0.1668 -0.2281
  599MOL0     C78979   0.134   1.010   1.894 -0.4350 -1.0842  0.1910
  599MOL0    Cl78980   0.009   1.112   1.967  0.2568 -0.0669  0.6059
  599MOL0     C78981   1.139   0.962   2.054 -0.6187 -0.1534 -0.3963
  599MOL0     C78982   1.232   0.979   2.160 -0.4845 -0.5700  0.2207
  599MOL0     O78983   1.240   1.035   2.445  0.1939  0.2105  0.3511
  599MOL0     C78984   1.407   1.116   2.656  0.0174  0.0399 -0.0719
  599MOL0     C78985   1.500   1.139   2.759 -0.3727  0.2010  0.1065
  599MOL0     N78986   2.137   0.792   2.938  0.5102  0.7254 -0.5520
  599MOL0     N78987   2.249   0.751   2.990  0.4410  0.0847 -0.0595
  599MOL0     C78988   2.416   1.591   3.423 -0.0468 -0.4761  0.1265
  599MOL0     C78989   2.279   1.639   3.425 -0.8147 -0.1938 -0.3895
  599MOL0     C78990   1.879   1.754   3.588  0.3433  0.3278 -0.5039
  599MOL0     C78991   1.848   1.873   3.659  0.0883 -0.0276  0.3526
  599MOL0     C78992   1.727   1.926   3.657 -0.6768 -0.1861  0.2424
  599MOL0     C78993   1.628   1.862   3.583  0.4821  0.4525  0.2156
  599MOL0     O78994   1.493   1.906   3.588 -0.0890  0.2312  0.0151
  599MOL0     C78995   1.480   2.051   3.609  0.1441 -0.0294  1.2558
  599MOL0     C78996   1.345   2.095   3.555  0.1471  0.6638 -0.8941
  599MOL0     C78997   1.318   2.242   3.573 -0.3797 -0.4113 -0.1754
  599MOL0     C78998   1.384   2.332   3.463  0.3517 -0.2693 -0.5596
  599MOL0     C78999   1.412   2.467   3.516  0.4417  0.1818  0.3315
  599MOL0     C79000   1.433   2.582   3.547 -0.1906 -0.8737  0.6661
  599MOL0     C79001   1.653   1.751   3.509  0.4174  0.4877 -0.2249
  599MOL0     C79002   1.776   1.685   3.523  0.7518 -0.0257 -0.5676
  599MOL0     H79003   2.135   1.360   3.538 -1.1766  2.1645  1.0878
  599MOL0     H79004   2.352   1.280   3.538  0.1490 -1.5791 -3.2264
  599MOL0     H79005   2.501   1.234   3.346  0.9641  1.0974 -1.3353
  599MOL0     H79006   2.567   1.220   3.505 -0.5416 -0.6752 -0.2626
  599MOL0     H79007   2.800   1.304   3.403 -0.4592 -1.0340  3.9203
  599MOL0     H79008   2.735   1.256   3.250  1.5683 -1.4434 -0.4886
  599MOL0     H79009   2.737   1.064   3.478  1.3841 -1.1605 -0.8983
  599MOL0     H79010   2.863   1.084   3.357 -0.5758 -1.9561  1.1429
  599MOL0     H79011   2.620   1.091   3.205 -1.4727 -0.0517 -0.2716
  599MOL0     H79012   2.745   0.963   3.218 -0.3015 -0.9511  1.8843
  599MOL0     H79013   2.529   0.966   3.435 -3.6609  1.2969 -2.4515
  599MOL0     H79014   2.631   0.838   3.386 -0.5778 -1.9280 -2.0166
  599MOL0     H79015   2.510   0.842   3.158  0.6353 -0.0856  1.1979
  599MOL0     H79016   2.393   0.952   3.238  0.3775  0.4404  0.3155
  599MOL0     H79017   2.406   0.707   3.403  0.0135 -0.6206  0.0601
  599MOL0     H79018   2.278   0.806   3.344 -1.5566 -4.9262  2.3536
  599MOL0     H79019   2.293   0.571   3.255 -0.4760 -0.3015 -0.7753
  599MOL0     H79020   2.405   0.629   3.147  1.4087  0.9761  0.9463
  599MOL0     H79021   2.027   0.727   3.236 -0.0241  0.7832 -0.1899
  599MOL0     H79022   1.831   0.759   3.046 -1.9177  1.8586  0.4607
  599MOL0     H79023   1.895   0.828   2.894  2.1674  3.5822 -0.6270
  599MOL0     H79024   1.885   0.982   3.167  1.8992 -0.5890  0.0940
  599MOL0     H79025   1.761   1.001   3.060 -0.4212 -3.3158 -0.2178
  599MOL0     H79026   1.932   1.179   3.038  2.8296  0.6118 -0.7250
  599MOL0     H79027   2.035   1.084   2.946  0.0765  0.8217 -1.3684
  599MOL0     H79028   1.875   1.016   2.776 -0.4484  0.5850 -1.9440
  599MOL0     H79029   1.901   1.193   2.783  0.1441 -1.2257 -0.8116
  599MOL0     H79030   1.784   1.117   2.568 -1.2317 -2.1774 -1.4200
  599MOL0     H79031   1.610   1.095   2.396 -2.2578 -1.3808 -0.1687
  599MOL0     H79032   1.282   1.319   2.155  1.2885 -0.3697  0.0806
  599MOL0     H79033   1.125   1.287   1.951  0.9655  0.6980 -0.2344
  599MOL0     H79034   1.070   0.878   1.800  0.7998  1.6157 -1.9880
  599MOL0     H79035   0.974   0.978   1.705  1.4698  1.5765  0.1231
  599MOL0     H79036   0.873   0.860   1.981 -2.6574 -1.0174  0.5603
  599MOL0     H79037   0.815   0.800   1.832  0.8157  0.3684 -0.2499
  599MOL0     H79038   0.706   1.038   1.787 -1.5258  1.6907  0.7322
  599MOL0     H79039   0.745   1.069   1.954 -0.4261  3.0676 -4.1179
  599MOL0     H79040   0.579   0.839   1.846 -1.6101  0.8514 -0.6754
  599MOL0     H79041   0.617   0.854   2.012 -3.7672 -0.3623  0.4275
  599MOL0     H79042   0.478   1.074   1.859  0.3568 -0.1154  0.5051
  599MOL0     H79043   0.518   1.090   2.028 -1.1267  1.8685  0.3002
  599MOL0     H79044   0.376   0.894   2.088  0.1840  1.5446 -0.0694
  599MOL0     H79045   0.334   0.862   1.920  2.0190 -1.4512  1.4182
  599MOL0     H79046   0.197   1.011   2.104 -1.1080  0.3202 -0.7976
  599MOL0     H79047   0.259   1.138   2.023 -0.5647  0.2835 -2.0438
  599MOL0     H79048   0.110   0.904   1.888  0.0380 -1.2048  0.4196
  599MOL0     H79049   0.173   1.056   1.803  0.9862 -1.2439  0.6986
  599MOL0     H79050   1.101   0.865   2.024  2.2416 -1.1439 -1.0833
  599MOL0     H79051   1.267   0.896   2.221  2.5609  1.4861  1.5039
  599MOL0     H79052   1.304   1.099   2.685 -0.1978 -0.1072 -0.9048
  599MOL0     H79053   1.461   1.142   2.860 -0.7641 -1.3338  0.0188
  599MOL0     H79054   2.498   1.650   3.382  0.7972 -1.3293  0.5351
  599MOL0     H79055   2.256   1.731   3.373 -2.1743 -0.2169  0.1160
  599MOL0     H79056   1.927   1.939   3.696  2.0948 -2.2575  0.2611
  599MOL0     H79057   1.711   2.022   3.705 -1.2265 -0.1267 -0.0567
  599MOL0     H79058   1.553   2.114   3.557 -1.7428 -0.1370 -1.8412
  599MOL0     H79059   1.486   2.075   3.715 -2.8191  2.0370  1.1072
  599MOL0     H79060   1.325   2.065   3.452  1.2331  1.4351 -1.3501
  599MOL0     H79061   1.268   2.043   3.612 -1.7841  2.1721 -2.0301
  599MOL0     H79062   1.363   2.279   3.666  1.5119  1.4914 -1.7341
  599MOL0     H79063   1.211   2.264   3.573 -0.4520 -0.7636  0.0893
  599MOL0     H79064   1.473   2.276   3.433  0.4686  0.5862 -1.8829
  599MOL0     H79065   1.332   2.336   3.367 -2.3119  2.6753  0.8277
  599MOL0     H79066   1.459   2.683   3.572 -1.7088 -0.4121  0.4873
  599MOL0     H79067   1.570   1.703   3.458  1.0201 -0.4993 -0.3194
  599MOL0     H79068   1.775   1.589   3.474 -0.0954 -1.1385  1.4883
  600MOL0     O79069   0.351   1.249   6.281 -0.0260  1.0684 -0.0231
  600MOL0     C79070   0.270   1.334   6.252  0.6738 -0.2271  0.0226
  600MOL0     O79071   0.288   1.476   6.245  0.3187 -0.2485 -0.9661
  600MOL0     C79072   0.412   1.529   6.215  0.3435 -0.1593 -0.3668
  600MOL0     C79073   0.514   1.454   6.143 -0.0250  0.5413  0.7890
  600MOL0     C79074   0.633   1.509   6.113  0.9209 -0.6477 -0.4755
  600MOL0     C79075   0.657   1.646   6.145 -0.6672  0.5596  0.1871
  600MOL0     O79076   0.776   1.712   6.110  0.4415  0.0434 -0.7558
  600MOL0     C79077   0.891   1.638   6.099 -0.2503 -0.0010 -0.5933
  600MOL0     C79078   1.013   1.728   6.072  0.0580  0.7249 -0.2409
  600MOL0     C79079   1.144   1.650   6.087 -0.1484 -0.1969  0.0952
  600MOL0     C79080   1.254   1.746   6.126  0.4937  0.6423  0.5182
  600MOL0     C79081   1.402   1.691   6.149 -0.8754  0.5342  0.2290
  600MOL0     C79082   1.476   1.669   6.012  0.4854  0.2229 -0.7761
  600MOL0     C79083   1.618   1.612   6.037 -1.1868 -0.2223  0.0158
  600MOL0     C79084   1.694   1.570   5.908 -0.1727 -0.1681  0.3602
  600MOL0     N79085   1.839   1.586   5.913 -0.2848  0.5610  0.1078
  600MOL0     C79086   1.916   1.527   6.010  0.8390  0.0573  0.3418
  600MOL0     C79087   2.040   1.505   5.975 -0.1398  0.3009 -0.1754
  600MOL0     C79088   2.152   1.452   6.054  1.0808  1.0703  0.3607
  600MOL0     C79089   2.163   1.293   6.064  1.2024 -0.7646 -0.4139
  600MOL0     C79090   2.145   1.231   5.926  0.2962  0.8604  0.0960
  600MOL0     C79091   2.135   1.083   5.909  0.4343  0.6363  0.1893
  600MOL0     O79092   2.036   1.029   5.990 -0.1409  0.4774  0.1508
  600MOL0     C79093   1.910   1.065   5.956 -0.1980 -0.0172 -0.0976
  600MOL0     C79094   1.835   1.151   6.039 -0.2762 -0.8702 -0.9541
  600MOL0     C79095   1.705   1.188   6.004 -0.5934  0.4842  0.0993
  600MOL0     C79096   1.643   1.130   5.896 -0.3885 -0.4205  0.3527
  600MOL0     C79097   1.504   1.146   5.869  0.0533  0.4458 -0.6009
  600MOL0     O79098   1.425   1.150   5.979  0.1907 -0.2747 -0.1147
  600MOL0     C79099   1.292   1.173   5.966  0.0758 -0.0289  0.1626
  600MOL0     C79100   1.229   1.294   5.909  0.0527 -0.0429 -0.6104
  600MOL0     C79101   1.090   1.323   5.916  0.9948 -0.1440  0.2011
  600MOL0     C79102   1.002   1.209   5.942  0.1593  0.3159 -0.1307
  600MOL0     O79103   0.863   1.226   5.956  0.2097  0.0004 -0.4131
  600MOL0     C79104   0.800   1.165   5.851 -0.1768  0.4945  0.7342
  600MOL0     C79105   0.662   1.221   5.827  0.7453 -0.4043 -0.0003
  600MOL0     C79106   0.553   1.120   5.785 -0.0120  0.8236 -1.0410
  600MOL0     C79107   0.427   1.177   5.745 -0.3966 -0.2843 -0.7389
  600MOL0     C79108   0.348   1.084   5.648  0.0709 -0.6850  0.4265
  600MOL0     C79109   0.232   1.167   5.574 -0.4327  0.3316 -0.1017
  600MOL0     C79110   0.162   1.081   5.468  0.1242 -0.6658 -0.2574
  600MOL0     C79111   0.056   1.149   5.384  0.7161 -0.0290  0.2275
  600MOL0    Cl79112   0.036   1.033   5.250  0.3561  0.0545 -0.4105
  600MOL0     C79113   1.060   1.088   5.981 -0.4928 -0.3044 -1.1777
  600MOL0     C79114   1.203   1.073   5.997 -0.0176 -0.0447  0.9269
  600MOL0     O79115   1.465   1.163   5.757 -0.5098  0.5742  0.5872
  600MOL0     C79116   1.718   1.044   5.811 -0.2128  0.4054 -0.0629
  600MOL0     C79117   1.848   1.006   5.845  0.5915  0.0200  0.2139
  600MOL0     N79118   2.037   1.549   5.844  0.5969 -0.8004  1.0766
  600MOL0     N79119   1.923   1.592   5.809  0.1411 -0.4786 -1.1278
  600MOL0     C79120   0.559   1.713   6.216  0.5916 -0.4940 -0.4586
  600MOL0     C79121   0.432   1.662   6.255  0.1187 -0.0442  0.1652
  600MOL0     C79122   0.138   1.288   6.221  0.1098 -0.6490 -0.4394
  600MOL0     C79123   0.094   1.157   6.263 -1.1611 -0.1934  0.1084
  600MOL0     C79124  -0.043   1.112   6.250  0.5554  0.2800 -0.3682
  600MOL0     C79125  -0.133   1.185   6.180 -0.2375 -0.2557  0.6436
  600MOL0     O79126  -0.256   1.156   6.139  0.8538 -0.1515 -0.6385
  600MOL0     C79127  -0.331   1.050   6.199 -0.1874  0.4439  0.0453
  600MOL0     C79128  -0.485   1.075   6.189  0.3349  0.3237  0.4443
  600MOL0     C79129  -0.548   1.041   6.049 -0.7991 -0.4559 -0.2124
  600MOL0     C79130  -0.699   1.019   6.051 -0.5514  0.5147  0.4061
  600MOL0     C79131  -0.757   1.135   6.110 -0.0982 -0.4875  0.5389
  600MOL0     C79132  -0.824   1.226   6.134  0.0462 -0.1581 -1.1392
  600MOL0     C79133  -0.082   1.303   6.125 -0.2472 -0.4008 -0.9167
  600MOL0     C79134   0.042   1.358   6.153 -0.6615  0.5385  0.4361
  600MOL0     H79135   0.503   1.358   6.092 -2.2546  0.0506  2.0835
  600MOL0     H79136   0.706   1.453   6.055  1.4316  0.9041 -1.3721
  600MOL0     H79137   0.873   1.569   6.016 -3.0909  0.1083 -0.1893
  600MOL0     H79138   0.903   1.582   6.191 -1.7181  2.3085  1.1132
  600MOL0     H79139   1.012   1.813   6.141 -0.5063  1.5194 -1.2116
  600MOL0     H79140   1.008   1.770   5.971  2.7131  2.1238  0.1158
  600MOL0     H79141   1.170   1.597   5.995  0.8666 -3.1992  1.9410
  600MOL0     H79142   1.140   1.563   6.154  0.1146 -1.0924 -1.0234
  600MOL0     H79143   1.257   1.822   6.048  3.0756  1.6223  1.4538
  600MOL0     H79144   1.229   1.791   6.223  3.6276  3.2780  0.2765
  600MOL0     H79145   1.394   1.601   6.210  2.8752  1.5334  2.5504
  600MOL0     H79146   1.468   1.753   6.211 -0.5544 -1.5870  2.1049
  600MOL0     H79147   1.488   1.756   5.946 -1.0825  0.6868 -0.4845
  600MOL0     H79148   1.410   1.603   5.955 -1.9637  1.0838  0.9290
  600MOL0     H79149   1.683   1.686   6.084  4.5048 -2.0611 -3.9038
  600MOL0     H79150   1.614   1.526   6.105 -0.0920 -0.2541  0.0478
  600MOL0     H79151   1.656   1.632   5.826 -0.6238 -0.9881 -0.0783
  600MOL0     H79152   1.665   1.474   5.863 -1.3006  1.1766 -1.9961
  600MOL0     H79153   1.870   1.493   6.103  0.5249 -2.1166 -0.5479
  600MOL0     H79154   2.150   1.497   6.153 -4.3489  3.6991 -0.5772
  600MOL0     H79155   2.245   1.476   6.001  0.6455  2.5043  0.1934
  600MOL0     H79156   2.083   1.262   6.132  1.4308  2.1947  1.3732
  600MOL0     H79157   2.262   1.269   6.103  0.3375 -2.8386  0.6993
  600MOL0     H79158   2.057   1.265   5.872  0.2109 -0.9010 -0.9388
  600MOL0     H79159   2.236   1.277   5.888 -0.1034  1.4515 -0.1581
  600MOL0     H79160   2.228   1.049   5.955  0.3643  0.0548 -0.0973
  600MOL0     H79161   2.133   1.057   5.803 -1.2188  1.5440 -0.0294
  600MOL0     H79162   1.884   1.203   6.121 -1.4911  2.5087 -2.1773
  600MOL0     H79163   1.650   1.266   6.056  0.7347  1.0482  0.6826
  600MOL0     H79164   1.286   1.385   5.889 -2.5205  1.7618 -0.2583
  600MOL0     H79165   1.054   1.425   5.901 -0.9339 -1.1054 -2.5177
  600MOL0     H79166   0.790   1.059   5.873 -0.6696  0.7841  1.9590
  600MOL0     H79167   0.855   1.183   5.757 -3.8326 -1.0669 -1.9366
  600MOL0     H79168   0.658   1.315   5.773 -1.0286 -1.1332 -1.2262
  600MOL0     H79169   0.629   1.248   5.928  0.9542  2.8380 -0.6896
  600MOL0     H79170   0.524   1.057   5.870 -2.2168  4.2025  0.9073
  600MOL0     H79171   0.593   1.063   5.700 -2.6971 -0.6922 -1.4040
  600MOL0     H79172   0.359   1.198   5.828 -2.2434 -2.2951 -1.6297
  600MOL0     H79173   0.452   1.266   5.688  0.2490 -1.3343 -2.1522
  600MOL0     H79174   0.300   0.998   5.696 -0.8888  0.8098  2.3273
  600MOL0     H79175   0.412   1.036   5.574  0.6776 -0.8339  1.0399
  600MOL0     H79176   0.264   1.256   5.519  0.5025  1.2705  1.8560
  600MOL0     H79177   0.163   1.184   5.658 -1.3388 -0.6080 -0.6347
  600MOL0     H79178   0.244   1.056   5.400  1.5818  0.1971  1.1094
  600MOL0     H79179   0.120   0.988   5.508 -0.2859 -0.5446 -0.3999
  600MOL0     H79180   0.088   1.250   5.355 -0.9611  1.3005  2.6080
  600MOL0     H79181  -0.036   1.157   5.444  0.4047 -1.4970 -0.0215
  600MOL0     H79182   1.001   1.000   6.005  1.0695 -1.1152 -0.0949
  600MOL0     H79183   1.247   0.977   6.022  0.3716 -0.6070 -1.6009
  600MOL0     H79184   1.671   0.994   5.727  1.0691 -1.8166  0.4762
  600MOL0     H79185   1.908   0.939   5.783 -0.7771  0.9568 -2.2666
  600MOL0     H79186   0.582   1.808   6.263 -0.8116  0.3740 -1.4869
  600MOL0     H79187   0.359   1.723   6.309  1.1316  1.5433 -0.2048
  600MOL0     H79188   0.166   1.096   6.316 -1.3364 -0.1066  0.4447
  600MOL0     H79189  -0.061   1.008   6.277  6.0380 -0.8829 -0.1681
  600MOL0     H79190  -0.301   1.043   6.304  4.2971 -0.8122 -1.1216
  600MOL0     H79191  -0.292   0.962   6.148  0.9552 -0.1850  1.9165
  600MOL0     H79192  -0.529   1.014   6.269  0.8182  0.7545  1.0425
  600MOL0     H79193  -0.493   1.183   6.200 -1.1244  0.5088 -1.7756
  600MOL0     H79194  -0.516   0.945   6.006  1.7858 -0.1010  0.7446
  600MOL0     H79195  -0.513   1.114   5.976 -0.0899 -0.0103  0.5612
  600MOL0     H79196  -0.745   1.010   5.952 -3.9735  0.9716  1.7974
  600MOL0     H79197  -0.734   0.931   6.106  0.6849 -0.1777  0.1145
  600MOL0     H79198  -0.875   1.317   6.161 -0.8301 -0.8012 -0.5480
  600MOL0     H79199  -0.153   1.361   6.068 -0.0176  0.5514 -0.2513
  600MOL0     H79200   0.066   1.455   6.113  1.5898 -0.1926 -0.1220
  601MOL0     O79201   0.018  10.427  10.881  1.5952  0.0543 -0.6135
  601MOL0     C79202  -0.044  10.426  10.778  0.3229  0.5445 -0.4472
  601MOL0     O79203  -0.032  10.512  10.678  0.8769 -0.9046  0.6354
  601MOL0     C79204   0.079  10.585  10.655 -1.0214 -1.0252  0.6300
  601MOL0     C79205   0.062  10.680  10.557 -0.3153 -0.3806  0.9959
  601MOL0     C79206   0.158  10.764  10.518  0.5295  0.1267 -0.1933
  601MOL0     C79207   0.285  10.760  10.567  0.4579 -0.4536 -0.2393
  601MOL0     O79208   0.380  10.848  10.515  0.1881 -1.0552 -0.0359
  601MOL0     C79209   0.514  10.857  10.566  0.2077 -0.4152  0.4283
  601MOL0     C79210   0.588  10.981  10.494 -0.6872  0.8421  0.1059
  601MOL0     C79211   0.533  11.023  10.351  0.5859 -0.2662 -0.0594
  601MOL0     C79212   0.567  10.927  10.243 -0.3342  0.1801  0.7685
  601MOL0     C79213   0.458  10.914  10.136  0.0130  0.8960  0.2655
  601MOL0     C79214   0.334  10.841  10.195  0.5516 -0.1295  0.4174
  601MOL0     C79215   0.250  10.765  10.084  0.6286 -0.9438  0.4706
  601MOL0     C79216   0.185  10.646  10.144  0.2741  0.0088  0.1560
  601MOL0     N79217   0.059  10.617  10.067 -0.2424  0.2870 -0.2329
  601MOL0     C79218  -0.068  10.633  10.122  1.0301  0.4612 -0.7780
  601MOL0     C79219  -0.145  10.577  10.031  1.4196  0.5283 -0.0861
  601MOL0     C79220  -0.291  10.560  10.056 -0.1614 -0.0343 -0.3004
  601MOL0     C79221  -0.384  10.541   9.947 -0.1868  0.0467  0.4013
  601MOL0     C79222  -0.377  10.394   9.886  0.7390 -0.2310  0.4042
  601MOL0     C79223  -0.513  10.350   9.826  0.8742  0.3350 -0.4633
  601MOL0     O79224  -0.553  10.445   9.724  0.5562 -0.0453 -0.1346
  601MOL0     C79225  -0.688  10.445   9.684 -0.3498 -0.1137 -0.3741
  601MOL0     C79226  -0.788  10.355   9.735  0.0994 -0.0829  1.2262
  601MOL0     C79227  -0.916  10.361   9.671  0.3110 -0.1936 -0.8611
  601MOL0     C79228  -0.944  10.455   9.561 -0.1247 -0.0124  0.2631
  601MOL0     C79229  -1.083  10.451   9.493  0.4404  0.3239  0.9062
  601MOL0     O79230  -1.123  10.566   9.425 -0.1090  0.0408 -0.3619
  601MOL0     C79231  -1.253  10.568   9.375 -0.2948  0.8935  0.1766
  601MOL0     C79232  -1.356  10.633   9.438 -0.4566  0.0288  0.2131
  601MOL0     C79233  -1.481  10.633   9.386  0.4404  0.6982 -0.3687
  601MOL0     C79234  -1.517  10.544   9.276 -0.3711 -0.2441 -0.1490
  601MOL0     O79235  -1.647  10.529   9.252 -0.3788  0.6391  0.4572
  601MOL0     C79236  -1.681  10.448   9.138  0.8611  0.0306  0.0352
  601MOL0     C79237  -1.838  10.444   9.120  0.8297 -0.5210  0.7184
  601MOL0     C79238  -1.879  10.374   8.991  0.3526  0.0477 -0.5591
  601MOL0     C79239  -2.039  10.392   8.991 -0.8714 -0.4666 -0.0071
  601MOL0     C79240  -2.099  10.338   8.857  0.1933 -1.2253 -0.1446
  601MOL0     C79241  -2.250  10.366   8.840 -0.2330 -0.3828 -1.2878
  601MOL0     C79242  -2.340  10.299   8.947 -0.4966  0.3525 -0.2799
  601MOL0     C79243  -2.490  10.350   8.935  0.7580  0.6881  0.1133
  601MOL0    Cl79244  -2.577  10.260   8.793 -0.3968  0.1009 -0.3351
  601MOL0     C79245  -1.413  10.471   9.219  0.2375  0.8814  0.4268
  601MOL0     C79246  -1.283  10.491   9.259  0.5130 -0.4297  0.1799
  601MOL0     O79247  -1.144  10.340   9.499 -0.2979 -0.5472 -1.0965
  601MOL0     C79248  -0.842  10.546   9.529 -0.0433 -0.4188 -0.1183
  601MOL0     C79249  -0.718  10.545   9.591  0.2724  0.1294  0.5409
  601MOL0     N79250  -0.073  10.532   9.926 -1.0691  0.5758 -0.4229
  601MOL0     N79251   0.050  10.551   9.946 -0.8844  0.1551 -0.8537
  601MOL0     C79252   0.315  10.666  10.680 -0.2864 -0.0071 -0.0752
  601MOL0     C79253   0.209  10.577  10.719 -0.7482 -0.5611  0.4722
  601MOL0     C79254  -0.159  10.323  10.778  0.2979 -0.0049 -0.4344
  601MOL0     C79255  -0.282  10.345  10.726  0.0521 -0.5948  0.0119
  601MOL0     C79256  -0.389  10.247  10.724 -0.6247  0.5186 -0.8072
  601MOL0     C79257  -0.365  10.117  10.771 -0.2467 -0.1615 -0.3571
  601MOL0     O79258  -0.443  10.003  10.770 -0.3259  0.3374 -0.6420
  601MOL0     C79259  -0.583  10.021  10.736 -0.3602 -0.1359 -0.4809
  601MOL0     C79260  -0.632   9.874  10.749 -1.1059 -0.1274  0.4085
  601MOL0     C79261  -0.623   9.803  10.874  0.9306  0.1593 -0.9063
  601MOL0     C79262  -0.651   9.647  10.859 -0.6449 -0.4562  0.3228
  601MOL0     C79263  -0.764   9.605  10.765 -0.3881 -0.8894 -0.0608
  601MOL0     C79264  -0.853   9.586  10.690  0.0611 -0.4301  0.6148
  601MOL0     C79265  -0.240  10.101  10.833 -0.7549 -0.0042  0.8107
  601MOL0     C79266  -0.138  10.198  10.836 -0.0815 -0.1806 -0.1721
  601MOL0     H79267  -0.033  10.704  10.511  1.2528  1.2735 -1.6763
  601MOL0     H79268   0.130  10.839  10.445  0.9138  0.8922  0.4272
  601MOL0     H79269   0.577  10.770  10.545  1.5737  0.1396  1.9798
  601MOL0     H79270   0.520  10.872  10.674  0.5734  1.0226  0.2260
  601MOL0     H79271   0.688  10.939  10.483 -1.5010 -0.8417 -1.3977
  601MOL0     H79272   0.592  11.066  10.562 -0.1426 -0.9417  2.4235
  601MOL0     H79273   0.582  11.115  10.316 -0.8550  0.6066  0.1552
  601MOL0     H79274   0.428  11.051  10.364  1.1690  1.5001  1.1754
  601MOL0     H79275   0.662  10.950  10.194 -0.6528  3.0891  1.3030
  601MOL0     H79276   0.576  10.830  10.294  1.1081  0.2370  0.6681
  601MOL0     H79277   0.490  10.839  10.063 -1.4326 -0.7288  1.2299
  601MOL0     H79278   0.432  11.009  10.088  0.4595 -0.3476 -2.6318
  601MOL0     H79279   0.274  10.902  10.264 -2.4097 -1.2111 -1.0303
  601MOL0     H79280   0.371  10.754  10.250  3.0271 -0.0053 -0.9173
  601MOL0     H79281   0.173  10.837  10.054 -0.4148 -1.5572  1.6321
  601MOL0     H79282   0.315  10.734  10.002 -0.1415 -0.9723 -0.1310
  601MOL0     H79283   0.159  10.661  10.249 -2.2160  2.2221 -0.6555
  601MOL0     H79284   0.248  10.558  10.127  0.9678  0.2780  1.2094
  601MOL0     H79285  -0.098  10.684  10.213 -0.2122  2.0015 -1.9929
  601MOL0     H79286  -0.322  10.650  10.109  1.0926  0.4093 -0.3098
  601MOL0     H79287  -0.309  10.472  10.118  1.1450  0.7082  1.1819
  601MOL0     H79288  -0.377  10.619   9.870  0.5158  0.6736  1.0865
  601MOL0     H79289  -0.486  10.552   9.987 -1.4315 -0.7094 -2.3202
  601MOL0     H79290  -0.315  10.407   9.798 -2.4446  0.4160 -1.9391
  601MOL0     H79291  -0.356  10.323   9.967  1.2049  0.2811  0.7423
  601MOL0     H79292  -0.584  10.352   9.909 -0.3110 -4.3898 -1.0525
  601MOL0     H79293  -0.509  10.248   9.786  1.5505  0.5127 -0.8766
  601MOL0     H79294  -0.779  10.275   9.808  0.8075 -0.7632  0.4205
  601MOL0     H79295  -0.993  10.289   9.696  1.0671 -0.4007  1.0330
  601MOL0     H79296  -1.329  10.706   9.514 -0.1184  1.5918 -1.3360
  601MOL0     H79297  -1.566  10.677   9.437 -1.5036 -3.1837  0.1732
  601MOL0     H79298  -1.649  10.346   9.163  1.1615  0.3848  1.1635
  601MOL0     H79299  -1.632  10.476   9.044  0.7552  1.8639  0.4972
  601MOL0     H79300  -1.871  10.548   9.114 -1.4429 -1.2472 -3.9316
  601MOL0     H79301  -1.871  10.389   9.209  0.8878 -1.2009  0.3251
  601MOL0     H79302  -1.837  10.273   8.992  1.8951  0.6677  0.1097
  601MOL0     H79303  -1.836  10.426   8.905  1.8022  1.1779  0.7947
  601MOL0     H79304  -2.064  10.337   9.083  1.2432  0.1361  0.9805
  601MOL0     H79305  -2.068  10.497   9.001  2.9069  1.2138 -3.7426
  601MOL0     H79306  -2.088  10.233   8.883 -1.2261 -1.2847  0.2924
  601MOL0     H79307  -2.029  10.368   8.779  0.6688 -1.1215  0.3155
  601MOL0     H79308  -2.285  10.332   8.742 -2.1589  1.8108 -1.4492
  601MOL0     H79309  -2.260  10.475   8.847  4.1387  0.0990  3.5407
  601MOL0     H79310  -2.347  10.192   8.928 -1.8058  0.4698 -0.5862
  601MOL0     H79311  -2.304  10.323   9.047  1.1280  3.2688 -1.4323
  601MOL0     H79312  -2.495  10.459   8.925  1.3990  0.8784  1.5048
  601MOL0     H79313  -2.534  10.324   9.032  1.8447  0.1378  0.4805
  601MOL0     H79314  -1.445  10.411   9.134 -0.5821  2.7742 -0.6503
  601MOL0     H79315  -1.200  10.438   9.212  0.3476 -0.6458  0.1355
  601MOL0     H79316  -0.860  10.622   9.453  1.4570  1.6910  1.5229
  601MOL0     H79317  -0.641  10.614   9.559 -1.2692  1.5081 -0.2751
  601MOL0     H79318   0.410  10.667  10.733 -0.0824 -1.7759 -0.3487
  601MOL0     H79319   0.236  10.513  10.802  2.4951  1.6004  1.2263
  601MOL0     H79320  -0.296  10.435  10.667 -2.2163 -0.0651  1.2575
  601MOL0     H79321  -0.487  10.272  10.687 -1.5982 -2.9898 -0.9513
  601MOL0     H79322  -0.581  10.061  10.634 -1.4671  0.6776 -0.1982
  601MOL0     H79323  -0.637  10.088  10.803 -0.4286  1.2313 -1.8674
  601MOL0     H79324  -0.729   9.879  10.698 -1.5848  1.9067  1.4079
  601MOL0     H79325  -0.576   9.810  10.681 -2.3596 -2.1011  1.1202
  601MOL0     H79326  -0.690   9.849  10.947  2.4075  0.8290  0.0876
  601MOL0     H79327  -0.528   9.817  10.926 -0.5562  0.1865  2.0541
  601MOL0     H79328  -0.560   9.605  10.817 -1.5407  0.3684 -2.6443
  601MOL0     H79329  -0.666   9.604  10.959  2.1521 -0.6539  0.7281
  601MOL0     H79330  -0.928   9.581  10.613  0.5741 -0.5496  0.1130
  601MOL0     H79331  -0.220  10.005  10.880  0.9265 -0.9389 -1.5811
  601MOL0     H79332  -0.038  10.169  10.864  0.5998  3.3147  1.4780
  602MOL0     O79333   3.597   1.564   1.200  0.4858  0.4776 -0.7775
  602MOL0     C79334   3.668   1.472   1.233 -0.2386  0.7586  0.3743
  602MOL0     O79335   3.643   1.348   1.270  0.8150  0.5276 -0.2580
  602MOL0     C79336   3.515   1.287   1.296 -0.6887 -1.0538  0.1784
  602MOL0     C79337   3.516   1.147   1.312 -0.9188 -0.2469 -0.6053
  602MOL0     C79338   3.394   1.074   1.325 -0.0758  0.3706  1.0712
  602MOL0     C79339   3.271   1.138   1.306 -0.0964 -0.6081  0.6462
  602MOL0     O79340   3.156   1.067   1.337 -0.0476 -0.7131  0.2128
  602MOL0     C79341   3.066   1.125   1.427 -0.3383 -0.1782  0.1494
  602MOL0     C79342   2.933   1.055   1.436  0.0452  0.3660  0.3543
  602MOL0     C79343   2.840   1.116   1.532  0.5310  0.0551  0.0072
  602MOL0     C79344   2.713   1.036   1.534  0.2812 -0.6237  0.1142
  602MOL0     C79345   2.725   0.909   1.616  0.4714  0.4121 -0.0135
  602MOL0     C79346   2.578   0.857   1.654  0.1033  0.2726 -0.1534
  602MOL0     C79347   2.570   0.748   1.752 -0.4002  0.0053  0.7632
  602MOL0     C79348   2.439   0.668   1.765  0.1705  1.2741 -0.3144
  602MOL0     N79349   2.316   0.745   1.786 -0.1334 -0.2233 -0.2321
  602MOL0     C79350   2.195   0.712   1.727 -0.9502  0.4907 -0.6249
  602MOL0     C79351   2.109   0.811   1.760 -0.6527  0.6250  0.7892
  602MOL0     C79352   1.965   0.826   1.723 -0.9652  0.1447  0.0836
  602MOL0     C79353   1.946   0.809   1.572 -0.1685  0.4290 -0.2142
  602MOL0     C79354   1.812   0.872   1.549  0.7915 -0.1507  0.3173
  602MOL0     C79355   1.692   0.800   1.617 -0.0644 -0.3781  0.7602
  602MOL0     O79356   1.569   0.873   1.588  0.3967 -0.5618  0.1451
  602MOL0     C79357   1.449   0.806   1.596 -0.5691  0.3414 -0.0062
  602MOL0     C79358   1.342   0.870   1.538 -0.1820  0.1087  0.4302
  602MOL0     C79359   1.214   0.817   1.549  1.2667  0.5013  0.1426
  602MOL0     C79360   1.191   0.701   1.618  0.2183  0.1834  0.2886
  602MOL0     C79361   1.054   0.637   1.624 -0.0967 -0.4462  0.0266
  602MOL0     O79362   0.954   0.699   1.554 -0.1711  0.5139 -0.0758
  602MOL0     C79363   0.823   0.662   1.562  0.4588  0.2620 -0.1371
  602MOL0     C79364   0.745   0.716   1.462 -0.1528 -0.2819 -0.5749
  602MOL0     C79365   0.606   0.714   1.457  1.3287 -0.1921 -0.7088
  602MOL0     C79366   0.537   0.630   1.542 -0.2086 -0.1513  0.2684
  602MOL0     O79367   0.400   0.617   1.534 -0.4169 -0.4755  0.6311
  602MOL0     C79368   0.334   0.731   1.591  0.3571 -0.2974 -0.1347
  602MOL0     C79369   0.182   0.728   1.577  0.2651  0.1931  0.5834
  602MOL0     C79370   0.120   0.770   1.437  0.1845 -0.2412  0.1779
  602MOL0     C79371   0.160   0.906   1.374 -0.5065 -0.1250 -0.9573
  602MOL0     C79372   0.079   0.952   1.252 -0.9040 -0.1315 -0.4920
  602MOL0     C79373   0.076   0.853   1.123  0.6675  0.0187  0.2887
  602MOL0     C79374   0.220   0.827   1.080 -0.3106  0.1462 -0.0116
  602MOL0     C79375   0.245   0.758   0.947 -0.3278  0.3420  0.9433
  602MOL0    Cl79376   0.178   0.858   0.809 -0.0353 -0.4223 -0.2568
  602MOL0     C79377   0.612   0.572   1.648  0.0597  0.1274  0.6785
  602MOL0     C79378   0.742   0.598   1.664 -0.7954  0.2099 -0.3635
  602MOL0     O79379   1.038   0.532   1.686  0.1312 -0.1478  0.3292
  602MOL0     C79380   1.295   0.640   1.692  0.6050  0.7822 -0.5957
  602MOL0     C79381   1.429   0.686   1.666  0.7012  0.7400  0.2518
  602MOL0     N79382   2.180   0.910   1.837 -1.0741  0.1340 -0.5454
  602MOL0     N79383   2.299   0.861   1.853  0.2321  0.0069  0.8564
  602MOL0     C79384   3.270   1.276   1.286 -0.1570  0.2439 -1.3377
  602MOL0     C79385   3.391   1.355   1.274 -0.1306  0.8142 -0.3510
  602MOL0     C79386   3.815   1.511   1.219  1.0674 -0.1497 -1.5066
  602MOL0     C79387   3.860   1.640   1.195 -0.3783 -0.3159 -0.8995
  602MOL0     C79388   4.001   1.653   1.174  0.5372 -0.2706  0.6112
  602MOL0     C79389   4.093   1.551   1.193  0.0630  0.1642 -0.0645
  602MOL0     O79390   4.226   1.556   1.171  0.4504 -0.6204 -0.0794
  602MOL0     C79391   4.289   1.685   1.136  0.2880  0.5046  0.0186
  602MOL0     C79392   4.424   1.661   1.074 -0.2352  0.1785 -0.2416
  602MOL0     C79393   4.526   1.571   1.139 -0.9533 -1.0388 -0.1204
  602MOL0     C79394   4.659   1.564   1.066 -0.0577 -0.9245 -0.2394
  602MOL0     C79395   4.758   1.495   1.147  0.1480  0.5866  0.0127
  602MOL0     C79396   4.838   1.425   1.206 -0.3407 -0.0632  0.0613
  602MOL0     C79397   4.044   1.425   1.238 -0.0873 -0.3950 -0.3087
  602MOL0     C79398   3.909   1.407   1.249  1.0873 -0.1230 -0.1912
  602MOL0     H79399   3.610   1.093   1.318 -0.9845 -0.2461  0.8659
  602MOL0     H79400   3.402   0.966   1.327  1.9228  0.3446 -1.6871
  602MOL0     H79401   3.042   1.226   1.394 -0.9060  0.1692  1.5650
  602MOL0     H79402   3.107   1.134   1.528 -0.9579  1.6053  0.2800
  602MOL0     H79403   2.941   0.947   1.451 -0.9588  0.1145 -0.7380
  602MOL0     H79404   2.887   1.062   1.337  2.0697  1.3060 -0.5519
  602MOL0     H79405   2.821   1.218   1.496 -0.1194  0.0487  0.3164
  602MOL0     H79406   2.890   1.107   1.629  0.4198 -1.9739 -0.0830
  602MOL0     H79407   2.655   1.115   1.583  2.7270  1.4127 -0.0324
  602MOL0     H79408   2.669   1.017   1.436 -2.7895 -0.6964  1.3922
  602MOL0     H79409   2.779   0.927   1.709 -0.2863  0.1018  0.5006
  602MOL0     H79410   2.771   0.830   1.557  0.6270  1.1106 -0.8651
  602MOL0     H79411   2.526   0.831   1.562  2.4730  0.5053 -1.6631
  602MOL0     H79412   2.533   0.935   1.716  2.8327 -0.2223  2.7067
  602MOL0     H79413   2.656   0.681   1.742  0.7450  1.7152 -2.3691
  602MOL0     H79414   2.575   0.809   1.842 -3.7859  0.2424  0.9088
  602MOL0     H79415   2.447   0.586   1.838 -1.8279  2.3485  1.2177
  602MOL0     H79416   2.420   0.615   1.671  1.5702  2.4525 -1.3065
  602MOL0     H79417   2.167   0.622   1.673  0.5037 -0.2542 -0.1873
  602MOL0     H79418   1.939   0.928   1.753  0.1412  0.1606  1.0868
  602MOL0     H79419   1.910   0.764   1.795  0.2110 -1.0921 -0.0409
  602MOL0     H79420   1.961   0.709   1.530 -1.6254 -0.8062  2.0259
  602MOL0     H79421   2.018   0.881   1.530 -1.5925  3.4490  2.1564
  602MOL0     H79422   1.806   0.974   1.587  1.5853 -0.1001  0.3272
  602MOL0     H79423   1.790   0.870   1.442  1.7424  0.0680  0.1145
  602MOL0     H79424   1.692   0.803   1.726 -1.5036 -0.1134  0.7761
  602MOL0     H79425   1.695   0.693   1.591  1.5693 -0.1249 -0.1973
  602MOL0     H79426   1.365   0.963   1.486 -0.9677 -1.2176 -2.4863
  602MOL0     H79427   1.132   0.856   1.489  1.6753 -1.7855 -2.0522
  602MOL0     H79428   0.787   0.792   1.397 -1.7360  0.7099 -0.4802
  602MOL0     H79429   0.554   0.763   1.375 -1.4174 -2.1823 -0.3010
  602MOL0     H79430   0.382   0.819   1.546  3.4613 -2.4972 -1.4342
  602MOL0     H79431   0.359   0.723   1.697 -0.2807  1.2365  0.1656
  602MOL0     H79432   0.131   0.793   1.648 -0.3375 -2.0881  2.3255
  602MOL0     H79433   0.144   0.630   1.607  4.6244 -1.5277  1.3247
  602MOL0     H79434   0.011   0.765   1.443 -0.2810  4.0926 -0.9299
  602MOL0     H79435   0.158   0.698   1.364  1.8955  0.0691  0.7133
  602MOL0     H79436   0.131   0.984   1.445 -2.1862 -0.2817 -1.4451
  602MOL0     H79437   0.267   0.919   1.354  0.2754  0.0032  2.7226
  602MOL0     H79438   0.106   1.052   1.217 -1.8118  0.2548 -0.1214
  602MOL0     H79439  -0.022   0.973   1.289 -0.3591  0.8789  0.4925
  602MOL0     H79440   0.033   0.910   1.039 -0.6020  0.4030  1.1574
  602MOL0     H79441   0.020   0.759   1.131 -1.8223  1.5250  2.1034
  602MOL0     H79442   0.263   0.927   1.081  2.0513 -0.7841  0.0721
  602MOL0     H79443   0.268   0.759   1.151 -0.2512 -1.0282 -1.1338
  602MOL0     H79444   0.196   0.661   0.942 -1.6321  1.0367 -0.9884
  602MOL0     H79445   0.353   0.746   0.932 -0.6099  0.0398 -1.1143
  602MOL0     H79446   0.558   0.497   1.705  0.1997 -0.5899 -0.1107
  602MOL0     H79447   0.793   0.570   1.755  0.0625  0.6693 -0.6883
  602MOL0     H79448   1.284   0.553   1.755 -2.2198  3.4689  3.0098
  602MOL0     H79449   1.511   0.625   1.703  0.4195  0.0914 -0.1753
  602MOL0     H79450   3.175   1.328   1.285 -0.1147  0.5131  1.2686
  602MOL0     H79451   3.386   1.458   1.241  0.6051 -0.0408 -3.4200
  602MOL0     H79452   3.796   1.728   1.193 -1.7814 -1.3023 -0.5910
  602MOL0     H79453   4.032   1.748   1.132 -1.8536  0.0638 -0.5499
  602MOL0     H79454   4.298   1.743   1.228 -2.9343  0.2940  0.5780
  602MOL0     H79455   4.239   1.751   1.064  0.7292 -0.1354 -0.8935
  602MOL0     H79456   4.413   1.622   0.973  0.8325 -0.4303 -0.1460
  602MOL0     H79457   4.466   1.761   1.082  1.0941 -0.4996  2.9568
  602MOL0     H79458   4.496   1.466   1.141  1.9937 -2.1186 -3.0842
  602MOL0     H79459   4.536   1.617   1.238 -1.6307  1.7071 -1.2355
  602MOL0     H79460   4.648   1.505   0.974 -0.6935 -1.7232  0.3297
  602MOL0     H79461   4.692   1.663   1.037 -3.9971  0.9401  0.9304
  602MOL0     H79462   4.917   1.373   1.257 -0.7360 -0.2363  0.5028
  602MOL0     H79463   4.108   1.345   1.273  0.2082 -0.4276 -0.9121
  602MOL0     H79464   3.884   1.310   1.292 -2.5715  0.2599 -1.1226
  603MOL0     O79465   8.762   6.304   3.985  0.3057 -0.1487 -0.4777
  603MOL0     C79466   8.790   6.212   4.062 -0.8915  0.4923 -0.9763
  603MOL0     O79467   8.725   6.178   4.179 -0.2199  0.1002 -0.5673
  603MOL0     C79468   8.598   6.237   4.190  0.0002 -0.2624  0.4548
  603MOL0     C79469   8.591   6.358   4.254  0.4641 -0.4666 -0.5868
  603MOL0     C79470   8.472   6.429   4.259 -0.1969 -0.1573 -0.7980
  603MOL0     C79471   8.356   6.371   4.201  0.9302 -0.3554  0.0297
  603MOL0     O79472   8.238   6.448   4.207 -0.3366 -0.0572 -0.6083
  603MOL0     C79473   8.126   6.401   4.116 -0.1510  0.0313  0.3441
  603MOL0     C79474   8.014   6.516   4.091 -0.0521  0.3646 -0.7465
  603MOL0     C79475   7.916   6.537   4.202 -0.6295  0.2081 -0.1941
  603MOL0     C79476   7.830   6.662   4.187 -0.0107 -0.3908  0.2942
  603MOL0     C79477   7.753   6.704   4.308  0.4522 -0.6404  0.2935
  603MOL0     C79478   7.817   6.787   4.407 -1.2248  0.8422 -0.0414
  603MOL0     C79479   7.742   6.834   4.539 -0.5922  0.1390  0.5843
  603MOL0     C79480   7.797   6.962   4.589 -0.3121  0.4038 -0.9027
  603MOL0     N79481   7.734   6.992   4.715  0.9192  0.8383 -1.1734
  603MOL0     C79482   7.612   7.059   4.732 -0.3869  0.6141 -0.0444
  603MOL0     C79483   7.592   7.064   4.865 -0.5347 -0.8718 -0.7008
  603MOL0     C79484   7.471   7.128   4.932  0.4514  0.4557  0.3304
  603MOL0     C79485   7.443   7.263   4.880 -0.4291 -1.2914 -0.7378
  603MOL0     C79486   7.327   7.334   4.941  0.3257 -0.2462  0.7206
  603MOL0     C79487   7.196   7.266   4.901  0.1538 -0.9972 -0.2721
  603MOL0     O79488   7.196   7.205   4.775 -0.1318  0.1441 -0.7789
  603MOL0     C79489   7.079   7.176   4.710 -0.0259  0.0779  0.0778
  603MOL0     C79490   6.954   7.201   4.760 -0.5785  0.4856 -0.4708
  603MOL0     C79491   6.844   7.183   4.685 -0.2573  0.4676  0.8006
  603MOL0     C79492   6.856   7.118   4.555 -0.3482 -0.5804 -0.0563
  603MOL0     C79493   6.734   7.081   4.472  0.0205  0.8312  1.0915
  603MOL0     O79494   6.624   7.152   4.491 -0.0709 -0.7097 -0.2688
  603MOL0     C79495   6.504   7.108   4.435 -0.5704 -0.0005  0.0303
  603MOL0     C79496   6.395   7.108   4.518  0.4176 -0.6137 -1.2526
  603MOL0     C79497   6.272   7.067   4.465  0.1103  0.3112  0.4581
  603MOL0     C79498   6.251   7.046   4.323 -0.0325  0.5887  0.2392
  603MOL0     O79499   6.131   7.014   4.264 -0.3122  0.4455 -0.5634
  603MOL0     C79500   6.131   6.949   4.144  0.1001 -0.0615  0.6924
  603MOL0     C79501   5.981   6.923   4.098  0.5345 -0.3732 -0.6484
  603MOL0     C79502   5.893   7.047   4.091 -0.6051 -0.2317 -1.8127
  603MOL0     C79503   5.770   7.009   4.023 -0.1064  0.3646 -0.5920
  603MOL0     C79504   5.668   7.129   4.026 -0.0819  0.1489  0.2097
  603MOL0     C79505   5.524   7.092   3.984  0.3098 -0.2289 -0.0360
  603MOL0     C79506   5.409   7.180   4.054  0.4937 -0.6223  0.5572
  603MOL0     C79507   5.305   7.231   3.958  0.7786  0.9052  0.4318
  603MOL0    Cl79508   5.204   7.088   3.901  0.3157 -0.4140  0.2249
  603MOL0     C79509   6.365   7.061   4.240  0.3600 -0.1376 -0.8765
  603MOL0     C79510   6.488   7.087   4.296 -0.4736  0.6424 -0.3610
  603MOL0     O79511   6.737   6.980   4.401 -0.1178  1.0653  0.1426
  603MOL0     C79512   6.981   7.094   4.503 -0.5421 -0.1635 -0.2564
  603MOL0     C79513   7.097   7.126   4.580  0.3579  0.3176 -0.5090
  603MOL0     N79514   7.697   7.002   4.927  0.6377 -0.0792 -0.2175
  603MOL0     N79515   7.783   6.958   4.842  0.2511  0.2610  0.1212
  603MOL0     C79516   8.366   6.242   4.137  1.5513 -0.1003  0.1199
  603MOL0     C79517   8.482   6.172   4.133 -0.4492 -0.1456 -0.6386
  603MOL0     C79518   8.911   6.143   4.025 -0.4020 -0.0890 -0.5845
  603MOL0     C79519   8.976   6.051   4.112 -0.7598 -0.0830 -0.7916
  603MOL0     C79520   9.090   5.981   4.073 -0.3075  0.6184 -0.0155
  603MOL0     C79521   9.143   6.004   3.944  0.9291 -0.6337 -0.7375
  603MOL0     O79522   9.234   5.919   3.885  0.2965  1.8917 -0.2827
  603MOL0     C79523   9.314   5.830   3.957 -1.0732 -0.2586 -0.1707
  603MOL0     C79524   9.384   5.735   3.864  0.0682  0.6164 -0.1312
  603MOL0     C79525   9.476   5.637   3.951 -0.1090 -0.0321  0.6448
  603MOL0     C79526   9.528   5.532   3.859 -0.2078  0.0875 -0.1863
  603MOL0     C79527   9.622   5.584   3.760 -0.3974  0.1043  0.3709
  603MOL0     C79528   9.715   5.615   3.683  0.4741  0.0510  0.3685
  603MOL0     C79529   9.083   6.104   3.859 -0.0014 -0.1216 -0.5648
  603MOL0     C79530   8.977   6.181   3.903 -0.7305 -0.0935 -0.1491
  603MOL0     H79531   8.690   6.395   4.277  1.6275 -0.7233 -4.4450
  603MOL0     H79532   8.471   6.533   4.287 -2.2755  0.2768 -2.1795
  603MOL0     H79533   8.077   6.317   4.165  0.7968 -1.2030 -0.7555
  603MOL0     H79534   8.175   6.367   4.025 -0.9032  1.3323 -0.5891
  603MOL0     H79535   7.963   6.482   4.000 -0.4443  0.0828 -0.4274
  603MOL0     H79536   8.064   6.610   4.066  0.8016  1.0747  3.0417
  603MOL0     H79537   7.964   6.552   4.300 -0.2238 -0.5876 -0.2615
  603MOL0     H79538   7.860   6.444   4.214 -1.4681  0.6853 -0.3226
  603MOL0     H79539   7.899   6.744   4.165  0.5708 -1.0895 -0.5511
  603MOL0     H79540   7.762   6.640   4.103 -0.3383 -1.9000  0.9332
  603MOL0     H79541   7.711   6.618   4.362 -1.9800 -1.0237 -1.9772
  603MOL0     H79542   7.657   6.749   4.279  1.7738  2.1696  0.0014
  603MOL0     H79543   7.863   6.875   4.360 -0.9666 -0.0039 -1.4423
  603MOL0     H79544   7.906   6.731   4.437 -0.8412  0.2045 -2.1809
  603MOL0     H79545   7.636   6.845   4.515 -1.4489 -3.3996  2.0841
  603MOL0     H79546   7.750   6.756   4.616 -1.9946  0.6676  1.2888
  603MOL0     H79547   7.796   7.040   4.513  1.5914 -0.9567 -2.4277
  603MOL0     H79548   7.903   6.940   4.607 -0.8722 -1.1564  0.7198
  603MOL0     H79549   7.562   7.110   4.650 -0.1571 -0.5164 -0.9011
  603MOL0     H79550   7.490   7.137   5.039  0.7807  0.2865  0.2876
  603MOL0     H79551   7.388   7.058   4.916  1.9355 -0.9833 -1.6272
  603MOL0     H79552   7.428   7.255   4.772  1.2350 -0.1947 -1.0904
  603MOL0     H79553   7.532   7.326   4.875 -0.9330 -0.6658 -4.5049
  603MOL0     H79554   7.323   7.334   5.051 -1.8237 -0.5410  0.6799
  603MOL0     H79555   7.323   7.439   4.912  0.4589 -0.6121 -0.6632
  603MOL0     H79556   7.119   7.344   4.898  1.6872  0.7474  2.1897
  603MOL0     H79557   7.165   7.198   4.981  2.5477 -0.4743  1.1857
  603MOL0     H79558   6.935   7.242   4.859 -0.8242 -0.0661 -0.2841
  603MOL0     H79559   6.747   7.204   4.730 -1.6950 -2.5071 -0.5904
  603MOL0     H79560   6.413   7.128   4.623 -1.1345 -0.4718 -0.9828
  603MOL0     H79561   6.183   7.065   4.526  0.7530  1.2217  1.4558
  603MOL0     H79562   6.192   6.859   4.153  1.0741  0.5379  0.2661
  603MOL0     H79563   6.165   7.022   4.069 -1.7594 -1.4501 -1.6461
  603MOL0     H79564   5.923   6.862   4.167  0.9219  1.4349  1.3897
  603MOL0     H79565   5.989   6.878   3.998 -1.1091  0.4538 -1.2020
  603MOL0     H79566   5.946   7.126   4.037 -0.7976 -0.1005 -1.8109
  603MOL0     H79567   5.866   7.101   4.182  1.1948 -0.5088 -1.0697
  603MOL0     H79568   5.794   6.980   3.921  1.2289  1.4489 -0.6207
  603MOL0     H79569   5.736   6.929   4.091  3.1054  0.8551  1.8732
  603MOL0     H79570   5.696   7.210   3.958  0.2684 -0.7948 -0.7982
  603MOL0     H79571   5.665   7.158   4.132 -0.8061  0.2512  0.1667
  603MOL0     H79572   5.510   6.985   4.001 -0.8944 -0.1507 -0.4365
  603MOL0     H79573   5.512   7.112   3.877  1.9573  1.7022  0.0869
  603MOL0     H79574   5.375   7.118   4.138 -0.4214  0.6097  1.1253
  603MOL0     H79575   5.457   7.270   4.094  0.0585  0.2775 -0.9091
  603MOL0     H79576   5.361   7.275   3.875  3.1903 -2.3660  0.0951
  603MOL0     H79577   5.242   7.303   4.010  1.9580  2.0906  0.2638
  603MOL0     H79578   6.362   7.066   4.132 -2.5255  4.2354 -0.8385
  603MOL0     H79579   6.578   7.098   4.236  1.6206  1.1993  2.6290
  603MOL0     H79580   7.004   7.058   4.404 -2.7666  0.8645 -1.1990
  603MOL0     H79581   7.193   7.111   4.530  0.1858 -0.9206 -0.4903
  603MOL0     H79582   8.278   6.191   4.097 -1.2619  1.7188  3.3962
  603MOL0     H79583   8.493   6.065   4.117 -3.4145 -0.3359 -2.0322
  603MOL0     H79584   8.949   6.029   4.215  2.3172 -3.5657 -0.5141
  603MOL0     H79585   9.127   5.900   4.135  0.8210  1.1352  0.0139
  603MOL0     H79586   9.262   5.775   4.036 -1.3087 -0.5444 -0.5252
  603MOL0     H79587   9.392   5.885   4.012 -1.4337 -0.6966  0.7938
  603MOL0     H79588   9.300   5.690   3.809 -0.6290  1.9656 -0.1997
  603MOL0     H79589   9.436   5.792   3.788 -2.8126  1.6422 -1.4850
  603MOL0     H79590   9.412   5.580   4.019  0.6510  0.1601  1.5455
  603MOL0     H79591   9.550   5.691   4.010 -0.2428 -0.7672  1.4988
  603MOL0     H79592   9.574   5.468   3.935 -0.6832  1.0991  0.9874
  603MOL0     H79593   9.448   5.478   3.807 -0.1103 -0.9416  0.6972
  603MOL0     H79594   9.782   5.640   3.604  0.8157  0.6440  0.8363
  603MOL0     H79595   9.120   6.128   3.760  2.1199 -1.0012 -0.0414
  603MOL0     H79596   8.929   6.260   3.846 -0.6085  1.5618  1.9413
  604MOL0     O79597   2.452   1.941   9.133  0.5392 -0.2002 -0.0456
  604MOL0     C79598   2.514   2.011   9.054  0.8169  0.0205 -0.1463
  604MOL0     O79599   2.454   2.125   8.980 -0.8788 -0.2001 -0.1543
  604MOL0     C79600   2.320   2.152   8.984 -0.0595 -0.3150 -0.3214
  604MOL0     C79601   2.210   2.064   9.016  0.6408 -0.8221  0.1835
  604MOL0     C79602   2.078   2.095   8.989  0.1926  0.3242 -0.7193
  604MOL0     C79603   2.048   2.218   8.930 -0.0014  0.1917  0.5737
  604MOL0     O79604   1.929   2.273   8.896  0.0525  0.1385  0.1184
  604MOL0     C79605   1.804   2.237   8.956  1.0992 -0.3041 -0.3648
  604MOL0     C79606   1.723   2.152   8.853  0.0399 -0.0170  1.1171
  604MOL0     C79607   1.588   2.093   8.905 -0.2835 -0.3272 -0.3202
  604MOL0     C79608   1.471   2.194   8.885 -0.2694 -0.0641  0.1254
  604MOL0     C79609   1.343   2.154   8.957 -0.6676 -0.6208  1.3098
  604MOL0     C79610   1.277   2.023   8.901 -0.0622 -0.3629  0.4632
  604MOL0     C79611   1.161   1.978   8.982  0.1111  0.1776  0.2577
  604MOL0     C79612   1.081   1.856   8.926  0.0001 -0.0179 -0.0225
  604MOL0     N79613   0.936   1.877   8.950 -0.5381  0.0882  0.6334
  604MOL0     C79614   0.871   1.874   9.079  0.0525  0.2974  0.3822
  604MOL0     C79615   0.741   1.903   9.050 -0.6848 -0.3303 -0.9808
  604MOL0     C79616   0.635   1.928   9.147 -0.1913 -0.4947 -0.1790
  604MOL0     C79617   0.526   1.823   9.121 -0.4447  0.1769 -0.7586
  604MOL0     C79618   0.394   1.858   9.197 -0.0637 -0.1107 -0.5269
  604MOL0     C79619   0.268   1.801   9.135 -0.4844 -0.8277 -0.8258
  604MOL0     O79620   0.149   1.839   9.209 -0.1743 -0.9182 -0.0236
  604MOL0     C79621   0.027   1.826   9.145 -0.9761 -0.0613 -0.9317
  604MOL0     C79622   0.008   1.780   9.019  0.5872  0.4619 -0.3225
  604MOL0     C79623  -0.115   1.766   8.955  0.3097  0.7874 -0.1048
  604MOL0     C79624  -0.222   1.817   9.030  0.6291 -0.6211  0.6432
  604MOL0     C79625  -0.358   1.805   8.972  0.3115 -0.1118 -0.1531
  604MOL0     O79626  -0.463   1.834   9.062 -0.4829 -0.2928 -0.4020
  604MOL0     C79627  -0.592   1.783   9.064  1.5623  0.4935  0.6187
  604MOL0     C79628  -0.685   1.851   9.151 -0.8535 -0.4683  0.4856
  604MOL0     C79629  -0.824   1.820   9.148 -0.1068  0.5745  0.1306
  604MOL0     C79630  -0.873   1.716   9.060  0.3433 -0.5645 -0.1942
  604MOL0     O79631  -1.004   1.689   9.071 -0.4285  0.2331 -0.7029
  604MOL0     C79632  -1.076   1.652   8.946 -1.5882  0.1694  0.5181
  604MOL0     C79633  -1.119   1.775   8.868  0.3681  0.3978  0.1777
  604MOL0     C79634  -1.239   1.840   8.934 -0.8706 -0.7872 -0.5660
  604MOL0     C79635  -1.253   1.977   8.892 -0.7423  0.7267  0.0118
  604MOL0     C79636  -1.351   2.060   8.972 -0.7380 -1.0781 -0.4474
  604MOL0     C79637  -1.491   2.065   8.920  0.0188  0.0365 -0.4314
  604MOL0     C79638  -1.590   2.072   9.044 -0.9372 -0.0911 -0.1427
  604MOL0     C79639  -1.736   2.100   9.010 -0.1541  0.8740 -0.3897
  604MOL0    Cl79640  -1.793   2.001   8.884 -0.0130  0.3104  0.3203
  604MOL0     C79641  -0.782   1.656   8.978 -0.8266 -0.5372 -0.0251
  604MOL0     C79642  -0.644   1.686   8.975  0.7624  0.5303 -0.2953
  604MOL0     O79643  -0.370   1.748   8.866  0.0026 -0.1607 -0.5198
  604MOL0     C79644  -0.212   1.862   9.160 -0.1180  0.1195 -0.4879
  604MOL0     C79645  -0.082   1.861   9.220  0.9184  0.0896 -0.2725
  604MOL0     N79646   0.734   1.932   8.915  0.1917  0.7145 -0.1164
  604MOL0     N79647   0.853   1.922   8.855  0.0434  0.5104  0.1587
  604MOL0     C79648   2.158   2.302   8.898  0.4410  0.8014  0.9047
  604MOL0     C79649   2.284   2.274   8.933 -1.3123  0.5589 -0.9127
  604MOL0     C79650   2.657   1.991   9.022  0.3773 -0.2129  0.2121
  604MOL0     C79651   2.721   2.094   8.948  0.1194  0.1734  0.1122
  604MOL0     C79652   2.855   2.079   8.907  0.5951 -0.7266  0.4037
  604MOL0     C79653   2.930   1.965   8.949 -0.2258 -0.3110 -0.8207
  604MOL0     O79654   3.063   1.934   8.919 -1.2586 -0.3229  0.0322
  604MOL0     C79655   3.133   2.024   8.834 -0.9415 -0.4379 -0.4706
  604MOL0     C79656   3.286   1.990   8.835 -0.3296 -0.5835 -0.6729
  604MOL0     C79657   3.343   1.950   8.696  0.6023  0.6659 -1.0559
  604MOL0     C79658   3.491   1.899   8.696 -0.6521  0.2469  0.5539
  604MOL0     C79659   3.497   1.766   8.750  0.0626  0.8323  0.3361
  604MOL0     C79660   3.504   1.649   8.786  0.4532  0.4301 -0.1316
  604MOL0     C79661   2.868   1.869   9.026 -0.0344 -0.1420 -0.0506
  604MOL0     C79662   2.736   1.880   9.071  0.3001 -0.8203  0.1679
  604MOL0     H79663   2.227   1.963   9.052  0.0877 -2.5242 -3.8178
  604MOL0     H79664   2.003   2.022   9.017  0.5897 -0.0611 -0.6547
  604MOL0     H79665   1.753   2.331   8.977  0.9739 -0.0672 -1.6667
  604MOL0     H79666   1.826   2.187   9.051  0.0559 -0.3191 -0.1147
  604MOL0     H79667   1.787   2.071   8.817  0.6154  1.5947 -1.7868
  604MOL0     H79668   1.709   2.206   8.759 -1.7911 -4.0814 -1.2275
  604MOL0     H79669   1.587   2.070   9.012  2.5820  3.3438  0.7090
  604MOL0     H79670   1.562   2.007   8.843 -1.7387  0.2426 -0.5377
  604MOL0     H79671   1.510   2.286   8.930 -0.5122 -1.9355  4.7120
  604MOL0     H79672   1.442   2.209   8.781 -1.6693  1.3237  0.6678
  604MOL0     H79673   1.272   2.238   8.953 -0.5617 -0.5247  1.4169
  604MOL0     H79674   1.371   2.136   9.061  0.9644 -0.5683  0.8949
  604MOL0     H79675   1.349   1.944   8.882  0.2631  0.2364 -0.8854
  604MOL0     H79676   1.231   2.046   8.805  1.3757 -1.4927 -0.5274
  604MOL0     H79677   1.202   1.948   9.078 -2.2151 -2.0531  0.6598
  604MOL0     H79678   1.091   2.062   8.981 -0.1630 -0.0535 -0.1315
  604MOL0     H79679   1.117   1.765   8.974  0.0189 -1.2806 -2.3012
  604MOL0     H79680   1.098   1.847   8.818 -1.4664  0.4326 -0.3187
  604MOL0     H79681   0.916   1.860   9.176  2.7032 -1.6737 -0.9882
  604MOL0     H79682   0.602   2.030   9.124  0.9044 -0.2912 -0.9794
  604MOL0     H79683   0.673   1.940   9.248  1.1508  1.5684 -0.8622
  604MOL0     H79684   0.560   1.720   9.135  1.9414  0.9969  0.0826
  604MOL0     H79685   0.497   1.823   9.015 -1.8424  0.1776 -0.3871
  604MOL0     H79686   0.409   1.821   9.299  0.6253 -0.8430 -0.8811
  604MOL0     H79687   0.373   1.965   9.193 -0.1874 -0.1177 -0.0515
  604MOL0     H79688   0.269   1.692   9.141  0.3418 -0.8804 -1.6399
  604MOL0     H79689   0.264   1.830   9.029 -1.8166 -1.9243 -1.1055
  604MOL0     H79690   0.098   1.762   8.961  0.0280  2.2574 -1.8584
  604MOL0     H79691  -0.127   1.732   8.853 -2.2927  3.1642 -0.7076
  604MOL0     H79692  -0.637   1.928   9.212  0.2519 -1.4132  0.8508
  604MOL0     H79693  -0.894   1.878   9.207  0.1213 -0.6747  1.6945
  604MOL0     H79694  -1.169   1.602   8.976 -0.4664 -1.7315  0.9990
  604MOL0     H79695  -1.022   1.578   8.886  1.2394 -0.7009  3.8117
  604MOL0     H79696  -1.162   1.745   8.772 -0.0165 -0.2480  0.5437
  604MOL0     H79697  -1.032   1.840   8.856  2.7573 -2.8873 -1.8121
  604MOL0     H79698  -1.234   1.830   9.043 -0.6941 -3.5015 -0.7387
  604MOL0     H79699  -1.335   1.791   8.913 -1.6675  0.9357 -1.1053
  604MOL0     H79700  -1.160   2.034   8.891  0.3411 -0.9401  0.6158
  604MOL0     H79701  -1.286   1.974   8.788 -0.8212 -1.9703  0.0411
  604MOL0     H79702  -1.331   2.167   8.958 -1.4876 -1.3297 -5.3015
  604MOL0     H79703  -1.345   2.037   9.079  0.8707 -0.3165 -0.3447
  604MOL0     H79704  -1.510   1.973   8.866 -0.5680  0.1914 -0.4934
  604MOL0     H79705  -1.500   2.154   8.856 -1.2015  0.7550  0.6705
  604MOL0     H79706  -1.589   1.973   9.091 -3.0097 -0.7377 -1.3002
  604MOL0     H79707  -1.554   2.147   9.114 -0.5089 -1.9963  1.7712
  604MOL0     H79708  -1.748   2.201   8.971 -0.0615  1.3738  0.8390
  604MOL0     H79709  -1.801   2.080   9.096 -1.0661  0.3415 -1.1894
  604MOL0     H79710  -0.822   1.574   8.920 -1.3044  0.0196 -0.4893
  604MOL0     H79711  -0.596   1.639   8.890  0.4674  1.1697 -0.8310
  604MOL0     H79712  -0.302   1.886   9.215 -0.3134  1.9419 -1.5232
  604MOL0     H79713  -0.066   1.880   9.326 -0.0456  1.0273 -0.2721
  604MOL0     H79714   2.139   2.396   8.848  1.2074  0.7895  0.5764
  604MOL0     H79715   2.361   2.344   8.903 -0.8946  0.1635 -0.7751
  604MOL0     H79716   2.677   2.188   8.918  1.7853  0.5532 -1.3367
  604MOL0     H79717   2.900   2.161   8.852 -3.9108  0.9865 -1.1532
  604MOL0     H79718   3.116   2.118   8.888 -0.4298 -0.5897 -0.0419
  604MOL0     H79719   3.077   2.013   8.740 -3.3132 -0.2727  0.8426
  604MOL0     H79720   3.338   2.085   8.851  0.0230 -0.9958  0.7675
  604MOL0     H79721   3.311   1.908   8.903  1.8725 -0.8588 -1.7138
  604MOL0     H79722   3.336   2.036   8.628 -0.0906  0.6873 -0.9612
  604MOL0     H79723   3.280   1.869   8.658  1.1179  0.9500 -2.5789
  604MOL0     H79724   3.534   1.905   8.595  4.0796  3.0944  2.3779
  604MOL0     H79725   3.556   1.963   8.757 -2.0520  3.6004 -1.1800
  604MOL0     H79726   3.486   1.547   8.814 -0.5748  1.3624  3.0530
  604MOL0     H79727   2.925   1.782   9.057  0.6485  0.3071  0.0043
  604MOL0     H79728   2.679   1.808   9.128 -1.7301  0.1306 -0.5899
  605MOL0     O79729   5.780   7.565   4.483  0.2012  0.7215 -0.0595
  605MOL0     C79730   5.842   7.463   4.447  0.2955  0.5058 -0.6986
  605MOL0     O79731   5.792   7.333   4.441  0.3866 -0.8083 -0.2743
  605MOL0     C79732   5.652   7.312   4.440 -0.2643  0.4622  0.3133
  605MOL0     C79733   5.609   7.185   4.476 -0.1441 -0.4827 -0.9425
  605MOL0     C79734   5.479   7.162   4.487  0.8150  0.7713 -0.0145
  605MOL0     C79735   5.379   7.261   4.444 -0.0437  1.0703 -0.1754
  605MOL0     O79736   5.249   7.247   4.462  0.4108  0.2526 -0.2764
  605MOL0     C79737   5.200   7.108   4.471  0.2543 -0.2356 -0.0128
  605MOL0     C79738   5.061   7.096   4.434  1.0976 -0.1029  0.2075
  605MOL0     C79739   5.038   7.136   4.290 -0.6942  0.5071 -0.0054
  605MOL0     C79740   4.896   7.125   4.239  0.2320 -1.1353  0.8984
  605MOL0     C79741   4.897   7.144   4.088  0.1405  0.4534  0.1418
  605MOL0     C79742   4.749   7.121   4.027 -0.3581  0.6261 -0.7654
  605MOL0     C79743   4.749   7.133   3.875 -0.9292 -0.3590 -0.5065
  605MOL0     C79744   4.763   7.281   3.815  0.2532  0.2281 -0.1479
  605MOL0     N79745   4.637   7.363   3.797 -0.8130  0.3793  0.0508
  605MOL0     C79746   4.535   7.331   3.715  0.7516 -0.4615 -0.1619
  605MOL0     C79747   4.434   7.406   3.768  0.9385  0.5280  0.0255
  605MOL0     C79748   4.293   7.392   3.714 -0.9866 -0.1453  0.0566
  605MOL0     C79749   4.259   7.497   3.607  0.3130 -0.2092  0.8039
  605MOL0     C79750   4.161   7.456   3.500  0.5226 -0.2666  0.3367
  605MOL0     C79751   4.019   7.445   3.559 -0.2152 -0.5435 -1.1576
  605MOL0     O79752   3.931   7.454   3.442 -0.2704 -0.1107 -0.7225
  605MOL0     C79753   3.806   7.406   3.450  0.7488 -1.1228  0.1535
  605MOL0     C79754   3.731   7.397   3.334  0.6116 -0.1204  0.6548
  605MOL0     C79755   3.599   7.348   3.337  1.1422  1.5968  0.3098
  605MOL0     C79756   3.530   7.320   3.457 -0.5647 -0.4933 -0.4892
  605MOL0     C79757   3.381   7.293   3.456  0.0288 -0.9297 -0.2729
  605MOL0     O79758   3.335   7.257   3.335 -0.0575 -0.2108 -0.5077
  605MOL0     C79759   3.197   7.276   3.305  0.3683 -0.8985 -0.2637
  605MOL0     C79760   3.081   7.241   3.380 -0.4042  0.4033 -0.0158
  605MOL0     C79761   2.954   7.277   3.336  0.9335 -0.2599  0.4628
  605MOL0     C79762   2.942   7.365   3.226 -0.5966 -0.0824 -0.3956
  605MOL0     O79763   2.828   7.427   3.183  0.2393 -0.5722  1.0812
  605MOL0     C79764   2.698   7.366   3.222 -0.0426 -0.2040  0.5906
  605MOL0     C79765   2.581   7.420   3.139 -0.6614  0.4875  0.0952
  605MOL0     C79766   2.515   7.539   3.215  0.5462 -0.6583  0.0069
  605MOL0     C79767   2.406   7.595   3.130 -1.0341 -0.2776  0.0761
  605MOL0     C79768   2.283   7.649   3.192 -0.3289 -0.0600  0.5613
  605MOL0     C79769   2.198   7.537   3.257 -0.0171 -0.2279  0.2265
  605MOL0     C79770   2.155   7.420   3.165 -0.0519  0.4762  0.2588
  605MOL0     C79771   2.068   7.448   3.041 -0.2466  0.0697  0.0821
  605MOL0    Cl79772   1.934   7.548   3.093 -0.1219  0.3139  0.2545
  605MOL0     C79773   3.049   7.402   3.148 -0.6777  0.5348  0.2713
  605MOL0     C79774   3.176   7.361   3.188 -0.7546  0.9282 -0.2229
  605MOL0     O79775   3.319   7.300   3.564 -0.0122  0.7256  0.2024
  605MOL0     C79776   3.606   7.332   3.580 -0.6828  0.4345  0.3643
  605MOL0     C79777   3.745   7.368   3.567  0.8605  0.6308 -0.2133
  605MOL0     N79778   4.488   7.491   3.866  0.6484  0.2014  0.6793
  605MOL0     N79779   4.607   7.451   3.888 -0.0700 -0.5332 -0.1303
  605MOL0     C79780   5.421   7.382   4.389 -0.4111  0.2302 -0.8508
  605MOL0     C79781   5.557   7.407   4.400 -0.1518  0.0197  0.1995
  605MOL0     C79782   5.984   7.475   4.414 -0.3141  0.3449  0.0627
  605MOL0     C79783   6.035   7.608   4.422 -0.7479 -0.4995 -0.7299
  605MOL0     C79784   6.165   7.637   4.366  0.4338 -0.6969 -0.0736
  605MOL0     C79785   6.241   7.534   4.323  0.4168 -0.4028 -0.2116
  605MOL0     O79786   6.359   7.560   4.260  0.2683 -0.2657 -0.6671
  605MOL0     C79787   6.454   7.664   4.308  1.1096  0.2878 -0.1259
  605MOL0     C79788   6.586   7.588   4.307 -0.2556 -0.2963  0.0121
  605MOL0     C79789   6.589   7.448   4.380 -0.6862  0.9455 -0.3965
  605MOL0     C79790   6.561   7.460   4.531 -0.3505 -0.2273  0.0058
  605MOL0     C79791   6.679   7.532   4.585  1.1547  0.0851 -0.0497
  605MOL0     C79792   6.774   7.582   4.633  0.7690  0.5626 -0.5263
  605MOL0     C79793   6.188   7.406   4.315 -1.2925 -0.2906 -0.1007
  605MOL0     C79794   6.063   7.372   4.366  0.5582  0.2505  0.2572
  605MOL0     H79795   5.689   7.126   4.520  0.8581  1.8780  0.5969
  605MOL0     H79796   5.451   7.067   4.530 -0.2297  1.4209  0.7937
  605MOL0     H79797   5.208   7.077   4.576 -0.7229  2.8138  1.0456
  605MOL0     H79798   5.270   7.053   4.408 -0.2472 -1.5240  0.5108
  605MOL0     H79799   4.993   7.160   4.491 -2.4594 -1.1475 -2.4515
  605MOL0     H79800   5.033   6.990   4.443  2.0710 -0.4145 -0.3447
  605MOL0     H79801   5.092   7.073   4.219 -0.3357 -1.4459  1.8776
  605MOL0     H79802   5.072   7.240   4.281 -1.8568  1.2082  2.6469
  605MOL0     H79803   4.859   7.023   4.251  0.9237 -1.8272 -1.9519
  605MOL0     H79804   4.837   7.202   4.291 -1.4334 -2.0727  0.4719
  605MOL0     H79805   4.959   7.067   4.041  0.6119  0.3986  0.8444
  605MOL0     H79806   4.935   7.245   4.074  1.8902 -0.3802 -1.6181
  605MOL0     H79807   4.683   7.191   4.079 -1.5840 -0.3606 -0.9427
  605MOL0     H79808   4.718   7.019   4.054  2.0383 -1.6570 -5.3477
  605MOL0     H79809   4.824   7.064   3.834  0.3331  0.5952  0.1048
  605MOL0     H79810   4.653   7.092   3.844 -0.5620 -0.4951 -1.5117
  605MOL0     H79811   4.791   7.273   3.710 -2.0690  1.6143 -0.9488
  605MOL0     H79812   4.842   7.335   3.868  3.9669 -3.1906 -1.7417
  605MOL0     H79813   4.528   7.257   3.636  0.4483  1.4107 -1.9675
  605MOL0     H79814   4.218   7.427   3.785  0.2815  1.5879  0.5999
  605MOL0     H79815   4.280   7.291   3.674  0.4381  0.8666 -3.2998
  605MOL0     H79816   4.340   7.545   3.550  0.3889 -1.0854  0.1550
  605MOL0     H79817   4.221   7.579   3.668 -0.8973 -2.2152  2.9356
  605MOL0     H79818   4.158   7.542   3.433 -1.5388  0.0921  0.8025
  605MOL0     H79819   4.192   7.365   3.450  0.4441 -0.6144  0.9060
  605MOL0     H79820   3.998   7.535   3.618  0.5565 -1.8561  1.2572
  605MOL0     H79821   4.009   7.355   3.619 -0.0092  0.1317 -0.0885
  605MOL0     H79822   3.778   7.437   3.245 -1.0355  2.7109  0.9423
  605MOL0     H79823   3.542   7.347   3.245  2.4809  0.5110 -0.5570
  605MOL0     H79824   3.091   7.172   3.464 -1.2961 -0.3879 -0.5373
  605MOL0     H79825   2.863   7.232   3.374  0.7546  1.0350  1.6314
  605MOL0     H79826   2.681   7.408   3.322 -3.3842 -0.5304  0.2840
  605MOL0     H79827   2.689   7.258   3.208  2.4573 -0.1746 -2.2341
  605MOL0     H79828   2.508   7.343   3.114  1.7086 -1.6412 -0.6558
  605MOL0     H79829   2.613   7.468   3.046  4.3349  4.4063  3.2843
  605MOL0     H79830   2.575   7.630   3.231 -0.9362  1.4741 -4.7518
  605MOL0     H79831   2.460   7.504   3.303 -1.5596 -2.5252 -1.9463
  605MOL0     H79832   2.447   7.686   3.084 -1.6989  0.5863  1.1222
  605MOL0     H79833   2.378   7.530   3.047 -2.2746 -0.1494  0.3737
  605MOL0     H79834   2.223   7.709   3.123  1.6404 -0.3409 -1.5190
  605MOL0     H79835   2.320   7.714   3.271  0.2228 -0.7118  0.8500
  605MOL0     H79836   2.114   7.589   3.306  1.7935  1.4013  1.8189
  605MOL0     H79837   2.258   7.502   3.342  2.2166  2.1289 -0.2407
  605MOL0     H79838   2.249   7.372   3.138 -0.2907  1.2263 -2.0555
  605MOL0     H79839   2.107   7.347   3.232  1.5497 -1.5204 -0.6771
  605MOL0     H79840   2.034   7.353   2.999 -0.5588  0.0463  0.3800
  605MOL0     H79841   2.118   7.513   2.968  4.0532  0.6361  3.1503
  605MOL0     H79842   3.030   7.453   3.054  0.8750  3.6087  1.4557
  605MOL0     H79843   3.262   7.380   3.125 -2.2613 -1.2550 -3.1906
  605MOL0     H79844   3.566   7.315   3.679  0.9732  3.2490  1.6284
  605MOL0     H79845   3.793   7.385   3.663 -3.0177  4.4629  1.4005
  605MOL0     H79846   5.343   7.449   4.355 -3.0429 -1.4548  1.4561
  605MOL0     H79847   5.585   7.509   4.375 -1.2531  0.4061  0.4839
  605MOL0     H79848   5.975   7.696   4.444  0.4179 -0.3452  2.2650
  605MOL0     H79849   6.206   7.737   4.365 -1.8433  0.2871 -0.0716
  605MOL0     H79850   6.439   7.706   4.408  2.1631  2.5868 -0.8451
  605MOL0     H79851   6.435   7.744   4.236 -2.1192 -2.1196 -2.2389
  605MOL0     H79852   6.619   7.580   4.203  0.6122 -0.0377  0.2625
  605MOL0     H79853   6.659   7.651   4.358 -0.8964  2.9201 -2.7124
  605MOL0     H79854   6.685   7.396   4.373 -0.1563  1.8723 -0.1628
  605MOL0     H79855   6.514   7.384   4.333  0.0894 -0.6636  0.4836
  605MOL0     H79856   6.477   7.526   4.556 -1.6927 -1.7258 -0.3808
  605MOL0     H79857   6.543   7.364   4.581 -1.9263  0.0988  0.1197
  605MOL0     H79858   6.862   7.626   4.677  1.8656  0.4705 -2.4866
  605MOL0     H79859   6.247   7.328   4.267  1.4144  0.9818  0.9680
  605MOL0     H79860   6.027   7.270   4.357  2.8635 -0.4883 -1.8466
  606MOL0     O79861   5.370   3.938   0.582 -1.2790  0.2672 -0.2966
  606MOL0     C79862   5.451   4.018   0.627 -0.2869  0.0781  1.3067
  606MOL0     O79863   5.422   4.123   0.704  0.3204 -0.4380 -0.1028
  606MOL0     C79864   5.291   4.148   0.736  0.4762 -0.1283 -0.2797
  606MOL0     C79865   5.206   4.228   0.655  0.9294  0.3549  0.3898
  606MOL0     C79866   5.072   4.247   0.680 -0.7002 -0.4866 -0.2826
  606MOL0     C79867   5.019   4.166   0.785 -0.1162 -0.2591 -0.3470
  606MOL0     O79868   4.882   4.161   0.806  0.2898  0.0693  0.0724
  606MOL0     C79869   4.792   4.168   0.693 -0.1493 -1.0386  0.0515
  606MOL0     C79870   4.642   4.133   0.722 -0.5111 -0.2822 -0.5735
  606MOL0     C79871   4.618   3.980   0.730  0.3503 -0.1736 -0.4119
  606MOL0     C79872   4.464   3.948   0.737  0.6312  0.7488  0.5398
  606MOL0     C79873   4.390   3.987   0.600 -0.5586  0.1194 -1.1378
  606MOL0     C79874   4.244   3.936   0.605 -0.0436  0.0473 -1.2100
  606MOL0     C79875   4.198   3.804   0.673  0.3423  0.0670 -0.3714
  606MOL0     C79876   4.262   3.693   0.592  0.1108  0.6346  0.3633
  606MOL0     N79877   4.223   3.686   0.451  0.1000 -0.5492  0.3065
  606MOL0     C79878   4.098   3.677   0.393  0.3952  0.3641 -0.3874
  606MOL0     C79879   4.120   3.667   0.265  0.1795  0.0137  0.2235
  606MOL0     C79880   4.015   3.652   0.163  0.4082  0.0288  0.2985
  606MOL0     C79881   4.029   3.525   0.082 -0.3396 -0.4679  0.6705
  606MOL0     C79882   3.899   3.497   0.011  1.0764 -0.1244  0.5934
  606MOL0     C79883   3.880   3.353  -0.044 -0.0228 -0.4632  0.1816
  606MOL0     O79884   3.789   3.340  -0.149 -0.3088  0.5895 -0.1655
  606MOL0     C79885   3.655   3.356  -0.112 -0.1882  0.8907 -0.8152
  606MOL0     C79886   3.576   3.248  -0.089  0.0628 -0.2364  0.4470
  606MOL0     C79887   3.439   3.260  -0.062 -0.0754  1.2894 -0.4331
  606MOL0     C79888   3.375   3.380  -0.063  0.0008  0.2898 -0.6471
  606MOL0     C79889   3.228   3.402  -0.068 -0.6931  0.7080  0.7111
  606MOL0     O79890   3.160   3.288  -0.050  0.4693 -0.5360  0.6314
  606MOL0     C79891   3.021   3.276  -0.033 -0.0355 -0.1094  0.9672
  606MOL0     C79892   2.965   3.152  -0.078 -0.5138  0.5400 -1.2174
  606MOL0     C79893   2.837   3.128  -0.090  0.2976  0.1133  0.4188
  606MOL0     C79894   2.750   3.227  -0.044 -0.3629  0.0121  0.6743
  606MOL0     O79895   2.613   3.192  -0.039  0.7190  0.4015  0.3767
  606MOL0     C79896   2.546   3.213   0.086  0.4652 -0.0269  0.3002
  606MOL0     C79897   2.396   3.228   0.073 -0.1272 -0.4602 -0.3457
  606MOL0     C79898   2.318   3.097   0.033 -0.1421 -0.0211 -0.2876
  606MOL0     C79899   2.207   3.121  -0.069  0.8558 -0.1614  0.3774
  606MOL0     C79900   2.078   3.163   0.007  0.4023  0.7293 -0.2159
  606MOL0     C79901   1.977   3.224  -0.090 -0.0737  0.1731  1.1436
  606MOL0     C79902   1.842   3.266  -0.029 -0.6535  0.0192 -0.4784
  606MOL0     C79903   1.752   3.329  -0.138  0.0977  0.7440  0.4175
  606MOL0    Cl79904   1.584   3.340  -0.076 -0.0522  0.6324 -0.2976
  606MOL0     C79905   2.799   3.353  -0.000 -0.0656  0.1934  0.3621
  606MOL0     C79906   2.941   3.380   0.014 -0.2843 -0.9195  0.7923
  606MOL0     O79907   3.179   3.512  -0.082  0.4250  0.3723  0.1065
  606MOL0     C79908   3.458   3.489  -0.084  0.0229 -0.7879  0.7510
  606MOL0     C79909   3.593   3.479  -0.115 -0.9933 -0.7281 -0.5725
  606MOL0     N79910   4.258   3.675   0.238 -0.1273  0.7325  0.0743
  606MOL0     N79911   4.316   3.673   0.350 -1.2281 -0.7256 -0.1866
  606MOL0     C79912   5.101   4.085   0.870  0.5459 -0.3573  0.8388
  606MOL0     C79913   5.236   4.077   0.850 -0.0432 -0.0980  0.4941
  606MOL0     C79914   5.592   4.001   0.581 -0.1326  1.2393 -0.1912
  606MOL0     C79915   5.678   4.108   0.606 -0.5702 -0.1595 -0.9846
  606MOL0     C79916   5.815   4.103   0.574 -0.0966 -0.5160 -0.3512
  606MOL0     C79917   5.863   3.984   0.516  0.8449  0.5050 -0.2140
  606MOL0     O79918   5.993   3.986   0.481 -0.0441  0.5932  0.7209
  606MOL0     C79919   6.072   3.883   0.541  0.8244  0.0125 -0.0337
  606MOL0     C79920   6.132   3.917   0.674 -0.1349 -0.0779 -0.6522
  606MOL0     C79921   6.202   4.057   0.678  0.3386 -1.1391  0.6114
  606MOL0     C79922   6.259   4.101   0.807  0.0062 -0.0631  0.6256
  606MOL0     C79923   6.157   4.170   0.892  0.3215  0.6532 -0.7399
  606MOL0     C79924   6.066   4.197   0.973 -0.5971  0.1332  0.7984
  606MOL0     C79925   5.770   3.883   0.481  0.8151  1.1121 -0.4239
  606MOL0     C79926   5.636   3.885   0.509  0.1566 -0.8004 -0.4095
  606MOL0     H79927   5.257   4.285   0.578  2.2768 -0.8214  0.3749
  606MOL0     H79928   5.016   4.313   0.615  1.2861  0.9114 -0.6692
  606MOL0     H79929   4.832   4.110   0.609 -0.2410  0.3518 -0.9793
  606MOL0     H79930   4.795   4.272   0.661 -1.3603 -1.2394 -0.7607
  606MOL0     H79931   4.594   4.172   0.632  0.2491 -1.3040 -1.4544
  606MOL0     H79932   4.617   4.196   0.807  2.1550 -0.5257  0.4925
  606MOL0     H79933   4.664   3.945   0.823  0.6931  2.2928  0.4165
  606MOL0     H79934   4.683   3.936   0.654  1.0489 -2.4687  1.4015
  606MOL0     H79935   4.458   3.840   0.751 -2.1941  0.8514  0.6321
  606MOL0     H79936   4.406   4.005   0.810 -0.5627 -0.6111  0.7011
  606MOL0     H79937   4.441   3.939   0.515  2.3487  0.9935 -0.0097
  606MOL0     H79938   4.398   4.094   0.577 -2.7004  0.3358 -1.0247
  606MOL0     H79939   4.196   3.941   0.506 -2.1499  0.4590 -0.2152
  606MOL0     H79940   4.205   4.013   0.671  0.8936  0.0763 -0.6733
  606MOL0     H79941   4.243   3.807   0.773  0.5928 -0.7514 -0.4528
  606MOL0     H79942   4.089   3.798   0.682  0.4570  1.4847  4.2212
  606MOL0     H79943   4.234   3.598   0.639  1.5833  0.1817  0.3671
  606MOL0     H79944   4.369   3.716   0.596  0.6662 -1.6150 -0.2639
  606MOL0     H79945   4.001   3.671   0.443  0.7189 -2.6674  0.0611
  606MOL0     H79946   4.022   3.730   0.088  0.2949 -1.9410 -1.8672
  606MOL0     H79947   3.916   3.651   0.211  0.0089  2.7682 -0.3132
  606MOL0     H79948   4.059   3.438   0.141  2.6304  1.2470  1.9660
  606MOL0     H79949   4.103   3.547   0.005 -0.0636 -0.5716  0.9006
  606MOL0     H79950   3.809   3.525   0.067  0.7481 -1.3197  0.6984
  606MOL0     H79951   3.895   3.571  -0.069 -0.7592 -0.6704  0.1208
  606MOL0     H79952   3.846   3.293   0.041  0.1987 -0.8019  0.0312
  606MOL0     H79953   3.972   3.314  -0.088 -0.7620  0.6669 -2.5620
  606MOL0     H79954   3.615   3.147  -0.098 -1.0696 -0.5679 -1.0125
  606MOL0     H79955   3.369   3.179  -0.047  0.3526  1.4372  3.1861
  606MOL0     H79956   3.036   3.073  -0.099  0.8316  1.6078 -0.8228
  606MOL0     H79957   2.794   3.030  -0.109  0.8532 -0.0987  0.2392
  606MOL0     H79958   2.583   3.305   0.131  1.4255  0.8584 -2.1038
  606MOL0     H79959   2.565   3.131   0.155  0.5014 -0.7532 -0.5495
  606MOL0     H79960   2.373   3.295  -0.011 -2.1470 -2.1176 -1.1998
  606MOL0     H79961   2.354   3.262   0.169 -2.5931 -1.0978 -1.1179
  606MOL0     H79962   2.292   3.050   0.128 -0.0434  3.1798  1.4705
  606MOL0     H79963   2.398   3.042  -0.018 -1.3535 -2.1989  0.0760
  606MOL0     H79964   2.239   3.200  -0.137 -0.9934 -0.5741 -1.0314
  606MOL0     H79965   2.192   3.037  -0.137 -0.8970  0.5959 -0.2138
  606MOL0     H79966   2.105   3.234   0.086  2.4333  1.2684 -1.2955
  606MOL0     H79967   2.038   3.072   0.053  0.5256  1.3276  1.1110
  606MOL0     H79968   1.954   3.145  -0.162 -0.5424 -2.9542  4.4358
  606MOL0     H79969   2.028   3.303  -0.145  0.2427 -0.3466  0.6731
  606MOL0     H79970   1.784   3.176  -0.003 -0.6090  0.2458  0.4240
  606MOL0     H79971   1.868   3.323   0.060  2.0364  0.8023 -1.6664
  606MOL0     H79972   1.751   3.280  -0.236 -2.5212  2.3212 -0.4388
  606MOL0     H79973   1.793   3.429  -0.158  0.5574  0.6434  0.8232
  606MOL0     H79974   2.720   3.422   0.025 -1.0969 -0.8196 -0.0431
  606MOL0     H79975   2.970   3.481   0.043 -1.3599 -0.6079  0.8337
  606MOL0     H79976   3.415   3.588  -0.095 -0.2079 -0.9217  0.4587
  606MOL0     H79977   3.654   3.566  -0.135  0.9753 -2.0978 -0.7453
  606MOL0     H79978   5.066   4.037   0.961  1.1797  0.5727  1.5926
  606MOL0     H79979   5.302   4.016   0.910  0.1374 -0.9624 -0.5451
  606MOL0     H79980   5.649   4.200   0.656  0.6881  0.9671 -2.2473
  606MOL0     H79981   5.889   4.182   0.585  1.3928 -1.7345 -1.2683
  606MOL0     H79982   6.151   3.835   0.482  1.0376  2.1049 -1.5549
  606MOL0     H79983   6.011   3.795   0.565  1.1545 -0.1303  0.2880
  606MOL0     H79984   6.045   3.905   0.740  1.3028  1.8566  1.8101
  606MOL0     H79985   6.204   3.839   0.699 -0.0889  0.6970  2.0388
  606MOL0     H79986   6.131   4.138   0.657  2.0580  0.3854  0.4993
  606MOL0     H79987   6.272   4.060   0.594 -1.2624 -1.7538 -0.8112
  606MOL0     H79988   6.302   4.017   0.863  2.5369  1.7720  1.6399
  606MOL0     H79989   6.334   4.174   0.775  0.6135 -0.6967  0.5686
  606MOL0     H79990   5.982   4.215   1.037 -1.2965  1.5269 -0.4264
  606MOL0     H79991   5.809   3.795   0.431  2.9865  2.3499 -1.0531
  606MOL0     H79992   5.568   3.809   0.472 -1.4236  2.1220 -4.0975
  607MOL0     O79993   8.587  11.234   0.974 -0.7171  0.0907 -0.8248
  607MOL0     C79994   8.635  11.346   0.938 -0.5560 -0.2803  0.3939
  607MOL0     O79995   8.567  11.454   0.892 -0.1228  0.5178  0.4129
  607MOL0     C79996   8.437  11.428   0.856 -0.3895  0.1434  0.1543
  607MOL0     C79997   8.404  11.436   0.721 -0.0717  0.1153  0.5557
  607MOL0     C79998   8.279  11.420   0.671 -0.0065 -1.0523 -0.0608
  607MOL0     C79999   8.170  11.392   0.759 -0.2370 -0.1660  0.6137
  607MOL0     O80000   8.044  11.385   0.700  0.0573 -0.2315 -0.3789
  607MOL0     C80001   7.943  11.310   0.768 -0.3038  0.5242  0.0025
  607MOL0     C80002   7.829  11.279   0.663 -0.2376  0.3162  0.3828
  607MOL0     C80003   7.723  11.188   0.723 -0.1399  0.9305 -0.5189
  607MOL0     C80004   7.641  11.260   0.826 -0.5350  0.2271 -0.4240
  607MOL0     C80005   7.517  11.180   0.877 -0.3906 -0.4967 -0.3476
  607MOL0     C80006   7.440  11.282   0.966  0.8304  0.0517  0.0611
  607MOL0     C80007   7.359  11.396   0.902  0.2110  1.0160 -0.8020
  607MOL0     C80008   7.305  11.480   1.010  0.3566 -0.8024 -0.2487
  607MOL0     N80009   7.245  11.601   0.955 -0.4340 -0.2689 -0.0447
  607MOL0     C80010   7.116  11.617   0.909 -0.9059 -0.1935  0.4829
  607MOL0     C80011   7.092  11.747   0.920 -0.9593 -0.8463  0.3330
  607MOL0     C80012   6.968  11.811   0.857  0.6837 -0.3386  0.0229
  607MOL0     C80013   6.959  11.806   0.711  0.0014 -0.6063 -0.5158
  607MOL0     C80014   6.854  11.894   0.645 -0.0092  0.4122 -0.3419
  607MOL0     C80015   6.862  11.894   0.497 -0.8813 -0.4552 -0.3032
  607MOL0     O80016   6.833  11.764   0.454  0.3370 -0.0020  0.3007
  607MOL0     C80017   6.868  11.753   0.326 -0.0467  0.5027 -0.2804
  607MOL0     C80018   6.765  11.758   0.222 -1.2115 -0.7804  0.3386
  607MOL0     C80019   6.800  11.753   0.088 -0.8104  1.1864 -0.1134
  607MOL0     C80020   6.937  11.744   0.047 -0.5373  0.0103  0.1985
  607MOL0     C80021   6.977  11.742  -0.099  0.3376 -0.9182 -0.1785
  607MOL0     O80022   7.107  11.768  -0.122  0.5067  0.0591 -0.4170
  607MOL0     C80023   7.157  11.762  -0.248 -0.4480 -0.2162  0.3184
  607MOL0     C80024   7.218  11.648  -0.310  0.4082 -0.2653 -0.5134
  607MOL0     C80025   7.274  11.650  -0.441  0.2453  0.4308 -0.0832
  607MOL0     C80026   7.265  11.776  -0.513  0.1537  0.7659 -0.1693
  607MOL0     O80027   7.320  11.794  -0.637 -0.4314 -0.3659 -0.4650
  607MOL0     C80028   7.394  11.684  -0.703 -0.5901  0.5897  0.1334
  607MOL0     C80029   7.285  11.616  -0.780  0.0769  0.2554 -0.2384
  607MOL0     C80030   7.328  11.475  -0.831  0.0251  0.5929 -0.1299
  607MOL0     C80031   7.248  11.434  -0.955  0.3239 -0.0556 -0.4236
  607MOL0     C80032   7.282  11.289  -0.985 -1.4613 -0.3580 -0.7925
  607MOL0     C80033   7.238  11.254  -1.125 -1.1506  0.1244  0.1738
  607MOL0     C80034   7.199  11.106  -1.132 -0.4306  1.1732  0.1350
  607MOL0     C80035   7.143  11.068  -1.273 -0.8120  0.1261  0.1355
  607MOL0    Cl80036   6.978  11.120  -1.284 -0.1693  0.1964 -0.1732
  607MOL0     C80037   7.215  11.885  -0.452  0.1279 -0.8149  0.0634
  607MOL0     C80038   7.158  11.877  -0.325 -0.2310  0.6487  0.1891
  607MOL0     O80039   6.885  11.726  -0.183 -0.4068 -0.7604  0.7918
  607MOL0     C80040   7.036  11.742   0.151  0.7044  0.2278  0.0202
  607MOL0     C80041   6.998  11.747   0.279 -0.1569 -0.2571 -0.6803
  607MOL0     N80042   7.205  11.809   0.970  0.2098  0.6159  0.5932
  607MOL0     N80043   7.298  11.720   0.992  0.1268 -0.2195  0.5591
  607MOL0     C80044   8.207  11.373   0.894  0.1211 -0.3310 -0.4708
  607MOL0     C80045   8.337  11.392   0.947  0.1801  0.2933  0.4575
  607MOL0     C80046   8.781  11.371   0.957  0.6010 -0.5924  0.1337
  607MOL0     C80047   8.863  11.280   1.025 -0.1795 -0.0676  0.3393
  607MOL0     C80048   9.006  11.291   1.032  0.5887 -0.7774 -0.7768
  607MOL0     C80049   9.072  11.397   0.966  0.9028 -0.0932  0.3623
  607MOL0     O80050   9.207  11.427   0.966  0.0324  0.0815  0.4464
  607MOL0     C80051   9.229  11.531   1.066  0.2738  0.5526  0.5132
  607MOL0     C80052   9.365  11.582   1.063  0.8952 -0.6013  0.4920
  607MOL0     C80053   9.403  11.662   0.935 -0.5906 -0.0465 -0.1275
  607MOL0     C80054   9.512  11.760   0.963 -0.0199 -0.3636  0.2948
  607MOL0     C80055   9.643  11.701   0.970  0.7228 -0.2863 -0.2872
  607MOL0     C80056   9.744  11.639   0.972  0.4992 -1.0601  1.2023
  607MOL0     C80057   8.987  11.484   0.895  0.2482  0.7932  0.4844
  607MOL0     C80058   8.853  11.472   0.899  0.1822 -0.4168  0.0427
  607MOL0     H80059   8.490  11.452   0.656  1.5911 -1.8891  2.1218
  607MOL0     H80060   8.271  11.445   0.566  1.5732 -0.8950 -0.1629
  607MOL0     H80061   7.904  11.369   0.851  0.5030 -0.7304  1.3144
  607MOL0     H80062   7.984  11.217   0.807  1.2494  2.3862  3.1492
  607MOL0     H80063   7.864  11.219   0.578 -0.8284 -0.9408  1.0016
  607MOL0     H80064   7.798  11.376   0.623  0.4282  0.1326 -0.6236
  607MOL0     H80065   7.767  11.099   0.767 -2.5292 -0.3192 -0.4837
  607MOL0     H80066   7.648  11.161   0.648 -1.8467  3.1288  0.2741
  607MOL0     H80067   7.698  11.298   0.911 -4.2020  1.4822  1.7063
  607MOL0     H80068   7.614  11.350   0.769 -2.4005 -0.9866 -1.5449
  607MOL0     H80069   7.546  11.093   0.937 -1.6977 -0.4466  0.4032
  607MOL0     H80070   7.460  11.151   0.788  1.3754  3.4336 -3.0290
  607MOL0     H80071   7.507  11.308   1.048  1.8306 -1.3938 -0.2565
  607MOL0     H80072   7.358  11.224   1.011 -0.1211  0.1933 -1.4252
  607MOL0     H80073   7.429  11.457   0.844  0.7633  1.4880  0.3448
  607MOL0     H80074   7.277  11.354   0.842 -0.5203 -0.0044  0.8416
  607MOL0     H80075   7.387  11.500   1.079 -0.4869  0.7031  0.3829
  607MOL0     H80076   7.229  11.435   1.075  0.7867 -2.6497 -0.9484
  607MOL0     H80077   7.047  11.545   0.865 -1.4901  0.1399  0.8354
  607MOL0     H80078   6.967  11.914   0.891  0.7589  0.0905 -1.2116
  607MOL0     H80079   6.883  11.756   0.899 -1.7542  1.2948 -2.4401
  607MOL0     H80080   6.947  11.698   0.694  1.3250 -0.7558 -0.6111
  607MOL0     H80081   7.056  11.834   0.669  1.7179 -0.8977  2.9690
  607MOL0     H80082   6.753  11.856   0.665  0.3102 -0.1737  0.1844
  607MOL0     H80083   6.868  11.996   0.681  0.2451  0.9421 -1.8766
  607MOL0     H80084   6.966  11.909   0.467 -1.3483 -1.0820 -2.4619
  607MOL0     H80085   6.803  11.970   0.444 -1.6979 -1.3182 -0.6734
  607MOL0     H80086   6.660  11.773   0.247 -1.4374  4.1111 -2.3385
  607MOL0     H80087   6.725  11.747   0.010 -0.6090  0.3132 -0.2513
  607MOL0     H80088   7.233  11.559  -0.250 -1.7612 -0.5093 -0.2752
  607MOL0     H80089   7.311  11.559  -0.487 -1.7051 -0.5266  0.1522
  607MOL0     H80090   7.437  11.621  -0.624 -0.2630  0.8580  0.1700
  607MOL0     H80091   7.473  11.725  -0.765 -1.9681  0.7321 -1.6038
  607MOL0     H80092   7.272  11.674  -0.872 -2.0515  2.5072  1.3521
  607MOL0     H80093   7.186  11.611  -0.734  0.2541  2.1703  0.4207
  607MOL0     H80094   7.325  11.399  -0.753  1.4589 -0.7788 -1.3311
  607MOL0     H80095   7.433  11.478  -0.861  0.1531 -0.1344  0.2308
  607MOL0     H80096   7.141  11.444  -0.936 -0.4146 -4.1738 -1.5280
  607MOL0     H80097   7.284  11.497  -1.036 -0.8495  2.2694  0.7702
  607MOL0     H80098   7.229  11.231  -0.909 -0.9375  0.8689  0.5473
  607MOL0     H80099   7.386  11.255  -0.974 -1.4562  0.4855  3.7467
  607MOL0     H80100   7.324  11.269  -1.192  2.1785 -3.2651  3.2455
  607MOL0     H80101   7.158  11.322  -1.155 -1.1966 -0.3675 -0.8663
  607MOL0     H80102   7.295  11.054  -1.121 -0.9052  0.7301  3.1331
  607MOL0     H80103   7.132  11.071  -1.053  1.3706  0.8909  1.6085
  607MOL0     H80104   7.159  10.964  -1.300  1.3686  0.9224 -2.0382
  607MOL0     H80105   7.199  11.118  -1.353  0.5515 -1.5865 -0.0302
  607MOL0     H80106   7.216  11.980  -0.504  3.2476  1.9808  4.5244
  607MOL0     H80107   7.108  11.966  -0.287  0.6994  1.7473 -1.0195
  607MOL0     H80108   7.140  11.740   0.120  1.4268  2.5347  1.9963
  607MOL0     H80109   7.073  11.745   0.357 -1.4859 -0.1713  0.6369
  607MOL0     H80110   8.131  11.351   0.968 -0.6487 -3.6819 -2.0740
  607MOL0     H80111   8.351  11.390   1.055  2.1240  2.0515  0.3110
  607MOL0     H80112   8.827  11.191   1.077  0.4436 -1.0622 -0.8617
  607MOL0     H80113   9.072  11.225   1.088  2.2949  2.4299  1.3351
  607MOL0     H80114   9.214  11.485   1.164 -2.1677 -1.2458 -0.6185
  607MOL0     H80115   9.165  11.619   1.056 -0.7351  0.1750  2.9765
  607MOL0     H80116   9.376  11.645   1.152  1.4838 -3.0758  2.2599
  607MOL0     H80117   9.438  11.502   1.080  0.9687 -0.3066  1.6364
  607MOL0     H80118   9.317  11.713   0.890  0.1519 -0.6611 -2.3891
  607MOL0     H80119   9.436  11.592   0.858  3.8700  1.9046 -0.2935
  607MOL0     H80120   9.509  11.828   0.878 -1.9844 -0.6281  0.0996
  607MOL0     H80121   9.498  11.828   1.047  2.7797  1.5492 -0.6360
  607MOL0     H80122   9.823  11.567   0.974  1.1980 -0.4894 -1.6725
  607MOL0     H80123   9.018  11.578   0.851  0.9611  0.4558  0.2370
  607MOL0     H80124   8.798  11.553   0.852  1.5878  0.9461  0.6567
  608MOL0     O80125   0.613   1.260   7.347 -0.2892  0.1198 -0.8439
  608MOL0     C80126   0.629   1.191   7.244  0.2437 -0.7033 -0.7917
  608MOL0     O80127   0.574   1.216   7.123 -0.5129  0.3687 -0.3592
  608MOL0     C80128   0.485   1.327   7.125 -0.2129  0.5607  0.2844
  608MOL0     C80129   0.533   1.463   7.143 -0.1210  0.3194 -0.6518
  608MOL0     C80130   0.446   1.567   7.150  0.2335  0.4831  0.7233
  608MOL0     C80131   0.306   1.540   7.135 -0.8464  0.4180  0.2087
  608MOL0     O80132   0.221   1.646   7.156 -1.0145 -0.3587  0.5795
  608MOL0     C80133   0.090   1.634   7.202  0.8511 -0.0237  0.3212
  608MOL0     C80134   0.041   1.777   7.215  0.4433 -0.0976 -0.0164
  608MOL0     C80135  -0.100   1.778   7.275 -0.4013 -0.2499  0.0810
  608MOL0     C80136  -0.153   1.919   7.255  1.3443 -0.3034  0.4798
  608MOL0     C80137  -0.304   1.922   7.294  0.0907  0.9074 -0.6615
  608MOL0     C80138  -0.319   1.947   7.445  0.1336 -0.7780  0.4188
  608MOL0     C80139  -0.462   1.932   7.485 -0.1447 -0.5766 -0.6515
  608MOL0     C80140  -0.479   1.986   7.631  0.1985 -0.7415  0.0164
  608MOL0     N80141  -0.616   1.946   7.651  0.3729  0.1840  0.6215
  608MOL0     C80142  -0.666   1.822   7.663 -0.6007  1.2968  0.5338
  608MOL0     C80143  -0.802   1.837   7.685 -0.6162  0.1431  1.6617
  608MOL0     C80144  -0.895   1.718   7.698 -0.3464  0.1184 -0.1908
  608MOL0     C80145  -1.044   1.747   7.752  0.5656 -0.0894  1.0370
  608MOL0     C80146  -1.138   1.619   7.748  0.3707 -0.1747  0.9829
  608MOL0     C80147  -1.278   1.651   7.811  0.0678  0.9169  0.1222
  608MOL0     O80148  -1.355   1.729   7.726  0.1205 -0.4569 -0.8152
  608MOL0     C80149  -1.491   1.694   7.718 -1.2252 -0.4634 -0.1466
  608MOL0     C80150  -1.573   1.802   7.706  0.4308  0.2180 -0.0292
  608MOL0     C80151  -1.707   1.791   7.715  0.9699  0.0904 -0.3685
  608MOL0     C80152  -1.760   1.661   7.740  0.6982 -0.0108 -0.6117
  608MOL0     C80153  -1.903   1.638   7.763 -0.1179  0.9409  0.0479
  608MOL0     O80154  -1.978   1.751   7.798 -0.7567 -0.2666  0.2611
  608MOL0     C80155  -2.116   1.747   7.809 -0.4617 -0.4085 -0.3620
  608MOL0     C80156  -2.170   1.823   7.909  0.5423 -0.8186  0.1038
  608MOL0     C80157  -2.312   1.822   7.925  0.3482 -0.2421  1.0692
  608MOL0     C80158  -2.394   1.757   7.829  0.0492  0.3916 -0.2437
  608MOL0     O80159  -2.532   1.754   7.859  0.0592  0.1520 -0.2143
  608MOL0     C80160  -2.620   1.691   7.776 -0.5214  0.4922  0.7160
  608MOL0     C80161  -2.771   1.702   7.815 -0.2974  0.1057  0.2110
  608MOL0     C80162  -2.802   1.849   7.857  0.1084  0.4980  0.3039
  608MOL0     C80163  -2.948   1.849   7.922  0.6857 -0.7055 -0.3091
  608MOL0     C80164  -2.993   1.982   7.971 -0.1195 -0.1446  0.2004
  608MOL0     C80165  -3.144   1.971   8.019  0.6727 -1.0275 -0.6614
  608MOL0     C80166  -3.181   2.075   8.130  0.5578  0.4312  0.0670
  608MOL0     C80167  -3.141   2.049   8.273 -0.7767  0.0471 -0.8668
  608MOL0    Cl80168  -3.272   2.113   8.386 -0.2415  0.3138  0.2304
  608MOL0     C80169  -2.339   1.697   7.715  0.3605  0.6233  0.5348
  608MOL0     C80170  -2.197   1.694   7.707  0.3216  0.3961 -0.0419
  608MOL0     O80171  -1.948   1.524   7.765 -0.5037  0.1629  0.0216
  608MOL0     C80172  -1.675   1.548   7.742  0.3170 -0.0914  0.1950
  608MOL0     C80173  -1.539   1.562   7.718  1.6016  0.6091  1.5970
  608MOL0     N80174  -0.825   1.969   7.657 -0.4499 -0.0894  0.0967
  608MOL0     N80175  -0.718   2.033   7.646  0.3102  0.5013 -0.1302
  608MOL0     C80176   0.264   1.409   7.115 -0.7062  0.2609 -0.2593
  608MOL0     C80177   0.353   1.296   7.116 -0.5871  0.5067  0.2188
  608MOL0     C80178   0.715   1.079   7.256  0.4949 -0.4670 -1.2203
  608MOL0     C80179   0.824   1.066   7.357 -0.3659  0.0000  0.4480
  608MOL0     C80180   0.906   0.952   7.356  0.4285 -0.2950 -0.0255
  608MOL0     C80181   0.890   0.848   7.264 -0.2891  0.3455 -0.4819
  608MOL0     O80182   0.950   0.728   7.288 -0.3045 -0.2942  0.1501
  608MOL0     C80183   0.947   0.631   7.184  0.1247 -0.2305  1.2525
  608MOL0     C80184   0.822   0.536   7.212 -0.1036 -0.1668 -0.0618
  608MOL0     C80185   0.818   0.417   7.119 -0.2459  0.1868 -0.6852
  608MOL0     C80186   0.691   0.336   7.145 -0.8384  0.2910  0.3170
  608MOL0     C80187   0.704   0.191   7.135 -0.3225  0.0360  0.3092
  608MOL0     C80188   0.719   0.073   7.133 -0.5521 -0.1173 -0.3991
  608MOL0     C80189   0.780   0.860   7.180 -0.5061 -0.0777  1.1716
  608MOL0     C80190   0.691   0.974   7.167  0.6829 -0.5671 -1.7220
  608MOL0     H80191   0.639   1.483   7.153 -0.2297  0.2329  0.8111
  608MOL0     H80192   0.469   1.672   7.165 -2.2834  1.4231 -1.1988
  608MOL0     H80193   0.093   1.582   7.298  0.9567  0.8860  0.8180
  608MOL0     H80194   0.033   1.579   7.126 -0.7934  0.1850  1.3614
  608MOL0     H80195   0.051   1.821   7.115  0.7718  0.8503  0.4311
  608MOL0     H80196   0.105   1.822   7.291 -1.7296 -0.1752  1.9380
  608MOL0     H80197  -0.101   1.759   7.382 -3.2727  0.0389  0.1766
  608MOL0     H80198  -0.169   1.706   7.230 -0.6888  0.0234  0.0856
  608MOL0     H80199  -0.102   1.993   7.317  1.8087  0.4140 -0.7286
  608MOL0     H80200  -0.156   1.957   7.153 -2.4973 -0.0260  0.5370
  608MOL0     H80201  -0.358   1.833   7.259 -1.3446  1.9914 -1.3294
  608MOL0     H80202  -0.354   2.004   7.242 -1.1811 -1.3001 -3.1538
  608MOL0     H80203  -0.278   2.047   7.462  0.0089 -0.0755 -2.7604
  608MOL0     H80204  -0.267   1.873   7.507 -0.5460 -0.2772  1.6129
  608MOL0     H80205  -0.527   1.992   7.421 -2.2960 -1.5657  0.4818
  608MOL0     H80206  -0.488   1.825   7.479 -2.6534 -0.1713  1.3569
  608MOL0     H80207  -0.467   2.094   7.623  0.5010 -0.4704  3.0942
  608MOL0     H80208  -0.410   1.940   7.703  2.0944  0.1786 -1.1219
  608MOL0     H80209  -0.616   1.727   7.677 -0.5228  0.4410 -4.0733
  608MOL0     H80210  -0.862   1.635   7.761 -5.6685  0.1104  3.1993
  608MOL0     H80211  -0.913   1.682   7.596  0.2454  3.0736 -1.4426
  608MOL0     H80212  -1.084   1.829   7.691  1.2359 -1.0925 -0.8356
  608MOL0     H80213  -1.051   1.776   7.857 -2.5459 -1.5272  1.3237
  608MOL0     H80214  -1.134   1.575   7.648  0.3655  0.2977  0.7743
  608MOL0     H80215  -1.083   1.553   7.816  1.6119 -1.0325 -0.7783
  608MOL0     H80216  -1.277   1.705   7.906 -1.6396  4.3876 -1.6168
  608MOL0     H80217  -1.314   1.550   7.832  1.7404  0.4991  1.2138
  608MOL0     H80218  -1.524   1.897   7.687  1.9158 -0.8702 -2.0702
  608MOL0     H80219  -1.789   1.862   7.709 -2.6471 -3.7784 -3.9722
  608MOL0     H80220  -2.103   1.879   7.974  0.0395 -0.5457  0.3963
  608MOL0     H80221  -2.360   1.873   8.008 -2.1676  0.5607 -0.7778
  608MOL0     H80222  -2.596   1.586   7.756  2.3221  1.5230 -2.0984
  608MOL0     H80223  -2.606   1.738   7.678  2.1256  1.0547  1.2923
  608MOL0     H80224  -2.783   1.634   7.900 -2.3636 -0.0069 -0.1247
  608MOL0     H80225  -2.833   1.672   7.731  0.4590  4.6631 -2.3258
  608MOL0     H80226  -2.794   1.921   7.775  0.6920  1.1110  0.8879
  608MOL0     H80227  -2.743   1.864   7.948 -0.1559 -0.2737  0.6088
  608MOL0     H80228  -3.025   1.805   7.857 -0.1492 -1.9360  1.3934
  608MOL0     H80229  -2.942   1.787   8.013  2.8793 -0.9378 -0.5761
  608MOL0     H80230  -2.984   2.056   7.892  1.1867 -0.4632  0.0287
  608MOL0     H80231  -2.929   2.019   8.052 -1.1420 -1.2746  1.5943
  608MOL0     H80232  -3.179   1.878   8.062 -1.4931  0.0715  0.0792
  608MOL0     H80233  -3.215   1.992   7.938 -2.1043 -3.7458  0.9055
  608MOL0     H80234  -3.142   2.170   8.092 -3.2443  0.6834 -4.0483
  608MOL0     H80235  -3.290   2.078   8.126  0.5590  3.5032 -4.2145
  608MOL0     H80236  -3.048   2.104   8.292 -1.6853  2.0061 -1.7901
  608MOL0     H80237  -3.115   1.944   8.288 -0.5326 -0.0276 -1.7163
  608MOL0     H80238  -2.406   1.656   7.640 -0.5043  0.5243  1.3414
  608MOL0     H80239  -2.161   1.641   7.619  1.1506  3.2121 -1.5086
  608MOL0     H80240  -1.714   1.447   7.748 -0.3431  0.2073  1.3284
  608MOL0     H80241  -1.475   1.474   7.713  1.5825  0.2346  5.2759
  608MOL0     H80242   0.159   1.383   7.114 -0.3676 -1.3505  1.0879
  608MOL0     H80243   0.328   1.191   7.111 -0.1003  0.1203  3.6544
  608MOL0     H80244   0.838   1.133   7.441 -2.0539  0.1856  0.6215
  608MOL0     H80245   0.992   0.960   7.422 -0.5367  0.1405  1.2219
  608MOL0     H80246   1.041   0.575   7.175  1.1443  1.6655 -3.6240
  608MOL0     H80247   0.955   0.675   7.084 -2.1069 -1.9182  0.2515
  608MOL0     H80248   0.827   0.515   7.319 -0.6795  2.3241  0.5040
  608MOL0     H80249   0.727   0.587   7.195  0.7607  1.7513  0.6082
  608MOL0     H80250   0.899   0.348   7.145  1.1960  1.4929 -1.5483
  608MOL0     H80251   0.835   0.444   7.014 -3.3807  0.6918 -1.1549
  608MOL0     H80252   0.651   0.350   7.246  0.3633  0.8253  0.7470
  608MOL0     H80253   0.624   0.373   7.067  0.3452  3.8859  0.7961
  608MOL0     H80254   0.735  -0.033   7.143  1.4842 -0.0300 -2.0749
  608MOL0     H80255   0.754   0.776   7.117 -2.1986  1.4963 -0.3313
  608MOL0     H80256   0.615   0.972   7.090 -0.8794  0.6132 -0.2721
  609MOL0     O80257  10.047   8.319   7.896  0.0920 -0.3117  0.0594
  609MOL0     C80258  10.068   8.271   7.789  0.1187  0.5234 -0.0430
  609MOL0     O80259  10.025   8.319   7.668  0.1906  0.6095 -0.5970
  609MOL0     C80260   9.936   8.424   7.665  0.2003 -0.2534  0.1225
  609MOL0     C80261   9.806   8.421   7.717 -0.2489 -0.0386 -0.2331
  609MOL0     C80262   9.727   8.525   7.714 -0.2423 -0.1471  0.6424
  609MOL0     C80263   9.753   8.630   7.621 -0.6387  0.3192  0.5576
  609MOL0     O80264   9.658   8.722   7.591 -0.2124 -1.2526  0.8267
  609MOL0     C80265   9.532   8.676   7.540 -0.2641  0.3004 -0.2723
  609MOL0     C80266   9.428   8.788   7.535 -0.4671 -0.1747 -0.2459
  609MOL0     C80267   9.470   8.892   7.441  0.4528 -0.2649  0.3856
  609MOL0     C80268   9.371   9.002   7.420  0.4105  0.9989 -0.5331
  609MOL0     C80269   9.420   9.088   7.302  0.6089  0.1407  0.0229
  609MOL0     C80270   9.323   9.186   7.242  0.1967  0.8440  0.3717
  609MOL0     C80271   9.250   9.285   7.344  0.1570 -0.3865 -0.3765
  609MOL0     C80272   9.140   9.370   7.275  0.7440  0.3655  0.6004
  609MOL0     N80273   9.021   9.284   7.241  0.4886 -0.2417 -0.7707
  609MOL0     C80274   8.919   9.267   7.332 -1.9189 -0.6363 -0.1624
  609MOL0     C80275   8.810   9.221   7.269  0.2288  0.2406 -0.4493
  609MOL0     C80276   8.684   9.199   7.341  0.7540  0.1893 -1.1130
  609MOL0     C80277   8.600   9.111   7.263 -0.0372 -0.5006  0.0146
  609MOL0     C80278   8.501   9.034   7.353  0.3681 -0.5726 -0.3549
  609MOL0     C80279   8.433   8.926   7.266 -0.3359  0.1906  0.1665
  609MOL0     O80280   8.301   8.890   7.316 -1.1290  0.0226 -0.6946
  609MOL0     C80281   8.205   8.865   7.224  0.2349 -0.6397 -0.5022
  609MOL0     C80282   8.172   8.737   7.179 -0.7488 -0.2384  0.2367
  609MOL0     C80283   8.056   8.712   7.099 -1.2294 -0.6085 -0.2405
  609MOL0     C80284   7.964   8.817   7.087  0.3784  0.9339 -0.0512
  609MOL0     C80285   7.840   8.801   7.008  0.0049  0.9606 -0.6009
  609MOL0     O80286   7.751   8.903   7.018 -0.0198  0.3774 -0.2609
  609MOL0     C80287   7.625   8.888   6.991  0.8665 -0.2586  0.6465
  609MOL0     C80288   7.578   8.825   6.865 -0.3819  0.4784  0.6453
  609MOL0     C80289   7.449   8.813   6.832 -0.2203  0.2669  0.2069
  609MOL0     C80290   7.356   8.870   6.921 -0.5368  0.0694  0.1216
  609MOL0     O80291   7.232   8.850   6.881  0.5572 -1.5254  0.4584
  609MOL0     C80292   7.119   8.901   6.947  0.2746 -0.0694 -0.0539
  609MOL0     C80293   6.996   8.821   6.895  0.9298 -0.7051 -0.1486
  609MOL0     C80294   6.862   8.896   6.934 -0.4170  0.4181  0.6976
  609MOL0     C80295   6.722   8.835   6.912  1.1393  0.1938  0.1165
  609MOL0     C80296   6.608   8.936   6.935  0.7599  0.0519  0.0781
  609MOL0     C80297   6.459   8.897   6.891  0.7925 -0.1743 -0.3569
  609MOL0     C80298   6.353   8.999   6.936  0.3526  1.5027  0.6277
  609MOL0     C80299   6.209   8.953   6.918 -0.3227 -0.3924 -0.6407
  609MOL0    Cl80300   6.162   8.955   6.743  0.0467 -0.2582 -0.0196
  609MOL0     C80301   7.401   8.946   7.032  0.7345  0.7827 -0.6709
  609MOL0     C80302   7.531   8.965   7.056 -0.4633 -0.3024 -0.1499
  609MOL0     O80303   7.818   8.693   6.955 -0.0825  0.7307 -0.1529
  609MOL0     C80304   7.993   8.949   7.135 -0.1420 -0.6136 -0.3940
  609MOL0     C80305   8.110   8.971   7.211 -0.0484 -0.6534  0.7014
  609MOL0     N80306   8.835   9.220   7.137  0.0968 -1.2550 -0.1271
  609MOL0     N80307   8.960   9.241   7.119  0.6600 -0.0975 -0.5811
  609MOL0     C80308   9.873   8.637   7.553  0.2322 -0.3110 -0.2523
  609MOL0     C80309   9.966   8.529   7.571 -0.4777 -0.1940  0.0999
  609MOL0     C80310  10.168   8.162   7.781 -1.1271 -0.0582  0.7038
  609MOL0     C80311  10.248   8.129   7.892  0.3731 -0.1917 -0.1163
  609MOL0     C80312  10.344   8.032   7.884  0.8696  0.6511  0.0796
  609MOL0     C80313  10.377   7.983   7.755 -0.2403  0.4633  0.0041
  609MOL0     O80314  10.472   7.888   7.733 -0.5483 -0.2026  0.5581
  609MOL0     C80315  10.442   7.773   7.810 -0.9083  0.0318  0.9053
  609MOL0     C80316  10.511   7.650   7.745 -1.1317 -0.6681 -0.5320
  609MOL0     C80317  10.452   7.519   7.803  0.0632 -0.2858  0.1426
  609MOL0     C80318  10.531   7.398   7.758  0.0241  0.2954 -0.5190
  609MOL0     C80319  10.508   7.286   7.850  0.4045 -0.1613  0.2067
  609MOL0     C80320  10.485   7.193   7.926  0.4440  0.2098 -0.5299
  609MOL0     C80321  10.315   8.018   7.641  0.2350 -0.1097 -0.5942
  609MOL0     C80322  10.204   8.103   7.656  0.5487  0.4541 -0.5967
  609MOL0     H80323   9.781   8.330   7.771 -1.1778  1.9752  2.9391
  609MOL0     H80324   9.625   8.522   7.752 -0.3083  2.0729  0.7980
  609MOL0     H80325   9.492   8.594   7.601 -2.4308  0.8034 -0.9022
  609MOL0     H80326   9.541   8.624   7.444 -4.2740 -2.5538  0.5873
  609MOL0     H80327   9.415   8.827   7.637 -0.4151 -0.5500 -0.0933
  609MOL0     H80328   9.334   8.740   7.505 -0.5967  0.1373 -0.3457
  609MOL0     H80329   9.494   8.842   7.346 -0.0988 -2.2099  1.2055
  609MOL0     H80330   9.563   8.935   7.477  2.3820 -2.9703 -1.0021
  609MOL0     H80331   9.271   8.963   7.399  0.5746  1.5539 -2.6275
  609MOL0     H80332   9.356   9.059   7.511 -0.0488 -1.0740  0.7657
  609MOL0     H80333   9.464   9.023   7.225  0.3149  0.0030 -0.0307
  609MOL0     H80334   9.503   9.149   7.339  1.1185  0.0953 -1.0064
  609MOL0     H80335   9.262   9.144   7.162  1.3798 -2.4557  1.0476
  609MOL0     H80336   9.403   9.234   7.186  2.5289 -3.1951 -0.1213
  609MOL0     H80337   9.206   9.218   7.418 -1.7928  1.0388 -0.1695
  609MOL0     H80338   9.321   9.343   7.403  0.5130  0.1836 -1.3476
  609MOL0     H80339   9.183   9.415   7.186 -1.6259  1.0858 -0.2473
  609MOL0     H80340   9.102   9.449   7.341  2.4200  0.2185  1.8002
  609MOL0     H80341   8.928   9.302   7.435 -0.7271  6.4590 -2.1240
  609MOL0     H80342   8.639   9.298   7.358  0.8538  0.4684 -2.3568
  609MOL0     H80343   8.701   9.150   7.437  0.5707  1.4179 -0.4223
  609MOL0     H80344   8.662   9.035   7.215 -1.6537 -2.5931  1.1225
  609MOL0     H80345   8.549   9.181   7.196  1.9194 -0.6154 -1.7302
  609MOL0     H80346   8.551   8.992   7.441  0.5848 -0.3952 -0.3945
  609MOL0     H80347   8.432   9.110   7.390 -2.4412 -2.9067 -0.4073
  609MOL0     H80348   8.495   8.836   7.267  1.9114  1.6554  2.2615
  609MOL0     H80349   8.429   8.954   7.160 -1.2118  2.9658  0.8470
  609MOL0     H80350   8.226   8.646   7.204  0.4366 -0.4264 -2.5813
  609MOL0     H80351   8.024   8.611   7.075 -0.5484 -0.5375 -1.5280
  609MOL0     H80352   7.651   8.777   6.800  0.1371  0.3969  1.2793
  609MOL0     H80353   7.429   8.768   6.736  2.5949  3.3089 -2.0605
  609MOL0     H80354   7.106   9.006   6.921  0.0372  0.2368  1.2180
  609MOL0     H80355   7.141   8.901   7.055  0.2146  4.9310  0.1836
  609MOL0     H80356   7.003   8.727   6.951  2.0096 -0.3287  0.3913
  609MOL0     H80357   7.001   8.795   6.789 -1.6231  2.0929 -1.0842
  609MOL0     H80358   6.862   8.994   6.885  1.8093  0.0786 -0.1120
  609MOL0     H80359   6.866   8.920   7.040 -2.3358 -0.8315  1.0834
  609MOL0     H80360   6.699   8.814   6.807 -0.7638 -0.2771  0.5981
  609MOL0     H80361   6.690   8.748   6.970  0.1749 -1.1270 -2.2822
  609MOL0     H80362   6.631   9.024   6.875 -1.4979 -0.8382 -2.2755
  609MOL0     H80363   6.598   8.964   7.041  2.8605 -1.0179  0.6256
  609MOL0     H80364   6.444   8.808   6.954 -1.1417 -0.5537 -1.2992
  609MOL0     H80365   6.452   8.863   6.787 -3.7913 -4.7852  1.0366
  609MOL0     H80366   6.373   9.014   7.042  0.5964 -0.5364  0.9190
  609MOL0     H80367   6.368   9.095   6.886 -1.0655  2.1820  1.4740
  609MOL0     H80368   6.150   9.027   6.972  0.0806  0.1298 -0.9157
  609MOL0     H80369   6.184   8.851   6.951 -0.0343 -0.1852  0.2481
  609MOL0     H80370   7.323   8.995   7.090  0.3068  0.9761 -1.3902
  609MOL0     H80371   7.575   9.024   7.135  0.0033  0.3145 -0.8539
  609MOL0     H80372   7.924   9.032   7.136  0.4692 -0.1035  0.2120
  609MOL0     H80373   8.133   9.067   7.254  1.3082  1.1763 -3.5466
  609MOL0     H80374   9.906   8.723   7.496 -2.9389  0.7441 -0.7188
  609MOL0     H80375  10.052   8.527   7.504 -4.2089 -0.4697 -5.3152
  609MOL0     H80376  10.235   8.167   7.993  0.5443  1.2233 -0.5997
  609MOL0     H80377  10.405   8.015   7.972 -1.4197 -0.7071  1.5113
  609MOL0     H80378  10.335   7.753   7.798  0.0581 -4.3380 -4.1111
  609MOL0     H80379  10.477   7.792   7.912 -0.7891  0.5287  0.7740
  609MOL0     H80380  10.503   7.662   7.637  2.3638 -1.6782 -1.0133
  609MOL0     H80381  10.619   7.662   7.757 -1.0781 -1.1944 -0.4603
  609MOL0     H80382  10.352   7.525   7.758  1.3870  3.3903 -2.8940
  609MOL0     H80383  10.455   7.518   7.912  2.0551 -0.3229  0.1218
  609MOL0     H80384  10.486   7.374   7.662 -0.0203 -0.3939 -0.3271
  609MOL0     H80385  10.640   7.408   7.751  0.1416  0.7956  1.3411
  609MOL0     H80386  10.466   7.115   7.997  2.0362  0.2686  0.0123
  609MOL0     H80387  10.336   7.974   7.544  2.5322  2.3288 -1.3147
  609MOL0     H80388  10.146   8.131   7.568  0.7067  0.4250 -0.7092
  610MOL0     O80389   8.427   1.377   6.392  0.2689  0.1574 -0.4913
  610MOL0     C80390   8.484   1.449   6.474 -0.7222 -0.7566  0.3593
  610MOL0     O80391   8.425   1.550   6.541 -0.3721 -0.5800  0.2820
  610MOL0     C80392   8.288   1.567   6.540 -0.4104  0.7402  0.6348
  610MOL0     C80393   8.208   1.539   6.651 -0.2361 -0.1784  0.7206
  610MOL0     C80394   8.070   1.562   6.633  0.8405  0.3094 -0.5110
  610MOL0     C80395   8.010   1.616   6.514  0.3808  0.3361 -0.0425
  610MOL0     O80396   7.878   1.627   6.487  0.2630  0.8417  0.4529
  610MOL0     C80397   7.784   1.549   6.558  0.7972  0.2684 -0.5790
  610MOL0     C80398   7.642   1.569   6.513 -0.1994  0.3221  0.4097
  610MOL0     C80399   7.572   1.700   6.546 -0.0379 -0.0199  0.2160
  610MOL0     C80400   7.576   1.732   6.695  0.3401 -0.2253  1.3225
  610MOL0     C80401   7.472   1.828   6.755  0.4591 -0.8983 -0.9011
  610MOL0     C80402   7.340   1.750   6.753  0.5182  0.4318 -0.9604
  610MOL0     C80403   7.218   1.825   6.810 -0.5513  0.1017 -0.4520
  610MOL0     C80404   7.240   1.883   6.950 -0.4615 -0.1365 -0.6217
  610MOL0     N80405   7.246   1.771   7.045  0.0262 -0.7210 -0.8330
  610MOL0     C80406   7.150   1.702   7.123  0.4994 -0.1273  0.3907
  610MOL0     C80407   7.224   1.611   7.197 -0.8952 -0.4860 -1.2434
  610MOL0     C80408   7.159   1.531   7.312 -0.0652 -0.2264 -0.8815
  610MOL0     C80409   7.015   1.513   7.278 -0.1121 -0.2675 -0.9097
  610MOL0     C80410   6.956   1.422   7.380 -0.0045  0.1709  0.4182
  610MOL0     C80411   6.815   1.375   7.335 -0.1677  0.3019  0.1490
  610MOL0     O80412   6.810   1.259   7.248 -0.0346  0.0652 -0.1887
  610MOL0     C80413   6.723   1.156   7.275  0.6902  0.1162  0.6691
  610MOL0     C80414   6.691   1.067   7.171  0.4377 -0.2397  0.3200
  610MOL0     C80415   6.615   0.952   7.198 -0.2208 -0.3180 -0.2637
  610MOL0     C80416   6.559   0.917   7.327  0.6254 -0.6294 -0.6376
  610MOL0     C80417   6.471   0.801   7.339  0.1143  0.7130 -1.0568
  610MOL0     O80418   6.460   0.754   7.466  0.4148 -0.5912  0.6209
  610MOL0     C80419   6.417   0.639   7.512  0.2685  0.5891  0.2594
  610MOL0     C80420   6.406   0.649   7.651 -0.5413 -0.2484 -0.1238
  610MOL0     C80421   6.374   0.535   7.732  0.1933  0.2750  0.0301
  610MOL0     C80422   6.355   0.408   7.661 -0.8436 -0.3031 -0.6874
  610MOL0     O80423   6.324   0.303   7.741 -0.6664  0.0268  0.3238
  610MOL0     C80424   6.326   0.169   7.684  0.7641  0.6841 -0.3278
  610MOL0     C80425   6.275   0.061   7.779 -0.4415  0.7527 -0.1904
  610MOL0     C80426   6.150   0.092   7.849  0.5557  0.9556  0.2081
  610MOL0     C80427   6.133  -0.015   7.955 -0.0528  0.3195 -0.5643
  610MOL0     C80428   6.040   0.015   8.073  0.0284 -0.0664 -0.8063
  610MOL0     C80429   5.897  -0.007   8.032  0.2892 -0.5733 -0.2048
  610MOL0     C80430   5.789   0.068   8.115 -0.6720  0.0836 -0.0574
  610MOL0     C80431   5.774   0.018   8.253  0.3374  0.3073 -0.3083
  610MOL0    Cl80432   5.641  -0.101   8.255  0.1423 -0.0751  0.4422
  610MOL0     C80433   6.356   0.404   7.519 -0.6081 -0.3674 -0.6708
  610MOL0     C80434   6.383   0.521   7.442  0.5072 -0.2181 -0.4275
  610MOL0     O80435   6.427   0.742   7.240  0.4871 -0.2318  0.3908
  610MOL0     C80436   6.602   1.006   7.426 -0.0494  0.6928 -0.1004
  610MOL0     C80437   6.683   1.116   7.404 -1.6398 -0.5099 -0.5442
  610MOL0     N80438   7.358   1.640   7.174  0.2194  0.5042 -0.0430
  610MOL0     N80439   7.370   1.735   7.088 -0.2933 -0.0737  0.5305
  610MOL0     C80440   8.098   1.645   6.416 -0.5716  0.2011 -0.1469
  610MOL0     C80441   8.238   1.629   6.430  0.6999 -0.4783 -0.4001
  610MOL0     C80442   8.633   1.431   6.483 -1.3538 -0.8331 -0.3240
  610MOL0     C80443   8.705   1.361   6.390  0.5215  0.4125  1.2461
  610MOL0     C80444   8.841   1.336   6.401  0.1637  0.2475 -0.5966
  610MOL0     C80445   8.911   1.390   6.507  0.0867  0.5381 -1.0268
  610MOL0     O80446   9.030   1.342   6.535  0.2856  0.8815  0.3306
  610MOL0     C80447   9.125   1.413   6.608  1.0509 -0.6327 -0.5539
  610MOL0     C80448   9.272   1.360   6.607  0.5423 -0.2564  0.2552
  610MOL0     C80449   9.355   1.470   6.674 -0.2635 -0.6147  0.7322
  610MOL0     C80450   9.511   1.487   6.626  0.2445 -0.4972 -0.6202
  610MOL0     C80451   9.547   1.621   6.575  0.4246  0.0207  1.0560
  610MOL0     C80452   9.589   1.727   6.527  0.6246 -0.3011  0.0012
  610MOL0     C80453   8.845   1.471   6.600  0.7975  0.0942  0.1671
  610MOL0     C80454   8.708   1.496   6.589  0.2135 -0.9910  0.1839
  610MOL0     H80455   8.258   1.503   6.740 -1.1682 -0.1842  1.2533
  610MOL0     H80456   8.003   1.538   6.715  0.3128 -1.4503 -1.4139
  610MOL0     H80457   7.786   1.575   6.665 -0.9238  0.1509 -0.4906
  610MOL0     H80458   7.807   1.445   6.535 -0.7621 -0.7683  2.1249
  610MOL0     H80459   7.577   1.495   6.559 -0.2385 -0.1348 -0.3530
  610MOL0     H80460   7.631   1.559   6.404 -1.4598  1.6674  0.3892
  610MOL0     H80461   7.476   1.698   6.492  0.4922 -0.3534 -0.7434
  610MOL0     H80462   7.633   1.775   6.494 -0.5589  0.8926  0.9049
  610MOL0     H80463   7.572   1.645   6.761 -2.7874 -0.7868  0.5484
  610MOL0     H80464   7.674   1.782   6.697  1.7747 -2.3517 -3.2169
  610MOL0     H80465   7.465   1.920   6.697  0.0697  0.1413  0.7295
  610MOL0     H80466   7.497   1.847   6.860  1.0053 -0.4395 -1.1118
  610MOL0     H80467   7.354   1.665   6.820 -0.0079 -0.5261 -2.0447
  610MOL0     H80468   7.315   1.720   6.651 -0.7671 -0.6165 -0.3656
  610MOL0     H80469   7.186   1.895   6.733  0.9723 -2.4765 -3.7176
  610MOL0     H80470   7.129   1.760   6.803 -0.8107  0.4544 -0.4599
  610MOL0     H80471   7.152   1.940   6.980 -1.3385 -1.6388 -0.2870
  610MOL0     H80472   7.328   1.949   6.954 -1.2411  0.8604  0.6208
  610MOL0     H80473   7.045   1.729   7.118  0.2631 -1.2107 -1.9553
  610MOL0     H80474   7.173   1.596   7.399 -0.0837  0.2968 -1.2634
  610MOL0     H80475   7.208   1.436   7.331  3.5935  2.1038  2.9691
  610MOL0     H80476   7.013   1.457   7.184 -0.9949 -1.6005 -0.1286
  610MOL0     H80477   6.961   1.608   7.269 -0.1055  0.3418  3.4742
  610MOL0     H80478   7.020   1.333   7.385 -1.2718 -0.6878  2.1657
  610MOL0     H80479   6.959   1.474   7.476  0.9068  2.6986 -0.8796
  610MOL0     H80480   6.781   1.443   7.256 -1.6510  1.2285  1.5373
  610MOL0     H80481   6.736   1.373   7.410 -2.1927 -1.4051 -1.8685
  610MOL0     H80482   6.744   1.087   7.078 -0.3235 -2.2751 -0.6037
  610MOL0     H80483   6.602   0.889   7.110  1.3119  0.8011 -1.3480
  610MOL0     H80484   6.410   0.747   7.697 -0.7876  0.9843 -2.5510
  610MOL0     H80485   6.370   0.549   7.840 -4.2962  0.4924  0.0008
  610MOL0     H80486   6.432   0.148   7.670  0.5808 -0.1559 -0.5499
  610MOL0     H80487   6.271   0.151   7.591 -1.3983 -2.2157  1.3509
  610MOL0     H80488   6.357   0.041   7.850 -1.0387 -1.6123 -0.0780
  610MOL0     H80489   6.265  -0.033   7.724  1.5989  0.5902 -0.3671
  610MOL0     H80490   6.063   0.083   7.783  2.2741  0.3127 -2.0962
  610MOL0     H80491   6.163   0.193   7.889 -1.1976  3.6841 -5.1064
  610MOL0     H80492   6.092  -0.099   7.898  0.0699 -0.8806  1.0548
  610MOL0     H80493   6.232  -0.037   7.998  0.7535  3.1511 -0.7661
  610MOL0     H80494   6.057   0.112   8.120 -0.5059  0.1528 -1.0518
  610MOL0     H80495   6.067  -0.056   8.151  1.8935  0.2062 -1.1638
  610MOL0     H80496   5.881  -0.115   8.028  1.8641 -0.8166 -0.5820
  610MOL0     H80497   5.892   0.041   7.934  0.8180  1.2750  0.6415
  610MOL0     H80498   5.824   0.171   8.112  3.6699 -1.2095 -1.2523
  610MOL0     H80499   5.703   0.082   8.048 -0.6216 -1.5170 -0.5028
  610MOL0     H80500   5.753   0.094   8.329  1.2414 -0.9380  1.2629
  610MOL0     H80501   5.864  -0.028   8.296 -1.2791 -2.7116  0.1703
  610MOL0     H80502   6.351   0.306   7.471  1.1031 -1.5719  1.3870
  610MOL0     H80503   6.368   0.520   7.334  0.7977 -1.2195 -0.4699
  610MOL0     H80504   6.587   0.966   7.526 -1.3025 -0.1302 -0.5947
  610MOL0     H80505   6.707   1.168   7.496 -2.5348 -2.9547  1.1696
  610MOL0     H80506   8.056   1.704   6.336 -1.5711  1.8800  1.5238
  610MOL0     H80507   8.309   1.666   6.357  1.1744  0.9978  0.7569
  610MOL0     H80508   8.645   1.307   6.317  0.3163  1.2075  0.8129
  610MOL0     H80509   8.887   1.251   6.353 -1.1967 -0.3215 -0.9331
  610MOL0     H80510   9.091   1.406   6.712 -0.2146 -2.3384 -1.0377
  610MOL0     H80511   9.132   1.515   6.570  1.3476 -0.9707 -1.4261
  610MOL0     H80512   9.284   1.270   6.667 -5.7839  0.5169  3.4866
  610MOL0     H80513   9.296   1.358   6.500 -3.4225 -2.3763 -0.7842
  610MOL0     H80514   9.365   1.438   6.778 -0.0978 -0.6832  0.6947
  610MOL0     H80515   9.311   1.570   6.666 -5.2129 -2.6703 -2.5090
  610MOL0     H80516   9.578   1.478   6.711  0.6140  1.4032 -0.6704
  610MOL0     H80517   9.542   1.404   6.561 -2.2711 -3.1269  1.2588
  610MOL0     H80518   9.601   1.824   6.483 -2.0977  1.5279  2.8585
  610MOL0     H80519   8.889   1.531   6.680 -0.7531 -1.1842  2.0866
  610MOL0     H80520   8.649   1.560   6.655  1.0263  0.8870 -0.8192
  611MOL0     O80521   5.088   2.599   4.748 -0.1493  0.6546  0.0326
  611MOL0     C80522   5.190   2.548   4.704 -0.1350  0.0406  0.7452
  611MOL0     O80523   5.194   2.423   4.650  0.0631 -0.0813 -0.1596
  611MOL0     C80524   5.085   2.370   4.603 -0.2137 -0.4788  0.0449
  611MOL0     C80525   4.990   2.336   4.704  0.6382 -0.0661 -0.6540
  611MOL0     C80526   4.858   2.286   4.657 -0.8404 -1.0000  0.5172
  611MOL0     C80527   4.840   2.274   4.516  1.3163 -0.7589 -0.6236
  611MOL0     O80528   4.716   2.229   4.478  0.3142 -0.8272 -0.7876
  611MOL0     C80529   4.626   2.332   4.416 -0.7140  1.1345  0.0534
  611MOL0     C80530   4.556   2.402   4.528 -0.5709 -0.3949 -0.1440
  611MOL0     C80531   4.447   2.488   4.463  0.3562  0.2071 -0.0441
  611MOL0     C80532   4.389   2.580   4.566 -0.1565  0.6496 -0.5543
  611MOL0     C80533   4.247   2.611   4.526 -0.5359 -0.2729  0.4949
  611MOL0     C80534   4.175   2.706   4.630 -0.7095 -0.3378 -0.5981
  611MOL0     C80535   4.049   2.752   4.566 -0.2172 -0.4452 -0.0984
  611MOL0     C80536   3.932   2.656   4.616  0.2295  0.5629 -0.1027
  611MOL0     N80537   3.868   2.705   4.747 -0.9136 -0.0853  0.1781
  611MOL0     C80538   3.733   2.716   4.761 -0.0785 -0.0274  0.1231
  611MOL0     C80539   3.723   2.708   4.902 -0.5297 -0.1089  0.2124
  611MOL0     C80540   3.597   2.714   4.975  0.5347  0.6994 -0.3793
  611MOL0     C80541   3.524   2.578   4.993 -0.1490  1.0173 -0.1449
  611MOL0     C80542   3.376   2.599   4.989  0.5369  0.1651 -0.0673
  611MOL0     C80543   3.299   2.678   5.104 -0.0008  0.5916  0.4990
  611MOL0     O80544   3.165   2.682   5.067 -0.5799  0.0411 -0.5821
  611MOL0     C80545   3.079   2.761   5.131  0.2921 -0.1581  1.2879
  611MOL0     C80546   2.953   2.751   5.068 -0.7875  0.3521  0.5166
  611MOL0     C80547   2.847   2.831   5.116  0.0898 -0.2206 -0.1386
  611MOL0     C80548   2.869   2.907   5.228  0.0790  0.0655  0.6574
  611MOL0     C80549   2.759   2.990   5.287 -0.0305  0.0585 -0.1738
  611MOL0     O80550   2.640   2.990   5.220 -0.2170 -0.6654 -0.5784
  611MOL0     C80551   2.548   3.070   5.285  0.2480 -0.1591 -0.0453
  611MOL0     C80552   2.464   3.008   5.383 -0.2561 -1.1084  0.6077
  611MOL0     C80553   2.375   3.087   5.456  0.0315  0.3973  0.0911
  611MOL0     C80554   2.366   3.223   5.428  0.5194 -0.7185 -0.8027
  611MOL0     O80555   2.286   3.308   5.511 -0.7614  0.3216 -0.1220
  611MOL0     C80556   2.206   3.255   5.617  0.1587 -0.3852  0.0696
  611MOL0     C80557   2.144   3.367   5.694 -0.1695  1.0642 -0.3196
  611MOL0     C80558   2.097   3.306   5.822  0.3219 -0.9080 -0.5866
  611MOL0     C80559   1.998   3.397   5.897 -0.5990  1.1020 -0.2103
  611MOL0     C80560   1.974   3.348   6.038  0.2564  0.8440  0.2854
  611MOL0     C80561   1.892   3.446   6.107 -0.2580 -0.3360  0.5351
  611MOL0     C80562   1.737   3.421   6.105 -0.2795  0.3739  0.3071
  611MOL0     C80563   1.681   3.530   6.198  0.4037 -0.7700 -0.0133
  611MOL0    Cl80564   1.505   3.522   6.179  0.1058 -0.3984 -0.2026
  611MOL0     C80565   2.440   3.279   5.319 -0.3557  0.8762 -0.4585
  611MOL0     C80566   2.538   3.199   5.254  0.8663 -0.0593 -0.6393
  611MOL0     O80567   2.782   3.061   5.382  0.6196 -0.1116 -0.6937
  611MOL0     C80568   2.987   2.905   5.297  0.7956  0.3533  0.0376
  611MOL0     C80569   3.093   2.834   5.245  0.2517 -0.1636 -0.3091
  611MOL0     N80570   3.853   2.709   4.959  0.2669 -0.3274 -0.8384
  611MOL0     N80571   3.935   2.704   4.859 -0.5030  0.3940 -0.5021
  611MOL0     C80572   4.941   2.304   4.421 -0.3904 -0.0440  0.0891
  611MOL0     C80573   5.058   2.356   4.473  0.2194 -1.0143 -0.1013
  611MOL0     C80574   5.314   2.629   4.710  0.0987  0.3553 -0.0194
  611MOL0     C80575   5.450   2.574   4.706  0.8709 -0.3105  0.1439
  611MOL0     C80576   5.563   2.659   4.708 -0.5967 -0.9451 -0.1341
  611MOL0     C80577   5.552   2.799   4.726  1.4998  0.3764  0.5318
  611MOL0     O80578   5.667   2.873   4.737 -0.4520  0.0124  0.2878
  611MOL0     C80579   5.717   2.938   4.616  0.0059  0.3250 -0.5446
  611MOL0     C80580   5.875   2.949   4.619 -0.6333  0.0397 -0.0766
  611MOL0     C80581   5.939   2.827   4.684 -0.7099  0.0609 -0.1763
  611MOL0     C80582   6.091   2.830   4.674 -0.6067  0.1518 -0.2551
  611MOL0     C80583   6.155   2.908   4.773  0.3073 -0.2018  0.2920
  611MOL0     C80584   6.219   2.970   4.854 -0.7286 -0.1422  0.5247
  611MOL0     C80585   5.423   2.855   4.732 -0.0290 -0.4569 -0.1278
  611MOL0     C80586   5.310   2.769   4.735 -0.0926 -0.6349  0.2768
  611MOL0     H80587   5.014   2.353   4.809 -1.8584  1.7609 -0.2888
  611MOL0     H80588   4.767   2.272   4.715 -2.4552  2.9852 -0.6986
  611MOL0     H80589   4.553   2.289   4.347  0.1140  0.2594 -0.3004
  611MOL0     H80590   4.689   2.401   4.359  0.7542  1.2225  1.7028
  611MOL0     H80591   4.623   2.467   4.586 -1.9327 -0.1233  1.2069
  611MOL0     H80592   4.511   2.334   4.600  2.0183 -0.5411  1.4845
  611MOL0     H80593   4.377   2.410   4.434 -0.8843  0.2997  2.4233
  611MOL0     H80594   4.478   2.537   4.370  1.3063 -1.5882 -0.7241
  611MOL0     H80595   4.388   2.533   4.665  1.4863 -1.1041 -1.3136
  611MOL0     H80596   4.453   2.669   4.569  0.7513 -0.0074  0.4018
  611MOL0     H80597   4.188   2.526   4.491  0.6061  0.1524 -2.8274
  611MOL0     H80598   4.263   2.665   4.432  0.0782 -1.5823 -0.1739
  611MOL0     H80599   4.245   2.787   4.651 -0.5833 -0.8606  1.0691
  611MOL0     H80600   4.157   2.662   4.728  1.1483 -1.0401 -0.5454
  611MOL0     H80601   4.024   2.857   4.583  1.0046  0.2539 -2.3138
  611MOL0     H80602   4.064   2.735   4.459  1.5941  2.3576 -0.3924
  611MOL0     H80603   3.964   2.551   4.617 -0.7272  0.2525  0.9188
  611MOL0     H80604   3.854   2.664   4.540 -0.5386  2.1036  0.7999
  611MOL0     H80605   3.653   2.724   4.688 -1.1060 -1.7095  1.0090
  611MOL0     H80606   3.531   2.777   4.916 -0.4056  0.1491  0.0677
  611MOL0     H80607   3.604   2.757   5.076 -0.2579  3.1288 -1.2908
  611MOL0     H80608   3.553   2.544   5.092 -1.7364  0.3451  0.1193
  611MOL0     H80609   3.568   2.500   4.930  3.6663  2.3918  0.5606
  611MOL0     H80610   3.344   2.633   4.890  0.1130  3.7024  1.1735
  611MOL0     H80611   3.332   2.499   5.000 -1.1759  1.0809  2.1093
  611MOL0     H80612   3.333   2.782   5.091  0.2066  0.3880 -0.7088
  611MOL0     H80613   3.319   2.637   5.203 -2.7036  0.3830  1.0376
  611MOL0     H80614   2.951   2.694   4.975  1.3899  0.9769  0.0306
  611MOL0     H80615   2.756   2.845   5.059  1.0500 -1.3290 -2.0358
  611MOL0     H80616   2.467   2.902   5.405  0.5518 -1.1666  0.2512
  611MOL0     H80617   2.324   3.042   5.541  0.6469 -0.6449 -0.0776
  611MOL0     H80618   2.269   3.201   5.688 -1.1926 -1.8808  0.2031
  611MOL0     H80619   2.137   3.183   5.572  0.6583 -1.3435  0.8043
  611MOL0     H80620   2.060   3.418   5.647 -2.0353  1.1281  2.7779
  611MOL0     H80621   2.226   3.438   5.704  2.3230 -1.6233 -0.2827
  611MOL0     H80622   2.174   3.288   5.898  1.4247  3.0025 -0.5585
  611MOL0     H80623   2.047   3.210   5.808  2.0281 -2.0929  1.0558
  611MOL0     H80624   2.044   3.496   5.904 -0.2490  0.8992  0.4384
  611MOL0     H80625   1.898   3.401   5.853 -0.5968  1.8179 -0.1612
  611MOL0     H80626   2.070   3.347   6.090  0.7460 -0.5268 -0.5933
  611MOL0     H80627   1.935   3.246   6.047 -4.0226  2.4353  3.5708
  611MOL0     H80628   1.917   3.544   6.066 -1.2343 -0.6103 -0.7835
  611MOL0     H80629   1.918   3.450   6.213 -0.3302  0.9222  0.5158
  611MOL0     H80630   1.691   3.428   6.006 -1.9888  1.6461  1.1371
  611MOL0     H80631   1.709   3.319   6.133  0.1554  0.4366  1.0008
  611MOL0     H80632   1.725   3.627   6.170  3.5952 -1.7780  1.0801
  611MOL0     H80633   1.708   3.510   6.302 -1.4855  1.3863  0.9837
  611MOL0     H80634   2.427   3.385   5.297 -1.3511  0.7273 -0.6642
  611MOL0     H80635   2.599   3.259   5.187 -2.6228  1.9435 -2.2958
  611MOL0     H80636   2.992   2.954   5.394  2.3263  1.7156 -0.6872
  611MOL0     H80637   3.190   2.846   5.293 -2.2002  1.6649  4.9984
  611MOL0     H80638   4.924   2.302   4.314  0.1204 -0.5967  0.0148
  611MOL0     H80639   5.135   2.390   4.406 -1.6034 -0.2164 -1.8981
  611MOL0     H80640   5.466   2.469   4.687 -0.3521 -0.5291  0.2073
  611MOL0     H80641   5.660   2.613   4.692 -1.4702 -2.4038 -1.4499
  611MOL0     H80642   5.674   3.039   4.620 -0.5270  0.0899 -0.0851
  611MOL0     H80643   5.674   2.887   4.530  1.1345 -1.9657  0.1852
  611MOL0     H80644   5.905   2.961   4.514 -3.7546  1.7422 -0.8936
  611MOL0     H80645   5.907   3.038   4.674 -2.0998  1.1846 -0.9962
  611MOL0     H80646   5.898   2.741   4.631 -2.6821  1.6373 -1.3166
  611MOL0     H80647   5.915   2.808   4.789 -3.3581  1.9420 -0.3453
  611MOL0     H80648   6.132   2.729   4.677  0.9685  0.7577 -0.6476
  611MOL0     H80649   6.118   2.872   4.577 -1.8244  0.6506 -0.4074
  611MOL0     H80650   6.266   3.032   4.928 -0.8289  1.7409 -0.9069
  611MOL0     H80651   5.418   2.963   4.736 -0.0675 -0.4905  1.2845
  611MOL0     H80652   5.215   2.820   4.724 -0.4386 -1.3555 -0.1443
  612MOL0     O80653   5.506   6.124   4.776  0.2886 -0.1313 -0.0994
  612MOL0     C80654   5.540   6.239   4.746 -0.3760  0.9806 -0.7363
  612MOL0     O80655   5.450   6.335   4.694  1.4433  0.2393  0.5723
  612MOL0     C80656   5.323   6.314   4.635 -1.0514 -0.6348 -0.5950
  612MOL0     C80657   5.311   6.242   4.514 -0.2352 -1.0611  0.4271
  612MOL0     C80658   5.189   6.220   4.447 -0.4778 -0.3725  0.6323
  612MOL0     C80659   5.065   6.265   4.506  0.3798  0.4970 -0.2819
  612MOL0     O80660   4.940   6.250   4.451  0.5550  0.4773 -0.1347
  612MOL0     C80661   4.939   6.225   4.308 -0.7625 -0.3840  0.2251
  612MOL0     C80662   4.802   6.264   4.253 -0.0038 -0.2557  0.4664
  612MOL0     C80663   4.700   6.148   4.280 -0.1066  0.2323 -0.0546
  612MOL0     C80664   4.555   6.167   4.226 -1.0347 -0.2295  0.2035
  612MOL0     C80665   4.456   6.084   4.290  0.2373 -0.6081  0.1474
  612MOL0     C80666   4.327   6.080   4.219 -0.0827 -0.8316 -0.4465
  612MOL0     C80667   4.243   6.202   4.235 -0.1596  0.0331  0.4492
  612MOL0     C80668   4.115   6.186   4.147 -1.1306 -0.1694 -0.7619
  612MOL0     N80669   4.064   6.321   4.100 -0.4222 -0.2012  0.5078
  612MOL0     C80670   4.044   6.440   4.167  0.1571 -0.1044 -0.0165
  612MOL0     C80671   3.978   6.515   4.074  0.0003  0.2556 -1.0234
  612MOL0     C80672   3.923   6.660   4.091 -0.4659  0.1761  0.0831
  612MOL0     C80673   3.778   6.658   4.039  0.5638  0.2238 -0.1203
  612MOL0     C80674   3.714   6.793   4.085 -1.0660 -0.1545 -0.3196
  612MOL0     C80675   3.566   6.773   4.084  0.5409 -0.2280  1.1554
  612MOL0     O80676   3.508   6.704   3.967  0.7157 -0.3245  0.6496
  612MOL0     C80677   3.373   6.680   3.982 -0.2607 -0.1675  0.0651
  612MOL0     C80678   3.295   6.692   4.095 -0.5536  0.1629  0.6562
  612MOL0     C80679   3.159   6.654   4.096 -0.0509  0.4873 -0.6485
  612MOL0     C80680   3.090   6.616   3.975  0.1087 -0.0340 -0.7842
  612MOL0     C80681   2.943   6.588   3.957 -0.2955  0.0018 -0.4228
  612MOL0     O80682   2.868   6.637   4.055  0.3553 -0.3473 -0.1679
  612MOL0     C80683   2.748   6.579   4.059  0.1961 -0.3199 -0.8312
  612MOL0     C80684   2.634   6.635   4.000 -1.0516  0.0669 -0.1863
  612MOL0     C80685   2.510   6.571   4.006  0.0664  0.7338  0.6376
  612MOL0     C80686   2.497   6.456   4.076  0.6088  0.0271  0.8605
  612MOL0     O80687   2.367   6.393   4.088  0.0102  0.0515  0.6428
  612MOL0     C80688   2.259   6.412   3.994  0.9067  0.4627 -0.2664
  612MOL0     C80689   2.160   6.309   4.049  0.0349 -0.0457 -0.7911
  612MOL0     C80690   2.092   6.363   4.178 -0.2019  0.3817  0.5610
  612MOL0     C80691   2.004   6.251   4.233  0.9264  0.2285 -0.2713
  612MOL0     C80692   1.967   6.286   4.383 -0.7849 -0.1032  0.4569
  612MOL0     C80693   1.851   6.189   4.416  0.2129  0.4467 -0.0580
  612MOL0     C80694   1.788   6.237   4.549  0.5275 -0.2718  0.0733
  612MOL0     C80695   1.660   6.154   4.568  0.0071 -0.4052 -0.6823
  612MOL0    Cl80696   1.531   6.197   4.453 -0.3674  0.1552  0.4316
  612MOL0     C80697   2.611   6.396   4.142  0.8292  0.4157 -0.1534
  612MOL0     C80698   2.730   6.460   4.135  0.1380  0.0123  0.4903
  612MOL0     O80699   2.911   6.527   3.855 -0.8430 -0.1053 -0.4831
  612MOL0     C80700   3.174   6.600   3.865  0.4297 -0.5985  0.4342
  612MOL0     C80701   3.314   6.635   3.866  0.2971  0.7355 -0.3272
  612MOL0     N80702   3.966   6.440   3.964  0.8509 -1.3951  0.8219
  612MOL0     N80703   4.003   6.322   3.982  0.3213 -0.3133 -0.0440
  612MOL0     C80704   5.073   6.326   4.628  0.2257  0.3227  0.6118
  612MOL0     C80705   5.197   6.364   4.691  0.0557  0.5991  0.5470
  612MOL0     C80706   5.676   6.273   4.754  0.4047 -0.5936 -0.0288
  612MOL0     C80707   5.718   6.405   4.722  0.0108 -0.3300 -0.4755
  612MOL0     C80708   5.850   6.442   4.735  0.2868 -0.9894 -0.0463
  612MOL0     C80709   5.960   6.360   4.780  0.4950  0.1638  0.3861
  612MOL0     O80710   6.097   6.391   4.785  0.2284  0.0127 -0.0726
  612MOL0     C80711   6.199   6.294   4.827  0.0067 -0.5039  0.0631
  612MOL0     C80712   6.343   6.337   4.823 -0.7665  0.0917  0.8444
  612MOL0     C80713   6.407   6.292   4.689 -0.3381  0.9494  0.1766
  612MOL0     C80714   6.548   6.343   4.675  0.2978  0.4937 -0.0667
  612MOL0     C80715   6.625   6.255   4.583  0.3710  0.1222 -0.0182
  612MOL0     C80716   6.670   6.182   4.495 -0.3180 -0.0512  0.0893
  612MOL0     C80717   5.911   6.229   4.825  0.1674  1.0274 -0.1617
  612MOL0     C80718   5.777   6.188   4.808 -0.2112  0.1555  0.1096
  612MOL0     H80719   5.405   6.201   4.478  0.2507  0.9717 -0.7397
  612MOL0     H80720   5.190   6.163   4.355  0.5728  2.2304 -1.0821
  612MOL0     H80721   4.961   6.121   4.286 -1.7385 -0.9149  1.6260
  612MOL0     H80722   5.009   6.293   4.257  1.3283 -0.8274  2.3457
  612MOL0     H80723   4.820   6.285   4.147  1.1526  1.0153  0.8882
  612MOL0     H80724   4.751   6.349   4.301 -0.8879 -1.0602  0.9916
  612MOL0     H80725   4.700   6.154   4.389  1.8281  0.2330 -0.0378
  612MOL0     H80726   4.729   6.050   4.242  3.5947  1.2048 -0.1239
  612MOL0     H80727   4.519   6.271   4.228  2.7705  1.2910 -0.2997
  612MOL0     H80728   4.565   6.141   4.121  0.0624 -2.4300  0.8005
  612MOL0     H80729   4.446   6.122   4.392  3.0011 -1.3081  0.7495
  612MOL0     H80730   4.495   5.982   4.295 -0.8603 -0.9958  1.3486
  612MOL0     H80731   4.271   5.996   4.262  2.1368 -2.8728 -1.3139
  612MOL0     H80732   4.337   6.045   4.116 -2.7647  0.1985 -1.1493
  612MOL0     H80733   4.211   6.217   4.338 -3.2292 -0.3335 -0.3500
  612MOL0     H80734   4.291   6.289   4.188  1.1324 -2.3014 -2.9417
  612MOL0     H80735   4.038   6.123   4.192  1.1241  0.4925  4.7971
  612MOL0     H80736   4.137   6.136   4.053 -1.2137 -0.0630 -0.8395
  612MOL0     H80737   4.074   6.456   4.270  0.4762 -2.7871  0.3802
  612MOL0     H80738   3.980   6.729   4.027  1.7612 -0.4529  1.2915
  612MOL0     H80739   3.927   6.684   4.197  0.5028 -0.9799  0.3426
  612MOL0     H80740   3.718   6.581   4.089  0.6798 -0.2170 -0.6490
  612MOL0     H80741   3.771   6.644   3.931 -1.4302 -2.1833  0.2251
  612MOL0     H80742   3.748   6.815   4.186 -1.9505  0.7740 -0.2135
  612MOL0     H80743   3.756   6.877   4.028  4.8018 -0.8660  2.2221
  612MOL0     H80744   3.519   6.871   4.091  1.8236  0.7961 -2.3246
  612MOL0     H80745   3.545   6.710   4.171  1.5810 -2.7015 -0.2895
  612MOL0     H80746   3.340   6.713   4.191 -0.1700 -1.9532  0.9717
  612MOL0     H80747   3.122   6.663   4.198 -0.4619  1.1144 -0.8463
  612MOL0     H80748   2.641   6.732   3.952  0.4355  0.2728  0.3995
  612MOL0     H80749   2.429   6.619   3.951  0.2154 -2.7974 -3.1691
  612MOL0     H80750   2.299   6.380   3.898  4.0100  3.0320  0.0285
  612MOL0     H80751   2.213   6.511   3.995  0.8981  0.4678  1.2056
  612MOL0     H80752   2.203   6.210   4.071  2.7486  1.6726  2.9143
  612MOL0     H80753   2.074   6.297   3.983 -2.1435  0.3699  1.8096
  612MOL0     H80754   2.028   6.449   4.156 -1.7964 -0.2225  2.4266
  612MOL0     H80755   2.159   6.387   4.261 -2.0181 -2.8331  3.2233
  612MOL0     H80756   1.910   6.261   4.178  0.4672 -1.3396  0.1736
  612MOL0     H80757   2.054   6.155   4.216 -0.7657 -0.3579 -2.3954
  612MOL0     H80758   1.944   6.393   4.372  1.5375  0.3236 -1.0402
  612MOL0     H80759   2.051   6.286   4.453 -0.4459  2.4238  0.1718
  612MOL0     H80760   1.885   6.085   4.421  2.9354  1.2846  0.6348
  612MOL0     H80761   1.776   6.212   4.340  0.5942 -1.6502 -1.1275
  612MOL0     H80762   1.866   6.227   4.625  1.4615  1.1020 -0.6851
  612MOL0     H80763   1.761   6.342   4.541 -4.6639 -1.3978 -1.4228
  612MOL0     H80764   1.616   6.154   4.668 -2.8609 -2.2904 -1.8142
  612MOL0     H80765   1.677   6.048   4.546  0.6309 -0.3504 -0.4936
  612MOL0     H80766   2.603   6.310   4.209  2.0282  0.4180  0.0100
  612MOL0     H80767   2.819   6.415   4.178 -1.1189 -1.6275  1.4987
  612MOL0     H80768   3.128   6.557   3.775  0.8740  0.5662 -0.3691
  612MOL0     H80769   3.370   6.618   3.775 -2.0824  0.6216 -1.8642
  612MOL0     H80770   4.981   6.364   4.670 -0.5082 -3.2405  2.6989
  612MOL0     H80771   5.197   6.431   4.776  0.7424  1.7573 -0.3233
  612MOL0     H80772   5.663   6.489   4.681 -1.1710 -0.8923 -0.0720
  612MOL0     H80773   5.880   6.540   4.699  1.5373 -1.2466  0.2476
  612MOL0     H80774   6.193   6.199   4.774  3.2797  0.5149 -2.4153
  612MOL0     H80775   6.187   6.259   4.930  2.6732 -1.0414  0.2526
  612MOL0     H80776   6.359   6.443   4.848 -2.2177  0.2009  1.4242
  612MOL0     H80777   6.395   6.269   4.890  0.1642  0.4108  0.4526
  612MOL0     H80778   6.345   6.328   4.607  1.4742  1.0538 -1.1943
  612MOL0     H80779   6.408   6.183   4.700  0.5778  0.7987 -1.2102
  612MOL0     H80780   6.542   6.441   4.627  1.3168  0.1788 -0.8850
  612MOL0     H80781   6.588   6.337   4.776 -0.3737 -1.5172  0.1301
  612MOL0     H80782   6.691   6.126   4.406  2.4919  0.7888  0.1118
  612MOL0     H80783   5.981   6.152   4.855 -0.5798  1.2364  2.2910
  612MOL0     H80784   5.761   6.084   4.834  0.5274 -0.5200 -1.9242
  613MOL0     O80785   8.965   1.974   6.650 -0.5438  0.5990  0.6469
  613MOL0     C80786   8.971   2.031   6.538  0.4971  0.2678 -0.7900
  613MOL0     O80787   8.869   2.088   6.469  0.3903  0.3080 -0.3468
  613MOL0     C80788   8.745   2.080   6.523 -0.1484  0.8348  0.4597
  613MOL0     C80789   8.672   1.962   6.515  0.2943 -0.4842 -0.3203
  613MOL0     C80790   8.540   1.963   6.574  0.4408  0.9104  0.0677
  613MOL0     C80791   8.481   2.074   6.630  0.5698  0.4145  1.0456
  613MOL0     O80792   8.351   2.060   6.679  0.5599  0.4098 -0.7726
  613MOL0     C80793   8.268   1.950   6.652 -0.7967  0.7041  0.2316
  613MOL0     C80794   8.126   1.978   6.699  0.8071 -0.1953  0.3697
  613MOL0     C80795   8.109   1.968   6.849 -0.0111 -0.0675  0.1592
  613MOL0     C80796   7.980   2.011   6.903  0.3009  0.3513  0.1232
  613MOL0     C80797   7.928   1.934   7.021 -0.4888 -0.3356 -0.3520
  613MOL0     C80798   7.792   1.995   7.061  0.4883  1.0309  0.0522
  613MOL0     C80799   7.733   1.909   7.171  0.0197 -0.3549 -0.3286
  613MOL0     C80800   7.592   1.949   7.222 -0.7992  0.0308 -0.3112
  613MOL0     N80801   7.576   2.075   7.296 -0.5691 -0.2888 -0.3190
  613MOL0     C80802   7.539   2.195   7.235  0.8421  0.3611  0.0149
  613MOL0     C80803   7.534   2.284   7.331 -0.4095 -0.9702 -0.5411
  613MOL0     C80804   7.497   2.425   7.313 -0.3522 -0.9021  0.6612
  613MOL0     C80805   7.373   2.473   7.398  0.1569  0.3554  0.0806
  613MOL0     C80806   7.252   2.416   7.336  0.5797 -0.0524 -0.0114
  613MOL0     C80807   7.125   2.438   7.416 -0.5309 -0.1860 -0.2306
  613MOL0     O80808   7.028   2.355   7.366 -0.5659  0.3578 -0.7997
  613MOL0     C80809   6.911   2.341   7.428 -0.8194 -0.5217  0.3132
  613MOL0     C80810   6.859   2.457   7.484  0.3788 -0.8885  0.0923
  613MOL0     C80811   6.734   2.444   7.547 -0.1361  0.5862 -0.5768
  613MOL0     C80812   6.674   2.317   7.573  0.1534  0.3170  0.4201
  613MOL0     C80813   6.554   2.300   7.647 -0.3230  0.2158  0.5291
  613MOL0     O80814   6.486   2.410   7.681  0.0534  0.8395 -0.4416
  613MOL0     C80815   6.369   2.411   7.744  0.0776  0.3770  0.1462
  613MOL0     C80816   6.277   2.307   7.758  0.1259 -0.4967 -0.9663
  613MOL0     C80817   6.155   2.322   7.825 -1.1461  0.2326  0.0439
  613MOL0     C80818   6.128   2.448   7.883 -0.2096  0.1556  0.6902
  613MOL0     O80819   6.015   2.469   7.967  0.4695 -0.1566 -0.3303
  613MOL0     C80820   6.007   2.396   8.086  0.3644  0.4214 -0.5632
  613MOL0     C80821   5.875   2.426   8.155  0.4741  0.7225 -0.5514
  613MOL0     C80822   5.765   2.349   8.088 -0.7202  0.8930 -1.0705
  613MOL0     C80823   5.626   2.363   8.164  0.0344 -0.3613  0.3396
  613MOL0     C80824   5.564   2.511   8.154  0.1787 -0.3139  0.8663
  613MOL0     C80825   5.410   2.507   8.154  0.8764  1.0939 -0.0583
  613MOL0     C80826   5.363   2.636   8.222  0.4922  0.2523 -0.1630
  613MOL0     C80827   5.210   2.641   8.229 -0.5426 -0.5111  1.0153
  613MOL0    Cl80828   5.111   2.650   8.075  0.5576  0.6678  0.5988
  613MOL0     C80829   6.222   2.548   7.875 -0.2650  0.0311  0.6312
  613MOL0     C80830   6.344   2.530   7.813 -0.2282 -0.5487  0.4764
  613MOL0     O80831   6.512   2.187   7.669 -0.8151 -0.0498  0.1172
  613MOL0     C80832   6.742   2.203   7.526  0.1205  0.5186 -0.0760
  613MOL0     C80833   6.860   2.214   7.447  0.0771  0.3453  0.4640
  613MOL0     N80834   7.576   2.227   7.455 -1.6802 -0.8100 -0.4804
  613MOL0     N80835   7.611   2.104   7.427 -0.2944  0.3605  0.3181
  613MOL0     C80836   8.561   2.191   6.625  0.0174 -0.0389 -0.3287
  613MOL0     C80837   8.685   2.194   6.574 -0.3934  0.4348  0.3533
  613MOL0     C80838   9.108   2.030   6.473 -0.1032  0.1731 -0.0277
  613MOL0     C80839   9.124   2.124   6.380 -0.8100 -0.0621 -1.1439
  613MOL0     C80840   9.236   2.129   6.297 -0.0784  1.0059 -0.3167
  613MOL0     C80841   9.334   2.034   6.324 -0.0490  0.0164  0.9913
  613MOL0     O80842   9.437   2.026   6.228  0.0291 -0.8226  0.0482
  613MOL0     C80843   9.541   1.923   6.232  0.1595 -0.4070 -0.9525
  613MOL0     C80844   9.596   1.917   6.083 -0.1332  0.8994 -0.3012
  613MOL0     C80845   9.670   1.787   6.042  0.5850 -0.3918 -0.2883
  613MOL0     C80846   9.786   1.806   5.944  0.9310 -0.5097  0.1240
  613MOL0     C80847   9.868   1.686   5.932  0.5100 -0.5491  0.1649
  613MOL0     C80848   9.955   1.600   5.911  0.4827 -0.1003  0.4188
  613MOL0     C80849   9.334   1.949   6.430 -0.5480 -0.1503  0.4609
  613MOL0     C80850   9.215   1.940   6.505 -0.3811  0.0587 -0.0149
  613MOL0     H80851   8.711   1.867   6.481 -0.6500 -0.3927 -1.7412
  613MOL0     H80852   8.485   1.870   6.574  2.9782 -0.7070  1.2720
  613MOL0     H80853   8.300   1.864   6.711 -0.2048 -0.3837 -1.6021
  613MOL0     H80854   8.273   1.927   6.546 -0.9106 -0.7437  0.5246
  613MOL0     H80855   8.052   1.908   6.659  1.1422  0.8961 -2.3822
  613MOL0     H80856   8.099   2.077   6.662  3.3136 -0.1394 -1.5772
  613MOL0     H80857   8.189   2.019   6.903 -0.2827  1.1667 -0.5756
  613MOL0     H80858   8.120   1.861   6.867 -1.4779 -0.1829  0.4573
  613MOL0     H80859   7.997   2.114   6.937 -1.4752  0.7371 -0.0963
  613MOL0     H80860   7.901   2.012   6.828 -2.2405 -0.4999  2.6156
  613MOL0     H80861   8.002   1.933   7.102  0.1242 -2.2481 -0.8926
  613MOL0     H80862   7.924   1.828   6.994 -0.8609 -0.7089  1.0761
  613MOL0     H80863   7.726   1.984   6.974 -0.2068 -1.4675  0.8124
  613MOL0     H80864   7.809   2.095   7.102  1.4682  1.3358 -1.0366
  613MOL0     H80865   7.729   1.807   7.131 -0.0741 -0.4369 -0.1100
  613MOL0     H80866   7.797   1.909   7.259 -1.4642 -1.4609  0.8077
  613MOL0     H80867   7.572   1.878   7.302  2.1549 -1.1202 -0.4575
  613MOL0     H80868   7.511   1.939   7.150  1.1207 -1.3016 -2.4321
  613MOL0     H80869   7.507   2.208   7.132 -0.3920  0.8942  0.4410
  613MOL0     H80870   7.487   2.454   7.208 -0.9881  1.9530  1.4106
  613MOL0     H80871   7.586   2.486   7.332 -2.0409  1.7351  0.7045
  613MOL0     H80872   7.360   2.581   7.408 -3.1847 -0.1666  3.7984
  613MOL0     H80873   7.383   2.430   7.498  1.6737  1.7405  0.5700
  613MOL0     H80874   7.237   2.456   7.236  2.7588  3.5816  0.9390
  613MOL0     H80875   7.261   2.307   7.332 -3.1202 -0.5944  1.9935
  613MOL0     H80876   7.109   2.546   7.413 -2.5503 -0.4687 -1.3450
  613MOL0     H80877   7.142   2.401   7.517  2.2269 -0.3563 -0.6644
  613MOL0     H80878   6.896   2.558   7.470 -1.6140 -0.2419 -0.8722
  613MOL0     H80879   6.689   2.530   7.596 -1.7964 -1.3118  1.4603
  613MOL0     H80880   6.276   2.207   7.716 -3.8861 -1.5616  1.1862
  613MOL0     H80881   6.090   2.236   7.813  1.2073 -1.7523  0.5031
  613MOL0     H80882   6.086   2.435   8.153  1.3144  0.2200 -1.5441
  613MOL0     H80883   6.037   2.293   8.065  2.1921  0.1063  2.7797
  613MOL0     H80884   5.853   2.533   8.143  0.1059  0.5794 -1.2463
  613MOL0     H80885   5.895   2.398   8.259 -2.9791  0.3896  0.1620
  613MOL0     H80886   5.780   2.241   8.074 -3.2643 -0.0293  1.9897
  613MOL0     H80887   5.768   2.385   7.985  2.7158  4.2700 -0.0199
  613MOL0     H80888   5.559   2.292   8.116  1.8301 -0.9951 -1.3658
  613MOL0     H80889   5.633   2.333   8.269 -1.5557 -2.5279 -0.1007
  613MOL0     H80890   5.594   2.563   8.063  2.0698 -3.0562 -0.2044
  613MOL0     H80891   5.603   2.568   8.238 -2.7366  0.1024  2.0819
  613MOL0     H80892   5.380   2.420   8.214  2.4964  0.4223 -0.1636
  613MOL0     H80893   5.372   2.498   8.052  0.1703 -0.3362  0.2966
  613MOL0     H80894   5.401   2.626   8.324  0.0002  0.2853  0.0273
  613MOL0     H80895   5.393   2.728   8.171  0.3700 -0.9776 -2.6203
  613MOL0     H80896   5.180   2.723   8.294 -1.5291 -0.6945  0.8075
  613MOL0     H80897   5.167   2.547   8.264 -1.0387 -1.1888 -1.2701
  613MOL0     H80898   6.194   2.644   7.918 -1.2452  0.1831 -0.2966
  613MOL0     H80899   6.421   2.605   7.799 -2.2492  1.3188 -1.3913
  613MOL0     H80900   6.713   2.099   7.537  1.4789  0.2888  1.8562
  613MOL0     H80901   6.902   2.122   7.408 -2.3226 -0.6352  0.0307
  613MOL0     H80902   8.521   2.281   6.669  1.8476 -0.4912  2.5258
  613MOL0     H80903   8.745   2.282   6.593 -2.2170  1.5543  1.1195
  613MOL0     H80904   9.049   2.202   6.373  3.1383  4.0575 -1.4573
  613MOL0     H80905   9.250   2.195   6.212 -1.9328 -0.3065 -1.7462
  613MOL0     H80906   9.497   1.829   6.266  1.2833 -0.0560  1.7361
  613MOL0     H80907   9.633   1.928   6.292 -0.7243 -1.0476  0.4966
  613MOL0     H80908   9.513   1.934   6.014 -1.4166  0.4084  1.0538
  613MOL0     H80909   9.672   1.995   6.080  4.5271 -3.1871 -0.8141
  613MOL0     H80910   9.593   1.723   5.997 -1.9825  2.2224  0.0118
  613MOL0     H80911   9.714   1.734   6.127 -0.6775 -0.9606  0.0359
  613MOL0     H80912   9.730   1.821   5.851 -4.2432  0.3345  2.9859
  613MOL0     H80913   9.846   1.895   5.965 -1.6735  1.0580  1.3981
  613MOL0     H80914  10.038   1.536   5.889 -1.1094 -2.1961  0.2691
  613MOL0     H80915   9.422   1.886   6.443 -0.0712  0.5462  0.6294
  613MOL0     H80916   9.218   1.878   6.594  2.0086  2.2646  1.6010
  614MOL0     O80917   3.137  10.650   6.179 -0.5783 -0.8340  0.7688
  614MOL0     C80918   3.223  10.635   6.091 -0.1602  0.1389  0.2518
  614MOL0     O80919   3.207  10.552   5.987 -0.4125 -0.4805 -0.2675
  614MOL0     C80920   3.098  10.462   5.979  0.1519 -0.8093 -0.0196
  614MOL0     C80921   3.067  10.377   6.088  0.1066 -0.0317 -0.4887
  614MOL0     C80922   2.955  10.295   6.091 -0.4659 -0.1647  0.9457
  614MOL0     C80923   2.877  10.285   5.975 -0.8593 -0.4661  0.0901
  614MOL0     O80924   2.761  10.207   5.987  0.1613 -0.6131  0.8549
  614MOL0     C80925   2.657  10.216   5.888 -0.8369 -0.6391 -0.6272
  614MOL0     C80926   2.529  10.218   5.961  0.6898  0.3801  0.1146
  614MOL0     C80927   2.401  10.215   5.885  0.0257  0.3906  0.0639
  614MOL0     C80928   2.277  10.203   5.975 -1.1371 -0.2432 -1.2490
  614MOL0     C80929   2.146  10.187   5.899 -0.2253 -0.0067 -0.4106
  614MOL0     C80930   2.024  10.164   5.999 -0.0081  0.3302  0.4627
  614MOL0     C80931   1.887  10.168   5.932 -0.0036 -0.8492  0.6270
  614MOL0     C80932   1.778  10.125   6.031  0.0444 -0.3307 -0.1458
  614MOL0     N80933   1.648  10.139   5.965 -0.3511 -1.0605  0.7553
  614MOL0     C80934   1.618  10.086   5.841 -0.1514 -0.6317 -0.1204
  614MOL0     C80935   1.501  10.140   5.815 -0.4824  0.2185  0.3181
  614MOL0     C80936   1.411  10.116   5.695  0.3532  0.2639  0.2124
  614MOL0     C80937   1.347   9.979   5.691 -0.8526 -0.1246  0.1386
  614MOL0     C80938   1.266   9.948   5.815 -0.5195  0.1477  0.3752
  614MOL0     C80939   1.175   9.822   5.788  0.1382  0.9856  0.1494
  614MOL0     O80940   1.236   9.718   5.708 -0.3073 -0.1029  0.0139
  614MOL0     C80941   1.199   9.588   5.736  0.9473 -1.0211 -0.4896
  614MOL0     C80942   1.098   9.540   5.815  0.6500  0.0474  0.1761
  614MOL0     C80943   1.078   9.397   5.824  0.8216 -0.1644 -0.2821
  614MOL0     C80944   1.167   9.305   5.763 -0.8432  0.0851 -0.3296
  614MOL0     C80945   1.156   9.156   5.769  0.5028 -0.4756  0.6465
  614MOL0     O80946   1.045   9.104   5.824 -0.2705 -0.0884 -0.2384
  614MOL0     C80947   0.921   9.123   5.778 -0.2255  0.6161  0.2032
  614MOL0     C80948   0.899   9.103   5.640  0.0355  0.0186  0.2082
  614MOL0     C80949   0.778   9.116   5.580 -0.5032  0.4043  0.3150
  614MOL0     C80950   0.665   9.158   5.650  0.6960  0.3164  0.1191
  614MOL0     O80951   0.540   9.195   5.602  0.2910  0.2393  0.2261
  614MOL0     C80952   0.544   9.245   5.470  0.1689  0.8316 -0.0584
  614MOL0     C80953   0.401   9.294   5.456 -0.0965  0.5415 -0.7133
  614MOL0     C80954   0.377   9.315   5.312 -0.3844 -1.1969 -0.0177
  614MOL0     C80955   0.275   9.425   5.281  1.0503 -0.1108 -0.0789
  614MOL0     C80956   0.251   9.426   5.135  0.1415 -0.4605  0.4980
  614MOL0     C80957   0.196   9.306   5.066  0.2678 -0.0640  0.1088
  614MOL0     C80958   0.155   9.328   4.922  0.2574 -1.0205  0.1365
  614MOL0     C80959   0.038   9.421   4.894  0.8464 -0.2588  0.0438
  614MOL0    Cl80960  -0.102   9.335   4.965  0.0812 -0.2217 -0.0390
  614MOL0     C80961   0.682   9.168   5.783 -0.6519 -0.4064  1.0976
  614MOL0     C80962   0.804   9.138   5.847 -0.4646 -0.6593  0.4094
  614MOL0     O80963   1.254   9.099   5.714 -0.2465 -0.1174 -0.6957
  614MOL0     C80964   1.268   9.360   5.682 -0.5421 -0.5932 -0.1593
  614MOL0     C80965   1.278   9.498   5.671  0.2152  0.1242 -0.2865
  614MOL0     N80966   1.471  10.235   5.917  0.2604  1.3334 -0.3329
  614MOL0     N80967   1.561  10.236   6.001  0.2955 -0.3554  0.4856
  614MOL0     C80968   2.915  10.362   5.859 -0.1508 -0.4684 -0.6119
  614MOL0     C80969   3.016  10.455   5.863  0.2566  0.1479 -0.6759
  614MOL0     C80970   3.351  10.696   6.112  0.8410 -0.7127 -0.1897
  614MOL0     C80971   3.432  10.704   6.000 -0.7131  0.1956  0.0509
  614MOL0     C80972   3.554  10.764   6.012  0.2175  0.0305 -0.5951
  614MOL0     C80973   3.598  10.832   6.127  0.6353  0.3300  0.7244
  614MOL0     O80974   3.728  10.880   6.156  0.6009 -0.4541 -0.0316
  614MOL0     C80975   3.816  10.895   6.045 -0.2075 -0.4106 -0.3919
  614MOL0     C80976   3.949  10.960   6.084  0.9692  0.1275 -0.6495
  614MOL0     C80977   4.030  11.009   5.962 -0.1904 -0.3846  0.4441
  614MOL0     C80978   4.177  11.060   5.982 -0.3162 -0.0261 -0.1191
  614MOL0     C80979   4.176  11.178   6.061  0.4707 -0.6658  0.0656
  614MOL0     C80980   4.177  11.277   6.124 -0.3550 -0.5101  0.5235
  614MOL0     C80981   3.506  10.833   6.235  0.2945 -0.2740  0.6878
  614MOL0     C80982   3.383  10.769   6.226  1.1138  0.2867 -0.7712
  614MOL0     H80983   3.123  10.380   6.181 -1.5965  0.3407  0.5755
  614MOL0     H80984   2.911  10.263   6.185 -1.5228 -0.3845  0.3902
  614MOL0     H80985   2.662  10.140   5.810  1.3454  0.1657 -1.3324
  614MOL0     H80986   2.646  10.313   5.837  0.4193 -0.7236 -1.0879
  614MOL0     H80987   2.536  10.301   6.031 -0.0606  0.8536 -0.3604
  614MOL0     H80988   2.529  10.122   6.013 -2.0935  0.8504  1.1368
  614MOL0     H80989   2.406  10.128   5.820  0.0772  0.5967 -0.2102
  614MOL0     H80990   2.395  10.301   5.818 -3.2586  0.8405  0.7649
  614MOL0     H80991   2.287  10.106   6.024  0.7167 -1.1037 -3.1938
  614MOL0     H80992   2.272  10.289   6.042  1.0704 -0.6781 -0.4259
  614MOL0     H80993   2.141  10.104   5.828 -0.5847 -0.3097 -0.0395
  614MOL0     H80994   2.124  10.275   5.839  1.4548 -1.2366 -3.0271
  614MOL0     H80995   2.026  10.239   6.079  1.3773  2.8617 -1.7707
  614MOL0     H80996   2.033  10.063   6.039  0.7480  0.0900 -0.2827
  614MOL0     H80997   1.858  10.271   5.908  0.9528 -0.0463  2.6684
  614MOL0     H80998   1.886  10.113   5.838  0.4847  0.5693 -0.2500
  614MOL0     H80999   1.785  10.187   6.120 -0.2358 -0.7760  0.1929
  614MOL0     H81000   1.783  10.022   6.067 -2.4778 -0.1975  0.7749
  614MOL0     H81001   1.672  10.016   5.778  1.8502  1.1358 -0.4950
  614MOL0     H81002   1.474  10.122   5.605  0.7494 -3.7132  0.0359
  614MOL0     H81003   1.338  10.197   5.690  0.7048  0.7914  2.4635
  614MOL0     H81004   1.425   9.904   5.674  0.5308  1.5137 -1.1774
  614MOL0     H81005   1.282   9.962   5.604  0.8005 -6.0767 -0.3393
  614MOL0     H81006   1.336   9.917   5.894  0.9178  1.1706 -0.4497
  614MOL0     H81007   1.214  10.036   5.854  3.1463  2.1636  1.1842
  614MOL0     H81008   1.087   9.857   5.734  1.7387  2.9857 -1.3335
  614MOL0     H81009   1.159   9.784   5.889  1.9815 -1.5044 -0.4078
  614MOL0     H81010   1.034   9.601   5.878  1.8519 -0.3595  1.8623
  614MOL0     H81011   0.994   9.366   5.885  0.1268  0.9337 -0.6390
  614MOL0     H81012   0.982   9.072   5.578  0.5673 -0.3726  1.0990
  614MOL0     H81013   0.772   9.073   5.480  0.3139 -1.2045  0.9202
  614MOL0     H81014   0.580   9.170   5.398  2.2078  3.3450 -1.8562
  614MOL0     H81015   0.614   9.329   5.461  2.1826  0.1278  5.2575
  614MOL0     H81016   0.391   9.390   5.509 -0.7854  1.6004 -2.6738
  614MOL0     H81017   0.324   9.227   5.496 -1.0387  0.9550 -1.7920
  614MOL0     H81018   0.358   9.217   5.269  0.2719 -0.8372 -1.1653
  614MOL0     H81019   0.475   9.333   5.266 -0.9200  0.2235 -0.6675
  614MOL0     H81020   0.172   9.407   5.314  0.5964 -2.6456 -2.5599
  614MOL0     H81021   0.318   9.520   5.317 -0.1996  0.3529  0.2374
  614MOL0     H81022   0.347   9.460   5.096 -0.2343  1.1660  0.9324
  614MOL0     H81023   0.192   9.516   5.117  1.3565  0.2545 -0.0305
  614MOL0     H81024   0.104   9.283   5.121  1.0498  1.5296  2.2039
  614MOL0     H81025   0.266   9.223   5.078 -0.4956 -0.6747  0.4289
  614MOL0     H81026   0.234   9.366   4.858 -1.5883 -1.0976 -2.3449
  614MOL0     H81027   0.130   9.231   4.877 -1.9636  0.7839 -2.9525
  614MOL0     H81028   0.023   9.436   4.787 -2.7157  0.6295  0.5261
  614MOL0     H81029   0.056   9.521   4.933 -1.4667 -0.0357  0.6882
  614MOL0     H81030   0.606   9.216   5.844 -1.8486 -0.4596 -0.3315
  614MOL0     H81031   0.799   9.163   5.953  1.7402  2.7288 -0.1225
  614MOL0     H81032   1.334   9.300   5.622  0.4771  1.6673 -1.4287
  614MOL0     H81033   1.358   9.529   5.605 -0.1022 -3.1246 -2.4264
  614MOL0     H81034   2.850  10.354   5.773 -0.6349  0.7151 -0.3717
  614MOL0     H81035   3.037  10.520   5.780  1.8745  2.1521  1.1768
  614MOL0     H81036   3.390  10.672   5.905 -2.5250 -1.2006  1.2495
  614MOL0     H81037   3.618  10.754   5.925 -0.7829 -0.3178 -1.3118
  614MOL0     H81038   3.771  10.964   5.974 -1.8824  1.0195  1.9027
  614MOL0     H81039   3.829  10.802   5.989  0.7121 -0.8349  0.4889
  614MOL0     H81040   3.930  11.044   6.151  1.2076 -0.9951  0.8744
  614MOL0     H81041   4.015  10.905   6.152  0.6846  1.5676  0.8718
  614MOL0     H81042   3.981  11.097   5.919  0.0696  0.3037  1.5179
  614MOL0     H81043   4.024  10.922   5.896  1.8108 -2.3147  2.6069
  614MOL0     H81044   4.254  10.993   6.022  0.1091  1.0838  0.9791
  614MOL0     H81045   4.208  11.097   5.884  0.6389  1.8231  0.8349
  614MOL0     H81046   4.173  11.362   6.190 -0.9407  0.3465 -0.5948
  614MOL0     H81047   3.533  10.897   6.318 -1.2660 -0.3218  1.2760
  614MOL0     H81048   3.307  10.784   6.302  2.0723  3.4579 -0.3032
  615MOL0     O81049   5.209   4.589   2.606 -0.9018 -0.0311  0.0143
  615MOL0     C81050   5.178   4.548   2.489  0.0510 -0.6395 -0.0912
  615MOL0     O81051   5.060   4.497   2.446  0.4654 -0.9045 -0.3372
  615MOL0     C81052   4.955   4.476   2.530  0.2979 -0.4055 -0.7611
  615MOL0     C81053   4.950   4.447   2.665  0.2882  0.0462 -0.5600
  615MOL0     C81054   4.839   4.411   2.734 -1.0569 -1.2421 -0.6495
  615MOL0     C81055   4.722   4.402   2.671 -1.1028  0.9546 -0.0273
  615MOL0     O81056   4.620   4.371   2.752  0.3750  0.5566 -0.5856
  615MOL0     C81057   4.485   4.400   2.703 -0.2867  0.8999 -0.6698
  615MOL0     C81058   4.385   4.384   2.810  0.2979  0.5162 -0.4403
  615MOL0     C81059   4.255   4.465   2.792 -0.8401 -1.0636 -0.1584
  615MOL0     C81060   4.156   4.417   2.898  0.4793 -0.1654 -0.6866
  615MOL0     C81061   4.012   4.446   2.837 -0.9328  0.9216  0.3695
  615MOL0     C81062   3.907   4.356   2.912  0.3476  0.8102 -0.4625
  615MOL0     C81063   3.763   4.380   2.878 -1.1266 -0.1470 -0.0190
  615MOL0     C81064   3.668   4.256   2.918 -0.3757 -1.2041  0.6735
  615MOL0     N81065   3.541   4.257   2.848  0.2809  0.5453  0.5608
  615MOL0     C81066   3.518   4.166   2.743  0.6634  0.4587  0.0231
  615MOL0     C81067   3.396   4.205   2.693 -0.2816  0.3828  0.0792
  615MOL0     C81068   3.324   4.134   2.592 -0.2485  0.0720 -0.7731
  615MOL0     C81069   3.196   4.053   2.638  0.5560 -0.7825 -0.7255
  615MOL0     C81070   3.083   4.145   2.695 -0.6366 -0.3969  0.0656
  615MOL0     C81071   2.970   4.045   2.731  0.9341 -0.7365  0.2618
  615MOL0     O81072   2.843   4.118   2.762 -0.6137 -0.5756 -0.2056
  615MOL0     C81073   2.745   4.039   2.808  0.5819  0.0227  0.1078
  615MOL0     C81074   2.619   4.097   2.818 -0.8344  0.8188 -0.0805
  615MOL0     C81075   2.504   4.031   2.871 -0.3610  0.2073  0.4471
  615MOL0     C81076   2.515   3.901   2.917  0.8126  0.3921 -0.5858
  615MOL0     C81077   2.397   3.825   2.963 -0.8767  1.2501 -0.6953
  615MOL0     O81078   2.284   3.901   3.001 -0.6985  0.7195 -0.0094
  615MOL0     C81079   2.160   3.858   3.050 -1.0054  0.0033  0.5055
  615MOL0     C81080   2.119   3.727   3.080  0.4658  0.5514 -0.4336
  615MOL0     C81081   2.007   3.697   3.162 -1.0287 -0.2848 -0.7815
  615MOL0     C81082   1.928   3.796   3.212 -0.4893  0.9188 -0.3727
  615MOL0     O81083   1.822   3.762   3.289  0.8227 -0.6699  0.0191
  615MOL0     C81084   1.693   3.750   3.222 -0.2655  0.2991 -0.2043
  615MOL0     C81085   1.691   3.732   3.073 -0.6855  0.0027 -0.0365
  615MOL0     C81086   1.537   3.708   3.034  0.4012  0.7829 -0.1923
  615MOL0     C81087   1.525   3.696   2.891  0.3720  0.6029  1.2602
  615MOL0     C81088   1.406   3.632   2.836 -0.3939  0.8135  0.6043
  615MOL0     C81089   1.346   3.523   2.921 -0.2604  0.1005  0.5224
  615MOL0     C81090   1.230   3.447   2.845 -0.6964 -0.9270  0.5319
  615MOL0     C81091   1.117   3.527   2.784  0.5756 -0.7214 -0.6470
  615MOL0    Cl81092   1.043   3.615   2.922 -0.3544 -0.6772  0.3947
  615MOL0     C81093   1.965   3.924   3.178  0.4914  0.1893 -0.0918
  615MOL0     C81094   2.081   3.966   3.102 -1.5606  0.6569 -1.0594
  615MOL0     O81095   2.396   3.701   2.946  0.2011  0.1232  0.0642
  615MOL0     C81096   2.640   3.834   2.907  0.1789 -0.3735  0.1421
  615MOL0     C81097   2.756   3.909   2.864 -0.3111 -0.0989  0.2401
  615MOL0     N81098   3.362   4.313   2.764  0.2002 -0.1860 -0.2977
  615MOL0     N81099   3.443   4.353   2.850 -0.4213  0.8358 -0.2268
  615MOL0     C81100   4.705   4.435   2.534  0.6111 -0.6832  0.6716
  615MOL0     C81101   4.826   4.476   2.467  0.1259  0.9223  0.6229
  615MOL0     C81102   5.294   4.546   2.390 -0.0576  0.1947 -0.2315
  615MOL0     C81103   5.419   4.606   2.418 -0.7607  0.2044  0.0012
  615MOL0     C81104   5.519   4.609   2.325 -0.3575 -0.0057  0.5161
  615MOL0     C81105   5.507   4.524   2.212 -0.7584 -0.8214  0.4691
  615MOL0     O81106   5.604   4.505   2.118 -0.7071 -0.8406  1.0827
  615MOL0     C81107   5.743   4.533   2.157  0.5586  0.0571 -0.6667
  615MOL0     C81108   5.842   4.469   2.070  1.0869 -0.7810  0.1325
  615MOL0     C81109   5.976   4.539   2.105  1.2390  0.0031  0.2464
  615MOL0     C81110   6.090   4.452   2.039 -0.2383  0.4075 -0.5886
  615MOL0     C81111   6.222   4.512   2.022 -0.0339  0.2095  0.1674
  615MOL0     C81112   6.310   4.594   2.006  0.1690  0.4051 -0.0253
  615MOL0     C81113   5.389   4.469   2.180 -0.0103  0.2410 -0.0478
  615MOL0     C81114   5.282   4.484   2.267  0.5064 -0.6310  0.1898
  615MOL0     H81115   5.043   4.431   2.717  0.6698 -1.3541 -1.5918
  615MOL0     H81116   4.849   4.394   2.841  3.2813  0.2753 -0.6440
  615MOL0     H81117   4.470   4.326   2.624 -0.4973  0.4882 -0.2521
  615MOL0     H81118   4.480   4.503   2.666 -0.8392  0.2048 -2.6892
  615MOL0     H81119   4.437   4.410   2.903  0.3914 -0.1880 -0.2939
  615MOL0     H81120   4.354   4.279   2.816 -0.6720  0.8288  0.6445
  615MOL0     H81121   4.225   4.447   2.689  0.0038  0.8260 -0.7832
  615MOL0     H81122   4.283   4.569   2.812  0.9580 -1.9052  2.2469
  615MOL0     H81123   4.169   4.309   2.896  3.8726  0.1285  0.1460
  615MOL0     H81124   4.166   4.461   2.998 -1.9560  1.3841 -1.0419
  615MOL0     H81125   4.014   4.431   2.729  3.2003 -1.1167  0.5087
  615MOL0     H81126   3.985   4.551   2.853 -1.6370  0.8903 -0.5613
  615MOL0     H81127   3.914   4.367   3.020 -1.2957 -0.3974 -0.1942
  615MOL0     H81128   3.913   4.249   2.889 -4.3412  0.2681 -0.1470
  615MOL0     H81129   3.731   4.470   2.932  0.2069 -1.6333  3.5200
  615MOL0     H81130   3.757   4.404   2.771 -0.3352  1.8435  0.3247
  615MOL0     H81131   3.652   4.269   3.025  0.2229  3.5822  0.3754
  615MOL0     H81132   3.717   4.159   2.898 -1.2860 -2.2145  2.9809
  615MOL0     H81133   3.586   4.086   2.716  1.4172  1.8318 -2.4736
  615MOL0     H81134   3.393   4.060   2.551  3.0194  0.8195  2.7354
  615MOL0     H81135   3.305   4.206   2.512 -0.8564 -1.9489 -2.5300
  615MOL0     H81136   3.222   3.984   2.718  1.0474  0.5148  0.2781
  615MOL0     H81137   3.159   4.006   2.547 -0.4291 -2.6239  0.5536
  615MOL0     H81138   3.115   4.198   2.785  0.8871  0.3107 -0.8642
  615MOL0     H81139   3.045   4.211   2.617  1.5392 -0.1323 -0.8322
  615MOL0     H81140   3.002   3.988   2.818 -1.6828  0.0161  1.8515
  615MOL0     H81141   2.958   3.974   2.648  0.2149 -0.1862 -0.1288
  615MOL0     H81142   2.592   4.199   2.792 -0.6667  0.4560 -1.7975
  615MOL0     H81143   2.413   4.088   2.880 -1.6120 -1.6542  0.1093
  615MOL0     H81144   2.167   3.637   3.042  1.2103  0.9904 -0.5473
  615MOL0     H81145   1.970   3.598   3.190 -2.4447  0.3780 -0.1667
  615MOL0     H81146   1.639   3.839   3.255  0.6410  1.1249 -0.9020
  615MOL0     H81147   1.641   3.667   3.272  0.0308  0.4292  0.3296
  615MOL0     H81148   1.743   3.641   3.040 -3.8290 -1.5725 -0.9645
  615MOL0     H81149   1.734   3.823   3.030 -0.9324 -0.3160 -0.9968
  615MOL0     H81150   1.470   3.784   3.075  2.3927  2.8015 -0.4745
  615MOL0     H81151   1.503   3.617   3.083  3.0670 -0.5637 -0.6390
  615MOL0     H81152   1.514   3.799   2.856 -1.7898 -0.1605 -0.5780
  615MOL0     H81153   1.614   3.643   2.855 -0.3691 -0.2154  0.5894
  615MOL0     H81154   1.431   3.592   2.738  0.1564 -0.4721  1.2430
  615MOL0     H81155   1.330   3.711   2.839 -2.0804 -0.6783 -0.7115
  615MOL0     H81156   1.311   3.558   3.018  1.6640 -1.6849  1.9474
  615MOL0     H81157   1.427   3.451   2.937 -0.9811 -1.4992 -2.2951
  615MOL0     H81158   1.270   3.383   2.767 -0.9287 -1.0528  0.5156
  615MOL0     H81159   1.189   3.380   2.922  1.8479  1.3972  4.2986
  615MOL0     H81160   1.054   3.461   2.723  1.1391 -0.8800 -1.0553
  615MOL0     H81161   1.159   3.600   2.715  0.4553 -0.3085 -0.2859
  615MOL0     H81162   1.912   4.012   3.214  0.5987  0.7208 -1.1680
  615MOL0     H81163   2.106   4.070   3.087  0.5336  0.1873 -1.0450
  615MOL0     H81164   2.641   3.736   2.955 -0.3789 -0.8677 -0.8369
  615MOL0     H81165   2.853   3.863   2.878  0.3657  0.4869 -2.1480
  615MOL0     H81166   4.605   4.425   2.493  0.3174  3.0279  0.0913
  615MOL0     H81167   4.831   4.490   2.359  0.9868  0.8583  0.6415
  615MOL0     H81168   5.424   4.662   2.511  1.1009 -0.2577  0.2323
  615MOL0     H81169   5.599   4.678   2.349 -0.8213  1.4996 -1.8646
  615MOL0     H81170   5.759   4.499   2.260  2.4590 -0.2047 -1.0063
  615MOL0     H81171   5.762   4.641   2.149  0.1894 -0.0083 -3.4017
  615MOL0     H81172   5.849   4.361   2.089  1.9934 -0.9778 -1.2115
  615MOL0     H81173   5.800   4.491   1.971  0.5147 -1.6892  0.1619
  615MOL0     H81174   6.003   4.541   2.211  4.1651 -0.0225 -0.3962
  615MOL0     H81175   5.972   4.640   2.063 -0.9321 -0.9987 -2.2363
  615MOL0     H81176   6.100   4.372   2.113 -3.3954  0.0738 -0.3670
  615MOL0     H81177   6.060   4.407   1.944  2.1272  1.2576 -1.8228
  615MOL0     H81178   6.385   4.670   1.998 -0.4286  0.8282 -2.3316
  615MOL0     H81179   5.374   4.423   2.082  1.2133 -1.6328  0.5856
  615MOL0     H81180   5.190   4.430   2.244  0.1125 -1.0670  2.5329
  616MOL0     O81181   9.902   8.843   0.173  0.8384 -0.6442 -0.2673
  616MOL0     C81182   9.950   8.745   0.226 -0.0704  0.7658 -0.2417
  616MOL0     O81183   9.899   8.666   0.331  0.7262 -0.1091 -0.7591
  616MOL0     C81184   9.768   8.683   0.360  0.3192 -0.3523  0.4908
  616MOL0     C81185   9.673   8.668   0.258  0.2908  0.3504 -1.0594
  616MOL0     C81186   9.537   8.682   0.279 -0.0649 -0.4572  0.1345
  616MOL0     C81187   9.496   8.721   0.405  0.2792  0.6678  0.1065
  616MOL0     O81188   9.368   8.745   0.417 -0.1269 -0.0320  0.0170
  616MOL0     C81189   9.292   8.648   0.500 -0.1130 -0.4140  1.1448
  616MOL0     C81190   9.153   8.697   0.522 -0.5215 -0.4450 -0.8753
  616MOL0     C81191   9.065   8.709   0.397  0.1917  0.5391 -0.0917
  616MOL0     C81192   8.932   8.772   0.440 -0.6250  0.4127 -0.5045
  616MOL0     C81193   8.846   8.796   0.316 -0.1735  0.0850 -0.2029
  616MOL0     C81194   8.744   8.694   0.290 -0.2619 -0.0397 -0.3839
  616MOL0     C81195   8.651   8.730   0.174 -1.0661 -0.5913 -0.3243
  616MOL0     C81196   8.537   8.817   0.212  0.0778 -1.3712 -0.1720
  616MOL0     N81197   8.431   8.826   0.121  0.4768 -0.1400  0.6886
  616MOL0     C81198   8.437   8.823  -0.014  0.1961 -0.1225  0.1235
  616MOL0     C81199   8.317   8.778  -0.054  0.2200  0.3694  0.4467
  616MOL0     C81200   8.290   8.742  -0.196 -0.0869 -0.1402  0.5304
  616MOL0     C81201   8.205   8.612  -0.206 -0.2007 -1.0222  0.1245
  616MOL0     C81202   8.302   8.488  -0.232 -0.4162 -0.9975 -0.3491
  616MOL0     C81203   8.221   8.369  -0.259 -0.5128  0.3638  1.0926
  616MOL0     O81204   8.153   8.318  -0.136 -0.5975 -0.4531  0.2943
  616MOL0     C81205   8.106   8.193  -0.127 -1.0619 -0.1164  0.4850
  616MOL0     C81206   8.093   8.108  -0.237 -0.3276  0.0337 -0.2133
  616MOL0     C81207   8.029   7.984  -0.216 -0.0014 -0.2958 -0.5446
  616MOL0     C81208   7.978   7.950  -0.083 -0.2286 -0.9503 -0.2152
  616MOL0     C81209   7.903   7.817  -0.070 -0.6046  0.7194 -0.0267
  616MOL0     O81210   7.901   7.743  -0.190  0.2360 -0.2458 -0.6019
  616MOL0     C81211   7.811   7.635  -0.173  0.1846  0.6145 -0.3846
  616MOL0     C81212   7.853   7.509  -0.212 -0.4721  0.1736  0.1743
  616MOL0     C81213   7.758   7.407  -0.237  0.1256  0.9183  0.3917
  616MOL0     C81214   7.621   7.432  -0.219  0.2533 -0.5360 -0.1187
  616MOL0     O81215   7.525   7.331  -0.250  0.9321  0.0027  0.3495
  616MOL0     C81216   7.506   7.223  -0.152 -0.0218 -0.1666  0.5907
  616MOL0     C81217   7.410   7.249  -0.033 -0.6187  0.1615  0.4676
  616MOL0     C81218   7.265   7.281  -0.087 -0.0657 -0.1209 -0.5283
  616MOL0     C81219   7.171   7.310   0.028 -0.0113  0.1453 -0.0232
  616MOL0     C81220   7.100   7.194   0.112 -0.4521  0.4631  0.3538
  616MOL0     C81221   7.020   7.100   0.032 -0.1923 -0.0258 -0.3133
  616MOL0     C81222   6.948   6.991   0.103  0.2428  0.3376  0.0099
  616MOL0     C81223   6.897   6.885   0.002  0.5050 -0.0495 -0.6490
  616MOL0    Cl81224   7.024   6.793  -0.055 -0.1215  0.1859  0.2887
  616MOL0     C81225   7.578   7.559  -0.179 -0.0825  0.1494  0.6033
  616MOL0     C81226   7.671   7.655  -0.158  1.1623  0.5468 -0.2521
  616MOL0     O81227   7.849   7.791   0.041  0.7953  0.2761 -0.7424
  616MOL0     C81228   8.003   8.033   0.024 -0.1425 -0.1342 -0.0555
  616MOL0     C81229   8.064   8.156  -0.001  0.4840 -0.4588 -0.3320
  616MOL0     N81230   8.230   8.775   0.050 -0.0666  0.3657 -0.5082
  616MOL0     N81231   8.299   8.809   0.153  0.4025  0.2635 -0.4146
  616MOL0     C81232   9.589   8.719   0.512 -0.0374  0.1749  0.0781
  616MOL0     C81233   9.731   8.717   0.490 -0.8415  0.6969 -0.3821
  616MOL0     C81234  10.085   8.715   0.192 -0.1120 -0.3203 -0.4807
  616MOL0     C81235  10.119   8.693   0.059 -0.2777 -0.1985 -0.1904
  616MOL0     C81236  10.250   8.654   0.018  0.2987  0.2766  0.2195
  616MOL0     C81237  10.351   8.636   0.106 -0.7580 -0.0551  0.6660
  616MOL0     O81238  10.471   8.586   0.066 -0.3211  0.7046  0.4823
  616MOL0     C81239  10.582   8.679   0.093  0.3706  0.3883 -0.5616
  616MOL0     C81240  10.704   8.588   0.103 -0.4557  0.8023  0.2977
  616MOL0     C81241  10.740   8.521  -0.040  0.3324  0.8318  0.5981
  616MOL0     C81242  10.892   8.492  -0.070 -1.1623 -0.2546  0.3871
  616MOL0     C81243  10.969   8.610  -0.084 -0.8728  0.5356 -0.7819
  616MOL0     C81244  11.038   8.711  -0.089  0.2780 -0.2901  0.0360
  616MOL0     C81245  10.316   8.658   0.240 -0.7358  0.3075 -0.1693
  616MOL0     C81246  10.194   8.704   0.287  0.5388  0.2914  0.0377
  616MOL0     H81247   9.714   8.653   0.159  0.2731  0.8791 -1.1469
  616MOL0     H81248   9.472   8.680   0.192  1.2847  0.7589 -0.9597
  616MOL0     H81249   9.344   8.624   0.594 -2.3241  1.0180  2.8417
  616MOL0     H81250   9.285   8.556   0.442  1.8722 -0.8082  1.4519
  616MOL0     H81251   9.150   8.794   0.574 -2.2169 -1.8877  1.9207
  616MOL0     H81252   9.108   8.628   0.593  0.1601 -0.6299 -0.6200
  616MOL0     H81253   9.055   8.611   0.351 -1.4775 -0.0819  1.4946
  616MOL0     H81254   9.120   8.765   0.321 -0.0719  0.8842 -0.0329
  616MOL0     H81255   8.880   8.702   0.506  1.0428 -0.8471 -0.4712
  616MOL0     H81256   8.951   8.860   0.503 -1.2351 -1.9479  3.2861
  616MOL0     H81257   8.916   8.805   0.233  0.0841  2.8049  0.2242
  616MOL0     H81258   8.795   8.892   0.329  0.0729  0.1222  0.4996
  616MOL0     H81259   8.692   8.674   0.384 -3.2416  4.2656 -0.8531
  616MOL0     H81260   8.805   8.607   0.264  1.6560  1.1566 -0.0979
  616MOL0     H81261   8.706   8.773   0.089 -0.9170  0.3814  0.2395
  616MOL0     H81262   8.616   8.637   0.130 -1.9191 -0.5856  0.3214
  616MOL0     H81263   8.575   8.918   0.232 -0.4665 -1.3372  0.7332
  616MOL0     H81264   8.486   8.775   0.299 -1.2426  1.2259  0.3951
  616MOL0     H81265   8.521   8.846  -0.079  2.0255 -4.2676  0.6899
  616MOL0     H81266   8.373   8.731  -0.267  0.0301 -0.9646  0.7879
  616MOL0     H81267   8.233   8.828  -0.232 -3.4397 -3.0271 -1.6913
  616MOL0     H81268   8.133   8.626  -0.287  0.7221 -0.4698 -0.6074
  616MOL0     H81269   8.154   8.595  -0.110  0.9955  0.6992  1.1278
  616MOL0     H81270   8.384   8.494  -0.304  1.4676  0.4323  1.7935
  616MOL0     H81271   8.352   8.479  -0.136 -1.5015 -0.2484  0.3032
  616MOL0     H81272   8.292   8.290  -0.289 -0.6972  0.3693  0.6344
  616MOL0     H81273   8.147   8.373  -0.339 -0.8129  0.8002  1.3942
  616MOL0     H81274   8.125   8.134  -0.338 -1.6401  0.2682 -0.5899
  616MOL0     H81275   8.014   7.920  -0.302  3.1223  0.1015 -1.5070
  616MOL0     H81276   7.956   7.500  -0.246  0.1599  0.3636  1.9326
  616MOL0     H81277   7.790   7.309  -0.270 -0.5701  1.0349 -0.7169
  616MOL0     H81278   7.602   7.187  -0.112 -0.3958  0.1213  1.7773
  616MOL0     H81279   7.461   7.139  -0.206 -2.2918  2.3933 -1.7863
  616MOL0     H81280   7.435   7.344   0.014  0.2761 -0.0587  0.4479
  616MOL0     H81281   7.411   7.169   0.041  2.6998 -0.2490  0.1074
  616MOL0     H81282   7.216   7.200  -0.143 -0.4931 -0.4250  0.2673
  616MOL0     H81283   7.279   7.362  -0.159 -0.6409  1.4309  1.0096
  616MOL0     H81284   7.220   7.369   0.105 -0.1227  0.3104 -0.0756
  616MOL0     H81285   7.088   7.374  -0.006 -1.4066 -0.6917  1.6484
  616MOL0     H81286   7.038   7.242   0.188 -2.9442  0.7240 -1.7054
  616MOL0     H81287   7.181   7.137   0.157 -1.5295 -0.4512  1.1800
  616MOL0     H81288   7.090   7.068  -0.047  0.9309  0.9133  0.2745
  616MOL0     H81289   6.942   7.155  -0.022 -3.4893 -3.8884  0.0322
  616MOL0     H81290   7.022   6.943   0.168  0.2485 -0.8798 -0.8474
  616MOL0     H81291   6.859   7.035   0.148 -0.7542  0.2434 -1.7945
  616MOL0     H81292   6.845   6.949  -0.070  0.3897  3.0535  1.9589
  616MOL0     H81293   6.825   6.810   0.037  2.8227 -1.8258  0.5764
  616MOL0     H81294   7.470   7.572  -0.170 -0.2946 -1.9697  1.9542
  616MOL0     H81295   7.623   7.751  -0.145  0.7678  0.2113  0.9373
  616MOL0     H81296   7.973   8.014   0.127 -1.8850 -0.7168 -0.6246
  616MOL0     H81297   8.078   8.234   0.074 -0.7219 -0.6580  0.1118
  616MOL0     H81298   9.557   8.746   0.613 -1.6570  0.4390 -0.4618
  616MOL0     H81299   9.800   8.713   0.574  0.8013  0.7975 -1.6896
  616MOL0     H81300  10.046   8.707  -0.020 -1.8559 -1.0279  1.0720
  616MOL0     H81301  10.266   8.635  -0.088 -0.1045  0.6920  0.0810
  616MOL0     H81302  10.567   8.745   0.179  0.8011 -1.4153  0.9634
  616MOL0     H81303  10.595   8.760   0.019 -1.4366  2.4313  1.2184
  616MOL0     H81304  10.787   8.654   0.128 -0.0148 -0.0212  1.0736
  616MOL0     H81305  10.693   8.514   0.183  1.9594 -0.7521 -0.7096
  616MOL0     H81306  10.707   8.590  -0.119 -1.3289  1.5070  1.8127
  616MOL0     H81307  10.685   8.427  -0.036  0.4977  0.7028 -0.1287
  616MOL0     H81308  10.935   8.444   0.019 -0.1696  0.9583  0.5964
  616MOL0     H81309  10.892   8.438  -0.164  2.5483 -0.3863  0.3181
  616MOL0     H81310  11.099   8.799  -0.094  0.5474 -0.4128  0.9887
  616MOL0     H81311  10.387   8.638   0.320 -0.6825 -1.0104 -0.5257
  616MOL0     H81312  10.177   8.710   0.395  0.0117 -3.4477  0.2976
  617MOL0     O81313   4.072   0.640   1.472  0.0434  0.4698  0.1386
  617MOL0     C81314   4.178   0.666   1.524 -0.0798  0.9616  0.1870
  617MOL0     O81315   4.210   0.778   1.585  0.3708  0.1573 -0.0561
  617MOL0     C81316   4.121   0.880   1.567 -0.1019 -0.4593 -0.1731
  617MOL0     C81317   4.044   0.918   1.679 -0.3049  0.7699 -0.2902
  617MOL0     C81318   3.944   1.014   1.678 -0.1070  0.7475  0.0630
  617MOL0     C81319   3.919   1.081   1.558 -0.2050 -0.6614 -0.5401
  617MOL0     O81320   3.834   1.182   1.531  0.3068 -0.4929  0.3476
  617MOL0     C81321   3.825   1.276   1.644 -0.0495 -0.4376  0.0141
  617MOL0     C81322   3.753   1.406   1.592  0.0058  0.6248 -0.5548
  617MOL0     C81323   3.710   1.497   1.711  0.5794 -0.1379 -0.5955
  617MOL0     C81324   3.597   1.588   1.680  1.4402 -0.3097  0.0761
  617MOL0     C81325   3.635   1.687   1.565  0.9601  0.1167 -0.3460
  617MOL0     C81326   3.546   1.785   1.501  0.9903 -0.4626  0.4861
  617MOL0     C81327   3.394   1.749   1.491 -0.2954  0.2622  0.5731
  617MOL0     C81328   3.295   1.848   1.552 -0.5818 -0.7450  0.6937
  617MOL0     N81329   3.162   1.832   1.494 -0.1320  0.0228 -0.2966
  617MOL0     C81330   3.099   1.712   1.461 -0.0987 -0.9026 -0.0267
  617MOL0     C81331   2.991   1.742   1.383 -0.8880  0.3490  0.0596
  617MOL0     C81332   2.892   1.656   1.315  0.8428 -0.4649  0.2866
  617MOL0     C81333   2.820   1.731   1.199  0.0860  0.0551 -0.0196
  617MOL0     C81334   2.671   1.685   1.164 -0.3273 -0.3313 -1.0753
  617MOL0     C81335   2.578   1.711   1.288  0.3437  0.6122  0.5401
  617MOL0     O81336   2.441   1.681   1.258 -0.1110  0.8999  0.0295
  617MOL0     C81337   2.343   1.720   1.340 -1.0439 -0.5781 -0.6550
  617MOL0     C81338   2.215   1.678   1.304  0.2920  0.5128  0.4844
  617MOL0     C81339   2.103   1.717   1.390  0.7975  0.8991 -0.2364
  617MOL0     C81340   2.122   1.787   1.508 -0.8464  0.4168  0.3113
  617MOL0     C81341   2.021   1.834   1.596 -0.7865 -0.5192 -1.8293
  617MOL0     O81342   1.903   1.860   1.542  0.1168  0.0344  0.4672
  617MOL0     C81343   1.798   1.922   1.610 -0.8505  0.8519  0.3484
  617MOL0     C81344   1.738   1.849   1.709 -0.4628  0.5553  0.9414
  617MOL0     C81345   1.630   1.900   1.773  0.1096 -0.7811  0.3693
  617MOL0     C81346   1.575   2.027   1.727  0.2313  0.4285 -0.2413
  617MOL0     O81347   1.456   2.073   1.777 -0.5890  0.4295  0.2675
  617MOL0     C81348   1.388   1.996   1.879 -0.6571  0.2131  0.2315
  617MOL0     C81349   1.295   2.085   1.942 -0.0204 -0.5646 -0.8820
  617MOL0     C81350   1.196   2.003   2.028  0.3646 -0.4274 -0.0801
  617MOL0     C81351   1.136   2.093   2.134 -0.2489  0.4283 -0.6950
  617MOL0     C81352   1.043   2.010   2.229  0.1611 -0.6772 -0.8332
  617MOL0     C81353   0.990   2.104   2.341 -0.3377  0.3690  0.7091
  617MOL0     C81354   0.899   2.040   2.449  0.5930  0.1335 -0.0841
  617MOL0     C81355   0.796   2.129   2.514 -0.1777 -0.1144 -0.7215
  617MOL0    Cl81356   0.652   2.152   2.412 -0.4446 -0.1106 -0.3243
  617MOL0     C81357   1.642   2.109   1.639 -1.2307  1.1597 -0.1042
  617MOL0     C81358   1.761   2.051   1.581  0.5636 -0.3012 -0.4583
  617MOL0     O81359   2.051   1.867   1.709 -0.0047  0.6573 -0.5100
  617MOL0     C81360   2.257   1.827   1.538 -0.5002  0.2795 -0.1070
  617MOL0     C81361   2.368   1.791   1.458  0.5361  0.0135 -0.0187
  617MOL0     N81362   2.994   1.875   1.375  0.5134 -0.0330 -0.2007
  617MOL0     N81363   3.098   1.936   1.432 -0.1929  0.3398  0.4102
  617MOL0     C81364   3.994   1.044   1.447  1.4134 -0.0000 -0.4384
  617MOL0     C81365   4.094   0.942   1.450 -0.1669  0.4110  0.0435
  617MOL0     C81366   4.274   0.551   1.544 -0.6277  0.0261 -0.2697
  617MOL0     C81367   4.384   0.569   1.622  0.3838 -0.4693  0.5306
  617MOL0     C81368   4.475   0.465   1.640  0.3724  1.0771  0.3471
  617MOL0     C81369   4.448   0.328   1.589 -0.8885  0.3862 -0.4737
  617MOL0     O81370   4.547   0.237   1.591 -0.3621  1.2197  0.1106
  617MOL0     C81371   4.530   0.099   1.547 -0.8080 -0.7805  0.1060
  617MOL0     C81372   4.460   0.013   1.659 -0.0436 -0.8502  0.1242
  617MOL0     C81373   4.556  -0.021   1.785 -0.9793 -0.4329  0.2138
  617MOL0     C81374   4.484  -0.106   1.890 -0.2432 -0.0444  0.7701
  617MOL0     C81375   4.579  -0.162   1.980 -0.3250  0.1223 -0.6842
  617MOL0     C81376   4.656  -0.196   2.074 -0.0879 -0.2093  0.5881
  617MOL0     C81377   4.326   0.310   1.520 -1.1050  0.7277  0.3488
  617MOL0     C81378   4.243   0.420   1.496 -1.0677 -0.4927 -0.6833
  617MOL0     H81379   4.071   0.873   1.775  2.4753  4.1595  0.7625
  617MOL0     H81380   3.900   1.033   1.776  1.7553 -2.0828  1.5819
  617MOL0     H81381   3.921   1.301   1.691 -1.3084  0.8318  2.0035
  617MOL0     H81382   3.762   1.231   1.721 -0.4673  3.4422  2.1956
  617MOL0     H81383   3.666   1.369   1.538  0.1895  1.9833 -1.8186
  617MOL0     H81384   3.827   1.454   1.528  0.3281  0.9615  0.0593
  617MOL0     H81385   3.795   1.561   1.736  1.2912  0.0919 -3.2958
  617MOL0     H81386   3.675   1.436   1.795  0.1951  1.1454  0.1891
  617MOL0     H81387   3.517   1.520   1.650  0.6464  1.6459 -2.6789
  617MOL0     H81388   3.559   1.625   1.776 -0.9602 -1.4510 -0.3840
  617MOL0     H81389   3.668   1.622   1.483 -2.4943 -2.9104  0.3800
  617MOL0     H81390   3.712   1.755   1.602  1.0680  1.2701 -2.5362
  617MOL0     H81391   3.579   1.780   1.397  0.0442  0.0770  0.1490
  617MOL0     H81392   3.562   1.884   1.546  1.9269  0.4780 -1.7833
  617MOL0     H81393   3.386   1.734   1.383 -0.7351 -1.2911  0.8066
  617MOL0     H81394   3.372   1.654   1.540 -0.4691 -0.0847 -0.1651
  617MOL0     H81395   3.330   1.952   1.559 -0.7246 -0.7110  0.9291
  617MOL0     H81396   3.280   1.829   1.659 -0.8342  1.8933  1.2084
  617MOL0     H81397   3.117   1.616   1.510 -3.5883 -0.6645  2.0507
  617MOL0     H81398   2.818   1.624   1.389 -0.9591 -1.3994 -1.8130
  617MOL0     H81399   2.943   1.567   1.279  0.8202 -0.1431 -0.5711
  617MOL0     H81400   2.893   1.727   1.117  3.6154  2.1585  2.7138
  617MOL0     H81401   2.806   1.838   1.217  0.8120  0.5806 -2.2753
  617MOL0     H81402   2.654   1.752   1.080 -0.3172 -0.8796 -1.5226
  617MOL0     H81403   2.664   1.585   1.121 -0.6060  0.4660 -2.9739
  617MOL0     H81404   2.595   1.813   1.324 -2.3660  0.5694  2.2174
  617MOL0     H81405   2.622   1.651   1.368 -1.3693  1.9295  2.5889
  617MOL0     H81406   2.209   1.609   1.220 -3.4097 -0.0937  1.0629
  617MOL0     H81407   2.002   1.684   1.368  0.1829  2.4938  0.0984
  617MOL0     H81408   1.779   1.750   1.723  0.3965  0.3578 -2.1472
  617MOL0     H81409   1.577   1.840   1.846 -0.5691  0.2708  0.7585
  617MOL0     H81410   1.453   1.968   1.963 -0.4208  1.3680  0.4541
  617MOL0     H81411   1.340   1.906   1.840 -0.3184 -0.6786  1.8107
  617MOL0     H81412   1.239   2.145   1.870 -0.0381  4.4187  2.7591
  617MOL0     H81413   1.354   2.153   2.004 -2.5695 -0.5033  1.7226
  617MOL0     H81414   1.252   1.928   2.086  2.6002 -0.0669 -1.6259
  617MOL0     H81415   1.120   1.936   1.985 -0.0034 -1.7434  2.4372
  617MOL0     H81416   1.214   2.139   2.196  2.1977 -0.7361 -2.7176
  617MOL0     H81417   1.083   2.180   2.093  1.5428  1.5337 -0.7774
  617MOL0     H81418   1.089   1.924   2.278 -1.1872 -0.1614  1.4895
  617MOL0     H81419   0.956   1.976   2.171  0.6158  0.7834 -2.4498
  617MOL0     H81420   0.932   2.182   2.291 -2.4677 -0.2908  2.0251
  617MOL0     H81421   1.084   2.134   2.389  1.2607 -2.9829  0.0182
  617MOL0     H81422   0.842   1.956   2.409 -1.3659  1.7396 -0.8359
  617MOL0     H81423   0.967   2.007   2.528  2.2102 -2.7310 -2.4528
  617MOL0     H81424   0.847   2.224   2.535  1.8409 -0.6875 -2.6621
  617MOL0     H81425   0.768   2.078   2.607  4.5336 -0.0835  0.9870
  617MOL0     H81426   1.612   2.210   1.613 -2.4949  0.3674 -1.9835
  617MOL0     H81427   1.820   2.119   1.520  0.0206  2.5802  1.9764
  617MOL0     H81428   2.279   1.885   1.627  1.1383 -1.6588  0.8364
  617MOL0     H81429   2.466   1.833   1.477  0.9807  0.2915 -2.5875
  617MOL0     H81430   3.978   1.086   1.348  2.3427  0.3507 -0.4520
  617MOL0     H81431   4.128   0.921   1.349 -2.0587  1.9039 -0.9821
  617MOL0     H81432   4.397   0.670   1.661 -2.2631  0.1469 -0.0141
  617MOL0     H81433   4.569   0.479   1.691 -0.9957  0.8239  3.1299
  617MOL0     H81434   4.631   0.064   1.523 -2.0804 -3.1676 -2.2407
  617MOL0     H81435   4.478   0.092   1.451  1.6268 -1.1117 -1.2792
  617MOL0     H81436   4.370   0.067   1.688  0.3290 -0.3047  0.2889
  617MOL0     H81437   4.422  -0.075   1.605  0.9854 -1.9073  1.0603
  617MOL0     H81438   4.581   0.074   1.832 -3.9768  0.9240 -0.6806
  617MOL0     H81439   4.639  -0.080   1.746 -2.7437 -2.5456 -0.6010
  617MOL0     H81440   4.415  -0.045   1.948 -0.4243  1.0052 -0.5033
  617MOL0     H81441   4.428  -0.191   1.849 -0.6764  1.0971 -1.1085
  617MOL0     H81442   4.726  -0.225   2.149  0.6461  2.3523  0.9843
  617MOL0     H81443   4.298   0.211   1.486 -0.3425  0.3089  0.8873
  617MOL0     H81444   4.153   0.400   1.438 -1.5334  1.0939 -0.5597
  618MOL0     O81445   7.949   0.303   4.076 -0.5029  0.8980  0.8157
  618MOL0     C81446   7.834   0.280   4.125 -0.4032  0.8711  0.8178
  618MOL0     O81447   7.785   0.153   4.149 -1.0237  0.4506  0.1288
  618MOL0     C81448   7.879   0.054   4.110 -0.1204  0.3524  0.2323
  618MOL0     C81449   7.898   0.018   3.976  0.5382  0.2196  0.1976
  618MOL0     C81450   8.001  -0.070   3.928  1.2261  0.1510 -0.4640
  618MOL0     C81451   8.078  -0.134   4.020  0.1603 -0.1730  0.0344
  618MOL0     O81452   8.186  -0.197   3.965 -0.0820  0.2501  0.0082
  618MOL0     C81453   8.266  -0.280   4.052  0.0027  0.0665 -0.0119
  618MOL0     C81454   8.194  -0.407   4.089  0.6454 -0.4727 -0.6574
  618MOL0     C81455   8.152  -0.493   3.964  0.0222 -0.2492 -0.3159
  618MOL0     C81456   8.274  -0.555   3.897 -0.1087 -0.5261  0.5263
  618MOL0     C81457   8.371  -0.622   4.001  0.2162  0.3189  0.3759
  618MOL0     C81458   8.488  -0.684   3.926  0.4478 -0.5921  0.5205
  618MOL0     C81459   8.602  -0.733   4.020  1.1213  0.9953  0.0976
  618MOL0     C81460   8.648  -0.633   4.125  0.8416 -0.3315  1.1000
  618MOL0     N81461   8.774  -0.670   4.176  0.5468  0.7721 -0.1901
  618MOL0     C81462   8.900  -0.620   4.140 -0.0119  0.1337 -0.1096
  618MOL0     C81463   8.983  -0.707   4.207 -0.1292 -0.3996 -0.4455
  618MOL0     C81464   9.137  -0.669   4.210  0.5110 -0.3509  0.9514
  618MOL0     C81465   9.226  -0.783   4.184  0.6355 -0.7034 -0.0108
  618MOL0     C81466   9.245  -0.876   4.302 -0.9168  0.3796  0.5342
  618MOL0     C81467   9.335  -0.999   4.279  1.0609  0.3492 -0.0896
  618MOL0     O81468   9.272  -1.088   4.183 -0.8164 -0.0892  0.1683
  618MOL0     C81469   9.174  -1.169   4.231 -0.9225 -0.3270  0.0635
  618MOL0     C81470   9.110  -1.233   4.131 -0.1310 -0.2716 -1.0396
  618MOL0     C81471   9.005  -1.319   4.156 -0.2519  0.5178 -0.1560
  618MOL0     C81472   8.974  -1.352   4.287  0.1730  0.1160 -0.1052
  618MOL0     C81473   8.879  -1.459   4.312 -0.2163 -0.2639 -0.8739
  618MOL0     O81474   8.850  -1.471   4.449  0.0037  0.5083  0.8770
  618MOL0     C81475   8.754  -1.557   4.504  0.1542 -0.1406 -0.1029
  618MOL0     C81476   8.647  -1.627   4.441 -0.0211  0.1504  0.3227
  618MOL0     C81477   8.569  -1.712   4.517  0.0332  0.1178 -0.2768
  618MOL0     C81478   8.569  -1.718   4.658  0.0195 -0.0929  0.3649
  618MOL0     O81479   8.480  -1.784   4.734  0.5047  0.2054 -0.2300
  618MOL0     C81480   8.421  -1.899   4.663  0.5360 -0.2045 -1.1905
  618MOL0     C81481   8.368  -1.996   4.762 -0.0263  0.0423  0.9529
  618MOL0     C81482   8.264  -1.945   4.856  0.3892 -0.6550  0.5135
  618MOL0     C81483   8.308  -1.889   4.992  0.6179  0.6408 -0.1739
  618MOL0     C81484   8.201  -1.839   5.089  0.7843 -0.3616  0.2644
  618MOL0     C81485   8.112  -1.933   5.163  0.2223 -0.0147  0.3998
  618MOL0     C81486   8.036  -1.878   5.283 -0.5955 -0.3100  0.0574
  618MOL0     C81487   7.941  -1.979   5.327 -0.0522  0.3098 -0.1019
  618MOL0    Cl81488   7.795  -2.004   5.205  0.0460 -0.1109  0.0880
  618MOL0     C81489   8.667  -1.641   4.718  0.2383  0.0083  0.4281
  618MOL0     C81490   8.758  -1.561   4.648  0.9800 -0.4735 -0.6765
  618MOL0     O81491   8.825  -1.518   4.219  0.1186 -0.2491  0.7577
  618MOL0     C81492   9.031  -1.272   4.384  0.3252  0.0892  0.2142
  618MOL0     C81493   9.131  -1.178   4.358  1.6602  0.2344 -0.0666
  618MOL0     N81494   8.911  -0.812   4.262 -0.1008 -0.0002 -0.9352
  618MOL0     N81495   8.787  -0.790   4.243 -1.2828  0.3689  0.0201
  618MOL0     C81496   8.053  -0.097   4.156 -0.3053 -0.2443 -0.0175
  618MOL0     C81497   7.966   0.000   4.199 -0.0292  0.2005  0.2574
  618MOL0     C81498   7.749   0.387   4.161  0.5989 -1.1631 -0.2223
  618MOL0     C81499   7.615   0.370   4.214 -0.7683  0.5699 -0.3486
  618MOL0     C81500   7.534   0.474   4.257  0.2701 -0.0608 -0.7332
  618MOL0     C81501   7.585   0.605   4.238  0.8848 -0.0836  0.7443
  618MOL0     O81502   7.505   0.704   4.284  0.0505  0.4071  0.3154
  618MOL0     C81503   7.412   0.754   4.174  0.1496  0.2820 -0.9662
  618MOL0     C81504   7.402   0.902   4.165  0.7968  0.1275 -0.4386
  618MOL0     C81505   7.307   0.955   4.277  0.3949  0.0694 -0.0124
  618MOL0     C81506   7.313   1.117   4.297 -0.7166 -0.4734  0.2029
  618MOL0     C81507   7.311   1.196   4.174 -0.6323  0.4098  0.2771
  618MOL0     C81508   7.307   1.251   4.069 -0.1762 -1.0990  0.0914
  618MOL0     C81509   7.718   0.627   4.189 -0.3385  0.6595 -0.4512
  618MOL0     C81510   7.795   0.518   4.151 -0.1814  0.4386  0.2422
  618MOL0     H81511   7.831   0.057   3.900  1.4122 -2.4055 -2.0781
  618MOL0     H81512   8.016  -0.088   3.822  0.0320  0.9016 -0.7779
  618MOL0     H81513   8.297  -0.219   4.137 -0.6811  0.9406 -0.3792
  618MOL0     H81514   8.359  -0.302   4.000  0.2906  2.7816 -0.7990
  618MOL0     H81515   8.096  -0.378   4.127  0.1026 -0.0726 -2.2753
  618MOL0     H81516   8.251  -0.471   4.158  0.0624 -0.1274  0.1611
  618MOL0     H81517   8.114  -0.423   3.889 -1.6943  0.3749  1.0850
  618MOL0     H81518   8.063  -0.554   3.977 -0.6487  0.4990 -1.2394
  618MOL0     H81519   8.241  -0.634   3.829  2.3247 -0.7259 -0.5087
  618MOL0     H81520   8.324  -0.479   3.837 -3.1942  1.4768  0.2407
  618MOL0     H81521   8.317  -0.692   4.065 -0.1180  1.0765  0.9421
  618MOL0     H81522   8.415  -0.547   4.069  1.1649  0.8367 -0.7562
  618MOL0     H81523   8.525  -0.615   3.850  1.9488 -3.5344 -1.6256
  618MOL0     H81524   8.450  -0.767   3.866 -0.7384  3.5143 -5.2632
  618MOL0     H81525   8.567  -0.823   4.071  1.1590 -2.1317 -4.8307
  618MOL0     H81526   8.687  -0.766   3.960  2.3949  3.4587  0.4167
  618MOL0     H81527   8.580  -0.641   4.210  0.2639  1.7932  0.8864
  618MOL0     H81528   8.646  -0.538   4.072 -0.0059 -0.1293  1.4729
  618MOL0     H81529   8.922  -0.525   4.093 -0.4458  1.1306  1.5940
  618MOL0     H81530   9.154  -0.636   4.313  0.4254  0.2342  0.7816
  618MOL0     H81531   9.157  -0.597   4.131  0.4451 -4.0712 -2.7678
  618MOL0     H81532   9.323  -0.733   4.172  0.1440  1.1238  2.6594
  618MOL0     H81533   9.188  -0.832   4.094  1.9550  2.8430 -2.7560
  618MOL0     H81534   9.282  -0.812   4.383  3.8549 -0.2563 -0.8291
  618MOL0     H81535   9.142  -0.903   4.329 -0.0994 -1.5927  1.9019
  618MOL0     H81536   9.357  -1.045   4.375 -1.1563 -0.4520  0.0681
  618MOL0     H81537   9.427  -0.984   4.220  1.7845 -0.0407  0.9080
  618MOL0     H81538   9.142  -1.208   4.030  1.8905  1.8020  0.0430
  618MOL0     H81539   8.961  -1.373   4.073 -0.8836 -0.0373  0.5344
  618MOL0     H81540   8.630  -1.613   4.335 -3.4557  2.9893  1.0404
  618MOL0     H81541   8.492  -1.762   4.459 -1.6398  1.2321  0.9016
  618MOL0     H81542   8.491  -1.954   4.599 -1.7195 -0.6855 -3.3995
  618MOL0     H81543   8.340  -1.856   4.603 -0.4787  0.6836  0.7356
  618MOL0     H81544   8.460  -2.033   4.807 -0.1532 -1.0372  0.3580
  618MOL0     H81545   8.324  -2.078   4.704  0.3522  0.8267 -0.4933
  618MOL0     H81546   8.181  -2.016   4.861  0.4228 -0.9140 -1.5643
  618MOL0     H81547   8.219  -1.856   4.810 -2.3778 -3.1536 -2.0717
  618MOL0     H81548   8.371  -1.967   5.036  0.0264  0.4177  0.2849
  618MOL0     H81549   8.372  -1.806   4.960  0.6315 -0.1525 -2.3637
  618MOL0     H81550   8.143  -1.766   5.031  1.0765  0.3245  0.8206
  618MOL0     H81551   8.261  -1.776   5.155  0.2966  1.9949 -1.3765
  618MOL0     H81552   8.176  -2.013   5.202  2.3679  1.4756  0.0996
  618MOL0     H81553   8.059  -1.997   5.091 -0.9665 -0.8035  1.9147
  618MOL0     H81554   8.110  -1.848   5.357 -2.8071  2.4655  1.3571
  618MOL0     H81555   7.976  -1.789   5.259  0.4191  1.5057  3.6463
  618MOL0     H81556   7.902  -1.951   5.426  1.7406 -0.9535  1.0051
  618MOL0     H81557   7.997  -2.070   5.347 -2.1308 -0.9274  0.4182
  618MOL0     H81558   8.679  -1.668   4.823  0.1812 -0.9729  0.1919
  618MOL0     H81559   8.832  -1.497   4.695  0.0270  3.3030 -3.7978
  618MOL0     H81560   9.012  -1.288   4.489 -2.3859 -0.4903 -0.2938
  618MOL0     H81561   9.155  -1.124   4.450  0.8590 -0.6876  0.7089
  618MOL0     H81562   8.127  -0.123   4.231 -1.2661 -2.1924  0.3032
  618MOL0     H81563   7.967   0.015   4.306  0.1113 -1.7574  0.5659
  618MOL0     H81564   7.582   0.267   4.213  0.6176  0.0832  1.1015
  618MOL0     H81565   7.430   0.464   4.286 -0.1226  2.7556 -0.8633
  618MOL0     H81566   7.316   0.701   4.183  0.0801  0.6306  0.8537
  618MOL0     H81567   7.440   0.712   4.077  1.2006  0.9023 -0.9503
  618MOL0     H81568   7.500   0.950   4.174  1.4427 -1.3428  0.8321
  618MOL0     H81569   7.352   0.923   4.070 -2.9385  0.6848  1.4431
  618MOL0     H81570   7.324   0.909   4.374 -2.3302  1.0898  1.0644
  618MOL0     H81571   7.203   0.940   4.246 -0.0163  1.5158  0.5440
  618MOL0     H81572   7.242   1.157   4.371  0.2953 -1.4648  1.7743
  618MOL0     H81573   7.413   1.138   4.337  0.3058 -5.0886  0.6153
  618MOL0     H81574   7.294   1.304   3.976 -1.3717 -2.4007 -0.5218
  618MOL0     H81575   7.748   0.731   4.180  2.2258 -0.1015 -1.8511
  618MOL0     H81576   7.890   0.531   4.102 -0.8470  0.7181 -1.0024
  619MOL0     O81577   6.494   7.051   2.048  0.2819  0.4747 -0.4331
  619MOL0     C81578   6.437   7.033   1.938 -0.4037  0.4812  0.2845
  619MOL0     O81579   6.314   7.070   1.906 -0.0417  0.1223 -0.2780
  619MOL0     C81580   6.217   6.979   1.920 -0.3760 -0.1415 -0.1783
  619MOL0     C81581   6.097   7.012   1.861  0.7002 -0.1961  0.1455
  619MOL0     C81582   5.983   6.921   1.890  0.5347 -0.4203  0.2329
  619MOL0     C81583   5.992   6.808   1.962  0.3092 -0.3324 -0.1694
  619MOL0     O81584   5.870   6.737   1.975  0.2018 -0.1967  0.0375
  619MOL0     C81585   5.881   6.599   2.002  1.7612  0.0227  0.2751
  619MOL0     C81586   5.748   6.520   1.977 -0.6492 -0.1539  0.1245
  619MOL0     C81587   5.627   6.590   2.041  0.2004 -0.3578  0.1754
  619MOL0     C81588   5.503   6.501   2.050 -0.3948  0.3476 -0.9340
  619MOL0     C81589   5.366   6.571   2.051 -0.0290  0.2456  0.6715
  619MOL0     C81590   5.255   6.473   2.081 -0.1711  0.3778 -0.2950
  619MOL0     C81591   5.110   6.516   2.057  0.1795  0.2891 -0.4590
  619MOL0     C81592   5.030   6.389   2.071  1.2166 -0.4602 -0.7207
  619MOL0     N81593   4.886   6.430   2.082 -0.2946 -0.7222 -0.2395
  619MOL0     C81594   4.781   6.412   1.992 -1.2126  0.0767 -1.0309
  619MOL0     C81595   4.671   6.437   2.063 -0.0015 -0.5219  0.6377
  619MOL0     C81596   4.533   6.439   2.021 -0.5635 -0.2955 -0.6270
  619MOL0     C81597   4.452   6.379   2.142  0.7610 -0.6320  0.6446
  619MOL0     C81598   4.308   6.367   2.097  0.5884  0.8428  0.0466
  619MOL0     C81599   4.214   6.386   2.213 -0.0130 -0.0637 -0.4744
  619MOL0     O81600   4.077   6.379   2.161  0.4828 -0.0914  0.0618
  619MOL0     C81601   3.984   6.280   2.184 -0.1968  0.2809 -0.8818
  619MOL0     C81602   4.024   6.147   2.217  1.2266  0.0864 -0.7052
  619MOL0     C81603   3.914   6.064   2.254 -1.1515 -0.6232 -1.1454
  619MOL0     C81604   3.775   6.099   2.246 -0.4617 -0.6453  0.3795
  619MOL0     C81605   3.683   5.993   2.289  0.4011  0.1721 -0.3880
  619MOL0     O81606   3.737   5.881   2.344 -0.1001  0.7309 -0.9802
  619MOL0     C81607   3.652   5.787   2.386 -1.0650  0.3420 -0.1862
  619MOL0     C81608   3.690   5.661   2.345 -0.5117  0.8810 -0.1117
  619MOL0     C81609   3.619   5.551   2.398 -0.0525  1.0181 -0.2597
  619MOL0     C81610   3.507   5.576   2.484 -0.2911  0.3393 -1.0167
  619MOL0     O81611   3.436   5.471   2.532 -0.1351 -0.3421  0.2811
  619MOL0     C81612   3.391   5.375   2.434  0.2672  0.7492  0.4569
  619MOL0     C81613   3.263   5.422   2.373  0.4119 -0.5806  0.2645
  619MOL0     C81614   3.139   5.431   2.464  0.0368 -0.0308  0.4535
  619MOL0     C81615   3.033   5.542   2.420 -1.4843 -0.2420  0.3543
  619MOL0     C81616   2.914   5.549   2.513 -0.6323 -0.4415  1.7081
  619MOL0     C81617   2.824   5.667   2.462  0.1965  0.9470 -0.4652
  619MOL0     C81618   2.692   5.670   2.540  0.5490 -0.2416 -0.7275
  619MOL0     C81619   2.612   5.543   2.555  0.1036  0.0329  0.0886
  619MOL0    Cl81620   2.446   5.578   2.596 -0.0417  0.0588 -0.0008
  619MOL0     C81621   3.464   5.709   2.515  0.1778 -0.7618 -0.1631
  619MOL0     C81622   3.541   5.817   2.466  0.6650 -0.5282 -0.1439
  619MOL0     O81623   3.566   6.003   2.256 -1.0998  0.5203  0.1044
  619MOL0     C81624   3.740   6.225   2.192  0.1534 -0.5262 -1.3074
  619MOL0     C81625   3.843   6.318   2.178 -1.3092 -0.1315  0.5204
  619MOL0     N81626   4.707   6.470   2.193 -0.3517  0.3438 -0.7765
  619MOL0     N81627   4.831   6.446   2.206  0.2551 -0.7419 -0.9426
  619MOL0     C81628   6.106   6.786   2.038 -0.3857  0.2864  0.0367
  619MOL0     C81629   6.223   6.869   2.013 -0.2317 -0.4561 -0.0522
  619MOL0     C81630   6.527   6.988   1.835  0.1021 -0.1471  0.3498
  619MOL0     C81631   6.645   6.924   1.869 -0.6879 -0.3557  0.5827
  619MOL0     C81632   6.744   6.892   1.774 -0.3729 -0.2582  0.3727
  619MOL0     C81633   6.731   6.928   1.642  0.3375 -0.1956  0.0175
  619MOL0     O81634   6.833   6.906   1.556  0.5922  0.3726 -0.6708
  619MOL0     C81635   6.812   6.847   1.428 -0.5561  0.6485 -0.1012
  619MOL0     C81636   6.770   6.698   1.450 -0.1560  0.4796  0.1014
  619MOL0     C81637   6.879   6.613   1.510  0.1499  0.5033 -0.3363
  619MOL0     C81638   6.997   6.592   1.417  0.9739 -0.5025 -0.7887
  619MOL0     C81639   7.111   6.535   1.485  0.4758 -0.1370 -0.4013
  619MOL0     C81640   7.183   6.480   1.563  0.1120  0.3199  0.3304
  619MOL0     C81641   6.607   6.983   1.603  1.2456  0.2149 -0.4744
  619MOL0     C81642   6.508   7.017   1.702 -0.3851 -0.5442 -0.2755
  619MOL0     H81643   6.089   7.097   1.795 -1.1513 -1.3041 -1.1542
  619MOL0     H81644   5.882   6.944   1.856  1.3625  2.2911 -0.6928
  619MOL0     H81645   5.912   6.579   2.105  2.4706  0.0779  0.0773
  619MOL0     H81646   5.961   6.569   1.934  2.4052  0.7274  0.7076
  619MOL0     H81647   5.758   6.420   2.021  0.3487 -0.2541 -0.2883
  619MOL0     H81648   5.725   6.504   1.871 -1.2224  2.4699 -0.2187
  619MOL0     H81649   5.603   6.672   1.973  0.9858 -0.7497 -0.5929
  619MOL0     H81650   5.645   6.639   2.136  1.3403 -1.5251  0.5939
  619MOL0     H81651   5.499   6.437   1.961 -2.3405 -2.6977  1.1566
  619MOL0     H81652   5.512   6.427   2.130  1.4217  0.2446 -1.2017
  619MOL0     H81653   5.364   6.599   1.945  0.0936 -1.5922  0.1465
  619MOL0     H81654   5.374   6.659   2.115  0.2299  2.5754 -2.3138
  619MOL0     H81655   5.268   6.455   2.188  0.2021  2.3171  0.0208
  619MOL0     H81656   5.285   6.377   2.040  0.9758  0.3081  0.6529
  619MOL0     H81657   5.072   6.589   2.130  2.4521  0.3232  0.8048
  619MOL0     H81658   5.104   6.548   1.953  0.4846  1.8590 -0.0328
  619MOL0     H81659   5.069   6.333   2.156 -0.4341 -1.5889 -0.6764
  619MOL0     H81660   5.036   6.329   1.980 -2.3742  0.5856 -1.8277
  619MOL0     H81661   4.798   6.392   1.887  2.1222  1.8807 -0.9959
  619MOL0     H81662   4.499   6.383   1.933 -1.7572  1.7852 -1.5597
  619MOL0     H81663   4.502   6.543   2.012  0.7189  0.0605 -1.2151
  619MOL0     H81664   4.459   6.454   2.221  0.3435  0.5589 -0.4055
  619MOL0     H81665   4.482   6.278   2.174  0.0057 -1.1761 -0.3050
  619MOL0     H81666   4.288   6.439   2.017 -0.8672 -0.9904 -1.3319
  619MOL0     H81667   4.287   6.265   2.062 -0.4789  0.9597  0.3360
  619MOL0     H81668   4.224   6.486   2.257 -0.1823 -0.3797  0.3154
  619MOL0     H81669   4.229   6.311   2.292 -1.4397  1.5005  1.3957
  619MOL0     H81670   4.125   6.109   2.222  1.5840  1.1563  1.6557
  619MOL0     H81671   3.951   5.967   2.286 -0.1510  0.6337  1.7910
  619MOL0     H81672   3.779   5.642   2.286  0.8112  1.6988  1.5448
  619MOL0     H81673   3.653   5.453   2.368  0.6078  1.2125 -0.1676
  619MOL0     H81674   3.380   5.276   2.480 -0.5951  1.5354  2.0632
  619MOL0     H81675   3.459   5.375   2.349 -0.8909  3.6510 -0.5750
  619MOL0     H81676   3.241   5.362   2.284 -1.7022 -1.4602  1.3004
  619MOL0     H81677   3.286   5.523   2.338  3.4160 -1.3197 -0.0996
  619MOL0     H81678   3.165   5.456   2.567  2.5331  1.0767 -0.3584
  619MOL0     H81679   3.083   5.337   2.463 -0.2564  0.1408  0.6354
  619MOL0     H81680   3.083   5.639   2.421  1.0061 -1.2939 -3.0842
  619MOL0     H81681   3.003   5.517   2.318 -0.1130 -3.3865  0.5939
  619MOL0     H81682   2.955   5.565   2.613  1.3510 -1.2302  1.0614
  619MOL0     H81683   2.855   5.457   2.512 -0.7732 -0.4277 -1.6750
  619MOL0     H81684   2.822   5.652   2.354  2.1109  0.5718 -0.4838
  619MOL0     H81685   2.877   5.762   2.474 -2.7926  2.7191 -0.3476
  619MOL0     H81686   2.715   5.699   2.643 -1.5280 -0.4217 -0.1672
  619MOL0     H81687   2.620   5.742   2.499 -2.0785 -1.9033  0.7271
  619MOL0     H81688   2.662   5.487   2.635  4.6659 -1.1167 -3.1616
  619MOL0     H81689   2.614   5.485   2.462 -0.4246  1.1403 -0.6306
  619MOL0     H81690   3.381   5.729   2.582  1.4562  0.7495  1.0624
  619MOL0     H81691   3.518   5.915   2.505  1.2375 -0.6660  0.5477
  619MOL0     H81692   3.636   6.256   2.187  0.3210  0.7254  1.3045
  619MOL0     H81693   3.808   6.419   2.161 -0.0074  0.1601 -0.6390
  619MOL0     H81694   6.114   6.703   2.108 -1.3172 -0.0652 -0.2618
  619MOL0     H81695   6.311   6.844   2.072  1.9826  1.6453 -2.2195
  619MOL0     H81696   6.671   6.909   1.973  0.3977 -0.0552  0.3644
  619MOL0     H81697   6.837   6.850   1.813 -0.1840 -0.0231  0.1780
  619MOL0     H81698   6.900   6.849   1.363 -1.1388  0.4289 -0.9207
  619MOL0     H81699   6.735   6.900   1.372  0.0899  3.4622  1.4968
  619MOL0     H81700   6.691   6.697   1.526  1.5338 -0.3901  1.9578
  619MOL0     H81701   6.743   6.656   1.352  0.9022 -0.8823  0.3573
  619MOL0     H81702   6.833   6.517   1.534 -1.1729  0.7740 -1.6065
  619MOL0     H81703   6.920   6.651   1.604 -4.4936  0.5638  1.9652
  619MOL0     H81704   6.967   6.525   1.335  2.4812 -1.3820 -0.6478
  619MOL0     H81705   7.024   6.690   1.375 -0.8593  0.0570 -0.7489
  619MOL0     H81706   7.237   6.438   1.645 -1.3884  0.0341  1.2045
  619MOL0     H81707   6.583   7.004   1.499  0.3245  0.3034 -0.2592
  619MOL0     H81708   6.419   7.065   1.665  0.8962  3.1384  0.9703
  620MOL0     O81709  10.933   4.829   4.461 -0.7412  0.1576 -0.6174
  620MOL0     C81710  10.870   4.745   4.400 -1.3957  1.1555 -0.1757
  620MOL0     O81711  10.921   4.641   4.328  0.1687 -1.2919 -0.2551
  620MOL0     C81712  11.054   4.626   4.326 -0.0314 -0.2804 -0.0805
  620MOL0     C81713  11.094   4.495   4.324  0.5324 -0.3743 -0.3982
  620MOL0     C81714  11.225   4.459   4.324 -1.1660  0.9967  1.0370
  620MOL0     C81715  11.329   4.548   4.334  0.2160  0.0069  1.2176
  620MOL0     O81716  11.456   4.497   4.340  0.3015  0.1435 -0.5676
  620MOL0     C81717  11.570   4.590   4.331 -0.5781  0.4652  0.6531
  620MOL0     C81718  11.680   4.508   4.385 -0.3461  0.4112 -0.6664
  620MOL0     C81719  11.815   4.557   4.340  0.4676  0.8120  1.0155
  620MOL0     C81720  11.921   4.434   4.352  0.0671  0.4474  0.6266
  620MOL0     C81721  12.067   4.483   4.375  0.7571 -0.4637 -0.1724
  620MOL0     C81722  12.105   4.602   4.290 -0.7574 -1.4075  0.9268
  620MOL0     C81723  12.257   4.633   4.291 -0.6142 -0.0887  0.3421
  620MOL0     C81724  12.306   4.704   4.427  0.6122  0.0702 -0.0010
  620MOL0     N81725  12.447   4.746   4.410  0.8404 -0.2189 -0.4844
  620MOL0     C81726  12.560   4.670   4.435  0.6980  0.1009  1.3142
  620MOL0     C81727  12.665   4.734   4.388 -0.6784  0.3388  0.5536
  620MOL0     C81728  12.809   4.689   4.395  0.2953  0.0511 -0.5497
  620MOL0     C81729  12.848   4.564   4.311  0.1395 -1.1841 -0.2594
  620MOL0     C81730  12.822   4.568   4.158 -0.3821  0.0230  0.3858
  620MOL0     C81731  12.882   4.435   4.113  0.4836  0.4987  0.0868
  620MOL0     O81732  12.800   4.322   4.167 -0.2577 -0.8474 -0.1546
  620MOL0     C81733  12.668   4.315   4.123  0.4768  0.6481 -1.3398
  620MOL0     C81734  12.614   4.378   4.008 -0.2121  1.0826 -0.6376
  620MOL0     C81735  12.484   4.350   3.973 -0.8737  1.0862 -0.0014
  620MOL0     C81736  12.396   4.284   4.061 -1.0509 -0.3982 -1.1107
  620MOL0     C81737  12.253   4.275   4.038  0.0591 -0.2680 -0.4881
  620MOL0     O81738  12.163   4.236   4.131 -0.1336 -1.0936  0.3789
  620MOL0     C81739  12.036   4.194   4.101 -0.9484  0.0910  0.2294
  620MOL0     C81740  11.988   4.094   4.183 -0.0130  0.0835 -0.0802
  620MOL0     C81741  11.869   4.031   4.150  1.3259  1.1020 -0.3568
  620MOL0     C81742  11.780   4.081   4.053  0.1467 -0.1776 -0.1432
  620MOL0     O81743  11.656   4.018   4.048 -0.2121  0.5769 -0.1040
  620MOL0     C81744  11.550   4.094   3.986  0.2409  0.4669  0.1179
  620MOL0     C81745  11.417   4.015   3.993  0.4618 -0.5501  0.7429
  620MOL0     C81746  11.362   4.008   4.142 -0.4223  0.0635 -0.0261
  620MOL0     C81747  11.213   3.972   4.149 -0.3168  0.1049  0.3959
  620MOL0     C81748  11.122   4.085   4.112  0.0871  0.2075  0.5400
  620MOL0     C81749  10.971   4.055   4.121  0.0918 -0.1118 -1.1395
  620MOL0     C81750  10.930   4.010   4.263  0.2222  1.0474 -0.4040
  620MOL0     C81751  10.778   4.021   4.285 -0.2483  0.1741  0.8174
  620MOL0    Cl81752  10.735   4.190   4.290 -0.2438 -0.5331 -0.1296
  620MOL0     C81753  11.818   4.195   3.980  0.2275  0.2700 -0.1996
  620MOL0     C81754  11.945   4.247   4.006  0.4234  0.0917  0.7545
  620MOL0     O81755  12.221   4.288   3.920 -0.5511 -0.7293  0.0381
  620MOL0     C81756  12.448   4.244   4.188  1.0505  0.3617  0.3365
  620MOL0     C81757  12.585   4.246   4.212 -0.4000  0.0116 -0.0317
  620MOL0     N81758  12.621   4.847   4.332  0.0491 -0.2799  0.1543
  620MOL0     N81759  12.495   4.852   4.336  0.1743 -0.6389 -0.6711
  620MOL0     C81760  11.296   4.681   4.325 -0.1136  0.6709 -0.0121
  620MOL0     C81761  11.156   4.725   4.313  0.8352  0.0369  0.0462
  620MOL0     C81762  10.736   4.743   4.424  0.6213 -0.4618 -0.4838
  620MOL0     C81763  10.678   4.862   4.480 -0.0578  1.3174  0.9619
  620MOL0     C81764  10.540   4.857   4.508  0.2368  0.0907  0.5443
  620MOL0     C81765  10.457   4.751   4.475  0.7035 -0.1283 -0.0004
  620MOL0     O81766  10.322   4.785   4.482  0.0073  0.0868 -0.3806
  620MOL0     C81767  10.229   4.684   4.431  0.5652  1.0017 -0.1521
  620MOL0     C81768  10.087   4.738   4.458  0.0116  0.1580 -0.3403
  620MOL0     C81769  10.064   4.875   4.388 -0.1940 -0.2799 -0.6659
  620MOL0     C81770  10.080   4.867   4.229 -0.9465  1.1305  0.0006
  620MOL0     C81771   9.996   4.762   4.160  0.3802  0.4938  1.0884
  620MOL0     C81772   9.934   4.691   4.084 -0.3900  0.3767 -1.3081
  620MOL0     C81773  10.505   4.637   4.415 -0.8437  0.4113  0.4271
  620MOL0     C81774  10.648   4.635   4.400 -0.0535  0.6011  0.4583
  620MOL0     H81775  11.016   4.419   4.322  0.9279 -1.0494  3.1263
  620MOL0     H81776  11.242   4.354   4.341  3.2210  0.9617 -1.9383
  620MOL0     H81777  11.553   4.685   4.382  1.8280  2.4036 -1.9262
  620MOL0     H81778  11.597   4.614   4.228  0.1827 -2.5888  0.0358
  620MOL0     H81779  11.658   4.402   4.369 -0.2024 -0.1395  2.2000
  620MOL0     H81780  11.667   4.516   4.493 -0.9372 -1.8353 -0.5178
  620MOL0     H81781  11.854   4.637   4.404  3.2088  1.3469 -1.1202
  620MOL0     H81782  11.827   4.597   4.239  1.9616  1.4729  1.4242
  620MOL0     H81783  11.896   4.363   4.431  0.5796 -0.0354  0.3648
  620MOL0     H81784  11.910   4.375   4.260 -1.8786 -3.4969  3.1563
  620MOL0     H81785  12.135   4.400   4.355  0.9009 -0.2914 -0.4018
  620MOL0     H81786  12.077   4.514   4.480 -0.4467 -0.4389 -0.0416
  620MOL0     H81787  12.050   4.695   4.308 -2.1543 -2.0161 -0.0208
  620MOL0     H81788  12.076   4.567   4.190  1.7683 -4.8715  1.2068
  620MOL0     H81789  12.311   4.541   4.265  1.6702  1.6474 -1.5422
  620MOL0     H81790  12.297   4.693   4.208 -0.8665 -0.8395 -0.3452
  620MOL0     H81791  12.298   4.640   4.516  0.7965 -0.2152 -0.1899
  620MOL0     H81792  12.243   4.790   4.454 -1.4442 -2.2057  3.1920
  620MOL0     H81793  12.557   4.575   4.488  4.7348 -1.4245 -0.7860
  620MOL0     H81794  12.827   4.674   4.502 -3.5764  0.1596  0.2732
  620MOL0     H81795  12.867   4.779   4.372  1.2417  0.2538  2.2755
  620MOL0     H81796  12.787   4.480   4.345  0.6022 -1.4818 -0.1562
  620MOL0     H81797  12.951   4.542   4.340  0.0211 -0.1130  1.0649
  620MOL0     H81798  12.717   4.574   4.128 -0.3078  2.2448  0.3355
  620MOL0     H81799  12.874   4.643   4.098  0.7075 -1.2011 -0.2490
  620MOL0     H81800  12.987   4.426   4.139  0.1360 -1.9678  0.9623
  620MOL0     H81801  12.873   4.429   4.004 -0.1171 -1.9160  0.2062
  620MOL0     H81802  12.665   4.444   3.938 -1.1160  0.0835 -2.3063
  620MOL0     H81803  12.447   4.374   3.873  1.4065 -0.6638 -1.3762
  620MOL0     H81804  12.064   4.064   4.254  0.6388  1.4093 -0.1972
  620MOL0     H81805  11.811   3.954   4.201 -1.4849  2.7330 -0.8801
  620MOL0     H81806  11.576   4.118   3.883 -0.3523  2.0938  0.3194
  620MOL0     H81807  11.544   4.191   4.036 -0.7372  0.3863  0.1818
  620MOL0     H81808  11.434   3.913   3.957  1.6131 -0.2955  0.5183
  620MOL0     H81809  11.339   4.060   3.930  0.9846  0.5931  0.8879
  620MOL0     H81810  11.371   4.105   4.192 -1.2774 -1.8028  4.2023
  620MOL0     H81811  11.420   3.941   4.206  0.5003  1.9341  1.1842
  620MOL0     H81812  11.188   3.886   4.087  0.4959  1.0120 -1.2508
  620MOL0     H81813  11.178   3.954   4.251  0.1895 -2.2857  0.1988
  620MOL0     H81814  11.135   4.129   4.012 -2.8089 -1.8636 -0.8813
  620MOL0     H81815  11.151   4.166   4.180 -0.2416  1.2095 -0.4857
  620MOL0     H81816  10.930   3.981   4.051  2.8613 -0.4277 -2.5705
  620MOL0     H81817  10.933   4.153   4.092  1.9789  0.8084 -0.6586
  620MOL0     H81818  10.961   3.906   4.272  1.4034  1.1839 -2.2899
  620MOL0     H81819  10.983   4.068   4.339  0.4340  0.5224 -0.1489
  620MOL0     H81820  10.745   3.974   4.378 -0.0064  0.4776  1.0583
  620MOL0     H81821  10.727   3.979   4.198 -0.4306 -2.4808  2.0929
  620MOL0     H81822  11.747   4.240   3.912 -1.7763 -0.3589  1.3745
  620MOL0     H81823  11.978   4.330   3.944 -1.8473  0.8764  0.5147
  620MOL0     H81824  12.379   4.199   4.259 -1.2590  1.4123 -1.1363
  620MOL0     H81825  12.638   4.201   4.295 -0.8294  2.1303  1.4630
  620MOL0     H81826  11.369   4.761   4.315  2.6147 -1.3673  2.1656
  620MOL0     H81827  11.138   4.831   4.300 -0.0693 -0.2938 -1.6333
  620MOL0     H81828  10.740   4.948   4.501  0.2366  1.3057  0.1667
  620MOL0     H81829  10.503   4.946   4.557  2.9628  0.3968  2.2079
  620MOL0     H81830  10.243   4.598   4.497 -0.4930  0.5931 -0.4352
  620MOL0     H81831  10.238   4.674   4.323  0.7975  1.1627 -0.1490
  620MOL0     H81832  10.015   4.670   4.412 -1.1771  1.5252 -0.5967
  620MOL0     H81833  10.074   4.738   4.567  4.4236  2.1700  0.4038
  620MOL0     H81834  10.135   4.950   4.423 -2.1473  0.9465  0.9040
  620MOL0     H81835   9.965   4.913   4.412  0.5414  2.5397 -1.7508
  620MOL0     H81836  10.060   4.963   4.180  0.1920  1.8937  0.9769
  620MOL0     H81837  10.186   4.848   4.207 -0.2596  1.8580  2.3531
  620MOL0     H81838   9.890   4.626   4.012 -0.6343 -1.4807  0.4038
  620MOL0     H81839  10.447   4.550   4.388  0.9361 -1.0352  1.0277
  620MOL0     H81840  10.693   4.544   4.360  1.4657  0.7685  1.7134
  621MOL0     O81841   4.088  11.335   9.923  0.1662 -0.5533  0.1703
  621MOL0     C81842   4.185  11.253   9.924 -0.4481 -0.0806 -0.2178
  621MOL0     O81843   4.168  11.118   9.942  0.2510 -0.3285  0.8737
  621MOL0     C81844   4.040  11.070   9.917  0.0859  0.0752 -0.3769
  621MOL0     C81845   3.977  11.007  10.024  0.3753  0.1923 -0.1309
  621MOL0     C81846   3.866  10.931   9.998  0.2902 -0.6058 -1.0711
  621MOL0     C81847   3.793  10.938   9.877 -0.7166  0.5189  0.5678
  621MOL0     O81848   3.666  10.883   9.855 -0.2484 -0.1102 -0.1085
  621MOL0     C81849   3.663  10.787   9.747  0.0560  0.3320  0.2513
  621MOL0     C81850   3.519  10.714   9.737 -0.3130 -0.0482  1.0083
  621MOL0     C81851   3.491  10.638   9.603 -0.1748 -0.2080  0.2262
  621MOL0     C81852   3.344  10.620   9.595  0.0800  0.1116 -0.7750
  621MOL0     C81853   3.253  10.731   9.545  0.0371 -0.0888 -0.0155
  621MOL0     C81854   3.109  10.696   9.520  0.5999 -0.7893 -0.2839
  621MOL0     C81855   3.028  10.686   9.645 -0.7685 -0.0183  0.2087
  621MOL0     C81856   2.895  10.632   9.618 -0.5646  0.1173  0.7479
  621MOL0     N81857   2.847  10.637   9.480 -0.4426 -0.0677 -0.2099
  621MOL0     C81858   2.801  10.758   9.424  0.0193  1.0390 -0.4899
  621MOL0     C81859   2.770  10.705   9.298 -0.3384 -0.4453  0.2647
  621MOL0     C81860   2.723  10.803   9.188 -0.5246 -0.0407 -0.3233
  621MOL0     C81861   2.582  10.850   9.200 -0.1963 -1.0211  0.8770
  621MOL0     C81862   2.484  10.740   9.181  0.4337 -0.1199  0.3605
  621MOL0     C81863   2.336  10.786   9.204 -0.2971  0.3886 -0.2376
  621MOL0     O81864   2.276  10.858   9.095 -0.3238 -0.2470  0.3621
  621MOL0     C81865   2.169  10.942   9.132  0.8019  0.2840 -0.1053
  621MOL0     C81866   2.142  11.038   9.034  0.8839 -0.0348 -0.4984
  621MOL0     C81867   2.026  11.112   9.038 -0.0160  0.1502 -0.6224
  621MOL0     C81868   1.933  11.092   9.143 -0.2732  0.0351 -0.2267
  621MOL0     C81869   1.794  11.163   9.145  0.1744  0.4296 -0.2791
  621MOL0     O81870   1.711  11.147   9.253 -0.1269  0.4321 -0.1303
  621MOL0     C81871   1.578  11.183   9.243 -0.5384  0.6039  0.0074
  621MOL0     C81872   1.508  11.205   9.364  0.1771  0.1096 -0.5704
  621MOL0     C81873   1.375  11.253   9.358  0.3323 -0.9533  0.3616
  621MOL0     C81874   1.308  11.254   9.231  0.0373  0.1157  0.2267
  621MOL0     O81875   1.177  11.291   9.223 -0.0117  0.2257 -0.3282
  621MOL0     C81876   1.084  11.217   9.134  0.4433 -0.0662  0.6432
  621MOL0     C81877   1.099  11.054   9.134 -0.5374 -0.2822  0.2963
  621MOL0     C81878   1.032  11.002   9.003  0.3437  1.3224 -0.0371
  621MOL0     C81879   1.114  11.018   8.873 -0.7561 -0.0793  0.5294
  621MOL0     C81880   1.060  10.942   8.749  0.0696 -0.5209  0.3356
  621MOL0     C81881   1.105  10.793   8.741  1.1751 -0.4500  0.9122
  621MOL0     C81882   1.257  10.792   8.696 -0.3063 -0.6629 -0.6458
  621MOL0     C81883   1.330  10.665   8.744 -0.4480  0.9554  0.3011
  621MOL0    Cl81884   1.328  10.634   8.921  0.0641 -0.1506 -0.4601
  621MOL0     C81885   1.380  11.212   9.119 -0.2858  0.0037  0.4173
  621MOL0     C81886   1.514  11.180   9.123  0.7423  0.0952  0.1519
  621MOL0     O81887   1.772  11.233   9.053 -0.1320  0.1232 -0.1147
  621MOL0     C81888   1.968  11.004   9.249  0.4124 -0.7028  1.1904
  621MOL0     C81889   2.092  10.934   9.246  0.0323 -0.7399  0.6762
  621MOL0     N81890   2.774  10.570   9.296 -0.0892 -1.1359  0.4574
  621MOL0     N81891   2.825  10.526   9.409  0.0495 -0.2718  0.1029
  621MOL0     C81892   3.856  11.004   9.771 -0.6711  0.3810 -0.0174
  621MOL0     C81893   3.979  11.071   9.786 -0.3988  0.5427 -0.3361
  621MOL0     C81894   4.325  11.298   9.923 -0.4359  0.0502 -0.0697
  621MOL0     C81895   4.435  11.204   9.926 -0.2368 -0.3277 -1.0799
  621MOL0     C81896   4.566  11.244   9.920  0.1692  0.4700 -0.4653
  621MOL0     C81897   4.602  11.377   9.907  0.5348  0.3648  0.0524
  621MOL0     O81898   4.732  11.420   9.910  0.1707 -0.5240  0.9520
  621MOL0     C81899   4.820  11.339   9.831 -0.7755  0.0099  0.4254
  621MOL0     C81900   4.950  11.414   9.776  0.3584 -0.2507 -0.4336
  621MOL0     C81901   5.040  11.327   9.690 -0.2210 -0.5866  0.0594
  621MOL0     C81902   5.151  11.416   9.634  0.5465 -0.9586  1.0502
  621MOL0     C81903   5.222  11.353   9.530 -0.4158 -0.6054  0.1704
  621MOL0     C81904   5.275  11.282   9.448 -0.9283  0.5478 -0.0994
  621MOL0     C81905   4.496  11.470   9.915 -0.4024  0.1272 -0.8419
  621MOL0     C81906   4.366  11.430   9.918  0.1851 -0.4911  0.2372
  621MOL0     H81907   4.031  11.002  10.118  1.2022 -2.2775 -0.6730
  621MOL0     H81908   3.827  10.886  10.089  2.6056 -1.7304 -0.5718
  621MOL0     H81909   3.737  10.707   9.753  0.9334  0.9713 -1.5163
  621MOL0     H81910   3.685  10.834   9.651 -2.8190 -0.1252 -0.7120
  621MOL0     H81911   3.449  10.797   9.721  0.3420  0.2350 -0.5481
  621MOL0     H81912   3.503  10.647   9.822  3.5388 -3.1077 -0.3737
  621MOL0     H81913   3.531  10.536   9.604 -0.5697 -0.4524 -2.1209
  621MOL0     H81914   3.536  10.698   9.524  4.3350  0.4305  2.9572
  621MOL0     H81915   3.325  10.547   9.515  0.0605  0.7429 -1.3613
  621MOL0     H81916   3.312  10.585   9.693  0.1982 -2.1678 -1.4853
  621MOL0     H81917   3.286  10.743   9.441 -2.4040 -0.5695 -0.9176
  621MOL0     H81918   3.269  10.827   9.595 -0.4389 -0.7540  1.4799
  621MOL0     H81919   3.112  10.604   9.462  3.6103  0.0123 -1.6000
  621MOL0     H81920   3.059  10.775   9.463 -0.0395 -0.1184  1.1416
  621MOL0     H81921   3.081  10.621   9.716  0.7952 -0.4101 -1.2506
  621MOL0     H81922   3.021  10.786   9.689  0.2085  0.6296 -1.0226
  621MOL0     H81923   2.824  10.696   9.672  1.6672  2.1541  1.4533
  621MOL0     H81924   2.888  10.530   9.657  0.9917 -0.9822 -1.6448
  621MOL0     H81925   2.800  10.857   9.468  4.6318  1.4283 -0.8149
  621MOL0     H81926   2.725  10.758   9.088 -2.2193 -0.4783 -0.1901
  621MOL0     H81927   2.793  10.887   9.196 -2.9642  2.1185 -0.0836
  621MOL0     H81928   2.555  10.922   9.122  0.5915 -1.4143  0.2142
  621MOL0     H81929   2.575  10.881   9.304 -2.5560  0.4617  0.3567
  621MOL0     H81930   2.485  10.689   9.085  2.4839 -1.8815  1.2462
  621MOL0     H81931   2.505  10.667   9.259  1.7028  0.0774  0.2306
  621MOL0     H81932   2.326  10.842   9.297  0.6193  0.3082 -0.0777
  621MOL0     H81933   2.275  10.696   9.213  0.8331 -0.4868 -1.0199
  621MOL0     H81934   2.198  11.038   8.941  1.9090 -1.9102  0.0516
  621MOL0     H81935   1.996  11.176   8.955 -0.6355  0.0263 -0.5021
  621MOL0     H81936   1.567  11.183   9.453 -0.2152 -0.5844 -0.4738
  621MOL0     H81937   1.327  11.292   9.447 -1.8956 -0.6985 -0.8635
  621MOL0     H81938   1.093  11.252   9.031  0.1721 -0.8726  0.3397
  621MOL0     H81939   0.987  11.250   9.171  0.5100  2.2067 -1.0480
  621MOL0     H81940   1.066  11.012   9.229 -3.9429  1.0190 -0.1740
  621MOL0     H81941   1.203  11.023   9.123 -0.0996 -0.9779  4.7632
  621MOL0     H81942   0.934  11.049   8.991  1.2272  3.3955  0.4349
  621MOL0     H81943   1.024  10.893   9.007  0.0576  1.2442 -1.7929
  621MOL0     H81944   1.109  11.126   8.857  0.5797  0.3648  2.7002
  621MOL0     H81945   1.220  11.005   8.895 -0.5479  0.3380 -0.1879
  621MOL0     H81946   1.103  10.996   8.664  1.3752 -1.1913  0.5510
  621MOL0     H81947   0.951  10.945   8.734 -0.3419  0.7442  3.0321
  621MOL0     H81948   1.036  10.738   8.675  1.1927 -1.1531  1.4599
  621MOL0     H81949   1.096  10.749   8.841  0.8202 -4.5272 -0.6875
  621MOL0     H81950   1.269  10.806   8.589  0.5350  0.9219 -0.3722
  621MOL0     H81951   1.310  10.872   8.749 -0.2210 -0.5832 -0.8535
  621MOL0     H81952   1.435  10.679   8.717 -0.1399  0.1392  1.0412
  621MOL0     H81953   1.283  10.589   8.680 -0.0991  0.7144  0.3306
  621MOL0     H81954   1.327  11.212   9.024 -0.9443 -1.3003  0.7605
  621MOL0     H81955   1.563  11.138   9.035 -2.2304  1.3548 -2.2828
  621MOL0     H81956   1.899  10.982   9.330 -1.7463  0.4533 -0.2466
  621MOL0     H81957   2.106  10.859   9.324 -4.1226 -0.9337  1.4637
  621MOL0     H81958   3.791  11.020   9.685 -0.0254  1.1682 -0.3711
  621MOL0     H81959   4.024  11.127   9.704 -0.7189  2.7949  0.9561
  621MOL0     H81960   4.428  11.096   9.929  2.9490 -0.6890 -2.0132
  621MOL0     H81961   4.628  11.156   9.930 -1.0549 -0.4967 -1.0797
  621MOL0     H81962   4.761  11.299   9.749  0.8278 -0.1338 -0.6961
  621MOL0     H81963   4.864  11.259   9.891 -1.2578 -1.9561 -1.7313
  621MOL0     H81964   4.914  11.499   9.717 -0.3005  0.4174  0.8652
  621MOL0     H81965   5.007  11.452   9.862 -2.3847  2.0663  0.5303
  621MOL0     H81966   4.976  11.287   9.611 -0.0741  1.0575 -0.9181
  621MOL0     H81967   5.087  11.241   9.740  1.1058  1.0034  1.7030
  621MOL0     H81968   5.097  11.501   9.591 -0.1199 -1.1493  1.5038
  621MOL0     H81969   5.223  11.448   9.709  1.6541 -1.5557  0.2856
  621MOL0     H81970   5.312  11.227   9.364 -1.2591 -1.3714  0.9373
  621MOL0     H81971   4.516  11.576   9.916 -1.2544  0.3207 -1.8067
  621MOL0     H81972   4.288  11.506   9.915 -0.1718 -0.8265  0.7608
  622MOL0     O81973   6.176   9.694   6.695  0.0388  0.2585 -0.3081
  622MOL0     C81974   6.138   9.812   6.694 -0.6879  0.4792 -0.2372
  622MOL0     O81975   6.218   9.924   6.713  0.0410  0.6070  0.7541
  622MOL0     C81976   6.343   9.923   6.762 -0.4346 -0.3578 -0.4268
  622MOL0     C81977   6.384   9.826   6.857  0.0333  0.0972 -0.4806
  622MOL0     C81978   6.514   9.813   6.895  1.0474 -0.0813 -1.5220
  622MOL0     C81979   6.601   9.910   6.871  0.8289 -0.1390  0.4321
  622MOL0     O81980   6.734   9.894   6.906  0.7643 -1.0162 -0.0889
  622MOL0     C81981   6.791  10.003   6.979  0.2620 -0.2798 -0.3378
  622MOL0     C81982   6.937   9.972   7.002  0.0674 -0.0454  1.0279
  622MOL0     C81983   7.016  10.065   6.911 -1.0642 -1.1597 -1.1201
  622MOL0     C81984   7.167  10.051   6.935  0.5960  0.6688 -0.7366
  622MOL0     C81985   7.245  10.166   6.873  0.3032 -0.1647  0.3002
  622MOL0     C81986   7.281  10.154   6.720  0.0669 -0.3343 -0.8124
  622MOL0     C81987   7.413  10.225   6.686  1.0865 -0.3772 -0.3874
  622MOL0     C81988   7.474  10.177   6.554 -0.1357  0.4523  0.7174
  622MOL0     N81989   7.377  10.210   6.435 -1.0411  0.3575 -0.2833
  622MOL0     C81990   7.374  10.329   6.368  0.7851 -0.2475  0.1984
  622MOL0     C81991   7.282  10.309   6.269  0.6838  0.0885 -0.4910
  622MOL0     C81992   7.230  10.419   6.181 -0.6536  0.3569  0.8650
  622MOL0     C81993   7.291  10.390   6.047 -0.2988  0.2054  0.6093
  622MOL0     C81994   7.376  10.509   5.992  0.4295  0.5037  0.5111
  622MOL0     C81995   7.515  10.509   6.046 -0.6408 -0.0690 -0.1886
  622MOL0     O81996   7.592  10.586   5.950  0.1090 -0.2523 -0.3323
  622MOL0     C81997   7.623  10.552   5.819  0.0084 -0.2368 -0.5599
  622MOL0     C81998   7.568  10.444   5.741 -0.6472 -0.7790 -0.4547
  622MOL0     C81999   7.606  10.427   5.601 -0.3546  0.6615  0.1320
  622MOL0     C82000   7.705  10.520   5.548  0.2701 -0.8725  0.8577
  622MOL0     C82001   7.752  10.525   5.411  0.5639  0.5301  1.5475
  622MOL0     O82002   7.700  10.420   5.344  0.0678 -0.2975 -0.1185
  622MOL0     C82003   7.740  10.389   5.218  0.4716  0.1180 -0.1161
  622MOL0     C82004   7.634  10.358   5.135 -0.5058 -0.3376  0.2875
  622MOL0     C82005   7.660  10.328   4.996 -1.1983 -1.0153 -0.2269
  622MOL0     C82006   7.792  10.324   4.946  1.4782 -0.0804 -0.4132
  622MOL0     O82007   7.821  10.295   4.818  0.5253  0.1091 -1.1680
  622MOL0     C82008   7.742  10.360   4.715  0.5276 -0.5373 -0.3614
  622MOL0     C82009   7.821  10.339   4.584 -0.2513 -0.2038  0.9302
  622MOL0     C82010   7.960  10.395   4.570 -0.2169 -0.2044  0.1422
  622MOL0     C82011   7.981  10.536   4.625 -0.2768 -1.3420  0.1634
  622MOL0     C82012   8.129  10.570   4.638  0.7472 -0.0717  0.0669
  622MOL0     C82013   8.207  10.561   4.517  0.5027  0.5170 -0.5475
  622MOL0     C82014   8.349  10.612   4.548  0.8849 -0.2007  0.3991
  622MOL0     C82015   8.426  10.631   4.421  0.2880 -0.4384 -0.0336
  622MOL0    Cl82016   8.584  10.720   4.471 -0.0965 -0.6929 -0.3834
  622MOL0     C82017   7.894  10.339   5.032 -0.2586 -0.6479 -0.0200
  622MOL0     C82018   7.873  10.378   5.161 -0.2747  0.3994 -0.3289
  622MOL0     O82019   7.837  10.599   5.366 -0.1403  0.0809 -0.7753
  622MOL0     C82020   7.759  10.621   5.634  0.0945  0.0440  0.1820
  622MOL0     C82021   7.714  10.639   5.759  0.2906  0.5623 -1.0335
  622MOL0     N82022   7.240  10.178   6.268 -0.4336  0.3675 -0.5252
  622MOL0     N82023   7.294  10.115   6.368 -0.4340  0.8029  0.4846
  622MOL0     C82024   6.562  10.018   6.794 -0.4066 -0.3143 -0.0666
  622MOL0     C82025   6.435  10.025   6.734  0.0049 -0.8971 -0.2245
  622MOL0     C82026   5.999   9.840   6.668 -0.9254 -0.5352  0.5513
  622MOL0     C82027   5.945   9.965   6.699 -0.7366 -0.6883  0.3322
  622MOL0     C82028   5.816   9.993   6.681  0.6879  0.3547 -0.7784
  622MOL0     C82029   5.728   9.897   6.644  0.4248  0.1016  0.6525
  622MOL0     O82030   5.590   9.913   6.640 -0.8513 -0.3369 -0.2722
  622MOL0     C82031   5.543  10.052   6.626 -0.0059  0.1008 -0.3441
  622MOL0     C82032   5.492  10.101   6.761 -0.3724 -0.0901  0.6916
  622MOL0     C82033   5.368  10.028   6.817 -0.1799 -0.5688  0.4968
  622MOL0     C82034   5.358  10.053   6.970  0.3852  0.1295  0.8288
  622MOL0     C82035   5.279  10.176   6.999 -1.0771 -0.2376 -0.4634
  622MOL0     C82036   5.232  10.283   7.037 -0.1302  0.1594  0.4824
  622MOL0     C82037   5.774   9.776   6.600  0.0184 -0.2136  0.0857
  622MOL0     C82038   5.909   9.744   6.613 -0.8374 -0.7014 -1.0942
  622MOL0     H82039   6.320   9.740   6.875 -1.4226  1.1960 -0.3293
  622MOL0     H82040   6.546   9.728   6.956 -0.2647  1.7490  2.0324
  622MOL0     H82041   6.737  10.023   7.072  1.6112 -0.7925  0.5928
  622MOL0     H82042   6.785  10.099   6.928  1.1428  0.2348  0.4876
  622MOL0     H82043   6.948   9.865   6.986 -1.5965  0.1232 -1.8473
  622MOL0     H82044   6.962   9.985   7.108 -0.9253 -2.5884  1.6335
  622MOL0     H82045   6.990  10.169   6.933 -0.0836 -1.3494  1.2217
  622MOL0     H82046   6.984  10.045   6.808 -4.6102 -1.8541 -0.0220
  622MOL0     H82047   7.192  10.054   7.042 -1.1996  0.0406 -0.2588
  622MOL0     H82048   7.203   9.954   6.900 -0.7822 -0.6235  1.2308
  622MOL0     H82049   7.345  10.167   6.917  2.2768 -2.2261 -3.5263
  622MOL0     H82050   7.204  10.266   6.886  0.6416 -0.2194  2.0280
  622MOL0     H82051   7.208  10.187   6.645  0.3631 -4.4589 -3.2494
  622MOL0     H82052   7.300  10.048   6.699  1.9996 -0.2588  0.3253
  622MOL0     H82053   7.382  10.330   6.687 -0.4768 -0.8078  0.4217
  622MOL0     H82054   7.485  10.202   6.765 -3.0650 -0.3231  3.9039
  622MOL0     H82055   7.497  10.070   6.549 -0.2500  0.4538 -0.1431
  622MOL0     H82056   7.565  10.237   6.548  0.9588 -1.0862  1.4812
  622MOL0     H82057   7.419  10.421   6.404 -0.4215 -0.0441  1.2461
  622MOL0     H82058   7.265  10.519   6.209  1.2849  0.5021 -1.6569
  622MOL0     H82059   7.123  10.424   6.162 -0.3278  0.0340 -1.3366
  622MOL0     H82060   7.206  10.385   5.978 -1.2902 -1.2086  1.8946
  622MOL0     H82061   7.348  10.298   6.029  0.6247  1.1271 -1.6649
  622MOL0     H82062   7.392  10.502   5.884  2.1875 -0.7868  0.8153
  622MOL0     H82063   7.318  10.597   6.019  2.2388  2.0917 -0.5620
  622MOL0     H82064   7.564  10.411   6.045 -1.0011 -0.3136  1.7119
  622MOL0     H82065   7.518  10.560   6.143 -0.8265 -2.1479  0.9943
  622MOL0     H82066   7.514  10.366   5.793  2.9858 -1.3022  2.9891
  622MOL0     H82067   7.578  10.340   5.543 -1.1933  1.2742 -0.4070
  622MOL0     H82068   7.526  10.355   5.146 -1.3770 -2.2433 -5.2929
  622MOL0     H82069   7.576  10.313   4.929 -1.4478  0.3216 -0.2481
  622MOL0     H82070   7.740  10.468   4.733 -3.0035 -0.7092  1.2134
  622MOL0     H82071   7.645  10.309   4.727  0.3839 -0.1953 -0.0716
  622MOL0     H82072   7.755  10.384   4.509 -2.2680  0.6724  3.0865
  622MOL0     H82073   7.820  10.232   4.558  0.9750 -0.1451  0.5935
  622MOL0     H82074   7.987  10.394   4.464  0.8342 -1.4707  0.3923
  622MOL0     H82075   8.033  10.326   4.612  0.5632 -0.2380 -1.2101
  622MOL0     H82076   7.928  10.608   4.562  2.3049  1.3214  0.8125
  622MOL0     H82077   7.946  10.539   4.728  2.8778  2.7712  1.4011
  622MOL0     H82078   8.178  10.498   4.705  1.3954  0.7726  0.5213
  622MOL0     H82079   8.139  10.672   4.675 -1.7506 -0.9011  3.6113
  622MOL0     H82080   8.168  10.635   4.446 -0.8336 -0.0811 -0.4636
  622MOL0     H82081   8.209  10.461   4.474 -0.1664  0.5704 -0.7203
  622MOL0     H82082   8.350  10.706   4.604  0.6749 -0.2130  0.4222
  622MOL0     H82083   8.395  10.540   4.616  0.8257 -0.1799  0.4607
  622MOL0     H82084   8.373  10.705   4.359 -0.4608 -1.6444 -0.8677
  622MOL0     H82085   8.430  10.534   4.371 -0.9928 -0.2072 -0.6355
  622MOL0     H82086   7.997  10.344   4.997 -0.6044 -2.1738 -1.3832
  622MOL0     H82087   7.957  10.390   5.230 -1.6848  1.5042  1.2811
  622MOL0     H82088   7.828  10.698   5.601  1.2788 -1.3431 -0.7115
  622MOL0     H82089   7.754  10.722   5.816 -3.3220  0.7791  1.5673
  622MOL0     H82090   6.634  10.095   6.770 -0.0720 -0.0657  1.6047
  622MOL0     H82091   6.408  10.107   6.669 -1.3079 -0.8793  0.3265
  622MOL0     H82092   6.011  10.044   6.732 -1.3027 -0.2819  0.5167
  622MOL0     H82093   5.788  10.093   6.713 -0.5462 -0.3523  0.4108
  622MOL0     H82094   5.474  10.056   6.542  1.5755 -2.1459 -1.8437
  622MOL0     H82095   5.627  10.113   6.592 -1.0136  0.7649 -1.7136
  622MOL0     H82096   5.578  10.080   6.826 -2.1788 -1.8453  2.6795
  622MOL0     H82097   5.481  10.209   6.762  2.3729  0.2497  0.9791
  622MOL0     H82098   5.380   9.920   6.800  0.2472 -0.8793  2.5147
  622MOL0     H82099   5.275  10.058   6.766 -0.3827  1.3246  1.8995
  622MOL0     H82100   5.309   9.971   7.023 -1.2733  0.5273  0.0097
  622MOL0     H82101   5.455  10.062   7.019 -0.2601  2.3347  1.8445
  622MOL0     H82102   5.183  10.375   7.061 -0.3268  0.2863 -0.3596
  622MOL0     H82103   5.691   9.713   6.568  1.0222 -0.4723 -2.1945
  622MOL0     H82104   5.954   9.648   6.590  1.7336 -0.3740  1.7675
  623MOL0     O82105   5.080   5.547   1.731  0.2778  0.0676  0.1276
  623MOL0     C82106   5.144   5.621   1.799  0.3862 -0.3426  0.5110
  623MOL0     O82107   5.098   5.677   1.918 -0.3896 -0.3235  0.6410
  623MOL0     C82108   4.995   5.606   1.984  0.2712  0.3031  0.3822
  623MOL0     C82109   5.026   5.490   2.056  0.4434 -0.6598  0.7310
  623MOL0     C82110   4.923   5.423   2.127 -0.2495  0.0075  0.0553
  623MOL0     C82111   4.791   5.467   2.129 -0.1384 -0.8868  0.2010
  623MOL0     O82112   4.694   5.414   2.206 -0.7379 -0.4107  0.4101
  623MOL0     C82113   4.661   5.278   2.174  0.3010 -0.0187  0.4919
  623MOL0     C82114   4.601   5.198   2.286  0.3635  0.2310 -0.6053
  623MOL0     C82115   4.481   5.266   2.341  0.2623  0.3374  0.3682
  623MOL0     C82116   4.357   5.179   2.342 -0.6855 -0.1619  0.0141
  623MOL0     C82117   4.241   5.247   2.410  0.1107  0.6613 -0.3822
  623MOL0     C82118   4.131   5.135   2.410  1.0380  0.7805 -0.7792
  623MOL0     C82119   3.996   5.203   2.442  0.3461  0.3709 -0.7069
  623MOL0     C82120   3.914   5.120   2.538  1.0509 -0.1044  0.1348
  623MOL0     N82121   3.796   5.194   2.587  0.5155 -0.2328 -0.4108
  623MOL0     C82122   3.790   5.320   2.647 -0.6698 -0.1416 -0.6753
  623MOL0     C82123   3.670   5.337   2.715  0.7764  0.7709 -0.8649
  623MOL0     C82124   3.616   5.466   2.785 -0.7402  0.2624 -0.5612
  623MOL0     C82125   3.638   5.461   2.930  1.2358 -0.1927  0.5538
  623MOL0     C82126   3.779   5.463   2.986  0.0330  0.4923  0.3836
  623MOL0     C82127   3.856   5.588   2.954  0.5038  0.3424  0.2770
  623MOL0     O82128   3.902   5.579   2.824  0.8393 -0.4995  0.1296
  623MOL0     C82129   3.995   5.670   2.790 -1.0840 -0.3173  0.0581
  623MOL0     C82130   4.008   5.703   2.655  0.2266 -0.1589  0.3573
  623MOL0     C82131   4.112   5.770   2.600  0.3064  0.0953  0.8525
  623MOL0     C82132   4.214   5.820   2.676 -0.1478 -0.5435 -0.0475
  623MOL0     C82133   4.316   5.901   2.610  0.1117 -0.0190 -0.2655
  623MOL0     O82134   4.382   5.995   2.687 -0.7406  0.9618  0.0488
  623MOL0     C82135   4.506   6.037   2.656  0.9342  0.3881 -0.1025
  623MOL0     C82136   4.537   6.093   2.534 -0.1734 -0.5404  0.4249
  623MOL0     C82137   4.667   6.133   2.501  0.7529 -0.5332 -0.6737
  623MOL0     C82138   4.775   6.092   2.575 -0.5314 -0.0962  0.3176
  623MOL0     O82139   4.905   6.131   2.548 -0.0689 -0.0994 -0.4132
  623MOL0     C82140   4.931   6.257   2.474  1.1183  1.0351  0.4439
  623MOL0     C82141   5.070   6.293   2.496 -0.1263 -0.2274  0.1693
  623MOL0     C82142   5.084   6.443   2.472 -0.5476 -1.2174  0.1654
  623MOL0     C82143   5.225   6.494   2.502  0.0945  0.2836  0.1242
  623MOL0     C82144   5.251   6.651   2.508  0.7464  1.3957 -0.4028
  623MOL0     C82145   5.394   6.701   2.482 -0.1905  0.1366 -0.0304
  623MOL0     C82146   5.492   6.674   2.602 -0.1766  0.4446  0.5824
  623MOL0     C82147   5.646   6.687   2.568 -0.9029 -0.2108  0.5967
  623MOL0    Cl82148   5.662   6.859   2.501  0.6213  0.1583 -0.5687
  623MOL0     C82149   4.747   6.020   2.682 -0.2843  0.4940 -0.1262
  623MOL0     C82150   4.613   5.991   2.724 -0.4518 -0.4300 -0.4393
  623MOL0     O82151   4.343   5.878   2.494  0.0264 -0.8671  0.1316
  623MOL0     C82152   4.209   5.800   2.812  0.7580 -0.1285  0.5143
  623MOL0     C82153   4.106   5.717   2.869 -0.1699 -0.3513 -0.2925
  623MOL0     N82154   3.616   5.204   2.711 -0.8149 -0.3634 -0.1496
  623MOL0     N82155   3.692   5.123   2.639  0.3130 -0.6387 -0.7571
  623MOL0     C82156   4.762   5.576   2.055 -0.0345 -0.2478  0.7625
  623MOL0     C82157   4.860   5.640   1.972  0.2748 -0.2552 -0.7794
  623MOL0     C82158   5.277   5.657   1.740  0.1221 -0.3507  0.1359
  623MOL0     C82159   5.348   5.591   1.641 -0.2927  0.5769 -0.9698
  623MOL0     C82160   5.476   5.645   1.600  0.2197  0.0588  0.4627
  623MOL0     C82161   5.520   5.768   1.648  0.0274  0.1963 -0.5171
  623MOL0     O82162   5.637   5.830   1.602  0.0434  0.1727 -0.0863
  623MOL0     C82163   5.701   5.792   1.481  0.1480 -0.1549  0.0832
  623MOL0     C82164   5.814   5.887   1.438 -0.1495  0.0629 -0.1391
  623MOL0     C82165   5.920   5.896   1.550 -0.4963 -0.2754 -0.0533
  623MOL0     C82166   6.056   5.942   1.491  1.5999  0.4143 -0.4946
  623MOL0     C82167   6.116   5.845   1.399 -0.3103 -0.3595  0.1171
  623MOL0     C82168   6.160   5.765   1.324  0.0352  0.6780  0.7161
  623MOL0     C82169   5.445   5.836   1.743 -0.3415  0.9450 -0.1198
  623MOL0     C82170   5.330   5.783   1.785 -1.0482 -0.2119 -0.3980
  623MOL0     H82171   5.123   5.442   2.066  0.8556  0.1387  0.6947
  623MOL0     H82172   4.948   5.333   2.183 -0.6090 -1.3674 -1.9148
  623MOL0     H82173   4.754   5.228   2.147  1.2509  2.2115 -0.7249
  623MOL0     H82174   4.588   5.275   2.092  1.1381 -4.1482 -0.3332
  623MOL0     H82175   4.674   5.185   2.366  1.7251 -0.3114 -1.8968
  623MOL0     H82176   4.595   5.093   2.256  3.2832  0.2662 -1.6087
  623MOL0     H82177   4.456   5.360   2.291 -2.1485 -0.7082 -0.5391
  623MOL0     H82178   4.498   5.301   2.443 -2.5098  0.7117  0.7640
  623MOL0     H82179   4.319   5.167   2.241 -1.4462  1.3443  0.0882
  623MOL0     H82180   4.373   5.079   2.383 -1.4077  0.8202  2.9393
  623MOL0     H82181   4.208   5.334   2.352 -1.9721  0.0775 -0.1797
  623MOL0     H82182   4.269   5.281   2.510  0.2498 -2.5395  0.7849
  623MOL0     H82183   4.155   5.069   2.494  1.1545 -1.4997 -2.5102
  623MOL0     H82184   4.117   5.074   2.320 -1.9429  1.9648 -1.2424
  623MOL0     H82185   4.028   5.286   2.507 -2.1272 -1.7119  3.6466
  623MOL0     H82186   3.949   5.249   2.355  0.3979  5.0260  1.3837
  623MOL0     H82187   3.980   5.090   2.621  1.8694 -1.7460 -1.0451
  623MOL0     H82188   3.895   5.024   2.491  4.4515 -0.2856 -1.1960
  623MOL0     H82189   3.853   5.408   2.642 -0.4622 -0.1925  0.6365
  623MOL0     H82190   3.511   5.489   2.762  0.2708  3.7062 -2.3286
  623MOL0     H82191   3.681   5.546   2.748  1.9420 -1.2147  0.6949
  623MOL0     H82192   3.600   5.363   2.960  0.1292 -0.7013 -2.1747
  623MOL0     H82193   3.569   5.535   2.970  2.8728  1.0087  1.2792
  623MOL0     H82194   3.771   5.440   3.093  1.5027  1.8753  0.8122
  623MOL0     H82195   3.840   5.383   2.943 -0.8307  0.7896 -1.4874
  623MOL0     H82196   3.937   5.591   3.027  0.7068 -1.2208  0.1307
  623MOL0     H82197   3.800   5.682   2.961  0.2494  0.3206 -1.0791
  623MOL0     H82198   3.929   5.665   2.591  0.3741 -1.5145  0.9347
  623MOL0     H82199   4.118   5.777   2.492  1.9634 -1.6516  0.7577
  623MOL0     H82200   4.461   6.086   2.457  1.2667 -1.1359 -0.9812
  623MOL0     H82201   4.665   6.186   2.407  0.9165  1.5057  0.4166
  623MOL0     H82202   4.863   6.337   2.502 -0.8601 -1.8355  4.9493
  623MOL0     H82203   4.914   6.242   2.366  2.4629  1.4920  0.1532
  623MOL0     H82204   5.136   6.223   2.445 -1.8690 -3.6221  2.2347
  623MOL0     H82205   5.101   6.282   2.600 -0.0590  2.9708  0.6120
  623MOL0     H82206   5.010   6.503   2.526 -1.8362 -0.2900 -2.4375
  623MOL0     H82207   5.061   6.465   2.367 -1.0876  0.0394  0.5293
  623MOL0     H82208   5.261   6.456   2.598  1.6420  0.8848 -0.1913
  623MOL0     H82209   5.292   6.452   2.426 -0.2590 -2.2572  1.0998
  623MOL0     H82210   5.223   6.677   2.610  1.9713 -2.8446  1.2016
  623MOL0     H82211   5.189   6.701   2.432  0.7601  1.1860 -0.5529
  623MOL0     H82212   5.381   6.809   2.472 -0.6624  0.1632  0.8337
  623MOL0     H82213   5.439   6.643   2.400  0.0940  0.1300  0.1294
  623MOL0     H82214   5.470   6.738   2.688  0.3272  0.7924  0.4554
  623MOL0     H82215   5.480   6.568   2.625 -0.2559  0.6884  1.7447
  623MOL0     H82216   5.673   6.621   2.484 -0.7987  0.2582  0.2598
  623MOL0     H82217   5.719   6.662   2.645  0.8545  1.2289 -0.5342
  623MOL0     H82218   4.824   5.980   2.748  0.5706  0.4561 -1.1169
  623MOL0     H82219   4.607   5.942   2.821  1.5435 -1.4736 -0.7995
  623MOL0     H82220   4.277   5.852   2.878  3.2340 -0.5441 -1.5764
  623MOL0     H82221   4.110   5.692   2.974 -0.3967  3.4194  0.7261
  623MOL0     H82222   4.661   5.615   2.050  0.8203  1.9638 -2.3896
  623MOL0     H82223   4.825   5.717   1.904 -0.4746 -0.7381 -0.9447
  623MOL0     H82224   5.309   5.506   1.586  1.4455 -1.0242  0.1539
  623MOL0     H82225   5.532   5.605   1.516 -0.0529  1.6109 -0.5018
  623MOL0     H82226   5.627   5.795   1.401  3.3139  0.5648 -3.0877
  623MOL0     H82227   5.738   5.689   1.486 -1.0867 -0.5666  1.6596
  623MOL0     H82228   5.850   5.862   1.338  1.2780  0.2568  0.3037
  623MOL0     H82229   5.760   5.982   1.433 -4.2228 -1.9560  1.0123
  623MOL0     H82230   5.931   5.801   1.603 -0.3124 -2.0897 -3.1520
  623MOL0     H82231   5.886   5.976   1.617 -2.2028 -1.7402  0.9180
  623MOL0     H82232   6.049   6.042   1.448  0.6959  1.0547  1.0541
  623MOL0     H82233   6.118   5.962   1.579 -0.2242  2.0429  0.4962
  623MOL0     H82234   6.180   5.686   1.254  1.5250  2.1711 -0.6036
  623MOL0     H82235   5.472   5.937   1.772  0.6377  0.7969 -0.4944
  623MOL0     H82236   5.269   5.842   1.853  0.0728  0.1442  0.3207
  624MOL0     O82237   2.830   0.936   9.029  0.1191 -0.1595  0.2020
  624MOL0     C82238   2.771   1.008   8.950  0.0381 -0.2138  0.1018
  624MOL0     O82239   2.641   0.993   8.920  0.5455 -0.1955  0.0475
  624MOL0     C82240   2.549   0.939   9.001  0.3104  0.3033  0.7177
  624MOL0     C82241   2.432   0.885   8.942 -0.0532 -0.3816 -0.2442
  624MOL0     C82242   2.329   0.844   9.017  0.0875  0.6494 -0.0756
  624MOL0     C82243   2.335   0.840   9.156  0.3847 -0.6369 -0.5012
  624MOL0     O82244   2.240   0.790   9.239  0.8601  0.1312  0.1709
  624MOL0     C82245   2.111   0.756   9.182  0.2101  1.2519 -0.1486
  624MOL0     C82246   2.101   0.605   9.174  0.0900  1.1006  0.2097
  624MOL0     C82247   1.963   0.561   9.183 -0.5366  1.3801 -0.1796
  624MOL0     C82248   1.956   0.400   9.178  0.0087 -0.0082 -0.5055
  624MOL0     C82249   1.823   0.357   9.255 -0.2088 -0.6276  0.4518
  624MOL0     C82250   1.691   0.387   9.171 -0.3431  0.1692  0.7861
  624MOL0     C82251   1.673   0.289   9.053  0.7179 -0.5903  0.3595
  624MOL0     C82252   1.547   0.317   8.968  0.1404 -0.1652 -0.0043
  624MOL0     N82253   1.419   0.311   9.048 -0.1809 -0.5439  0.3160
  624MOL0     C82254   1.390   0.225   9.155 -0.0843  0.3162  0.0717
  624MOL0     C82255   1.288   0.286   9.224 -0.4965 -0.1071  0.5104
  624MOL0     C82256   1.257   0.254   9.363  0.7249  0.6476  0.9096
  624MOL0     C82257   1.122   0.291   9.409 -0.7306 -0.3476 -0.3419
  624MOL0     C82258   1.012   0.205   9.353  0.2411  0.3919 -0.1825
  624MOL0     C82259   0.874   0.249   9.391  0.5062 -0.3809 -0.5872
  624MOL0     O82260   0.840   0.222   9.523 -1.0669 -0.8476 -1.0203
  624MOL0     C82261   0.802   0.332   9.600 -0.7261  0.3224  0.0887
  624MOL0     C82262   0.889   0.430   9.644 -0.1381 -0.6885 -0.3769
  624MOL0     C82263   0.836   0.536   9.725 -0.9721 -0.6964 -0.2237
  624MOL0     C82264   0.701   0.545   9.754 -0.0193  0.4926  0.8001
  624MOL0     C82265   0.648   0.646   9.851  0.1695  0.8579 -0.1927
  624MOL0     O82266   0.510   0.656   9.846  0.2959  0.0476  0.1569
  624MOL0     C82267   0.444   0.716   9.949  0.2770  0.0283 -0.1197
  624MOL0     C82268   0.308   0.749   9.916 -0.8821 -0.8560  0.1302
  624MOL0     C82269   0.230   0.819  10.007 -0.2527 -1.0426  0.1607
  624MOL0     C82270   0.285   0.852  10.138  0.1967 -0.4596 -0.0684
  624MOL0     O82271   0.218   0.935  10.221 -0.0181  0.8866  0.0267
  624MOL0     C82272   0.075   0.908  10.246 -0.4246 -1.3385  0.4101
  624MOL0     C82273   0.042   0.846  10.382  0.7858 -0.8760 -0.1095
  624MOL0     C82274   0.032   0.696  10.368 -0.3083 -0.4992 -0.7400
  624MOL0     C82275  -0.025   0.626  10.490 -0.5925  0.6826 -0.3668
  624MOL0     C82276   0.007   0.475  10.481 -0.6830  0.3767 -0.2794
  624MOL0     C82277  -0.017   0.415  10.620 -0.4993  0.1018 -0.8219
  624MOL0     C82278  -0.028   0.260  10.612  0.8388 -0.3778  0.3017
  624MOL0     C82279  -0.015   0.189  10.753  0.3935  0.6301  0.2838
  624MOL0    Cl82280  -0.076   0.016  10.747  0.2069  0.2722  0.2237
  624MOL0     C82281   0.404   0.802  10.171  0.7678 -0.1344  0.3017
  624MOL0     C82282   0.489   0.738  10.078  0.6014  0.9418  0.3488
  624MOL0     O82283   0.723   0.716   9.913 -0.1361  0.3390  0.5550
  624MOL0     C82284   0.615   0.443   9.707 -0.6709 -0.3559  0.7064
  624MOL0     C82285   0.670   0.348   9.627  1.0826  0.4402  0.0853
  624MOL0     N82286   1.248   0.389   9.144  0.0623 -0.5053  0.2514
  624MOL0     N82287   1.327   0.409   9.047  0.3575  0.1969 -0.7862
  624MOL0     C82288   2.455   0.888   9.214  0.4775  0.2937  0.4434
  624MOL0     C82289   2.559   0.945   9.141  0.4054 -0.7817 -0.8930
  624MOL0     C82290   2.861   1.098   8.880 -0.5160  0.3249  0.6373
  624MOL0     C82291   2.799   1.183   8.792  0.1673  0.9855 -0.1692
  624MOL0     C82292   2.881   1.261   8.699  0.6711  1.2707 -0.4020
  624MOL0     C82293   3.023   1.264   8.711  0.3765  0.0475 -0.5217
  624MOL0     O82294   3.084   1.354   8.622  0.0988 -0.4872  0.4968
  624MOL0     C82295   3.226   1.340   8.605  0.1906 -0.4041  0.0150
  624MOL0     C82296   3.276   1.462   8.520 -0.4057  0.6424  0.5892
  624MOL0     C82297   3.428   1.454   8.484 -0.4800  0.4292 -0.4641
  624MOL0     C82298   3.469   1.571   8.400 -0.3414 -0.2757 -0.5939
  624MOL0     C82299   3.493   1.529   8.256  0.4843  0.4610 -1.3139
  624MOL0     C82300   3.503   1.480   8.140  0.8212  0.3011 -0.0912
  624MOL0     C82301   3.088   1.176   8.804  0.0446 -0.2461 -0.2393
  624MOL0     C82302   3.003   1.095   8.887 -0.1123 -0.6104 -0.3167
  624MOL0     H82303   2.421   0.881   8.834  0.3895  0.4809 -0.3263
  624MOL0     H82304   2.240   0.804   8.969  0.6064  2.2199 -2.5330
  624MOL0     H82305   2.081   0.798   9.085  0.4246  0.4663 -0.5681
  624MOL0     H82306   2.046   0.791   9.262  1.8887 -0.5449  2.1625
  624MOL0     H82307   2.154   0.559   9.258  0.5893 -2.3455 -1.8080
  624MOL0     H82308   2.138   0.563   9.080 -0.6724  2.9871 -0.9959
  624MOL0     H82309   1.912   0.597   9.094 -1.6780 -0.2330 -0.2201
  624MOL0     H82310   1.919   0.598   9.276  0.0162  2.8490 -0.4715
  624MOL0     H82311   1.948   0.370   9.073  1.3187  2.9519 -1.5879
  624MOL0     H82312   2.038   0.362   9.239  0.3200 -0.7095 -1.3507
  624MOL0     H82313   1.824   0.397   9.357 -2.4473  0.0548  0.2620
  624MOL0     H82314   1.824   0.248   9.265  1.8113 -0.6444  0.5994
  624MOL0     H82315   1.701   0.493   9.149  1.2219 -0.4496 -2.0249
  624MOL0     H82316   1.603   0.370   9.234 -1.1515 -0.9496 -0.5917
  624MOL0     H82317   1.759   0.286   8.985 -0.2523  2.0550 -1.1156
  624MOL0     H82318   1.669   0.188   9.094 -1.4370 -0.8614 -0.4042
  624MOL0     H82319   1.532   0.244   8.888 -0.1585  0.4339 -0.4980
  624MOL0     H82320   1.540   0.413   8.917  1.0573  0.0655  0.2881
  624MOL0     H82321   1.444   0.151   9.213 -2.0170  1.5417  3.7906
  624MOL0     H82322   1.321   0.297   9.440  0.9151  0.7042  0.7235
  624MOL0     H82323   1.271   0.149   9.391  0.5352  0.9198  2.0489
  624MOL0     H82324   1.107   0.396   9.384 -0.1069 -0.4705 -1.3004
  624MOL0     H82325   1.143   0.283   9.516  5.4602  0.4188 -1.0877
  624MOL0     H82326   1.023   0.191   9.245 -1.8631  0.2931 -0.4077
  624MOL0     H82327   1.025   0.105   9.395 -0.4718 -0.3406 -1.6373
  624MOL0     H82328   0.801   0.192   9.334 -0.3284 -0.6062  0.6675
  624MOL0     H82329   0.864   0.356   9.373  1.9720  0.1398  1.2754
  624MOL0     H82330   0.994   0.411   9.624 -0.2182 -0.2409 -1.2456
  624MOL0     H82331   0.905   0.599   9.780 -2.0395  0.4206 -0.1051
  624MOL0     H82332   0.264   0.725   9.820 -0.6807  0.6543 -0.3706
  624MOL0     H82333   0.136   0.862   9.974 -0.0772  2.2233  3.2215
  624MOL0     H82334   0.033   0.854  10.160 -1.9435  1.7508 -0.9703
  624MOL0     H82335   0.032   1.009  10.239  1.6490 -0.3277  1.5254
  624MOL0     H82336  -0.040   0.891  10.438  3.1466  2.9810  0.6125
  624MOL0     H82337   0.128   0.871  10.445  1.6081 -0.8960 -1.1986
  624MOL0     H82338   0.129   0.657  10.337  0.2999  0.7438 -0.4751
  624MOL0     H82339  -0.037   0.666  10.288  0.9032 -1.8665 -1.3059
  624MOL0     H82340   0.011   0.668  10.585  0.7421 -1.0218 -0.0510
  624MOL0     H82341  -0.134   0.628  10.497 -0.4960  0.5491  2.2993
  624MOL0     H82342   0.105   0.444  10.444 -0.7619 -1.4802  0.9256
  624MOL0     H82343  -0.070   0.422  10.425  0.5166 -1.4856 -0.2758
  624MOL0     H82344  -0.112   0.455  10.655 -0.6085  1.6939 -2.7736
  624MOL0     H82345   0.070   0.450  10.676 -0.0166 -1.3045 -0.6316
  624MOL0     H82346  -0.131   0.236  10.584  1.8523 -1.9955 -2.3246
  624MOL0     H82347   0.047   0.219  10.543  0.7493  1.4629 -0.9569
  624MOL0     H82348  -0.075   0.236  10.832 -0.9734 -1.2909  0.4735
  624MOL0     H82349   0.085   0.181  10.796 -0.3706 -1.4000  1.8240
  624MOL0     H82350   0.452   0.800  10.269  0.8857  1.3038  0.2872
  624MOL0     H82351   0.589   0.703  10.102  0.1198 -0.8901 -0.2000
  624MOL0     H82352   0.507   0.436   9.721 -0.6697 -2.3379  0.1091
  624MOL0     H82353   0.605   0.279   9.574 -0.5421  1.4947  0.6642
  624MOL0     H82354   2.455   0.881   9.322 -0.3878  1.2939  0.5233
  624MOL0     H82355   2.645   0.975   9.200  1.8241 -0.9809 -2.7738
  624MOL0     H82356   2.691   1.183   8.787 -0.1498 -1.9201  2.9564
  624MOL0     H82357   2.822   1.314   8.625 -3.4049 -0.6914  1.1504
  624MOL0     H82358   3.238   1.244   8.555  1.8529  0.8927 -2.2197
  624MOL0     H82359   3.274   1.341   8.703 -2.0482 -2.1748  1.2447
  624MOL0     H82360   3.221   1.458   8.425  1.5385  0.5346 -0.5733
  624MOL0     H82361   3.258   1.552   8.579 -2.0372  1.1049 -0.5486
  624MOL0     H82362   3.444   1.361   8.427 -1.9414  0.9370 -1.7903
  624MOL0     H82363   3.472   1.460   8.584  1.3350  0.2156 -1.2125
  624MOL0     H82364   3.400   1.656   8.393  1.0112  0.8750 -0.4923
  624MOL0     H82365   3.561   1.613   8.441 -0.2140  0.2514 -1.3864
  624MOL0     H82366   3.502   1.418   8.053  0.2025  0.5648 -0.2753
  624MOL0     H82367   3.196   1.166   8.815 -0.2018 -1.1427  1.6678
  624MOL0     H82368   3.047   1.031   8.962  1.7596  0.2988 -0.5855
  625MOL0     O82369  10.218   5.812   7.316 -0.8546 -0.2865  0.1526
  625MOL0     C82370  10.209   5.916   7.251  0.1871  0.1189  0.1375
  625MOL0     O82371  10.317   5.998   7.209  0.3243  0.4026  0.1425
  625MOL0     C82372  10.445   5.965   7.249  1.8776  0.2763  0.5854
  625MOL0     C82373  10.536   5.977   7.142  0.3996  0.4829  0.0076
  625MOL0     C82374  10.673   5.982   7.174  0.3385 -0.5584 -0.0578
  625MOL0     C82375  10.715   5.972   7.310 -0.3886 -0.4000 -0.2637
  625MOL0     O82376  10.844   5.992   7.371  1.4343  0.3615 -0.3945
  625MOL0     C82377  10.969   5.983   7.309  0.0804  0.4366  0.1704
  625MOL0     C82378  11.045   6.118   7.288 -0.2635 -0.2400  0.2755
  625MOL0     C82379  11.191   6.109   7.274  0.1673  0.1875 -0.6718
  625MOL0     C82380  11.246   6.252   7.245  1.1118  0.5750  0.1475
  625MOL0     C82381  11.395   6.265   7.259  0.3736  0.4732 -0.1721
  625MOL0     C82382  11.476   6.149   7.187 -1.3008  0.7288 -0.3096
  625MOL0     C82383  11.442   6.152   7.038  0.6437 -0.3297 -0.5936
  625MOL0     C82384  11.551   6.083   6.960  0.1419 -0.0708 -1.2117
  625MOL0     N82385  11.490   6.057   6.828  0.0615  0.3839  1.6066
  625MOL0     C82386  11.383   5.971   6.801  0.3484 -0.0672 -1.0811
  625MOL0     C82387  11.354   5.994   6.670 -0.1489  0.1879 -0.3003
  625MOL0     C82388  11.256   5.920   6.580 -0.0417 -0.5144  0.6296
  625MOL0     C82389  11.298   5.779   6.576 -0.3318  0.3163  0.0735
  625MOL0     C82390  11.216   5.706   6.467 -0.3177 -0.8378 -0.0035
  625MOL0     C82391  11.068   5.721   6.474  0.1903  0.4876 -0.8727
  625MOL0     O82392  11.031   5.841   6.406 -0.3355  0.8084  0.2513
  625MOL0     C82393  10.900   5.837   6.361  0.4634 -0.0664 -0.8204
  625MOL0     C82394  10.804   5.856   6.458  0.6140 -0.4399  0.5468
  625MOL0     C82395  10.671   5.868   6.422 -0.1570 -0.4553 -0.0215
  625MOL0     C82396  10.632   5.871   6.287 -0.0309  1.3080 -0.1872
  625MOL0     C82397  10.494   5.879   6.240  0.8377  0.2768 -0.3185
  625MOL0     O82398  10.394   5.869   6.332 -0.3615  0.2838 -0.3187
  625MOL0     C82399  10.265   5.871   6.296  0.3220  0.7428 -0.6251
  625MOL0     C82400  10.211   5.761   6.228 -0.6220  1.3268 -0.1873
  625MOL0     C82401  10.081   5.762   6.171  0.0227 -0.5604  0.0298
  625MOL0     C82402  10.002   5.878   6.194  0.3176  0.5217 -0.3488
  625MOL0     O82403   9.888   5.909   6.127  0.2622 -0.7024  0.0752
  625MOL0     C82404   9.850   5.821   6.020 -0.4367  0.9567 -0.1126
  625MOL0     C82405   9.739   5.874   5.924 -0.2303  0.3919 -0.3100
  625MOL0     C82406   9.736   5.819   5.782 -0.0957  0.2345 -0.7882
  625MOL0     C82407   9.600   5.860   5.715 -0.3833 -1.1001 -0.2399
  625MOL0     C82408   9.613   5.870   5.562  0.2581  0.3187  0.5009
  625MOL0     C82409   9.484   5.919   5.477  0.0327 -0.0912  1.0853
  625MOL0     C82410   9.418   6.044   5.524  0.3729  0.1073  0.0188
  625MOL0     C82411   9.465   6.169   5.451  0.1668  0.3853  0.0679
  625MOL0    Cl82412   9.400   6.183   5.292  0.2230  0.2448  0.0542
  625MOL0     C82413  10.046   5.983   6.281 -0.1018 -0.3635 -0.1538
  625MOL0     C82414  10.175   5.975   6.328  0.4917 -0.5731 -0.0097
  625MOL0     O82415  10.474   5.886   6.122 -0.5125 -0.1494  0.5298
  625MOL0     C82416  10.731   5.869   6.185 -0.7922 -0.7690 -0.3853
  625MOL0     C82417  10.861   5.852   6.222  0.1832  0.2845 -1.1605
  625MOL0     N82418  11.437   6.086   6.625  0.5959  0.7844  0.2409
  625MOL0     N82419  11.527   6.115   6.704  0.0516  0.5646 -0.7405
  625MOL0     C82420  10.620   5.943   7.410 -0.5712 -0.2660  0.0632
  625MOL0     C82421  10.489   5.954   7.377 -0.0824  0.0642 -0.3439
  625MOL0     C82422  10.071   5.963   7.219  0.6271  0.0426 -0.9889
  625MOL0     C82423   9.961   5.879   7.215  0.2910 -0.8412 -0.1819
  625MOL0     C82424   9.834   5.925   7.176 -1.0720  0.2736  0.3592
  625MOL0     C82425   9.814   6.051   7.140  0.4077 -0.1115 -0.5557
  625MOL0     O82426   9.695   6.119   7.112 -0.1927 -0.3204 -0.6748
  625MOL0     C82427   9.573   6.038   7.090 -0.2193  0.2201 -0.6430
  625MOL0     C82428   9.455   6.138   7.087  0.4800 -0.4903 -0.1402
  625MOL0     C82429   9.330   6.067   7.076  0.0410 -0.0439  1.2035
  625MOL0     C82430   9.201   6.162   7.101 -0.5425  0.4121 -0.0975
  625MOL0     C82431   9.077   6.089   7.084  1.2698  0.0461 -0.3797
  625MOL0     C82432   8.966   6.028   7.105 -0.5987  0.2454 -0.7541
  625MOL0     C82433   9.929   6.134   7.127 -0.1000  0.0361  0.2118
  625MOL0     C82434  10.051   6.091   7.165  0.3299 -0.2292  0.2281
  625MOL0     H82435  10.513   6.003   7.040 -1.4401  1.1141  0.5440
  625MOL0     H82436  10.750   5.993   7.098 -0.4035 -1.1973 -0.9240
  625MOL0     H82437  10.969   5.954   7.204  1.5174  3.2135 -0.7050
  625MOL0     H82438  11.026   5.914   7.372 -1.9494 -1.5625 -0.0925
  625MOL0     H82439  11.025   6.175   7.379  2.6648  1.5063 -0.0555
  625MOL0     H82440  11.004   6.165   7.199  2.4892 -1.2065 -1.6231
  625MOL0     H82441  11.228   6.044   7.195  3.4372  2.6029 -1.3450
  625MOL0     H82442  11.236   6.067   7.365  2.5793 -2.4824 -2.8937
  625MOL0     H82443  11.218   6.282   7.143  1.0952 -1.1404 -0.3940
  625MOL0     H82444  11.207   6.320   7.320  0.7783  0.0163  0.4867
  625MOL0     H82445  11.417   6.268   7.366 -1.4821 -0.0254  0.2596
  625MOL0     H82446  11.424   6.362   7.218 -0.8549  1.0181  0.1995
  625MOL0     H82447  11.462   6.048   7.224 -0.7075  0.6836 -0.2005
  625MOL0     H82448  11.583   6.165   7.205 -0.3617 -3.9121 -0.5691
  625MOL0     H82449  11.345   6.104   7.024  1.5133 -2.7586  1.1356
  625MOL0     H82450  11.431   6.255   7.003  0.4315 -0.8603 -2.1579
  625MOL0     H82451  11.578   5.989   7.010 -0.2703  0.4234 -0.0262
  625MOL0     H82452  11.639   6.148   6.955 -0.6889  1.4430  1.8077
  625MOL0     H82453  11.340   5.903   6.875  1.4004  0.2635 -0.1305
  625MOL0     H82454  11.263   5.962   6.479  1.6362 -1.1760  0.4397
  625MOL0     H82455  11.157   5.944   6.620  0.2194  0.2874  0.8221
  625MOL0     H82456  11.280   5.734   6.674 -0.6988 -0.0120 -0.1431
  625MOL0     H82457  11.402   5.762   6.547 -1.2092  0.4317 -3.5254
  625MOL0     H82458  11.247   5.728   6.364  0.6378 -1.4617  0.1366
  625MOL0     H82459  11.239   5.599   6.464 -1.6375 -1.1206 -1.0427
  625MOL0     H82460  11.034   5.713   6.578 -2.5318  0.7780 -1.6656
  625MOL0     H82461  11.013   5.641   6.423  1.0793  0.6529 -2.1056
  625MOL0     H82462  10.832   5.866   6.563 -4.3212  1.9376  1.9308
  625MOL0     H82463  10.589   5.878   6.492 -1.7932 -1.4270 -1.6987
  625MOL0     H82464  10.267   5.669   6.217 -0.8402  1.1146  0.4145
  625MOL0     H82465  10.038   5.682   6.111 -2.1194  0.9040 -0.5067
  625MOL0     H82466   9.821   5.721   6.051 -1.0645  0.7285 -1.3568
  625MOL0     H82467   9.939   5.815   5.957 -2.1485 -0.7975 -2.5720
  625MOL0     H82468   9.739   5.983   5.917 -1.9973  0.4126 -0.3009
  625MOL0     H82469   9.640   5.859   5.967  0.6154 -1.0654  1.2735
  625MOL0     H82470   9.757   5.712   5.768  2.1197  0.3920  0.6949
  625MOL0     H82471   9.815   5.864   5.721  0.1392 -0.9069 -1.3602
  625MOL0     H82472   9.525   5.786   5.743 -1.1663 -0.4366 -0.5411
  625MOL0     H82473   9.577   5.958   5.757  2.5448 -1.1947  1.8432
  625MOL0     H82474   9.640   5.771   5.523  2.0690  0.4294  1.3703
  625MOL0     H82475   9.697   5.931   5.530  2.1825 -2.8217 -0.9418
  625MOL0     H82476   9.415   5.836   5.500 -1.5495  0.7545 -0.4155
  625MOL0     H82477   9.495   5.917   5.369  1.5243 -0.1292  1.2240
  625MOL0     H82478   9.309   6.048   5.528  0.4258  1.9593  0.6917
  625MOL0     H82479   9.448   6.060   5.628  0.7528  1.2665 -0.2499
  625MOL0     H82480   9.574   6.168   5.446  0.1538 -0.7670 -0.4129
  625MOL0     H82481   9.429   6.250   5.515 -0.9757 -1.3336  1.7466
  625MOL0     H82482   9.984   6.067   6.307  1.9279  0.8435  1.0374
  625MOL0     H82483  10.209   6.068   6.372  0.9526  0.0852 -1.6614
  625MOL0     H82484  10.703   5.883   6.081  0.2250 -0.8117 -0.6788
  625MOL0     H82485  10.939   5.851   6.146  1.7338 -0.4323  0.3843
  625MOL0     H82486  10.654   5.920   7.510 -1.8201 -0.4421  0.4527
  625MOL0     H82487  10.410   5.953   7.452  1.6254 -1.3268  1.5449
  625MOL0     H82488   9.980   5.777   7.248 -4.3035 -1.2346  1.8757
  625MOL0     H82489   9.754   5.853   7.162 -1.6571  1.4083 -3.2504
  625MOL0     H82490   9.559   5.972   7.176  2.2015  2.5156  1.7329
  625MOL0     H82491   9.577   5.976   7.000  1.9248 -0.5094 -0.0990
  625MOL0     H82492   9.454   6.187   7.184  0.0247 -0.7014 -0.0340
  625MOL0     H82493   9.477   6.214   7.011  0.5358  1.3045  1.6029
  625MOL0     H82494   9.334   5.983   7.146 -0.5030 -1.8296 -0.8390
  625MOL0     H82495   9.316   6.031   6.974  0.9300  1.8764  0.3513
  625MOL0     H82496   9.211   6.190   7.206 -1.4944 -2.4800  0.8443
  625MOL0     H82497   9.208   6.254   7.041 -0.1871  1.7362  1.8900
  625MOL0     H82498   8.869   5.988   7.122 -2.4296  3.2017 -3.0599
  625MOL0     H82499   9.929   6.240   7.101  0.4445  0.0377  0.1981
  625MOL0     H82500  10.134   6.158   7.144  0.1899 -0.2378 -0.3763
  626MOL0     O82501   2.830   5.796   0.805 -0.4291  0.3984  0.0278
  626MOL0     C82502   2.883   5.875   0.724 -0.1915  0.1994 -1.5522
  626MOL0     O82503   2.819   5.957   0.634  0.4501  0.3427  0.4083
  626MOL0     C82504   2.684   5.959   0.664 -0.2414 -1.2038  0.4044
  626MOL0     C82505   2.628   6.049   0.766 -0.1317  0.0317 -0.0602
  626MOL0     C82506   2.496   6.049   0.800  0.4851  0.0563  1.0171
  626MOL0     C82507   2.413   5.949   0.746 -1.2402  0.3768 -0.6850
  626MOL0     O82508   2.287   5.934   0.793 -0.0238 -0.3267 -0.0140
  626MOL0     C82509   2.182   5.999   0.725  0.0050 -0.6371 -0.3463
  626MOL0     C82510   2.062   5.975   0.811  0.8571 -0.7048 -0.4584
  626MOL0     C82511   1.935   6.026   0.751 -0.6464 -0.0015 -0.2247
  626MOL0     C82512   1.817   6.027   0.851  0.4415  0.0063  0.2521
  626MOL0     C82513   1.685   6.070   0.779 -0.2940 -0.6243  0.3457
  626MOL0     C82514   1.558   6.080   0.879 -0.9404  0.1875 -0.0433
  626MOL0     C82515   1.415   6.095   0.817  0.8414 -0.8526  1.1803
  626MOL0     C82516   1.423   6.230   0.741 -0.0246 -0.2452  0.6681
  626MOL0     N82517   1.296   6.295   0.740  0.0867  0.5816  0.1861
  626MOL0     C82518   1.211   6.315   0.845 -0.9669  0.3742  0.2100
  626MOL0     C82519   1.105   6.380   0.794  0.6848  0.3237  0.1036
  626MOL0     C82520   0.985   6.442   0.862  0.1675  0.0724  0.5193
  626MOL0     C82521   0.860   6.361   0.828  0.4620  0.5256  0.0268
  626MOL0     C82522   0.821   6.271   0.943  0.1692  0.0892  0.6851
  626MOL0     C82523   0.670   6.223   0.932 -0.2077 -0.0868 -0.6042
  626MOL0     O82524   0.644   6.196   0.793 -0.4672  0.3674 -0.0042
  626MOL0     C82525   0.517   6.205   0.749  0.3269  0.2291 -0.1174
  626MOL0     C82526   0.503   6.262   0.622 -0.2414  0.6930  0.5595
  626MOL0     C82527   0.376   6.265   0.564 -0.7765 -1.1008 -0.0357
  626MOL0     C82528   0.268   6.218   0.644  0.1420 -0.2508  0.3762
  626MOL0     C82529   0.129   6.229   0.597 -0.9869  0.2427 -0.1346
  626MOL0     O82530   0.109   6.305   0.490 -0.3691 -0.2051 -0.5145
  626MOL0     C82531  -0.018   6.333   0.449  0.0059 -0.1151 -0.4764
  626MOL0     C82532  -0.037   6.333   0.313 -0.0029  0.0995  0.4767
  626MOL0     C82533  -0.166   6.367   0.267  0.0896  0.0644  0.4414
  626MOL0     C82534  -0.271   6.403   0.351  0.5143 -0.2089  0.8452
  626MOL0     O82535  -0.393   6.428   0.286 -0.0909 -0.3718 -0.8222
  626MOL0     C82536  -0.508   6.444   0.371 -0.1150  0.7539 -0.3302
  626MOL0     C82537  -0.635   6.452   0.285 -0.0685  0.0303  0.4694
  626MOL0     C82538  -0.766   6.445   0.361 -0.8071 -0.6608  0.3765
  626MOL0     C82539  -0.879   6.437   0.255 -0.0819 -0.6843 -0.1486
  626MOL0     C82540  -1.023   6.449   0.309  0.6869  0.2785 -0.2498
  626MOL0     C82541  -1.116   6.456   0.188  0.0524  0.5857 -0.3626
  626MOL0     C82542  -1.253   6.441   0.236 -0.0969  0.8506  1.0810
  626MOL0     C82543  -1.353   6.461   0.128  0.2851 -1.0829  0.0315
  626MOL0    Cl82544  -1.508   6.395   0.197 -0.2440 -0.2867 -0.0550
  626MOL0     C82545  -0.241   6.417   0.483  0.1360 -0.6741 -1.1380
  626MOL0     C82546  -0.120   6.370   0.536  0.4503 -0.8161  0.0927
  626MOL0     O82547   0.038   6.187   0.671 -0.4250  0.4480  0.1926
  626MOL0     C82548   0.280   6.163   0.769 -0.1490  0.3636  0.2972
  626MOL0     C82549   0.407   6.148   0.822 -0.2642 -0.5257 -0.3395
  626MOL0     N82550   1.121   6.404   0.660  0.4995 -0.1010  0.6805
  626MOL0     N82551   1.231   6.344   0.633  0.1889  0.5521  0.5746
  626MOL0     C82552   2.462   5.872   0.642 -0.7242  0.1953  0.4796
  626MOL0     C82553   2.595   5.869   0.599 -0.5191 -0.5047 -0.1404
  626MOL0     C82554   3.032   5.876   0.715  1.2214  0.0078 -0.2483
  626MOL0     C82555   3.124   5.837   0.814 -0.5207 -0.9070  1.2699
  626MOL0     C82556   3.263   5.858   0.798  0.3482  0.2707 -0.2767
  626MOL0     C82557   3.321   5.915   0.681  0.0242  0.1382 -0.7565
  626MOL0     O82558   3.454   5.951   0.663 -0.2975 -0.1255  0.3787
  626MOL0     C82559   3.537   5.842   0.641  0.2636  0.1477 -0.6733
  626MOL0     C82560   3.626   5.793   0.760  0.5674  0.6830  0.6635
  626MOL0     C82561   3.710   5.902   0.832  0.4632 -0.5127  0.9002
  626MOL0     C82562   3.803   5.848   0.934 -0.6514  0.2183 -0.6030
  626MOL0     C82563   3.749   5.743   1.014 -0.3426  0.0032 -0.4990
  626MOL0     C82564   3.689   5.659   1.075  0.5362 -0.1895 -0.3749
  626MOL0     C82565   3.235   5.947   0.573 -0.4429  0.2827 -0.5425
  626MOL0     C82566   3.097   5.927   0.597  0.0924 -0.0003 -0.5771
  626MOL0     H82567   2.709   6.103   0.813 -0.7038  0.6114  0.2624
  626MOL0     H82568   2.458   6.105   0.885  2.0412  0.4997  1.4566
  626MOL0     H82569   2.160   5.947   0.631 -1.3569  0.3441 -0.5945
  626MOL0     H82570   2.213   6.103   0.714 -1.6717 -0.1536 -0.7263
  626MOL0     H82571   2.074   6.025   0.908 -1.9247  1.1839 -0.9751
  626MOL0     H82572   2.057   5.867   0.831  2.9621 -0.4209  2.3976
  626MOL0     H82573   1.911   5.968   0.662  2.2666  3.1063 -3.3583
  626MOL0     H82574   1.949   6.132   0.726  2.0447 -0.1351  0.3834
  626MOL0     H82575   1.807   5.927   0.893 -0.5159 -0.3299 -0.7456
  626MOL0     H82576   1.841   6.097   0.932  0.5847  1.4679 -1.0124
  626MOL0     H82577   1.659   5.989   0.710  1.6072 -0.1445 -1.0133
  626MOL0     H82578   1.696   6.157   0.714 -0.2682 -0.0244  1.1376
  626MOL0     H82579   1.578   6.154   0.958 -0.4320 -1.6597  1.6625
  626MOL0     H82580   1.558   5.984   0.933 -3.4130 -0.7055 -1.4634
  626MOL0     H82581   1.381   6.011   0.756 -1.6797  1.7728 -1.3980
  626MOL0     H82582   1.330   6.098   0.886 -2.8671 -0.1939 -2.9378
  626MOL0     H82583   1.473   6.217   0.644  2.2204 -1.2413  1.8625
  626MOL0     H82584   1.496   6.298   0.786 -1.7301  4.3106 -2.7605
  626MOL0     H82585   1.220   6.284   0.949 -0.4857  2.3186  0.7894
  626MOL0     H82586   0.982   6.542   0.819 -4.4016 -1.3869 -3.4383
  626MOL0     H82587   1.004   6.450   0.969  2.3131 -1.2642  0.3019
  626MOL0     H82588   0.865   6.296   0.740 -1.5832 -4.7466  3.2928
  626MOL0     H82589   0.770   6.421   0.810 -1.1271 -0.1519  4.3867
  626MOL0     H82590   0.893   6.188   0.942  0.7966  0.6268  0.1643
  626MOL0     H82591   0.831   6.322   1.040 -1.5470  1.2075  0.3043
  626MOL0     H82592   0.603   6.298   0.977 -0.6532 -0.4646 -0.6297
  626MOL0     H82593   0.648   6.135   0.993 -1.9401  1.7574  1.6410
  626MOL0     H82594   0.595   6.296   0.575 -0.3830 -1.0328 -1.0753
  626MOL0     H82595   0.356   6.300   0.463 -1.8794  2.8142  1.3569
  626MOL0     H82596   0.039   6.295   0.245 -1.0119  2.7256 -2.3512
  626MOL0     H82597  -0.180   6.351   0.161  2.3017 -3.8835  0.5624
  626MOL0     H82598  -0.500   6.527   0.442  1.5523  0.6035 -0.3036
  626MOL0     H82599  -0.514   6.353   0.431 -0.0678  0.6470 -0.4850
  626MOL0     H82600  -0.636   6.368   0.215 -0.7310 -1.1561  1.8457
  626MOL0     H82601  -0.635   6.548   0.231  2.0747 -0.0443  0.2735
  626MOL0     H82602  -0.777   6.527   0.433 -1.1942  0.5817 -1.0215
  626MOL0     H82603  -0.762   6.348   0.410 -0.6368 -2.1779 -2.4150
  626MOL0     H82604  -0.870   6.532   0.201 -1.6518  0.8219  2.0672
  626MOL0     H82605  -0.863   6.348   0.194  0.2520 -2.6461  2.5881
  626MOL0     H82606  -1.035   6.539   0.369  1.0353 -1.0660  1.9623
  626MOL0     H82607  -1.036   6.369   0.383  2.0146  0.8790  0.6527
  626MOL0     H82608  -1.102   6.369   0.124 -1.0762 -0.3497  0.5937
  626MOL0     H82609  -1.097   6.552   0.140 -1.3216  2.0247  1.7866
  626MOL0     H82610  -1.265   6.339   0.273  3.1972 -0.1255 -0.1275
  626MOL0     H82611  -1.267   6.511   0.319 -0.4657  0.1780  1.5945
  626MOL0     H82612  -1.322   6.403   0.041 -1.0100 -1.1116 -0.4378
  626MOL0     H82613  -1.346   6.563   0.091  1.5914 -1.0642  0.3032
  626MOL0     H82614  -0.318   6.447   0.554  2.6738 -0.0108  1.5191
  626MOL0     H82615  -0.095   6.375   0.641 -1.0295  1.1871  0.4157
  626MOL0     H82616   0.197   6.121   0.824  1.8403 -3.3206  0.8399
  626MOL0     H82617   0.424   6.114   0.924 -1.4049  0.1715  0.1080
  626MOL0     H82618   2.404   5.797   0.590 -0.3816 -0.6127  1.2372
  626MOL0     H82619   2.628   5.792   0.530 -0.9150  0.1877 -1.1248
  626MOL0     H82620   3.084   5.800   0.908 -0.9919 -0.6055  1.1916
  626MOL0     H82621   3.330   5.833   0.880  0.5825  1.6446 -0.0217
  626MOL0     H82622   3.595   5.873   0.554 -2.6582  1.2581 -2.3826
  626MOL0     H82623   3.469   5.760   0.617  1.9023 -1.2396 -0.7691
  626MOL0     H82624   3.558   5.744   0.830  3.0180 -2.9305  0.7889
  626MOL0     H82625   3.697   5.718   0.724 -0.5274  0.0100 -0.1567
  626MOL0     H82626   3.641   5.974   0.877  2.7329  1.3641  1.5469
  626MOL0     H82627   3.769   5.956   0.758 -0.3510  2.6666  2.3979
  626MOL0     H82628   3.896   5.805   0.895 -0.2256 -2.7018  3.0372
  626MOL0     H82629   3.828   5.930   1.003 -0.4957 -0.8303  0.6285
  626MOL0     H82630   3.631   5.586   1.128  1.2005 -1.2302 -1.0511
  626MOL0     H82631   3.279   5.986   0.482 -2.0401 -0.8127 -1.8616
  626MOL0     H82632   3.034   5.968   0.518  0.4502  0.6229 -0.5420
  627MOL0     O82633  10.689   9.916   3.170 -0.2254  0.0270 -0.5674
  627MOL0     C82634  10.769  10.009   3.169 -0.0095  0.0545 -0.5187
  627MOL0     O82635  10.764  10.118   3.251  0.2319  0.5416  0.2432
  627MOL0     C82636  10.694  10.094   3.372 -0.0944  0.0084 -0.0209
  627MOL0     C82637  10.760  10.104   3.492  0.7434  0.5952 -0.7879
  627MOL0     C82638  10.697  10.069   3.616  0.6738  0.0074 -1.0484
  627MOL0     C82639  10.561  10.026   3.625  0.0941 -0.5613 -0.7337
  627MOL0     O82640  10.492  10.000   3.735 -0.5228  0.7904  0.5196
  627MOL0     C82641  10.526  10.064   3.852  0.7675 -0.2197 -0.3416
  627MOL0     C82642  10.464   9.993   3.977 -0.5131 -0.0889 -0.4914
  627MOL0     C82643  10.316   9.969   3.967 -0.5023  1.3667 -0.0235
  627MOL0     C82644  10.258   9.934   4.097 -0.2830 -0.3944  0.2487
  627MOL0     C82645  10.123   9.886   4.073  0.4513  0.5941 -0.2753
  627MOL0     C82646  10.060   9.839   4.207 -0.4770  0.4134 -0.4939
  627MOL0     C82647   9.946   9.743   4.174  0.1752 -0.0000 -0.1606
  627MOL0     C82648   9.857   9.729   4.304 -0.4222 -0.6464  0.4856
  627MOL0     N82649   9.794   9.860   4.335  0.6800  0.6589  0.2716
  627MOL0     C82650   9.710   9.871   4.441 -0.2961  0.0204 -0.4897
  627MOL0     C82651   9.625   9.967   4.416  0.1226  0.4168  0.0448
  627MOL0     C82652   9.499   9.999   4.482 -0.2758  0.5442 -0.1774
  627MOL0     C82653   9.403   9.877   4.451  0.8902  0.0850 -0.7133
  627MOL0     C82654   9.295   9.867   4.560  1.0193  0.5895  0.7182
  627MOL0     C82655   9.206   9.736   4.533 -0.8387 -0.3771 -0.2486
  627MOL0     O82656   9.278   9.627   4.589 -0.3677  0.0734 -0.4904
  627MOL0     C82657   9.276   9.619   4.723  0.5107  0.4456 -0.6395
  627MOL0     C82658   9.351   9.510   4.775  0.8095 -0.2002  0.0495
  627MOL0     C82659   9.343   9.485   4.908  0.5394 -0.3280  1.3181
  627MOL0     C82660   9.269   9.552   4.997  0.0391 -0.4686 -0.0155
  627MOL0     C82661   9.264   9.514   5.145 -0.0050 -0.3764  0.0514
  627MOL0     O82662   9.183   9.595   5.219  0.0760 -0.0460  0.0581
  627MOL0     C82663   9.136   9.561   5.347  0.2236  0.2228  0.2136
  627MOL0     C82664   9.034   9.641   5.398  0.0605  0.5613 -0.0059
  627MOL0     C82665   8.968   9.621   5.520 -0.0223  0.0192  0.3950
  627MOL0     C82666   8.994   9.512   5.599 -0.6739  0.8053  0.8429
  627MOL0     O82667   8.940   9.488   5.718  0.5685  0.2315 -1.0038
  627MOL0     C82668   8.940   9.601   5.805  1.0646  1.0640 -0.3689
  627MOL0     C82669   8.881   9.574   5.944 -0.5641 -0.3112  0.0656
  627MOL0     C82670   8.727   9.556   5.938  0.8982  0.0343 -0.7694
  627MOL0     C82671   8.657   9.527   6.076  0.4692  0.3532 -0.0778
  627MOL0     C82672   8.680   9.375   6.131  0.4409 -0.1593  0.6778
  627MOL0     C82673   8.610   9.259   6.051 -0.5063 -0.1952 -0.5772
  627MOL0     C82674   8.661   9.135   6.116  0.7701  0.2256 -0.2952
  627MOL0     C82675   8.632   9.012   6.022 -0.9544  0.5805  0.5331
  627MOL0    Cl82676   8.766   9.004   5.900 -0.4115 -0.2750  0.1739
  627MOL0     C82677   9.095   9.421   5.548  0.1706  0.2361  0.4065
  627MOL0     C82678   9.161   9.447   5.425 -0.0857 -1.2563 -0.4114
  627MOL0     O82679   9.324   9.414   5.177  0.4478  0.3345 -0.0787
  627MOL0     C82680   9.188   9.657   4.947 -1.0454  0.4395  0.4042
  627MOL0     C82681   9.190   9.687   4.814  0.0356  0.2585 -0.6222
  627MOL0     N82682   9.669  10.030   4.301 -0.0133 -0.5753  0.2984
  627MOL0     N82683   9.760   9.957   4.249  0.2123 -0.0660 -0.2401
  627MOL0     C82684  10.495  10.025   3.503  0.3216  0.1406 -0.2033
  627MOL0     C82685  10.553  10.065   3.384 -0.2020  0.8568  0.2670
  627MOL0     C82686  10.885   9.997   3.080 -0.0102  0.1199 -1.0924
  627MOL0     C82687  10.909   9.900   2.976  0.3148  0.3236  1.1626
  627MOL0     C82688  11.025   9.896   2.901 -0.6464 -1.0831 -0.7615
  627MOL0     C82689  11.126   9.991   2.919 -1.0614  0.8229 -0.7430
  627MOL0     O82690  11.240   9.984   2.843  0.5976  0.1256 -0.3745
  627MOL0     C82691  11.246   9.927   2.709 -0.0539 -0.8618 -0.4426
  627MOL0     C82692  11.325   9.791   2.720  0.7645  0.4331  0.1298
  627MOL0     C82693  11.466   9.822   2.711 -0.5194 -0.7181  0.1567
  627MOL0     C82694  11.568   9.711   2.719  0.0846  0.2752 -0.3868
  627MOL0     C82695  11.581   9.681   2.863 -0.8317  0.2505  0.3119
  627MOL0     C82696  11.609   9.650   2.977  1.0473 -0.3771  0.5349
  627MOL0     C82697  11.107  10.087   3.018 -0.2216 -0.5058 -0.1602
  627MOL0     C82698  10.992  10.090   3.099 -0.5534  1.1440  0.8198
  627MOL0     H82699  10.866  10.125   3.487  1.5243 -2.8866 -1.5808
  627MOL0     H82700  10.760  10.071   3.705 -1.9111  1.9927  0.9189
  627MOL0     H82701  10.463  10.152   3.837  0.5244 -0.4942 -0.9752
  627MOL0     H82702  10.630  10.086   3.876  0.5562  2.5186 -1.6072
  627MOL0     H82703  10.487  10.053   4.066  1.0182  0.2466 -1.0779
  627MOL0     H82704  10.519   9.899   3.988  2.2164  1.4299 -0.4580
  627MOL0     H82705  10.298   9.898   3.886  1.5711  0.9000 -0.1354
  627MOL0     H82706  10.277  10.063   3.927 -0.2970  0.7012 -1.8718
  627MOL0     H82707  10.327   9.867   4.149 -1.7553 -1.6415  0.6385
  627MOL0     H82708  10.258  10.025   4.158  1.7294  0.6655 -1.1761
  627MOL0     H82709  10.129   9.797   4.009  2.4926  1.3366 -1.1954
  627MOL0     H82710  10.064   9.961   4.020 -0.2245 -1.6252 -2.9139
  627MOL0     H82711  10.023   9.930   4.254 -1.0767  0.2847 -0.7017
  627MOL0     H82712  10.140   9.803   4.272  0.0299 -0.0480 -1.3524
  627MOL0     H82713   9.880   9.767   4.090 -3.6666 -0.0337  2.5599
  627MOL0     H82714  10.009   9.656   4.154  1.0721  0.9034 -1.4495
  627MOL0     H82715   9.923   9.710   4.389  0.5311  0.0755 -0.0851
  627MOL0     H82716   9.784   9.648   4.296  0.8837 -1.9777  1.3389
  627MOL0     H82717   9.711   9.805   4.528 -0.8211 -2.6521 -2.4033
  627MOL0     H82718   9.463  10.084   4.423  1.7372  0.5471 -1.4875
  627MOL0     H82719   9.512  10.017   4.589  1.6999  1.2565 -0.4986
  627MOL0     H82720   9.457   9.782   4.451  0.9602  0.0890  0.8853
  627MOL0     H82721   9.355   9.910   4.359 -0.1183  1.1024  0.1504
  627MOL0     H82722   9.346   9.857   4.657  3.5116  0.8059 -0.4720
  627MOL0     H82723   9.227   9.952   4.572  1.7946  1.2629  0.4326
  627MOL0     H82724   9.167   9.723   4.432 -0.5495  3.6868 -1.0245
  627MOL0     H82725   9.108   9.743   4.581 -1.6481 -0.6254 -1.8057
  627MOL0     H82726   9.413   9.442   4.718  0.1715  0.2995 -1.2909
  627MOL0     H82727   9.394   9.394   4.939 -0.8624 -1.0561  1.5897
  627MOL0     H82728   9.003   9.734   5.351 -1.9130  0.3184  0.7213
  627MOL0     H82729   8.892   9.693   5.549 -0.2692  0.1906 -0.6242
  627MOL0     H82730   8.887   9.681   5.754  2.5199  0.1615 -3.5626
  627MOL0     H82731   9.046   9.627   5.810  0.4488  4.7178 -2.5788
  627MOL0     H82732   8.905   9.657   6.011  0.8902 -1.3652  0.9053
  627MOL0     H82733   8.934   9.490   5.992 -2.4283 -0.2293  2.4676
  627MOL0     H82734   8.712   9.466   5.878  1.3032 -0.5168 -0.0499
  627MOL0     H82735   8.675   9.645   5.900  1.3733  0.9024  0.5465
  627MOL0     H82736   8.701   9.593   6.151 -0.1071  1.5484 -0.7651
  627MOL0     H82737   8.552   9.555   6.086  1.0380  1.9036  2.5511
  627MOL0     H82738   8.664   9.371   6.240 -0.8886  0.8095  0.5403
  627MOL0     H82739   8.788   9.358   6.131  0.5259  0.3391 -0.1927
  627MOL0     H82740   8.635   9.261   5.945 -2.4806  1.5305 -1.0820
  627MOL0     H82741   8.501   9.262   6.065 -0.5337  1.4334 -0.9514
  627MOL0     H82742   8.765   9.139   6.150  0.5313  0.3746  0.4342
  627MOL0     H82743   8.596   9.121   6.203 -1.2453  1.1818 -1.5671
  627MOL0     H82744   8.540   9.021   5.964  0.4838  1.5054 -1.7582
  627MOL0     H82745   8.644   8.918   6.077 -1.1030 -0.8859 -1.8298
  627MOL0     H82746   9.119   9.326   5.595 -1.1434  0.5839  1.8534
  627MOL0     H82747   9.224   9.369   5.385  2.9669  1.5903 -1.6278
  627MOL0     H82748   9.131   9.717   5.016  1.2188  0.1199  2.7037
  627MOL0     H82749   9.154   9.783   4.778  1.2899  2.2237  2.8114
  627MOL0     H82750  10.388  10.009   3.504 -0.1387  2.7281  0.8068
  627MOL0     H82751  10.500  10.062   3.290 -0.6454  0.5885  0.5199
  627MOL0     H82752  10.836   9.825   2.947  1.5209 -0.9095  1.1961
  627MOL0     H82753  11.035   9.822   2.822  3.1616  0.6341 -2.1453
  627MOL0     H82754  11.291   9.998   2.639  0.6801 -1.6163 -0.7559
  627MOL0     H82755  11.144   9.901   2.678 -1.7301  1.8149  2.2844
  627MOL0     H82756  11.288   9.733   2.804  2.1405 -0.9592 -0.1780
  627MOL0     H82757  11.296   9.736   2.630  2.8622 -0.6438  0.0647
  627MOL0     H82758  11.485   9.900   2.785 -3.6596  0.4739 -0.1779
  627MOL0     H82759  11.481   9.854   2.608  3.1069 -0.7910  0.5203
  627MOL0     H82760  11.524   9.631   2.659 -1.6527 -0.8514  2.2171
  627MOL0     H82761  11.667   9.740   2.681  0.6736 -0.8421  0.2441
  627MOL0     H82762  11.625   9.634   3.082  0.5043  1.8886  0.9993
  627MOL0     H82763  11.181  10.164   3.042 -0.4443 -0.6105  0.8987
  627MOL0     H82764  10.989  10.159   3.183 -4.5656  1.4993  0.5648
  628MOL0     O82765  10.872   7.683   6.086 -0.4179 -0.4362 -0.5563
  628MOL0     C82766  10.918   7.761   6.011 -0.6115  0.1738  0.4255
  628MOL0     O82767  10.876   7.769   5.880 -0.3693 -0.1535 -0.6051
  628MOL0     C82768  10.764   7.697   5.854 -0.1427  0.3388 -0.3162
  628MOL0     C82769  10.746   7.599   5.747  0.3922 -0.3017 -0.0723
  628MOL0     C82770  10.621   7.561   5.708 -0.1359 -0.4499  0.5210
  628MOL0     C82771  10.496   7.602   5.767  0.0976  0.0942 -0.1632
  628MOL0     O82772  10.375   7.573   5.716  0.3445  0.3545  0.3969
  628MOL0     C82773  10.349   7.611   5.580  0.1908 -0.0762  0.5144
  628MOL0     C82774  10.199   7.618   5.536  0.1690 -0.1195 -0.6638
  628MOL0     C82775  10.115   7.742   5.570  0.4272 -0.0740  1.5279
  628MOL0     C82776  10.081   7.751   5.717 -0.0164 -0.0074  1.3119
  628MOL0     C82777  10.018   7.886   5.741  0.2830 -0.1589 -0.5044
  628MOL0     C82778   9.980   7.907   5.888  0.4723  0.5573 -0.7428
  628MOL0     C82779  10.098   7.886   5.975  0.0105  0.7412 -0.5545
  628MOL0     C82780  10.099   7.947   6.120  0.1629  0.4813  0.3354
  628MOL0     N82781  10.108   8.093   6.124 -0.5835 -1.0511  0.6289
  628MOL0     C82782  10.002   8.179   6.124  0.3233  0.1061 -0.6383
  628MOL0     C82783  10.047   8.301   6.116 -0.2719 -0.3442 -0.5806
  628MOL0     C82784   9.974   8.434   6.142 -0.0614  0.1751  0.4720
  628MOL0     C82785   9.859   8.458   6.037 -0.4478  0.2183  0.5710
  628MOL0     C82786   9.754   8.565   6.070 -0.4754  0.6915 -0.1119
  628MOL0     C82787   9.676   8.619   5.957 -0.4580  0.7416  0.0214
  628MOL0     O82788   9.614   8.518   5.888 -0.1663  0.3413 -0.1539
  628MOL0     C82789   9.492   8.459   5.937 -0.9386 -0.4206 -0.3034
  628MOL0     C82790   9.402   8.534   6.027 -0.0333  0.2900 -0.1454
  628MOL0     C82791   9.288   8.474   6.084  0.0694 -0.5060 -0.4664
  628MOL0     C82792   9.248   8.341   6.045 -0.0894  0.6658  0.7243
  628MOL0     C82793   9.123   8.288   6.094 -0.0502 -1.0092  0.2860
  628MOL0     O82794   9.124   8.151   6.101 -0.7208  0.5274  0.5244
  628MOL0     C82795   9.015   8.089   6.152  0.3173 -1.0513 -0.6513
  628MOL0     C82796   8.950   8.126   6.273 -0.4705 -0.1726  0.9684
  628MOL0     C82797   8.850   8.040   6.326 -0.2721 -0.0531  0.2859
  628MOL0     C82798   8.808   7.925   6.255 -0.5845  0.2104 -0.4270
  628MOL0     O82799   8.723   7.833   6.311 -0.0040 -0.1596  0.7816
  628MOL0     C82800   8.589   7.883   6.361  1.6467  0.0151  0.7030
  628MOL0     C82801   8.466   7.837   6.277 -0.1336 -0.1412  1.0663
  628MOL0     C82802   8.476   7.884   6.128 -0.6141  0.2292  0.5266
  628MOL0     C82803   8.348   7.873   6.034 -0.3973  0.2013  1.0150
  628MOL0     C82804   8.263   7.751   6.058 -0.1867  0.0991 -0.5574
  628MOL0     C82805   8.184   7.702   5.943 -0.2678  0.4859  0.1247
  628MOL0     C82806   8.049   7.771   5.907  0.1391 -0.4500  0.3197
  628MOL0     C82807   7.930   7.742   5.993  0.1566  0.0960 -0.4886
  628MOL0    Cl82808   7.864   7.586   5.955 -0.3506 -0.0954  0.2385
  628MOL0     C82809   8.856   7.907   6.128 -0.3059 -0.3129  0.9444
  628MOL0     C82810   8.960   7.986   6.073  0.1877 -0.2269  0.0480
  628MOL0     O82811   9.035   8.365   6.132 -0.3498  0.1847 -0.4696
  628MOL0     C82812   9.322   8.278   5.944  0.3601  0.4166 -0.2270
  628MOL0     C82813   9.445   8.336   5.894 -0.4524  0.1664  1.0320
  628MOL0     N82814  10.189   8.290   6.112  0.1328  0.0682  0.4639
  628MOL0     N82815  10.221   8.168   6.106  0.8205  0.5369 -0.4926
  628MOL0     C82816  10.510   7.692   5.875  0.1338  0.6768  0.6993
  628MOL0     C82817  10.637   7.744   5.918 -0.2970 -0.1696  0.2796
  628MOL0     C82818  11.032   7.845   6.054 -0.4783 -0.3411 -0.2632
  628MOL0     C82819  11.065   7.955   5.975  0.0847 -0.2524 -0.2144
  628MOL0     C82820  11.143   8.057   6.023 -1.0942  0.0065 -0.4983
  628MOL0     C82821  11.201   8.052   6.152  0.2276  0.2542  0.1221
  628MOL0     O82822  11.278   8.152   6.191 -0.8390  0.2131  0.2531
  628MOL0     C82823  11.281   8.199   6.327  0.0311 -0.1247  0.3033
  628MOL0     C82824  11.391   8.133   6.415  0.0192 -0.5605  1.2219
  628MOL0     C82825  11.531   8.155   6.356 -0.2964 -0.0453 -0.1579
  628MOL0     C82826  11.638   8.197   6.464 -0.1985 -0.6281  0.1684
  628MOL0     C82827  11.761   8.229   6.391 -0.0467 -0.3300 -0.7787
  628MOL0     C82828  11.856   8.263   6.325 -0.1246  0.2341  0.7142
  628MOL0     C82829  11.158   7.953   6.235  0.3282 -0.7005 -0.1895
  628MOL0     C82830  11.075   7.848   6.189 -0.1140 -0.1660 -0.7820
  628MOL0     H82831  10.831   7.563   5.692 -1.1353 -1.3403 -1.8698
  628MOL0     H82832  10.613   7.496   5.621 -2.6946  0.4064  0.0338
  628MOL0     H82833  10.403   7.543   5.513  2.9109  0.4233  2.0790
  628MOL0     H82834  10.397   7.709   5.574  3.1881 -1.4008  1.0760
  628MOL0     H82835  10.149   7.525   5.562  0.4003 -0.4629 -1.3941
  628MOL0     H82836  10.210   7.606   5.427  1.6889 -1.0272 -0.4497
  628MOL0     H82837  10.026   7.749   5.508  1.2934 -0.3606  0.2067
  628MOL0     H82838  10.184   7.824   5.548  3.1174 -2.7893 -1.1415
  628MOL0     H82839  10.016   7.668   5.749 -1.7048 -0.8313 -3.4781
  628MOL0     H82840  10.173   7.750   5.776 -0.0472  1.4626  1.4135
  628MOL0     H82841   9.924   7.884   5.686 -0.7110 -1.2327  1.1392
  628MOL0     H82842  10.077   7.965   5.692 -1.4533  1.8907  0.5246
  628MOL0     H82843   9.906   7.832   5.917 -1.7173  2.7008 -0.4705
  628MOL0     H82844   9.929   8.001   5.909 -1.6920 -1.0383  1.6310
  628MOL0     H82845  10.103   7.777   5.984 -0.1649  0.5561 -2.3524
  628MOL0     H82846  10.186   7.921   5.920  1.4051 -1.0618  0.4049
  628MOL0     H82847  10.192   7.910   6.164  1.0168  2.3369  0.1636
  628MOL0     H82848  10.006   7.913   6.167  0.6166  0.2355  1.0653
  628MOL0     H82849   9.895   8.160   6.132  0.0030  1.8578 -0.4158
  628MOL0     H82850  10.037   8.523   6.142 -1.7366  1.4166 -0.7839
  628MOL0     H82851   9.927   8.426   6.241  0.4885 -0.3586  0.7004
  628MOL0     H82852   9.796   8.369   6.025  0.0110 -0.3115  1.9645
  628MOL0     H82853   9.911   8.472   5.942  2.1689 -0.6866  1.7963
  628MOL0     H82854   9.683   8.513   6.135  0.4759 -0.5970 -0.0639
  628MOL0     H82855   9.798   8.649   6.125 -4.0260  1.8130  1.2998
  628MOL0     H82856   9.741   8.677   5.891 -0.1412  1.5001  0.9736
  628MOL0     H82857   9.607   8.687   6.007 -0.0120  0.7265  0.6661
  628MOL0     H82858   9.419   8.634   6.065  1.0384 -0.5900  1.8692
  628MOL0     H82859   9.224   8.528   6.152 -0.3617 -1.0492 -0.4388
  628MOL0     H82860   8.968   8.204   6.347  1.6495 -2.7705  3.4514
  628MOL0     H82861   8.804   8.061   6.422  1.4500  0.2516  1.0833
  628MOL0     H82862   8.585   7.993   6.369 -1.7852  0.3188 -2.5367
  628MOL0     H82863   8.577   7.838   6.460  0.5446 -3.6232 -0.9129
  628MOL0     H82864   8.371   7.865   6.324 -1.0385  3.6514 -2.4339
  628MOL0     H82865   8.466   7.728   6.278  1.4629 -0.2111 -0.8273
  628MOL0     H82866   8.554   7.825   6.079  0.2317  2.6544 -1.2248
  628MOL0     H82867   8.525   7.982   6.128  2.4802 -1.1995  0.2303
  628MOL0     H82868   8.281   7.958   6.051  1.7522  1.9397  1.3134
  628MOL0     H82869   8.383   7.875   5.931 -2.6984 -1.5110  0.1179
  628MOL0     H82870   8.198   7.759   6.146 -0.3693 -1.8468 -0.4662
  628MOL0     H82871   8.330   7.667   6.082  2.5454  2.3328  0.1422
  628MOL0     H82872   8.165   7.596   5.960 -1.3359  0.9866  2.5128
  628MOL0     H82873   8.247   7.701   5.853  0.3382 -0.9547  0.5461
  628MOL0     H82874   8.067   7.879   5.909  1.4252 -0.6581  1.7799
  628MOL0     H82875   8.020   7.747   5.805 -3.1627  0.7060  0.8490
  628MOL0     H82876   7.853   7.819   5.979  1.0549  1.2680  0.7185
  628MOL0     H82877   7.959   7.748   6.098 -2.4048 -0.8851  0.3480
  628MOL0     H82878   8.823   7.818   6.076 -0.6196  0.6154 -0.4978
  628MOL0     H82879   9.003   7.966   5.975  1.8260  0.0593  0.6794
  628MOL0     H82880   9.297   8.180   5.905 -0.3022  0.2049  0.7069
  628MOL0     H82881   9.493   8.275   5.817  0.5526  0.2607  1.5699
  628MOL0     H82882  10.421   7.717   5.930  1.0802  0.1787  2.5413
  628MOL0     H82883  10.636   7.815   6.000 -3.0701  0.2606 -0.0465
  628MOL0     H82884  11.032   7.942   5.872  3.1020 -2.5258 -1.0523
  628MOL0     H82885  11.177   8.141   5.963  1.0176 -0.2769  0.1985
  628MOL0     H82886  11.181   8.188   6.370  0.6672 -0.6919  1.6754
  628MOL0     H82887  11.295   8.306   6.316 -3.5050  0.3497 -0.9504
  628MOL0     H82888  11.369   8.176   6.513 -0.0732  1.8228  0.2238
  628MOL0     H82889  11.375   8.026   6.429 -1.7398 -0.3085  1.4436
  628MOL0     H82890  11.528   8.237   6.283  0.8649  3.0158  2.9465
  628MOL0     H82891  11.555   8.067   6.297  0.0742 -1.2390  1.6787
  628MOL0     H82892  11.595   8.288   6.507  2.3205  0.3445  0.7829
  628MOL0     H82893  11.651   8.110   6.529  2.8384 -2.2758 -2.3500
  628MOL0     H82894  11.950   8.292   6.282 -1.2442  1.0181 -1.3179
  628MOL0     H82895  11.197   7.941   6.335  0.1855  1.7770  0.2231
  628MOL0     H82896  11.041   7.773   6.261 -0.4035  1.9788  1.4722
  629MOL0     O82897   1.334  10.275  10.952  0.1357  0.0451 -0.0349
  629MOL0     C82898   1.381  10.296  11.064  0.2054 -0.1002  0.1601
  629MOL0     O82899   1.317  10.282  11.181 -0.8007 -0.5104  0.1086
  629MOL0     C82900   1.198  10.224  11.174 -0.5752 -1.3089 -0.1327
  629MOL0     C82901   1.076  10.299  11.172  0.2390  0.0514 -0.0553
  629MOL0     C82902   0.947  10.243  11.173  0.1631  0.1845 -0.3179
  629MOL0     C82903   0.947  10.101  11.188 -0.0444  0.5084  0.6631
  629MOL0     O82904   0.825  10.045  11.157 -1.0341  0.4913  0.2342
  629MOL0     C82905   0.794   9.911  11.224  0.6342  0.9770 -0.0027
  629MOL0     C82906   0.644   9.898  11.246 -0.2468 -0.8157  0.0970
  629MOL0     C82907   0.549   9.875  11.122 -0.0608  0.1230  0.0780
  629MOL0     C82908   0.407   9.876  11.161 -0.0438 -0.3877  0.6049
  629MOL0     C82909   0.312   9.846  11.045 -0.8484  0.7838  0.9460
  629MOL0     C82910   0.173   9.809  11.096  0.4008 -0.3158  0.0089
  629MOL0     C82911   0.094   9.926  11.157 -0.6916  0.3825  0.7144
  629MOL0     C82912  -0.064   9.921  11.145  0.9376 -0.6036 -0.7573
  629MOL0     N82913  -0.104   9.811  11.235 -0.3703  0.0781  0.5788
  629MOL0     C82914  -0.143   9.831  11.366  1.0604 -1.0087 -0.1814
  629MOL0     C82915  -0.166   9.699  11.410 -0.2812 -1.2417 -0.0101
  629MOL0     C82916  -0.213   9.673  11.551  0.5272 -1.0616 -0.0192
  629MOL0     C82917  -0.366   9.701  11.565 -0.0502 -0.3045 -1.1966
  629MOL0     C82918  -0.418   9.672  11.697  0.6254 -0.7002  0.4786
  629MOL0     C82919  -0.571   9.664  11.711 -0.5195  0.6730 -0.4202
  629MOL0     O82920  -0.631   9.797  11.702  0.1358 -0.0383  0.1984
  629MOL0     C82921  -0.765   9.801  11.666 -0.1322  0.3698  0.7646
  629MOL0     C82922  -0.858   9.689  11.667  0.3126 -0.6590  0.1603
  629MOL0     C82923  -0.993   9.708  11.630 -0.7001 -0.2691 -0.0033
  629MOL0     C82924  -1.048   9.834  11.615 -0.4271  0.4958 -0.1562
  629MOL0     C82925  -1.195   9.847  11.586  0.5664  0.6619  0.1650
  629MOL0     O82926  -1.262   9.739  11.535  0.2463  0.1580  0.3272
  629MOL0     C82927  -1.392   9.772  11.504 -0.3693 -0.2206  0.7293
  629MOL0     C82928  -1.429   9.815  11.378  1.2205 -0.0193  0.0804
  629MOL0     C82929  -1.559   9.855  11.347 -0.4961  0.1797  0.1761
  629MOL0     C82930  -1.663   9.855  11.441 -0.3490 -0.7147  0.5632
  629MOL0     O82931  -1.794   9.894  11.421  0.6812  1.2986  0.1028
  629MOL0     C82932  -1.818   9.924  11.286 -0.3745  0.3825 -0.2344
  629MOL0     C82933  -1.968   9.924  11.291 -0.5304 -0.0083  0.4521
  629MOL0     C82934  -2.015   9.970  11.149 -0.2722  0.1692 -0.5520
  629MOL0     C82935  -2.164   9.993  11.141 -0.3821  0.2079 -0.8170
  629MOL0     C82936  -2.204  10.035  11.003  0.0007 -0.6175  0.4446
  629MOL0     C82937  -2.359  10.046  11.000  0.1618 -0.8494  0.3340
  629MOL0     C82938  -2.408  10.094  10.859  0.2034 -0.2331  0.3304
  629MOL0     C82939  -2.553  10.043  10.847 -0.9995  0.4829  0.9368
  629MOL0    Cl82940  -2.661  10.084  10.976 -0.1217  0.5209  0.1704
  629MOL0     C82941  -1.626   9.803  11.562  0.6947 -0.3500  0.6149
  629MOL0     C82942  -1.495   9.765  11.595  0.9092 -0.0540 -1.3303
  629MOL0     O82943  -1.237   9.956  11.590 -0.2342  0.1378  0.3133
  629MOL0     C82944  -0.958   9.941  11.620 -0.3114 -0.0767  0.1928
  629MOL0     C82945  -0.817   9.924  11.641 -0.1676 -0.1068  0.4496
  629MOL0     N82946  -0.151   9.613  11.305  0.1852 -0.7345 -0.7663
  629MOL0     N82947  -0.114   9.680  11.199 -0.3977  0.0677  0.0970
  629MOL0     C82948   1.066  10.027  11.210 -0.2286 -0.4967  0.7975
  629MOL0     C82949   1.189  10.089  11.199  0.3316 -0.7861  0.0235
  629MOL0     C82950   1.524  10.331  11.073 -0.1494 -0.2048  0.6649
  629MOL0     C82951   1.607  10.294  10.962 -0.0944 -0.5110 -0.3386
  629MOL0     C82952   1.746  10.292  10.974 -0.4791  0.0876 -0.0072
  629MOL0     C82953   1.803  10.361  11.092  0.6459  0.0009 -0.2515
  629MOL0     O82954   1.939  10.363  11.113  0.8038 -0.0205 -0.4956
  629MOL0     C82955   2.033  10.282  11.036  0.6139  0.0590  0.4407
  629MOL0     C82956   2.081  10.362  10.910  0.1785 -0.4568 -0.9065
  629MOL0     C82957   2.204  10.303  10.847  0.3200 -0.7426 -0.4846
  629MOL0     C82958   2.190  10.163  10.801 -0.2323  0.5013  0.6618
  629MOL0     C82959   2.056  10.128  10.735 -0.0441  0.9248 -0.9526
  629MOL0     C82960   1.960  10.088  10.674  0.4709 -0.3809 -0.2137
  629MOL0     C82961   1.716  10.412  11.197  0.3531  0.1943  0.1560
  629MOL0     C82962   1.582  10.391  11.188 -0.5093 -0.2952 -0.6092
  629MOL0     H82963   1.073  10.405  11.151  0.2859  0.1871  0.6117
  629MOL0     H82964   0.864  10.304  11.139 -0.0372  1.0054  1.5435
  629MOL0     H82965   0.841   9.897  11.321 -0.7283 -4.5377  0.1822
  629MOL0     H82966   0.827   9.832  11.156 -1.9440  0.6778 -1.0354
  629MOL0     H82967   0.618   9.992  11.295  4.0255  1.4185 -1.4305
  629MOL0     H82968   0.621   9.820  11.320 -0.6651  0.1937  1.0544
  629MOL0     H82969   0.577   9.787  11.063  0.6248 -0.8061  1.7263
  629MOL0     H82970   0.556   9.962  11.055  3.1258 -1.4358 -1.8765
  629MOL0     H82971   0.384   9.815  11.249 -0.8757 -0.3221  0.4411
  629MOL0     H82972   0.392   9.976  11.204  0.7346 -0.0877  0.1934
  629MOL0     H82973   0.355   9.768  10.982 -1.2674  2.1322 -1.0903
  629MOL0     H82974   0.300   9.934  10.981 -1.1068 -0.4522 -0.7512
  629MOL0     H82975   0.176   9.726  11.167 -2.2345 -1.1716 -0.7583
  629MOL0     H82976   0.117   9.775  11.009 -0.2284  0.4838  0.0931
  629MOL0     H82977   0.126   9.939  11.260  0.3666 -1.2031  0.6231
  629MOL0     H82978   0.112  10.018  11.101  2.4527  1.0270  2.5774
  629MOL0     H82979  -0.096   9.905  11.042 -0.9524 -1.1451 -0.1378
  629MOL0     H82980  -0.107  10.018  11.172  1.7476 -0.5052  0.2742
  629MOL0     H82981  -0.144   9.922  11.425  3.5703  0.2112 -1.8651
  629MOL0     H82982  -0.156   9.721  11.631  1.4713 -1.7668 -0.2425
  629MOL0     H82983  -0.197   9.566  11.569  1.3754 -0.9294  0.0504
  629MOL0     H82984  -0.420   9.632  11.500 -0.1115 -0.0116 -1.4633
  629MOL0     H82985  -0.382   9.808  11.545 -0.7969  0.5376  3.0322
  629MOL0     H82986  -0.396   9.567  11.719  0.3729 -0.3220  2.8099
  629MOL0     H82987  -0.366   9.727  11.775  1.6321 -3.5832  1.9859
  629MOL0     H82988  -0.608   9.598  11.790 -3.2870  0.7779 -1.5239
  629MOL0     H82989  -0.604   9.612  11.621  0.9232  0.2404 -0.7287
  629MOL0     H82990  -0.826   9.587  11.688  1.8945  0.0837  1.5857
  629MOL0     H82991  -1.056   9.620  11.624  0.5979 -1.3323  1.2345
  629MOL0     H82992  -1.369   9.832  11.289  0.4542  1.9031 -0.1257
  629MOL0     H82993  -1.577   9.873  11.242 -0.4677 -3.0058 -0.4931
  629MOL0     H82994  -1.789   9.851  11.209  3.3406 -0.4539  1.7425
  629MOL0     H82995  -1.777  10.023  11.266  0.4912 -0.2209 -1.5971
  629MOL0     H82996  -2.001   9.995  11.368 -2.5285 -2.2110  1.7484
  629MOL0     H82997  -2.019   9.828  11.304 -1.4385  0.0224 -2.2641
  629MOL0     H82998  -1.988   9.897  11.072 -2.9518 -1.2595 -0.2455
  629MOL0     H82999  -1.966  10.063  11.119 -0.4295 -0.0525 -1.5028
  629MOL0     H83000  -2.221   9.901  11.159  1.5253 -0.3776  3.6172
  629MOL0     H83001  -2.182  10.071  11.216 -0.5101 -0.0797 -0.5461
  629MOL0     H83002  -2.170   9.968  10.923 -1.2310  0.9636 -1.4972
  629MOL0     H83003  -2.164  10.134  10.978  1.5298 -1.2254  0.4099
  629MOL0     H83004  -2.386  10.120  11.075  3.3782  0.6948  0.1494
  629MOL0     H83005  -2.401   9.953  11.038 -1.4830  0.6809  2.4867
  629MOL0     H83006  -2.412  10.204  10.865  0.4258  0.2941 -4.7042
  629MOL0     H83007  -2.346  10.067  10.772 -3.5688  0.1171 -2.7433
  629MOL0     H83008  -2.542   9.935  10.853  2.3140  0.7792  2.2308
  629MOL0     H83009  -2.594  10.055  10.746  0.3412  0.8340  0.4065
  629MOL0     H83010  -1.704   9.798  11.637 -0.5091  2.2454 -0.3433
  629MOL0     H83011  -1.472   9.731  11.696 -2.9304  1.1858  0.1451
  629MOL0     H83012  -0.988  10.044  11.604 -0.7508 -0.7045 -4.1500
  629MOL0     H83013  -0.757  10.013  11.654 -0.5606  0.6108 -2.0493
  629MOL0     H83014   1.090   9.925  11.236  1.4324  0.2650  2.4778
  629MOL0     H83015   1.282  10.034  11.201 -0.0798 -1.5505 -1.1145
  629MOL0     H83016   1.571  10.254  10.868 -0.0052 -0.3345 -0.4504
  629MOL0     H83017   1.802  10.247  10.893 -0.0858  0.1230  0.2424
  629MOL0     H83018   1.990  10.185  11.012  0.8241 -0.5060  2.2111
  629MOL0     H83019   2.115  10.263  11.107  0.5478  0.2872  0.5810
  629MOL0     H83020   2.005  10.372  10.831  0.3193  1.5549 -0.8405
  629MOL0     H83021   2.100  10.463  10.949  0.3144 -1.0765  0.6802
  629MOL0     H83022   2.289  10.326  10.912  0.4955  0.1360 -0.9975
  629MOL0     H83023   2.209  10.364  10.756  2.1530 -1.2152 -0.7485
  629MOL0     H83024   2.274  10.127  10.741  0.2573  1.6069  0.6658
  629MOL0     H83025   2.192  10.093  10.886  2.3465 -2.3081 -1.4968
  629MOL0     H83026   1.861  10.078  10.633  0.8116 -0.4925 -1.0135
  629MOL0     H83027   1.767  10.448  11.285 -0.1345  0.8446  0.1771
  629MOL0     H83028   1.521  10.402  11.278  1.1596  1.6625  0.3625
  630MOL0     O83029   3.856   9.191  10.842  0.1325  0.0126  0.0715
  630MOL0     C83030   3.861   9.162  10.955 -0.0109  0.0335 -0.7832
  630MOL0     O83031   3.933   9.057  11.003  0.5670  0.8392 -0.4106
  630MOL0     C83032   4.046   9.026  10.930  0.7530 -0.2781 -0.3986
  630MOL0     C83033   4.155   9.102  10.953  0.7986 -0.3184  0.7920
  630MOL0     C83034   4.271   9.076  10.877  0.0736 -0.2196 -0.8474
  630MOL0     C83035   4.286   8.975  10.788 -0.5752 -0.1268  0.5312
  630MOL0     O83036   4.403   8.949  10.709 -0.0985 -0.2049 -0.2907
  630MOL0     C83037   4.528   8.937  10.767 -0.2941  0.0237 -0.1348
  630MOL0     C83038   4.618   8.852  10.685 -0.2629 -0.0480  0.3471
  630MOL0     C83039   4.662   8.917  10.554  0.6374 -0.2622  0.2068
  630MOL0     C83040   4.695   8.806  10.458  0.5344  0.3182 -0.9157
  630MOL0     C83041   4.744   8.861  10.326  0.9451  0.3498  0.2946
  630MOL0     C83042   4.758   8.756  10.226  0.4650 -0.6512 -0.0618
  630MOL0     C83043   4.843   8.632  10.249 -0.2421 -0.7066  0.0206
  630MOL0     C83044   4.829   8.526  10.131  0.1491 -0.0199 -0.0191
  630MOL0     N83045   4.863   8.591   9.997 -0.0615  0.3252 -0.1929
  630MOL0     C83046   4.989   8.610   9.952  0.4384 -0.0189  0.3671
  630MOL0     C83047   4.976   8.663   9.831  0.3161 -0.8995  0.3077
  630MOL0     C83048   5.086   8.679   9.734 -0.1956 -0.1281 -0.6183
  630MOL0     C83049   5.144   8.543   9.677  0.6354  0.0905  0.2333
  630MOL0     C83050   5.036   8.463   9.605 -0.2682 -0.2979 -0.2676
  630MOL0     C83051   4.961   8.528   9.493  0.2866 -0.2602 -0.4969
  630MOL0     O83052   4.886   8.446   9.400  1.0349  1.2254 -0.6366
  630MOL0     C83053   4.757   8.400   9.433 -0.4109 -0.4181  0.1053
  630MOL0     C83054   4.688   8.431   9.552  1.7436 -0.1877 -0.1191
  630MOL0     C83055   4.563   8.379   9.580  0.2682 -0.2132 -0.0727
  630MOL0     C83056   4.498   8.303   9.481 -0.1392  0.1155  0.8927
  630MOL0     C83057   4.355   8.266   9.509  0.3994 -1.0399  0.6855
  630MOL0     O83058   4.311   8.279   9.636  0.3629  1.1111  0.5479
  630MOL0     C83059   4.176   8.257   9.666 -0.1889 -0.2726  0.2879
  630MOL0     C83060   4.082   8.355   9.640  0.6032  0.1839 -0.2209
  630MOL0     C83061   3.954   8.330   9.692  0.9514  0.2193  0.5375
  630MOL0     C83062   3.910   8.220   9.763 -0.6067 -0.6046 -0.7312
  630MOL0     O83063   3.784   8.208   9.820 -0.1192  0.2910 -0.4233
  630MOL0     C83064   3.683   8.202   9.713 -0.4379  0.7804 -0.2546
  630MOL0     C83065   3.543   8.201   9.777  0.2328 -0.4106 -0.4102
  630MOL0     C83066   3.522   8.083   9.877 -0.1011  0.0583  0.4805
  630MOL0     C83067   3.398   8.099   9.962  0.8874  1.0827 -0.0336
  630MOL0     C83068   3.406   8.210  10.060  0.5432 -0.2826  0.3996
  630MOL0     C83069   3.284   8.225  10.145  0.5223 -0.5749  0.2427
  630MOL0     C83070   3.157   8.265  10.058  1.1361  0.1999 -0.8991
  630MOL0     C83071   3.048   8.323  10.144 -0.9692 -0.2785 -0.3634
  630MOL0    Cl83072   2.986   8.197  10.263 -0.2827 -0.3877  0.1816
  630MOL0     C83073   4.008   8.126   9.786  0.0688 -0.2287  0.1485
  630MOL0     C83074   4.141   8.142   9.738  0.6019 -0.3512  0.7954
  630MOL0     O83075   4.289   8.233   9.408  0.5592  0.1056  0.1800
  630MOL0     C83076   4.561   8.276   9.361  0.6829 -0.1266 -0.6700
  630MOL0     C83077   4.691   8.318   9.342  0.5730 -0.2849  0.4440
  630MOL0     N83078   4.837   8.677   9.812  0.0615 -0.1754  0.4535
  630MOL0     N83079   4.773   8.640   9.915  0.5876  0.1191  0.4435
  630MOL0     C83080   4.165   8.903  10.761 -1.2185  0.2567  0.1489
  630MOL0     C83081   4.047   8.930  10.829  0.2945  0.6818 -0.1905
  630MOL0     C83082   3.752   9.210  11.042 -0.4022 -0.1597  0.1338
  630MOL0     C83083   3.729   9.141  11.164 -0.2259  1.0282  0.1007
  630MOL0     C83084   3.636   9.196  11.247 -1.1612 -1.1102 -0.7708
  630MOL0     C83085   3.567   9.312  11.224 -0.1277  0.0445 -0.5591
  630MOL0     O83086   3.480   9.375  11.311 -0.4743 -0.5403  0.6520
  630MOL0     C83087   3.468   9.338  11.441 -0.6233  0.4530 -0.9136
  630MOL0     C83088   3.586   9.380  11.524 -0.7862 -0.0532  0.0652
  630MOL0     C83089   3.570   9.517  11.587 -1.1410 -0.0936  1.0843
  630MOL0     C83090   3.473   9.536  11.698 -0.1714 -0.3758 -1.0173
  630MOL0     C83091   3.511   9.451  11.817 -0.3554 -0.3316 -0.2221
  630MOL0     C83092   3.570   9.382  11.901 -0.7282 -0.1210  1.1080
  630MOL0     C83093   3.572   9.365  11.091 -0.2368  0.2889  1.0008
  630MOL0     C83094   3.667   9.310  11.001 -0.1582  0.1849 -0.2979
  630MOL0     H83095   4.170   9.178  11.030  0.2995  2.1219 -1.3790
  630MOL0     H83096   4.352   9.146  10.897 -0.3876  0.0897  0.0102
  630MOL0     H83097   4.525   8.884  10.862  0.8258 -1.1033 -0.6975
  630MOL0     H83098   4.573   9.034  10.785 -0.5079  0.2725 -0.8894
  630MOL0     H83099   4.561   8.763  10.656 -1.8329  2.0146 -3.6064
  630MOL0     H83100   4.699   8.830  10.755 -1.9170 -1.7132  1.8469
  630MOL0     H83101   4.740   8.992  10.570  1.3173 -0.8841 -0.1236
  630MOL0     H83102   4.579   8.973  10.511  1.3020 -0.0156 -0.7839
  630MOL0     H83103   4.781   8.753  10.500  0.8360  2.5539  1.5728
  630MOL0     H83104   4.599   8.756  10.441  0.1929  1.4699 -2.6933
  630MOL0     H83105   4.844   8.905  10.333  0.7705  1.0807 -1.2605
  630MOL0     H83106   4.676   8.941  10.293  0.0428 -1.2260 -1.8821
  630MOL0     H83107   4.789   8.803  10.132  0.0918 -0.4109 -0.0665
  630MOL0     H83108   4.651   8.734  10.214  0.9288 -2.6259 -0.9497
  630MOL0     H83109   4.947   8.666  10.254  0.7759 -2.5534 -4.0516
  630MOL0     H83110   4.828   8.579  10.343  0.4651 -1.0304 -0.0390
  630MOL0     H83111   4.725   8.493  10.125  0.9145 -2.6968 -0.1437
  630MOL0     H83112   4.886   8.432  10.134 -1.1977 -1.0418 -2.6381
  630MOL0     H83113   5.081   8.579   9.999  1.4503  1.7248 -0.3447
  630MOL0     H83114   5.161   8.745   9.779  0.5045  0.2569 -2.2720
  630MOL0     H83115   5.045   8.735   9.649 -1.8557 -0.1507  0.1296
  630MOL0     H83116   5.188   8.489   9.761 -4.4610 -1.0326  2.5579
  630MOL0     H83117   5.224   8.575   9.610 -0.9767  0.2696 -1.6867
  630MOL0     H83118   5.091   8.378   9.563  1.7973  0.0309  1.6111
  630MOL0     H83119   4.962   8.433   9.680  1.6596 -2.1936  0.9907
  630MOL0     H83120   5.025   8.586   9.426  0.0978  0.1680 -0.3098
  630MOL0     H83121   4.900   8.608   9.536  0.2205 -0.2782 -0.5583
  630MOL0     H83122   4.741   8.500   9.618  2.3034  1.0526 -1.8011
  630MOL0     H83123   4.511   8.395   9.674 -0.8205 -0.2576 -0.6531
  630MOL0     H83124   4.103   8.450   9.592 -0.8854  0.9102  0.5163
  630MOL0     H83125   3.879   8.407   9.681  0.5573 -0.2937 -0.5476
  630MOL0     H83126   3.691   8.117   9.645 -2.5854  0.3363 -0.0240
  630MOL0     H83127   3.694   8.284   9.642  1.5443  1.6699  0.9789
  630MOL0     H83128   3.459   8.214   9.707 -0.6520  0.4870  0.7809
  630MOL0     H83129   3.545   8.293   9.835 -0.8458  0.9624 -2.4079
  630MOL0     H83130   3.612   8.064   9.938 -0.3901  0.9714  1.2099
  630MOL0     H83131   3.497   7.999   9.811  1.7667 -0.1493 -0.0441
  630MOL0     H83132   3.313   8.111   9.895  0.1102 -1.3422  0.4132
  630MOL0     H83133   3.384   8.007  10.020 -2.0328  2.3722  1.5105
  630MOL0     H83134   3.414   8.305  10.006 -1.5471 -1.3786 -2.0709
  630MOL0     H83135   3.492   8.212  10.128 -0.0362  3.4509  1.2523
  630MOL0     H83136   3.300   8.292  10.230 -2.3692 -0.0579  0.4803
  630MOL0     H83137   3.258   8.132  10.197  2.7008 -0.5519  1.4929
  630MOL0     H83138   3.194   8.341   9.989  1.5058  0.1407 -0.7692
  630MOL0     H83139   3.096   8.191  10.003 -1.0389  0.9443  0.3899
  630MOL0     H83140   2.966   8.342  10.074 -0.4515 -0.3522 -1.0041
  630MOL0     H83141   3.097   8.410  10.188 -1.8828  1.2415 -2.1864
  630MOL0     H83142   3.969   8.039   9.838 -2.4594  1.4248  1.2032
  630MOL0     H83143   4.217   8.068   9.763  0.9803 -1.0799 -2.0803
  630MOL0     H83144   4.507   8.242   9.273 -1.6700 -4.1739  2.0390
  630MOL0     H83145   4.730   8.296   9.243  1.2887 -0.5391  0.7760
  630MOL0     H83146   4.167   8.837  10.675 -0.5298 -1.4344  1.3888
  630MOL0     H83147   3.958   8.875  10.801  1.0359  0.1258 -1.5939
  630MOL0     H83148   3.775   9.048  11.195 -1.6928  0.9472  2.1636
  630MOL0     H83149   3.601   9.146  11.337 -2.4706 -1.1383 -1.2794
  630MOL0     H83150   3.449   9.232  11.461  0.1150  0.6354  0.9527
  630MOL0     H83151   3.373   9.381  11.473 -1.3309  0.3108 -2.7014
  630MOL0     H83152   3.605   9.310  11.607  0.8454  1.8129  1.3660
  630MOL0     H83153   3.671   9.376  11.455  0.5235 -0.6821  1.6296
  630MOL0     H83154   3.543   9.590  11.510  1.3710 -1.4883 -1.2754
  630MOL0     H83155   3.667   9.546  11.628 -0.4288 -1.3099  0.3040
  630MOL0     H83156   3.481   9.640  11.729  4.6487 -1.8639  4.4512
  630MOL0     H83157   3.365   9.523  11.680 -0.8995  1.0144  1.7049
  630MOL0     H83158   3.615   9.316  11.973  2.3795 -0.2165 -0.7393
  630MOL0     H83159   3.522   9.461  11.082  0.7919  1.0496  2.7250
  630MOL0     H83160   3.675   9.348  10.899  1.9579  2.3327  0.5758
  631MOL0     O83161   7.466   3.619  10.541 -0.0086  0.4161  0.1308
  631MOL0     C83162   7.571   3.668  10.504  0.3814  0.4949 -0.0674
  631MOL0     O83163   7.579   3.753  10.395 -0.2883  1.1796 -0.4805
  631MOL0     C83164   7.471   3.799  10.324 -0.2333  0.1786  0.2066
  631MOL0     C83165   7.380   3.699  10.285  1.4167 -0.1561  0.2752
  631MOL0     C83166   7.264   3.732  10.206  0.1073 -0.3451  0.7329
  631MOL0     C83167   7.241   3.861  10.159  0.7671  0.4518 -0.0035
  631MOL0     O83168   7.128   3.878  10.077 -0.2275 -0.1786  0.2556
  631MOL0     C83169   7.047   4.008  10.076  0.5672  0.7572 -0.2133
  631MOL0     C83170   6.900   3.963  10.060 -0.1636  0.5367 -0.1996
  631MOL0     C83171   6.817   4.066   9.983 -0.0092 -0.4472 -0.2202
  631MOL0     C83172   6.676   3.997   9.976  0.6482 -0.2800 -0.6320
  631MOL0     C83173   6.567   4.091   9.925  0.1197 -0.5813 -0.0103
  631MOL0     C83174   6.452   4.008   9.864  0.3447 -0.0661 -0.8897
  631MOL0     C83175   6.337   4.094   9.819 -0.0168  0.1197  0.0680
  631MOL0     C83176   6.375   4.200   9.723  0.0088  0.0299  0.6922
  631MOL0     N83177   6.251   4.265   9.678  0.2029  0.4008  0.0662
  631MOL0     C83178   6.185   4.376   9.718 -0.0312  0.4756 -0.0680
  631MOL0     C83179   6.070   4.373   9.654  0.2712  0.1695  0.2556
  631MOL0     C83180   5.974   4.489   9.644  0.2607 -0.4560 -0.9961
  631MOL0     C83181   5.861   4.488   9.754 -0.1023  0.7844 -0.4368
  631MOL0     C83182   5.754   4.604   9.729 -0.5138  0.1319 -0.6874
  631MOL0     C83183   5.820   4.733   9.684  0.2860 -1.0303 -0.5609
  631MOL0     O83184   5.720   4.829   9.639 -0.1473  0.2595  0.6993
  631MOL0     C83185   5.699   4.929   9.726 -0.5727 -0.0370 -0.6205
  631MOL0     C83186   5.798   5.003   9.790 -0.5356  0.1442  0.1507
  631MOL0     C83187   5.777   5.114   9.862  0.3454  0.7639 -0.1270
  631MOL0     C83188   5.650   5.146   9.904 -0.9792 -0.3231 -0.1800
  631MOL0     C83189   5.627   5.256   9.998 -0.6378  0.2750 -1.1491
  631MOL0     O83190   5.737   5.337  10.025  0.1938  0.9110 -0.1317
  631MOL0     C83191   5.729   5.456  10.092  0.1995 -1.1327  0.4172
  631MOL0     C83192   5.620   5.513  10.164  0.0070 -0.6245  0.7015
  631MOL0     C83193   5.638   5.636  10.232 -0.3422  0.5432 -0.6183
  631MOL0     C83194   5.758   5.709  10.237 -0.1629 -0.8239  0.4234
  631MOL0     O83195   5.781   5.817  10.318  0.2621  0.1958  0.9212
  631MOL0     C83196   5.802   5.948  10.255 -0.4763  0.1863  0.6822
  631MOL0     C83197   5.691   6.046  10.295  0.1515  0.5519 -0.2943
  631MOL0     C83198   5.554   6.012  10.224 -0.5518 -0.0444 -0.1073
  631MOL0     C83199   5.421   6.055  10.299  0.2547 -0.2678  0.5739
  631MOL0     C83200   5.400   5.969  10.428  0.4345 -0.5067 -0.1823
  631MOL0     C83201   5.264   6.008  10.505 -0.2030  0.8796  0.6225
  631MOL0     C83202   5.143   5.956  10.429  0.1505  0.0116  1.0588
  631MOL0     C83203   5.019   5.974  10.513  0.5249 -0.7931  0.3215
  631MOL0    Cl83204   4.959   6.146  10.498 -0.0880 -0.1379  0.1286
  631MOL0     C83205   5.860   5.652  10.159 -1.2202  0.4582  0.2035
  631MOL0     C83206   5.840   5.539  10.086 -0.6585  0.6701  1.0663
  631MOL0     O83207   5.525   5.250  10.064  0.0842 -0.0778  0.4351
  631MOL0     C83208   5.545   5.077   9.850 -0.1371 -0.4471  0.8798
  631MOL0     C83209   5.573   4.975   9.756  0.0097 -0.2157 -0.2360
  631MOL0     N83210   6.068   4.267   9.566  0.3512 -0.6008 -0.1774
  631MOL0     N83211   6.174   4.193   9.594 -0.3935 -0.0104  0.5628
  631MOL0     C83212   7.330   3.962  10.203  0.3856 -0.6498  0.4209
  631MOL0     C83213   7.451   3.929  10.273 -0.2044 -1.0114  0.0137
  631MOL0     C83214   7.686   3.641  10.586 -0.0422 -0.3374  0.7053
  631MOL0     C83215   7.804   3.722  10.591 -0.0394 -0.2012  0.8251
  631MOL0     C83216   7.919   3.675  10.661 -0.1291  0.0971  0.3297
  631MOL0     C83217   7.931   3.545  10.717 -0.3911  0.0453  0.2367
  631MOL0     O83218   8.054   3.500  10.756  0.1518  0.3673  0.0252
  631MOL0     C83219   8.068   3.376  10.826  0.3845 -0.2913  0.1181
  631MOL0     C83220   8.209   3.325  10.866 -0.4084  1.2240 -0.1771
  631MOL0     C83221   8.273   3.395  10.989  0.0334  0.8712 -0.7425
  631MOL0     C83222   8.401   3.331  11.032  0.6147 -0.7162  0.5689
  631MOL0     C83223   8.522   3.349  10.951 -0.1187  0.8646 -0.0275
  631MOL0     C83224   8.630   3.344  10.890  0.8118 -0.2790  0.7384
  631MOL0     C83225   7.803   3.478  10.736  0.0407 -1.4796 -0.7547
  631MOL0     C83226   7.688   3.526  10.668 -0.3653 -0.5086  0.4152
  631MOL0     H83227   7.387   3.594  10.310 -1.5213 -0.1216  1.6983
  631MOL0     H83228   7.192   3.657  10.174  0.8823 -2.0383  2.7011
  631MOL0     H83229   7.083   4.068   9.992  0.5683  1.3816  0.2313
  631MOL0     H83230   7.059   4.065  10.168 -0.2143  3.4573 -1.6797
  631MOL0     H83231   6.875   3.935  10.162 -1.2820 -0.4121 -0.7098
  631MOL0     H83232   6.896   3.871  10.000  0.4143 -0.7093  1.5742
  631MOL0     H83233   6.860   4.093   9.886  0.4621  0.8229  0.3220
  631MOL0     H83234   6.792   4.161  10.032  0.6455 -0.5118  0.2414
  631MOL0     H83235   6.680   3.918   9.900 -3.6026 -1.2577 -0.0722
  631MOL0     H83236   6.636   3.969  10.074 -1.0841  2.4406 -0.4597
  631MOL0     H83237   6.605   4.151   9.842  1.6918 -3.1539 -1.2945
  631MOL0     H83238   6.542   4.150  10.014  6.2721 -1.7785  3.0592
  631MOL0     H83239   6.412   3.932   9.931 -0.1624  1.9173  1.1970
  631MOL0     H83240   6.487   3.955   9.775 -3.2947 -0.2056 -2.4221
  631MOL0     H83241   6.263   4.029   9.770 -0.2837 -0.5275  1.2958
  631MOL0     H83242   6.299   4.149   9.905  2.0986 -0.1066  1.2245
  631MOL0     H83243   6.425   4.151   9.639  1.0287  0.4363  1.0499
  631MOL0     H83244   6.445   4.265   9.776  0.0006 -0.7751  1.7212
  631MOL0     H83245   6.223   4.457   9.779 -0.8288  2.7714 -2.4211
  631MOL0     H83246   5.932   4.482   9.543  0.4290  0.2884 -1.1195
  631MOL0     H83247   6.014   4.589   9.657 -0.4824 -0.2965  0.2083
  631MOL0     H83248   5.905   4.486   9.854 -2.7750 -0.4550  0.8235
  631MOL0     H83249   5.816   4.389   9.743  0.9231  0.0575  1.5146
  631MOL0     H83250   5.693   4.565   9.647  1.5375 -1.0470 -1.7330
  631MOL0     H83251   5.692   4.616   9.819  0.0895 -0.2200 -0.2222
  631MOL0     H83252   5.881   4.732   9.593 -0.3446  2.0942 -1.1337
  631MOL0     H83253   5.879   4.755   9.773  0.3647 -1.6070 -0.4720
  631MOL0     H83254   5.902   4.984   9.767 -0.5347  1.2195 -0.8117
  631MOL0     H83255   5.868   5.161   9.897  1.3120 -1.0978 -0.0542
  631MOL0     H83256   5.521   5.469  10.159 -1.0443  1.6659 -0.2000
  631MOL0     H83257   5.555   5.665  10.294  1.0878  0.2119  1.5587
  631MOL0     H83258   5.812   5.948  10.146 -1.0316  1.3701  0.6184
  631MOL0     H83259   5.902   5.986  10.278 -1.2378  4.1910 -1.6922
  631MOL0     H83260   5.716   6.152  10.282  2.4857  0.2735  1.1936
  631MOL0     H83261   5.677   6.024  10.401  2.8252  0.0403  0.0382
  631MOL0     H83262   5.546   5.903  10.223 -1.3970 -0.0018  0.5980
  631MOL0     H83263   5.546   6.040  10.118  0.5586 -3.1174 -1.1030
  631MOL0     H83264   5.415   6.162  10.318 -0.2139 -0.5613  2.2356
  631MOL0     H83265   5.336   6.037  10.233 -0.9653  0.1140  1.9868
  631MOL0     H83266   5.481   5.988  10.499  0.1991 -5.5765  1.8515
  631MOL0     H83267   5.407   5.864  10.401 -2.6041  0.1335 -4.4023
  631MOL0     H83268   5.258   6.117  10.518  1.1287  0.9904  0.4596
  631MOL0     H83269   5.268   5.955  10.601  0.5447 -1.6087 -0.6949
  631MOL0     H83270   5.129   6.005  10.332  1.5657 -1.1196  0.2363
  631MOL0     H83271   5.167   5.852  10.404  3.6292  0.4910  1.8965
  631MOL0     H83272   5.047   5.939  10.613  0.1771  1.5406  1.2813
  631MOL0     H83273   4.939   5.907  10.479 -1.1718  0.4361  1.7125
  631MOL0     H83274   5.959   5.696  10.152 -1.5537  0.9279 -3.2208
  631MOL0     H83275   5.927   5.511  10.028 -2.4311  0.0646 -1.4600
  631MOL0     H83276   5.443   5.104   9.876 -0.0241  3.5132 -1.7900
  631MOL0     H83277   5.491   4.918   9.711  0.1690 -0.2161 -0.5293
  631MOL0     H83278   7.323   4.064  10.169 -0.0454 -0.4349  1.1362
  631MOL0     H83279   7.513   4.014  10.299 -0.1225 -0.0951 -2.8372
  631MOL0     H83280   7.812   3.819  10.544  0.7604 -1.6678 -2.3316
  631MOL0     H83281   7.996   3.751  10.652  1.1282 -1.1327  0.5873
  631MOL0     H83282   8.021   3.300  10.764 -0.2930 -0.0901  0.3745
  631MOL0     H83283   8.014   3.392  10.921 -0.7684  0.7645 -0.6770
  631MOL0     H83284   8.194   3.219  10.887 -0.1215  1.4143  1.0255
  631MOL0     H83285   8.275   3.326  10.778 -0.5701 -0.6873 -0.3628
  631MOL0     H83286   8.209   3.376  11.075  3.2268 -3.0742  1.1178
  631MOL0     H83287   8.290   3.501  10.969  1.1804  0.7027 -0.7252
  631MOL0     H83288   8.426   3.352  11.137  0.3333  1.4317  0.2602
  631MOL0     H83289   8.381   3.224  11.043 -0.9878 -0.4766  0.2365
  631MOL0     H83290   8.726   3.336  10.843  0.6622 -3.2790  0.7792
  631MOL0     H83291   7.798   3.392  10.802  0.5516  0.6302  2.2525
  631MOL0     H83292   7.602   3.460  10.674 -0.8175  0.1428  1.3412
  632MOL0     O83293   3.929   7.495   3.007  0.4128  0.4323  0.7172
  632MOL0     C83294   3.936   7.604   3.048 -0.1154 -0.8611 -0.3030
  632MOL0     O83295   3.830   7.683   3.082  0.0088 -0.0452 -0.3163
  632MOL0     C83296   3.702   7.660   3.058  0.7929 -0.7268  0.3302
  632MOL0     C83297   3.639   7.561   2.989  0.6233 -0.9308  0.2017
  632MOL0     C83298   3.505   7.558   2.955  0.4455 -0.6568  0.7327
  632MOL0     C83299   3.425   7.664   2.983 -0.4331  0.5717 -0.4379
  632MOL0     O83300   3.291   7.659   2.949  0.2026 -0.3219 -0.6105
  632MOL0     C83301   3.194   7.733   3.023  0.7444  0.1560  0.6004
  632MOL0     C83302   3.148   7.833   2.916  1.0069 -0.4725 -0.0549
  632MOL0     C83303   3.074   7.770   2.801 -0.1116  0.3002 -0.5367
  632MOL0     C83304   2.966   7.654   2.839  0.1774  0.3102  1.3429
  632MOL0     C83305   2.847   7.686   2.930 -0.0374  0.5543  1.1079
  632MOL0     C83306   2.710   7.680   2.859  1.1174  0.2622 -0.1617
  632MOL0     C83307   2.677   7.804   2.787  0.2975 -0.0117 -0.5141
  632MOL0     C83308   2.525   7.796   2.730 -0.4776 -0.0832 -0.7050
  632MOL0     N83309   2.474   7.915   2.662  0.7401  0.2207 -0.3569
  632MOL0     C83310   2.414   8.034   2.715  0.8506  0.8293 -0.6534
  632MOL0     C83311   2.406   8.116   2.606 -0.0737  0.2431 -0.0322
  632MOL0     C83312   2.352   8.255   2.614  0.1729 -0.9724  0.0562
  632MOL0     C83313   2.228   8.286   2.701  1.1998 -0.4336  0.1053
  632MOL0     C83314   2.178   8.428   2.666  0.1942  0.5125  0.1993
  632MOL0     C83315   2.063   8.470   2.756 -0.9340  0.6072 -0.7041
  632MOL0     O83316   1.949   8.380   2.730  0.4717  0.1197 -0.7353
  632MOL0     C83317   1.815   8.431   2.753 -0.8263  0.7080 -0.2849
  632MOL0     C83318   1.783   8.554   2.806  0.0872 -0.8531 -1.1186
  632MOL0     C83319   1.644   8.585   2.823  0.4779  0.0389 -0.9837
  632MOL0     C83320   1.542   8.500   2.786 -0.4104  0.0060 -0.0408
  632MOL0     C83321   1.400   8.539   2.803 -0.7390 -0.6560  0.5392
  632MOL0     O83322   1.367   8.660   2.867 -0.1527 -0.6061 -0.4391
  632MOL0     C83323   1.238   8.692   2.900 -0.0626 -1.1656 -0.5224
  632MOL0     C83324   1.227   8.815   2.981  0.1026  0.5015 -0.5426
  632MOL0     C83325   1.101   8.869   3.012  0.4900  0.3010 -0.3657
  632MOL0     C83326   0.983   8.807   2.968 -0.5046 -0.3431  0.0777
  632MOL0     O83327   0.857   8.851   3.000 -0.0831  0.0394  0.3913
  632MOL0     C83328   0.793   8.947   2.911  0.0574 -0.2840  0.1193
  632MOL0     C83329   0.763   8.909   2.768  0.9073  0.9979 -0.2493
  632MOL0     C83330   0.638   8.821   2.780  0.7585  0.5767  0.5255
  632MOL0     C83331   0.597   8.778   2.635 -1.1051  0.0162  0.0835
  632MOL0     C83332   0.472   8.702   2.624 -0.3051 -0.8282  0.0041
  632MOL0     C83333   0.440   8.689   2.479 -0.0491  0.2717  0.2158
  632MOL0     C83334   0.310   8.619   2.456  0.8301  0.4246  0.9373
  632MOL0     C83335   0.224   8.671   2.331 -0.1140 -1.1833 -0.5166
  632MOL0    Cl83336   0.081   8.565   2.332  0.0544  0.4696  0.4439
  632MOL0     C83337   0.996   8.689   2.892 -0.2557  0.3950 -0.5095
  632MOL0     C83338   1.118   8.637   2.855 -0.4925  0.5449 -0.0423
  632MOL0     O83339   1.320   8.454   2.766 -0.0434 -1.1717 -0.6083
  632MOL0     C83340   1.581   8.380   2.731  0.0432 -0.0579 -0.9246
  632MOL0     C83341   1.714   8.344   2.716  0.6463  0.8171  0.1078
  632MOL0     N83342   2.449   8.054   2.493 -0.6100  0.1700 -0.0411
  632MOL0     N83343   2.501   7.936   2.532 -0.2472  0.9414 -0.5648
  632MOL0     C83344   3.480   7.774   3.053  0.2592 -0.5963  0.7369
  632MOL0     C83345   3.616   7.771   3.087 -0.7135 -0.2158  0.0526
  632MOL0     C83346   4.067   7.654   3.063 -0.5881 -0.4440  0.2802
  632MOL0     C83347   4.094   7.777   3.113 -0.3112 -0.2531  0.1836
  632MOL0     C83348   4.227   7.818   3.130  0.6079  0.7016  0.5234
  632MOL0     C83349   4.332   7.739   3.100 -0.2009  0.1077 -0.5373
  632MOL0     O83350   4.465   7.775   3.087  0.2760 -0.6183  0.2346
  632MOL0     C83351   4.498   7.898   3.142  0.1821 -0.2302 -0.6812
  632MOL0     C83352   4.647   7.923   3.132  0.3350 -0.6432  0.6086
  632MOL0     C83353   4.703   8.054   3.189 -0.2187 -1.1359 -0.2025
  632MOL0     C83354   4.637   8.179   3.128 -0.7658 -0.0290  0.0164
  632MOL0     C83355   4.698   8.297   3.192  0.2874  0.0077  0.7001
  632MOL0     C83356   4.763   8.386   3.245  0.5835 -0.3367  0.1966
  632MOL0     C83357   4.306   7.616   3.048  0.8755  0.6685  0.0595
  632MOL0     C83358   4.179   7.568   3.042  0.7570 -0.0139 -0.2621
  632MOL0     H83359   3.711   7.488   2.954  1.7250 -0.4515  1.3990
  632MOL0     H83360   3.471   7.468   2.907  0.7591 -1.2334  1.5619
  632MOL0     H83361   3.218   7.796   3.109 -3.0274  0.1225  1.9001
  632MOL0     H83362   3.110   7.675   3.063 -0.5985  1.6896  0.1273
  632MOL0     H83363   3.221   7.903   2.875  2.9266 -2.2036  0.2621
  632MOL0     H83364   3.066   7.884   2.968 -2.4793 -2.2572 -3.2620
  632MOL0     H83365   3.153   7.728   2.738 -0.8327 -1.2956 -0.4251
  632MOL0     H83366   3.023   7.850   2.746 -0.9140 -0.0009 -0.2580
  632MOL0     H83367   2.937   7.621   2.739 -0.4752  2.0600  0.9281
  632MOL0     H83368   3.024   7.573   2.884  0.1906 -2.0369 -2.4930
  632MOL0     H83369   2.872   7.785   2.971  0.8599  1.4891 -1.4943
  632MOL0     H83370   2.849   7.613   3.012 -2.0511  0.5098  1.1716
  632MOL0     H83371   2.635   7.654   2.935  2.5776  0.8199  1.5190
  632MOL0     H83372   2.701   7.596   2.790  0.8155  1.0949 -1.1609
  632MOL0     H83373   2.691   7.884   2.860 -0.8475 -0.0868 -0.2000
  632MOL0     H83374   2.754   7.816   2.711  1.3230  1.1599  0.6486
  632MOL0     H83375   2.466   7.781   2.821 -1.6104 -4.8542 -1.9431
  632MOL0     H83376   2.503   7.699   2.684 -2.8965  0.4127 -0.7531
  632MOL0     H83377   2.379   8.057   2.815  0.7368 -0.6977 -0.3178
  632MOL0     H83378   2.333   8.273   2.508 -0.1839 -0.5263  0.1985
  632MOL0     H83379   2.439   8.315   2.642  1.0786 -2.8578  1.5543
  632MOL0     H83380   2.252   8.269   2.806  3.9960 -3.6110 -0.9054
  632MOL0     H83381   2.148   8.220   2.665  1.6123  0.3617 -2.4519
  632MOL0     H83382   2.250   8.507   2.691 -0.7637  1.3354  0.4304
  632MOL0     H83383   2.149   8.434   2.561  0.3551  1.4413  0.2012
  632MOL0     H83384   2.044   8.574   2.730 -0.8574  0.8811  0.3282
  632MOL0     H83385   2.077   8.462   2.864 -0.6044 -0.7660 -0.8331
  632MOL0     H83386   1.845   8.640   2.830 -0.7280 -0.4514 -0.3777
  632MOL0     H83387   1.622   8.671   2.885  2.6338 -0.8740  1.2455
  632MOL0     H83388   1.319   8.860   3.017  0.4334 -0.2539 -0.4255
  632MOL0     H83389   1.094   8.950   3.083 -1.6764 -0.7206  0.6971
  632MOL0     H83390   0.859   9.034   2.917  0.9502 -1.0310  4.0231
  632MOL0     H83391   0.699   8.970   2.961  0.8419  0.1118  1.4681
  632MOL0     H83392   0.837   8.843   2.719 -2.4075 -4.3119  1.0488
  632MOL0     H83393   0.730   9.004   2.725 -0.4763 -0.4171 -2.5084
  632MOL0     H83394   0.561   8.889   2.820  1.1040  1.5279 -0.3645
  632MOL0     H83395   0.653   8.741   2.853  2.0751  0.1086 -0.2364
  632MOL0     H83396   0.584   8.866   2.572  0.8000  1.6087  1.7797
  632MOL0     H83397   0.675   8.716   2.590  0.0566 -1.2735  3.5373
  632MOL0     H83398   0.385   8.748   2.671 -0.0112  1.0312 -1.1728
  632MOL0     H83399   0.486   8.610   2.682 -1.1426 -0.5374  0.6948
  632MOL0     H83400   0.520   8.634   2.427  0.0088  2.5691 -2.3645
  632MOL0     H83401   0.448   8.783   2.424  2.2075 -0.8832 -1.6035
  632MOL0     H83402   0.326   8.515   2.427  0.0618  1.2237 -2.8795
  632MOL0     H83403   0.237   8.632   2.536 -1.2603 -0.6447 -0.6652
  632MOL0     H83404   0.259   8.665   2.228 -1.3495 -0.6250 -0.9838
  632MOL0     H83405   0.200   8.778   2.341  1.2493 -0.7242 -1.7882
  632MOL0     H83406   0.908   8.645   2.847 -1.7113  1.5906  1.0438
  632MOL0     H83407   1.102   8.559   2.781 -2.5032  3.6855 -3.2699
  632MOL0     H83408   1.495   8.319   2.706  2.1959 -2.5686 -2.7527
  632MOL0     H83409   1.735   8.242   2.683  2.3199  1.3028 -0.4227
  632MOL0     H83410   3.420   7.863   3.041 -1.6960 -2.0223 -0.5537
  632MOL0     H83411   3.665   7.860   3.127  0.8819  0.3724 -2.9055
  632MOL0     H83412   4.009   7.842   3.131  1.5044  2.7426 -1.2029
  632MOL0     H83413   4.238   7.922   3.159  1.0135  1.2173 -1.3198
  632MOL0     H83414   4.473   7.907   3.248 -1.2903  0.2307 -1.0581
  632MOL0     H83415   4.444   7.981   3.095 -1.7672  1.3391  3.8150
  632MOL0     H83416   4.687   7.844   3.196 -1.9683 -1.2151  1.4294
  632MOL0     H83417   4.679   7.906   3.029  0.2455 -2.8131  0.8895
  632MOL0     H83418   4.812   8.053   3.189 -0.1258  0.8397  1.8246
  632MOL0     H83419   4.675   8.045   3.294  2.3175 -0.1253  0.6284
  632MOL0     H83420   4.658   8.190   3.022  0.3939 -1.4853  0.0671
  632MOL0     H83421   4.530   8.164   3.146 -0.8550 -2.0717 -1.8440
  632MOL0     H83422   4.824   8.469   3.275  0.5120  0.9274 -2.7601
  632MOL0     H83423   4.384   7.545   3.024 -0.3281 -1.8474  2.8531
  632MOL0     H83424   4.156   7.467   3.011 -0.4627  0.7247 -1.8840
  633MOL0     O83425   5.487   8.111   7.328  0.0262  0.4067  0.2008
  633MOL0     C83426   5.439   8.034   7.240  0.5236 -0.2423  0.4708
  633MOL0     O83427   5.363   7.930   7.257 -0.3879  0.6448 -0.5480
  633MOL0     C83428   5.340   7.867   7.383  0.1117 -0.6833 -0.6749
  633MOL0     C83429   5.433   7.864   7.489  0.7851  0.5755  0.6018
  633MOL0     C83430   5.390   7.798   7.606 -0.5285 -0.6081  0.0784
  633MOL0     C83431   5.266   7.741   7.619  1.3278  0.8185  0.8092
  633MOL0     O83432   5.226   7.695   7.740 -0.3387  0.5159  0.3220
  633MOL0     C83433   5.102   7.728   7.792  0.6458  0.6333  0.1281
  633MOL0     C83434   5.082   7.643   7.915 -0.6624 -0.0057  0.5599
  633MOL0     C83435   5.016   7.728   8.021  0.7706  0.2785 -0.5902
  633MOL0     C83436   5.126   7.818   8.087  0.1490 -0.5624 -0.1081
  633MOL0     C83437   5.067   7.927   8.173 -0.0213 -1.0182 -0.9914
  633MOL0     C83438   5.167   8.011   8.247 -0.5100 -0.0953  0.0176
  633MOL0     C83439   5.108   8.092   8.366  1.0687  0.3215  0.3780
  633MOL0     C83440   5.040   8.214   8.303  0.1781 -0.5885  0.5103
  633MOL0     N83441   4.896   8.192   8.269  0.3738  0.2921 -0.2226
  633MOL0     C83442   4.802   8.157   8.364  1.2412 -0.0292  0.0626
  633MOL0     C83443   4.689   8.174   8.294  0.3834  0.6772  0.4790
  633MOL0     C83444   4.551   8.174   8.344  0.8330 -0.8869  0.3404
  633MOL0     C83445   4.484   8.312   8.342 -0.8517 -0.3551 -0.1252
  633MOL0     C83446   4.343   8.315   8.392  0.5078 -0.9091  0.2207
  633MOL0     C83447   4.240   8.253   8.291  0.0588  0.2494 -0.4159
  633MOL0     O83448   4.103   8.255   8.346 -0.1733 -0.1874  0.6336
  633MOL0     C83449   4.080   8.148   8.437 -1.3626  0.0859  0.7454
  633MOL0     C83450   4.045   8.017   8.389 -0.0141 -0.4040 -0.3882
  633MOL0     C83451   4.000   7.921   8.477 -0.0304 -0.9898  0.2635
  633MOL0     C83452   3.990   7.946   8.617 -0.2952  0.2544 -0.0095
  633MOL0     C83453   3.924   7.846   8.707 -1.0355 -0.2988 -0.2208
  633MOL0     O83454   3.889   7.902   8.835 -0.8218  0.8310  0.9690
  633MOL0     C83455   3.759   7.866   8.880 -0.4170  0.6277  0.1552
  633MOL0     C83456   3.656   7.815   8.800 -0.5412 -0.2241 -0.2434
  633MOL0     C83457   3.524   7.801   8.854  0.0294  0.6426 -0.6640
  633MOL0     C83458   3.501   7.827   8.985  0.4249  0.5025 -0.2136
  633MOL0     O83459   3.392   7.790   9.061  0.4083 -0.2217 -0.2809
  633MOL0     C83460   3.309   7.673   9.036 -0.6461 -0.1527 -0.5905
  633MOL0     C83461   3.205   7.663   9.143 -0.0152  0.1207  0.1326
  633MOL0     C83462   3.247   7.586   9.257  1.0719  0.1129 -0.8470
  633MOL0     C83463   3.206   7.642   9.394 -1.1498 -0.1059  0.3186
  633MOL0     C83464   3.234   7.545   9.512 -0.0702  0.0812 -0.1918
  633MOL0     C83465   3.110   7.445   9.532  0.1643 -1.3815  0.1488
  633MOL0     C83466   3.146   7.335   9.632 -0.2287  0.6248  0.8546
  633MOL0     C83467   3.039   7.313   9.737  0.0996  1.2846 -0.8576
  633MOL0    Cl83468   3.062   7.454   9.833  0.3262 -0.5729  0.5049
  633MOL0     C83469   3.601   7.892   9.059 -0.0697 -0.3863 -0.2082
  633MOL0     C83470   3.728   7.920   9.006 -0.6693  0.3325  0.0071
  633MOL0     O83471   3.891   7.737   8.664 -0.1295 -0.0366 -0.3428
  633MOL0     C83472   4.028   8.064   8.668 -0.8835 -0.5542  0.3913
  633MOL0     C83473   4.068   8.169   8.577  0.4242 -0.2516  0.6983
  633MOL0     N83474   4.717   8.191   8.159  0.6577 -0.8093 -0.1163
  633MOL0     N83475   4.841   8.224   8.148  0.0696  0.4731 -0.5431
  633MOL0     C83476   5.191   7.723   7.506 -0.3117 -0.2744  0.1684
  633MOL0     C83477   5.221   7.792   7.391 -0.3925  0.0579  0.3615
  633MOL0     C83478   5.456   8.070   7.104  0.9989  0.1497  0.8697
  633MOL0     C83479   5.541   8.172   7.071 -1.1571 -0.0129  0.2507
  633MOL0     C83480   5.552   8.207   6.934  0.1405 -0.6041 -0.1521
  633MOL0     C83481   5.477   8.157   6.832 -0.3151  0.1011  0.1597
  633MOL0     O83482   5.496   8.207   6.697 -0.3874  0.5425 -0.0496
  633MOL0     C83483   5.386   8.212   6.609 -0.4380 -0.5317  0.1614
  633MOL0     C83484   5.283   8.326   6.648 -0.0396 -1.0111 -0.1988
  633MOL0     C83485   5.332   8.476   6.646  0.1968  0.6820  0.5492
  633MOL0     C83486   5.221   8.584   6.636  0.2015 -0.1942  0.1561
  633MOL0     C83487   5.119   8.556   6.731  0.0896 -0.1087  0.1168
  633MOL0     C83488   5.033   8.529   6.804  0.5851  0.5254 -0.9247
  633MOL0     C83489   5.395   8.053   6.864  1.1925  0.2575  0.8872
  633MOL0     C83490   5.378   8.015   6.999 -1.2486  1.3548 -0.5619
  633MOL0     H83491   5.531   7.912   7.486  0.0280  2.2002  0.5517
  633MOL0     H83492   5.453   7.793   7.694  0.6283  1.6919 -0.5430
  633MOL0     H83493   5.022   7.710   7.720 -1.2805  2.3525  1.6956
  633MOL0     H83494   5.100   7.835   7.814 -2.6695  0.4303  1.3801
  633MOL0     H83495   5.178   7.607   7.952  0.0540 -0.8296 -1.9196
  633MOL0     H83496   5.032   7.550   7.887  1.0688 -1.8435  3.1420
  633MOL0     H83497   4.972   7.664   8.098 -0.6592  0.1139 -1.5180
  633MOL0     H83498   4.935   7.789   7.980  1.1145  1.8759  0.9782
  633MOL0     H83499   5.190   7.761   8.154 -0.2064  0.7024  1.3764
  633MOL0     H83500   5.190   7.863   8.011  0.9396  0.2197  1.0005
  633MOL0     H83501   5.019   7.874   8.256 -0.1180 -1.0501 -1.0679
  633MOL0     H83502   5.001   7.996   8.119  0.6911 -1.1406 -2.0465
  633MOL0     H83503   5.218   8.070   8.170 -2.2146  1.9832  0.4057
  633MOL0     H83504   5.241   7.947   8.296  0.9601  2.6765  1.6937
  633MOL0     H83505   5.049   8.023   8.428  1.7458 -0.8001 -0.1970
  633MOL0     H83506   5.189   8.130   8.429  0.6638  1.3868  0.2851
  633MOL0     H83507   5.093   8.233   8.209 -0.4342 -0.6005  0.1612
  633MOL0     H83508   5.066   8.296   8.371  1.2609 -1.0735  0.7064
  633MOL0     H83509   4.809   8.151   8.472 -2.4327  1.8259  0.5688
  633MOL0     H83510   4.537   8.122   8.439 -0.5303 -3.5151 -1.1775
  633MOL0     H83511   4.483   8.114   8.282  2.2618  0.1545 -2.4058
  633MOL0     H83512   4.489   8.350   8.240  3.9837 -4.2669 -1.7166
  633MOL0     H83513   4.543   8.382   8.400 -1.7364 -0.0107  0.3854
  633MOL0     H83514   4.339   8.252   8.481  0.8045 -1.0579  0.1324
  633MOL0     H83515   4.318   8.417   8.421  0.4548 -0.9458  0.3037
  633MOL0     H83516   4.266   8.150   8.266 -3.0608 -0.4340 -1.2634
  633MOL0     H83517   4.243   8.320   8.205 -1.8480 -0.9817 -1.4960
  633MOL0     H83518   4.031   7.991   8.284  1.3731  1.5781 -1.1362
  633MOL0     H83519   3.946   7.837   8.435  0.2497 -1.3599  0.6406
  633MOL0     H83520   3.665   7.784   8.696 -2.8914 -1.2732 -0.2164
  633MOL0     H83521   3.448   7.761   8.788 -1.1457  0.4917  0.7300
  633MOL0     H83522   3.374   7.586   9.044 -2.0039 -1.2577 -1.1581
  633MOL0     H83523   3.258   7.680   8.939 -2.3350 -1.8020  0.1249
  633MOL0     H83524   3.111   7.623   9.102  1.0018 -0.5691 -1.6271
  633MOL0     H83525   3.176   7.767   9.163  2.1453  0.6906  0.5710
  633MOL0     H83526   3.355   7.590   9.272  0.8836  2.6575  0.3914
  633MOL0     H83527   3.216   7.482   9.247  0.9364 -0.1878  1.8875
  633MOL0     H83528   3.271   7.728   9.412 -0.2422 -0.7900  0.4353
  633MOL0     H83529   3.101   7.672   9.392 -0.7961  1.9070  4.0170
  633MOL0     H83530   3.244   7.616   9.595 -2.1400 -0.9357  1.0002
  633MOL0     H83531   3.325   7.486   9.497 -0.5159 -0.8016  0.4367
  633MOL0     H83532   3.080   7.415   9.432  1.0829 -0.1781 -0.5189
  633MOL0     H83533   3.025   7.495   9.579 -1.3384 -2.3650 -1.4379
  633MOL0     H83534   3.150   7.241   9.577  2.0412  1.5057 -0.6259
  633MOL0     H83535   3.246   7.343   9.675  1.2548 -2.0401 -1.7328
  633MOL0     H83536   3.066   7.221   9.789  2.0961  2.4319  0.2768
  633MOL0     H83537   2.939   7.305   9.694  1.4048 -0.5222 -3.9342
  633MOL0     H83538   3.571   7.912   9.162  0.6592 -2.3615  0.4299
  633MOL0     H83539   3.814   7.971   9.048 -1.2679 -1.2559  3.5535
  633MOL0     H83540   4.026   8.084   8.775  1.0013 -3.0411  0.9639
  633MOL0     H83541   4.102   8.265   8.616 -1.1015 -0.0402  1.5819
  633MOL0     H83542   5.100   7.668   7.530  0.5393 -1.2929  1.1360
  633MOL0     H83543   5.151   7.785   7.308 -2.8589  0.5843  2.2691
  633MOL0     H83544   5.612   8.228   7.131  0.7482 -0.9161 -1.0461
  633MOL0     H83545   5.616   8.289   6.903 -2.5654  0.7797 -2.5488
  633MOL0     H83546   5.325   8.121   6.602 -0.8761 -0.0909 -3.6205
  633MOL0     H83547   5.419   8.216   6.505 -1.4506 -2.2084 -0.2782
  633MOL0     H83548   5.200   8.310   6.578 -2.1043 -3.2734  2.5195
  633MOL0     H83549   5.248   8.313   6.751 -0.6960  3.4650  0.3243
  633MOL0     H83550   5.410   8.489   6.570 -0.9949  1.0275 -0.6601
  633MOL0     H83551   5.380   8.496   6.742  0.7840 -0.8922  0.6200
  633MOL0     H83552   5.269   8.681   6.648 -1.1683  0.3764  1.3846
  633MOL0     H83553   5.169   8.572   6.540  0.6308  1.3953 -0.3076
  633MOL0     H83554   4.957   8.485   6.866 -0.6419  3.0141 -0.5229
  633MOL0     H83555   5.320   8.023   6.792  0.0724  2.6708  0.9584
  633MOL0     H83556   5.323   7.925   7.024  0.2089  0.8210  1.0055
  634MOL0     O83557   5.101  10.330   0.375 -0.1193 -0.7874  0.4629
  634MOL0     C83558   5.077  10.213   0.334  0.4211 -0.0722 -0.5839
  634MOL0     O83559   4.956  10.180   0.283 -0.3821 -0.1404 -0.1893
  634MOL0     C83560   4.866  10.273   0.238 -0.3735 -0.0257  0.1255
  634MOL0     C83561   4.733  10.237   0.237 -0.2408 -0.1440 -0.5885
  634MOL0     C83562   4.643  10.324   0.182  0.1106  0.6560 -0.0476
  634MOL0     C83563   4.670  10.450   0.127  0.3967  0.5474 -0.2353
  634MOL0     O83564   4.574  10.540   0.085 -0.0200  0.1581 -0.5098
  634MOL0     C83565   4.432  10.504   0.121 -0.2133  0.1849  0.0932
  634MOL0     C83566   4.362  10.635   0.096  1.2536  0.9606  0.8244
  634MOL0     C83567   4.205  10.620   0.111 -0.1037 -0.9926 -0.4269
  634MOL0     C83568   4.122  10.734   0.044 -0.4388 -0.2904 -0.8883
  634MOL0     C83569   3.975  10.733   0.096 -0.7431  0.4831  1.2142
  634MOL0     C83570   3.890  10.850   0.027 -0.4747  0.5189  0.1035
  634MOL0     C83571   3.745  10.849   0.072  0.5402  0.3594 -0.9252
  634MOL0     C83572   3.652  10.920  -0.026  0.0796 -0.5725 -0.0723
  634MOL0     N83573   3.514  10.916   0.017  0.3120  0.1922  0.2382
  634MOL0     C83574   3.424  10.817  -0.042  0.0617  1.0208  0.2774
  634MOL0     C83575   3.307  10.848   0.011  0.5147  0.0796 -0.6901
  634MOL0     C83576   3.174  10.767   0.007 -0.3101  0.5544 -0.5535
  634MOL0     C83577   3.043  10.846   0.055 -0.6344 -0.2755 -0.1332
  634MOL0     C83578   2.923  10.755   0.080 -0.1746  0.0888  0.7088
  634MOL0     C83579   2.804  10.838   0.110  0.9302 -0.1587 -0.2674
  634MOL0     O83580   2.741  10.906  -0.000  0.0905  0.1618  0.1219
  634MOL0     C83581   2.634  10.987   0.021  0.6258  0.8531 -0.5153
  634MOL0     C83582   2.585  11.035   0.144 -0.1181 -0.3681 -0.4462
  634MOL0     C83583   2.470  11.110   0.158 -0.5653  0.7589  0.0405
  634MOL0     C83584   2.389  11.129   0.043  0.1998  1.2204 -1.3014
  634MOL0     C83585   2.252  11.189   0.054 -0.0883  1.2341  0.4092
  634MOL0     O83586   2.182  11.186  -0.064 -0.8323 -0.1453 -0.1015
  634MOL0     C83587   2.045  11.204  -0.081 -0.2061  0.2012 -0.4932
  634MOL0     C83588   1.950  11.264   0.008 -0.1585 -1.1666  0.5640
  634MOL0     C83589   1.819  11.271  -0.039  1.0325 -0.1050 -1.2051
  634MOL0     C83590   1.774  11.226  -0.161  0.6031  0.8743 -0.9919
  634MOL0     O83591   1.638  11.234  -0.172 -0.7029  0.6611  0.0135
  634MOL0     C83592   1.575  11.238  -0.304 -0.2259  0.2365  0.0035
  634MOL0     C83593   1.437  11.295  -0.298  0.4292 -0.1601  0.3771
  634MOL0     C83594   1.380  11.273  -0.436 -0.2216 -0.3197 -0.3271
  634MOL0     C83595   1.237  11.324  -0.446  0.5956  0.5154 -0.0241
  634MOL0     C83596   1.135  11.210  -0.433 -0.0457 -0.8362  1.1122
  634MOL0     C83597   0.989  11.260  -0.453  0.3392  0.7924  0.6493
  634MOL0     C83598   0.883  11.142  -0.441 -0.2812 -0.3504  0.3302
  634MOL0     C83599   0.883  11.058  -0.567 -0.6390  0.7333  0.5605
  634MOL0    Cl83600   0.776  10.907  -0.559  0.1386 -0.0622 -0.4226
  634MOL0     C83601   1.858  11.161  -0.245  0.2263  0.2582  0.5285
  634MOL0     C83602   1.993  11.153  -0.207 -0.4051 -0.1814 -0.4537
  634MOL0     O83603   2.208  11.213   0.166  0.1405  0.7005  0.0234
  634MOL0     C83604   2.443  11.082  -0.078  0.0141 -0.8630 -0.0531
  634MOL0     C83605   2.564  11.023  -0.094  0.5807  0.2892  0.1103
  634MOL0     N83606   3.315  10.952   0.107  0.4935  0.5419 -0.0209
  634MOL0     N83607   3.435  10.989   0.106  0.2157  0.0297 -0.0706
  634MOL0     C83608   4.804  10.484   0.124  0.3780 -0.4617  0.4128
  634MOL0     C83609   4.898  10.403   0.184  0.7682 -0.1360 -0.0592
  634MOL0     C83610   5.178  10.104   0.372  0.8542 -0.7973 -0.1658
  634MOL0     C83611   5.152   9.971   0.354  0.6428 -0.4966 -0.0389
  634MOL0     C83612   5.253   9.880   0.383  0.0932 -0.0665 -0.7279
  634MOL0     C83613   5.372   9.920   0.446  0.0323 -0.5119 -0.9521
  634MOL0     O83614   5.442   9.810   0.493 -0.3206 -0.3495 -0.9410
  634MOL0     C83615   5.507   9.816   0.628  0.1196  1.0874  0.2904
  634MOL0     C83616   5.657   9.856   0.630  0.2295  0.0081 -0.1231
  634MOL0     C83617   5.717   9.806   0.766 -0.4932  0.5191 -0.0156
  634MOL0     C83618   5.836   9.894   0.810 -0.5710 -0.1395  1.1010
  634MOL0     C83619   5.889   9.866   0.943  0.6293 -0.1971 -0.9981
  634MOL0     C83620   5.922   9.856   1.057  0.1371 -0.6133 -0.5783
  634MOL0     C83621   5.389  10.050   0.463 -0.2826  0.1158 -1.1021
  634MOL0     C83622   5.298  10.155   0.434 -0.5060  0.2006  0.8709
  634MOL0     H83623   4.702  10.138   0.269 -1.4404  0.1754 -0.7181
  634MOL0     H83624   4.541  10.292   0.201  0.9377 -1.5111  1.1116
  634MOL0     H83625   4.434  10.481   0.228 -1.4008  0.7236  0.2373
  634MOL0     H83626   4.399  10.415   0.066  0.4071 -0.5125  0.8286
  634MOL0     H83627   4.378  10.653  -0.010  2.2494 -0.9197  0.6071
  634MOL0     H83628   4.395  10.718   0.160  2.9043  0.5185  0.5680
  634MOL0     H83629   4.165  10.612   0.212 -0.1449 -2.4927 -0.5435
  634MOL0     H83630   4.186  10.523   0.065 -0.4811 -0.0944 -2.2658
  634MOL0     H83631   4.163  10.829   0.080 -2.7747 -1.0949  4.8970
  634MOL0     H83632   4.126  10.714  -0.064 -1.6439 -1.9500 -0.6592
  634MOL0     H83633   3.970  10.755   0.203 -0.4735  2.2845  0.8913
  634MOL0     H83634   3.935  10.636   0.067 -0.0277  0.6633 -0.5107
  634MOL0     H83635   3.891  10.838  -0.082  1.0338  0.5978  0.0786
  634MOL0     H83636   3.943  10.944   0.044 -1.4132  0.8289  1.4321
  634MOL0     H83637   3.702  10.750   0.091  2.2493  0.3045  4.4779
  634MOL0     H83638   3.750  10.914   0.160 -1.1162  3.5720 -3.0171
  634MOL0     H83639   3.666  10.890  -0.130 -0.3396  0.5181 -0.4587
  634MOL0     H83640   3.683  11.025  -0.023 -2.5977  0.2582  0.5836
  634MOL0     H83641   3.443  10.740  -0.115 -3.6124  3.2336 -3.4466
  634MOL0     H83642   3.182  10.677   0.069  1.6673 -0.0052 -1.5245
  634MOL0     H83643   3.167  10.723  -0.094 -1.5224 -0.5895 -0.0076
  634MOL0     H83644   3.029  10.922  -0.022  2.7997  0.7535  0.0530
  634MOL0     H83645   3.065  10.895   0.151 -0.3311 -2.9926  1.2698
  634MOL0     H83646   2.897  10.682   0.003 -0.9853 -0.0854  1.1332
  634MOL0     H83647   2.953  10.689   0.162  0.4039  0.7217  1.0121
  634MOL0     H83648   2.820  10.920   0.181 -1.5692  0.3965 -0.2472
  634MOL0     H83649   2.734  10.770   0.160  3.0591 -0.9472  1.7879
  634MOL0     H83650   2.646  11.016   0.232 -0.5698  0.9370  0.1739
  634MOL0     H83651   2.434  11.135   0.257 -1.2664  0.1936 -0.0572
  634MOL0     H83652   1.974  11.307   0.105 -0.0398  0.2668 -0.0851
  634MOL0     H83653   1.745  11.311   0.029  1.7404 -0.1285 -0.4149
  634MOL0     H83654   1.568  11.139  -0.350 -2.3973  1.0156 -1.5059
  634MOL0     H83655   1.632  11.311  -0.363 -1.1538  0.7867 -0.2331
  634MOL0     H83656   1.430  11.404  -0.291 -0.9821 -0.2352  0.4055
  634MOL0     H83657   1.371  11.247  -0.226 -1.4911  1.6114 -0.1120
  634MOL0     H83658   1.390  11.170  -0.472  2.3840 -0.2152 -0.1085
  634MOL0     H83659   1.442  11.342  -0.495  1.9101  0.3582  2.5022
  634MOL0     H83660   1.215  11.411  -0.382  0.9456  1.6285 -1.3617
  634MOL0     H83661   1.227  11.373  -0.543 -1.2919  0.9694  0.3476
  634MOL0     H83662   1.121  11.171  -0.331 -1.4748 -0.2342  1.1717
  634MOL0     H83663   1.175  11.137  -0.503  0.8118  0.8690 -0.2484
  634MOL0     H83664   0.973  11.311  -0.548  0.7103  2.2364  1.3343
  634MOL0     H83665   0.964  11.327  -0.370 -0.8841  0.9350  0.1847
  634MOL0     H83666   0.911  11.092  -0.348  0.0886 -0.8145 -0.0297
  634MOL0     H83667   0.786  11.189  -0.425 -0.0704 -0.3306  1.7212
  634MOL0     H83668   0.986  11.030  -0.590 -0.0735  1.3141  2.2969
  634MOL0     H83669   0.855  11.120  -0.653 -2.2934  0.6097  0.9831
  634MOL0     H83670   1.823  11.128  -0.342 -0.2967  1.0597  0.4400
  634MOL0     H83671   2.075  11.118  -0.269  0.8989  1.5823  0.1855
  634MOL0     H83672   2.399  11.106  -0.175  1.1721 -0.5146 -0.5095
  634MOL0     H83673   2.608  11.004  -0.192 -1.5821  0.2192 -0.9021
  634MOL0     H83674   4.823  10.583   0.083 -1.8698 -0.1437  0.0347
  634MOL0     H83675   4.995  10.451   0.196  1.3101 -1.6444  2.0882
  634MOL0     H83676   5.050   9.940   0.335 -0.6579  2.1160  2.1540
  634MOL0     H83677   5.239   9.773   0.373 -0.0224 -0.1738  0.4075
  634MOL0     H83678   5.506   9.713   0.666 -0.0499 -1.2765 -5.2122
  634MOL0     H83679   5.444   9.886   0.683 -0.9572  1.5189 -1.4114
  634MOL0     H83680   5.717   9.807   0.552 -1.1213  1.4182 -2.1671
  634MOL0     H83681   5.662   9.965   0.629  0.5746  0.0993  3.1407
  634MOL0     H83682   5.761   9.709   0.740 -0.7457  1.2998 -4.2044
  634MOL0     H83683   5.638   9.784   0.838  1.3284 -2.1581  1.3211
  634MOL0     H83684   5.913   9.889   0.732 -0.7555  3.4726  0.5542
  634MOL0     H83685   5.802   9.998   0.808 -0.8862 -0.2209 -1.4368
  634MOL0     H83686   5.962   9.838   1.155 -0.6109 -1.3704 -0.4030
  634MOL0     H83687   5.493  10.069   0.491 -0.3047 -1.0916 -0.0972
  634MOL0     H83688   5.326  10.260   0.438 -0.0442  0.1228 -0.0577
  635MOL0     O83689   6.379   1.978   3.788 -0.2236  0.4008  0.3181
  635MOL0     C83690   6.394   2.003   3.671 -0.3367 -0.3130 -0.9012
  635MOL0     O83691   6.294   2.022   3.578 -1.5753  0.0818  0.2119
  635MOL0     C83692   6.161   2.012   3.611  0.4769 -0.5483  0.8142
  635MOL0     C83693   6.106   2.009   3.734  0.4119  0.4638  0.5965
  635MOL0     C83694   5.976   2.005   3.756  0.6317 -0.4292  0.5865
  635MOL0     C83695   5.890   1.984   3.661  0.1535 -0.3834 -1.0106
  635MOL0     O83696   5.755   1.977   3.686  0.5541  0.6831  0.5705
  635MOL0     C83697   5.692   2.092   3.742 -0.4281  0.2032 -0.2151
  635MOL0     C83698   5.541   2.076   3.721 -0.6353  0.0949 -0.0435
  635MOL0     C83699   5.501   2.065   3.574  0.0261 -1.2470  0.2641
  635MOL0     C83700   5.550   2.170   3.473  0.1517 -0.4186  0.7479
  635MOL0     C83701   5.548   2.118   3.332  0.3635  0.8116 -0.1334
  635MOL0     C83702   5.409   2.092   3.266 -0.1140 -1.7297 -0.8533
  635MOL0     C83703   5.430   2.068   3.116 -1.0400  0.7255  0.1723
  635MOL0     C83704   5.303   2.014   3.044  0.9006  0.1890 -0.1859
  635MOL0     N83705   5.194   2.110   3.073 -0.3057 -0.1418 -0.4386
  635MOL0     C83706   5.101   2.104   3.181 -1.2747 -0.4507 -0.4092
  635MOL0     C83707   5.068   2.238   3.193 -0.0436 -0.7112 -0.4160
  635MOL0     C83708   4.992   2.314   3.301  0.3420  0.8385  0.5070
  635MOL0     C83709   4.839   2.290   3.283  0.0978 -0.9858 -0.5658
  635MOL0     C83710   4.748   2.348   3.391  0.4776  0.0980 -0.1256
  635MOL0     C83711   4.625   2.269   3.405  0.9317 -0.4206  0.1898
  635MOL0     O83712   4.517   2.352   3.461  0.9023  0.0849  0.5597
  635MOL0     C83713   4.416   2.294   3.532 -0.5617  1.1261 -0.0538
  635MOL0     C83714   4.317   2.370   3.592  0.3796 -0.7828  0.6232
  635MOL0     C83715   4.210   2.314   3.662 -0.2746 -0.2012  0.0252
  635MOL0     C83716   4.193   2.170   3.665 -0.1537  0.5893  1.1389
  635MOL0     C83717   4.085   2.098   3.742  0.3625 -0.6372 -0.4122
  635MOL0     O83718   4.073   1.964   3.719  0.1351 -0.8699 -0.1718
  635MOL0     C83719   3.970   1.910   3.791  0.0432  0.3725 -0.5992
  635MOL0     C83720   3.835   1.932   3.769 -0.1159  0.0621  1.0576
  635MOL0     C83721   3.737   1.878   3.840  0.1793 -0.1646  0.1792
  635MOL0     C83722   3.760   1.784   3.944  0.1120 -0.2531 -0.3506
  635MOL0     O83723   3.672   1.718   4.029  0.0404 -0.5650  0.3300
  635MOL0     C83724   3.531   1.755   4.027 -0.9208 -0.2408  1.0336
  635MOL0     C83725   3.444   1.661   4.110  0.4320 -0.6148  0.3207
  635MOL0     C83726   3.298   1.727   4.111  0.1567  0.3810  0.4875
  635MOL0     C83727   3.208   1.605   4.170  0.4193 -0.2111 -1.1246
  635MOL0     C83728   3.075   1.673   4.207 -0.5736  0.3018  0.2831
  635MOL0     C83729   2.969   1.572   4.251  0.4700 -0.4983 -0.5812
  635MOL0     C83730   2.837   1.652   4.274  0.2246 -0.1734 -0.0705
  635MOL0     C83731   2.733   1.643   4.167  0.6500 -0.6098 -0.4654
  635MOL0    Cl83732   2.664   1.485   4.163  0.4852 -0.6601  0.0030
  635MOL0     C83733   3.898   1.750   3.962 -0.3899  0.8450 -0.3542
  635MOL0     C83734   4.011   1.814   3.897  0.6664 -0.6054 -0.4470
  635MOL0     O83735   4.009   2.160   3.814 -0.1048 -0.2655  0.2683
  635MOL0     C83736   4.287   2.094   3.598  0.1922  0.2630 -0.1467
  635MOL0     C83737   4.397   2.151   3.532 -0.1888  0.1556 -0.9991
  635MOL0     N83738   5.127   2.309   3.088  0.1196  0.0229 -0.3063
  635MOL0     N83739   5.202   2.232   3.019  0.2381 -0.1747 -0.4911
  635MOL0     C83740   5.936   1.983   3.525  0.0440  0.6587  0.0685
  635MOL0     C83741   6.073   1.999   3.512  0.1694  0.3387 -0.0914
  635MOL0     C83742   6.526   1.986   3.613 -0.6750 -0.1466  1.3478
  635MOL0     C83743   6.648   1.954   3.684 -0.0858 -0.1408 -0.5664
  635MOL0     C83744   6.768   1.950   3.612  0.5495 -0.6559  0.1351
  635MOL0     C83745   6.771   1.945   3.480 -0.0889 -0.3418  0.2306
  635MOL0     O83746   6.889   1.922   3.403 -0.5757 -0.7178 -0.0888
  635MOL0     C83747   6.950   2.042   3.350 -0.8166  0.5369  0.5958
  635MOL0     C83748   7.095   2.023   3.320 -0.2336 -0.7868 -0.0471
  635MOL0     C83749   7.191   1.980   3.440  0.1715  0.3997  0.5519
  635MOL0     C83750   7.342   2.007   3.415  0.0068  0.2883 -0.1604
  635MOL0     C83751   7.374   2.155   3.406 -0.2036  0.5913  0.0182
  635MOL0     C83752   7.381   2.267   3.369 -0.3540  0.4236 -0.2470
  635MOL0     C83753   6.654   1.953   3.413 -0.3272 -0.5935  0.6222
  635MOL0     C83754   6.539   1.989   3.476  0.5274 -0.0431 -0.1726
  635MOL0     H83755   6.159   2.015   3.829 -1.4623 -1.5282  1.8583
  635MOL0     H83756   5.942   2.008   3.859 -2.3784  1.2765 -0.3315
  635MOL0     H83757   5.726   2.182   3.688 -3.1296  2.4880  1.5802
  635MOL0     H83758   5.725   2.092   3.846  0.2799 -2.3836 -0.3781
  635MOL0     H83759   5.492   2.165   3.762 -3.4003 -1.1763 -0.3741
  635MOL0     H83760   5.510   1.989   3.780  1.0916 -2.2500 -2.3431
  635MOL0     H83761   5.392   2.072   3.580 -0.0041  2.6147 -1.7440
  635MOL0     H83762   5.531   1.965   3.540 -1.3991 -1.8262  0.5985
  635MOL0     H83763   5.486   2.258   3.482  1.0310  0.2838  0.3243
  635MOL0     H83764   5.655   2.199   3.485 -0.0373  2.2159 -2.4908
  635MOL0     H83765   5.615   2.032   3.320 -0.9939 -0.5444  1.4886
  635MOL0     H83766   5.597   2.199   3.277  0.3075  0.0021 -1.4193
  635MOL0     H83767   5.355   2.187   3.267  0.0948 -1.5955  0.7402
  635MOL0     H83768   5.351   2.017   3.320  1.5323 -0.7483  2.6002
  635MOL0     H83769   5.463   2.161   3.068  3.7823 -0.1764  1.1825
  635MOL0     H83770   5.512   1.996   3.108 -3.4627 -2.5947  2.3185
  635MOL0     H83771   5.267   1.916   3.077 -1.2039  0.8621 -0.3362
  635MOL0     H83772   5.313   2.002   2.936 -1.8652  0.1761 -0.5114
  635MOL0     H83773   5.081   2.019   3.245 -0.0511 -1.8872 -1.8464
  635MOL0     H83774   5.016   2.420   3.289  1.2788  0.6225  0.4432
  635MOL0     H83775   5.039   2.285   3.395  0.8186 -1.3114 -0.3375
  635MOL0     H83776   4.824   2.182   3.275  0.9560 -1.2890  1.3551
  635MOL0     H83777   4.808   2.331   3.187 -0.6335  0.7930  0.3883
  635MOL0     H83778   4.799   2.357   3.488  2.8346  1.7342 -1.4065
  635MOL0     H83779   4.715   2.449   3.365 -0.0974  0.3495  1.4481
  635MOL0     H83780   4.645   2.181   3.467  0.9513 -0.3851  0.2351
  635MOL0     H83781   4.592   2.231   3.308  0.1675  4.4799 -1.7677
  635MOL0     H83782   4.324   2.478   3.592 -3.2770 -0.3722  3.1056
  635MOL0     H83783   4.140   2.385   3.704 -1.7854 -2.5897  1.8545
  635MOL0     H83784   3.817   2.016   3.703  1.3084 -1.8470 -1.9621
  635MOL0     H83785   3.639   1.907   3.803 -0.9155 -1.9596  1.4466
  635MOL0     H83786   3.493   1.770   3.925 -1.0026  0.9592  1.2290
  635MOL0     H83787   3.520   1.853   4.073  0.3153  0.1831  0.4955
  635MOL0     H83788   3.476   1.651   4.214  1.4157  2.5215  0.4286
  635MOL0     H83789   3.441   1.562   4.064  2.2670 -1.0361  1.0157
  635MOL0     H83790   3.257   1.744   4.011 -3.2167 -3.5038  0.9857
  635MOL0     H83791   3.298   1.822   4.166  3.7232  1.6122 -1.3292
  635MOL0     H83792   3.190   1.524   4.098  3.4667 -0.1036 -2.1470
  635MOL0     H83793   3.248   1.567   4.265  0.7211  0.9837 -0.7646
  635MOL0     H83794   3.044   1.723   4.114 -2.3648 -4.0018 -1.7339
  635MOL0     H83795   3.089   1.735   4.296 -1.0030 -0.8273  1.1679
  635MOL0     H83796   2.994   1.516   4.341 -1.5134  0.1783  0.4504
  635MOL0     H83797   2.955   1.499   4.170 -0.6402 -2.6687  1.4552
  635MOL0     H83798   2.793   1.605   4.363  0.5299  0.0016  0.1756
  635MOL0     H83799   2.863   1.758   4.287 -0.9565  0.0665  0.4941
  635MOL0     H83800   2.769   1.683   4.071 -1.0686  1.5343 -0.2872
  635MOL0     H83801   2.642   1.700   4.187  0.3944 -1.0710 -0.2974
  635MOL0     H83802   3.917   1.665   4.027 -0.7388 -0.0952 -1.4471
  635MOL0     H83803   4.113   1.781   3.911  0.7418  0.2943  1.5080
  635MOL0     H83804   4.280   1.986   3.604 -2.7912  0.4024  0.2212
  635MOL0     H83805   4.455   2.080   3.474 -1.6425 -0.1950 -2.0575
  635MOL0     H83806   5.867   1.974   3.442  0.0859 -0.7088  0.1636
  635MOL0     H83807   6.120   1.995   3.414 -1.2685  0.6958 -0.8320
  635MOL0     H83808   6.644   1.958   3.792  0.6485  0.3876 -0.5566
  635MOL0     H83809   6.864   1.936   3.661  0.2187 -0.0124  0.9786
  635MOL0     H83810   6.931   2.123   3.421 -0.1558  0.0938  1.2976
  635MOL0     H83811   6.885   2.068   3.267  0.1303 -2.0959 -1.1215
  635MOL0     H83812   7.105   1.943   3.247  0.4077 -0.6239 -0.1383
  635MOL0     H83813   7.117   2.123   3.283  0.4659 -0.1756  1.8695
  635MOL0     H83814   7.179   1.872   3.448 -0.2618  0.1360 -2.5019
  635MOL0     H83815   7.160   2.034   3.530 -0.5763 -1.2247  1.3093
  635MOL0     H83816   7.410   1.967   3.491  0.4722  1.8045  0.2512
  635MOL0     H83817   7.374   1.963   3.320 -2.0421  1.2571 -1.3727
  635MOL0     H83818   7.384   2.361   3.319  0.9300 -0.0247 -1.0429
  635MOL0     H83819   6.653   1.945   3.305 -1.1906 -1.6076  0.6935
  635MOL0     H83820   6.450   1.997   3.415  0.1661 -3.1013 -0.2069
  636MOL0     O83821   6.181   8.665   3.119 -0.3070  0.3172 -0.2194
  636MOL0     C83822   6.143   8.604   3.222  1.4569 -0.7886  0.2553
  636MOL0     O83823   6.220   8.525   3.299  0.2539  0.2406  0.1331
  636MOL0     C83824   6.343   8.491   3.246 -0.5167  1.1135  0.5249
  636MOL0     C83825   6.451   8.575   3.263  0.9042 -0.0936 -0.4221
  636MOL0     C83826   6.582   8.542   3.219  0.7590  0.0489  0.0555
  636MOL0     C83827   6.610   8.420   3.160 -0.6285  0.0430  0.0994
  636MOL0     O83828   6.746   8.389   3.127  0.2620  0.3243  0.1738
  636MOL0     C83829   6.777   8.263   3.070  0.7588 -0.5443 -0.1396
  636MOL0     C83830   6.919   8.272   3.016  0.2801 -0.3689 -1.0862
  636MOL0     C83831   6.949   8.156   2.927  0.7267  0.4484 -0.0146
  636MOL0     C83832   7.097   8.162   2.866  0.4162 -0.2349 -0.2909
  636MOL0     C83833   7.132   8.023   2.812 -0.5734 -0.6153  0.4491
  636MOL0     C83834   7.281   8.010   2.765 -1.0155 -0.5710 -0.1038
  636MOL0     C83835   7.291   7.869   2.695 -0.2324  0.2193  0.2431
  636MOL0     C83836   7.275   7.749   2.797 -0.0900  0.3216 -0.7829
  636MOL0     N83837   7.390   7.721   2.889 -0.5683  0.0830 -0.6170
  636MOL0     C83838   7.523   7.696   2.842  0.0859 -0.5879  0.2441
  636MOL0     C83839   7.593   7.683   2.954  0.1351  0.5342 -0.3282
  636MOL0     C83840   7.742   7.657   2.975  0.5295 -0.5084 -0.7783
  636MOL0     C83841   7.784   7.528   2.907  0.3446 -0.4785  0.7453
  636MOL0     C83842   7.822   7.561   2.758 -0.5128  0.4747 -0.4125
  636MOL0     C83843   7.878   7.420   2.709  1.0886  0.3289 -0.2845
  636MOL0     O83844   7.942   7.431   2.585 -0.3463  0.0893 -0.3736
  636MOL0     C83845   8.008   7.320   2.535 -0.5130 -0.1741  0.2479
  636MOL0     C83846   8.010   7.185   2.576  0.2559 -0.4388  0.3380
  636MOL0     C83847   8.064   7.083   2.506 -0.6122 -1.3982 -0.8410
  636MOL0     C83848   8.140   7.113   2.394 -0.2942  0.4257  0.5077
  636MOL0     C83849   8.214   7.004   2.321 -0.3225 -0.1321 -0.5130
  636MOL0     O83850   8.267   7.038   2.195 -0.3936 -0.9056  0.3055
  636MOL0     C83851   8.328   6.946   2.123 -0.4308 -0.1895 -0.1526
  636MOL0     C83852   8.278   6.934   1.988  0.3690  0.3976  0.0387
  636MOL0     C83853   8.339   6.842   1.898  0.1353  0.2749 -0.8030
  636MOL0     C83854   8.447   6.757   1.945  0.7093 -0.1965  0.5834
  636MOL0     O83855   8.504   6.675   1.853  0.4068 -0.1402  0.3361
  636MOL0     C83856   8.565   6.745   1.745  0.0905  0.3611 -0.4545
  636MOL0     C83857   8.715   6.753   1.764  0.5117  0.1635 -0.7522
  636MOL0     C83858   8.787   6.610   1.789  0.1011 -0.2180 -0.1204
  636MOL0     C83859   8.939   6.631   1.766  0.3592  1.1042  0.0667
  636MOL0     C83860   9.016   6.497   1.784  0.5320 -0.3464 -0.5563
  636MOL0     C83861   9.161   6.506   1.735 -0.4079  0.3969  0.8700
  636MOL0     C83862   9.238   6.377   1.770  0.4371  0.4999 -0.4294
  636MOL0     C83863   9.386   6.386   1.763  0.0385 -0.4098 -0.3512
  636MOL0    Cl83864   9.455   6.498   1.894 -0.0627 -0.0869  0.0448
  636MOL0     C83865   8.503   6.773   2.076 -0.4285 -0.0093  0.4901
  636MOL0     C83866   8.445   6.870   2.165  0.8362  0.5379 -0.4007
  636MOL0     O83867   8.228   6.893   2.374 -0.6220  0.2756 -0.4328
  636MOL0     C83868   8.155   7.244   2.351  0.0201 -0.7167 -0.1982
  636MOL0     C83869   8.094   7.349   2.428 -0.2188  1.0375 -0.1056
  636MOL0     N83870   7.500   7.675   3.062 -0.0994  0.0872 -0.2193
  636MOL0     N83871   7.390   7.718   3.025  0.1218 -0.6804  0.1425
  636MOL0     C83872   6.500   8.336   3.141 -0.5136 -0.5590  0.2202
  636MOL0     C83873   6.369   8.370   3.179 -0.9236  0.2358 -0.4034
  636MOL0     C83874   5.998   8.617   3.243  0.8330 -0.3036 -0.2713
  636MOL0     C83875   5.909   8.647   3.145 -0.4275 -0.1603 -0.5117
  636MOL0     C83876   5.776   8.663   3.176  0.2982 -0.4542 -0.0476
  636MOL0     C83877   5.727   8.639   3.311  0.3968 -0.7068  0.3794
  636MOL0     O83878   5.590   8.648   3.336  0.5198 -0.1463 -0.2477
  636MOL0     C83879   5.524   8.530   3.381  0.2531  0.0159  0.4293
  636MOL0     C83880   5.447   8.547   3.511 -0.4416 -0.2074  0.4356
  636MOL0     C83881   5.308   8.622   3.481  0.5462 -0.3106 -0.5500
  636MOL0     C83882   5.209   8.600   3.590 -0.3120 -0.3407  0.1553
  636MOL0     C83883   5.117   8.714   3.601  0.0034  1.4453 -0.6622
  636MOL0     C83884   5.042   8.808   3.641  0.5653 -1.2293  0.4625
  636MOL0     C83885   5.817   8.591   3.403 -0.7242 -0.4347 -0.7961
  636MOL0     C83886   5.950   8.580   3.365  0.4182 -1.0390 -0.4831
  636MOL0     H83887   6.433   8.669   3.315  2.8314 -0.0963  0.3392
  636MOL0     H83888   6.671   8.602   3.237  2.1330 -2.0934  0.8410
  636MOL0     H83889   6.703   8.228   2.998 -0.6829  0.1356  0.9709
  636MOL0     H83890   6.773   8.183   3.144 -6.1152 -1.3028 -0.6486
  636MOL0     H83891   6.983   8.272   3.105 -0.7965  0.2126 -0.2926
  636MOL0     H83892   6.931   8.371   2.971 -1.7246  2.2287  3.3304
  636MOL0     H83893   6.874   8.148   2.847 -1.0500  1.3935  1.4823
  636MOL0     H83894   6.931   8.072   2.994 -2.6677  1.8503  1.0415
  636MOL0     H83895   7.106   8.246   2.797  1.4018  1.1271  1.3838
  636MOL0     H83896   7.167   8.178   2.949 -0.2791  0.9173  0.0968
  636MOL0     H83897   7.067   8.001   2.727 -1.0655  2.3370 -0.0304
  636MOL0     H83898   7.109   7.949   2.890  1.3368 -3.5196 -1.5311
  636MOL0     H83899   7.344   8.033   2.851 -1.6827 -1.7063  0.7018
  636MOL0     H83900   7.297   8.093   2.695  0.7497  2.0951  3.1577
  636MOL0     H83901   7.209   7.842   2.629 -2.1930  2.1809  1.7499
  636MOL0     H83902   7.384   7.858   2.638 -0.6974 -1.0176 -0.3008
  636MOL0     H83903   7.260   7.657   2.739 -0.0443  0.4369 -0.9805
  636MOL0     H83904   7.183   7.757   2.856 -0.0216  0.1163 -0.6482
  636MOL0     H83905   7.560   7.694   2.740 -0.5152 -3.6019  0.0074
  636MOL0     H83906   7.763   7.644   3.082 -0.3270 -0.7763 -0.6414
  636MOL0     H83907   7.793   7.745   2.935 -2.1453  2.9655  2.6891
  636MOL0     H83908   7.703   7.455   2.899  0.2992 -0.4420  0.8734
  636MOL0     H83909   7.870   7.480   2.955 -1.3920 -0.7645  3.8416
  636MOL0     H83910   7.739   7.589   2.693 -2.8338 -2.4435  0.9989
  636MOL0     H83911   7.902   7.635   2.749  1.7071 -1.4758  1.7808
  636MOL0     H83912   7.790   7.354   2.712 -0.0644  1.8466  0.6781
  636MOL0     H83913   7.945   7.370   2.778  3.3825  3.3163 -0.1412
  636MOL0     H83914   7.954   7.155   2.664 -0.4371  0.0818  0.0787
  636MOL0     H83915   8.061   6.981   2.544  2.1672 -0.7257  1.6381
  636MOL0     H83916   8.204   7.008   1.958 -0.4266 -0.4821 -0.2036
  636MOL0     H83917   8.310   6.843   1.793 -0.9293  0.0680 -0.5283
  636MOL0     H83918   8.524   6.844   1.725  2.2976  1.4447  0.0015
  636MOL0     H83919   8.536   6.696   1.651  2.0073  1.2167 -1.5570
  636MOL0     H83920   8.740   6.829   1.839 -0.9335  3.1241 -3.0596
  636MOL0     H83921   8.759   6.788   1.671  2.3036 -2.7203 -1.1255
  636MOL0     H83922   8.755   6.534   1.717  1.7518  0.3083 -1.4719
  636MOL0     H83923   8.766   6.577   1.891  1.0877 -2.1069 -0.4982
  636MOL0     H83924   8.963   6.673   1.668  1.2114  0.3953 -0.0510
  636MOL0     H83925   8.985   6.704   1.833 -1.0308  0.9415  1.2438
  636MOL0     H83926   8.958   6.415   1.740 -0.8050  1.1414 -1.7069
  636MOL0     H83927   9.011   6.477   1.891 -1.9804 -1.9096 -0.8932
  636MOL0     H83928   9.217   6.591   1.774 -1.5981  0.4421  2.5939
  636MOL0     H83929   9.165   6.507   1.626 -1.3352  2.8002  0.7996
  636MOL0     H83930   9.219   6.349   1.874  4.2039  0.1083  0.3031
  636MOL0     H83931   9.193   6.290   1.721  0.4897  0.4030 -0.3066
  636MOL0     H83932   9.405   6.428   1.664  0.2024 -0.9727 -0.5574
  636MOL0     H83933   9.443   6.293   1.769  1.4242  0.2291 -2.6469
  636MOL0     H83934   8.593   6.716   2.095 -0.0427  0.5234  0.2688
  636MOL0     H83935   8.505   6.880   2.255  0.9671  0.6626 -0.5033
  636MOL0     H83936   8.218   7.287   2.275  1.5284  3.4595  3.0064
  636MOL0     H83937   8.105   7.450   2.390 -0.3043 -0.3993 -4.4968
  636MOL0     H83938   6.519   8.242   3.091  0.6585 -1.1832  1.7599
  636MOL0     H83939   6.281   8.309   3.161 -0.4688 -1.3749  2.2070
  636MOL0     H83940   5.935   8.674   3.043 -3.5225  0.1395 -1.3055
  636MOL0     H83941   5.705   8.672   3.094  2.6201 -2.6457 -2.5148
  636MOL0     H83942   5.584   8.439   3.391  0.9481  0.3353 -0.5958
  636MOL0     H83943   5.453   8.509   3.301  1.5434  1.0923 -1.0673
  636MOL0     H83944   5.423   8.449   3.553 -0.1395 -0.0644  0.9412
  636MOL0     H83945   5.518   8.606   3.569 -1.5528  1.3022  0.3202
  636MOL0     H83946   5.268   8.584   3.386 -2.8320 -0.8883  0.9541
  636MOL0     H83947   5.324   8.730   3.480 -1.3093  0.0521  1.4306
  636MOL0     H83948   5.157   8.504   3.575  1.8782 -1.5384 -0.1962
  636MOL0     H83949   5.269   8.589   3.681 -1.1911  0.3714  0.8363
  636MOL0     H83950   4.963   8.867   3.684 -1.2523 -2.7289 -0.6535
  636MOL0     H83951   5.787   8.576   3.506  1.1518 -1.6932 -0.3704
  636MOL0     H83952   6.027   8.565   3.440  2.3484  3.1552 -1.3311
  637MOL0     O83953   3.974   7.019   7.230  0.3450 -0.5518 -0.0008
  637MOL0     C83954   4.075   7.050   7.287 -1.1032  0.4635  0.3433
  637MOL0     O83955   4.104   7.025   7.416  0.0109  1.0623  0.7588
  637MOL0     C83956   3.997   6.969   7.491  0.4442  0.0090 -0.3944
  637MOL0     C83957   3.983   6.827   7.468 -1.7064 -0.3189 -0.5599
  637MOL0     C83958   3.883   6.759   7.532  0.0270 -1.5219  0.2664
  637MOL0     C83959   3.800   6.824   7.625 -0.6621 -0.4674 -0.9453
  637MOL0     O83960   3.704   6.742   7.679  1.0249 -0.6514  0.1900
  637MOL0     C83961   3.651   6.782   7.809  1.0107  0.0434 -0.3361
  637MOL0     C83962   3.569   6.667   7.861  0.5128  0.8370  1.3617
  637MOL0     C83963   3.530   6.687   8.012 -0.5973  0.6140 -0.5647
  637MOL0     C83964   3.453   6.566   8.059 -0.5206 -0.5163  0.6635
  637MOL0     C83965   3.375   6.591   8.186  0.0022  0.0316 -0.5822
  637MOL0     C83966   3.310   6.456   8.240  0.0519 -0.3019  0.9321
  637MOL0     C83967   3.293   6.458   8.389  0.4652  0.7154 -0.3324
  637MOL0     C83968   3.221   6.331   8.432 -0.5453 -0.0764 -0.1148
  637MOL0     N83969   3.212   6.324   8.578  0.0434  0.6839 -0.1618
  637MOL0     C83970   3.310   6.266   8.648 -0.0369  0.0492 -0.3870
  637MOL0     C83971   3.262   6.289   8.771  0.0151  0.5705  0.4739
  637MOL0     C83972   3.331   6.247   8.900 -1.1949 -0.2592  0.1570
  637MOL0     C83973   3.357   6.356   8.996  0.5592 -0.5551 -0.2853
  637MOL0     C83974   3.482   6.442   8.990 -0.2789 -0.6928  0.7889
  637MOL0     C83975   3.504   6.519   8.864 -0.0092  0.3431  0.0375
  637MOL0     O83976   3.574   6.429   8.777 -0.4222  0.5451 -0.0057
  637MOL0     C83977   3.635   6.477   8.668  0.1356  0.7370  0.0520
  637MOL0     C83978   3.707   6.383   8.595  0.9000 -0.1086  0.5510
  637MOL0     C83979   3.763   6.415   8.476 -0.2037 -0.3044  0.2709
  637MOL0     C83980   3.759   6.551   8.422 -0.7152  0.3397 -0.1910
  637MOL0     C83981   3.827   6.584   8.293 -0.4143  0.0694  0.2347
  637MOL0     O83982   3.889   6.472   8.218  0.0040 -0.0979  0.0033
  637MOL0     C83983   3.965   6.513   8.112  0.5126 -0.3719  0.9934
  637MOL0     C83984   4.102   6.528   8.136 -0.0624 -0.3058  0.2337
  637MOL0     C83985   4.191   6.556   8.030  0.1509  1.3620 -0.1826
  637MOL0     C83986   4.146   6.590   7.906  0.4345 -0.4667  0.4179
  637MOL0     O83987   4.237   6.640   7.809  0.5989  0.4915 -0.8310
  637MOL0     C83988   4.215   6.768   7.750  0.5641 -0.1686 -0.1784
  637MOL0     C83989   4.304   6.780   7.629 -0.3079 -0.0476  0.4764
  637MOL0     C83990   4.306   6.664   7.531  0.1264 -0.5816 -0.1640
  637MOL0     C83991   4.364   6.706   7.392 -0.8771 -0.7368  0.0836
  637MOL0     C83992   4.510   6.732   7.396  0.4145 -0.1175  0.6924
  637MOL0     C83993   4.565   6.768   7.260 -1.6166 -0.7344 -0.3152
  637MOL0     C83994   4.717   6.765   7.272  0.4718  0.1021 -0.4888
  637MOL0     C83995   4.792   6.630   7.241 -0.0908  0.4280  0.3091
  637MOL0    Cl83996   4.962   6.659   7.286  0.3360 -0.1675 -0.6070
  637MOL0     C83997   4.005   6.576   7.883  0.1409 -1.0628 -0.4931
  637MOL0     C83998   3.920   6.520   7.976  0.2319  0.1641 -0.4943
  637MOL0     O83999   3.822   6.698   8.249 -0.0986 -1.2863  0.1389
  637MOL0     C84000   3.690   6.651   8.492  0.9777  0.5377 -0.4311
  637MOL0     C84001   3.633   6.612   8.622  0.2930 -0.4951  0.5789
  637MOL0     N84002   3.137   6.348   8.761 -0.3540  0.0247 -0.0473
  637MOL0     N84003   3.107   6.376   8.647 -0.1296  0.1219 -0.5974
  637MOL0     C84004   3.797   6.958   7.647 -0.4147  0.6594  1.3269
  637MOL0     C84005   3.902   7.032   7.574 -1.0343 -0.1770 -0.0122
  637MOL0     C84006   4.187   7.104   7.207 -0.3449  1.3378 -0.2170
  637MOL0     C84007   4.173   7.135   7.070 -0.6057 -0.3930  1.1668
  637MOL0     C84008   4.281   7.195   6.996 -0.0684  0.0875  0.1525
  637MOL0     C84009   4.402   7.224   7.057  0.1309 -0.0911 -0.1027
  637MOL0     O84010   4.514   7.278   6.994 -0.0415  0.0312  0.0380
  637MOL0     C84011   4.521   7.289   6.847 -0.0912 -0.3196 -0.0533
  637MOL0     C84012   4.544   7.160   6.773 -0.1376  0.6726 -0.0415
  637MOL0     C84013   4.685   7.099   6.787  0.5654 -0.4048 -0.0301
  637MOL0     C84014   4.738   7.097   6.930  0.5217  0.2945 -0.4162
  637MOL0     C84015   4.844   6.998   6.949 -0.1328 -0.6028  0.1833
  637MOL0     C84016   4.931   6.913   6.960  0.5313 -0.0502 -0.1438
  637MOL0     C84017   4.419   7.193   7.190  0.9557  0.7348  0.3960
  637MOL0     C84018   4.314   7.132   7.262 -0.0475  0.2608 -0.5639
  637MOL0     H84019   4.046   6.777   7.395 -2.1965 -0.5224 -0.8510
  637MOL0     H84020   3.887   6.654   7.507  0.7726 -0.7312 -3.6540
  637MOL0     H84021   3.582   6.867   7.804 -2.9034 -2.6062  2.4253
  637MOL0     H84022   3.729   6.793   7.885 -1.5587  0.1626  2.5028
  637MOL0     H84023   3.610   6.571   7.830 -0.9065  0.1560  1.5222
  637MOL0     H84024   3.480   6.661   7.798  1.6823 -1.3196 -0.2205
  637MOL0     H84025   3.466   6.775   8.015 -1.6996 -0.0887  4.1931
  637MOL0     H84026   3.628   6.699   8.060 -1.4091 -0.9691  1.6673
  637MOL0     H84027   3.390   6.516   7.985 -0.5365  0.6514 -0.1564
  637MOL0     H84028   3.530   6.490   8.078 -1.4952 -2.4183 -2.3582
  637MOL0     H84029   3.299   6.668   8.174  0.3721  0.2292 -1.8432
  637MOL0     H84030   3.439   6.631   8.266 -0.1656  1.9875 -1.3640
  637MOL0     H84031   3.390   6.385   8.217  0.8851 -0.1503  3.0937
  637MOL0     H84032   3.216   6.431   8.190  0.1036  0.1598  0.5978
  637MOL0     H84033   3.390   6.470   8.439 -0.2504 -2.7051  2.2845
  637MOL0     H84034   3.233   6.544   8.418 -2.1012 -2.0505  3.5491
  637MOL0     H84035   3.261   6.239   8.390 -1.7188 -0.2654 -0.8923
  637MOL0     H84036   3.121   6.350   8.392  0.7598  1.1675 -3.0681
  637MOL0     H84037   3.406   6.229   8.613 -0.7765 -3.0403  0.4765
  637MOL0     H84038   3.422   6.198   8.865 -1.7231 -0.1865 -1.3568
  637MOL0     H84039   3.266   6.174   8.949 -3.0326  1.1842 -0.0409
  637MOL0     H84040   3.350   6.322   9.100  0.2967  1.0485  0.2541
  637MOL0     H84041   3.272   6.425   8.985  0.8560 -0.3045 -1.0681
  637MOL0     H84042   3.481   6.524   9.062 -1.5302 -2.3743  2.8188
  637MOL0     H84043   3.569   6.380   9.016  1.1240  0.3966 -1.0889
  637MOL0     H84044   3.569   6.606   8.879  0.1808  0.6647 -2.3012
  637MOL0     H84045   3.409   6.543   8.815  0.2241  0.5455 -0.3167
  637MOL0     H84046   3.713   6.287   8.645 -3.1136 -0.7430  0.1711
  637MOL0     H84047   3.807   6.326   8.431 -1.1398 -0.3908 -0.5116
  637MOL0     H84048   4.145   6.504   8.233  1.1421 -0.4839 -0.3376
  637MOL0     H84049   4.297   6.556   8.055  0.4508 -0.7621 -1.2083
  637MOL0     H84050   4.236   6.846   7.824 -1.2507  0.0983  0.0945
  637MOL0     H84051   4.112   6.777   7.716  0.0400 -2.3258  0.6622
  637MOL0     H84052   4.403   6.810   7.664  0.1963 -1.1607  0.0587
  637MOL0     H84053   4.270   6.868   7.574 -0.3492  0.6684  1.6054
  637MOL0     H84054   4.203   6.632   7.515 -0.0279  1.2376 -4.0285
  637MOL0     H84055   4.362   6.589   7.588  0.1323 -0.2456  0.2818
  637MOL0     H84056   4.347   6.625   7.321 -0.1346  0.3924 -1.4165
  637MOL0     H84057   4.308   6.790   7.350  1.2885  0.3864 -0.6918
  637MOL0     H84058   4.554   6.637   7.427  0.4197 -0.1444  0.6024
  637MOL0     H84059   4.545   6.814   7.460  0.0350 -0.5147  1.4293
  637MOL0     H84060   4.539   6.871   7.235 -2.4262 -1.1443 -1.2238
  637MOL0     H84061   4.526   6.698   7.186  0.6421 -1.4889 -0.8621
  637MOL0     H84062   4.760   6.847   7.214  0.8584  0.7293  0.6513
  637MOL0     H84063   4.739   6.786   7.377  0.0114  0.1633 -0.4021
  637MOL0     H84064   4.774   6.606   7.136  0.0786 -0.4752  0.4727
  637MOL0     H84065   4.752   6.548   7.302  0.9571 -0.2071  0.1585
  637MOL0     H84066   3.965   6.601   7.786  0.6546  1.8167 -0.0417
  637MOL0     H84067   3.826   6.475   7.948  0.5815 -2.4893  2.0666
  637MOL0     H84068   3.690   6.757   8.467 -1.1250  1.6626  3.3461
  637MOL0     H84069   3.599   6.688   8.692 -0.6957 -1.0825  0.7580
  637MOL0     H84070   3.738   7.009   7.722  2.2416  1.5950  2.9446
  637MOL0     H84071   3.923   7.138   7.584 -3.3951  0.4788 -1.3865
  637MOL0     H84072   4.081   7.122   7.015  0.1085 -1.9894  0.2758
  637MOL0     H84073   4.269   7.219   6.891  0.3248 -1.1737 -0.1942
  637MOL0     H84074   4.609   7.347   6.819  2.5510 -3.5223  0.9297
  637MOL0     H84075   4.428   7.338   6.818 -1.1575 -1.9086  0.5536
  637MOL0     H84076   4.464   7.092   6.802 -0.2457  0.5782 -0.5557
  637MOL0     H84077   4.534   7.175   6.666 -1.1978 -1.4764 -0.2973
  637MOL0     H84078   4.752   7.155   6.721 -0.8350  1.3118 -0.0602
  637MOL0     H84079   4.678   6.999   6.744 -1.2449  0.3003 -1.5163
  637MOL0     H84080   4.782   7.197   6.935 -0.7976  0.9893 -1.7857
  637MOL0     H84081   4.656   7.080   7.000 -0.5050 -0.6083 -1.7826
  637MOL0     H84082   5.002   6.833   6.976  1.3377  1.1511  3.0212
  637MOL0     H84083   4.517   7.212   7.233  0.9687 -0.5006  0.9363
  637MOL0     H84084   4.347   7.103   7.362  0.8779 -1.0333 -1.2184
  638MOL0     O84085   7.894   0.863   2.282  0.3215 -0.2055 -0.0041
  638MOL0     C84086   7.900   0.817   2.168 -0.2532  0.9120 -0.9691
  638MOL0     O84087   8.019   0.780   2.102  0.1261 -0.2756  0.2823
  638MOL0     C84088   8.144   0.806   2.150  0.8624  0.2338  0.2768
  638MOL0     C84089   8.177   0.805   2.286 -0.0212  0.6395 -0.4029
  638MOL0     C84090   8.312   0.813   2.333 -0.3214 -0.9107  0.5756
  638MOL0     C84091   8.413   0.823   2.239 -0.5796 -0.3684 -0.4116
  638MOL0     O84092   8.542   0.833   2.277 -0.1114  0.1637 -0.4178
  638MOL0     C84093   8.661   0.860   2.200 -0.2753 -0.0631 -0.1485
  638MOL0     C84094   8.781   0.895   2.295 -0.2455  0.3034  0.5510
  638MOL0     C84095   8.817   0.779   2.392 -0.5782  0.0993 -0.5381
  638MOL0     C84096   8.821   0.639   2.335  1.3318 -0.7146  0.3507
  638MOL0     C84097   8.861   0.547   2.440  0.4282 -0.0419  0.9773
  638MOL0     C84098   8.773   0.546   2.560 -0.1502  0.0278  0.3131
  638MOL0     C84099   8.792   0.442   2.663 -0.1404  0.3945  0.1681
  638MOL0     C84100   8.722   0.467   2.788 -0.3117  0.1107 -0.9676
  638MOL0     N84101   8.747   0.341   2.857  0.3077 -0.3565 -0.1810
  638MOL0     C84102   8.645   0.254   2.882 -0.4512 -0.7676  0.6060
  638MOL0     C84103   8.692   0.130   2.896  0.0877 -0.6600 -0.1201
  638MOL0     C84104   8.611   0.004   2.900  0.2983 -0.3682 -0.1672
  638MOL0     C84105   8.536  -0.016   2.777 -0.3749  0.6800  0.7527
  638MOL0     C84106   8.424  -0.122   2.798 -0.1892 -0.3159 -0.4733
  638MOL0     C84107   8.287  -0.058   2.766 -0.0828  0.6570 -0.4218
  638MOL0     O84108   8.258   0.047   2.867 -0.0621 -0.1221  0.7238
  638MOL0     C84109   8.140   0.119   2.857 -0.6131  0.8924  1.6205
  638MOL0     C84110   8.039   0.087   2.774  0.4073  0.1305 -0.7225
  638MOL0     C84111   7.920   0.168   2.769  0.5300 -0.6491 -0.3446
  638MOL0     C84112   7.910   0.272   2.860 -0.5050 -0.4400 -0.6970
  638MOL0     C84113   7.793   0.353   2.848  0.1788 -0.3812 -1.2042
  638MOL0     O84114   7.688   0.314   2.773 -0.9688 -0.2679  0.0824
  638MOL0     C84115   7.568   0.395   2.767 -0.4931 -0.2344 -0.1275
  638MOL0     C84116   7.498   0.405   2.648 -0.0124 -0.5743 -0.1493
  638MOL0     C84117   7.375   0.469   2.644  0.6716  0.1579  0.0078
  638MOL0     C84118   7.329   0.529   2.756  0.1625 -0.2348  0.5040
  638MOL0     O84119   7.206   0.598   2.740 -0.4475  0.4737 -0.4616
  638MOL0     C84120   7.138   0.639   2.854  0.2816 -0.1515 -1.5755
  638MOL0     C84121   7.036   0.745   2.827  0.3096 -0.9020 -0.5144
  638MOL0     C84122   7.079   0.869   2.740 -0.1174  0.4035 -0.6527
  638MOL0     C84123   7.173   0.967   2.815  0.3485  0.6144 -0.0120
  638MOL0     C84124   7.199   1.108   2.760 -0.5164  0.2033 -0.0970
  638MOL0     C84125   7.095   1.210   2.759  0.5976  0.2708  1.4726
  638MOL0     C84126   7.142   1.332   2.672 -0.6138  0.7634  0.2011
  638MOL0     C84127   7.232   1.430   2.742 -0.6051 -0.1165 -0.2889
  638MOL0    Cl84128   7.378   1.449   2.648  0.1116 -0.2842  0.3566
  638MOL0     C84129   7.388   0.513   2.879 -0.1940  0.1577  0.0908
  638MOL0     C84130   7.512   0.450   2.885  0.4026 -0.2013 -0.1989
  638MOL0     O84131   7.806   0.462   2.897 -0.3683 -0.0480 -0.5853
  638MOL0     C84132   8.020   0.295   2.947 -0.4742  0.2893 -0.5558
  638MOL0     C84133   8.127   0.211   2.948  0.5350 -0.2293 -1.0444
  638MOL0     N84134   8.824   0.142   2.890 -0.1851 -0.1823 -0.5263
  638MOL0     N84135   8.859   0.268   2.878 -0.5794 -0.2383 -0.5452
  638MOL0     C84136   8.374   0.846   2.105  0.4134 -0.0744 -0.3235
  638MOL0     C84137   8.244   0.833   2.058 -0.9336  0.0103 -0.0683
  638MOL0     C84138   7.783   0.756   2.112 -0.2764 -0.4880  0.3006
  638MOL0     C84139   7.790   0.668   2.003  0.2749 -0.3483  0.0446
  638MOL0     C84140   7.680   0.611   1.944 -0.5587  0.0188  0.4071
  638MOL0     C84141   7.559   0.628   2.004  0.2898 -0.5238 -0.1272
  638MOL0     O84142   7.440   0.576   1.953  0.9960  0.2413 -0.3221
  638MOL0     C84143   7.381   0.490   2.050 -0.2432  0.5041 -0.0120
  638MOL0     C84144   7.444   0.356   2.040 -0.0590  0.7431 -0.3943
  638MOL0     C84145   7.389   0.269   1.919 -0.6050  0.3627 -0.0320
  638MOL0     C84146   7.468   0.138   1.892  0.2958  0.4782 -0.4467
  638MOL0     C84147   7.440   0.031   1.992 -1.1038  0.0542  0.0125
  638MOL0     C84148   7.401  -0.034   2.087  0.4694  0.1367 -0.0700
  638MOL0     C84149   7.553   0.721   2.102 -0.0407 -0.5610 -0.5672
  638MOL0     C84150   7.652   0.785   2.170 -0.2307  0.2798 -0.4345
  638MOL0     H84151   8.102   0.788   2.362 -3.5698 -2.9173 -4.1821
  638MOL0     H84152   8.333   0.807   2.439 -2.3052  1.8762  1.2207
  638MOL0     H84153   8.655   0.942   2.128  0.8835  0.0033 -0.1909
  638MOL0     H84154   8.681   0.772   2.138 -2.1982  0.2695 -1.2993
  638MOL0     H84155   8.766   0.991   2.345  0.2816  0.5775  0.1900
  638MOL0     H84156   8.872   0.916   2.238 -2.0424  0.0397 -2.6863
  638MOL0     H84157   8.733   0.790   2.460 -1.6753  2.5016 -2.1169
  638MOL0     H84158   8.908   0.802   2.448 -0.9372  0.6023 -0.1557
  638MOL0     H84159   8.719   0.604   2.312  0.5584  1.3867  0.3492
  638MOL0     H84160   8.868   0.638   2.236 -1.2538  0.7274 -1.0045
  638MOL0     H84161   8.964   0.571   2.469  0.8314 -2.0681  1.3783
  638MOL0     H84162   8.870   0.444   2.403  3.2382  0.3096  0.3968
  638MOL0     H84163   8.672   0.525   2.523  0.8655 -0.5580 -2.3386
  638MOL0     H84164   8.789   0.646   2.601 -0.6290 -0.4939  1.8535
  638MOL0     H84165   8.761   0.342   2.629  0.6044 -0.1030  0.9154
  638MOL0     H84166   8.900   0.443   2.680 -0.0665  0.8307 -0.2877
  638MOL0     H84167   8.613   0.476   2.780 -1.0406 -3.8649  1.3189
  638MOL0     H84168   8.770   0.549   2.843  0.3192 -1.6211  1.2069
  638MOL0     H84169   8.538   0.264   2.870 -0.5593 -2.0626  0.3365
  638MOL0     H84170   8.538   0.023   2.979 -0.4851  0.6719 -1.1022
  638MOL0     H84171   8.683  -0.073   2.928  0.4648  0.2516  1.2216
  638MOL0     H84172   8.609  -0.048   2.702 -2.4725 -0.1749 -1.0616
  638MOL0     H84173   8.488   0.075   2.741 -2.6577  0.2531  2.4273
  638MOL0     H84174   8.441  -0.206   2.730  1.3391  1.6998 -2.7225
  638MOL0     H84175   8.425  -0.147   2.904 -3.5651 -0.6181 -0.4214
  638MOL0     H84176   8.208  -0.132   2.750  2.9095 -2.5814 -1.6532
  638MOL0     H84177   8.292  -0.007   2.669  0.7841  0.3953 -0.5247
  638MOL0     H84178   8.045   0.005   2.703  0.1110 -0.7482  0.2471
  638MOL0     H84179   7.846   0.156   2.691  1.0424 -1.5717 -0.7028
  638MOL0     H84180   7.543   0.356   2.562  0.8857  0.8194 -0.4983
  638MOL0     H84181   7.315   0.477   2.554 -1.4843 -0.8600  1.2861
  638MOL0     H84182   7.215   0.676   2.922  0.3885 -3.6710  0.4502
  638MOL0     H84183   7.083   0.559   2.904 -1.8299  3.2915  2.1580
  638MOL0     H84184   7.007   0.774   2.929 -0.4116 -0.4835 -0.8320
  638MOL0     H84185   6.953   0.702   2.770 -1.1236 -2.0960  2.2200
  638MOL0     H84186   6.996   0.927   2.698  0.4231  2.4474  0.9297
  638MOL0     H84187   7.120   0.831   2.646  1.5236 -0.6629  0.4419
  638MOL0     H84188   7.127   0.976   2.914 -0.6889 -1.7561 -0.2253
  638MOL0     H84189   7.273   0.925   2.827  0.1342 -0.3056 -1.2706
  638MOL0     H84190   7.251   1.100   2.664  1.2486 -1.4993  0.9203
  638MOL0     H84191   7.279   1.142   2.826 -1.5466  0.3082  1.1166
  638MOL0     H84192   7.071   1.242   2.861  2.0155  1.5127  1.4435
  638MOL0     H84193   7.004   1.156   2.730  2.5852 -3.0773  0.8481
  638MOL0     H84194   7.191   1.292   2.583  0.5162  0.1884  1.0566
  638MOL0     H84195   7.047   1.380   2.644 -1.2700 -1.2974 -1.4182
  638MOL0     H84196   7.273   1.404   2.841  0.1802  0.7711 -0.3660
  638MOL0     H84197   7.185   1.529   2.751 -1.3620 -0.5126  0.2337
  638MOL0     H84198   7.345   0.533   2.977  0.9741  0.1028  0.6430
  638MOL0     H84199   7.550   0.433   2.985 -0.3406 -1.6801 -0.1485
  638MOL0     H84200   8.012   0.383   3.010 -0.1831  0.9865 -1.4678
  638MOL0     H84201   8.207   0.227   3.019 -1.4510  0.1575  1.2010
  638MOL0     H84202   8.446   0.880   2.031  1.2925 -1.1075  0.0330
  638MOL0     H84203   8.228   0.834   1.951  1.3823 -4.1593 -0.6597
  638MOL0     H84204   7.879   0.643   1.945 -1.8582  0.0171 -3.6914
  638MOL0     H84205   7.694   0.546   1.858 -0.3059  1.9466 -1.0681
  638MOL0     H84206   7.276   0.468   2.027 -0.6462 -0.0456  2.1358
  638MOL0     H84207   7.383   0.521   2.155  0.6136 -0.5788  0.3059
  638MOL0     H84208   7.551   0.370   2.020  0.9166 -0.2742  3.3210
  638MOL0     H84209   7.437   0.301   2.134  2.0295  0.2436 -0.4787
  638MOL0     H84210   7.392   0.324   1.825 -3.4226 -0.0782 -0.4766
  638MOL0     H84211   7.282   0.248   1.928 -0.5370 -0.9365 -1.7206
  638MOL0     H84212   7.442   0.095   1.795  0.8213 -1.0772  0.0696
  638MOL0     H84213   7.575   0.157   1.896  0.6487 -1.4634  1.2837
  638MOL0     H84214   7.361  -0.083   2.174 -1.4066  2.5976  0.5833
  638MOL0     H84215   7.458   0.752   2.144  0.2410 -0.9135  0.3413
  638MOL0     H84216   7.635   0.851   2.254 -0.9560 -0.8305  0.3208
  639MOL0     O84217   6.186   6.451   1.991  0.1495  0.0807  0.3754
  639MOL0     C84218   6.264   6.366   2.041  0.3179 -0.6771 -0.0366
  639MOL0     O84219   6.248   6.315   2.163  0.3830  0.5044  0.3942
  639MOL0     C84220   6.119   6.323   2.221  0.7090  1.0680  0.4156
  639MOL0     C84221   6.097   6.368   2.350 -0.0648 -0.2797 -0.4304
  639MOL0     C84222   5.970   6.365   2.419 -0.0952 -0.6182  0.1458
  639MOL0     C84223   5.859   6.316   2.358  0.4088 -0.6473  1.3251
  639MOL0     O84224   5.748   6.324   2.436  0.1753  0.6884  0.4701
  639MOL0     C84225   5.625   6.253   2.388 -0.4947  0.3214 -1.0527
  639MOL0     C84226   5.558   6.217   2.524  0.5433 -0.2263 -0.1440
  639MOL0     C84227   5.439   6.116   2.489  0.1819  0.4050  0.1975
  639MOL0     C84228   5.357   6.076   2.613 -0.8140 -0.4699  1.4518
  639MOL0     C84229   5.244   5.979   2.593 -0.5649 -0.4552  0.2684
  639MOL0     C84230   5.170   5.927   2.714  0.6647 -0.1220 -0.9108
  639MOL0     C84231   5.256   5.883   2.833  0.3484  0.3559  0.3486
  639MOL0     C84232   5.157   5.852   2.955  0.3282 -0.4837 -1.1582
  639MOL0     N84233   5.078   5.731   2.950  0.7192 -0.4548 -0.2065
  639MOL0     C84234   5.057   5.645   3.061 -0.3644  0.1957  0.3206
  639MOL0     C84235   4.980   5.547   3.013  0.5283 -0.6826 -0.4032
  639MOL0     C84236   4.924   5.427   3.077 -0.4830  0.2887 -0.5018
  639MOL0     C84237   4.773   5.458   3.106  0.1425  0.0596 -0.6586
  639MOL0     C84238   4.717   5.322   3.154 -0.7109 -0.0112  0.5247
  639MOL0     C84239   4.583   5.343   3.222 -0.3983 -0.5597  0.0095
  639MOL0     O84240   4.498   5.385   3.115  0.2026 -0.1429  0.4367
  639MOL0     C84241   4.380   5.314   3.092  0.4947  1.1743 -0.8516
  639MOL0     C84242   4.293   5.272   3.204 -0.1362 -0.8230 -0.4228
  639MOL0     C84243   4.174   5.208   3.169 -0.1403  0.0978  0.1499
  639MOL0     C84244   4.137   5.173   3.034 -0.4035 -0.2014  0.1998
  639MOL0     C84245   4.002   5.123   3.005  0.6449  0.2839 -0.2262
  639MOL0     O84246   3.926   5.118   3.120  0.2721 -0.1454  0.5238
  639MOL0     C84247   3.794   5.079   3.125 -0.8029 -0.6337 -0.4393
  639MOL0     C84248   3.768   5.031   3.254  0.3764  0.1473  0.7042
  639MOL0     C84249   3.644   4.976   3.275  0.7558  0.8291  0.1543
  639MOL0     C84250   3.541   4.978   3.177  0.2037 -0.0334 -0.4746
  639MOL0     O84251   3.435   4.910   3.217  0.0441 -0.0143  0.0629
  639MOL0     C84252   3.356   4.858   3.113 -1.0964 -0.6912 -0.9366
  639MOL0     C84253   3.237   4.776   3.165  0.2689 -0.2871 -0.2076
  639MOL0     C84254   3.188   4.694   3.050  0.8298 -0.2781 -0.3829
  639MOL0     C84255   3.091   4.592   3.101 -0.2297  0.0439  0.3448
  639MOL0     C84256   3.054   4.487   2.992  1.1570 -0.4971  1.5640
  639MOL0     C84257   2.970   4.362   3.043  0.0535  0.3594 -0.2791
  639MOL0     C84258   2.838   4.396   3.102 -0.0415  0.1970 -0.1479
  639MOL0     C84259   2.765   4.271   3.131 -0.8447 -0.6777 -1.2404
  639MOL0    Cl84260   2.591   4.311   3.175  0.3904 -0.1433 -0.2209
  639MOL0     C84261   3.576   5.045   3.056  0.5147  0.9675 -0.7958
  639MOL0     C84262   3.703   5.083   3.030 -0.3408 -0.0701 -0.0909
  639MOL0     O84263   3.970   5.086   2.894 -0.4173  0.0424  0.4035
  639MOL0     C84264   4.233   5.199   2.934 -0.1259  0.3576 -0.2947
  639MOL0     C84265   4.345   5.273   2.965  0.1108 -1.1116 -0.1510
  639MOL0     N84266   4.948   5.582   2.881  0.6161  0.0085 -0.0244
  639MOL0     N84267   4.996   5.694   2.853  0.0316 -0.1684 -0.2916
  639MOL0     C84268   5.873   6.267   2.223  0.0654  0.4110  0.1029
  639MOL0     C84269   6.001   6.274   2.159 -0.2196  0.1448  0.2115
  639MOL0     C84270   6.391   6.339   1.969 -0.7170  1.4881 -0.2539
  639MOL0     C84271   6.455   6.224   1.981 -0.2584  1.4428 -0.7020
  639MOL0     C84272   6.571   6.189   1.913 -0.5962  0.1965 -0.5706
  639MOL0     C84273   6.631   6.290   1.837 -0.0937  0.1880  0.1517
  639MOL0     O84274   6.756   6.274   1.779  0.0497 -0.5606 -0.6163
  639MOL0     C84275   6.846   6.166   1.809 -0.3255 -0.7156  0.2640
  639MOL0     C84276   6.888   6.161   1.958  0.0798 -0.6587  0.6303
  639MOL0     C84277   6.944   6.295   2.012 -0.4082  0.8049 -0.4798
  639MOL0     C84278   7.037   6.375   1.933 -0.7424  0.3926  0.3556
  639MOL0     C84279   7.160   6.295   1.896 -0.3970  1.5166 -0.5317
  639MOL0     C84280   7.259   6.235   1.856  0.3772  0.1666  0.5514
  639MOL0     C84281   6.564   6.407   1.814  0.4343  0.0521 -0.0773
  639MOL0     C84282   6.446   6.434   1.887  0.1691 -0.7708 -0.5129
  639MOL0     H84283   6.176   6.394   2.419 -0.6607 -1.3972  0.7242
  639MOL0     H84284   5.959   6.398   2.522  1.2821 -1.7505  0.7020
  639MOL0     H84285   5.662   6.159   2.345  1.5616 -0.6533  2.4407
  639MOL0     H84286   5.557   6.318   2.333 -0.8464 -0.0997 -1.1200
  639MOL0     H84287   5.504   6.299   2.572  2.9754 -0.6462  3.6965
  639MOL0     H84288   5.629   6.179   2.598 -2.5039 -4.2757  1.0509
  639MOL0     H84289   5.484   6.027   2.444  2.3008  2.0805 -1.2304
  639MOL0     H84290   5.375   6.158   2.411 -4.1175  0.1615  3.2873
  639MOL0     H84291   5.428   6.038   2.686 -0.9068  2.2780  3.0850
  639MOL0     H84292   5.315   6.171   2.647 -1.8756  0.2480 -1.4858
  639MOL0     H84293   5.278   5.885   2.549 -0.8848 -1.4102  2.0012
  639MOL0     H84294   5.174   6.019   2.519  0.3355  0.0740 -0.3184
  639MOL0     H84295   5.108   5.843   2.681 -0.0528 -0.0300  0.1474
  639MOL0     H84296   5.099   6.001   2.754 -2.2057 -3.3214  0.3922
  639MOL0     H84297   5.303   5.787   2.808 -0.2275 -1.0172  3.9034
  639MOL0     H84298   5.326   5.965   2.852 -0.3312  0.9525  0.2727
  639MOL0     H84299   5.084   5.933   2.971 -2.2103 -2.8923  0.2780
  639MOL0     H84300   5.213   5.849   3.049  0.2043  3.6038 -0.7499
  639MOL0     H84301   5.118   5.635   3.151 -1.9180  2.5011  1.7553
  639MOL0     H84302   4.977   5.408   3.171 -0.9330 -1.1993 -0.5219
  639MOL0     H84303   4.937   5.338   3.014  1.2513  0.8621 -1.0188
  639MOL0     H84304   4.732   5.510   3.019  1.9904  1.9742 -0.4745
  639MOL0     H84305   4.756   5.527   3.190 -3.0927 -0.1311 -1.0353
  639MOL0     H84306   4.704   5.265   3.061  0.5172  2.2494 -1.1310
  639MOL0     H84307   4.788   5.268   3.218  0.2967 -0.5652 -0.9973
  639MOL0     H84308   4.608   5.424   3.290 -0.8019  2.0345 -2.7117
  639MOL0     H84309   4.558   5.247   3.269  0.1415 -1.2088 -0.9769
  639MOL0     H84310   4.319   5.283   3.309  2.8758 -0.4404 -1.1286
  639MOL0     H84311   4.114   5.178   3.254 -0.4856  0.8475  0.1817
  639MOL0     H84312   3.855   5.046   3.317  0.0893  0.7530  0.9666
  639MOL0     H84313   3.629   4.935   3.374 -0.3287  3.9137  1.3888
  639MOL0     H84314   3.419   4.798   3.046 -2.2703 -0.7785 -1.9982
  639MOL0     H84315   3.313   4.942   3.058 -0.9720 -0.2308 -0.3411
  639MOL0     H84316   3.153   4.837   3.202 -1.6552 -1.1533 -2.8704
  639MOL0     H84317   3.273   4.721   3.252  1.6931  1.5338  0.4229
  639MOL0     H84318   3.271   4.646   2.996  3.0341  1.8542  0.9103
  639MOL0     H84319   3.136   4.752   2.972  0.4877 -1.6844 -1.2312
  639MOL0     H84320   3.141   4.533   3.179 -0.8054  3.0649  3.2087
  639MOL0     H84321   2.999   4.634   3.142  0.1533  0.0391  1.2384
  639MOL0     H84322   3.149   4.444   2.962  3.3255  2.4769  3.5369
  639MOL0     H84323   3.000   4.533   2.908 -1.6979 -0.6186  3.1894
  639MOL0     H84324   3.041   4.320   3.114 -0.2031  2.1732  1.1078
  639MOL0     H84325   2.958   4.289   2.962 -1.3020  2.2438 -1.8499
  639MOL0     H84326   2.865   4.456   3.189 -0.5057  0.0532  0.0995
  639MOL0     H84327   2.777   4.463   3.041 -2.3151 -0.0879  1.6823
  639MOL0     H84328   2.817   4.221   3.214 -0.8426 -2.2453 -2.1626
  639MOL0     H84329   2.766   4.204   3.045 -0.8389  1.3284 -2.8827
  639MOL0     H84330   3.517   5.043   2.965 -2.0988 -0.0496  0.7977
  639MOL0     H84331   3.725   5.108   2.927  0.5737  2.0715  0.5738
  639MOL0     H84332   4.215   5.172   2.830 -2.5518  1.5600 -0.2419
  639MOL0     H84333   4.400   5.308   2.878 -0.3507 -0.2829 -0.1196
  639MOL0     H84334   5.789   6.219   2.174  1.7301  0.9727 -3.6524
  639MOL0     H84335   6.024   6.233   2.061  6.9824 -1.2583  1.8868
  639MOL0     H84336   6.422   6.152   2.055  2.4299  0.4682 -0.3329
  639MOL0     H84337   6.624   6.094   1.918  3.1739  2.0611 -1.4697
  639MOL0     H84338   6.938   6.176   1.752  0.6861 -1.6322  1.6500
  639MOL0     H84339   6.806   6.067   1.786 -1.0912 -0.5018  0.6396
  639MOL0     H84340   6.807   6.129   2.024 -1.0497  0.1872 -0.3024
  639MOL0     H84341   6.962   6.083   1.981 -2.0323 -2.1131  3.0756
  639MOL0     H84342   6.994   6.272   2.107 -1.9053  3.6562  1.1505
  639MOL0     H84343   6.859   6.362   2.027 -0.0882  1.6506 -2.2282
  639MOL0     H84344   7.002   6.414   1.837  1.1298  1.5785  0.0980
  639MOL0     H84345   7.070   6.459   1.995 -2.3695  1.8245 -0.6141
  639MOL0     H84346   7.348   6.185   1.825  0.0053 -0.9615  1.2447
  639MOL0     H84347   6.611   6.489   1.761  1.8420 -0.5554  0.1816
  639MOL0     H84348   6.406   6.534   1.890  0.8036 -0.5058 -0.7602
  640MOL0     O84349  11.056   7.133   2.589 -0.1939  0.1238 -0.1180
  640MOL0     C84350  11.048   7.019   2.611 -0.0721 -0.0927 -0.2938
  640MOL0     O84351  10.939   6.941   2.592 -0.0923 -0.0515  0.4108
  640MOL0     C84352  10.809   6.986   2.576  0.8077  0.3229 -0.2729
  640MOL0     C84353  10.711   6.893   2.522 -0.6193  0.8481 -0.7867
  640MOL0     C84354  10.579   6.924   2.494 -0.6056  0.2117  0.3594
  640MOL0     C84355  10.535   7.051   2.524  0.5073 -0.4958  0.4496
  640MOL0     O84356  10.398   7.065   2.495  0.4011 -0.0303 -0.6598
  640MOL0     C84357  10.356   7.192   2.534  1.3203 -0.4709  0.4259
  640MOL0     C84358  10.209   7.217   2.489  0.2790 -0.0580 -0.8691
  640MOL0     C84359  10.144   7.356   2.526  0.0508 -0.4480  0.2465
  640MOL0     C84360  10.214   7.471   2.460  0.0057 -0.2025  0.0518
  640MOL0     C84361  10.122   7.591   2.493 -0.3061 -0.0903  0.0094
  640MOL0     C84362  10.178   7.719   2.432 -0.5631 -1.2473 -0.1074
  640MOL0     C84363  10.109   7.841   2.508 -0.6157  0.9547  0.1244
  640MOL0     C84364  10.173   7.974   2.466  0.0758  0.3196 -0.1564
  640MOL0     N84365  10.093   8.050   2.367  0.1809  0.2808  0.5799
  640MOL0     C84366   9.959   8.068   2.361 -0.2349  0.1839  0.4814
  640MOL0     C84367   9.933   8.122   2.241 -0.7570  0.2050  0.4071
  640MOL0     C84368   9.810   8.147   2.168  1.2326  0.9065  0.5519
  640MOL0     C84369   9.783   8.076   2.033 -0.0456 -0.1345 -0.1189
  640MOL0     C84370   9.898   8.085   1.925 -0.7610  0.2437  0.4736
  640MOL0     C84371   9.938   8.226   1.883 -0.7197  1.0981 -0.0512
  640MOL0     O84372  10.020   8.213   1.765 -0.2080 -0.1253  1.1753
  640MOL0     C84373  10.153   8.190   1.767 -0.3109 -0.1731 -0.2686
  640MOL0     C84374  10.221   8.199   1.641  0.4625 -0.0136  0.3855
  640MOL0     C84375  10.352   8.171   1.632 -0.7004  0.4122  0.2521
  640MOL0     C84376  10.433   8.146   1.748 -0.8599 -0.1001  0.1734
  640MOL0     C84377  10.586   8.139   1.734 -0.9070  0.2573 -0.2742
  640MOL0     O84378  10.639   8.168   1.859 -0.1261  0.0495  0.4818
  640MOL0     C84379  10.768   8.144   1.893  0.3650 -0.4581  0.0241
  640MOL0     C84380  10.880   8.188   1.821 -0.3616  0.3128 -0.1676
  640MOL0     C84381  11.008   8.174   1.877  0.3757 -0.3467  0.8360
  640MOL0     C84382  11.032   8.120   2.004  0.1177  0.1869 -0.6491
  640MOL0     O84383  11.163   8.119   2.048  0.2820 -0.9414  0.2188
  640MOL0     C84384  11.198   8.079   2.179 -0.3206 -0.6565 -0.5218
  640MOL0     C84385  11.348   8.071   2.218 -0.6293 -0.0844 -0.2983
  640MOL0     C84386  11.443   8.176   2.168 -0.4660  0.0294  0.0214
  640MOL0     C84387  11.578   8.152   2.235  0.5862 -0.5517 -0.0772
  640MOL0     C84388  11.660   8.279   2.213  0.3584  0.3601  0.4810
  640MOL0     C84389  11.662   8.327   2.065 -0.1862  0.4148  0.2475
  640MOL0     C84390  11.785   8.412   2.032  0.6249 -0.4686 -0.5291
  640MOL0     C84391  11.806   8.548   2.099  0.5488 -0.0898 -0.7986
  640MOL0    Cl84392  11.957   8.632   2.040 -0.6452  0.4150  0.4439
  640MOL0     C84393  10.919   8.081   2.071 -0.0749 -0.6145  0.7024
  640MOL0     C84394  10.791   8.090   2.020 -0.5200 -0.3683  0.7896
  640MOL0     O84395  10.650   8.125   1.633 -0.5821  0.3702 -0.4836
  640MOL0     C84396  10.368   8.125   1.859 -0.4609  0.7657 -0.5005
  640MOL0     C84397  10.236   8.143   1.875  0.8105 -0.4659 -0.8543
  640MOL0     N84398  10.055   8.155   2.182  0.1906  0.4558 -0.3671
  640MOL0     N84399  10.146   8.115   2.266  0.2490  0.6503  0.2088
  640MOL0     C84400  10.631   7.145   2.579  0.3002 -0.1245  0.3889
  640MOL0     C84401  10.763   7.114   2.591 -0.0103  0.2118  0.0559
  640MOL0     C84402  11.166   6.949   2.652  0.5707 -0.2647  0.2472
  640MOL0     C84403  11.279   7.020   2.704  1.0782  1.2370  0.3931
  640MOL0     C84404  11.406   6.957   2.737  0.3615  0.5218  0.4125
  640MOL0     C84405  11.407   6.815   2.741  0.0404 -0.8019  0.3882
  640MOL0     O84406  11.510   6.741   2.781 -1.2480 -0.7195  0.0478
  640MOL0     C84407  11.629   6.803   2.837 -0.0016 -0.0611  0.0462
  640MOL0     C84408  11.718   6.697   2.907  0.0591  0.4479  0.4457
  640MOL0     C84409  11.802   6.622   2.801  0.3276  0.0423  0.4617
  640MOL0     C84410  11.926   6.566   2.881  0.8530 -0.1108  0.4179
  640MOL0     C84411  12.015   6.501   2.797 -0.8846  0.3947  0.5317
  640MOL0     C84412  12.105   6.467   2.731  0.4928  0.2168 -0.6718
  640MOL0     C84413  11.295   6.744   2.703  0.7065 -0.4528 -0.3796
  640MOL0     C84414  11.177   6.804   2.653  0.5225 -1.1879  0.4748
  640MOL0     H84415  10.748   6.791   2.519 -2.3492  0.1095  0.9403
  640MOL0     H84416  10.505   6.859   2.449 -2.4754  1.6698  1.1861
  640MOL0     H84417  10.414   7.269   2.481  0.7047  0.2358  0.7521
  640MOL0     H84418  10.356   7.200   2.643  0.4307 -1.6798  0.5298
  640MOL0     H84419  10.153   7.136   2.536  0.3381 -0.5862 -1.6932
  640MOL0     H84420  10.208   7.195   2.382 -2.1187 -3.3312 -0.3299
  640MOL0     H84421  10.148   7.364   2.635  0.3084 -2.2854  0.4010
  640MOL0     H84422  10.050   7.353   2.470  1.1101  0.0418 -1.6386
  640MOL0     H84423  10.318   7.490   2.488 -0.3920  0.9707  0.8044
  640MOL0     H84424  10.207   7.464   2.351 -2.6474  0.8644  0.0672
  640MOL0     H84425  10.112   7.593   2.602 -0.2940  0.5434  0.0004
  640MOL0     H84426  10.022   7.577   2.451 -1.5112  2.0061  1.9714
  640MOL0     H84427  10.180   7.712   2.323  1.2125 -0.4213 -0.1737
  640MOL0     H84428  10.283   7.726   2.464 -0.7797  1.0906  0.2217
  640MOL0     H84429  10.001   7.847   2.487 -0.4189  1.7685 -0.7300
  640MOL0     H84430  10.118   7.830   2.616 -0.0466  2.9410  0.3130
  640MOL0     H84431  10.271   7.961   2.420 -0.9064 -1.2155 -1.9348
  640MOL0     H84432  10.189   8.039   2.553  0.1367 -1.1700  0.9757
  640MOL0     H84433   9.888   8.026   2.431 -1.9713 -0.1975 -1.4090
  640MOL0     H84434   9.803   8.256   2.164  0.2005  0.9076  1.7194
  640MOL0     H84435   9.733   8.105   2.233  0.1665  3.4044  1.0356
  640MOL0     H84436   9.689   8.123   2.002 -0.2215  1.0772  2.1020
  640MOL0     H84437   9.760   7.973   2.060 -1.6532  1.1137  4.0896
  640MOL0     H84438   9.983   8.032   1.969  1.3081  1.7848 -1.4261
  640MOL0     H84439   9.862   8.044   1.830 -1.8987  0.2022  0.8976
  640MOL0     H84440   9.993   8.271   1.966  2.9182 -2.2842 -0.3308
  640MOL0     H84441   9.841   8.274   1.867 -2.4059 -0.2785  4.4442
  640MOL0     H84442  10.157   8.221   1.556 -1.7544 -0.5336  1.8286
  640MOL0     H84443  10.407   8.180   1.538 -2.8016  0.2271 -1.0631
  640MOL0     H84444  10.874   8.225   1.719 -1.8559 -0.0971 -0.2496
  640MOL0     H84445  11.096   8.205   1.822  0.6643 -0.8049  1.0307
  640MOL0     H84446  11.155   7.980   2.197  0.2487 -1.0543 -1.2923
  640MOL0     H84447  11.144   8.144   2.249  0.9867 -3.1732  3.1188
  640MOL0     H84448  11.383   7.974   2.182 -1.8391 -0.9082  0.6410
  640MOL0     H84449  11.350   8.067   2.328 -3.8074 -1.1378 -0.1732
  640MOL0     H84450  11.398   8.276   2.175 -0.2309  0.1826 -0.6055
  640MOL0     H84451  11.458   8.164   2.061 -0.0941 -0.7990  0.1624
  640MOL0     H84452  11.568   8.140   2.344 -1.4686 -3.0408 -0.4450
  640MOL0     H84453  11.625   8.070   2.181  2.2184  1.7408 -2.3516
  640MOL0     H84454  11.767   8.260   2.229  0.1797  0.3976  1.8208
  640MOL0     H84455  11.636   8.365   2.276  1.2904 -0.0987  1.5053
  640MOL0     H84456  11.568   8.383   2.058  1.0841  2.5487 -1.0143
  640MOL0     H84457  11.670   8.239   2.000  1.5254  1.0484 -0.4546
  640MOL0     H84458  11.879   8.357   2.040  1.9765  1.1261 -3.5900
  640MOL0     H84459  11.771   8.439   1.927 -1.5800 -1.7925 -0.6368
  640MOL0     H84460  11.820   8.531   2.206  4.3462 -0.0880 -1.1335
  640MOL0     H84461  11.720   8.610   2.071  0.2510 -1.1477 -2.3301
  640MOL0     H84462  10.936   8.043   2.171  2.4762 -1.0670  0.1784
  640MOL0     H84463  10.704   8.064   2.080 -1.3254 -1.0133 -0.6016
  640MOL0     H84464  10.414   8.106   1.955 -0.6517 -0.8296 -0.6993
  640MOL0     H84465  10.188   8.132   1.972  0.6453  0.1126 -0.8640
  640MOL0     H84466  10.596   7.248   2.581  0.2093  0.0184 -2.8977
  640MOL0     H84467  10.829   7.186   2.639  0.7635 -0.3829 -0.0864
  640MOL0     H84468  11.267   7.128   2.708  0.7662  1.2970 -1.4012
  640MOL0     H84469  11.490   7.024   2.751  1.1599 -0.2038 -0.7477
  640MOL0     H84470  11.595   6.868   2.919  0.7997  0.2468  0.1359
  640MOL0     H84471  11.672   6.854   2.751 -2.1369 -2.0712 -2.4083
  640MOL0     H84472  11.795   6.738   2.973  3.9545 -0.3773 -3.1444
  640MOL0     H84473  11.651   6.621   2.949  0.9274 -0.0477  0.9400
  640MOL0     H84474  11.827   6.701   2.729  2.6436  1.4928  2.6754
  640MOL0     H84475  11.746   6.538   2.761 -1.1728  0.6734  1.1300
  640MOL0     H84476  11.982   6.646   2.932  1.4489  0.2798 -0.7972
  640MOL0     H84477  11.883   6.498   2.955 -1.6658  0.9550  0.0527
  640MOL0     H84478  12.177   6.433   2.660  1.2730 -2.1910  1.1474
  640MOL0     H84479  11.296   6.637   2.726  0.8241 -0.3010  0.3575
  640MOL0     H84480  11.098   6.736   2.624 -0.8474  0.5623 -0.0275
  641MOL0     O84481   7.803   1.001   7.769  0.1945 -0.2696  0.0962
  641MOL0     C84482   7.732   0.920   7.829  0.2411  0.6855 -0.8911
  641MOL0     O84483   7.639   0.945   7.914  0.1275 -0.0932  0.5367
  641MOL0     C84484   7.626   1.075   7.958  0.2683 -0.0341  0.5471
  641MOL0     C84485   7.735   1.165   7.995  0.5004 -0.7947 -0.1185
  641MOL0     C84486   7.702   1.289   8.048 -0.2239  0.1511  0.1569
  641MOL0     C84487   7.570   1.322   8.079  0.2211 -0.0502  0.3854
  641MOL0     O84488   7.545   1.443   8.148 -0.5798 -0.0907  0.3395
  641MOL0     C84489   7.586   1.448   8.290  0.0534 -0.4476  0.0873
  641MOL0     C84490   7.542   1.326   8.372  0.2172  0.1426  0.8467
  641MOL0     C84491   7.393   1.325   8.393  0.1648 -0.2210 -0.8544
  641MOL0     C84492   7.367   1.439   8.499 -1.0498 -0.0823 -0.1413
  641MOL0     C84493   7.228   1.445   8.562  0.2833  0.0761 -0.9007
  641MOL0     C84494   7.117   1.457   8.456 -0.5124  1.1739 -0.6212
  641MOL0     C84495   6.988   1.540   8.491 -0.5262 -0.1506  0.2729
  641MOL0     C84496   6.910   1.484   8.610  0.0713 -0.2615 -0.2292
  641MOL0     N84497   6.765   1.516   8.604 -0.0464  0.0949  0.0625
  641MOL0     C84498   6.715   1.644   8.613  0.2544  0.4220  0.2638
  641MOL0     C84499   6.577   1.636   8.614  0.5267  0.2141 -0.2203
  641MOL0     C84500   6.493   1.744   8.667  0.3241 -0.6540 -0.5565
  641MOL0     C84501   6.349   1.759   8.614 -0.0213  0.6395  0.2072
  641MOL0     C84502   6.258   1.647   8.663  0.2812  0.9656 -1.3988
  641MOL0     C84503   6.227   1.646   8.814 -0.1978 -0.2432 -0.2134
  641MOL0     O84504   6.137   1.752   8.854 -0.3523  0.0905  0.9203
  641MOL0     C84505   6.003   1.737   8.866 -0.0352 -0.2785 -0.2575
  641MOL0     C84506   5.934   1.619   8.847 -0.2086 -0.0192 -1.1512
  641MOL0     C84507   5.794   1.633   8.864 -0.1426 -0.2845 -0.6835
  641MOL0     C84508   5.725   1.744   8.907  0.2299 -0.7688  0.0970
  641MOL0     C84509   5.579   1.745   8.938 -0.3456 -0.5981  0.3888
  641MOL0     O84510   5.501   1.841   8.881  0.5870  0.5424  0.4546
  641MOL0     C84511   5.359   1.846   8.883  0.2668  0.6712  0.3586
  641MOL0     C84512   5.302   1.961   8.836  0.7893 -0.1710 -0.1585
  641MOL0     C84513   5.164   1.998   8.847  0.3232 -0.0613 -0.1010
  641MOL0     C84514   5.080   1.902   8.911  1.2776 -0.7289  0.7472
  641MOL0     O84515   4.938   1.922   8.892  0.2985 -0.1371 -0.9680
  641MOL0     C84516   4.859   1.920   9.013 -0.3269 -0.8881  1.1879
  641MOL0     C84517   4.752   1.814   8.986 -0.1904  0.1184 -0.2902
  641MOL0     C84518   4.807   1.676   8.983 -0.1263  0.3155  0.4189
  641MOL0     C84519   4.705   1.575   8.963  0.4046  0.2955  0.4737
  641MOL0     C84520   4.704   1.513   8.820 -0.4610 -1.0298  0.1701
  641MOL0     C84521   4.635   1.378   8.806 -0.3550 -0.0536 -0.2108
  641MOL0     C84522   4.575   1.363   8.656  0.0819  0.6298 -0.3674
  641MOL0     C84523   4.688   1.319   8.567  0.2514  0.4381  0.2603
  641MOL0    Cl84524   4.653   1.278   8.391 -0.0892  0.3611 -0.3917
  641MOL0     C84525   5.133   1.782   8.965 -0.2002 -0.0364 -0.8449
  641MOL0     C84526   5.271   1.758   8.959 -0.2817 -0.6392  0.3614
  641MOL0     O84527   5.539   1.646   8.994  0.7129 -0.0449 -1.1415
  641MOL0     C84528   5.797   1.862   8.916 -0.5537  0.4654 -0.0593
  641MOL0     C84529   5.933   1.863   8.900 -0.3668  0.2321  0.8594
  641MOL0     N84530   6.549   1.499   8.613 -0.6090 -0.5015  0.3246
  641MOL0     N84531   6.658   1.434   8.609 -0.6095 -0.2785  0.8484
  641MOL0     C84532   7.469   1.238   8.045  0.7757  0.8122 -1.4058
  641MOL0     C84533   7.493   1.115   7.987  0.3752  0.6149  0.0448
  641MOL0     C84534   7.749   0.774   7.787 -0.7594  0.2224  0.2656
  641MOL0     C84535   7.800   0.743   7.659 -0.1038  0.0496 -0.5184
  641MOL0     C84536   7.798   0.610   7.614 -0.8644  0.1552 -0.3270
  641MOL0     C84537   7.741   0.505   7.685 -0.1857  0.1764  0.3491
  641MOL0     O84538   7.731   0.371   7.647  0.2358  0.1616  0.9798
  641MOL0     C84539   7.829   0.334   7.551 -0.8137  0.2312  0.4010
  641MOL0     C84540   7.842   0.191   7.538  0.5095  0.1493 -0.4535
  641MOL0     C84541   7.905   0.136   7.666 -0.2198 -0.9654  0.4915
  641MOL0     C84542   7.929  -0.017   7.663  0.2543  0.6345 -0.7199
  641MOL0     C84543   7.801  -0.093   7.642 -0.5496  0.2887 -0.3669
  641MOL0     C84544   7.699  -0.148   7.610 -0.1156  0.6892  0.4280
  641MOL0     C84545   7.687   0.535   7.811  0.0882  0.0055  0.3723
  641MOL0     C84546   7.696   0.667   7.853 -0.7307 -0.3177 -0.7339
  641MOL0     H84547   7.835   1.132   7.969  0.0702 -2.6525  0.4222
  641MOL0     H84548   7.783   1.358   8.070 -3.3069  3.6014  1.8034
  641MOL0     H84549   7.550   1.539   8.338  0.1886 -0.1623 -0.3438
  641MOL0     H84550   7.694   1.462   8.299  0.5628 -2.1679 -2.2388
  641MOL0     H84551   7.601   1.333   8.464  2.7367  4.2228 -0.7859
  641MOL0     H84552   7.553   1.226   8.329  0.1496  0.6717 -0.4422
  641MOL0     H84553   7.359   1.232   8.441  0.2403  0.4089  0.4873
  641MOL0     H84554   7.337   1.354   8.304 -0.6378  3.1307  0.5893
  641MOL0     H84555   7.432   1.420   8.584 -0.5743 -0.6699 -0.6227
  641MOL0     H84556   7.386   1.538   8.456 -2.0172 -0.3390 -1.2498
  641MOL0     H84557   7.223   1.533   8.626 -2.2598  0.6111 -1.6926
  641MOL0     H84558   7.215   1.358   8.628  2.3977 -1.3218 -2.2197
  641MOL0     H84559   7.076   1.361   8.423  1.4850  0.6751 -1.7852
  641MOL0     H84560   7.161   1.507   8.369  0.2817 -1.8211 -2.0798
  641MOL0     H84561   7.011   1.647   8.497 -2.2193  0.2769 -0.1982
  641MOL0     H84562   6.927   1.525   8.402  0.6125 -0.6881 -0.4322
  641MOL0     H84563   6.955   1.535   8.695 -0.4824  0.7916 -0.5415
  641MOL0     H84564   6.929   1.376   8.612  2.8996  0.1827  1.5008
  641MOL0     H84565   6.766   1.739   8.619 -1.6724  1.4624  1.2159
  641MOL0     H84566   6.544   1.836   8.639  1.4804  0.0446  3.3846
  641MOL0     H84567   6.498   1.751   8.776 -1.4539 -0.8769 -0.4159
  641MOL0     H84568   6.344   1.755   8.505 -1.5968 -1.0974  0.2840
  641MOL0     H84569   6.303   1.853   8.645 -4.0272 -0.0529 -2.8370
  641MOL0     H84570   6.161   1.670   8.618  0.3592 -0.5198 -2.4045
  641MOL0     H84571   6.281   1.543   8.639 -1.1639  0.2112  0.3207
  641MOL0     H84572   6.310   1.668   8.881  0.8837 -0.1694 -1.5547
  641MOL0     H84573   6.192   1.543   8.830 -0.1592 -0.3543 -0.8441
  641MOL0     H84574   5.975   1.519   8.842 -0.1162 -0.0648  0.0984
  641MOL0     H84575   5.753   1.532   8.854  2.1852 -1.2695 -0.9151
  641MOL0     H84576   5.362   2.044   8.802  0.5412  1.0043  2.0728
  641MOL0     H84577   5.130   2.091   8.804  2.5755  0.0522 -1.8703
  641MOL0     H84578   4.812   2.018   9.030 -1.4077 -0.7006 -2.1692
  641MOL0     H84579   4.911   1.892   9.105  0.0774  1.3807  1.7130
  641MOL0     H84580   4.707   1.850   8.893 -2.6497  1.1626  1.2001
  641MOL0     H84581   4.682   1.813   9.070 -2.8862 -0.4449 -2.3936
  641MOL0     H84582   4.879   1.640   9.057  0.9830 -3.4141 -2.1930
  641MOL0     H84583   4.862   1.688   8.889  0.9730  0.1667  1.0312
  641MOL0     H84584   4.729   1.490   9.027 -1.0893 -0.9893 -0.6127
  641MOL0     H84585   4.604   1.610   8.984 -0.3722 -0.5647 -1.6331
  641MOL0     H84586   4.804   1.503   8.776 -0.6224 -2.2799  0.0307
  641MOL0     H84587   4.649   1.590   8.766 -0.4906 -1.8414 -0.9963
  641MOL0     H84588   4.553   1.373   8.879  0.8134 -3.0076  1.0601
  641MOL0     H84589   4.707   1.297   8.826 -0.5801 -0.1172  0.3777
  641MOL0     H84590   4.499   1.284   8.652 -0.4374  1.0768  0.5753
  641MOL0     H84591   4.538   1.458   8.618  2.3459  1.3439 -0.9757
  641MOL0     H84592   4.731   1.230   8.612 -0.6716  1.5925  3.6890
  641MOL0     H84593   4.769   1.392   8.561  1.2423 -0.7260 -1.6377
  641MOL0     H84594   5.065   1.707   9.005 -0.5856 -0.1576 -1.6981
  641MOL0     H84595   5.308   1.666   9.003  0.3457 -2.0749 -2.8792
  641MOL0     H84596   5.746   1.955   8.937 -2.6447  0.0514 -2.7580
  641MOL0     H84597   5.989   1.951   8.926 -2.0775  1.5217  0.3764
  641MOL0     H84598   7.367   1.257   8.075  0.9961 -2.4700  2.2267
  641MOL0     H84599   7.423   1.036   7.961  2.8673 -1.1781 -1.7772
  641MOL0     H84600   7.845   0.822   7.600  3.9283 -3.1146 -2.1908
  641MOL0     H84601   7.851   0.605   7.519  1.1405 -0.8034  0.7659
  641MOL0     H84602   7.926   0.375   7.580  0.5092 -3.0497  1.0685
  641MOL0     H84603   7.814   0.389   7.457 -0.0080  1.2255  0.8431
  641MOL0     H84604   7.741   0.150   7.541  1.1953 -1.6088  2.5393
  641MOL0     H84605   7.899   0.154   7.452  0.4950  1.0525 -0.8579
  641MOL0     H84606   7.829   0.142   7.744 -3.7740  3.0995 -2.7977
  641MOL0     H84607   7.998   0.193   7.675  0.5634 -2.4701  2.4942
  641MOL0     H84608   7.996  -0.047   7.582 -0.9208 -1.2874 -1.0296
  641MOL0     H84609   7.976  -0.028   7.761 -1.3521  0.3049  0.0476
  641MOL0     H84610   7.603  -0.185   7.577 -0.5699  1.5015  0.8117
  641MOL0     H84611   7.638   0.459   7.869  0.5022 -1.0277 -0.5900
  641MOL0     H84612   7.654   0.698   7.948  0.9957 -0.6485  0.1672
  642MOL0     O84613   1.037   6.504   4.497  0.5931 -0.2985 -0.2058
  642MOL0     C84614   1.019   6.450   4.603  0.1896  0.3716  0.3356
  642MOL0     O84615   0.901   6.392   4.643  0.2294 -0.3205  0.3525
  642MOL0     C84616   0.786   6.415   4.573  1.3235 -0.3789  0.2221
  642MOL0     C84617   0.747   6.537   4.506 -0.3819  0.9116  0.0535
  642MOL0     C84618   0.621   6.549   4.453 -0.9958  0.8010  1.4088
  642MOL0     C84619   0.521   6.447   4.468 -0.2164 -0.2759 -0.5214
  642MOL0     O84620   0.390   6.448   4.430 -0.5713  0.0770  0.4454
  642MOL0     C84621   0.372   6.459   4.289  0.1420 -0.1070  0.0628
  642MOL0     C84622   0.238   6.391   4.260  0.2679  0.0073  1.1450
  642MOL0     C84623   0.119   6.444   4.332  0.0778  0.7875  0.0041
  642MOL0     C84624   0.078   6.590   4.281 -0.1180 -0.4975  0.5674
  642MOL0     C84625  -0.053   6.633   4.348 -0.2904 -0.0030 -0.1214
  642MOL0     C84626  -0.085   6.774   4.302 -0.2682 -0.4237 -0.0918
  642MOL0     C84627  -0.228   6.821   4.340 -0.1765 -0.1143 -0.3250
  642MOL0     C84628  -0.245   6.974   4.322 -0.0483 -0.7169 -0.3427
  642MOL0     N84629  -0.391   7.027   4.325 -0.1926  0.7139  0.4854
  642MOL0     C84630  -0.496   6.989   4.239 -0.9103 -0.0448 -0.2436
  642MOL0     C84631  -0.613   7.006   4.304 -1.6585  0.1720  1.0739
  642MOL0     C84632  -0.746   6.988   4.241 -0.9002 -0.0577  0.3284
  642MOL0     C84633  -0.787   7.106   4.154 -0.4815  0.7833  0.4040
  642MOL0     C84634  -0.929   7.103   4.111 -0.3576  0.5134  0.1777
  642MOL0     C84635  -0.946   7.140   3.955 -0.2378  0.1107 -0.6585
  642MOL0     O84636  -1.069   7.101   3.902 -0.3899  0.3173  0.4822
  642MOL0     C84637  -1.168   7.192   3.900  0.9273 -1.0240 -0.2992
  642MOL0     C84638  -1.169   7.316   3.972 -0.3227 -0.3802 -0.6772
  642MOL0     C84639  -1.268   7.416   3.960 -0.5334  0.4498 -0.7426
  642MOL0     C84640  -1.368   7.400   3.867 -0.6410  0.6095  0.0386
  642MOL0     C84641  -1.467   7.511   3.841  0.3497 -1.4174  1.1792
  642MOL0     O84642  -1.558   7.499   3.740  0.1062 -0.3314 -0.1619
  642MOL0     C84643  -1.650   7.603   3.740  0.0030 -0.0315  0.2150
  642MOL0     C84644  -1.726   7.631   3.851 -0.1576  0.0683 -0.5716
  642MOL0     C84645  -1.816   7.748   3.849 -0.0274  0.8203  0.0658
  642MOL0     C84646  -1.829   7.813   3.733 -0.0418  0.1164 -0.8743
  642MOL0     O84647  -1.892   7.931   3.728 -0.7717  0.3034  0.5910
  642MOL0     C84648  -2.010   7.936   3.633  0.3305  0.4991 -0.4744
  642MOL0     C84649  -2.125   7.843   3.663  0.1810  0.0679  0.0503
  642MOL0     C84650  -2.245   7.895   3.574 -0.4400 -0.5403  0.8394
  642MOL0     C84651  -2.379   7.819   3.583  0.6238  0.9046  0.7624
  642MOL0     C84652  -2.495   7.871   3.503  0.0668  0.1823 -0.5391
  642MOL0     C84653  -2.629   7.790   3.511  0.0174 -0.1455 -0.3092
  642MOL0     C84654  -2.614   7.663   3.417 -0.8353 -1.0083 -0.7783
  642MOL0     C84655  -2.737   7.581   3.445 -0.8541  0.2565 -0.2380
  642MOL0    Cl84656  -2.893   7.656   3.432  0.1644 -0.0553  0.0220
  642MOL0     C84657  -1.755   7.778   3.616 -0.3393 -0.2234  0.3656
  642MOL0     C84658  -1.664   7.673   3.623  0.5335 -0.7038 -0.2774
  642MOL0     O84659  -1.457   7.603   3.918  0.1494 -0.7042  0.3528
  642MOL0     C84660  -1.363   7.286   3.782 -0.8531  0.0161  0.4171
  642MOL0     C84661  -1.262   7.186   3.798  0.0949 -0.2489 -0.1616
  642MOL0     N84662  -0.585   7.062   4.430  0.6287  0.2622 -0.0344
  642MOL0     N84663  -0.455   7.079   4.438 -0.8614  0.0267 -0.3523
  642MOL0     C84664   0.565   6.328   4.536  0.3640  0.7923 -0.8285
  642MOL0     C84665   0.689   6.319   4.596 -0.1712 -0.0556 -0.2745
  642MOL0     C84666   1.126   6.418   4.688 -1.3617 -0.5541  0.5794
  642MOL0     C84667   1.107   6.361   4.819  0.1872  0.3916  0.0473
  642MOL0     C84668   1.216   6.324   4.898 -0.0073  0.8746  0.1070
  642MOL0     C84669   1.340   6.338   4.852  0.2219 -0.5556  0.0764
  642MOL0     O84670   1.436   6.311   4.944  0.0622  0.6344 -0.0658
  642MOL0     C84671   1.570   6.371   4.930 -0.2854 -0.1091 -0.3952
  642MOL0     C84672   1.647   6.374   5.059  1.1781 -0.5580  0.3063
  642MOL0     C84673   1.715   6.507   5.085  0.2121  1.0679  0.3735
  642MOL0     C84674   1.795   6.503   5.214 -0.5486  0.2325 -0.3107
  642MOL0     C84675   1.858   6.634   5.247  0.0575  0.2208  0.0329
  642MOL0     C84676   1.912   6.738   5.263  0.8757 -0.9074 -0.6260
  642MOL0     C84677   1.359   6.398   4.721 -0.4033  0.3541 -0.4290
  642MOL0     C84678   1.255   6.428   4.641  0.0428 -0.6165 -0.1420
  642MOL0     H84679   0.815   6.619   4.484  0.9976  0.1226  1.1849
  642MOL0     H84680   0.593   6.640   4.401  0.4694  1.9799  2.6105
  642MOL0     H84681   0.441   6.403   4.225 -0.4955  0.2604 -0.9770
  642MOL0     H84682   0.367   6.565   4.262 -2.5151  0.0023  0.7550
  642MOL0     H84683   0.248   6.282   4.270 -0.0881 -0.3661 -1.7109
  642MOL0     H84684   0.220   6.396   4.152  2.4481 -1.8373  0.6264
  642MOL0     H84685   0.135   6.451   4.440  0.0250  3.9285 -0.1232
  642MOL0     H84686   0.034   6.376   4.318 -1.9961  3.2893 -0.3840
  642MOL0     H84687   0.160   6.660   4.298 -1.2503  1.1350 -0.3627
  642MOL0     H84688   0.067   6.573   4.173  0.1925 -0.4779  0.5306
  642MOL0     H84689  -0.057   6.640   4.457 -1.3462 -0.2471 -0.1329
  642MOL0     H84690  -0.129   6.565   4.310 -1.5059  3.2704 -4.2800
  642MOL0     H84691  -0.075   6.790   4.194  1.8732  2.1307  0.3649
  642MOL0     H84692  -0.010   6.842   4.343 -1.9359  2.6829 -1.8065
  642MOL0     H84693  -0.299   6.770   4.275  1.2500 -1.9084 -0.5752
  642MOL0     H84694  -0.245   6.792   4.445 -1.8760  0.3617 -0.4447
  642MOL0     H84695  -0.189   7.006   4.234  0.3581 -0.6732 -0.0662
  642MOL0     H84696  -0.201   7.029   4.406 -0.8996  0.4037 -0.6019
  642MOL0     H84697  -0.477   6.949   4.140  2.6059 -0.2664  0.3894
  642MOL0     H84698  -0.812   6.985   4.328 -0.9987 -0.2367  0.2487
  642MOL0     H84699  -0.746   6.896   4.182  2.5058  1.0263 -1.6426
  642MOL0     H84700  -0.727   7.087   4.065  0.9235  3.2568  0.7483
  642MOL0     H84701  -0.747   7.198   4.198  1.4053 -0.1670  0.7632
  642MOL0     H84702  -0.963   6.999   4.112 -0.3359  0.4787 -1.0369
  642MOL0     H84703  -0.990   7.174   4.166 -0.1620  0.0161  1.0519
  642MOL0     H84704  -0.865   7.093   3.899  1.4601  1.2679  0.7270
  642MOL0     H84705  -0.934   7.247   3.934 -1.8246  0.4356 -0.0849
  642MOL0     H84706  -1.088   7.332   4.044 -3.4958  0.5665  3.0234
  642MOL0     H84707  -1.257   7.507   4.019  1.8524 -0.7047  0.7559
  642MOL0     H84708  -1.718   7.585   3.949 -1.3332 -0.8974 -0.9094
  642MOL0     H84709  -1.881   7.773   3.932 -1.4510 -1.1988 -0.3375
  642MOL0     H84710  -1.978   7.928   3.529  0.1655  0.1749 -0.5026
  642MOL0     H84711  -2.052   8.036   3.638 -0.9475 -0.0307 -0.0270
  642MOL0     H84712  -2.155   7.853   3.768 -2.7796 -0.5968 -0.6194
  642MOL0     H84713  -2.107   7.738   3.636 -0.5342  0.1525 -0.7880
  642MOL0     H84714  -2.217   7.894   3.468 -0.3160  2.1738  0.7562
  642MOL0     H84715  -2.251   8.001   3.600  0.0783 -0.6864  1.5928
  642MOL0     H84716  -2.356   7.722   3.540 -2.1947  2.0544 -4.0732
  642MOL0     H84717  -2.411   7.811   3.687  1.6198 -1.0905  0.9484
  642MOL0     H84718  -2.467   7.870   3.398  1.1179  0.0273 -0.2711
  642MOL0     H84719  -2.516   7.974   3.535 -1.9358 -0.5374  0.6242
  642MOL0     H84720  -2.709   7.857   3.477 -1.0369 -0.6407  1.0788
  642MOL0     H84721  -2.641   7.757   3.615 -0.3087 -0.4643 -0.4444
  642MOL0     H84722  -2.608   7.684   3.309  2.8816 -1.5538 -0.7964
  642MOL0     H84723  -2.527   7.601   3.439  1.5157  1.8797 -1.4116
  642MOL0     H84724  -2.729   7.537   3.545  2.0241  1.4496  0.1594
  642MOL0     H84725  -2.716   7.508   3.366  1.7872  1.3704 -0.6484
  642MOL0     H84726  -1.754   7.844   3.530 -1.6354  0.4512  0.8401
  642MOL0     H84727  -1.610   7.651   3.532 -1.9798 -0.9949 -1.8191
  642MOL0     H84728  -1.437   7.288   3.702  0.5003 -1.2491 -0.9331
  642MOL0     H84729  -1.254   7.109   3.722  0.0551 -1.3244  0.8840
  642MOL0     H84730   0.497   6.247   4.559  1.4822  0.3619  1.1265
  642MOL0     H84731   0.723   6.240   4.662  0.9254  1.1536  0.6770
  642MOL0     H84732   1.006   6.346   4.856  0.2513  0.3292  0.1967
  642MOL0     H84733   1.210   6.292   5.002  3.0638  0.4351  0.2420
  642MOL0     H84734   1.551   6.473   4.896  2.4660 -0.0833 -2.0797
  642MOL0     H84735   1.618   6.303   4.860 -0.9198  1.8097 -2.8423
  642MOL0     H84736   1.577   6.339   5.137 -0.2364 -0.4107 -0.8514
  642MOL0     H84737   1.726   6.298   5.055  0.6567 -1.0629 -1.6557
  642MOL0     H84738   1.631   6.575   5.095  0.1242  1.3711 -1.8110
  642MOL0     H84739   1.771   6.532   4.994  0.6671  1.9833  0.8934
  642MOL0     H84740   1.734   6.469   5.299  2.3170 -0.4139  1.6405
  642MOL0     H84741   1.884   6.442   5.200  2.2126  3.9637 -0.6951
  642MOL0     H84742   1.969   6.818   5.307 -2.0548  0.5119  0.8786
  642MOL0     H84743   1.461   6.417   4.687  0.0722  1.2719  1.3778
  642MOL0     H84744   1.272   6.473   4.544 -1.3885  0.3099  0.0026
  643MOL0     O84745   9.059   7.412   5.122  0.3435 -0.4055 -0.2456
  643MOL0     C84746   9.104   7.445   5.230 -0.4546 -0.3560  0.0864
  643MOL0     O84747   9.036   7.455   5.354  0.3049  0.6921 -0.5435
  643MOL0     C84748   8.897   7.456   5.350 -0.4300 -0.0880  0.2229
  643MOL0     C84749   8.806   7.480   5.245  0.5677 -0.6233  0.6043
  643MOL0     C84750   8.673   7.458   5.267  0.1989 -0.4126 -0.3200
  643MOL0     C84751   8.616   7.411   5.392  0.0286 -0.4690 -0.1063
  643MOL0     O84752   8.476   7.403   5.397  0.4928 -0.7631 -0.4704
  643MOL0     C84753   8.415   7.414   5.528 -0.0446 -0.9045 -0.9700
  643MOL0     C84754   8.258   7.399   5.497  0.7264 -0.0874 -0.5444
  643MOL0     C84755   8.169   7.441   5.610  1.0410 -0.3207 -0.3492
  643MOL0     C84756   8.028   7.390   5.583 -0.2138  0.4159 -0.4682
  643MOL0     C84757   7.925   7.444   5.684 -0.0065  0.2518  1.0834
  643MOL0     C84758   7.788   7.384   5.639 -0.0235  0.1619 -0.3462
  643MOL0     C84759   7.681   7.406   5.742  0.0832 -0.5416  0.1563
  643MOL0     C84760   7.557   7.331   5.731  0.1028 -0.3007  0.4809
  643MOL0     N84761   7.466   7.373   5.830 -0.0178  0.0064 -0.1059
  643MOL0     C84762   7.439   7.300   5.945  0.1472  0.2978  0.1374
  643MOL0     C84763   7.336   7.378   6.001 -0.1987  0.4112 -0.9516
  643MOL0     C84764   7.253   7.340   6.127  0.4075 -0.6132  0.2059
  643MOL0     C84765   7.131   7.251   6.103  0.3681 -1.1013 -0.1611
  643MOL0     C84766   6.993   7.329   6.085  0.6181 -0.6714 -0.2667
  643MOL0     C84767   6.858   7.264   6.122 -0.1374  0.3001 -0.4013
  643MOL0     O84768   6.758   7.366   6.103  0.0277  0.5362  0.6161
  643MOL0     C84769   6.631   7.325   6.118  0.1735 -0.2260  0.2440
  643MOL0     C84770   6.592   7.201   6.180  0.0476 -0.0319 -0.1724
  643MOL0     C84771   6.459   7.164   6.167 -0.4080  0.6356  0.3415
  643MOL0     C84772   6.363   7.236   6.103  0.4873 -1.1541  0.8446
  643MOL0     C84773   6.221   7.202   6.091 -0.0132 -0.5381 -0.0121
  643MOL0     O84774   6.131   7.288   6.036 -0.0559  0.0312 -0.0533
  643MOL0     C84775   6.005   7.254   6.034 -0.0496  1.0030  0.2662
  643MOL0     C84776   5.936   7.254   6.159  0.0930  0.5310  0.7172
  643MOL0     C84777   5.799   7.234   6.158 -0.5650  0.1345 -0.6295
  643MOL0     C84778   5.713   7.218   6.045  0.2354 -1.4268 -0.4800
  643MOL0     O84779   5.576   7.208   6.059  0.0572  0.2579 -0.0334
  643MOL0     C84780   5.514   7.138   5.952  0.3861 -0.1806  0.4343
  643MOL0     C84781   5.371   7.093   5.995  0.4353 -0.4041 -0.0697
  643MOL0     C84782   5.359   6.992   6.100 -0.2475  0.1988 -0.7885
  643MOL0     C84783   5.218   6.971   6.142  0.5202  0.3420 -0.3593
  643MOL0     C84784   5.119   6.934   6.024  0.3879 -1.0592 -0.0683
  643MOL0     C84785   4.972   6.896   6.076 -0.9129  0.6674 -0.0989
  643MOL0     C84786   4.968   6.757   6.138 -0.5381 -0.5841 -0.7532
  643MOL0     C84787   4.842   6.715   6.200  0.4998  0.1687  0.2346
  643MOL0    Cl84788   4.715   6.737   6.077 -0.4148  0.7962  0.1009
  643MOL0     C84789   5.785   7.227   5.919 -0.5416  0.0170 -0.5794
  643MOL0     C84790   5.927   7.241   5.915 -0.2813 -0.3626  0.4322
  643MOL0     O84791   6.195   7.090   6.120 -0.8137  0.2582  0.1766
  643MOL0     C84792   6.399   7.357   6.037  0.2071  0.1734 -0.5683
  643MOL0     C84793   6.528   7.396   6.045 -0.0183  0.3501 -0.0659
  643MOL0     N84794   7.306   7.479   5.919  0.6208 -0.3538  0.5559
  643MOL0     N84795   7.383   7.484   5.822 -0.1142 -0.3804 -0.8047
  643MOL0     C84796   8.716   7.388   5.501  0.3458 -0.1814  0.7716
  643MOL0     C84797   8.849   7.421   5.478  0.0990 -0.5326  0.4186
  643MOL0     C84798   9.258   7.479   5.237 -0.1816  0.4393  0.9397
  643MOL0     C84799   9.337   7.477   5.122  0.7357  0.8582  0.2882
  643MOL0     C84800   9.471   7.498   5.134  0.5253  1.0216  0.3776
  643MOL0     C84801   9.531   7.526   5.252 -0.4787 -0.3790 -0.3834
  643MOL0     O84802   9.664   7.516   5.233  0.4730  0.5713 -0.6933
  643MOL0     C84803   9.753   7.562   5.334  0.6896  0.4351  0.5407
  643MOL0     C84804   9.897   7.527   5.281  0.7111 -0.7214 -0.0336
  643MOL0     C84805   9.932   7.379   5.315 -0.5780  0.7182  0.1687
  643MOL0     C84806  10.032   7.305   5.218  0.4441 -0.0762  0.8874
  643MOL0     C84807  10.161   7.365   5.224 -0.0583  0.4414  0.0226
  643MOL0     C84808  10.268   7.421   5.204 -0.3718 -0.2710  0.7212
  643MOL0     C84809   9.453   7.543   5.365 -0.2912 -0.1872 -0.7492
  643MOL0     C84810   9.318   7.517   5.356  0.0908 -0.5509 -0.0536
  643MOL0     H84811   8.842   7.512   5.148 -1.0028 -0.5350  0.0117
  643MOL0     H84812   8.601   7.472   5.188  0.4652  3.3935 -0.0782
  643MOL0     H84813   8.433   7.511   5.577 -1.2007 -0.8491 -0.6250
  643MOL0     H84814   8.449   7.342   5.604 -0.0790  1.3952  1.3793
  643MOL0     H84815   8.247   7.293   5.470  5.6056 -1.2033  0.6805
  643MOL0     H84816   8.233   7.471   5.419  1.1656  3.6760  2.5294
  643MOL0     H84817   8.169   7.549   5.623 -0.9528 -0.5176  1.9443
  643MOL0     H84818   8.193   7.392   5.705 -2.1277 -2.3232 -0.4401
  643MOL0     H84819   8.004   7.451   5.496  0.5976  0.6361 -0.5461
  643MOL0     H84820   8.021   7.281   5.574  1.1126  0.4538 -2.4543
  643MOL0     H84821   7.919   7.553   5.678 -0.1959  0.2755  1.6593
  643MOL0     H84822   7.932   7.418   5.790 -2.3694  5.1675  2.7670
  643MOL0     H84823   7.800   7.276   5.626  0.8871 -0.3384  3.4203
  643MOL0     H84824   7.763   7.434   5.545  0.1526  1.3067  0.1951
  643MOL0     H84825   7.725   7.396   5.842  2.6335  5.7344  0.0520
  643MOL0     H84826   7.660   7.513   5.747 -0.7634 -0.7051  0.3051
  643MOL0     H84827   7.589   7.228   5.746  2.2527  0.3489  0.7003
  643MOL0     H84828   7.513   7.355   5.634  0.3253  3.1836  1.0794
  643MOL0     H84829   7.489   7.209   5.979  2.6119  0.5049 -2.5411
  643MOL0     H84830   7.227   7.429   6.184 -1.9117 -0.2997 -1.2230
  643MOL0     H84831   7.322   7.282   6.189  1.2690 -0.8643 -0.9411
  643MOL0     H84832   7.112   7.192   6.192 -0.6043 -2.5342 -1.2805
  643MOL0     H84833   7.153   7.184   6.019  0.3297  0.8409 -1.8163
  643MOL0     H84834   7.001   7.421   6.143 -0.5807 -0.7040 -0.0090
  643MOL0     H84835   6.980   7.367   5.983 -0.4567  2.7293  1.0045
  643MOL0     H84836   6.863   7.239   6.228  1.8839 -0.8817 -0.7456
  643MOL0     H84837   6.832   7.176   6.063  2.2047 -2.4614  2.3607
  643MOL0     H84838   6.653   7.143   6.248  2.3082  1.4349 -0.8086
  643MOL0     H84839   6.432   7.068   6.209  0.8410  0.2082  0.2277
  643MOL0     H84840   5.991   7.263   6.252  0.7815  3.0945  0.1348
  643MOL0     H84841   5.753   7.236   6.256 -3.3472  0.3797 -1.8317
  643MOL0     H84842   5.584   7.056   5.934 -2.3038 -2.2922 -1.2368
  643MOL0     H84843   5.509   7.203   5.865  0.2906 -1.5995 -0.6570
  643MOL0     H84844   5.326   7.046   5.907  4.2410 -1.7751 -1.4934
  643MOL0     H84845   5.320   7.187   6.017 -2.9064 -2.1118  0.1418
  643MOL0     H84846   5.408   7.022   6.193 -2.8227 -1.2698  1.1865
  643MOL0     H84847   5.400   6.900   6.057 -0.0129  0.2488 -0.6726
  643MOL0     H84848   5.220   6.888   6.214  0.7910  1.5151  1.0408
  643MOL0     H84849   5.175   7.053   6.201  0.9319 -0.0021  0.4330
  643MOL0     H84850   5.161   6.848   5.971 -1.1689 -2.0332  0.2119
  643MOL0     H84851   5.107   7.015   5.952 -3.2539 -2.9363 -1.8356
  643MOL0     H84852   4.905   6.889   5.990  0.4113  0.7705 -1.1929
  643MOL0     H84853   4.940   6.965   6.154 -0.5201 -0.3972  1.0480
  643MOL0     H84854   4.990   6.697   6.049  0.4248  2.2671 -2.5701
  643MOL0     H84855   5.048   6.745   6.212 -1.6152  1.8253  0.9200
  643MOL0     H84856   4.811   6.774   6.287  3.6435 -0.0973  1.6391
  643MOL0     H84857   4.850   6.608   6.222 -3.7199 -1.1144 -2.9446
  643MOL0     H84858   5.740   7.233   5.820 -1.7374 -0.5262 -0.0933
  643MOL0     H84859   5.976   7.244   5.818 -0.9582  0.8823  0.1041
  643MOL0     H84860   6.325   7.418   5.987 -1.0081  0.5678  1.5862
  643MOL0     H84861   6.559   7.498   6.024  0.8606  0.5021  1.7822
  643MOL0     H84862   8.683   7.334   5.589 -1.2705 -0.3922  0.0732
  643MOL0     H84863   8.916   7.392   5.558  1.0749 -1.9912 -0.8575
  643MOL0     H84864   9.296   7.438   5.029  2.0427  1.1291 -0.4205
  643MOL0     H84865   9.533   7.486   5.046  1.6248  0.6670  1.1842
  643MOL0     H84866   9.734   7.507   5.427  0.7642  0.2056  0.4214
  643MOL0     H84867   9.744   7.670   5.345 -2.3588  0.6900 -2.5283
  643MOL0     H84868   9.908   7.537   5.173  0.2405 -1.7217 -0.1850
  643MOL0     H84869   9.967   7.597   5.327  1.5055 -1.5050 -0.0100
  643MOL0     H84870   9.837   7.325   5.316 -1.3741  2.0617 -0.7508
  643MOL0     H84871   9.982   7.382   5.413  0.2993 -0.8219 -0.1933
  643MOL0     H84872  10.034   7.204   5.258  0.9191  0.1039  1.3242
  643MOL0     H84873   9.983   7.297   5.120  0.5660 -0.6026  0.8681
  643MOL0     H84874  10.365   7.455   5.175 -1.1581  1.7614  0.2849
  643MOL0     H84875   9.506   7.562   5.458  0.6804  0.0350 -1.3366
  643MOL0     H84876   9.252   7.522   5.443  2.2496 -0.5119  1.6764
  644MOL0     O84877   5.842  10.171   8.078  0.4476  0.3873  0.0543
  644MOL0     C84878   5.856  10.280   8.025 -0.0752  0.3506  0.2855
  644MOL0     O84879   5.760  10.352   7.954  0.2715 -0.2011 -0.6454
  644MOL0     C84880   5.630  10.322   7.932 -0.6725  0.2356 -1.1886
  644MOL0     C84881   5.548  10.411   7.858 -0.2777  0.1275  0.2938
  644MOL0     C84882   5.404  10.391   7.842  0.4256  0.3433  0.7890
  644MOL0     C84883   5.351  10.271   7.887 -0.0866 -1.6972 -0.2194
  644MOL0     O84884   5.216  10.248   7.861 -1.0315  0.5113  0.0288
  644MOL0     C84885   5.148  10.140   7.921 -0.3909  0.0043  0.2999
  644MOL0     C84886   4.999  10.157   7.871  0.9893  0.7045  0.5848
  644MOL0     C84887   4.897  10.070   7.949  1.1907  0.4524 -0.0315
  644MOL0     C84888   4.911   9.916   7.930  1.1071  0.0871  0.4297
  644MOL0     C84889   4.780   9.847   7.977 -0.8471  1.3488 -0.0674
  644MOL0     C84890   4.787   9.697   7.928 -0.0558 -0.5810 -0.3395
  644MOL0     C84891   4.654   9.621   7.940 -0.1335 -0.3586 -0.5864
  644MOL0     C84892   4.616   9.575   8.072  0.7877  0.6166 -0.3996
  644MOL0     N84893   4.475   9.535   8.090  0.2923  0.1728  0.3113
  644MOL0     C84894   4.367   9.622   8.101 -0.3021  0.0730  1.1159
  644MOL0     C84895   4.273   9.535   8.113  0.7751 -0.7543 -0.8177
  644MOL0     C84896   4.127   9.566   8.147 -0.1871  0.6171 -0.0932
  644MOL0     C84897   4.102   9.594   8.297  0.0461 -0.0095 -1.1151
  644MOL0     C84898   4.113   9.473   8.400  0.8493 -0.3881 -0.1822
  644MOL0     C84899   3.985   9.385   8.415 -0.4388 -0.8646 -0.6618
  644MOL0     O84900   3.902   9.445   8.516  0.1497  0.2396  0.4745
  644MOL0     C84901   3.783   9.369   8.551  0.8055  0.3072 -0.4947
  644MOL0     C84902   3.689   9.414   8.645 -0.1784 -0.5586  0.1407
  644MOL0     C84903   3.575   9.330   8.682 -0.1704 -0.1899  1.2346
  644MOL0     C84904   3.547   9.211   8.619  0.4912  0.7165  0.0945
  644MOL0     C84905   3.415   9.136   8.639 -1.2829 -0.4642 -0.0081
  644MOL0     O84906   3.328   9.191   8.724  0.2075  0.5871 -0.4918
  644MOL0     C84907   3.219   9.114   8.765 -0.0727 -0.9047 -0.6092
  644MOL0     C84908   3.096   9.180   8.763  0.4041  0.0668  1.0112
  644MOL0     C84909   2.994   9.126   8.836 -0.5204  0.0103  0.3974
  644MOL0     C84910   2.996   8.997   8.879  0.7547  0.0932  0.2821
  644MOL0     O84911   2.887   8.950   8.957  0.2046  0.0917 -0.0342
  644MOL0     C84912   2.858   8.808   8.954 -0.6303 -0.2448 -0.0312
  644MOL0     C84913   2.767   8.769   9.063 -0.4452  0.1669 -0.3027
  644MOL0     C84914   2.775   8.615   9.080 -0.2815 -1.5037 -0.1050
  644MOL0     C84915   2.671   8.558   9.180 -0.0806  0.1709 -0.6738
  644MOL0     C84916   2.706   8.591   9.327  0.1401 -0.7644  0.6109
  644MOL0     C84917   2.636   8.479   9.409 -0.2465  0.0595  0.0380
  644MOL0     C84918   2.651   8.497   9.554  0.1053  0.0574  0.6221
  644MOL0     C84919   2.611   8.376   9.625  0.1159  0.0669  0.3999
  644MOL0    Cl84920   2.428   8.326   9.606 -0.5523 -0.2441  0.3450
  644MOL0     C84921   3.113   8.928   8.862  0.1624  0.1591 -0.8228
  644MOL0     C84922   3.227   8.985   8.820 -0.6777 -0.5742 -0.1374
  644MOL0     O84923   3.390   9.048   8.562  0.4273 -0.1129  0.3479
  644MOL0     C84924   3.638   9.168   8.522 -0.6825 -0.6528  0.0195
  644MOL0     C84925   3.754   9.248   8.484  0.3373  0.1814 -0.3686
  644MOL0     N84926   4.311   9.405   8.102 -0.5929 -0.3920 -0.3029
  644MOL0     N84927   4.438   9.407   8.093 -0.2644  0.2805 -0.2621
  644MOL0     C84928   5.431  10.184   7.961  0.8184  0.0193 -1.0114
  644MOL0     C84929   5.559  10.210   7.991  0.4845 -0.2545 -0.0922
  644MOL0     C84930   5.985  10.346   8.047 -0.4003  0.0575  0.1183
  644MOL0     C84931   6.069  10.310   8.158 -0.3703  0.6617  0.7557
  644MOL0     C84932   6.193  10.374   8.170  0.0106 -0.6649  0.2669
  644MOL0     C84933   6.239  10.479   8.092 -0.3112 -0.0097 -0.0303
  644MOL0     O84934   6.357  10.544   8.116 -1.2075 -0.3772  0.2017
  644MOL0     C84935   6.411  10.636   8.027  0.1163  0.0919 -0.5368
  644MOL0     C84936   6.524  10.685   8.112 -0.0613  0.2068 -0.0014
  644MOL0     C84937   6.630  10.753   8.026 -0.0170  0.5388 -0.6651
  644MOL0     C84938   6.732  10.804   8.136  1.0595  0.1670  0.7262
  644MOL0     C84939   6.831  10.900   8.076 -0.1833 -0.0458  0.2307
  644MOL0     C84940   6.895  10.974   8.010  0.2972 -0.7243 -0.1913
  644MOL0     C84941   6.165  10.502   7.979 -0.1228  0.3117  0.1514
  644MOL0     C84942   6.036  10.447   7.961  0.4099 -0.7925  0.0225
  644MOL0     H84943   5.599  10.498   7.817 -0.2959  0.4909  1.0378
  644MOL0     H84944   5.347  10.461   7.782  1.9598  1.3208  0.4126
  644MOL0     H84945   5.154  10.147   8.030  1.4948 -2.1210  0.4081
  644MOL0     H84946   5.202  10.050   7.892  0.9792  1.0372 -0.5419
  644MOL0     H84947   4.997  10.119   7.768  1.8890 -0.9479  1.1508
  644MOL0     H84948   4.964  10.261   7.873  0.6345  0.6078 -0.0395
  644MOL0     H84949   4.798  10.109   7.923  0.9799 -0.1208 -0.1135
  644MOL0     H84950   4.917  10.086   8.056  2.0086  0.9942 -0.2565
  644MOL0     H84951   4.933   9.912   7.823 -2.0573  1.5278 -0.4031
  644MOL0     H84952   5.000   9.870   7.975  1.0354 -0.6877 -0.2094
  644MOL0     H84953   4.689   9.881   7.927 -0.3868 -0.6056 -2.4393
  644MOL0     H84954   4.751   9.850   8.083 -0.3754  0.7774  0.0826
  644MOL0     H84955   4.865   9.649   7.988 -1.0371  0.6574  2.0621
  644MOL0     H84956   4.819   9.697   7.823 -1.2192  1.3016 -0.7281
  644MOL0     H84957   4.570   9.689   7.920 -0.5381  0.0525  2.1006
  644MOL0     H84958   4.658   9.531   7.878  0.3874  1.0373 -2.6779
  644MOL0     H84959   4.642   9.650   8.147 -2.3572  1.8652 -0.4145
  644MOL0     H84960   4.674   9.486   8.097  3.8795  2.2098 -1.4324
  644MOL0     H84961   4.372   9.730   8.116 -0.9156  0.4271 -0.9531
  644MOL0     H84962   4.074   9.474   8.123  0.2547 -0.0262  1.2775
  644MOL0     H84963   4.087   9.643   8.080 -0.2644  1.9728  1.4492
  644MOL0     H84964   4.003   9.640   8.309 -0.2458 -0.6651 -0.9971
  644MOL0     H84965   4.182   9.664   8.325  1.9711 -2.6838  0.5305
  644MOL0     H84966   4.196   9.411   8.366  2.2792 -0.1863  2.6301
  644MOL0     H84967   4.145   9.507   8.499  0.1148  1.8954 -0.6721
  644MOL0     H84968   4.004   9.278   8.428 -0.4287 -0.7335  0.4266
  644MOL0     H84969   3.932   9.388   8.319 -0.2539  0.3897 -0.7366
  644MOL0     H84970   3.712   9.510   8.691 -1.8566  0.7368 -1.5765
  644MOL0     H84971   3.521   9.360   8.772  2.8187  0.2175  3.0388
  644MOL0     H84972   3.085   9.271   8.705  1.2172  0.7729  1.9125
  644MOL0     H84973   2.900   9.180   8.849 -1.7304 -1.4035 -1.8460
  644MOL0     H84974   2.956   8.760   8.967 -0.1219  0.7084 -0.2495
  644MOL0     H84975   2.813   8.776   8.859 -3.9786  1.8840  0.6962
  644MOL0     H84976   2.668   8.810   9.045  0.9728  3.5025 -1.2890
  644MOL0     H84977   2.805   8.817   9.154 -0.9788 -0.2143  0.1283
  644MOL0     H84978   2.874   8.583   9.114 -0.0012  1.0650  1.7203
  644MOL0     H84979   2.755   8.577   8.979 -1.1092 -2.0710  0.2577
  644MOL0     H84980   2.569   8.581   9.147  0.4555  2.4617 -0.8623
  644MOL0     H84981   2.679   8.449   9.170 -0.1296 -0.0447  1.2654
  644MOL0     H84982   2.667   8.690   9.355  0.0437 -0.8095  0.6369
  644MOL0     H84983   2.814   8.592   9.343  0.2213  3.1757  0.9614
  644MOL0     H84984   2.680   8.382   9.383 -0.1908 -0.1421  0.8419
  644MOL0     H84985   2.527   8.478   9.396 -0.3312 -0.5372  0.6773
  644MOL0     H84986   2.759   8.510   9.570  0.0499  0.9138  0.3847
  644MOL0     H84987   2.599   8.584   9.596 -1.7603 -0.5846 -0.2657
  644MOL0     H84988   2.619   8.404   9.730  1.1790  0.2330  0.2895
  644MOL0     H84989   2.670   8.290   9.593  1.8828  0.6798  1.8436
  644MOL0     H84990   3.135   8.835   8.914 -0.9674  0.3995  0.1205
  644MOL0     H84991   3.323   8.939   8.842 -1.2083 -1.2290  0.8967
  644MOL0     H84992   3.622   9.082   8.457  3.9157 -1.1599 -0.7440
  644MOL0     H84993   3.813   9.213   8.400  0.2193 -0.4404 -0.1932
  644MOL0     H84994   5.389  10.089   7.995  1.2159  0.2279  0.1208
  644MOL0     H84995   5.600  10.142   8.064 -0.6251 -0.2847  0.5172
  644MOL0     H84996   6.045  10.241   8.238  1.0110  0.1633  0.7730
  644MOL0     H84997   6.235  10.351   8.268 -0.1576 -0.1415  0.4708
  644MOL0     H84998   6.330  10.708   8.018 -0.2316 -0.0737  0.9905
  644MOL0     H84999   6.441  10.601   7.928 -2.2859  1.3910 -1.8133
  644MOL0     H85000   6.491  10.756   8.189  0.4548  1.4380 -0.8764
  644MOL0     H85001   6.577  10.604   8.162  2.8690  1.6466 -0.5260
  644MOL0     H85002   6.586  10.828   7.960 -0.3499  0.7502 -0.2094
  644MOL0     H85003   6.692  10.683   7.969 -2.2685 -2.6216  0.4276
  644MOL0     H85004   6.683  10.857   8.217 -2.0857  0.4096 -1.1834
  644MOL0     H85005   6.786  10.721   8.183 -1.3478 -3.4380 -2.3072
  644MOL0     H85006   6.949  11.023   7.932  0.6837 -2.8233 -1.2892
  644MOL0     H85007   6.205  10.559   7.895  1.0294  0.6925  0.9357
  644MOL0     H85008   5.980  10.482   7.874 -3.3443  1.1624  2.9146
  645MOL0     O85009   4.763   4.084   9.833  0.8654  0.6353  0.0616
  645MOL0     C85010   4.754   3.976   9.764  0.7442  0.4005 -0.3754
  645MOL0     O85011   4.639   3.913   9.741 -0.0354  0.1622  0.1991
  645MOL0     C85012   4.530   3.957   9.804 -0.2307 -0.2228 -0.0159
  645MOL0     C85013   4.505   3.971   9.940 -0.0154 -0.2676 -0.1072
  645MOL0     C85014   4.376   4.020   9.991 -0.4507  0.6552  0.6094
  645MOL0     C85015   4.272   4.048   9.904  0.1656  0.2747  0.5333
  645MOL0     O85016   4.153   4.104   9.950  0.3251 -0.5336  0.4640
  645MOL0     C85017   4.059   3.999   9.966  0.8294  0.2145 -0.5476
  645MOL0     C85018   3.931   4.064  10.033  0.5640 -0.1407  0.4690
  645MOL0     C85019   3.830   3.954  10.072 -0.1583 -0.6235 -1.4036
  645MOL0     C85020   3.875   3.893  10.211  0.8308 -0.3104 -0.5746
  645MOL0     C85021   3.775   3.817  10.287 -1.0957 -0.7206  0.1588
  645MOL0     C85022   3.661   3.909  10.336 -0.1129  0.4819 -0.0477
  645MOL0     C85023   3.697   4.055  10.384 -0.7692 -0.8425 -1.1780
  645MOL0     C85024   3.578   4.114  10.468  0.2245 -0.0148  0.4884
  645MOL0     N85025   3.459   4.118  10.383  0.3177  0.1496  0.5228
  645MOL0     C85026   3.328   4.113  10.429 -0.6312  0.4743  0.3597
  645MOL0     C85027   3.245   4.129  10.322 -1.6270  0.3029  0.0847
  645MOL0     C85028   3.103   4.146  10.321  0.3188 -0.0681  0.3731
  645MOL0     C85029   3.063   4.267  10.393 -0.6805  0.0131  0.9368
  645MOL0     C85030   2.929   4.320  10.346  0.3714  0.0069 -0.4692
  645MOL0     C85031   2.812   4.236  10.368 -0.0326  1.1205 -0.9761
  645MOL0     O85032   2.689   4.306  10.331  0.6457  0.0972 -0.3362
  645MOL0     C85033   2.564   4.262  10.361  0.0195 -0.2631 -0.7253
  645MOL0     C85034   2.550   4.141  10.437  0.2497 -0.0165 -0.2695
  645MOL0     C85035   2.427   4.104  10.478  0.0766 -0.3682  0.2013
  645MOL0     C85036   2.310   4.177  10.438  0.1164  0.3587  1.1347
  645MOL0     C85037   2.179   4.133  10.479 -0.6793  0.3004  0.5089
  645MOL0     O85038   2.073   4.222  10.468  0.1225 -0.0076 -0.8919
  645MOL0     C85039   1.952   4.163  10.503 -0.8959 -0.5629 -0.4386
  645MOL0     C85040   1.876   4.079  10.419  0.6323 -0.0166  0.4737
  645MOL0     C85041   1.756   4.030  10.466  1.3838 -0.2350  0.5358
  645MOL0     C85042   1.707   4.057  10.595 -0.4574 -0.8662  0.2175
  645MOL0     O85043   1.597   3.991  10.637  0.7137  0.3147 -0.5736
  645MOL0     C85044   1.603   3.943  10.774  0.9556  0.5857 -0.3511
  645MOL0     C85045   1.710   3.828  10.798 -0.2806  0.0895  0.0580
  645MOL0     C85046   1.703   3.723  10.692 -0.7378  0.1889 -0.3441
  645MOL0     C85047   1.572   3.647  10.692  0.6125  0.0762 -0.3333
  645MOL0     C85048   1.575   3.552  10.576  0.2142 -0.6320  0.2461
  645MOL0     C85049   1.446   3.473  10.586  0.1840  0.3118  0.2174
  645MOL0     C85050   1.447   3.377  10.470  0.3610  0.5122  0.1203
  645MOL0     C85051   1.312   3.294  10.466  0.0195 -1.2459  0.2041
  645MOL0    Cl85052   1.307   3.173  10.329  0.4162 -0.3956  0.1088
  645MOL0     C85053   1.787   4.145  10.680  0.6810 -0.9105  0.5070
  645MOL0     C85054   1.906   4.195  10.631  0.4051 -0.2216 -0.5153
  645MOL0     O85055   2.186   4.019  10.522 -0.1106 -0.0440 -0.6697
  645MOL0     C85056   2.329   4.287  10.361 -0.0394 -0.3670  0.5095
  645MOL0     C85057   2.453   4.330  10.325  1.2526 -0.2233  0.7101
  645MOL0     N85058   3.335   4.144  10.216 -0.4089 -0.2901  0.3521
  645MOL0     N85059   3.457   4.142  10.246  0.3403  0.3813 -0.2880
  645MOL0     C85060   4.292   4.029   9.770 -0.3199 -0.7299  0.4681
  645MOL0     C85061   4.419   3.975   9.724 -0.3691 -0.0275  0.4758
  645MOL0     C85062   4.877   3.909   9.715  0.2176  0.4429  0.3801
  645MOL0     C85063   5.004   3.970   9.721  0.5566 -0.0452  0.0680
  645MOL0     C85064   5.114   3.907   9.679  0.2915 -0.8673 -0.2119
  645MOL0     C85065   5.108   3.780   9.630  1.1338 -0.2934  0.1473
  645MOL0     O85066   5.213   3.715   9.575  0.0014 -0.1567 -0.3336
  645MOL0     C85067   5.339   3.730   9.645  0.1305 -0.6710 -0.7189
  645MOL0     C85068   5.460   3.686   9.561  0.4640 -0.2534  0.4855
  645MOL0     C85069   5.459   3.540   9.522 -0.3556 -0.4020 -0.3263
  645MOL0     C85070   5.413   3.452   9.636  0.0737  0.7444 -0.8859
  645MOL0     C85071   5.408   3.310   9.583  0.5270 -0.3194 -0.2957
  645MOL0     C85072   5.405   3.194   9.548 -0.0456  0.0228 -0.1347
  645MOL0     C85073   4.982   3.712   9.624 -0.3383  0.1370  0.5948
  645MOL0     C85074   4.867   3.780   9.663  0.6304 -0.4394 -0.6169
  645MOL0     H85075   4.587   3.957  10.009  0.5541  3.6970  0.2710
  645MOL0     H85076   4.371   4.047  10.096 -2.0024  3.6054 -0.1074
  645MOL0     H85077   4.091   3.916  10.029 -3.9252 -0.0230  2.0137
  645MOL0     H85078   4.029   3.959   9.868 -0.3915  1.9222 -0.9330
  645MOL0     H85079   3.887   4.123   9.952  1.8213 -0.2297 -0.2990
  645MOL0     H85080   3.968   4.130  10.112 -1.2077  0.6283  0.7223
  645MOL0     H85081   3.810   3.877   9.998 -3.2573 -0.1525 -1.2137
  645MOL0     H85082   3.728   3.995  10.075 -0.3995 -1.2250  0.7816
  645MOL0     H85083   3.956   3.823  10.189 -1.7621 -3.9547  0.5620
  645MOL0     H85084   3.917   3.966  10.281 -0.0101  0.0894 -0.4786
  645MOL0     H85085   3.823   3.766  10.371 -3.1040 -3.1271 -0.0360
  645MOL0     H85086   3.735   3.739  10.222  0.2888 -1.5796  0.2781
  645MOL0     H85087   3.605   3.853  10.411  0.4537 -0.7077 -0.4719
  645MOL0     H85088   3.588   3.930  10.257 -2.6839  0.5932  2.2252
  645MOL0     H85089   3.787   4.053  10.446 -1.2925  0.8354 -0.3299
  645MOL0     H85090   3.723   4.114  10.296 -0.5924 -1.8918 -1.8598
  645MOL0     H85091   3.607   4.218  10.489  0.9394 -0.3784  1.3831
  645MOL0     H85092   3.560   4.057  10.559 -1.6606 -1.6497 -0.8187
  645MOL0     H85093   3.299   4.092  10.531  0.0270  1.0434  0.6798
  645MOL0     H85094   3.050   4.056  10.355  1.5330 -1.9748 -2.3875
  645MOL0     H85095   3.080   4.174  10.218  1.9537 -0.1909 -0.0466
  645MOL0     H85096   3.141   4.341  10.371 -0.3945  0.0213  1.9060
  645MOL0     H85097   3.064   4.259  10.502 -1.4640  0.7152  1.0052
  645MOL0     H85098   2.902   4.402  10.412  1.3062 -0.4771  0.5426
  645MOL0     H85099   2.942   4.366  10.248 -0.0786 -1.2863 -1.1739
  645MOL0     H85100   2.802   4.213  10.474  1.2900  1.1083 -0.8496
  645MOL0     H85101   2.818   4.138  10.319 -2.6892 -1.0626  2.5918
  645MOL0     H85102   2.634   4.085  10.476  2.4648  1.5077 -2.5329
  645MOL0     H85103   2.417   4.017  10.542 -1.5769 -1.4718 -1.4442
  645MOL0     H85104   1.923   4.055  10.324  0.9049  2.8566 -0.2059
  645MOL0     H85105   1.686   3.976  10.403  0.7425  0.8948  0.2494
  645MOL0     H85106   1.503   3.905  10.798  1.4211 -0.2179  0.3854
  645MOL0     H85107   1.627   4.017  10.851  0.5747  2.6876 -2.1862
  645MOL0     H85108   1.680   3.779  10.891  1.5941  0.6927  1.0321
  645MOL0     H85109   1.815   3.858  10.806  0.0037 -0.7494 -0.4625
  645MOL0     H85110   1.790   3.657  10.693 -0.2968  0.7064 -1.7606
  645MOL0     H85111   1.712   3.779  10.598 -0.2825 -1.3201 -1.2366
  645MOL0     H85112   1.543   3.595  10.784 -0.8636  0.9317 -0.2937
  645MOL0     H85113   1.498   3.720  10.660  0.1784 -1.2769 -2.6642
  645MOL0     H85114   1.657   3.480  10.581  0.2078 -0.6452  0.1635
  645MOL0     H85115   1.591   3.610  10.485  0.2121 -0.1906  0.5227
  645MOL0     H85116   1.370   3.546  10.557 -0.6112 -1.1548 -1.5534
  645MOL0     H85117   1.429   3.434  10.686 -0.1439 -1.0774 -0.3555
  645MOL0     H85118   1.459   3.427  10.373 -1.2785 -0.2901 -0.5328
  645MOL0     H85119   1.525   3.304  10.494 -0.8923 -1.1000 -0.5543
  645MOL0     H85120   1.226   3.355  10.438  1.2299 -0.1533 -1.2981
  645MOL0     H85121   1.293   3.256  10.567 -0.4108  0.2619  0.7144
  645MOL0     H85122   1.739   4.176  10.772 -2.1466  1.3192 -1.5619
  645MOL0     H85123   1.964   4.273  10.680  1.3615 -1.0669 -0.2550
  645MOL0     H85124   2.249   4.339  10.309  1.9203  3.5746  1.0487
  645MOL0     H85125   2.482   4.413  10.260  0.1488 -1.1057 -0.9687
  645MOL0     H85126   4.211   4.052   9.701  0.1691  0.4709  0.2778
  645MOL0     H85127   4.414   3.950   9.619 -1.2695  3.0830 -0.3330
  645MOL0     H85128   5.010   4.071   9.761 -2.7689 -0.4798  2.0962
  645MOL0     H85129   5.205   3.965   9.669  0.7091 -1.3210  0.8516
  645MOL0     H85130   5.336   3.676   9.740 -0.4079 -0.6471 -0.7222
  645MOL0     H85131   5.362   3.833   9.672  0.4526  0.3255 -4.2951
  645MOL0     H85132   5.463   3.744   9.469 -1.7993 -1.1771 -0.2273
  645MOL0     H85133   5.540   3.706   9.633 -0.8166 -1.2038  2.2574
  645MOL0     H85134   5.559   3.504   9.497 -1.2856 -1.6366 -2.5438
  645MOL0     H85135   5.390   3.527   9.438 -0.1906 -0.3676 -0.4665
  645MOL0     H85136   5.501   3.448   9.701  1.4945  0.1659 -2.7796
  645MOL0     H85137   5.318   3.484   9.681  0.5186  0.5956  0.1965
  645MOL0     H85138   5.392   3.090   9.528 -1.3084 -0.3338  2.2028
  645MOL0     H85139   4.978   3.611   9.586  0.1400  0.0418  0.7912
  645MOL0     H85140   4.773   3.725   9.662 -1.0055  2.1886 -0.8104
  646MOL0     O85141  10.658   2.161   0.154 -0.1031  0.1579 -0.0350
  646MOL0     C85142  10.703   2.277   0.144 -0.3524 -0.0137  0.1625
  646MOL0     O85143  10.628   2.394   0.165 -0.0006  0.4901 -0.6835
  646MOL0     C85144  10.497   2.387   0.203 -0.3682 -0.7864 -0.0777
  646MOL0     C85145  10.449   2.294   0.302  0.1568  1.0096 -0.7427
  646MOL0     C85146  10.308   2.299   0.334 -0.1808  0.2776  1.0763
  646MOL0     C85147  10.218   2.388   0.276 -1.1162 -0.1424  0.8012
  646MOL0     O85148  10.089   2.366   0.287  0.0127 -0.2593  0.2549
  646MOL0     C85149  10.005   2.363   0.165 -0.0791 -0.1767 -0.3953
  646MOL0     C85150   9.861   2.378   0.204  0.0897  0.0101  0.0492
  646MOL0     C85151   9.771   2.333   0.080 -0.8428 -0.3711  0.7713
  646MOL0     C85152   9.619   2.330   0.115 -0.1803  0.0737 -0.5008
  646MOL0     C85153   9.544   2.202   0.055  0.0653  0.3091 -0.5090
  646MOL0     C85154   9.536   2.187  -0.092  0.1160  0.4039  0.3009
  646MOL0     C85155   9.513   2.312  -0.180 -0.6070 -0.0992 -1.1015
  646MOL0     C85156   9.524   2.293  -0.327  0.5426  0.5816 -0.8934
  646MOL0     N85157   9.537   2.417  -0.407  0.1895  0.3208  0.1879
  646MOL0     C85158   9.479   2.538  -0.386 -0.5844 -0.2199 -0.0413
  646MOL0     C85159   9.475   2.604  -0.503 -0.3474  0.0066 -0.4164
  646MOL0     C85160   9.424   2.747  -0.518  1.0049 -0.3791  0.3679
  646MOL0     C85161   9.477   2.811  -0.646 -0.2340 -0.1766  0.3539
  646MOL0     C85162   9.399   2.930  -0.695  0.6251 -0.3254 -0.4565
  646MOL0     C85163   9.261   2.888  -0.753 -0.7158 -0.1845  0.7587
  646MOL0     O85164   9.183   3.006  -0.785  0.2516 -0.1768 -1.0240
  646MOL0     C85165   9.049   3.002  -0.814  0.9838  0.3627  0.1123
  646MOL0     C85166   8.995   2.891  -0.868 -0.3637  0.5262  0.3028
  646MOL0     C85167   8.861   2.887  -0.892  0.8892 -0.7025 -0.0386
  646MOL0     C85168   8.773   2.996  -0.860  0.1265  1.3143  0.1876
  646MOL0     C85169   8.635   2.982  -0.874  0.2295  0.4538  0.2093
  646MOL0     O85170   8.588   2.851  -0.895  0.5079  0.2457 -0.4737
  646MOL0     C85171   8.464   2.809  -0.945  0.7305 -0.6804 -0.0376
  646MOL0     C85172   8.370   2.892  -1.009  0.4414  0.3240 -0.2718
  646MOL0     C85173   8.250   2.841  -1.075 -0.6176  0.2056 -0.8265
  646MOL0     C85174   8.232   2.701  -1.081 -0.6951 -0.2273 -0.2258
  646MOL0     O85175   8.136   2.642  -1.157 -0.1178  0.0025  0.0279
  646MOL0     C85176   8.134   2.506  -1.180 -0.2219  0.2286  0.0971
  646MOL0     C85177   8.004   2.476  -1.259 -0.8165 -0.2358 -0.6068
  646MOL0     C85178   7.882   2.452  -1.168 -0.8307  0.0555  0.9085
  646MOL0     C85179   7.772   2.427  -1.268 -0.1109  0.1088  0.3096
  646MOL0     C85180   7.626   2.448  -1.220 -0.1860 -0.1604 -0.8499
  646MOL0     C85181   7.597   2.361  -1.092 -0.1494  0.1608  0.1081
  646MOL0     C85182   7.451   2.389  -1.061 -0.3886  0.1585  1.0180
  646MOL0     C85183   7.420   2.330  -0.925 -0.0802  0.4128  0.1584
  646MOL0    Cl85184   7.242   2.331  -0.894  0.1626 -0.1248 -0.3466
  646MOL0     C85185   8.321   2.617  -1.008  1.0064  0.6288  0.5733
  646MOL0     C85186   8.433   2.670  -0.944 -0.7100  1.0281 -0.6220
  646MOL0     O85187   8.567   3.079  -0.874  0.0198 -0.1936 -0.2071
  646MOL0     C85188   8.834   3.111  -0.805  0.2915 -0.1278  0.8477
  646MOL0     C85189   8.972   3.119  -0.793  0.3644 -0.1051  0.6482
  646MOL0     N85190   9.539   2.525  -0.596  0.7145 -1.3916  0.1257
  646MOL0     N85191   9.554   2.417  -0.541 -0.9436  0.0967  0.0538
  646MOL0     C85192  10.268   2.488   0.194  0.6295  0.0125 -0.7636
  646MOL0     C85193  10.403   2.484   0.161 -0.1914 -0.6960 -0.3134
  646MOL0     C85194  10.846   2.306   0.112  0.2069  0.0244  0.0662
  646MOL0     C85195  10.911   2.427   0.146 -0.2478 -0.3429 -0.7662
  646MOL0     C85196  11.044   2.439   0.133  0.3142  0.8190 -0.9840
  646MOL0     C85197  11.118   2.344   0.068 -0.4960  0.0871  0.8359
  646MOL0     O85198  11.258   2.375   0.044 -0.0098 -0.7261 -0.0864
  646MOL0     C85199  11.339   2.287  -0.031 -0.3767 -0.4168 -1.2669
  646MOL0     C85200  11.404   2.181   0.065 -0.0172 -0.2171  0.0068
  646MOL0     C85201  11.469   2.230   0.191 -0.6742  0.6826 -1.0051
  646MOL0     C85202  11.523   2.123   0.287  0.3603  0.3077  0.9886
  646MOL0     C85203  11.639   2.063   0.217  0.3799  0.3034  0.3819
  646MOL0     C85204  11.720   1.980   0.173 -0.5338  0.3946 -0.0454
  646MOL0     C85205  11.059   2.225   0.021  0.1431 -0.3278  1.1201
  646MOL0     C85206  10.920   2.208   0.041 -0.0360  0.8783 -0.0426
  646MOL0     H85207  10.510   2.221   0.355 -3.0421 -0.5591  1.0682
  646MOL0     H85208  10.262   2.232   0.406 -1.5239  0.3831  0.3373
  646MOL0     H85209  10.023   2.281   0.095 -1.3238 -1.2030  0.4297
  646MOL0     H85210  10.035   2.451   0.107 -1.0660  0.7030  0.3785
  646MOL0     H85211   9.852   2.482   0.236  2.4523  0.8895 -1.8150
  646MOL0     H85212   9.835   2.313   0.287 -0.7880  0.1272 -0.1274
  646MOL0     H85213   9.804   2.230   0.063  0.0458  0.0427 -0.1386
  646MOL0     H85214   9.795   2.385  -0.014 -0.6216  1.7330  1.9405
  646MOL0     H85215   9.610   2.318   0.224  3.1212 -2.6952 -0.3555
  646MOL0     H85216   9.576   2.425   0.084 -0.6127 -0.5630 -1.9297
  646MOL0     H85217   9.445   2.224   0.094  1.3705  4.3588  1.0887
  646MOL0     H85218   9.575   2.108   0.102 -1.7230  0.3069  0.7610
  646MOL0     H85219   9.465   2.105  -0.110 -2.2351  2.7919 -2.1214
  646MOL0     H85220   9.638   2.150  -0.104 -0.2646 -1.0503  1.2490
  646MOL0     H85221   9.418   2.356  -0.149  1.5164  2.6612  2.2886
  646MOL0     H85222   9.586   2.389  -0.152 -2.6939  2.3626 -2.0980
  646MOL0     H85223   9.424   2.250  -0.338  0.4157  0.2196  1.2137
  646MOL0     H85224   9.590   2.211  -0.355 -1.5961 -1.6660  0.3471
  646MOL0     H85225   9.433   2.559  -0.290  1.3263 -1.6799  1.2780
  646MOL0     H85226   9.440   2.812  -0.431  1.6436 -0.6287  0.4400
  646MOL0     H85227   9.315   2.744  -0.527  1.2013 -1.1477 -2.9420
  646MOL0     H85228   9.488   2.745  -0.732  3.3262 -1.7025  1.7991
  646MOL0     H85229   9.581   2.839  -0.623  1.1326 -3.4582 -1.2501
  646MOL0     H85230   9.370   2.992  -0.610  2.0479  0.8752 -0.7968
  646MOL0     H85231   9.449   2.990  -0.772  1.7020 -0.5016  0.0794
  646MOL0     H85232   9.207   2.833  -0.676  0.2828 -0.6353  1.1522
  646MOL0     H85233   9.290   2.827  -0.839 -0.5664 -0.4587  1.0035
  646MOL0     H85234   9.063   2.807  -0.880  0.3353  1.0791  0.3108
  646MOL0     H85235   8.815   2.807  -0.949  3.6638 -2.0107 -0.6362
  646MOL0     H85236   8.373   2.999  -0.994 -2.2167  0.4829 -0.4811
  646MOL0     H85237   8.177   2.912  -1.113 -1.9435  1.5674  3.6654
  646MOL0     H85238   8.142   2.450  -1.086 -0.6479  3.4686  2.2049
  646MOL0     H85239   8.227   2.479  -1.233 -0.3543  1.5100 -0.8231
  646MOL0     H85240   8.028   2.388  -1.319 -3.7226 -1.9112  0.4681
  646MOL0     H85241   7.986   2.554  -1.333 -0.2531 -2.4465 -3.2227
  646MOL0     H85242   7.862   2.540  -1.106  1.0390  1.9336 -0.9917
  646MOL0     H85243   7.892   2.365  -1.104 -0.8596  0.5678  1.6236
  646MOL0     H85244   7.781   2.502  -1.346 -0.1056  0.3528  0.5456
  646MOL0     H85245   7.777   2.330  -1.318  1.1213  0.4266 -0.2006
  646MOL0     H85246   7.557   2.416  -1.298  0.8593  1.4278 -2.5326
  646MOL0     H85247   7.621   2.553  -1.189  1.4650 -0.9187  2.4417
  646MOL0     H85248   7.675   2.384  -1.018  2.4703 -1.3847 -1.9787
  646MOL0     H85249   7.608   2.254  -1.113  1.5535  0.1453  0.9255
  646MOL0     H85250   7.425   2.495  -1.054 -2.0908  0.2077 -3.0736
  646MOL0     H85251   7.381   2.347  -1.134  1.4236  0.4389 -0.9602
  646MOL0     H85252   7.472   2.381  -0.843 -2.2365  0.0593  1.8441
  646MOL0     H85253   7.456   2.228  -0.940 -0.8562  0.1181  0.3063
  646MOL0     H85254   8.317   2.509  -1.000 -2.8181  0.6888  1.2791
  646MOL0     H85255   8.504   2.613  -0.885 -2.4052  1.4060  1.9341
  646MOL0     H85256   8.772   3.192  -0.769  2.0510  1.9507 -0.4947
  646MOL0     H85257   9.007   3.209  -0.743 -0.6686  1.0618 -0.6425
  646MOL0     H85258  10.206   2.570   0.159  2.3139  1.9605  0.5559
  646MOL0     H85259  10.449   2.563   0.102  2.6562  0.2865  2.8687
  646MOL0     H85260  10.850   2.496   0.204  0.6922 -0.0225 -0.1512
  646MOL0     H85261  11.096   2.524   0.176  0.7250 -0.2555  0.7498
  646MOL0     H85262  11.426   2.344  -0.067  2.2331 -3.8830 -0.9278
  646MOL0     H85263  11.278   2.253  -0.115 -2.9263  2.2302 -0.6354
  646MOL0     H85264  11.323   2.112   0.091  0.1174 -0.7362 -0.9019
  646MOL0     H85265  11.471   2.123   0.000 -2.3943 -1.3853 -1.5797
  646MOL0     H85266  11.402   2.292   0.251 -0.8763  0.7001 -1.2462
  646MOL0     H85267  11.555   2.288   0.155  2.0619 -1.5827  1.3675
  646MOL0     H85268  11.558   2.171   0.379 -2.3742  2.0669  1.2084
  646MOL0     H85269  11.442   2.052   0.307  1.0488 -1.6476 -2.3401
  646MOL0     H85270  11.790   1.906   0.140 -1.0924 -1.2325  2.2052
  646MOL0     H85271  11.112   2.148  -0.034 -0.2212 -0.6574  1.2264
  646MOL0     H85272  10.867   2.121   0.002 -2.3047  2.2861 -0.2838
  647MOL0     O85273   5.947  11.056   4.728 -1.0114  0.0274  0.2667
  647MOL0     C85274   6.029  11.055   4.635 -0.8487 -0.6130 -0.0483
  647MOL0     O85275   6.003  11.075   4.505  0.0911  0.1971  0.4507
  647MOL0     C85276   5.881  11.113   4.458  0.5255 -0.4769 -0.3760
  647MOL0     C85277   5.872  11.199   4.349  0.0678 -0.2261  0.0740
  647MOL0     C85278   5.755  11.257   4.305  0.1080  0.3912  0.7294
  647MOL0     C85279   5.629  11.229   4.368 -0.5749 -0.4781 -0.0204
  647MOL0     O85280   5.506  11.263   4.324  0.8118 -0.5681 -0.0754
  647MOL0     C85281   5.510  11.315   4.191 -0.4915 -0.1974 -0.1389
  647MOL0     C85282   5.364  11.346   4.138 -0.0894 -0.2512  0.0598
  647MOL0     C85283   5.326  11.491   4.158 -0.0719  0.4837 -0.9277
  647MOL0     C85284   5.182  11.526   4.110  0.1754  0.4481 -0.6254
  647MOL0     C85285   5.077  11.555   4.212 -0.2231 -0.7252 -1.3619
  647MOL0     C85286   5.072  11.471   4.341  0.0633 -0.4533 -0.1464
  647MOL0     C85287   4.942  11.490   4.425  0.9925 -0.5303 -0.1690
  647MOL0     C85288   4.921  11.367   4.517  0.6247  0.1108 -0.3875
  647MOL0     N85289   4.794  11.394   4.592 -0.7823 -0.0892 -0.2584
  647MOL0     C85290   4.669  11.368   4.548  0.1910 -0.7030 -0.0866
  647MOL0     C85291   4.589  11.389   4.657 -0.3683  0.7566  0.7368
  647MOL0     C85292   4.438  11.372   4.699 -0.8910  0.7144 -0.2213
  647MOL0     C85293   4.406  11.223   4.739 -0.0343  0.3542  0.6108
  647MOL0     C85294   4.252  11.214   4.765  0.5290  0.2530 -1.3293
  647MOL0     C85295   4.213  11.110   4.862 -0.3174 -0.2819 -0.1731
  647MOL0     O85296   4.077  11.130   4.906 -0.9964  0.6144  0.0804
  647MOL0     C85297   4.021  11.039   4.993 -0.7411  0.3818  0.1364
  647MOL0     C85298   3.890  11.058   5.037  0.3887 -0.9804 -0.1776
  647MOL0     C85299   3.818  10.978   5.131 -0.1393 -0.7616 -0.7506
  647MOL0     C85300   3.899  10.886   5.197  0.1737  0.3581 -0.2178
  647MOL0     C85301   3.845  10.831   5.326  0.1123  0.7506 -0.1230
  647MOL0     O85302   3.913  10.717   5.374  0.7390 -0.0222  0.1149
  647MOL0     C85303   3.874  10.646   5.491 -0.3516 -0.0353 -0.7654
  647MOL0     C85304   3.805  10.691   5.610 -0.3292  0.1546  0.6859
  647MOL0     C85305   3.764  10.587   5.698  0.5230 -0.4618 -0.1907
  647MOL0     C85306   3.817  10.458   5.686  0.9501  0.8910  0.0036
  647MOL0     O85307   3.797  10.379   5.793  0.1876 -0.2605 -0.4278
  647MOL0     C85308   3.702  10.277   5.769  0.4508 -0.2042 -0.9644
  647MOL0     C85309   3.605  10.265   5.886 -0.5614  0.0060  1.0228
  647MOL0     C85310   3.490  10.362   5.886  0.4604 -0.0630  0.4121
  647MOL0     C85311   3.396  10.349   5.764  0.3948 -0.3913  0.1369
  647MOL0     C85312   3.340  10.209   5.747  0.3774 -0.9105 -0.3863
  647MOL0     C85313   3.219  10.216   5.652  0.0579  0.8397  0.1542
  647MOL0     C85314   3.137  10.086   5.642 -0.0712  0.0599 -0.3398
  647MOL0     C85315   3.097  10.070   5.496  0.5237  0.2106  0.3399
  647MOL0    Cl85316   3.010  10.208   5.422 -0.1010 -0.2638 -0.1763
  647MOL0     C85317   3.892  10.416   5.579 -0.9804 -0.1475 -0.3106
  647MOL0     C85318   3.926  10.517   5.488 -0.0430  0.2339 -0.2380
  647MOL0     O85319   3.753  10.893   5.389  0.5306  0.2018  0.4978
  647MOL0     C85320   4.034  10.862   5.157 -0.0030  0.7453  0.9817
  647MOL0     C85321   4.095  10.935   5.051  0.8178 -0.5406 -0.1555
  647MOL0     N85322   4.679  11.412   4.764  0.3744 -0.3346 -0.1538
  647MOL0     N85323   4.798  11.427   4.721  0.1579 -0.3969  0.4848
  647MOL0     C85324   5.635  11.143   4.482 -0.4116  0.5764  0.7701
  647MOL0     C85325   5.758  11.087   4.525  0.4155 -0.2739  0.2315
  647MOL0     C85326   6.179  11.037   4.670 -0.2117 -0.3558 -0.3420
  647MOL0     C85327   6.261  11.016   4.558 -0.0833 -1.0271  0.5428
  647MOL0     C85328   6.397  11.008   4.577  0.4785  0.2317  1.2304
  647MOL0     C85329   6.444  10.994   4.704  0.9806 -0.3284 -0.5620
  647MOL0     O85330   6.570  10.961   4.746  0.7175  0.0404  0.0414
  647MOL0     C85331   6.665  10.937   4.644  0.3843  0.7600  0.3890
  647MOL0     C85332   6.792  10.876   4.703  0.6722 -0.4689  1.1408
  647MOL0     C85333   6.770  10.778   4.814 -1.9941  0.6149 -1.3842
  647MOL0     C85334   6.895  10.744   4.897  0.0517 -0.2328 -0.0819
  647MOL0     C85335   7.012  10.723   4.803 -0.1228  1.0941  0.1242
  647MOL0     C85336   7.113  10.721   4.732  1.0897 -0.3089  0.8103
  647MOL0     C85337   6.363  11.012   4.812 -0.8688  0.4419  0.3955
  647MOL0     C85338   6.228  11.043   4.800 -0.0941  0.0480  0.3555
  647MOL0     H85339   5.957  11.218   4.284  0.4901  0.0235  0.6848
  647MOL0     H85340   5.766  11.337   4.233  0.3654 -1.4948 -1.4430
  647MOL0     H85341   5.548  11.242   4.119  1.6556  0.1083  0.6064
  647MOL0     H85342   5.569  11.407   4.186  0.6518 -0.9714 -2.2183
  647MOL0     H85343   5.292  11.273   4.175 -1.1317  1.1484  0.9046
  647MOL0     H85344   5.360  11.328   4.031 -1.4681 -0.5715  0.1520
  647MOL0     H85345   5.403  11.555   4.114  0.5707  0.0502 -0.4559
  647MOL0     H85346   5.335  11.514   4.265  0.0579  0.3829 -0.9174
  647MOL0     H85347   5.194  11.619   4.052  1.9909  0.5092 -0.2264
  647MOL0     H85348   5.156  11.444   4.043  0.9248 -0.7860  0.5562
  647MOL0     H85349   4.978  11.538   4.168 -1.0924 -0.6272  0.4712
  647MOL0     H85350   5.088  11.660   4.240  0.7259 -1.3633  0.9501
  647MOL0     H85351   5.160  11.490   4.403  0.2596 -2.0463  0.1081
  647MOL0     H85352   5.078  11.370   4.299 -1.0114 -0.5423 -0.1199
  647MOL0     H85353   4.957  11.576   4.492  2.0359 -0.6218 -0.2721
  647MOL0     H85354   4.853  11.515   4.367  1.4478  3.2800  0.4698
  647MOL0     H85355   4.999  11.354   4.592 -0.8724 -0.2624  1.1635
  647MOL0     H85356   4.910  11.278   4.455  0.0314  2.7462 -4.4629
  647MOL0     H85357   4.644  11.357   4.443 -0.5544  0.8263 -0.1055
  647MOL0     H85358   4.370  11.383   4.614 -0.9197  1.8944 -0.0632
  647MOL0     H85359   4.402  11.442   4.775 -0.1226 -0.4088  1.2000
  647MOL0     H85360   4.465  11.195   4.827 -0.5028 -0.4130  0.6899
  647MOL0     H85361   4.435  11.153   4.660 -0.6022  1.2646 -0.4268
  647MOL0     H85362   4.217  11.314   4.792 -0.6179 -0.5764  0.4192
  647MOL0     H85363   4.195  11.180   4.678 -3.6751  1.8280  0.5523
  647MOL0     H85364   4.277  11.108   4.950 -0.5406  0.5934  0.0206
  647MOL0     H85365   4.211  11.013   4.812  1.7864 -0.5926  0.2751
  647MOL0     H85366   3.834  11.132   4.981  3.8941  2.2261  0.1702
  647MOL0     H85367   3.714  10.995   5.159 -0.4540  0.9783 -2.6844
  647MOL0     H85368   3.775  10.793   5.635  4.5519  1.0355  4.5763
  647MOL0     H85369   3.690  10.597   5.777 -2.8195 -2.1210 -2.8445
  647MOL0     H85370   3.758  10.184   5.755  1.3897  0.1103  0.4798
  647MOL0     H85371   3.651  10.288   5.673  3.2234  1.5136 -2.4052
  647MOL0     H85372   3.651  10.275   5.984 -3.9723  4.6950  2.4865
  647MOL0     H85373   3.561  10.165   5.881  0.1222 -0.2891  0.7440
  647MOL0     H85374   3.527  10.464   5.893 -0.2188  0.1112  1.6144
  647MOL0     H85375   3.417  10.341   5.964 -1.5204  0.5359 -1.1733
  647MOL0     H85376   3.314  10.416   5.789  0.8493  0.3743 -0.3871
  647MOL0     H85377   3.435  10.371   5.664  0.3669 -1.4487 -0.1189
  647MOL0     H85378   3.310  10.162   5.841  1.4832 -1.9074 -0.5072
  647MOL0     H85379   3.415  10.141   5.706  1.1165 -1.6669  2.0534
  647MOL0     H85380   3.258  10.253   5.557  0.8737  2.4951  1.0833
  647MOL0     H85381   3.152  10.292   5.692  0.6645  0.6728  1.5713
  647MOL0     H85382   3.199  10.000   5.669 -2.4015 -2.0635 -1.3564
  647MOL0     H85383   3.050  10.080   5.707 -0.6434 -0.5950 -1.1550
  647MOL0     H85384   3.041   9.977   5.488  3.9695 -2.2095  1.9836
  647MOL0     H85385   3.187  10.045   5.439  0.8795 -1.1221  1.4587
  647MOL0     H85386   3.901  10.308   5.569 -1.0250 -0.0384 -1.7291
  647MOL0     H85387   3.986  10.483   5.404  2.7074 -0.2589  1.7711
  647MOL0     H85388   4.089  10.784   5.208 -1.9833 -0.3881  1.5157
  647MOL0     H85389   4.195  10.909   5.016  2.1462  2.0923  1.3664
  647MOL0     H85390   5.547  11.098   4.526 -0.2155 -1.0642 -0.4076
  647MOL0     H85391   5.753  11.015   4.605  0.3668 -2.3107 -1.5268
  647MOL0     H85392   6.230  11.003   4.454  0.8987  1.6422 -0.1746
  647MOL0     H85393   6.461  11.003   4.490  0.3358  0.2161  1.1266
  647MOL0     H85394   6.679  11.023   4.578  1.6752  0.3795  0.1424
  647MOL0     H85395   6.637  10.870   4.562  4.6665  2.4472 -2.7973
  647MOL0     H85396   6.837  10.828   4.615 -0.1920 -1.4097  1.1842
  647MOL0     H85397   6.866  10.949   4.737  1.4639 -0.6372 -0.1434
  647MOL0     H85398   6.730  10.682   4.781 -1.3351 -0.5962  1.1167
  647MOL0     H85399   6.704  10.833   4.883  0.5740 -0.3618  2.1474
  647MOL0     H85400   6.902  10.826   4.969  2.0393 -0.6686  0.2594
  647MOL0     H85401   6.880  10.647   4.947  3.3054 -1.0955 -0.5599
  647MOL0     H85402   7.191  10.725   4.657  0.5099  1.2090  0.2564
  647MOL0     H85403   6.406  11.006   4.911 -2.8947 -0.0521  1.2981
  647MOL0     H85404   6.151  11.077   4.869 -2.5707 -0.8019 -1.8333
  648MOL0     O85405   5.354   1.752   5.918  0.3961  0.0188  0.2277
  648MOL0     C85406   5.457   1.703   5.952 -0.1080 -0.0339  0.9635
  648MOL0     O85407   5.527   1.736   6.057 -0.2724 -0.2035  0.3109
  648MOL0     C85408   5.473   1.830   6.150  0.4367 -0.4305  0.3503
  648MOL0     C85409   5.549   1.932   6.184  0.5907 -0.7436 -0.1875
  648MOL0     C85410   5.520   2.027   6.282 -0.4744 -0.6426 -0.0890
  648MOL0     C85411   5.392   2.008   6.349  0.1307  0.6208 -1.0226
  648MOL0     O85412   5.352   2.105   6.438  0.4679 -0.2030  0.5709
  648MOL0     C85413   5.256   2.077   6.545 -0.1957  0.2890  0.5928
  648MOL0     C85414   5.113   2.103   6.496  1.2514 -0.5965  1.3230
  648MOL0     C85415   5.016   2.106   6.610 -0.0420 -0.5846 -0.0574
  648MOL0     C85416   4.902   2.198   6.575 -0.1694 -0.1368 -0.6437
  648MOL0     C85417   4.792   2.230   6.679  0.7226 -0.3550 -0.1532
  648MOL0     C85418   4.713   2.101   6.715  0.2700 -0.1216 -1.0924
  648MOL0     C85419   4.580   2.142   6.793 -0.1753  0.8354 -0.2582
  648MOL0     C85420   4.608   2.221   6.915  0.6880  1.1383 -1.0190
  648MOL0     N85421   4.622   2.360   6.898 -0.5568  0.5847 -0.8104
  648MOL0     C85422   4.518   2.442   6.868 -0.0160 -0.6484 -0.0376
  648MOL0     C85423   4.575   2.569   6.867 -0.6546 -0.0502 -0.1153
  648MOL0     C85424   4.505   2.693   6.820 -0.6163  0.1613  1.4183
  648MOL0     C85425   4.461   2.786   6.928  0.1001  0.2668  1.2534
  648MOL0     C85426   4.407   2.718   7.049  0.2903  0.0799 -1.1470
  648MOL0     C85427   4.352   2.816   7.151  0.5040 -0.4098  0.3602
  648MOL0     O85428   4.319   2.735   7.264  0.2211 -0.3250 -0.4799
  648MOL0     C85429   4.187   2.710   7.277  0.4990 -0.0834 -1.0509
  648MOL0     C85430   4.105   2.793   7.357 -0.5905 -0.0842 -1.2883
  648MOL0     C85431   3.975   2.762   7.379  0.8826 -0.4821 -0.6568
  648MOL0     C85432   3.912   2.654   7.336  0.4800  0.3985  0.3524
  648MOL0     C85433   3.766   2.628   7.364 -0.1210  0.2430 -0.1851
  648MOL0     O85434   3.709   2.678   7.483 -0.3484 -0.0491  0.0530
  648MOL0     C85435   3.582   2.659   7.514  0.1142 -0.6743 -1.2892
  648MOL0     C85436   3.484   2.756   7.483 -0.8687  0.1370 -0.9005
  648MOL0     C85437   3.349   2.729   7.514  0.1842  0.4271  0.3785
  648MOL0     C85438   3.313   2.613   7.581  0.1438 -0.0898 -0.0148
  648MOL0     O85439   3.188   2.608   7.619  0.2063 -0.1980  0.3709
  648MOL0     C85440   3.115   2.503   7.558  0.5362 -0.3990 -0.1950
  648MOL0     C85441   2.980   2.505   7.615 -0.5135  0.3663  0.5811
  648MOL0     C85442   2.888   2.396   7.571 -0.3150 -0.0150 -0.4946
  648MOL0     C85443   2.749   2.413   7.634 -0.2048  0.2218  0.1700
  648MOL0     C85444   2.678   2.266   7.626 -0.3420 -0.7290  0.3210
  648MOL0     C85445   2.535   2.258   7.688 -0.3384  0.2612 -0.3955
  648MOL0     C85446   2.442   2.364   7.638 -0.3700  0.0971  0.4048
  648MOL0     C85447   2.299   2.354   7.703  0.2871  0.2581 -0.4250
  648MOL0    Cl85448   2.187   2.232   7.614 -0.0094 -0.3229 -0.0992
  648MOL0     C85449   3.410   2.517   7.607 -0.7788  0.6894 -0.5543
  648MOL0     C85450   3.542   2.536   7.575 -0.0466  0.4637  0.0816
  648MOL0     O85451   3.714   2.561   7.281  0.5575  0.0552 -0.1849
  648MOL0     C85452   3.989   2.573   7.246 -0.2626  0.2665 -0.4504
  648MOL0     C85453   4.121   2.605   7.215 -0.6771  0.6962  0.4829
  648MOL0     N85454   4.707   2.557   6.911  0.9397  0.3754 -0.3280
  648MOL0     N85455   4.728   2.433   6.936  0.6059 -0.0836  0.6773
  648MOL0     C85456   5.323   1.889   6.322 -0.1485  0.1031  0.7069
  648MOL0     C85457   5.351   1.809   6.213 -0.8710 -0.4446  0.4889
  648MOL0     C85458   5.513   1.584   5.884 -0.7306  0.3835 -0.1038
  648MOL0     C85459   5.453   1.528   5.772 -0.8493  0.4645  0.7420
  648MOL0     C85460   5.526   1.427   5.700  0.1090  0.3791 -0.8969
  648MOL0     C85461   5.652   1.377   5.741  0.8477 -0.2927  0.3429
  648MOL0     O85462   5.720   1.292   5.657 -0.0057  0.0239  1.1945
  648MOL0     C85463   5.842   1.235   5.709  0.5628  0.1594  0.1545
  648MOL0     C85464   5.929   1.157   5.615 -0.0324 -0.5595 -0.1911
  648MOL0     C85465   5.866   1.049   5.540  0.6207 -0.5895 -1.2865
  648MOL0     C85466   5.970   0.967   5.458 -0.3270 -0.2539 -0.3732
  648MOL0     C85467   6.015   1.040   5.338 -0.4812 -0.3235  0.1449
  648MOL0     C85468   6.068   1.103   5.243 -0.4400  0.5554 -0.1418
  648MOL0     C85469   5.704   1.436   5.854  0.3493 -0.0755  0.0708
  648MOL0     C85470   5.636   1.530   5.926 -0.6053 -1.0671  0.1204
  648MOL0     H85471   5.630   1.921   6.112 -0.7929 -2.3647 -1.5897
  648MOL0     H85472   5.581   2.116   6.293  0.2638 -0.9307 -1.5784
  648MOL0     H85473   5.285   2.137   6.632  0.3409 -1.3639  1.6039
  648MOL0     H85474   5.264   1.970   6.564 -1.6686  0.0954  0.2996
  648MOL0     H85475   5.081   2.034   6.418  0.3040  0.4603  0.7335
  648MOL0     H85476   5.119   2.197   6.440  2.4192 -1.6462 -0.4236
  648MOL0     H85477   5.068   2.131   6.704 -0.7702  2.6025 -0.3811
  648MOL0     H85478   4.982   2.003   6.621 -0.6114 -0.2777  1.2739
  648MOL0     H85479   4.942   2.297   6.551 -1.2704  0.2554 -0.8829
  648MOL0     H85480   4.854   2.153   6.488 -5.3541  3.4307 -0.0396
  648MOL0     H85481   4.727   2.309   6.640  3.0238  1.5171 -0.4229
  648MOL0     H85482   4.830   2.255   6.779 -0.7153 -0.8149  0.5283
  648MOL0     H85483   4.779   2.048   6.785 -0.5439  1.2833  0.8442
  648MOL0     H85484   4.699   2.031   6.632 -3.1749 -1.8518  0.7253
  648MOL0     H85485   4.512   2.200   6.730  0.5122  2.6289  0.5847
  648MOL0     H85486   4.533   2.047   6.820 -0.4911  1.4399  1.4324
  648MOL0     H85487   4.705   2.181   6.946  1.1016  1.4769 -1.8629
  648MOL0     H85488   4.539   2.206   6.999  2.8988 -0.5766  0.6459
  648MOL0     H85489   4.418   2.405   6.848 -0.4921 -1.6181  3.3967
  648MOL0     H85490   4.416   2.655   6.768 -0.7116  1.7193  0.4007
  648MOL0     H85491   4.564   2.750   6.748 -1.5742 -1.0247 -0.3909
  648MOL0     H85492   4.388   2.856   6.888  1.1510  0.3668 -0.5809
  648MOL0     H85493   4.554   2.839   6.955  1.6854 -0.3557 -2.3855
  648MOL0     H85494   4.331   2.647   7.016 -0.4399  0.3129 -0.0026
  648MOL0     H85495   4.472   2.646   7.101 -1.0065 -0.5670 -0.3864
  648MOL0     H85496   4.272   2.882   7.116  2.6463  1.1472 -1.9558
  648MOL0     H85497   4.444   2.868   7.178  1.0404 -0.1807 -1.7180
  648MOL0     H85498   4.151   2.879   7.405 -1.3015  0.3145 -1.3058
  648MOL0     H85499   3.920   2.838   7.433  1.6573 -0.2573 -0.1714
  648MOL0     H85500   3.517   2.846   7.431  2.2879 -0.1884  0.2998
  648MOL0     H85501   3.281   2.809   7.486  0.1036  0.4643  0.6840
  648MOL0     H85502   3.166   2.408   7.577  0.5803 -0.3959 -0.2953
  648MOL0     H85503   3.098   2.510   7.451 -1.3044  3.4363  0.1775
  648MOL0     H85504   2.927   2.591   7.574  0.2049 -0.0555 -1.3412
  648MOL0     H85505   2.988   2.513   7.724 -1.0935 -0.9686  0.7429
  648MOL0     H85506   2.937   2.300   7.586  0.1353 -0.0081 -1.7793
  648MOL0     H85507   2.878   2.379   7.463 -2.0547 -1.5962 -0.1430
  648MOL0     H85508   2.765   2.446   7.737  0.7356 -1.6628  0.6713
  648MOL0     H85509   2.683   2.486   7.585 -1.3392 -0.4502  0.6464
  648MOL0     H85510   2.748   2.199   7.676  1.1567  1.2035  0.9767
  648MOL0     H85511   2.683   2.251   7.518  0.5892  1.8176 -0.0668
  648MOL0     H85512   2.526   2.278   7.795 -3.9769  0.9662 -0.7110
  648MOL0     H85513   2.504   2.158   7.655  0.4965  0.4514 -1.8457
  648MOL0     H85514   2.477   2.465   7.657 -0.8761  0.7040 -1.6068
  648MOL0     H85515   2.434   2.346   7.530  2.0133 -0.2800  0.2399
  648MOL0     H85516   2.255   2.454   7.700  0.2983  0.3264  1.0527
  648MOL0     H85517   2.303   2.326   7.808 -0.6020  0.3359 -0.3634
  648MOL0     H85518   3.383   2.425   7.658  1.9161 -0.9786 -1.9267
  648MOL0     H85519   3.622   2.466   7.598 -1.3625 -0.7229  1.2692
  648MOL0     H85520   3.954   2.478   7.206  0.8918 -0.7154  0.7756
  648MOL0     H85521   4.179   2.544   7.146 -0.3340  3.0232 -1.4507
  648MOL0     H85522   5.232   1.860   6.373  0.6000 -0.9599  1.5069
  648MOL0     H85523   5.290   1.721   6.194 -1.7641  0.3449 -0.4076
  648MOL0     H85524   5.357   1.561   5.735 -0.7429  1.0677  0.9812
  648MOL0     H85525   5.491   1.392   5.603  3.4512 -2.5107 -1.2374
  648MOL0     H85526   5.817   1.169   5.793 -1.5707  2.2416  1.2513
  648MOL0     H85527   5.905   1.317   5.745  2.0087 -1.3031  1.1653
  648MOL0     H85528   5.977   1.227   5.547  1.1915 -2.4411 -1.3711
  648MOL0     H85529   6.014   1.115   5.670  0.1946 -1.5105 -1.2204
  648MOL0     H85530   5.782   1.079   5.477 -0.2175  1.5583  0.6880
  648MOL0     H85531   5.829   0.978   5.615  2.4171  1.2515  1.5144
  648MOL0     H85532   6.051   0.948   5.529 -1.3238 -2.5758  0.2316
  648MOL0     H85533   5.922   0.873   5.429  3.0117 -1.6142 -1.9853
  648MOL0     H85534   6.122   1.169   5.179  0.1222 -0.4368 -0.6980
  648MOL0     H85535   5.798   1.403   5.898  2.6238  2.0519 -2.8032
  648MOL0     H85536   5.677   1.571   6.018 -0.8144  0.7084 -0.5286
  649MOL0     O85537   0.304  10.835   3.829  0.5228  0.3819 -0.0334
  649MOL0     C85538   0.355  10.743   3.763 -0.7365 -0.4730 -0.2547
  649MOL0     O85539   0.315  10.704   3.636 -0.1119  0.3506  0.1141
  649MOL0     C85540   0.194  10.745   3.596 -0.7515 -0.0582  0.2600
  649MOL0     C85541   0.081  10.688   3.645  0.5418  0.3560  0.2004
  649MOL0     C85542  -0.044  10.706   3.587 -0.8971 -0.8680  1.0305
  649MOL0     C85543  -0.056  10.798   3.476  0.6599 -0.0735 -0.1355
  649MOL0     O85544  -0.172  10.824   3.415 -0.6090  0.0469 -0.4834
  649MOL0     C85545  -0.295  10.798   3.488  0.0115  0.8233  0.1316
  649MOL0     C85546  -0.417  10.816   3.403  0.5901 -0.0040  0.4301
  649MOL0     C85547  -0.441  10.686   3.323 -0.5819  0.4464 -0.9233
  649MOL0     C85548  -0.573  10.684   3.233  0.0665 -0.8321  0.0588
  649MOL0     C85549  -0.643  10.550   3.240  0.6863  0.0224 -1.0009
  649MOL0     C85550  -0.782  10.562   3.172 -0.4426 -0.2444  0.4893
  649MOL0     C85551  -0.845  10.426   3.146 -0.5992  0.5657  1.0204
  649MOL0     C85552  -0.976  10.420   3.051 -1.1437 -0.7992  0.4114
  649MOL0     N85553  -1.026  10.287   3.026  0.3436 -0.6742  0.9918
  649MOL0     C85554  -1.060  10.195   3.121  0.7542 -0.0910 -0.1329
  649MOL0     C85555  -1.096  10.082   3.059  0.5014  0.0877  0.6701
  649MOL0     C85556  -1.134   9.961   3.131 -0.0442  0.4069  0.1870
  649MOL0     C85557  -1.264   9.903   3.076 -0.7049 -0.3587 -0.2982
  649MOL0     C85558  -1.263   9.820   2.949 -0.4884 -0.6576  1.0798
  649MOL0     C85559  -1.404   9.826   2.887  0.1191 -0.1040 -0.0461
  649MOL0     O85560  -1.508   9.766   2.965 -0.0155  0.1766 -0.4747
  649MOL0     C85561  -1.633   9.746   2.915 -0.2388  0.1287  0.0627
  649MOL0     C85562  -1.677   9.816   2.804  0.3273 -0.3764  0.0966
  649MOL0     C85563  -1.809   9.799   2.766  0.3424 -0.2075  0.4165
  649MOL0     C85564  -1.899   9.728   2.842  0.6963 -0.2870 -0.4346
  649MOL0     C85565  -2.046   9.716   2.807 -0.5535  0.4396 -0.2476
  649MOL0     O85566  -2.130   9.674   2.905  0.6086  0.7836  0.0097
  649MOL0     C85567  -2.259   9.656   2.861 -0.3143 -0.1224  0.5576
  649MOL0     C85568  -2.313   9.534   2.811 -0.4276 -0.3409 -0.9078
  649MOL0     C85569  -2.447   9.529   2.772  0.7066 -0.4453  0.1394
  649MOL0     C85570  -2.522   9.645   2.769  1.2211 -0.0743  0.1781
  649MOL0     O85571  -2.651   9.654   2.724 -0.5521 -0.0320  0.1193
  649MOL0     C85572  -2.757   9.640   2.827 -0.3928  0.1676  0.1816
  649MOL0     C85573  -2.890   9.616   2.758  0.4111  0.0445 -0.0603
  649MOL0     C85574  -3.009   9.630   2.862  0.2032 -0.0097  0.6470
  649MOL0     C85575  -3.147   9.570   2.806 -0.0765 -0.7355  0.6596
  649MOL0     C85576  -3.267   9.646   2.868 -0.0151 -0.1500 -0.0899
  649MOL0     C85577  -3.289   9.777   2.800  0.0654 -0.0791 -0.0123
  649MOL0     C85578  -3.404   9.853   2.874  0.6924 -0.0077 -0.3934
  649MOL0     C85579  -3.430   9.976   2.782  0.2739 -0.9628  0.5215
  649MOL0    Cl85580  -3.502   9.934   2.628 -0.4884 -0.0682  0.1837
  649MOL0     C85581  -2.464   9.759   2.818 -0.5797  0.6836 -0.2346
  649MOL0     C85582  -2.331   9.765   2.864  0.5107 -0.0186 -0.1603
  649MOL0     O85583  -2.079   9.748   2.690 -0.3138 -0.6934  0.6542
  649MOL0     C85584  -1.851   9.653   2.951 -0.5229 -0.4183 -0.1871
  649MOL0     C85585  -1.716   9.663   2.983 -0.1657  0.9256 -0.1547
  649MOL0     N85586  -1.097  10.118   2.927 -0.1803  0.4404 -0.6360
  649MOL0     N85587  -1.053  10.238   2.903 -0.1485 -0.3232 -0.7413
  649MOL0     C85588   0.061  10.861   3.433 -0.0161 -0.9777 -0.1522
  649MOL0     C85589   0.185  10.833   3.488 -0.8469  0.3911 -0.4051
  649MOL0     C85590   0.477  10.677   3.820 -0.0805 -0.6373  0.2398
  649MOL0     C85591   0.517  10.552   3.766 -0.7743  0.0676  0.4101
  649MOL0     C85592   0.625  10.489   3.833  0.4252  0.9949  0.3711
  649MOL0     C85593   0.701  10.554   3.932  0.0963 -0.9846  0.1237
  649MOL0     O85594   0.815  10.515   4.002 -0.7962 -0.3303  0.0621
  649MOL0     C85595   0.873  10.386   3.991  0.4149  0.9342 -0.5782
  649MOL0     C85596   0.955  10.352   4.117  0.6034  0.9896  0.3358
  649MOL0     C85597   1.084  10.428   4.147 -0.4051 -0.3622 -0.0903
  649MOL0     C85598   1.146  10.372   4.274 -1.4081 -1.0085  0.9038
  649MOL0     C85599   1.269  10.445   4.315  0.5389 -0.3577  0.8705
  649MOL0     C85600   1.368  10.504   4.352 -0.4751 -0.7686 -0.3061
  649MOL0     C85601   0.656  10.673   3.979  0.3851  0.2125 -0.4692
  649MOL0     C85602   0.541  10.737   3.934 -0.6603  0.9762 -0.0478
  649MOL0     H85603   0.083  10.614   3.725  1.8703  2.5006  2.3085
  649MOL0     H85604  -0.119  10.633   3.618 -0.1269 -1.6593  1.0867
  649MOL0     H85605  -0.309  10.848   3.584 -1.4240 -1.3962  1.1649
  649MOL0     H85606  -0.287  10.698   3.533  2.6210  1.9960  2.5173
  649MOL0     H85607  -0.410  10.895   3.328 -1.6379  0.7958  0.9863
  649MOL0     H85608  -0.502  10.833   3.469  0.6446  1.3281  0.1791
  649MOL0     H85609  -0.451  10.603   3.394  3.1475 -1.3912 -2.2283
  649MOL0     H85610  -0.364  10.662   3.249 -1.3003 -1.5911 -1.0747
  649MOL0     H85611  -0.642  10.762   3.268  1.5009  1.1158 -1.2044
  649MOL0     H85612  -0.532  10.709   3.135  1.7248 -2.1695  0.3519
  649MOL0     H85613  -0.643  10.510   3.342 -0.1003  1.5825 -0.3636
  649MOL0     H85614  -0.575  10.480   3.191 -0.0542 -1.1074 -0.4570
  649MOL0     H85615  -0.766  10.610   3.075  1.5659 -0.6355  0.5775
  649MOL0     H85616  -0.837  10.630   3.236 -0.7028 -0.8997  0.9700
  649MOL0     H85617  -0.764  10.377   3.090 -0.3790  4.5394 -2.7557
  649MOL0     H85618  -0.865  10.372   3.238 -0.7603  3.3950  2.7681
  649MOL0     H85619  -0.947  10.481   2.965  1.1032  0.3993  1.8900
  649MOL0     H85620  -1.054  10.479   3.099 -0.7287  0.0324  0.0870
  649MOL0     H85621  -1.071  10.220   3.226  3.1415  2.8044 -0.4246
  649MOL0     H85622  -1.145   9.991   3.236 -1.6681 -1.1118  0.5092
  649MOL0     H85623  -1.058   9.883   3.141 -0.9481 -0.5440 -0.1958
  649MOL0     H85624  -1.340   9.981   3.063 -0.5002 -0.3278 -1.3044
  649MOL0     H85625  -1.302   9.842   3.159  0.4884  0.8480  1.1997
  649MOL0     H85626  -1.190   9.854   2.875 -2.1807  1.6626  0.3717
  649MOL0     H85627  -1.239   9.721   2.988  2.7101 -0.6075 -0.3958
  649MOL0     H85628  -1.407   9.778   2.789  0.8914  0.9766 -0.6208
  649MOL0     H85629  -1.417   9.933   2.871  2.3310  0.1581 -0.3526
  649MOL0     H85630  -1.621   9.886   2.742 -0.3386 -0.2477 -0.3663
  649MOL0     H85631  -1.841   9.860   2.682  0.7621 -1.0577 -0.3754
  649MOL0     H85632  -2.250   9.447   2.797  2.6357  1.9263 -2.2991
  649MOL0     H85633  -2.490   9.432   2.748 -0.5065 -0.4275  2.0057
  649MOL0     H85634  -2.785   9.728   2.886 -0.5266  1.1962 -1.3749
  649MOL0     H85635  -2.731   9.552   2.887  1.0028  0.4356  0.0072
  649MOL0     H85636  -2.893   9.516   2.714  2.5716  0.1738 -0.6203
  649MOL0     H85637  -2.913   9.693   2.683 -2.0099 -1.1623 -0.6626
  649MOL0     H85638  -3.018   9.736   2.885 -1.0414 -0.5205  2.7804
  649MOL0     H85639  -2.989   9.581   2.958  3.5093 -1.6740 -0.7374
  649MOL0     H85640  -3.135   9.586   2.698  2.2406  1.3607  1.1347
  649MOL0     H85641  -3.150   9.464   2.832 -2.6259 -0.7106  0.7218
  649MOL0     H85642  -3.254   9.659   2.976 -1.6576 -1.5666  0.3170
  649MOL0     H85643  -3.353   9.581   2.852  0.5038 -2.2414  4.2251
  649MOL0     H85644  -3.336   9.756   2.703  0.6423 -0.0390 -0.3078
  649MOL0     H85645  -3.203   9.844   2.802  1.4860 -1.7708  3.4943
  649MOL0     H85646  -3.500   9.801   2.868  1.0112 -0.4211 -2.5157
  649MOL0     H85647  -3.364   9.870   2.974 -2.3861 -1.6458  1.2537
  649MOL0     H85648  -3.332  10.025   2.772  1.2256 -2.9483 -0.4115
  649MOL0     H85649  -3.501  10.050   2.820 -0.0485 -0.2797 -1.3184
  649MOL0     H85650  -2.520   9.852   2.814 -0.3381  0.8815  0.6585
  649MOL0     H85651  -2.291   9.862   2.893  2.8569 -0.3658 -1.9226
  649MOL0     H85652  -1.917   9.579   2.996  2.3503 -1.9437  1.8167
  649MOL0     H85653  -1.682   9.611   3.072 -0.7569 -0.8178 -0.9013
  649MOL0     H85654   0.048  10.932   3.352  1.2276 -0.8985 -0.2939
  649MOL0     H85655   0.278  10.875   3.452  1.7518 -4.6276 -0.4398
  649MOL0     H85656   0.471  10.491   3.689  0.2931 -1.4539  0.9355
  649MOL0     H85657   0.653  10.393   3.793 -0.3698  0.3347  1.3645
  649MOL0     H85658   0.929  10.359   3.901  0.4364 -2.4944  0.2961
  649MOL0     H85659   0.789  10.315   3.983 -1.3374  3.1514 -3.8093
  649MOL0     H85660   0.890  10.373   4.202 -0.5216  0.8066 -0.4513
  649MOL0     H85661   0.974  10.244   4.121  0.1144  0.9043  0.3647
  649MOL0     H85662   1.064  10.534   4.162  2.9482  0.8714 -3.0168
  649MOL0     H85663   1.157  10.428   4.065  0.7826 -4.9272  0.6821
  649MOL0     H85664   1.064  10.378   4.347 -2.6878  0.3145 -0.5450
  649MOL0     H85665   1.177  10.270   4.252 -1.3638 -0.8306  0.1172
  649MOL0     H85666   1.453  10.549   4.400 -1.4524  2.2113 -1.1479
  649MOL0     H85667   0.713  10.724   4.056 -1.9157  2.3798 -0.0684
  649MOL0     H85668   0.520  10.835   3.976 -0.5458  1.0606 -0.1861
  650MOL0     O85669   6.386   3.678   1.184 -0.0961 -0.1193 -1.4319
  650MOL0     C85670   6.458   3.598   1.238  0.3604  0.7225 -0.0870
  650MOL0     O85671   6.421   3.523   1.344  0.9659  0.0746  0.7273
  650MOL0     C85672   6.297   3.524   1.396  0.3744  0.1125 -0.9341
  650MOL0     C85673   6.185   3.527   1.315 -0.4175 -0.8803  0.8824
  650MOL0     C85674   6.056   3.527   1.368  0.8924  0.6698  0.3023
  650MOL0     C85675   6.037   3.524   1.509 -1.3774  0.5209 -0.2380
  650MOL0     O85676   5.918   3.530   1.582  0.1478  0.5999  0.2222
  650MOL0     C85677   5.798   3.541   1.509  0.6602  0.1884  0.2191
  650MOL0     C85678   5.679   3.562   1.595  0.0285 -0.2257  0.2220
  650MOL0     C85679   5.550   3.530   1.525 -0.4338  0.2529 -0.1701
  650MOL0     C85680   5.526   3.622   1.403 -0.7913 -0.2619 -0.1096
  650MOL0     C85681   5.406   3.590   1.321  0.1497 -0.5741  0.0709
  650MOL0     C85682   5.277   3.577   1.419 -0.9321 -0.2030  0.8369
  650MOL0     C85683   5.145   3.562   1.349 -0.6596 -0.8560 -0.0704
  650MOL0     C85684   5.050   3.455   1.406 -0.4205  0.0887  0.6659
  650MOL0     N85685   4.927   3.429   1.318 -1.4118 -0.8298 -0.7321
  650MOL0     C85686   4.799   3.434   1.366 -0.5112  0.8062  0.1801
  650MOL0     C85687   4.716   3.415   1.259 -0.8349  0.4192  0.3508
  650MOL0     C85688   4.567   3.405   1.259 -0.4108  0.0498  0.1157
  650MOL0     C85689   4.520   3.277   1.331 -0.2258 -0.1436 -0.7051
  650MOL0     C85690   4.366   3.277   1.359  0.6095 -0.6999  0.3478
  650MOL0     C85691   4.345   3.225   1.500 -0.9013 -0.3061  0.3725
  650MOL0     O85692   4.201   3.200   1.511 -0.1673 -0.3780  0.5918
  650MOL0     C85693   4.117   3.307   1.534 -0.2484  0.8182  0.0320
  650MOL0     C85694   4.145   3.442   1.570 -0.6066  0.5380  0.7669
  650MOL0     C85695   4.049   3.537   1.575  0.2410 -0.7356 -0.9524
  650MOL0     C85696   3.911   3.495   1.566  0.3888  0.7280  0.5255
  650MOL0     C85697   3.800   3.587   1.599 -0.0862 -0.1825 -0.7157
  650MOL0     O85698   3.678   3.523   1.611  0.7538 -0.2340 -0.2549
  650MOL0     C85699   3.562   3.599   1.626 -0.7122  0.0890 -0.3125
  650MOL0     C85700   3.551   3.703   1.721  0.2800  0.1414 -0.2436
  650MOL0     C85701   3.435   3.772   1.739  0.1016  0.7481 -0.5846
  650MOL0     C85702   3.322   3.737   1.662  0.0243 -0.2686  0.1535
  650MOL0     O85703   3.199   3.788   1.707 -0.2032  0.1782 -0.2621
  650MOL0     C85704   3.080   3.764   1.624 -0.2285 -0.2750  0.2847
  650MOL0     C85705   2.957   3.853   1.662 -0.0568  0.0356  0.0444
  650MOL0     C85706   2.855   3.850   1.548 -0.3048  0.1057  0.3506
  650MOL0     C85707   2.828   3.981   1.465  0.5759  0.1479  0.4153
  650MOL0     C85708   2.943   4.019   1.365  0.5487  0.6691 -0.6150
  650MOL0     C85709   2.905   4.142   1.280  0.2949 -0.0005  0.1693
  650MOL0     C85710   2.995   4.134   1.152 -0.8907  0.1254 -0.6000
  650MOL0     C85711   3.136   4.183   1.183 -0.1181 -0.2148  0.4846
  650MOL0    Cl85712   3.217   4.204   1.032  0.1177 -0.2753 -0.3463
  650MOL0     C85713   3.333   3.633   1.569 -0.3428  0.5861 -0.8214
  650MOL0     C85714   3.456   3.565   1.551  0.0788 -0.0731 -0.6021
  650MOL0     O85715   3.821   3.712   1.607  0.1130 -0.2622  0.2173
  650MOL0     C85716   3.886   3.364   1.520 -0.8545  0.2891 -0.3602
  650MOL0     C85717   3.987   3.274   1.502  1.2490  0.1995 -0.2932
  650MOL0     N85718   4.799   3.390   1.155 -0.4121 -0.3694  0.0130
  650MOL0     N85719   4.927   3.387   1.186  0.0586 -0.3699 -0.2318
  650MOL0     C85720   6.157   3.503   1.586 -0.3453  0.0125  0.5505
  650MOL0     C85721   6.283   3.506   1.532 -0.0724 -0.0069  0.1873
  650MOL0     C85722   6.601   3.592   1.210  0.6691 -0.1415 -0.1618
  650MOL0     C85723   6.667   3.672   1.115  0.6478  0.3492  0.1517
  650MOL0     C85724   6.804   3.658   1.089  0.4115 -0.5010 -1.0994
  650MOL0     C85725   6.887   3.567   1.151 -0.6197 -0.0716 -0.0813
  650MOL0     O85726   7.022   3.558   1.120 -0.2565 -0.7041  0.1514
  650MOL0     C85727   7.092   3.434   1.147 -0.0790 -0.1310  0.0417
  650MOL0     C85728   7.031   3.322   1.060  0.2139 -0.5413  0.0042
  650MOL0     C85729   7.032   3.362   0.916 -0.0629  0.7493  0.8101
  650MOL0     C85730   7.005   3.234   0.830  0.0430 -0.3184 -0.7333
  650MOL0     C85731   7.058   3.246   0.694 -0.7993  0.0330  0.5253
  650MOL0     C85732   7.104   3.245   0.579 -0.2880  0.9527  0.5352
  650MOL0     C85733   6.814   3.484   1.239 -0.1957 -0.2585  0.4544
  650MOL0     C85734   6.677   3.486   1.268  0.1414  0.5714 -0.1247
  650MOL0     H85735   6.193   3.540   1.208  2.4167  2.0659  1.2696
  650MOL0     H85736   5.968   3.546   1.308  1.9479 -1.9988 -2.2948
  650MOL0     H85737   5.772   3.457   1.444  1.6452 -1.0938  1.4276
  650MOL0     H85738   5.821   3.628   1.447  0.1196 -0.0100 -0.2613
  650MOL0     H85739   5.669   3.664   1.632 -1.5768 -0.7455  1.3460
  650MOL0     H85740   5.688   3.497   1.683  1.0653  0.3337  0.5412
  650MOL0     H85741   5.467   3.541   1.595 -1.2709 -2.9712 -0.5038
  650MOL0     H85742   5.550   3.427   1.487  0.6418  0.1544  0.0706
  650MOL0     H85743   5.507   3.723   1.440 -5.8842 -0.8460 -0.4653
  650MOL0     H85744   5.615   3.621   1.338  1.2947 -1.3435  2.5606
  650MOL0     H85745   5.415   3.508   1.249  1.5134  0.8579 -1.4509
  650MOL0     H85746   5.390   3.677   1.257 -0.7787 -0.9526 -0.2369
  650MOL0     H85747   5.269   3.676   1.465 -0.1655  0.9035 -1.2694
  650MOL0     H85748   5.285   3.505   1.501 -0.8316 -0.2598  0.7774
  650MOL0     H85749   5.096   3.658   1.369 -0.5982 -1.0272  0.9377
  650MOL0     H85750   5.139   3.541   1.241  0.0033  0.5412 -0.3960
  650MOL0     H85751   5.017   3.491   1.504 -3.4914  1.2002 -0.6326
  650MOL0     H85752   5.102   3.359   1.413  0.8229  0.4403 -2.3633
  650MOL0     H85753   4.774   3.448   1.471 -0.1529  0.3669  0.3291
  650MOL0     H85754   4.543   3.416   1.152  0.1467  2.5278  0.1722
  650MOL0     H85755   4.518   3.490   1.308 -0.3394  0.6711 -0.8407
  650MOL0     H85756   4.570   3.262   1.428 -2.0981  0.1933  0.3506
  650MOL0     H85757   4.547   3.190   1.270  1.1999  0.0040 -0.3334
  650MOL0     H85758   4.328   3.379   1.353  0.4533 -0.8565 -2.3771
  650MOL0     H85759   4.306   3.214   1.293  0.1148 -0.9022  0.9902
  650MOL0     H85760   4.385   3.300   1.568 -0.9216  0.6898 -0.6770
  650MOL0     H85761   4.398   3.132   1.524 -1.3778 -0.4370  0.9362
  650MOL0     H85762   4.246   3.469   1.599  0.2781  2.2833 -3.2655
  650MOL0     H85763   4.087   3.633   1.610 -1.4667 -0.8156  1.3942
  650MOL0     H85764   3.635   3.729   1.784  0.7588 -0.8600 -0.4463
  650MOL0     H85765   3.428   3.847   1.817 -2.7075  1.3355 -1.2913
  650MOL0     H85766   3.064   3.656   1.634  1.5452 -0.7452 -1.3506
  650MOL0     H85767   3.114   3.782   1.522  2.7329  1.1423  1.3997
  650MOL0     H85768   3.001   3.949   1.690  1.5750 -0.5549 -0.3865
  650MOL0     H85769   2.907   3.814   1.751  1.1039  0.7407  1.0384
  650MOL0     H85770   2.761   3.821   1.596  0.2793 -0.0067  1.4587
  650MOL0     H85771   2.878   3.765   1.483 -1.0896  1.4134 -1.7277
  650MOL0     H85772   2.736   3.958   1.409  0.6560  0.0161  0.3372
  650MOL0     H85773   2.797   4.067   1.525  3.1835  3.2621 -2.2767
  650MOL0     H85774   2.981   3.932   1.312 -0.4201 -1.3658  1.8275
  650MOL0     H85775   3.021   4.048   1.437  0.1615  2.8092 -0.9971
  650MOL0     H85776   2.910   4.234   1.338 -2.1637  0.2662  0.0439
  650MOL0     H85777   2.802   4.133   1.245  0.8832  1.3217 -2.1574
  650MOL0     H85778   3.008   4.031   1.118 -1.4738  0.1786 -1.0066
  650MOL0     H85779   2.953   4.191   1.068 -0.8284  0.9587 -0.0778
  650MOL0     H85780   3.198   4.115   1.242  1.7685 -0.7310 -1.9226
  650MOL0     H85781   3.125   4.271   1.247 -0.3427 -0.9690  1.5160
  650MOL0     H85782   3.240   3.596   1.527  1.0662 -1.8559 -1.9896
  650MOL0     H85783   3.463   3.478   1.487  0.4758 -1.4178  1.2081
  650MOL0     H85784   3.786   3.333   1.489 -0.0692 -1.5304 -1.2014
  650MOL0     H85785   3.972   3.173   1.465  0.3310 -0.1861  1.0543
  650MOL0     H85786   6.145   3.485   1.693 -1.3401  1.0003  0.6299
  650MOL0     H85787   6.369   3.473   1.588 -0.6532 -0.5288  0.7904
  650MOL0     H85788   6.604   3.740   1.058 -2.9190 -2.3002  0.6185
  650MOL0     H85789   6.837   3.724   1.009  1.2089  0.1891 -0.2139
  650MOL0     H85790   7.086   3.403   1.252  1.8380 -0.8353 -0.0259
  650MOL0     H85791   7.199   3.452   1.137 -0.1225 -0.3296 -0.8678
  650MOL0     H85792   7.102   3.242   1.085  2.6686  1.9247  1.5533
  650MOL0     H85793   6.929   3.290   1.084  0.0634  0.0097  0.1147
  650MOL0     H85794   7.127   3.412   0.895  0.8028  0.2914  3.2194
  650MOL0     H85795   6.953   3.434   0.893  0.3384  0.6775 -0.8867
  650MOL0     H85796   7.053   3.144   0.871  1.2021  1.6278  2.6345
  650MOL0     H85797   6.901   3.200   0.837  0.8280 -2.6881  0.6186
  650MOL0     H85798   7.147   3.245   0.481 -0.6918  0.6948  0.3576
  650MOL0     H85799   6.871   3.411   1.296 -0.2141 -1.2828 -0.7974
  650MOL0     H85800   6.639   3.416   1.342 -0.3232  1.5827  0.6134
  651MOL0     O85801   5.963   1.216  10.967 -0.4935  0.2695  0.0782
  651MOL0     C85802   6.043   1.298  10.906  0.2021 -0.3079  0.1400
  651MOL0     O85803   6.009   1.425  10.862 -0.1061 -0.2363 -0.4842
  651MOL0     C85804   5.873   1.463  10.881  0.1925  1.2172  0.5405
  651MOL0     C85805   5.801   1.504  10.769 -0.3201 -0.5990  0.4091
  651MOL0     C85806   5.671   1.555  10.785  0.3117  0.4642  0.5349
  651MOL0     C85807   5.600   1.543  10.903 -0.5967  0.7043 -0.2788
  651MOL0     O85808   5.471   1.580  10.911  0.4789 -0.1187  0.2045
  651MOL0     C85809   5.390   1.557  10.789 -0.1228 -0.6294  0.6488
  651MOL0     C85810   5.331   1.690  10.732 -0.9164 -0.2695  0.2637
  651MOL0     C85811   5.246   1.765  10.828  0.5147 -0.0212 -0.1320
  651MOL0     C85812   5.149   1.676  10.905  0.3267 -1.4633  0.5339
  651MOL0     C85813   5.065   1.753  11.007  0.1522  0.3635  0.1835
  651MOL0     C85814   4.943   1.813  10.942 -0.0129  0.4710  0.4147
  651MOL0     C85815   4.858   1.881  11.051  0.5216 -0.1614  0.3190
  651MOL0     C85816   4.868   2.034  11.052 -0.6034  0.6771  0.4731
  651MOL0     N85817   4.797   2.098  11.162  0.6695 -0.0079  1.2252
  651MOL0     C85818   4.668   2.070  11.212  0.0026  0.8165 -0.0874
  651MOL0     C85819   4.639   2.166  11.305 -0.0708  0.4995  0.2526
  651MOL0     C85820   4.512   2.179  11.384 -0.0368 -0.9936  0.3285
  651MOL0     C85821   4.422   2.229  11.280  0.6384  0.1402 -0.6434
  651MOL0     C85822   4.281   2.242  11.335  0.1298  0.1618 -1.0457
  651MOL0     C85823   4.185   2.285  11.225 -0.4573 -0.0533  0.2625
  651MOL0     O85824   4.097   2.185  11.189 -0.4852  0.5822  0.1503
  651MOL0     C85825   3.966   2.215  11.204  0.2238 -0.3217 -0.0181
  651MOL0     C85826   3.881   2.160  11.302  0.0618  0.5174  0.1259
  651MOL0     C85827   3.742   2.194  11.312 -0.8336 -0.4453  0.1216
  651MOL0     C85828   3.700   2.297  11.228  0.1668 -0.1664  1.0601
  651MOL0     C85829   3.567   2.347  11.238 -0.6793 -0.4710  0.6363
  651MOL0     O85830   3.495   2.317  11.359  0.5313 -0.8753 -0.2155
  651MOL0     C85831   3.354   2.332  11.377 -0.6918  0.5878 -0.2669
  651MOL0     C85832   3.311   2.368  11.497 -1.4023  0.8083  0.3742
  651MOL0     C85833   3.171   2.393  11.517  0.8715 -0.3092 -0.8781
  651MOL0     C85834   3.076   2.368  11.415  0.8893  0.5500 -0.5942
  651MOL0     O85835   2.940   2.371  11.438  0.1766 -0.2408  0.2693
  651MOL0     C85836   2.905   2.270  11.530  0.0323 -0.8143  0.5300
  651MOL0     C85837   2.925   2.120  11.484 -0.4562 -0.3501  0.6387
  651MOL0     C85838   2.840   2.074  11.367 -0.1864 -0.4794 -0.4436
  651MOL0     C85839   2.855   1.920  11.339 -0.0184  0.1088  0.3625
  651MOL0     C85840   2.769   1.841  11.437  0.6012 -0.9415  0.6275
  651MOL0     C85841   2.802   1.690  11.449  0.3767 -0.1378  0.2624
  651MOL0     C85842   2.741   1.625  11.580 -0.0096 -0.5907  1.3546
  651MOL0     C85843   2.749   1.468  11.585  0.5592 -0.1187 -0.4702
  651MOL0    Cl85844   2.685   1.397  11.745  0.1244 -0.3267  0.6198
  651MOL0     C85845   3.122   2.326  11.291  0.1165 -0.3650 -0.2428
  651MOL0     C85846   3.267   2.301  11.270  0.2110 -0.3315 -0.5653
  651MOL0     O85847   3.521   2.401  11.139 -0.0597  0.0073  0.1306
  651MOL0     C85848   3.784   2.350  11.126 -0.0495 -0.4557 -0.5183
  651MOL0     C85849   3.915   2.298  11.103 -0.0364 -0.1641  0.4489
  651MOL0     N85850   4.744   2.241  11.327  0.1260 -0.3049 -0.1669
  651MOL0     N85851   4.840   2.206  11.238  0.4292 -0.4687 -0.3640
  651MOL0     C85852   5.663   1.488  11.013 -0.4856 -0.8220  0.2350
  651MOL0     C85853   5.796   1.447  11.003  1.1043  0.1458  0.4106
  651MOL0     C85854   6.185   1.253  10.885 -0.0322  0.6546  0.3355
  651MOL0     C85855   6.211   1.117  10.890 -1.3010 -1.0066  0.3049
  651MOL0     C85856   6.340   1.063  10.865 -0.2393  0.1877 -0.1659
  651MOL0     C85857   6.443   1.150  10.822  0.3353 -0.1954 -1.1041
  651MOL0     O85858   6.568   1.111  10.797  0.2178  0.4812 -0.1342
  651MOL0     C85859   6.611   0.992  10.869  0.3751  0.1176 -0.0716
  651MOL0     C85860   6.760   0.965  10.837  0.7583  0.1547 -0.2537
  651MOL0     C85861   6.839   1.081  10.890 -0.3904  0.5133  0.2920
  651MOL0     C85862   6.972   1.034  10.959  0.2295  0.2902  0.8962
  651MOL0     C85863   6.976   1.076  11.096  0.5570 -0.0106 -1.1268
  651MOL0     C85864   6.999   1.127  11.203  0.0438 -0.4010  0.2100
  651MOL0     C85865   6.407   1.285  10.801  0.0354 -0.2283  0.3558
  651MOL0     C85866   6.284   1.338  10.838  0.2980  0.0985  0.2833
  651MOL0     H85867   5.841   1.515  10.669 -1.5657 -0.6688 -0.1104
  651MOL0     H85868   5.614   1.600  10.705  1.0780  1.5349  0.5720
  651MOL0     H85869   5.311   1.485  10.809 -0.0453 -1.3577 -1.3804
  651MOL0     H85870   5.447   1.502  10.713 -0.2387 -0.4791  0.4503
  651MOL0     H85871   5.289   1.679  10.631 -0.2807 -1.9216  0.1350
  651MOL0     H85872   5.414   1.757  10.710  0.3848 -2.0051 -0.4208
  651MOL0     H85873   5.196   1.849  10.779  1.2338 -0.7232 -2.1512
  651MOL0     H85874   5.316   1.813  10.897  0.2583  2.6784 -1.6244
  651MOL0     H85875   5.089   1.623  10.831 -2.2252 -0.5478  1.8309
  651MOL0     H85876   5.216   1.610  10.962  0.3855 -0.1646  2.0356
  651MOL0     H85877   5.115   1.831  11.064 -3.9109  1.8672  2.0802
  651MOL0     H85878   5.029   1.671  11.070  0.8665 -0.9981 -1.1084
  651MOL0     H85879   4.884   1.740  10.885  0.5901 -1.3594  2.0292
  651MOL0     H85880   4.974   1.887  10.867 -0.5135  1.2408  0.9526
  651MOL0     H85881   4.756   1.848  11.033 -0.3786  2.4401  0.2343
  651MOL0     H85882   4.893   1.847  11.149 -0.8784  1.3696  1.4030
  651MOL0     H85883   4.841   2.082  10.957  0.0806 -0.5636 -0.3750
  651MOL0     H85884   4.973   2.061  11.058  0.9434 -3.9441 -1.4701
  651MOL0     H85885   4.607   1.988  11.179  1.0260  0.4525 -1.1663
  651MOL0     H85886   4.516   2.249  11.468 -0.3666  0.7315 -1.0369
  651MOL0     H85887   4.473   2.090  11.435 -4.0497  2.3531  3.8483
  651MOL0     H85888   4.412   2.155  11.200 -0.6639 -2.8319  2.0634
  651MOL0     H85889   4.457   2.324  11.236  0.7478 -0.2449 -1.4074
  651MOL0     H85890   4.254   2.143  11.373  2.3716 -0.5920 -1.3024
  651MOL0     H85891   4.270   2.309  11.420  0.6969  0.4561 -1.2057
  651MOL0     H85892   4.237   2.298  11.129 -1.3545 -1.7545 -0.5013
  651MOL0     H85893   4.131   2.370  11.267 -1.1073  0.4754 -1.5453
  651MOL0     H85894   3.927   2.085  11.365  1.6699  1.5911  0.3080
  651MOL0     H85895   3.686   2.141  11.388  0.1596 -0.1221  1.0981
  651MOL0     H85896   3.376   2.396  11.579  0.8090 -0.1586 -0.9806
  651MOL0     H85897   3.120   2.428  11.606 -1.1778 -1.2873 -1.5913
  651MOL0     H85898   2.798   2.280  11.549  0.5979  1.9051  2.7769
  651MOL0     H85899   2.966   2.291  11.618  2.0558 -2.1918 -0.4560
  651MOL0     H85900   2.906   2.059  11.573 -1.6720 -1.9024 -0.6286
  651MOL0     H85901   3.031   2.103  11.463  0.1489  1.7304  1.7268
  651MOL0     H85902   2.871   2.123  11.274  0.0285 -2.4343 -1.4517
  651MOL0     H85903   2.736   2.100  11.390  0.0721 -2.1005  3.2100
  651MOL0     H85904   2.813   1.900  11.240 -0.2006  0.0193  0.4567
  651MOL0     H85905   2.960   1.892  11.347 -0.5161 -2.4811 -1.2051
  651MOL0     H85906   2.664   1.842  11.408  1.0944 -0.3452 -1.2867
  651MOL0     H85907   2.785   1.891  11.533  3.2099  0.0087 -0.2010
  651MOL0     H85908   2.911   1.678  11.458  0.2790 -0.9850  0.3573
  651MOL0     H85909   2.759   1.635  11.365  1.2675 -0.5023  0.0364
  651MOL0     H85910   2.781   1.669  11.672  3.0078 -0.7280  0.2343
  651MOL0     H85911   2.636   1.651  11.592  0.1370  0.3251  0.7691
  651MOL0     H85912   2.855   1.443  11.577  1.0703  1.7004  0.0353
  651MOL0     H85913   2.691   1.422  11.504 -0.9425  0.8212  0.0302
  651MOL0     H85914   3.065   2.308  11.200  1.6249 -0.9328 -1.1124
  651MOL0     H85915   3.299   2.261  11.174 -4.7595 -0.6087 -2.3856
  651MOL0     H85916   3.753   2.425  11.055 -0.7032 -1.9510 -1.8876
  651MOL0     H85917   3.968   2.339  11.018 -1.7762  1.1018 -0.0790
  651MOL0     H85918   5.605   1.486  11.105 -3.8669 -1.5028 -1.7107
  651MOL0     H85919   5.840   1.427  11.100  0.8766 -0.4768  0.3949
  651MOL0     H85920   6.125   1.060  10.924 -4.4711  2.6961 -0.8607
  651MOL0     H85921   6.351   0.955  10.869  1.8865  0.3811  1.8281
  651MOL0     H85922   6.544   0.910  10.843 -0.2223  0.5437  0.0751
  651MOL0     H85923   6.599   1.014  10.976 -3.2769 -0.6505 -0.1791
  651MOL0     H85924   6.795   0.870  10.878  0.3642 -0.1414 -0.5936
  651MOL0     H85925   6.766   0.947  10.729 -0.8035 -0.4852 -0.2633
  651MOL0     H85926   6.782   1.138  10.963 -3.6564 -5.1716  2.8921
  651MOL0     H85927   6.872   1.132  10.799  0.3458  0.9046  0.7682
  651MOL0     H85928   6.977   0.925  10.956  0.4994  0.3115  0.4937
  651MOL0     H85929   7.062   1.067  10.905 -0.2413 -0.7521 -0.5712
  651MOL0     H85930   7.012   1.182  11.294 -0.0162 -0.0562  0.0114
  651MOL0     H85931   6.480   1.348  10.751  1.1849 -0.2425  1.9300
  651MOL0     H85932   6.272   1.440  10.802  0.5819 -0.6856 -2.2873
  652MOL0     O85933   3.761  10.837   7.574  0.9185  0.1527 -0.4431
  652MOL0     C85934   3.820  10.933   7.628 -0.4871  0.2729 -0.0344
  652MOL0     O85935   3.766  11.038   7.695 -0.1229 -0.0454 -0.5493
  652MOL0     C85936   3.630  11.049   7.711 -0.4571  0.1249  0.0168
  652MOL0     C85937   3.548  10.960   7.775 -0.6935 -0.8734 -0.0768
  652MOL0     C85938   3.413  10.994   7.803 -0.1701 -0.0641 -0.3044
  652MOL0     C85939   3.358  11.122   7.763 -0.2015 -0.3081  0.4032
  652MOL0     O85940   3.233  11.168   7.782 -0.3447  0.2073  0.6899
  652MOL0     C85941   3.126  11.078   7.789 -0.1592  0.3559  0.3415
  652MOL0     C85942   3.002  11.142   7.839  0.5096  0.8123 -0.2230
  652MOL0     C85943   2.859  11.092   7.796  0.1011  0.6015 -0.1679
  652MOL0     C85944   2.759  11.198   7.805 -0.2970 -0.7546  0.7430
  652MOL0     C85945   2.625  11.137   7.784 -0.2701 -0.2095  0.6030
  652MOL0     C85946   2.522  11.246   7.763 -0.4679 -1.0508 -0.2126
  652MOL0     C85947   2.378  11.186   7.750 -0.0848 -0.3753 -0.2464
  652MOL0     C85948   2.329  11.087   7.861 -0.2539 -0.2304 -0.7807
  652MOL0     N85949   2.191  11.054   7.841 -0.7898  0.5088  0.1793
  652MOL0     C85950   2.086  11.139   7.874 -1.0363  0.0827  0.4921
  652MOL0     C85951   1.978  11.081   7.822 -0.0894  0.6784  0.2814
  652MOL0     C85952   1.844  11.138   7.822  0.4342 -0.7808  0.7073
  652MOL0     C85953   1.744  11.028   7.790 -0.2438  1.1579 -0.0066
  652MOL0     C85954   1.600  11.092   7.786  0.8531 -0.3741 -0.3434
  652MOL0     C85955   1.500  10.976   7.757  0.3353 -0.5254  0.1817
  652MOL0     O85956   1.381  11.025   7.820  0.0000 -0.5345 -0.5431
  652MOL0     C85957   1.272  10.950   7.836 -0.0440  0.4065 -0.2051
  652MOL0     C85958   1.264  10.814   7.807 -0.4570 -0.1593 -0.0551
  652MOL0     C85959   1.153  10.736   7.849  0.4095 -0.1149 -0.1816
  652MOL0     C85960   1.041  10.803   7.898 -0.1110 -0.7233 -0.0166
  652MOL0     C85961   0.923  10.735   7.935  1.0047  0.6748 -0.2302
  652MOL0     O85962   0.809  10.798   7.980 -0.0647 -0.1379 -0.2209
  652MOL0     C85963   0.694  10.721   7.984  0.6102 -1.1183 -0.3782
  652MOL0     C85964   0.646  10.664   7.862  0.1465 -0.3948  0.7018
  652MOL0     C85965   0.523  10.610   7.848 -0.0834 -0.3136  0.5905
  652MOL0     C85966   0.438  10.608   7.949 -0.7907 -1.0819 -0.5878
  652MOL0     O85967   0.310  10.554   7.946  0.2036 -0.1887 -0.4061
  652MOL0     C85968   0.258  10.513   7.816  0.6193 -0.0860 -0.9254
  652MOL0     C85969   0.102  10.484   7.839  0.5418 -0.0475  0.8416
  652MOL0     C85970   0.039  10.468   7.703  0.3085  0.2953  0.1624
  652MOL0     C85971  -0.104  10.408   7.724 -0.7613 -0.2887 -0.3388
  652MOL0     C85972  -0.172  10.405   7.589  0.3059 -0.3635 -0.7350
  652MOL0     C85973  -0.317  10.372   7.595  0.5959 -0.3561  0.0364
  652MOL0     C85974  -0.346  10.236   7.667 -0.2496 -0.2044  0.5291
  652MOL0     C85975  -0.488  10.201   7.620  0.5758 -0.1848 -0.3635
  652MOL0    Cl85976  -0.629  10.297   7.688  0.1070  0.0929 -0.4085
  652MOL0     C85977   0.478  10.658   8.073  0.3579  0.4808 -0.6578
  652MOL0     C85978   0.604  10.719   8.093  0.2743  0.0744  0.0817
  652MOL0     O85979   0.925  10.610   7.917 -0.6760  0.6673  0.3036
  652MOL0     C85980   1.045  10.947   7.910  0.2128  0.7015 -0.0052
  652MOL0     C85981   1.156  11.018   7.875  1.0715 -0.8604  0.2532
  652MOL0     N85982   2.019  10.969   7.748 -0.7358  0.1702 -0.3164
  652MOL0     N85983   2.148  10.959   7.756 -0.0477  0.1114  0.6291
  652MOL0     C85984   3.452  11.207   7.699 -0.5838  0.2971  0.3472
  652MOL0     C85985   3.581  11.175   7.677 -0.4322 -0.7911  0.2027
  652MOL0     C85986   3.967  10.924   7.618  0.7559  0.4649  0.0919
  652MOL0     C85987   4.039  10.803   7.599 -0.9572 -0.1255  0.5920
  652MOL0     C85988   4.180  10.806   7.601 -0.3382  0.0860  0.4332
  652MOL0     C85989   4.252  10.930   7.607  0.7402  0.1116  0.1965
  652MOL0     O85990   4.383  10.921   7.583  0.1101 -0.2024  0.1489
  652MOL0     C85991   4.462  10.876   7.690 -0.2434  0.5000 -0.1206
  652MOL0     C85992   4.609  10.906   7.656  0.1622  0.0428 -0.3194
  652MOL0     C85993   4.695  10.843   7.766  0.8268  0.2932  0.0938
  652MOL0     C85994   4.828  10.909   7.774 -0.2716 -0.7639 -0.1578
  652MOL0     C85995   4.913  10.846   7.671 -0.1528  0.4036 -1.1813
  652MOL0     C85996   4.980  10.805   7.580  0.3751  0.8222  0.4729
  652MOL0     C85997   4.177  11.048   7.634  0.1284  0.2223  0.6139
  652MOL0     C85998   4.034  11.048   7.631 -0.0062  0.2977  0.8757
  652MOL0     H85999   3.582  10.858   7.796 -1.3563 -1.7898 -3.0336
  652MOL0     H86000   3.363  10.909   7.847  3.0063 -0.3580  3.1819
  652MOL0     H86001   3.147  10.994   7.856  0.1729  0.5469  0.4785
  652MOL0     H86002   3.120  11.026   7.693 -0.4583  0.2390  0.4220
  652MOL0     H86003   3.016  11.250   7.828  2.7508  0.4575 -1.3339
  652MOL0     H86004   3.005  11.136   7.949 -0.4040  2.4460 -0.0739
  652MOL0     H86005   2.827  11.016   7.868  1.4521  1.9396  1.9429
  652MOL0     H86006   2.860  11.062   7.691  0.6007  1.9886 -0.5818
  652MOL0     H86007   2.771  11.251   7.899  0.0815  1.5999 -0.5517
  652MOL0     H86008   2.785  11.262   7.720  2.5466 -0.5661  1.6461
  652MOL0     H86009   2.605  11.089   7.881 -3.3102  2.5028  1.4848
  652MOL0     H86010   2.626  11.061   7.705 -1.5423 -0.4602  0.8158
  652MOL0     H86011   2.548  11.314   7.681  2.2301 -2.8718 -1.0270
  652MOL0     H86012   2.519  11.311   7.850 -2.1576  0.5113 -1.3680
  652MOL0     H86013   2.311  11.272   7.752  1.4500  0.8729  1.8911
  652MOL0     H86014   2.370  11.145   7.649 -0.7549 -1.0442  0.0679
  652MOL0     H86015   2.327  11.138   7.958 -0.4079 -1.6756 -0.0035
  652MOL0     H86016   2.394  10.999   7.857  1.6504  1.0141  0.7577
  652MOL0     H86017   2.081  11.241   7.912 -4.6235  1.4743 -2.9466
  652MOL0     H86018   1.835  11.216   7.745  1.4908  0.0835  1.4272
  652MOL0     H86019   1.819  11.181   7.919  2.8547  0.7581  0.7446
  652MOL0     H86020   1.757  10.955   7.871 -0.9857 -0.4704 -1.2787
  652MOL0     H86021   1.754  10.963   7.703 -2.2076 -2.7228  2.3673
  652MOL0     H86022   1.582  11.128   7.888  0.0211 -1.6672 -0.0122
  652MOL0     H86023   1.597  11.164   7.704  1.8349 -2.5698 -2.4319
  652MOL0     H86024   1.534  10.887   7.809  2.0299 -0.0229  0.0011
  652MOL0     H86025   1.492  10.969   7.648 -1.3889 -1.8465  0.3489
  652MOL0     H86026   1.355  10.770   7.768  1.3322  3.4859 -0.3938
  652MOL0     H86027   1.144  10.628   7.849 -1.5472  0.0118  0.7724
  652MOL0     H86028   0.713  10.650   7.777 -0.1734 -0.7090  0.4965
  652MOL0     H86029   0.507  10.559   7.754 -0.0391  0.5965  0.0760
  652MOL0     H86030   0.314  10.433   7.766  4.3608  0.3681  2.1367
  652MOL0     H86031   0.266  10.597   7.746 -0.9272  1.6334  0.8412
  652MOL0     H86032   0.054  10.561   7.900 -0.5597 -1.2424  1.5449
  652MOL0     H86033   0.087  10.396   7.902 -1.1211  0.9927  1.9687
  652MOL0     H86034   0.090  10.412   7.624  1.0149  3.0483 -1.4322
  652MOL0     H86035   0.031  10.568   7.660 -2.0879  0.0881  0.0177
  652MOL0     H86036  -0.101  10.308   7.768  2.0304  0.4435  1.3700
  652MOL0     H86037  -0.166  10.467   7.793 -0.2977 -1.6896  1.3496
  652MOL0     H86038  -0.118  10.334   7.526 -0.3731 -0.6267 -1.0344
  652MOL0     H86039  -0.165  10.508   7.553 -2.0369  1.6439  3.6477
  652MOL0     H86040  -0.355  10.374   7.492 -0.3850  2.2770  0.3821
  652MOL0     H86041  -0.376  10.442   7.655  0.0786 -0.3271 -0.4933
  652MOL0     H86042  -0.276  10.157   7.639  0.5865 -0.1049  2.2435
  652MOL0     H86043  -0.356  10.250   7.775  1.6389 -0.2399  0.7313
  652MOL0     H86044  -0.508  10.095   7.644 -0.9255  0.8841  4.2020
  652MOL0     H86045  -0.486  10.208   7.511 -2.2160 -0.0518 -0.4861
  652MOL0     H86046   0.407  10.649   8.155 -0.3802 -2.8546 -1.5210
  652MOL0     H86047   0.629  10.771   8.185 -0.7174  2.4943 -0.9418
  652MOL0     H86048   0.967  11.006   7.958  0.4004  1.2346 -0.3517
  652MOL0     H86049   1.146  11.126   7.881  1.3348 -0.7617 -0.8062
  652MOL0     H86050   3.410  11.302   7.668 -0.3838 -0.4041 -2.3767
  652MOL0     H86051   3.651  11.249   7.638  0.7502 -2.1358 -0.3444
  652MOL0     H86052   3.997  10.703   7.592 -1.9203  0.3822 -2.5992
  652MOL0     H86053   4.240  10.717   7.589  2.0652  1.8491 -1.6629
  652MOL0     H86054   4.442  10.769   7.699  0.1630  0.4057 -0.3213
  652MOL0     H86055   4.431  10.925   7.783  1.0167 -0.1728  0.6816
  652MOL0     H86056   4.626  10.859   7.558 -0.5304 -1.9816  0.4920
  652MOL0     H86057   4.618  11.014   7.642 -0.2173  0.6719  3.3445
  652MOL0     H86058   4.691  10.735   7.750 -4.2603  0.4889 -2.2057
  652MOL0     H86059   4.634  10.863   7.854  0.8814 -0.6597  0.3556
  652MOL0     H86060   4.836  11.016   7.754  1.1130 -0.5086  1.5253
  652MOL0     H86061   4.877  10.888   7.869  0.6032 -1.6796 -0.8003
  652MOL0     H86062   5.034  10.768   7.494 -0.0296 -0.0249  0.5725
  652MOL0     H86063   4.234  11.140   7.646 -3.8345  3.2079 -0.8240
  652MOL0     H86064   3.977  11.139   7.645  0.5911  0.8902 -0.3585
  653MOL0     O86065  10.148   5.639   0.852  0.5455 -0.3134  0.6754
  653MOL0     C86066  10.147   5.561   0.749 -0.6744 -0.3852 -0.5300
  653MOL0     O86067  10.075   5.443   0.743 -0.1593  0.5181 -0.1214
  653MOL0     C86068   9.973   5.415   0.840 -0.7507  0.2276 -0.6639
  653MOL0     C86069   9.890   5.503   0.901 -0.5396  0.2459 -0.1636
  653MOL0     C86070   9.806   5.458   1.002  0.1390  0.0219  1.3745
  653MOL0     C86071   9.789   5.325   1.040  0.4646  0.8036  0.1794
  653MOL0     O86072   9.691   5.272   1.127  0.2259 -0.2007 -0.1479
  653MOL0     C86073   9.585   5.358   1.162  0.0104  0.8522 -0.5640
  653MOL0     C86074   9.459   5.288   1.223 -0.5983 -1.0345  0.9237
  653MOL0     C86075   9.495   5.179   1.326 -0.6623 -0.2313  0.9678
  653MOL0     C86076   9.589   5.217   1.450  0.3808  0.3017  0.6638
  653MOL0     C86077   9.743   5.208   1.437  0.8078 -0.3849 -0.2767
  653MOL0     C86078   9.814   5.211   1.575 -0.3943  0.4355  0.2658
  653MOL0     C86079   9.783   5.089   1.672 -0.0251 -0.1533 -0.7651
  653MOL0     C86080   9.824   5.128   1.819  0.1311  0.6113  0.1861
  653MOL0     N86081   9.968   5.164   1.812 -0.8066 -0.0259 -0.6765
  653MOL0     C86082  10.031   5.288   1.809 -0.5316  0.4388  0.4658
  653MOL0     C86083  10.145   5.257   1.876  1.0807  0.7666 -0.1385
  653MOL0     C86084  10.262   5.348   1.884  0.1733  0.4029 -0.7657
  653MOL0     C86085  10.288   5.400   2.022  0.2581 -0.1446 -0.3610
  653MOL0     C86086  10.409   5.497   2.022 -0.1759  0.4858  0.0219
  653MOL0     C86087  10.458   5.533   2.164  0.1833  0.7736 -0.2434
  653MOL0     O86088  10.596   5.559   2.149  0.3023 -0.4962  0.8102
  653MOL0     C86089  10.647   5.649   2.242  0.3872 -1.3915  1.4034
  653MOL0     C86090  10.730   5.606   2.342  0.7434 -1.2884  0.1620
  653MOL0     C86091  10.768   5.703   2.433 -0.1301 -0.9151  0.1333
  653MOL0     C86092  10.723   5.839   2.441  0.1766 -0.7033  0.1032
  653MOL0     C86093  10.761   5.940   2.547 -0.1478 -0.2812  0.0055
  653MOL0     O86094  10.820   5.903   2.661 -0.9588  0.0912  0.0831
  653MOL0     C86095  10.798   5.977   2.775  0.2971 -0.3996  1.0246
  653MOL0     C86096  10.671   6.010   2.822 -0.2138 -0.3965  0.1546
  653MOL0     C86097  10.649   6.074   2.940  0.0680  0.0003 -0.1167
  653MOL0     C86098  10.757   6.097   3.021  0.3974 -0.4718  0.0651
  653MOL0     O86099  10.730   6.168   3.139  0.3456  0.5709  0.2451
  653MOL0     C86100  10.811   6.162   3.262 -0.0005  0.1153 -0.0997
  653MOL0     C86101  10.776   6.291   3.333  0.2698  0.4772  0.3845
  653MOL0     C86102  10.828   6.299   3.486 -0.5643  0.6744 -0.4542
  653MOL0     C86103  10.795   6.432   3.543  0.6931  0.4675  0.2618
  653MOL0     C86104  10.862   6.454   3.684  0.6671 -0.6369 -0.2995
  653MOL0     C86105  10.822   6.347   3.793  0.1178  0.1881  0.1559
  653MOL0     C86106  10.904   6.361   3.918  0.6575 -0.1364 -0.2168
  653MOL0     C86107  10.988   6.490   3.939 -0.5050  0.3979  0.2131
  653MOL0    Cl86108  11.075   6.495   4.084  0.0548  0.0409  0.4222
  653MOL0     C86109  10.887   6.069   2.977 -0.1567 -0.0425 -0.3654
  653MOL0     C86110  10.908   6.015   2.851 -0.1645 -0.3240  0.0571
  653MOL0     O86111  10.709   6.051   2.530 -0.4118 -0.1471  0.2699
  653MOL0     C86112  10.637   5.872   2.335 -0.6206  0.4365 -0.3508
  653MOL0     C86113  10.600   5.786   2.237  0.0342 -0.2600  0.2286
  653MOL0     N86114  10.164   5.119   1.903  0.9770  0.5409  0.1032
  653MOL0     N86115  10.056   5.068   1.864  0.1068 -0.0078 -0.1297
  653MOL0     C86116   9.870   5.234   0.972 -0.8293 -0.2884 -0.5708
  653MOL0     C86117   9.960   5.280   0.880  0.6943  1.2155  1.0426
  653MOL0     C86118  10.224   5.583   0.633 -0.9627  0.1492 -0.6494
  653MOL0     C86119  10.273   5.474   0.544  0.2804 -0.7044 -0.5609
  653MOL0     C86120  10.351   5.508   0.435  0.3046  0.3609  0.1923
  653MOL0     C86121  10.398   5.641   0.404 -0.0391 -0.3552  0.0264
  653MOL0     O86122  10.483   5.655   0.295  0.0677 -0.1045  0.0262
  653MOL0     C86123  10.534   5.787   0.262 -0.8173  1.6187  0.1485
  653MOL0     C86124  10.588   5.792   0.120 -0.0725 -0.2793  0.1167
  653MOL0     C86125  10.480   5.805   0.010 -0.5426 -0.2778  0.1407
  653MOL0     C86126  10.555   5.794  -0.126  0.1353 -0.3731 -0.2332
  653MOL0     C86127  10.456   5.731  -0.218  0.2885 -1.1684 -0.3942
  653MOL0     C86128  10.370   5.675  -0.285 -0.0455 -0.3584  0.6645
  653MOL0     C86129  10.349   5.741   0.491  0.7420 -0.4297 -0.2465
  653MOL0     C86130  10.272   5.715   0.610  0.7310  0.3199 -0.7275
  653MOL0     H86131   9.894   5.609   0.875 -0.2461  0.7530  1.7793
  653MOL0     H86132   9.751   5.541   1.046 -1.0382  1.0793 -1.7663
  653MOL0     H86133   9.556   5.417   1.074  0.2932 -0.0957 -1.3182
  653MOL0     H86134   9.617   5.427   1.241  0.6799  0.3556 -0.3916
  653MOL0     H86135   9.394   5.249   1.145 -1.1392 -1.0225  1.3627
  653MOL0     H86136   9.402   5.365   1.277 -1.2931  0.5656 -1.9125
  653MOL0     H86137   9.548   5.099   1.274  0.9898  0.3523  1.6671
  653MOL0     H86138   9.398   5.142   1.357  0.5593 -2.8463  1.9354
  653MOL0     H86139   9.554   5.312   1.492  0.5725  0.1309  1.2285
  653MOL0     H86140   9.560   5.150   1.532  1.9326  0.0706  1.0495
  653MOL0     H86141   9.771   5.302   1.389  0.8364  1.2386  2.6877
  653MOL0     H86142   9.766   5.115   1.385  0.6581  0.1451 -1.3143
  653MOL0     H86143   9.781   5.304   1.625  0.3035  1.7443 -1.6016
  653MOL0     H86144   9.921   5.222   1.557 -0.5440  1.9696  0.1730
  653MOL0     H86145   9.678   5.061   1.687  0.9775 -2.6416  2.9769
  653MOL0     H86146   9.820   4.992   1.638 -1.5094 -0.5580 -1.2708
  653MOL0     H86147   9.800   5.044   1.885 -0.4175  0.6589  0.0525
  653MOL0     H86148   9.761   5.213   1.847 -0.1890  0.1894  0.7720
  653MOL0     H86149  10.008   5.380   1.757  2.1965  2.1748  2.1397
  653MOL0     H86150  10.242   5.431   1.815 -1.1402  0.9064  0.1816
  653MOL0     H86151  10.349   5.289   1.855 -0.5826 -1.1189 -0.0486
  653MOL0     H86152  10.291   5.322   2.098 -3.3708 -3.0173 -2.8277
  653MOL0     H86153  10.200   5.461   2.044  1.6280  1.7244  0.1732
  653MOL0     H86154  10.489   5.448   1.965  1.0759  0.9069  1.3511
  653MOL0     H86155  10.376   5.588   1.972  3.1829  1.4683 -0.6455
  653MOL0     H86156  10.458   5.447   2.232 -1.7523  0.6910 -0.2969
  653MOL0     H86157  10.404   5.621   2.200  1.3414  1.5171 -0.2355
  653MOL0     H86158  10.766   5.505   2.361 -0.9803 -2.8153 -3.5571
  653MOL0     H86159  10.837   5.671   2.510  0.8397  0.2208 -0.2449
  653MOL0     H86160  10.588   5.989   2.755 -1.0913 -0.4684  1.2329
  653MOL0     H86161  10.545   6.087   2.971 -0.6457  0.4905 -2.4967
  653MOL0     H86162  10.918   6.162   3.241 -0.6235  1.5600 -4.1112
  653MOL0     H86163  10.783   6.072   3.317  0.9791  0.9100  1.7983
  653MOL0     H86164  10.668   6.307   3.338  0.2800  0.1092  2.9632
  653MOL0     H86165  10.834   6.370   3.283  0.8090  0.1489  0.4754
  653MOL0     H86166  10.937   6.291   3.487 -0.5395  1.0602  0.5967
  653MOL0     H86167  10.790   6.212   3.540  0.1177  0.9258  0.4576
  653MOL0     H86168  10.832   6.514   3.481  1.2946  0.6192  0.8119
  653MOL0     H86169  10.689   6.446   3.565  0.9048  1.0130  0.9765
  653MOL0     H86170  10.830   6.556   3.710 -3.2965 -0.8045 -3.4158
  653MOL0     H86171  10.969   6.443   3.670  1.1912  0.9913  1.8386
  653MOL0     H86172  10.823   6.249   3.744 -4.3261  0.1521 -0.2683
  653MOL0     H86173  10.714   6.347   3.812 -0.0439 -1.9023 -0.5572
  653MOL0     H86174  10.846   6.339   4.008  2.9412 -2.5557  0.8066
  653MOL0     H86175  10.969   6.274   3.908  2.8542  1.6321 -2.9303
  653MOL0     H86176  10.929   6.581   3.930 -1.2402 -0.2238 -1.5933
  653MOL0     H86177  11.064   6.497   3.860 -1.0012  5.9076 -0.1157
  653MOL0     H86178  10.972   6.064   3.044 -0.5393  0.2783  0.1552
  653MOL0     H86179  11.010   5.992   2.819 -1.1621 -3.3202 -1.3304
  653MOL0     H86180  10.600   5.973   2.318 -0.5339  0.2857 -1.4750
  653MOL0     H86181  10.529   5.801   2.156  0.0674  0.5100  0.3313
  653MOL0     H86182   9.852   5.130   0.998  3.7723 -1.6621 -1.9026
  653MOL0     H86183  10.023   5.209   0.828  0.8219  2.5075 -0.6471
  653MOL0     H86184  10.244   5.369   0.552 -0.4963 -0.4979 -0.6152
  653MOL0     H86185  10.382   5.427   0.370  0.4620  0.6594 -0.1102
  653MOL0     H86186  10.613   5.814   0.333 -0.0563 -0.4227  0.1408
  653MOL0     H86187  10.452   5.858   0.279 -0.8325  1.1307  2.5468
  653MOL0     H86188  10.656   5.878   0.114 -0.1615 -0.1029  1.3384
  653MOL0     H86189  10.660   5.712   0.100  0.3118  0.8524 -3.8719
  653MOL0     H86190  10.417   5.894   0.000  0.9197  0.5442 -2.9910
  653MOL0     H86191  10.406   5.727   0.029 -1.1280  0.0143 -0.8521
  653MOL0     H86192  10.572   5.889  -0.179  1.2814 -1.5335 -2.0560
  653MOL0     H86193  10.644   5.731  -0.129  0.4086 -0.0112  0.1411
  653MOL0     H86194  10.296   5.632  -0.349 -1.1639 -2.0891  2.9492
  653MOL0     H86195  10.377   5.845   0.472  2.0207 -0.2402  2.2132
  653MOL0     H86196  10.238   5.794   0.676  3.6355  0.4192  0.8244
  654MOL0     O86197   3.248   3.913   6.300 -0.0659  0.5933 -0.2962
  654MOL0     C86198   3.363   3.929   6.348  0.6924 -0.1916 -0.5585
  654MOL0     O86199   3.388   3.963   6.479 -0.0632  0.2584 -0.1066
  654MOL0     C86200   3.281   3.981   6.568 -0.6117 -0.7217  0.1582
  654MOL0     C86201   3.189   3.887   6.597  0.0680 -0.0666  0.3682
  654MOL0     C86202   3.086   3.913   6.689 -0.8706  0.7614  0.6488
  654MOL0     C86203   3.080   4.042   6.744 -0.0269 -0.3093 -0.0275
  654MOL0     O86204   2.980   4.097   6.819  0.8264  0.3751 -0.2618
  654MOL0     C86205   2.874   4.014   6.855 -0.0314 -0.2949 -0.6001
  654MOL0     C86206   2.779   4.115   6.932  0.1085 -0.0769  0.0382
  654MOL0     C86207   2.632   4.062   6.941 -0.1497  0.7678  0.6069
  654MOL0     C86208   2.541   4.163   7.007 -0.2242  0.2933  0.9480
  654MOL0     C86209   2.394   4.163   6.959  0.3343  0.8144 -0.6310
  654MOL0     C86210   2.314   4.031   6.974 -0.4275  0.5160  0.4969
  654MOL0     C86211   2.160   4.036   6.959  0.4039 -0.8288  0.7261
  654MOL0     C86212   2.102   4.103   7.083  0.4658  1.1704  0.2295
  654MOL0     N86213   1.962   4.105   7.091 -0.2512  0.7592 -0.3378
  654MOL0     C86214   1.886   3.992   7.082 -0.5285  0.2596  0.8124
  654MOL0     C86215   1.762   4.028   7.102  0.4430 -0.0118 -1.0541
  654MOL0     C86216   1.644   3.932   7.107  0.0877  0.7524  0.6860
  654MOL0     C86217   1.533   4.010   7.169  0.3259  0.0923 -0.3752
  654MOL0     C86218   1.403   3.938   7.187  0.0090 -0.1078  0.4435
  654MOL0     C86219   1.408   3.817   7.280 -0.1231  0.4381  0.1474
  654MOL0     O86220   1.275   3.758   7.281 -0.2839 -0.0850 -0.1971
  654MOL0     C86221   1.157   3.821   7.322 -0.0379  0.0827 -0.6129
  654MOL0     C86222   1.160   3.912   7.420  0.2825 -0.4286 -0.4387
  654MOL0     C86223   1.034   3.967   7.459 -0.8124 -0.5847  1.1092
  654MOL0     C86224   0.913   3.934   7.388  1.0084  0.4742  0.1781
  654MOL0     C86225   0.795   4.009   7.411 -0.3249  0.5491 -0.5317
  654MOL0     O86226   0.774   4.065   7.525  0.3528  0.3473 -0.6747
  654MOL0     C86227   0.654   4.135   7.543  0.3701 -0.2235  0.9887
  654MOL0     C86228   0.633   4.252   7.467  0.1931  0.3175 -0.4275
  654MOL0     C86229   0.522   4.336   7.501  0.0862  0.7517  0.6410
  654MOL0     C86230   0.438   4.311   7.610  0.1194 -0.8656 -0.0367
  654MOL0     O86231   0.345   4.407   7.635  0.3843  0.6014 -0.4553
  654MOL0     C86232   0.264   4.396   7.751  0.4406  0.2132  0.2119
  654MOL0     C86233   0.126   4.327   7.729  0.7396 -0.8671 -0.9721
  654MOL0     C86234   0.028   4.410   7.656 -0.5970 -0.3077  0.7746
  654MOL0     C86235  -0.116   4.367   7.656  0.1972 -0.6389  0.1547
  654MOL0     C86236  -0.205   4.459   7.570 -0.0200  0.2190 -0.0132
  654MOL0     C86237  -0.346   4.412   7.573  0.3065 -0.7204 -0.0388
  654MOL0     C86238  -0.432   4.537   7.606  1.3137  0.1334  1.2325
  654MOL0     C86239  -0.585   4.511   7.583  0.0660  0.1007  0.7516
  654MOL0    Cl86240  -0.654   4.394   7.697  0.5770 -0.0815  0.0224
  654MOL0     C86241   0.465   4.196   7.682 -0.4884  0.5737  0.5424
  654MOL0     C86242   0.572   4.114   7.653 -0.2057 -0.5322  0.4034
  654MOL0     O86243   0.724   4.025   7.309 -0.3546  0.1966  0.3615
  654MOL0     C86244   0.922   3.835   7.288 -0.0999 -0.2152 -0.0688
  654MOL0     C86245   1.043   3.782   7.255  0.3145  1.2886 -0.6228
  654MOL0     N86246   1.759   4.169   7.110  0.1741  0.0627  0.0528
  654MOL0     N86247   1.881   4.205   7.118 -0.4788 -0.0156 -0.0576
  654MOL0     C86248   3.179   4.135   6.724  0.1558 -0.2608  0.6871
  654MOL0     C86249   3.284   4.106   6.637 -0.1560  0.8083 -0.9033
  654MOL0     C86250   3.483   3.926   6.261 -0.4751 -0.2954 -0.1696
  654MOL0     C86251   3.603   3.884   6.319 -0.5413 -0.1136 -0.8077
  654MOL0     C86252   3.712   3.858   6.237 -0.0719 -0.4844 -0.5042
  654MOL0     C86253   3.703   3.897   6.106 -0.4884  0.6588 -0.1322
  654MOL0     O86254   3.814   3.872   6.033  0.2716  0.5279 -0.0221
  654MOL0     C86255   3.832   3.744   5.977 -0.2572 -0.3208  0.6301
  654MOL0     C86256   3.976   3.738   5.921 -0.0688 -0.7282  0.1464
  654MOL0     C86257   3.994   3.844   5.808 -0.6320  0.1862  0.6208
  654MOL0     C86258   3.899   3.821   5.686  0.1187 -0.0621 -0.1610
  654MOL0     C86259   3.880   3.683   5.654 -0.0373  0.4501  0.2987
  654MOL0     C86260   3.851   3.570   5.638 -0.2504 -0.1276  0.4128
  654MOL0     C86261   3.585   3.932   6.040 -0.7692  0.3603  0.9450
  654MOL0     C86262   3.473   3.948   6.122  0.7123 -0.4121 -0.3781
  654MOL0     H86263   3.194   3.791   6.546 -1.3149 -0.1027  0.2835
  654MOL0     H86264   3.000   3.847   6.697 -0.5054  0.0896 -0.7359
  654MOL0     H86265   2.891   3.929   6.921  1.7298 -0.1427 -0.8165
  654MOL0     H86266   2.822   3.973   6.769  2.2618 -3.1104 -0.7756
  654MOL0     H86267   2.770   4.202   6.866  2.2092 -1.2116 -1.8678
  654MOL0     H86268   2.823   4.137   7.030 -0.4066  0.8341  0.0766
  654MOL0     H86269   2.625   3.961   6.983 -0.5978  0.4813 -0.1345
  654MOL0     H86270   2.597   4.048   6.839  2.9500 -3.4453 -0.1549
  654MOL0     H86271   2.555   4.155   7.116  3.7988  2.9478  0.8600
  654MOL0     H86272   2.578   4.265   6.989  2.8313 -0.4934  2.1084
  654MOL0     H86273   2.387   4.197   6.855  2.5296 -1.1809 -1.5289
  654MOL0     H86274   2.346   4.243   7.017  1.9420  1.6234 -0.3453
  654MOL0     H86275   2.335   3.990   7.073  2.1429  0.8925  0.1797
  654MOL0     H86276   2.348   3.960   6.897 -0.7309  0.2406  0.6149
  654MOL0     H86277   2.132   4.086   6.865 -1.2455 -0.9744  1.1204
  654MOL0     H86278   2.125   3.933   6.948  1.1715 -1.0538  0.3085
  654MOL0     H86279   2.132   4.208   7.080 -2.2065  2.0143 -0.4155
  654MOL0     H86280   2.144   4.056   7.172  0.0850 -2.3300 -1.2794
  654MOL0     H86281   1.921   3.892   7.058  1.2964  0.3287  2.8753
  654MOL0     H86282   1.669   3.849   7.173 -1.1442  0.6862  1.0813
  654MOL0     H86283   1.620   3.881   7.013 -0.0006 -0.4504  1.3527
  654MOL0     H86284   1.495   4.093   7.108 -1.7897 -1.8551 -1.8811
  654MOL0     H86285   1.576   4.038   7.265  0.9734 -1.2973 -0.2442
  654MOL0     H86286   1.311   3.996   7.202 -1.5585 -2.1218 -0.8739
  654MOL0     H86287   1.368   3.900   7.091 -3.4154  1.5512  0.8603
  654MOL0     H86288   1.437   3.827   7.384  1.1424 -1.0656 -0.0106
  654MOL0     H86289   1.487   3.750   7.245  0.6649  1.7369 -0.6341
  654MOL0     H86290   1.254   3.953   7.457 -0.7999 -0.2090  2.3265
  654MOL0     H86291   1.033   4.040   7.538 -2.0508  1.2118 -0.4762
  654MOL0     H86292   0.691   4.282   7.380 -1.9449 -0.5869 -2.2587
  654MOL0     H86293   0.502   4.421   7.438 -2.2930 -0.3576 -0.2002
  654MOL0     H86294   0.243   4.500   7.777 -2.7088  0.6372 -3.2350
  654MOL0     H86295   0.316   4.346   7.834  0.3319 -2.8673 -1.4130
  654MOL0     H86296   0.093   4.314   7.833  2.6223 -2.0053 -0.4629
  654MOL0     H86297   0.134   4.226   7.688 -0.3342 -1.2445 -0.2848
  654MOL0     H86298   0.063   4.438   7.556  0.4681  0.6522  1.3869
  654MOL0     H86299   0.033   4.498   7.722  2.7578 -2.4934  3.7891
  654MOL0     H86300  -0.106   4.275   7.598 -2.9202 -0.2268 -1.2715
  654MOL0     H86301  -0.163   4.352   7.754  0.6588  0.0924  0.4982
  654MOL0     H86302  -0.171   4.468   7.467 -0.4295  2.0293 -0.0348
  654MOL0     H86303  -0.194   4.559   7.613  0.7680  0.4583 -0.7445
  654MOL0     H86304  -0.379   4.343   7.651 -4.4511  1.3955  0.1610
  654MOL0     H86305  -0.376   4.362   7.481 -5.0344 -1.1436  1.5822
  654MOL0     H86306  -0.411   4.564   7.709  3.0088 -0.2595  1.0188
  654MOL0     H86307  -0.405   4.618   7.538 -0.7941  0.4192  0.6526
  654MOL0     H86308  -0.602   4.476   7.481 -2.1938 -2.0578  1.7809
  654MOL0     H86309  -0.632   4.610   7.586  0.6505  0.4238 -0.2590
  654MOL0     H86310   0.400   4.157   7.760  0.6638 -3.7785 -0.3830
  654MOL0     H86311   0.579   4.028   7.719 -1.2356 -1.7181 -0.9771
  654MOL0     H86312   0.846   3.812   7.214 -2.2957  1.4477  1.5454
  654MOL0     H86313   1.056   3.722   7.166 -0.0893  0.3891 -0.0815
  654MOL0     H86314   3.168   4.220   6.791 -3.2887 -1.5011  1.8832
  654MOL0     H86315   3.376   4.162   6.626 -0.2718  0.8421 -1.7124
  654MOL0     H86316   3.602   3.859   6.425  0.3228  1.4193 -0.4083
  654MOL0     H86317   3.806   3.812   6.264 -0.0184 -0.6419 -0.9500
  654MOL0     H86318   3.766   3.734   5.890  2.4652 -1.4448 -1.4458
  654MOL0     H86319   3.822   3.664   6.051 -2.2441  0.0816  0.8651
  654MOL0     H86320   4.042   3.767   6.003 -1.3880 -0.6240  1.2176
  654MOL0     H86321   4.017   3.641   5.895  2.0257 -0.3785  1.9171
  654MOL0     H86322   4.097   3.831   5.774 -0.4785  2.4146  0.0755
  654MOL0     H86323   3.984   3.952   5.827  0.9697  0.5891 -0.6159
  654MOL0     H86324   3.797   3.858   5.702  0.6864  0.8756  1.6613
  654MOL0     H86325   3.942   3.883   5.607  1.6927  0.8168  1.2846
  654MOL0     H86326   3.818   3.469   5.625  1.1844 -0.6232  0.4639
  654MOL0     H86327   3.583   3.952   5.933  0.6226  1.3229  1.0721
  654MOL0     H86328   3.388   3.988   6.069  2.0733  0.1674 -2.2487
  655MOL0     O86329   7.279   6.787   2.362  0.4950  0.2239  0.4319
  655MOL0     C86330   7.226   6.681   2.334  0.3164 -0.5899 -0.1394
  655MOL0     O86331   7.094   6.654   2.338  0.5348  0.0595 -0.0822
  655MOL0     C86332   6.999   6.747   2.379 -0.1955  1.3710 -0.8528
  655MOL0     C86333   6.988   6.880   2.346  0.2000  0.6221  0.1321
  655MOL0     C86334   6.879   6.956   2.389  0.6484 -0.4762 -0.4752
  655MOL0     C86335   6.784   6.905   2.476  0.7050 -0.5016 -0.4427
  655MOL0     O86336   6.674   6.973   2.525  0.0316 -0.0151  0.2128
  655MOL0     C86337   6.654   7.102   2.468 -0.1133  0.6168 -0.1501
  655MOL0     C86338   6.529   7.170   2.536  0.2854  0.4259  0.1921
  655MOL0     C86339   6.389   7.109   2.506 -0.2596 -0.4049  0.1837
  655MOL0     C86340   6.270   7.197   2.552  0.1136 -0.5283  1.3888
  655MOL0     C86341   6.127   7.129   2.523  0.7051  0.5826 -0.0708
  655MOL0     C86342   6.113   7.107   2.370  0.3151  0.1514 -0.6008
  655MOL0     C86343   5.962   7.089   2.342 -0.4121 -0.2890 -0.4736
  655MOL0     C86344   5.941   7.047   2.197 -0.8615 -0.1126  0.4306
  655MOL0     N86345   5.815   7.089   2.153  0.3316  0.5651 -0.6959
  655MOL0     C86346   5.695   7.025   2.181 -0.8657 -0.3876 -0.4137
  655MOL0     C86347   5.620   7.055   2.081  0.0788  0.2868 -0.6760
  655MOL0     C86348   5.484   6.990   2.050  0.5635 -0.1435 -0.9868
  655MOL0     C86349   5.374   7.088   2.110 -0.3088  0.3826  0.3031
  655MOL0     C86350   5.230   7.031   2.112 -0.9213  0.2510  0.2603
  655MOL0     C86351   5.199   6.911   2.019  0.3547 -0.6916  0.0507
  655MOL0     O86352   5.074   6.849   2.073 -0.1675  0.1217  0.1563
  655MOL0     C86353   4.959   6.902   2.033  0.1128 -0.5215 -0.0731
  655MOL0     C86354   4.855   6.812   2.063  0.3596  0.0695 -0.0786
  655MOL0     C86355   4.728   6.819   2.013  0.2354 -0.7907  0.3606
  655MOL0     C86356   4.692   6.927   1.931 -0.4704 -1.0046  0.0242
  655MOL0     C86357   4.547   6.938   1.898 -0.3046  0.6332  0.6119
  655MOL0     O86358   4.466   6.852   1.956  0.5015 -0.7885 -0.0410
  655MOL0     C86359   4.327   6.862   1.947  0.2936  0.3813 -0.0743
  655MOL0     C86360   4.254   6.746   1.969  0.3590  0.0398 -0.3858
  655MOL0     C86361   4.113   6.738   1.979 -0.4226  0.2233 -0.4030
  655MOL0     C86362   4.041   6.858   1.956 -0.4964  0.2758 -0.0646
  655MOL0     O86363   3.905   6.867   1.957  0.2456 -0.6409  0.1362
  655MOL0     C86364   3.830   6.745   1.962 -0.6872 -0.1968 -0.2441
  655MOL0     C86365   3.686   6.772   1.963 -0.0807 -0.2405  1.1019
  655MOL0     C86366   3.648   6.817   1.823  0.1065  0.2302 -0.4079
  655MOL0     C86367   3.504   6.770   1.797 -0.6685 -0.4878 -0.3399
  655MOL0     C86368   3.437   6.881   1.721  0.2717 -0.3918  0.1014
  655MOL0     C86369   3.297   6.835   1.672  0.0324  0.9385  0.9524
  655MOL0     C86370   3.240   6.949   1.585 -0.1442 -0.8224  0.0997
  655MOL0     C86371   3.099   6.918   1.523  0.2541 -1.0233  0.5068
  655MOL0    Cl86372   3.072   7.013   1.369  0.1955  0.4682  0.5225
  655MOL0     C86373   4.113   6.980   1.945  0.0507  0.1483  1.2561
  655MOL0     C86374   4.250   6.981   1.947 -0.4651 -0.2037 -0.5387
  655MOL0     O86375   4.513   7.037   1.840  0.3641 -0.2358 -0.2835
  655MOL0     C86376   4.798   7.012   1.896 -0.0487  0.0327  0.6222
  655MOL0     C86377   4.931   7.004   1.943 -0.0146 -0.5579 -0.0059
  655MOL0     N86378   5.681   7.154   1.998  0.3875 -0.0006 -1.0034
  655MOL0     N86379   5.793   7.174   2.047 -0.8844  0.2320 -1.8970
  655MOL0     C86380   6.790   6.768   2.508 -0.2548 -0.0301 -0.8116
  655MOL0     C86381   6.896   6.697   2.456  1.1734  0.4728  0.1688
  655MOL0     C86382   7.315   6.554   2.314 -0.1115  0.4063 -0.1079
  655MOL0     C86383   7.256   6.432   2.282  0.1670 -0.6200  0.4532
  655MOL0     C86384   7.331   6.317   2.286  0.0038 -1.0701  0.2056
  655MOL0     C86385   7.466   6.308   2.316 -0.3380  0.2662  0.2905
  655MOL0     O86386   7.550   6.193   2.322 -0.4499  0.2525 -0.3895
  655MOL0     C86387   7.496   6.063   2.325 -0.3265  1.0127  0.2595
  655MOL0     C86388   7.475   6.014   2.179  0.3395 -0.0167  0.7322
  655MOL0     C86389   7.482   5.859   2.170  0.3181  0.3290  0.4461
  655MOL0     C86390   7.466   5.812   2.024 -0.0783 -0.0400 -0.2037
  655MOL0     C86391   7.329   5.847   1.972  1.0703 -0.3221  0.3336
  655MOL0     C86392   7.213   5.861   1.930 -0.6488 -0.2417  0.6485
  655MOL0     C86393   7.529   6.428   2.357  0.2897 -0.0568 -0.8031
  655MOL0     C86394   7.450   6.551   2.356  0.2096 -1.0160  0.9500
  655MOL0     H86395   7.051   6.928   2.271 -2.2099  1.1612 -1.6723
  655MOL0     H86396   6.878   7.055   2.347  3.1217 -0.1192  0.1270
  655MOL0     H86397   6.643   7.088   2.360 -1.6273  3.3232 -0.4230
  655MOL0     H86398   6.737   7.162   2.506  2.7649 -4.1287  2.0095
  655MOL0     H86399   6.533   7.274   2.502  1.6178 -0.1298 -1.5336
  655MOL0     H86400   6.557   7.166   2.641  3.8262 -4.8184 -0.5588
  655MOL0     H86401   6.381   7.018   2.566 -1.1644 -0.1500  0.4567
  655MOL0     H86402   6.378   7.092   2.399  2.2145 -1.0697 -0.0246
  655MOL0     H86403   6.277   7.213   2.660  3.0621 -0.6979  1.3092
  655MOL0     H86404   6.275   7.293   2.501  0.1022 -2.5694 -2.8580
  655MOL0     H86405   6.050   7.194   2.565 -0.1755 -0.5613  0.1311
  655MOL0     H86406   6.117   7.037   2.581  0.4279  0.9857  0.5244
  655MOL0     H86407   6.174   7.023   2.334 -0.4449 -0.1912 -1.1005
  655MOL0     H86408   6.141   7.198   2.317  2.3688 -1.3294 -2.2409
  655MOL0     H86409   5.910   7.021   2.409 -2.2658  0.4318 -1.1115
  655MOL0     H86410   5.924   7.189   2.365  2.7990  1.2868 -1.4248
  655MOL0     H86411   5.948   6.938   2.188 -1.7005 -0.1515  0.1395
  655MOL0     H86412   6.017   7.095   2.135 -0.8964  1.6094  1.6607
  655MOL0     H86413   5.672   6.965   2.269 -1.2887  2.5678  1.6215
  655MOL0     H86414   5.473   6.896   2.106  1.4680  0.5333  0.3865
  655MOL0     H86415   5.467   6.967   1.944  0.6102  0.7080 -1.1832
  655MOL0     H86416   5.376   7.171   2.038  1.2085 -0.6308 -0.8719
  655MOL0     H86417   5.409   7.113   2.210  1.7227 -1.9796  0.2620
  655MOL0     H86418   5.213   6.995   2.214  0.5630  0.6096  0.6561
  655MOL0     H86419   5.158   7.109   2.086 -1.7563 -1.2183 -2.2327
  655MOL0     H86420   5.275   6.837   2.046 -0.3846 -1.3342  0.3938
  655MOL0     H86421   5.211   6.940   1.914  2.8652  0.2634  0.5149
  655MOL0     H86422   4.878   6.730   2.131 -1.9627 -1.1999 -0.6973
  655MOL0     H86423   4.665   6.735   2.041 -0.0580 -0.2881  1.2340
  655MOL0     H86424   4.312   6.654   1.979  1.0306  0.5966  1.1371
  655MOL0     H86425   4.071   6.639   1.993  2.2523 -1.0756 -0.9692
  655MOL0     H86426   3.871   6.687   2.045  1.4878  2.5289  0.7807
  655MOL0     H86427   3.851   6.691   1.869 -2.9379  2.6379 -2.6056
  655MOL0     H86428   3.651   6.839   2.041  1.0932  0.4345  1.0815
  655MOL0     H86429   3.641   6.675   1.986  1.1909 -1.0268  0.4497
  655MOL0     H86430   3.722   6.774   1.754 -0.0271 -1.7426  0.5941
  655MOL0     H86431   3.656   6.926   1.821 -2.7657  0.6469  2.9023
  655MOL0     H86432   3.494   6.676   1.742 -1.7724 -0.8204  0.4002
  655MOL0     H86433   3.458   6.773   1.896  1.6785  2.9813  0.8118
  655MOL0     H86434   3.495   6.904   1.631  2.8126 -0.0664  1.7155
  655MOL0     H86435   3.429   6.967   1.788  1.0804  0.1944 -0.5247
  655MOL0     H86436   3.232   6.835   1.760  1.6039  0.1212  2.1719
  655MOL0     H86437   3.286   6.747   1.608  0.5265  0.3620  1.6446
  655MOL0     H86438   3.242   7.048   1.633  2.3066 -0.1792 -1.1864
  655MOL0     H86439   3.315   6.968   1.507 -1.5586  1.0487 -0.9018
  655MOL0     H86440   3.021   6.950   1.592  0.1062  3.2795 -1.3152
  655MOL0     H86441   3.106   6.810   1.509 -0.0543 -0.8839 -0.9121
  655MOL0     H86442   4.043   7.062   1.955 -0.9536 -0.6079  0.6607
  655MOL0     H86443   4.307   7.074   1.943  1.8717 -1.4571  1.1727
  655MOL0     H86444   4.775   7.100   1.836  1.8823  0.7864  0.9034
  655MOL0     H86445   5.005   7.069   1.898 -1.3158 -2.5062 -5.9045
  655MOL0     H86446   6.723   6.728   2.584 -0.0870  1.9789  0.4702
  655MOL0     H86447   6.915   6.591   2.473  1.0133  0.4196  0.0168
  655MOL0     H86448   7.154   6.423   2.246  0.8755 -1.4609 -1.5013
  655MOL0     H86449   7.281   6.227   2.253 -0.3896 -1.0233  0.6657
  655MOL0     H86450   7.403   6.063   2.383 -0.6394 -1.8777 -0.1072
  655MOL0     H86451   7.570   5.993   2.366  0.3704  1.2692 -0.5466
  655MOL0     H86452   7.387   6.064   2.138  3.1686  1.4313 -4.4462
  655MOL0     H86453   7.561   6.046   2.119  0.1535 -2.5447 -1.0537
  655MOL0     H86454   7.408   5.812   2.236  0.9795  1.3312  1.9566
  655MOL0     H86455   7.588   5.843   2.191  1.2183  2.0323 -2.2215
  655MOL0     H86456   7.545   5.853   1.960  2.2184 -2.7699  0.6608
  655MOL0     H86457   7.492   5.706   2.026  2.2418  0.4551  2.6804
  655MOL0     H86458   7.122   5.909   1.901 -0.4788 -0.9712 -1.1822
  655MOL0     H86459   7.632   6.425   2.391  0.5721  2.0120 -1.3358
  655MOL0     H86460   7.475   6.650   2.393 -3.0274 -0.9788  3.6275
  656MOL0     O86461   2.239   1.014   7.380 -0.9726 -0.8122 -0.1498
  656MOL0     C86462   2.194   1.047   7.491 -0.4487 -0.5549  1.5345
  656MOL0     O86463   2.254   1.137   7.576  0.3344  0.0864  0.6971
  656MOL0     C86464   2.376   1.176   7.532  0.0386 -0.5142 -0.6683
  656MOL0     C86465   2.488   1.111   7.567  0.1964  0.5683  0.4732
  656MOL0     C86466   2.617   1.143   7.527 -1.3251 -0.5563  0.1476
  656MOL0     C86467   2.633   1.253   7.441 -1.0650  0.2759 -0.5794
  656MOL0     O86468   2.751   1.302   7.398  0.0206 -0.4619 -0.7238
  656MOL0     C86469   2.873   1.233   7.427 -0.9234  0.7530 -0.4102
  656MOL0     C86470   2.984   1.288   7.338  0.4891 -0.5880  0.3280
  656MOL0     C86471   3.124   1.254   7.396  1.3500 -0.0628  0.0409
  656MOL0     C86472   3.234   1.340   7.327 -0.3276  0.2240 -0.2682
  656MOL0     C86473   3.373   1.285   7.359  0.2355 -0.1701 -0.6070
  656MOL0     C86474   3.478   1.385   7.342 -0.0251 -1.4099  0.0190
  656MOL0     C86475   3.614   1.363   7.412 -0.0895  0.5686  0.4479
  656MOL0     C86476   3.671   1.235   7.350  0.4011 -0.0395  0.4932
  656MOL0     N86477   3.806   1.196   7.404 -0.2807  0.3329  0.0100
  656MOL0     C86478   3.920   1.282   7.433 -0.9046  0.0778  0.2767
  656MOL0     C86479   4.013   1.206   7.492  0.1713  0.5417  0.3663
  656MOL0     C86480   4.163   1.258   7.524  0.5292 -0.0242 -0.9520
  656MOL0     C86481   4.156   1.380   7.623  0.2274 -0.5407 -0.2980
  656MOL0     C86482   4.290   1.449   7.635  1.2401  0.3557 -1.0760
  656MOL0     C86483   4.276   1.575   7.702  0.4056 -0.3026  0.9509
  656MOL0     O86484   4.197   1.667   7.624  0.1262  0.3052 -0.1440
  656MOL0     C86485   4.207   1.796   7.673 -0.1966 -0.0889  0.4032
  656MOL0     C86486   4.307   1.883   7.635 -0.8074  0.0370  0.2441
  656MOL0     C86487   4.320   2.004   7.700  0.9421  0.0730  0.4452
  656MOL0     C86488   4.233   2.042   7.806  0.2456 -0.0927  0.0834
  656MOL0     C86489   4.257   2.163   7.882  0.8241  0.7099 -0.1298
  656MOL0     O86490   4.356   2.244   7.846 -0.2823  0.3450 -0.2476
  656MOL0     C86491   4.388   2.338   7.944  0.0302 -0.2801 -0.6149
  656MOL0     C86492   4.369   2.470   7.925  0.1837  0.3203  0.1278
  656MOL0     C86493   4.412   2.572   8.010  0.0680  1.6369  0.4473
  656MOL0     C86494   4.481   2.535   8.120  0.5691  0.0777 -0.5014
  656MOL0     O86495   4.537   2.618   8.213 -0.9664  0.1372  0.7271
  656MOL0     C86496   4.598   2.740   8.166 -0.7919  0.7517  0.9896
  656MOL0     C86497   4.742   2.749   8.208 -0.2426  0.8365 -0.2751
  656MOL0     C86498   4.740   2.773   8.365  0.2982 -0.4601  0.1208
  656MOL0     C86499   4.848   2.705   8.440 -0.1995 -0.4085 -0.1294
  656MOL0     C86500   4.855   2.549   8.426  0.2497 -0.8439 -0.8859
  656MOL0     C86501   4.952   2.489   8.522 -0.3249 -0.1049 -0.7294
  656MOL0     C86502   4.971   2.346   8.477  0.0452  0.7968  0.4407
  656MOL0     C86503   5.049   2.268   8.580 -0.8582  0.3249 -0.1297
  656MOL0    Cl86504   5.033   2.102   8.535 -0.0487  0.6564  0.1098
  656MOL0     C86505   4.516   2.400   8.147 -0.1680 -0.4657 -0.1270
  656MOL0     C86506   4.470   2.303   8.051  0.9232 -0.6815  0.6614
  656MOL0     O86507   4.208   2.163   7.996 -0.0417  0.5528  0.3459
  656MOL0     C86508   4.125   1.958   7.831 -0.1859  1.5550 -0.8511
  656MOL0     C86509   4.110   1.832   7.773  0.4147 -0.6952  0.5702
  656MOL0     N86510   3.967   1.071   7.492 -0.0080 -0.0517 -0.4170
  656MOL0     N86511   3.853   1.070   7.434 -0.5347  0.1720 -0.1290
  656MOL0     C86512   2.517   1.326   7.399 -0.2613 -0.2489 -1.7802
  656MOL0     C86513   2.387   1.280   7.441 -0.6652 -0.9047  0.1580
  656MOL0     C86514   2.068   1.000   7.544 -0.5666 -0.7958 -0.6440
  656MOL0     C86515   2.002   1.076   7.645  0.5075  0.4450 -0.1268
  656MOL0     C86516   1.880   1.028   7.704 -1.1050  0.2024  0.3422
  656MOL0     C86517   1.821   0.910   7.648 -0.9614  0.3492 -0.3944
  656MOL0     O86518   1.696   0.871   7.682  0.7450  0.6938  0.1794
  656MOL0     C86519   1.636   0.960   7.782 -0.9006  0.3889  0.7136
  656MOL0     C86520   1.487   0.911   7.800 -1.0785  0.3567  0.7808
  656MOL0     C86521   1.432   1.014   7.893  0.8273  0.6241 -0.9043
  656MOL0     C86522   1.307   0.957   7.970  0.1128  0.1600  0.2542
  656MOL0     C86523   1.199   0.940   7.876  0.9902  0.7877 -0.6422
  656MOL0     C86524   1.092   0.928   7.818 -0.0799 -0.0063  0.1177
  656MOL0     C86525   1.893   0.835   7.540  0.1495 -0.1263 -0.5508
  656MOL0     C86526   2.004   0.893   7.480  0.0399 -0.7048 -0.0085
  656MOL0     H86527   2.486   1.029   7.638  0.0518  0.1143 -0.0545
  656MOL0     H86528   2.708   1.099   7.568 -1.4601 -1.5351 -0.5680
  656MOL0     H86529   2.872   1.124   7.414  2.3535  0.0431  3.2738
  656MOL0     H86530   2.904   1.246   7.531  2.2021  0.2039 -1.1782
  656MOL0     H86531   2.972   1.396   7.333  3.7657 -0.0942  0.9168
  656MOL0     H86532   2.974   1.247   7.237  1.2944 -2.6609  1.0268
  656MOL0     H86533   3.146   1.150   7.372 -0.2043 -0.2076 -0.8404
  656MOL0     H86534   3.132   1.258   7.505 -0.5457 -0.3414  0.2081
  656MOL0     H86535   3.231   1.347   7.218 -0.4739  1.2330 -0.2150
  656MOL0     H86536   3.233   1.444   7.363  2.5339  0.0026  0.7609
  656MOL0     H86537   3.399   1.203   7.292 -2.0532 -0.2874 -1.4183
  656MOL0     H86538   3.375   1.240   7.459  2.8900 -0.6883 -0.8161
  656MOL0     H86539   3.443   1.478   7.386  2.6432  0.8709 -2.2722
  656MOL0     H86540   3.490   1.420   7.239  1.8136 -1.9218  0.0209
  656MOL0     H86541   3.694   1.430   7.381  1.9383 -2.7872 -2.2429
  656MOL0     H86542   3.607   1.363   7.521  0.2247 -1.9674  0.5309
  656MOL0     H86543   3.691   1.257   7.245  0.8811  0.1934  0.6294
  656MOL0     H86544   3.598   1.154   7.353  1.7519 -1.3757  4.7487
  656MOL0     H86545   3.928   1.390   7.423  1.8671 -0.0670  0.1715
  656MOL0     H86546   4.215   1.266   7.428 -0.4195  0.4686 -1.4335
  656MOL0     H86547   4.219   1.180   7.576 -0.0158  0.6610  0.7137
  656MOL0     H86548   4.131   1.339   7.722  0.9166  3.5039  1.7456
  656MOL0     H86549   4.081   1.450   7.585  1.6029  0.4821 -1.2159
  656MOL0     H86550   4.359   1.389   7.696  0.2303 -0.7149 -0.9565
  656MOL0     H86551   4.316   1.453   7.529 -0.6680 -0.5563 -1.6214
  656MOL0     H86552   4.374   1.621   7.716  0.2270  1.2236 -1.9951
  656MOL0     H86553   4.230   1.557   7.800 -2.4225  2.4393  0.2940
  656MOL0     H86554   4.374   1.859   7.554 -1.1821  0.4411 -0.1888
  656MOL0     H86555   4.403   2.072   7.683  1.0985  0.3127  1.9668
  656MOL0     H86556   4.307   2.496   7.840 -2.9468 -0.0639  2.1271
  656MOL0     H86557   4.402   2.676   7.984  2.1329  1.9158  0.5647
  656MOL0     H86558   4.542   2.831   8.190  2.2073  2.7654  0.8507
  656MOL0     H86559   4.605   2.740   8.057  1.3774  0.7928  1.0929
  656MOL0     H86560   4.801   2.828   8.161  2.8127  0.4658  2.5610
  656MOL0     H86561   4.785   2.655   8.172 -2.7543 -0.3932 -0.2183
  656MOL0     H86562   4.650   2.735   8.415  0.5376  0.5909  1.4239
  656MOL0     H86563   4.742   2.880   8.391 -1.2778 -0.3152 -0.2222
  656MOL0     H86564   4.945   2.753   8.422  1.5567 -3.8195 -0.6251
  656MOL0     H86565   4.821   2.729   8.543 -0.9665  1.4207 -0.7142
  656MOL0     H86566   4.904   2.532   8.330  0.4350 -1.9987 -0.6017
  656MOL0     H86567   4.755   2.510   8.450  0.0655  0.7885  1.2751
  656MOL0     H86568   4.926   2.502   8.627 -1.3207  1.3298 -1.1085
  656MOL0     H86569   5.052   2.532   8.520  0.0249 -0.7558  1.2002
  656MOL0     H86570   4.872   2.300   8.465 -0.1186  1.6988 -2.2375
  656MOL0     H86571   5.035   2.346   8.389 -0.9272  1.3587 -0.2842
  656MOL0     H86572   5.009   2.281   8.681 -0.6988 -1.2752  0.1645
  656MOL0     H86573   5.150   2.310   8.572 -1.9212  3.0113 -0.4941
  656MOL0     H86574   4.550   2.387   8.249 -4.1792  2.6406  1.8894
  656MOL0     H86575   4.503   2.200   8.059  0.9163 -1.1337 -3.2753
  656MOL0     H86576   4.070   1.979   7.922 -0.1488  0.5069 -0.5775
  656MOL0     H86577   4.028   1.764   7.791 -3.2299  2.6465 -1.7616
  656MOL0     H86578   2.531   1.410   7.332  0.7949  0.1078 -1.1327
  656MOL0     H86579   2.300   1.329   7.399 -0.2729 -1.1931 -1.0265
  656MOL0     H86580   2.057   1.160   7.685  2.4697  0.1679 -2.0473
  656MOL0     H86581   1.843   1.088   7.787  1.8962  1.4145  0.9614
  656MOL0     H86582   1.631   1.064   7.751  0.3805  0.5162  0.8699
  656MOL0     H86583   1.693   0.952   7.875  0.6352  1.2163 -0.1236
  656MOL0     H86584   1.438   0.888   7.705  0.2174 -3.0126  0.7965
  656MOL0     H86585   1.493   0.813   7.848  0.8335  0.3852  0.6596
  656MOL0     H86586   1.407   1.103   7.834 -0.2328 -0.4684 -2.1349
  656MOL0     H86587   1.501   1.057   7.968 -1.5562  4.3088 -0.5493
  656MOL0     H86588   1.325   0.860   8.018 -1.2436  0.5207  1.5941
  656MOL0     H86589   1.276   1.030   8.045  5.6826  3.2655  0.0643
  656MOL0     H86590   0.999   0.907   7.770  0.8195  0.4012 -1.8952
  656MOL0     H86591   1.845   0.747   7.500  0.0399 -0.6140  0.6240
  656MOL0     H86592   2.049   0.847   7.393  2.6695 -2.6466  2.1852
  657MOL0     O86593   5.395  10.125   3.005 -0.4779 -0.2212  0.3390
  657MOL0     C86594   5.372  10.010   3.050  0.4126  0.0963 -0.1278
  657MOL0     O86595   5.251   9.969   3.103  0.3083 -0.7835 -0.0738
  657MOL0     C86596   5.132  10.044   3.090  0.6587 -1.1007  0.1531
  657MOL0     C86597   5.014   9.965   3.052 -0.3861 -0.6831 -0.7556
  657MOL0     C86598   4.893  10.036   3.035 -0.0643  0.0337 -0.5919
  657MOL0     C86599   4.881  10.174   3.071  0.0293  0.8483  0.6012
  657MOL0     O86600   4.757  10.237   3.045  0.2386 -0.6266 -0.2665
  657MOL0     C86601   4.739  10.380   3.091 -1.1321  0.2538  0.4076
  657MOL0     C86602   4.595  10.417   3.056  0.4739  0.3695 -0.3267
  657MOL0     C86603   4.559  10.528   3.160  1.0085 -0.7499 -0.7741
  657MOL0     C86604   4.411  10.571   3.144 -0.0057 -0.7624 -0.3964
  657MOL0     C86605   4.306  10.473   3.191 -0.1230 -0.1233  0.2440
  657MOL0     C86606   4.172  10.541   3.221  0.6304  0.5915 -1.2346
  657MOL0     C86607   4.068  10.441   3.260  0.4346 -0.2237 -0.6169
  657MOL0     C86608   4.040  10.438   3.410 -0.4167 -1.1429 -0.3361
  657MOL0     N86609   3.952  10.544   3.464  0.2331  0.1375  0.1365
  657MOL0     C86610   3.944  10.671   3.421 -0.0268 -0.5870 -0.7678
  657MOL0     C86611   3.829  10.716   3.484  0.5073  0.4264  0.4816
  657MOL0     C86612   3.763  10.852   3.492  0.7787 -0.9628  0.0992
  657MOL0     C86613   3.662  10.871   3.373  0.5272 -0.4927 -0.0107
  657MOL0     C86614   3.563  10.980   3.379 -0.5702  0.7126  0.0208
  657MOL0     C86615   3.454  10.955   3.267  0.0466  0.2038 -0.3355
  657MOL0     O86616   3.368  11.068   3.272 -0.0968 -0.4760  0.2646
  657MOL0     C86617   3.254  11.067   3.192 -0.2025  0.7059 -0.1888
  657MOL0     C86618   3.165  11.173   3.216 -0.5719  0.3223 -0.9156
  657MOL0     C86619   3.047  11.182   3.147 -0.5075 -0.2862  1.1127
  657MOL0     C86620   3.002  11.072   3.078 -0.0401  0.2213 -0.7962
  657MOL0     C86621   2.857  11.069   3.044 -0.0058 -0.1296  0.4800
  657MOL0     O86622   2.782  11.176   3.055 -0.3061 -0.8913 -1.0471
  657MOL0     C86623   2.649  11.167   3.036 -0.2424 -0.1830 -0.3891
  657MOL0     C86624   2.604  11.204   2.914  0.8696  0.8042  0.7542
  657MOL0     C86625   2.465  11.206   2.897  0.0164  0.1271 -0.4473
  657MOL0     C86626   2.374  11.173   3.003 -0.1228  0.7581  1.0691
  657MOL0     O86627   2.238  11.171   2.980 -0.5084 -0.1462  0.3847
  657MOL0     C86628   2.152  11.205   3.093  0.5340 -0.3506  0.5068
  657MOL0     C86629   2.012  11.253   3.052  1.1060  0.4058 -0.2759
  657MOL0     C86630   1.923  11.266   3.179 -0.2618  0.3441 -0.5191
  657MOL0     C86631   1.779  11.301   3.141 -0.1261  0.1953 -1.3612
  657MOL0     C86632   1.707  11.373   3.257 -0.2718  0.5350  0.3065
  657MOL0     C86633   1.555  11.381   3.221  0.7294  0.3615 -0.5069
  657MOL0     C86634   1.461  11.437   3.332 -0.6497 -0.0610  0.7831
  657MOL0     C86635   1.317  11.432   3.268 -0.2436 -0.5042 -0.2076
  657MOL0    Cl86636   1.201  11.443   3.404 -0.3107  0.3298  0.1578
  657MOL0     C86637   2.431  11.121   3.120 -0.4763  0.8348  0.4196
  657MOL0     C86638   2.568  11.131   3.141  0.9663  0.2425  0.6463
  657MOL0     O86639   2.823  10.962   2.992  0.0392 -0.2365  0.1496
  657MOL0     C86640   3.089  10.962   3.047 -0.6101 -0.4844 -0.7781
  657MOL0     C86641   3.217  10.960   3.111 -0.5838  0.0653 -0.1729
  657MOL0     N86642   3.774  10.614   3.559 -0.2745  0.3562 -0.6839
  657MOL0     N86643   3.842  10.510   3.533  0.5763 -0.0065 -0.8411
  657MOL0     C86644   4.996  10.243   3.108 -0.3734 -0.2488 -0.0833
  657MOL0     C86645   5.123  10.187   3.113 -0.4342 -0.2736  0.6481
  657MOL0     C86646   5.494   9.930   3.079  0.0174 -0.0483  0.4859
  657MOL0     C86647   5.496   9.808   3.147 -0.1357 -0.5218  0.7602
  657MOL0     C86648   5.615   9.730   3.155  0.5680  0.9655 -0.3666
  657MOL0     C86649   5.736   9.786   3.111  0.0013  0.0153  0.0702
  657MOL0     O86650   5.857   9.715   3.115  1.1855  0.0031 -0.6608
  657MOL0     C86651   5.854   9.584   3.060  0.2229 -0.2988  0.3287
  657MOL0     C86652   5.989   9.526   2.994  0.4171  0.5138 -0.0210
  657MOL0     C86653   6.074   9.630   2.925 -0.1082 -0.3879  0.5261
  657MOL0     C86654   6.176   9.573   2.831  0.1524  0.0078 -0.4603
  657MOL0     C86655   6.242   9.685   2.761 -1.0002 -0.7180 -0.9123
  657MOL0     C86656   6.303   9.770   2.696  0.4228 -0.5431  0.5882
  657MOL0     C86657   5.746   9.913   3.055  0.0407 -0.4181  0.9664
  657MOL0     C86658   5.618   9.982   3.042 -1.3985 -0.0069 -0.4488
  657MOL0     H86659   5.019   9.857   3.040 -1.1771 -0.8248  0.0702
  657MOL0     H86660   4.796   9.999   3.004 -1.1747  3.0125 -0.9810
  657MOL0     H86661   4.803  10.450   3.036 -0.3994  1.6360  2.8728
  657MOL0     H86662   4.768  10.390   3.196  2.3624 -0.1443 -0.3662
  657MOL0     H86663   4.535  10.328   3.075  1.1958 -0.5311 -2.0664
  657MOL0     H86664   4.573  10.448   2.954  0.9685 -1.2650 -0.9695
  657MOL0     H86665   4.619  10.620   3.156 -0.4569  0.3610  1.2836
  657MOL0     H86666   4.571  10.481   3.257 -3.2388 -0.1101  0.2755
  657MOL0     H86667   4.394  10.671   3.185  1.7875  0.2983 -2.0348
  657MOL0     H86668   4.391  10.591   3.038  2.1399  0.4034 -0.6390
  657MOL0     H86669   4.352  10.423   3.277  0.3905 -2.5462 -1.3272
  657MOL0     H86670   4.302  10.397   3.112  0.8336  1.7184 -1.6733
  657MOL0     H86671   4.136  10.579   3.125  0.8138 -1.0123 -1.9755
  657MOL0     H86672   4.187  10.622   3.293 -4.1468  0.6565 -0.0032
  657MOL0     H86673   3.978  10.468   3.204 -0.3310 -1.1608  0.1248
  657MOL0     H86674   4.085  10.341   3.218  1.6327  0.2772 -1.4010
  657MOL0     H86675   4.127  10.434   3.475 -0.6735 -1.4422 -0.0054
  657MOL0     H86676   3.997  10.339   3.432 -1.7007 -0.4274  0.4952
  657MOL0     H86677   4.019  10.726   3.366 -0.5362 -0.9292 -1.8436
  657MOL0     H86678   3.848  10.921   3.486 -0.4982  0.5667 -1.0908
  657MOL0     H86679   3.699  10.873   3.578 -0.1750 -0.7328 -0.6487
  657MOL0     H86680   3.616  10.775   3.350  2.6519 -1.6973  0.4537
  657MOL0     H86681   3.715  10.892   3.279 -1.4090  0.3941 -0.9591
  657MOL0     H86682   3.518  10.981   3.478 -1.4539  1.8395 -0.3751
  657MOL0     H86683   3.613  11.077   3.377 -1.2001  1.0910  1.5795
  657MOL0     H86684   3.401  10.866   3.302  0.5106  0.2189  0.4508
  657MOL0     H86685   3.500  10.940   3.169 -0.9540 -1.2552 -0.6043
  657MOL0     H86686   3.191  11.248   3.289  0.5131 -0.2650 -0.6712
  657MOL0     H86687   2.985  11.269   3.165  0.4332  1.1700 -1.9630
  657MOL0     H86688   2.668  11.223   2.829 -2.3108 -0.9494 -2.2467
  657MOL0     H86689   2.423  11.238   2.802 -0.8274 -2.6956 -1.1249
  657MOL0     H86690   2.211  11.272   3.157  0.5113 -2.6766  3.1587
  657MOL0     H86691   2.142  11.113   3.152  1.2068 -2.2454 -2.1427
  657MOL0     H86692   1.962  11.181   2.986  2.9915 -0.9207 -0.3064
  657MOL0     H86693   2.028  11.349   3.002  1.7846 -0.6280 -2.1313
  657MOL0     H86694   1.972  11.342   3.240 -0.8924  0.2996  0.0643
  657MOL0     H86695   1.933  11.174   3.236  1.0740  0.3359 -0.7410
  657MOL0     H86696   1.772  11.377   3.062  0.7759  1.9652  0.1750
  657MOL0     H86697   1.732  11.208   3.108 -0.1212 -0.0586 -0.6588
  657MOL0     H86698   1.747  11.474   3.270  2.8184 -0.7425  1.8435
  657MOL0     H86699   1.724  11.312   3.346  0.6443 -1.3379 -1.0574
  657MOL0     H86700   1.515  11.282   3.197  1.6137 -0.2710  0.4926
  657MOL0     H86701   1.546  11.451   3.138 -2.1077  2.1324  1.1368
  657MOL0     H86702   1.457  11.376   3.423  1.8219 -0.3499  0.7550
  657MOL0     H86703   1.496  11.540   3.328 -1.9708  0.3693 -1.7927
  657MOL0     H86704   1.303  11.349   3.198 -1.4611  0.9991 -1.8467
  657MOL0     H86705   1.314  11.524   3.209 -2.1053 -0.9948 -0.9437
  657MOL0     H86706   2.370  11.084   3.202  1.9549 -2.1293  1.0484
  657MOL0     H86707   2.610  11.117   3.240  0.5712  0.5089  0.8574
  657MOL0     H86708   3.053  10.867   3.009  2.2714 -1.8280 -0.4321
  657MOL0     H86709   3.272  10.866   3.112 -0.3597  0.1827  2.0575
  657MOL0     H86710   4.990  10.346   3.143 -0.2983 -0.2282 -0.1325
  657MOL0     H86711   5.215  10.240   3.132 -0.4040  0.8288 -2.2172
  657MOL0     H86712   5.404   9.761   3.179 -0.6158 -0.1408 -0.0283
  657MOL0     H86713   5.610   9.628   3.190 -1.5725  0.1678 -2.7255
  657MOL0     H86714   5.774   9.579   2.985  2.3810  1.0080 -2.2663
  657MOL0     H86715   5.819   9.522   3.143 -3.7007  2.0995  0.7031
  657MOL0     H86716   6.048   9.479   3.074 -1.8390  0.2713  1.6119
  657MOL0     H86717   5.959   9.449   2.922  0.2719  1.6661 -1.2325
  657MOL0     H86718   6.118   9.707   2.989  2.3840 -1.2196 -0.0757
  657MOL0     H86719   6.009   9.693   2.864  1.7739 -0.1970 -1.3966
  657MOL0     H86720   6.245   9.511   2.888 -0.7683 -1.2763 -0.7091
  657MOL0     H86721   6.130   9.508   2.757  1.2521 -0.2013 -0.9858
  657MOL0     H86722   6.364   9.832   2.633 -0.4394 -0.8349 -0.5694
  657MOL0     H86723   5.842   9.944   3.015  0.4024 -0.7348  1.5675
  657MOL0     H86724   5.623  10.080   2.994 -3.5758  1.8047  2.6798
  658MOL0     O86725   8.945   8.737   6.354  0.0915 -0.1983 -0.0326
  658MOL0     C86726   8.992   8.830   6.412 -0.2967  1.2263 -0.9236
  658MOL0     O86727   9.019   8.832   6.545 -0.5662 -0.5611 -0.3667
  658MOL0     C86728   9.001   8.720   6.631  0.5435 -0.2256  0.9494
  658MOL0     C86729   8.918   8.720   6.748  0.4481 -0.1843  0.5418
  658MOL0     C86730   8.935   8.624   6.842  0.4822 -0.2800 -0.9130
  658MOL0     C86731   9.014   8.516   6.815 -0.1148  1.0828  0.1547
  658MOL0     O86732   9.016   8.413   6.905  0.6356  0.6427  0.0775
  658MOL0     C86733   8.922   8.406   7.008 -0.3762  0.2017 -1.3769
  658MOL0     C86734   8.922   8.267   7.067 -0.0424  0.1443  0.4353
  658MOL0     C86735   9.053   8.237   7.153  0.4119 -0.3597  0.5951
  658MOL0     C86736   9.027   8.124   7.248  0.0406 -0.5078 -0.8111
  658MOL0     C86737   9.147   8.089   7.342  0.5077  0.2626 -0.2248
  658MOL0     C86738   9.132   7.947   7.397 -0.7517 -0.0374 -0.3750
  658MOL0     C86739   9.035   7.942   7.513 -0.1458  0.4264 -0.2503
  658MOL0     C86740   9.010   7.793   7.567 -0.0521  0.3603  0.2155
  658MOL0     N86741   8.917   7.790   7.681  1.1148 -0.6600  0.4182
  658MOL0     C86742   8.786   7.751   7.681 -0.9211 -0.5003  0.1561
  658MOL0     C86743   8.733   7.771   7.801 -0.5927  0.3456 -0.5109
  658MOL0     C86744   8.588   7.758   7.837 -0.0082 -0.1719  0.3773
  658MOL0     C86745   8.577   7.654   7.958  0.2596  0.7367  0.0120
  658MOL0     C86746   8.434   7.609   7.964  0.0908  0.5613 -0.0261
  658MOL0     C86747   8.345   7.706   8.026 -0.1979 -1.2663  0.5987
  658MOL0     O86748   8.235   7.639   8.088 -0.3557  0.6768 -0.6705
  658MOL0     C86749   8.130   7.713   8.135  0.1244 -0.6379  0.3274
  658MOL0     C86750   8.107   7.847   8.114  0.1888 -0.5553  0.0335
  658MOL0     C86751   7.986   7.902   8.160  0.3476 -0.2333  0.0046
  658MOL0     C86752   7.887   7.830   8.228 -0.3547  0.0168  0.3536
  658MOL0     C86753   7.767   7.905   8.276 -0.8924 -0.9520  0.1900
  658MOL0     O86754   7.790   8.037   8.311 -0.0231 -0.6067 -0.1208
  658MOL0     C86755   7.687   8.126   8.358 -0.3121  0.8224  0.2109
  658MOL0     C86756   7.727   8.256   8.393 -0.1495 -0.7939  0.3436
  658MOL0     C86757   7.644   8.360   8.434  1.2074  0.0944 -0.3398
  658MOL0     C86758   7.509   8.337   8.448  0.4444 -0.6874  0.0019
  658MOL0     O86759   7.416   8.427   8.508 -0.9706  0.6346  0.6456
  658MOL0     C86760   7.462   8.563   8.549  1.0650 -0.5355  0.1141
  658MOL0     C86761   7.349   8.670   8.591 -0.4593 -0.0598 -0.7529
  658MOL0     C86762   7.280   8.641   8.728  0.4022 -0.2002  0.3145
  658MOL0     C86763   7.149   8.720   8.722 -0.2058 -0.0518  0.6300
  658MOL0     C86764   7.072   8.694   8.847 -0.4941  0.0339  0.3503
  658MOL0     C86765   6.919   8.743   8.836  0.5872 -1.0027  0.0217
  658MOL0     C86766   6.854   8.732   8.977  0.9648 -0.1553 -0.5745
  658MOL0     C86767   6.704   8.741   8.955  0.0678  0.1445 -0.3000
  658MOL0    Cl86768   6.649   8.724   9.122  0.4968  0.2527  0.2196
  658MOL0     C86769   7.464   8.205   8.431 -0.0190  0.5308  0.6373
  658MOL0     C86770   7.549   8.101   8.386 -0.0431  1.0445  0.1119
  658MOL0     O86771   7.666   7.843   8.286  0.6792  0.9473 -0.5999
  658MOL0     C86772   7.903   7.694   8.232  0.4711  0.4324  0.6649
  658MOL0     C86773   8.025   7.645   8.192  0.3128  0.7350 -0.8592
  658MOL0     N86774   8.841   7.811   7.887 -0.0441  0.7662  0.8093
  658MOL0     N86775   8.945   7.827   7.805  0.0899 -0.7036  1.1760
  658MOL0     C86776   9.080   8.498   6.692  0.4995  0.7224  0.7135
  658MOL0     C86777   9.078   8.605   6.603 -0.6054  0.1589  0.1161
  658MOL0     C86778   9.041   8.934   6.320 -0.1731 -0.8711 -0.2058
  658MOL0     C86779   9.113   9.040   6.373 -0.8866 -0.2931  0.3168
  658MOL0     C86780   9.144   9.149   6.290 -0.1019  0.0040 -0.7585
  658MOL0     C86781   9.122   9.153   6.148  0.4064 -0.4705  0.0578
  658MOL0     O86782   9.147   9.263   6.084 -0.1062  0.3269  0.7626
  658MOL0     C86783   9.152   9.266   5.942 -0.6001 -0.5803 -0.2834
  658MOL0     C86784   9.273   9.342   5.892  1.1876 -0.5441  0.9990
  658MOL0     C86785   9.409   9.296   5.940  0.7130 -0.0055 -0.8774
  658MOL0     C86786   9.513   9.402   5.892  0.1981  0.9230 -0.0591
  658MOL0     C86787   9.647   9.357   5.935  0.0961  0.3582  0.4612
  658MOL0     C86788   9.762   9.328   5.953  0.4011  0.3517 -0.0706
  658MOL0     C86789   9.057   9.040   6.093 -0.1816 -1.0062  0.2717
  658MOL0     C86790   9.020   8.941   6.186 -0.0766  0.6211  0.4873
  658MOL0     H86791   8.866   8.814   6.761 -0.7416 -0.7171 -0.1754
  658MOL0     H86792   8.885   8.631   6.938  2.6624  1.5509  0.2001
  658MOL0     H86793   8.822   8.445   6.984 -0.2413  1.5499  0.0506
  658MOL0     H86794   8.949   8.478   7.087  0.1968 -2.0367  0.5666
  658MOL0     H86795   8.926   8.198   6.982 -3.5400 -0.8136  0.9036
  658MOL0     H86796   8.831   8.242   7.124 -1.4599 -0.3649 -1.9290
  658MOL0     H86797   9.073   8.322   7.219 -0.3195  0.4231 -0.1526
  658MOL0     H86798   9.135   8.210   7.086  3.0713  1.0617  3.0418
  658MOL0     H86799   8.940   8.144   7.311  1.3149  0.6904  0.6593
  658MOL0     H86800   8.992   8.030   7.205 -2.2117 -2.9194  5.2695
  658MOL0     H86801   9.158   8.160   7.424  0.5632 -1.0150  0.9193
  658MOL0     H86802   9.238   8.112   7.286 -0.4566  2.6290 -0.9525
  658MOL0     H86803   9.226   7.925   7.447 -0.4701 -0.2694 -0.9978
  658MOL0     H86804   9.115   7.869   7.322  3.3779 -0.9286 -0.6348
  658MOL0     H86805   9.069   8.012   7.590  0.9961 -0.0267 -0.3121
  658MOL0     H86806   8.941   7.990   7.487  0.8487  4.5518  2.9006
  658MOL0     H86807   9.105   7.758   7.608 -1.5908 -1.3383  2.6289
  658MOL0     H86808   8.985   7.720   7.489  3.6990 -1.0066  0.0733
  658MOL0     H86809   8.722   7.734   7.594 -0.7662  0.4358 -0.1557
  658MOL0     H86810   8.542   7.716   7.748  2.8797 -3.1334  0.0524
  658MOL0     H86811   8.534   7.850   7.861  1.9658  1.3602 -0.8053
  658MOL0     H86812   8.605   7.701   8.053 -0.3562 -0.2642  0.7052
  658MOL0     H86813   8.644   7.569   7.943  0.5058  1.1001 -1.0512
  658MOL0     H86814   8.392   7.582   7.867 -1.8149  0.6022  0.7583
  658MOL0     H86815   8.423   7.515   8.020  0.3308  1.2958  1.2825
  658MOL0     H86816   8.297   7.771   7.952 -1.0517  0.1171  2.2748
  658MOL0     H86817   8.394   7.782   8.088 -1.4029  1.3514 -1.4421
  658MOL0     H86818   8.179   7.904   8.056  3.4116 -1.7425  2.5503
  658MOL0     H86819   7.987   8.008   8.136 -0.0915  0.5382  3.0256
  658MOL0     H86820   7.835   8.266   8.397 -0.1794  1.1462 -1.9072
  658MOL0     H86821   7.681   8.458   8.464 -0.5129  0.7101 -0.0708
  658MOL0     H86822   7.511   8.613   8.466  1.7038 -1.2865  0.0239
  658MOL0     H86823   7.535   8.548   8.630 -3.2131 -0.9119  4.3882
  658MOL0     H86824   7.275   8.676   8.511  0.7348  0.5324 -1.8559
  658MOL0     H86825   7.405   8.764   8.588  0.9637 -0.8510 -0.1313
  658MOL0     H86826   7.327   8.676   8.821 -2.7310 -0.4475  2.1501
  658MOL0     H86827   7.260   8.534   8.738 -2.4390  0.1842 -0.4333
  658MOL0     H86828   7.179   8.822   8.696  1.2926 -1.2712 -3.0623
  658MOL0     H86829   7.084   8.683   8.641  0.1515 -3.3674  1.7047
  658MOL0     H86830   7.129   8.746   8.925  1.7660 -0.1543 -1.0628
  658MOL0     H86831   7.065   8.586   8.863  0.4485 -0.4446 -1.9918
  658MOL0     H86832   6.870   8.679   8.762  0.4911  1.6578 -2.3818
  658MOL0     H86833   6.926   8.847   8.803  1.3163 -0.0720  2.8993
  658MOL0     H86834   6.870   8.630   9.015  1.3124 -1.5227 -3.9949
  658MOL0     H86835   6.879   8.814   9.044 -0.0414  0.9453 -1.5080
  658MOL0     H86836   6.660   8.665   8.890 -1.7007  2.3495 -1.8603
  658MOL0     H86837   6.681   8.840   8.913  1.5545  0.7170  0.1685
  658MOL0     H86838   7.358   8.188   8.416 -0.0573 -0.3598  1.7832
  658MOL0     H86839   7.510   8.002   8.364 -0.2836  1.1106  0.2270
  658MOL0     H86840   7.825   7.632   8.276 -1.7841  0.3009 -3.0785
  658MOL0     H86841   8.037   7.537   8.197  3.6278  1.0430 -0.2147
  658MOL0     H86842   9.122   8.401   6.669 -0.5780  0.5091 -0.4689
  658MOL0     H86843   9.139   8.594   6.514 -0.3717  1.3894  0.1140
  658MOL0     H86844   9.137   9.049   6.478  0.9759 -0.4394 -0.0656
  658MOL0     H86845   9.188   9.232   6.344 -1.3925  0.3413 -0.2086
  658MOL0     H86846   9.066   9.322   5.906 -0.0398  0.5672  0.1245
  658MOL0     H86847   9.152   9.166   5.897  1.4817  0.1162 -1.9897
  658MOL0     H86848   9.266   9.351   5.783 -0.8441 -2.5533  0.8706
  658MOL0     H86849   9.274   9.442   5.935  4.5924 -0.9371  2.2006
  658MOL0     H86850   9.425   9.194   5.905 -0.9017 -0.6484  0.1819
  658MOL0     H86851   9.407   9.299   6.049  1.3298 -2.9588 -0.7154
  658MOL0     H86852   9.510   9.398   5.782 -1.1192 -4.7571 -0.1193
  658MOL0     H86853   9.488   9.492   5.948 -0.7869  1.6348 -1.5571
  658MOL0     H86854   9.866   9.309   5.970  0.1059  0.2172  1.8693
  658MOL0     H86855   9.043   9.016   5.988  0.0266 -1.2239  0.2942
  658MOL0     H86856   8.964   8.857   6.145 -1.0948  2.9324 -3.4567
  659MOL0     O86857   7.781   0.270   6.478  0.3601  0.7668  0.2394
  659MOL0     C86858   7.714   0.346   6.547 -0.0986  0.2028  0.4777
  659MOL0     O86859   7.754   0.477   6.578  0.4451  0.3127  0.3803
  659MOL0     C86860   7.876   0.521   6.524  0.7953  1.3769 -0.2815
  659MOL0     C86861   7.882   0.651   6.465  0.5365  0.3967  0.5343
  659MOL0     C86862   8.000   0.701   6.426 -1.1424 -0.4219  0.5677
  659MOL0     C86863   8.117   0.626   6.433 -0.8452 -0.1191  0.2849
  659MOL0     O86864   8.242   0.684   6.398  0.6876 -0.1891  0.0333
  659MOL0     C86865   8.234   0.779   6.286  0.0589  0.2186 -0.1217
  659MOL0     C86866   8.375   0.828   6.229  0.8287 -1.4451  0.2548
  659MOL0     C86867   8.466   0.898   6.325  0.2768 -0.0019  0.3392
  659MOL0     C86868   8.593   0.940   6.253 -0.1476  0.0228 -0.6015
  659MOL0     C86869   8.689   0.995   6.352  0.5820 -0.1615  0.5744
  659MOL0     C86870   8.760   0.895   6.439 -0.6930  0.2552 -0.4776
  659MOL0     C86871   8.901   0.935   6.488 -0.2083  0.6845 -1.2901
  659MOL0     C86872   8.935   0.840   6.607  0.1881 -0.2254 -0.2614
  659MOL0     N86873   9.074   0.861   6.659 -0.2716  0.2318 -0.0072
  659MOL0     C86874   9.182   0.787   6.616 -0.0990  0.4893  0.4991
  659MOL0     C86875   9.278   0.802   6.716  0.4738  0.6726  0.9947
  659MOL0     C86876   9.415   0.734   6.724 -0.4588  0.4884  0.0336
  659MOL0     C86877   9.427   0.657   6.857 -0.7550 -0.8478 -0.0639
  659MOL0     C86878   9.557   0.697   6.932 -0.6095  0.4449 -1.2780
  659MOL0     C86879   9.595   0.579   7.018  0.0946  0.4316 -0.1484
  659MOL0     O86880   9.722   0.611   7.089 -0.0656  0.0067 -0.1306
  659MOL0     C86881   9.840   0.590   7.035  1.3564 -0.7133  0.3323
  659MOL0     C86882   9.862   0.560   6.899 -0.3523  0.4790  1.1402
  659MOL0     C86883   9.993   0.528   6.850  0.1897  0.0515 -0.1647
  659MOL0     C86884  10.104   0.516   6.939 -0.0340  0.9056  0.5050
  659MOL0     C86885  10.229   0.458   6.887 -0.6410  0.8155 -0.2932
  659MOL0     O86886  10.243   0.401   6.757  0.1503  0.0941  0.6659
  659MOL0     C86887  10.354   0.338   6.717  0.0635  0.1685  0.4260
  659MOL0     C86888  10.418   0.227   6.780  0.0257 -0.3997  0.2536
  659MOL0     C86889  10.522   0.162   6.720 -0.3001  0.0410 -0.4932
  659MOL0     C86890  10.578   0.199   6.595 -0.4592 -0.4626 -0.0504
  659MOL0     O86891  10.683   0.153   6.525 -0.1067 -0.0566 -0.2517
  659MOL0     C86892  10.768   0.063   6.590 -0.3601 -0.0518  0.9483
  659MOL0     C86893  10.894   0.035   6.507 -1.1105  0.1101  0.1941
  659MOL0     C86894  10.955  -0.095   6.562  0.2886  0.1197  0.0911
  659MOL0     C86895  11.079  -0.135   6.492 -0.0976  0.4903  0.3498
  659MOL0     C86896  11.199  -0.091   6.567 -0.2186 -0.1390 -0.3580
  659MOL0     C86897  11.262  -0.189   6.664  0.0918  0.2075  0.2057
  659MOL0     C86898  11.351  -0.303   6.622 -1.3166  0.9438  0.4506
  659MOL0     C86899  11.413  -0.388   6.737 -0.2507  0.0313 -0.6884
  659MOL0    Cl86900  11.277  -0.483   6.808 -0.4594 -0.3470  0.3243
  659MOL0     C86901  10.504   0.298   6.528  1.1384  0.2695  0.1601
  659MOL0     C86902  10.403   0.380   6.591 -0.0106  0.7547 -0.9214
  659MOL0     O86903  10.326   0.460   6.965  0.1483 -0.6440 -0.4222
  659MOL0     C86904  10.081   0.549   7.078  0.4623  0.5664 -0.2703
  659MOL0     C86905   9.950   0.588   7.122 -0.5734  0.8777  0.0192
  659MOL0     N86906   9.223   0.875   6.818  0.3435  0.0360  0.2659
  659MOL0     N86907   9.100   0.901   6.791  0.0650 -0.2862 -0.2501
  659MOL0     C86908   8.111   0.499   6.486 -0.5530 -0.4396 -0.1498
  659MOL0     C86909   7.991   0.441   6.534 -0.3496  0.1326 -0.6832
  659MOL0     C86910   7.604   0.273   6.617  0.1991  0.0398  0.7110
  659MOL0     C86911   7.596   0.132   6.601  0.5500  0.0972 -0.6724
  659MOL0     C86912   7.481   0.066   6.667 -0.9370  0.3455  0.4873
  659MOL0     C86913   7.381   0.132   6.738 -0.3794 -0.4714  0.4983
  659MOL0     O86914   7.278   0.053   6.783  0.1709 -1.0017 -0.3804
  659MOL0     C86915   7.197   0.116   6.886  0.8823  0.4870  0.4824
  659MOL0     C86916   7.196   0.002   6.995  0.6379 -0.1675  0.0264
  659MOL0     C86917   7.085   0.036   7.102  0.0995  0.3991  0.3796
  659MOL0     C86918   7.047  -0.098   7.175 -0.9069  0.6320 -0.8768
  659MOL0     C86919   7.162  -0.155   7.260 -0.2852 -0.0080  0.5747
  659MOL0     C86920   7.255  -0.191   7.337 -0.0472  0.4573  0.1235
  659MOL0     C86921   7.394   0.269   6.735  0.1348  0.9295 -0.0828
  659MOL0     C86922   7.496   0.338   6.685 -0.1348 -0.1532  0.9890
  659MOL0     H86923   7.793   0.714   6.465 -2.1881 -3.1554 -0.1458
  659MOL0     H86924   7.997   0.800   6.381 -0.0427 -0.8462 -0.5140
  659MOL0     H86925   8.201   0.871   6.334  0.3713  0.2226  0.0894
  659MOL0     H86926   8.160   0.753   6.209  0.0629  0.0740 -0.0784
  659MOL0     H86927   8.352   0.896   6.148 -1.8964 -1.4359  0.9413
  659MOL0     H86928   8.424   0.741   6.184  0.3081 -1.7684  0.3024
  659MOL0     H86929   8.484   0.828   6.407  2.8012 -0.2369 -0.3246
  659MOL0     H86930   8.411   0.981   6.370 -1.2563 -0.5252 -0.4574
  659MOL0     H86931   8.632   0.851   6.203 -2.0258  0.1833 -2.4942
  659MOL0     H86932   8.571   1.002   6.166  0.6950 -2.6022 -2.8120
  659MOL0     H86933   8.629   1.068   6.408 -0.4555 -0.4316 -0.1638
  659MOL0     H86934   8.760   1.050   6.290 -0.7809  1.8415  0.6995
  659MOL0     H86935   8.768   0.803   6.381 -2.0634 -0.7880  0.9260
  659MOL0     H86936   8.694   0.883   6.525  0.3320 -0.0732  0.2839
  659MOL0     H86937   8.962   0.916   6.399  0.0474 -0.7787 -0.8178
  659MOL0     H86938   8.907   1.039   6.523 -3.0488  0.4760  0.0149
  659MOL0     H86939   8.922   0.737   6.570  2.0963  0.1193 -2.0820
  659MOL0     H86940   8.862   0.871   6.682  0.5861  0.6033 -0.2153
  659MOL0     H86941   9.183   0.713   6.536 -1.0642  3.7975 -2.8738
  659MOL0     H86942   9.505   0.793   6.704  0.9831 -2.1641 -1.9643
  659MOL0     H86943   9.423   0.654   6.650 -2.2189 -1.9457  2.2920
  659MOL0     H86944   9.426   0.556   6.816 -2.3290 -0.3014 -1.5526
  659MOL0     H86945   9.342   0.680   6.922  1.2454  3.7469  1.3289
  659MOL0     H86946   9.642   0.717   6.865 -0.2859 -2.9019 -2.0631
  659MOL0     H86947   9.543   0.791   6.985 -1.6736 -1.7811  2.7464
  659MOL0     H86948   9.613   0.482   6.970  0.1486  0.4278 -0.1219
  659MOL0     H86949   9.511   0.561   7.085 -0.0174 -1.9313 -0.8291
  659MOL0     H86950   9.780   0.554   6.828  0.7338 -2.3660 -0.0371
  659MOL0     H86951  10.000   0.508   6.743 -0.1825  1.1040 -0.4006
  659MOL0     H86952  10.390   0.184   6.876  0.7793 -2.3001 -0.3270
  659MOL0     H86953  10.564   0.077   6.771  0.0005 -0.3683 -1.3955
  659MOL0     H86954  10.713  -0.031   6.604  0.4405 -1.1588 -2.4261
  659MOL0     H86955  10.798   0.102   6.688  0.0047  0.9318  0.4514
  659MOL0     H86956  10.969   0.115   6.509 -0.0454 -0.8645  0.9020
  659MOL0     H86957  10.863   0.023   6.403  0.4644  0.0808 -0.3046
  659MOL0     H86958  10.885  -0.179   6.554  1.6269 -1.3814  2.8167
  659MOL0     H86959  10.973  -0.095   6.670  0.6691 -2.8570  0.1218
  659MOL0     H86960  11.082  -0.244   6.487 -0.8797  0.5178 -1.2292
  659MOL0     H86961  11.082  -0.087   6.394  4.1529 -0.2041 -0.0467
  659MOL0     H86962  11.178   0.005   6.617  1.7516  0.7595 -1.1500
  659MOL0     H86963  11.280  -0.076   6.496 -0.1870 -0.7643 -0.4535
  659MOL0     H86964  11.178  -0.224   6.725  0.4917 -2.5884 -0.7341
  659MOL0     H86965  11.318  -0.124   6.732  2.0437  0.4739 -1.5543
  659MOL0     H86966  11.287  -0.372   6.566 -1.4365 -2.0725  3.8653
  659MOL0     H86967  11.445  -0.278   6.573 -0.4072 -3.8108 -0.7217
  659MOL0     H86968  11.460  -0.336   6.821 -1.8671  0.8078 -0.2331
  659MOL0     H86969  11.495  -0.454   6.705 -0.6813 -2.2538  2.4283
  659MOL0     H86970  10.518   0.327   6.424 -3.2135  4.1593  0.3436
  659MOL0     H86971  10.354   0.456   6.530 -0.2929 -0.1406 -1.8373
  659MOL0     H86972  10.163   0.547   7.148 -0.8312 -0.6444  1.2813
  659MOL0     H86973   9.930   0.619   7.223  2.3175  2.8856  0.0954
  659MOL0     H86974   8.200   0.441   6.509  0.2829  1.4397  1.7014
  659MOL0     H86975   7.996   0.346   6.585 -0.1171  1.3046  1.6551
  659MOL0     H86976   7.678   0.077   6.556  0.0187 -0.2152 -1.2809
  659MOL0     H86977   7.457  -0.038   6.647  0.8023  0.1080 -0.6867
  659MOL0     H86978   7.097   0.112   6.842  1.8031 -1.4672 -1.6061
  659MOL0     H86979   7.220   0.218   6.917 -0.4841  0.3125  2.3061
  659MOL0     H86980   7.157  -0.089   6.950 -1.2540  0.2852  0.6708
  659MOL0     H86981   7.300  -0.012   7.028  0.7656  0.0945 -0.2618
  659MOL0     H86982   6.995   0.070   7.050  1.1372  0.2434 -1.5816
  659MOL0     H86983   7.124   0.105   7.178  3.0412 -0.0170 -0.6228
  659MOL0     H86984   6.956  -0.086   7.233  1.0860  0.3392  2.5658
  659MOL0     H86985   7.016  -0.174   7.103  0.3829  0.2564 -1.0567
  659MOL0     H86986   7.334  -0.228   7.398  2.9656 -3.2420 -5.2422
  659MOL0     H86987   7.310   0.330   6.766  2.0910  2.3830  2.8254
  659MOL0     H86988   7.490   0.445   6.702 -2.8363 -0.3003  1.3572
  660MOL0     O86989   8.396   5.636   5.978  0.2029 -0.9827  0.0192
  660MOL0     C86990   8.416   5.745   5.926  0.5296  0.0735 -0.2563
  660MOL0     O86991   8.316   5.835   5.904  0.2305  0.2279 -0.8953
  660MOL0     C86992   8.192   5.802   5.941  0.8360  0.3141  0.5866
  660MOL0     C86993   8.123   5.872   6.040  0.4975 -0.0388 -0.2991
  660MOL0     C86994   7.992   5.829   6.058  1.3806 -0.1293 -0.5485
  660MOL0     C86995   7.934   5.715   6.004  0.1234  0.2621 -0.9679
  660MOL0     O86996   7.804   5.680   6.041  0.2065 -0.2479 -0.3853
  660MOL0     C86997   7.747   5.560   5.997 -0.1877 -0.2782 -0.6556
  660MOL0     C86998   7.598   5.550   6.041  0.6129 -0.0766  0.5059
  660MOL0     C86999   7.571   5.508   6.186 -1.0367 -0.3519 -0.7687
  660MOL0     C87000   7.428   5.462   6.212  0.9002  0.5778  0.1142
  660MOL0     C87001   7.330   5.580   6.193  0.4288  0.4845 -0.1742
  660MOL0     C87002   7.190   5.539   6.229 -0.6771 -0.8804 -0.3082
  660MOL0     C87003   7.088   5.634   6.178  0.0075  0.5420  0.0485
  660MOL0     C87004   6.946   5.587   6.165  0.7899  0.1355 -0.2200
  660MOL0     N87005   6.870   5.578   6.290 -0.2130  0.9836 -0.6136
  660MOL0     C87006   6.818   5.461   6.345 -0.1205  0.0841 -1.0121
  660MOL0     C87007   6.703   5.496   6.408  0.1064 -0.6633  0.3745
  660MOL0     C87008   6.605   5.405   6.480 -0.0258  0.1067  0.1431
  660MOL0     C87009   6.498   5.475   6.571  0.6386  0.5068  0.6089
  660MOL0     C87010   6.543   5.517   6.713 -0.0125 -0.1203  0.3799
  660MOL0     C87011   6.425   5.511   6.802  0.1143  1.0481  0.5621
  660MOL0     O87012   6.380   5.381   6.836 -0.0267 -0.7068 -0.2795
  660MOL0     C87013   6.274   5.351   6.916 -0.1847 -0.4490 -0.0717
  660MOL0     C87014   6.245   5.224   6.938  0.1264  0.0412  0.5371
  660MOL0     C87015   6.131   5.183   7.017 -0.1214  0.3711  0.3391
  660MOL0     C87016   6.040   5.275   7.069 -0.6876  0.3827  0.2330
  660MOL0     C87017   5.922   5.232   7.143  0.0527  0.0028  0.3811
  660MOL0     O87018   5.879   5.298   7.253 -0.7601 -0.4826 -0.5950
  660MOL0     C87019   5.771   5.268   7.323 -0.4374 -0.3673 -0.0317
  660MOL0     C87020   5.718   5.141   7.350 -0.2001  0.1823 -1.0979
  660MOL0     C87021   5.601   5.116   7.425  0.6883  0.0411 -0.1291
  660MOL0     C87022   5.531   5.225   7.479  0.8917 -0.3869 -0.0899
  660MOL0     O87023   5.432   5.209   7.574  0.3730  0.7504  0.2520
  660MOL0     C87024   5.442   5.289   7.684  0.1821  0.7264 -0.8308
  660MOL0     C87025   5.338   5.230   7.779 -0.1183 -0.4787 -0.0452
  660MOL0     C87026   5.283   5.347   7.867  1.0901  0.6226 -0.8886
  660MOL0     C87027   5.169   5.303   7.966 -0.6252 -0.2618 -0.2297
  660MOL0     C87028   5.123   5.419   8.059 -0.2629 -0.5203 -1.0325
  660MOL0     C87029   4.987   5.371   8.114 -0.7616  0.0718 -0.4069
  660MOL0     C87030   4.938   5.457   8.223  0.0555 -0.6084  0.1690
  660MOL0     C87031   4.801   5.401   8.267 -0.0768  0.8229  0.3735
  660MOL0    Cl87032   4.728   5.515   8.386 -0.2892  0.2947  0.1059
  660MOL0     C87033   5.576   5.360   7.447  0.5688 -0.2650  0.2908
  660MOL0     C87034   5.696   5.382   7.372 -0.1944  1.5803 -0.9692
  660MOL0     O87035   5.872   5.127   7.099  0.5236 -0.3185  0.3343
  660MOL0     C87036   6.082   5.408   7.053  0.0015 -0.8051 -0.1821
  660MOL0     C87037   6.191   5.445   6.972 -0.1208  0.3095  0.5130
  660MOL0     N87038   6.690   5.633   6.394  0.2753  0.0930 -0.0795
  660MOL0     N87039   6.797   5.682   6.330  0.1452  0.0136  0.7496
  660MOL0     C87040   8.011   5.636   5.918 -0.2106 -0.4349  1.2687
  660MOL0     C87041   8.134   5.690   5.883  0.6250  0.3305 -0.0387
  660MOL0     C87042   8.549   5.787   5.865  0.1671  0.1729 -0.4975
  660MOL0     C87043   8.655   5.693   5.869  0.3425 -0.0101  0.2497
  660MOL0     C87044   8.784   5.737   5.830 -0.1500  0.5867  0.6960
  660MOL0     C87045   8.806   5.875   5.780 -0.8333  0.0509  0.0213
  660MOL0     O87046   8.930   5.931   5.750 -0.4170  0.2334  0.2176
  660MOL0     C87047   9.021   5.841   5.689  0.1654 -1.0095 -0.8015
  660MOL0     C87048   9.157   5.861   5.748 -0.2052 -0.2136  0.8423
  660MOL0     C87049   9.175   5.801   5.888 -0.6561  0.6758 -0.8533
  660MOL0     C87050   9.186   5.648   5.876  0.4186  0.9263 -0.4728
  660MOL0     C87051   9.324   5.612   5.873  0.5197 -0.0402  0.2225
  660MOL0     C87052   9.433   5.568   5.889  0.5107  1.2485 -0.2245
  660MOL0     C87053   8.696   5.964   5.777  0.4426  0.1217 -0.2115
  660MOL0     C87054   8.570   5.914   5.821 -0.3510  0.2500  0.5991
  660MOL0     H87055   8.159   5.959   6.094 -0.5565  1.1204 -1.3746
  660MOL0     H87056   7.927   5.883   6.127 -3.1039 -1.9805 -2.8547
  660MOL0     H87057   7.800   5.478   6.045 -0.1995  0.8720  1.4110
  660MOL0     H87058   7.753   5.538   5.890  0.1451 -2.5078 -0.2274
  660MOL0     H87059   7.563   5.476   5.969 -0.0420 -2.7372  3.3647
  660MOL0     H87060   7.548   5.645   6.022  0.3251 -0.2934  0.1849
  660MOL0     H87061   7.598   5.589   6.254 -1.5351 -0.8917  0.0913
  660MOL0     H87062   7.632   5.421   6.213 -0.8960  0.1713  0.7044
  660MOL0     H87063   7.392   5.388   6.141  0.4498  2.4161 -1.6702
  660MOL0     H87064   7.411   5.422   6.313 -0.8611  1.3401  0.1421
  660MOL0     H87065   7.344   5.620   6.092  1.7310  0.4339 -0.0323
  660MOL0     H87066   7.339   5.658   6.269 -2.7430  0.5514  0.2655
  660MOL0     H87067   7.182   5.534   6.338 -0.7858 -0.0285 -0.2653
  660MOL0     H87068   7.171   5.437   6.195  4.7365 -0.6028 -6.0124
  660MOL0     H87069   7.082   5.727   6.235 -1.5519  1.9518 -2.2653
  660MOL0     H87070   7.128   5.677   6.086 -2.2246  2.8835  0.0732
  660MOL0     H87071   6.935   5.494   6.109  0.9077  0.6759 -1.1527
  660MOL0     H87072   6.889   5.661   6.108  0.1028 -0.6004 -0.5244
  660MOL0     H87073   6.856   5.360   6.328 -0.5745 -0.1883 -0.4373
  660MOL0     H87074   6.657   5.325   6.533 -4.0768 -0.9117  3.1228
  660MOL0     H87075   6.541   5.367   6.400  1.1385  0.2621 -0.8817
  660MOL0     H87076   6.416   5.402   6.576 -1.0579  1.9300 -2.9352
  660MOL0     H87077   6.462   5.559   6.512 -4.9192 -2.1564 -0.4854
  660MOL0     H87078   6.627   5.453   6.744 -0.2800 -0.5363  0.2587
  660MOL0     H87079   6.576   5.621   6.722 -1.6797  0.6812 -1.6851
  660MOL0     H87080   6.342   5.556   6.747 -0.4974 -1.2565 -0.5388
  660MOL0     H87081   6.446   5.571   6.891  0.1595  3.2204 -0.8430
  660MOL0     H87082   6.322   5.155   6.904 -0.7540 -2.0818  2.5333
  660MOL0     H87083   6.117   5.078   7.041  3.3504 -0.5233 -0.8427
  660MOL0     H87084   5.774   5.054   7.317  3.5949  2.6038 -1.7404
  660MOL0     H87085   5.551   5.025   7.457  1.9360  0.3305  3.0274
  660MOL0     H87086   5.399   5.387   7.663 -0.1039  0.1401 -3.3582
  660MOL0     H87087   5.547   5.289   7.715  0.3864  1.2482 -1.4882
  660MOL0     H87088   5.367   5.144   7.840 -3.0275 -1.6807 -0.2013
  660MOL0     H87089   5.254   5.188   7.723 -1.8509  1.7452  0.7362
  660MOL0     H87090   5.242   5.434   7.815  1.9385  1.1734 -0.6522
  660MOL0     H87091   5.363   5.371   7.937  0.6258 -3.1169  1.1663
  660MOL0     H87092   5.082   5.271   7.908 -2.4259  2.3128  0.8629
  660MOL0     H87093   5.215   5.220   8.021  0.7177 -0.9246 -2.2496
  660MOL0     H87094   5.106   5.514   8.007  2.7327  0.3591 -0.6231
  660MOL0     H87095   5.199   5.439   8.135 -0.7026 -0.2321 -0.6693
  660MOL0     H87096   4.996   5.266   8.142  1.4234  0.5070  0.7457
  660MOL0     H87097   4.922   5.376   8.026 -2.2012 -5.0061  0.0801
  660MOL0     H87098   5.012   5.464   8.303 -1.5412  0.4862  1.6252
  660MOL0     H87099   4.924   5.561   8.194  0.8762 -0.6265 -0.3226
  660MOL0     H87100   4.826   5.309   8.322 -1.6018 -0.3707 -0.8612
  660MOL0     H87101   4.736   5.373   8.184  2.9205 -0.9211 -1.5581
  660MOL0     H87102   5.523   5.449   7.479 -1.3657 -1.0883 -0.4702
  660MOL0     H87103   5.726   5.483   7.348 -2.1858  1.6032 -3.8579
  660MOL0     H87104   6.011   5.479   7.093  0.5257 -0.9325  1.0259
  660MOL0     H87105   6.232   5.543   6.952  0.8347  0.2495  1.9875
  660MOL0     H87106   7.968   5.545   5.877 -4.2636  1.7898  0.0541
  660MOL0     H87107   8.177   5.629   5.805 -1.4216  0.4358 -1.3201
  660MOL0     H87108   8.632   5.600   5.921 -2.7179  0.8116  0.5431
  660MOL0     H87109   8.863   5.663   5.836 -0.8420 -0.1942  0.3836
  660MOL0     H87110   9.006   5.869   5.584 -2.2757  1.4074  0.0842
  660MOL0     H87111   8.987   5.737   5.684 -2.0998 -0.2990 -1.1513
  660MOL0     H87112   9.236   5.820   5.684 -0.0325  0.0985  0.8518
  660MOL0     H87113   9.178   5.968   5.747  5.1893 -0.9498 -0.8579
  660MOL0     H87114   9.083   5.828   5.941 -0.9841 -1.5022 -0.2120
  660MOL0     H87115   9.263   5.847   5.932  0.0783 -2.4166  1.2352
  660MOL0     H87116   9.147   5.597   5.965 -3.3995  0.5538 -2.1580
  660MOL0     H87117   9.144   5.603   5.786  1.7978 -2.1086  0.2870
  660MOL0     H87118   9.534   5.543   5.914  0.2078 -1.1915 -1.1398
  660MOL0     H87119   8.729   6.061   5.743  0.8057  0.0560 -0.0477
  660MOL0     H87120   8.492   5.989   5.822  0.7391  1.4179  1.9025
  661MOL0     O87121   5.435   7.473   5.865 -0.7618 -0.0849  0.2777
  661MOL0     C87122   5.450   7.589   5.863 -0.5584 -0.1166  0.7872
  661MOL0     O87123   5.366   7.684   5.811  0.5919  0.1658  0.0886
  661MOL0     C87124   5.232   7.650   5.802  0.1277 -0.4865  0.5696
  661MOL0     C87125   5.196   7.548   5.712  0.7908  0.8878 -0.2283
  661MOL0     C87126   5.064   7.526   5.667  0.5602  0.6563 -1.5324
  661MOL0     C87127   4.964   7.597   5.731 -0.2680  0.5927 -0.1265
  661MOL0     O87128   4.827   7.597   5.706 -0.1671  0.3003 -0.1528
  661MOL0     C87129   4.800   7.574   5.573  0.3937 -0.0348  0.1848
  661MOL0     C87130   4.652   7.611   5.546  0.3190 -0.4192  0.1758
  661MOL0     C87131   4.552   7.504   5.593 -0.2086 -0.0384 -0.0288
  661MOL0     C87132   4.407   7.560   5.562  0.0586  0.8696 -0.1848
  661MOL0     C87133   4.313   7.437   5.586  0.1110  0.3955 -0.2473
  661MOL0     C87134   4.329   7.319   5.486  0.4778  0.5416  0.4891
  661MOL0     C87135   4.301   7.347   5.341 -0.6579 -0.0647  0.5013
  661MOL0     C87136   4.157   7.387   5.308 -0.5564 -0.3146 -0.3447
  661MOL0     N87137   4.091   7.260   5.254 -0.8831 -0.2013  0.6392
  661MOL0     C87138   4.062   7.153   5.328 -0.9974 -0.0407  0.4885
  661MOL0     C87139   3.990   7.069   5.245  0.2393  0.0949  0.0555
  661MOL0     C87140   3.919   6.938   5.280 -0.7854 -0.6653 -0.1504
  661MOL0     C87141   3.844   6.945   5.412  0.0120  0.2406 -0.1376
  661MOL0     C87142   3.743   6.826   5.418  0.6110  0.3207 -0.9395
  661MOL0     C87143   3.684   6.814   5.557  0.2094  0.1409 -0.0113
  661MOL0     O87144   3.636   6.945   5.612 -0.0592  0.8848  0.1905
  661MOL0     C87145   3.513   6.990   5.589  0.5724  0.2900  0.5066
  661MOL0     C87146   3.409   6.912   5.537 -0.2005  0.8310  0.1045
  661MOL0     C87147   3.288   6.971   5.521 -0.2011 -0.2732 -0.2505
  661MOL0     C87148   3.253   7.098   5.561  0.8163 -0.4454  0.8718
  661MOL0     C87149   3.120   7.156   5.528 -0.7055 -0.9118 -1.0922
  661MOL0     O87150   3.103   7.298   5.555 -0.2277  0.3390  0.3682
  661MOL0     C87151   2.984   7.353   5.501  0.1121 -0.3774  0.6294
  661MOL0     C87152   2.998   7.454   5.414  0.7474 -1.0741 -0.1010
  661MOL0     C87153   2.883   7.519   5.355 -0.7652 -0.4352 -0.8168
  661MOL0     C87154   2.750   7.477   5.394  0.3602 -0.2249 -0.6985
  661MOL0     O87155   2.635   7.551   5.350 -0.1697 -0.1428 -0.4844
  661MOL0     C87156   2.614   7.561   5.207 -0.7438  0.3363 -0.2941
  661MOL0     C87157   2.519   7.441   5.159  0.0963  0.1818  0.1490
  661MOL0     C87158   2.510   7.432   5.000  0.4270  0.9858 -0.2152
  661MOL0     C87159   2.375   7.362   4.951 -0.7501 -1.1100 -0.5632
  661MOL0     C87160   2.336   7.385   4.806 -0.6530 -0.1968  0.7135
  661MOL0     C87161   2.289   7.530   4.790 -0.2144 -0.8978  0.6713
  661MOL0     C87162   2.225   7.566   4.648 -0.1730 -0.1767 -0.9542
  661MOL0     C87163   2.098   7.481   4.621 -0.4053 -0.1096 -0.8874
  661MOL0    Cl87164   1.950   7.520   4.716 -0.3531 -0.1208  0.9784
  661MOL0     C87165   2.737   7.373   5.489 -0.5372 -0.6555  0.4698
  661MOL0     C87166   2.855   7.312   5.533 -0.3818 -0.9352 -0.9714
  661MOL0     O87167   3.040   7.085   5.478  0.8078 -0.1027 -0.0145
  661MOL0     C87168   3.354   7.181   5.612 -0.9116 -0.2163  0.0164
  661MOL0     C87169   3.493   7.124   5.625 -0.0719  0.6828 -0.6297
  661MOL0     N87170   3.969   7.141   5.128  0.1262 -0.1057 -0.0617
  661MOL0     N87171   4.032   7.252   5.135 -0.1398 -0.4056  0.5337
  661MOL0     C87172   4.994   7.691   5.828  0.4343 -0.0562  0.1663
  661MOL0     C87173   5.126   7.723   5.867  0.4242 -0.0547 -0.2989
  661MOL0     C87174   5.581   7.639   5.922  0.2937  0.8513 -0.9564
  661MOL0     C87175   5.622   7.775   5.911  0.4306  0.3440  0.0141
  661MOL0     C87176   5.730   7.828   5.980  0.0471  0.2245  1.0691
  661MOL0     C87177   5.808   7.742   6.057 -0.5825  0.1989 -0.1510
  661MOL0     O87178   5.918   7.797   6.125  0.1646  0.1769 -0.4151
  661MOL0     C87179   5.994   7.723   6.218 -0.0700  1.3416  0.1156
  661MOL0     C87180   6.097   7.619   6.160 -0.6152  0.2081 -0.3130
  661MOL0     C87181   6.229   7.690   6.120  0.5921  0.0383  1.2856
  661MOL0     C87182   6.305   7.732   6.246 -0.1069 -0.4872  0.2510
  661MOL0     C87183   6.442   7.744   6.209  1.2198  0.4727 -0.1580
  661MOL0     C87184   6.555   7.772   6.190 -0.6739 -1.2899 -0.3447
  661MOL0     C87185   5.783   7.599   6.050  0.0919 -0.5933 -0.0641
  661MOL0     C87186   5.668   7.549   5.990  1.1391 -0.0142  0.8587
  661MOL0     H87187   5.269   7.485   5.663  1.5290  1.5321  0.0001
  661MOL0     H87188   5.039   7.455   5.589 -4.2489  2.8939 -2.3864
  661MOL0     H87189   4.812   7.468   5.549 -0.2478 -0.2766  0.9081
  661MOL0     H87190   4.862   7.627   5.500 -0.5913  0.4191 -0.3396
  661MOL0     H87191   4.631   7.642   5.444 -5.2793  2.7004  1.8450
  661MOL0     H87192   4.629   7.706   5.594  1.5360  2.5219 -4.4499
  661MOL0     H87193   4.555   7.479   5.700 -0.4443 -2.2447 -0.4887
  661MOL0     H87194   4.573   7.412   5.536  0.5063  0.8520 -1.2494
  661MOL0     H87195   4.395   7.633   5.642 -2.5068  1.8746 -1.3906
  661MOL0     H87196   4.391   7.607   5.465  0.2539  2.1068  0.3667
  661MOL0     H87197   4.215   7.480   5.562 -0.0352  0.8580  1.0883
  661MOL0     H87198   4.326   7.413   5.691  0.9057 -0.0755 -0.4531
  661MOL0     H87199   4.240   7.262   5.514  0.4655 -1.0868 -2.5168
  661MOL0     H87200   4.424   7.267   5.497 -0.5392 -1.8819 -1.3945
  661MOL0     H87201   4.363   7.434   5.317 -1.3685  0.7893  1.6470
  661MOL0     H87202   4.334   7.276   5.265  0.5120  3.0779 -2.1623
  661MOL0     H87203   4.179   7.459   5.229  0.7595  0.2923  0.5340
  661MOL0     H87204   4.108   7.440   5.391  0.2566  2.6581 -1.6128
  661MOL0     H87205   4.096   7.117   5.425  2.6963 -5.4765 -2.2763
  661MOL0     H87206   3.992   6.856   5.284 -2.4818 -2.2109  2.2378
  661MOL0     H87207   3.857   6.899   5.199  1.7873 -3.1297 -1.1117
  661MOL0     H87208   3.791   7.040   5.413  1.0649  0.8409  0.8527
  661MOL0     H87209   3.916   6.941   5.495  0.0801 -0.6299 -0.2297
  661MOL0     H87210   3.672   6.837   5.335 -0.5266 -2.8449 -0.5327
  661MOL0     H87211   3.788   6.727   5.403 -1.5788 -1.0176  0.8326
  661MOL0     H87212   3.761   6.781   5.627 -1.5089 -3.5242  0.3812
  661MOL0     H87213   3.622   6.725   5.569  3.1947 -2.0694  0.1388
  661MOL0     H87214   3.410   6.806   5.516 -3.6753  0.6505  0.2145
  661MOL0     H87215   3.216   6.910   5.468  1.1657 -0.8395 -1.5272
  661MOL0     H87216   3.094   7.488   5.375  0.8928  1.4458  2.2025
  661MOL0     H87217   2.890   7.599   5.282  0.3599 -0.0725 -0.3249
  661MOL0     H87218   2.702   7.557   5.143 -1.0970  0.3705 -0.7877
  661MOL0     H87219   2.556   7.643   5.165 -3.4560 -1.4453 -0.3103
  661MOL0     H87220   2.413   7.448   5.183 -0.3014 -2.8506 -0.2147
  661MOL0     H87221   2.542   7.344   5.204 -1.3605  0.0381  0.6456
  661MOL0     H87222   2.590   7.379   4.948 -1.2561 -0.2032 -1.7260
  661MOL0     H87223   2.520   7.535   4.966  2.2295  0.1612 -2.4352
  661MOL0     H87224   2.383   7.254   4.966  2.3480 -0.8021  0.6614
  661MOL0     H87225   2.297   7.388   5.024  0.9045  0.1270  0.8529
  661MOL0     H87226   2.259   7.312   4.781  0.1169 -0.2800 -1.6321
  661MOL0     H87227   2.427   7.371   4.747 -0.1124  2.9814  0.6060
  661MOL0     H87228   2.369   7.603   4.799  0.1018 -0.4137 -3.8726
  661MOL0     H87229   2.212   7.557   4.862 -2.3712  0.7654 -2.0577
  661MOL0     H87230   2.205   7.673   4.662 -2.0292 -0.6365  0.3469
  661MOL0     H87231   2.300   7.558   4.569  0.4862  0.2125 -0.3821
  661MOL0     H87232   2.126   7.376   4.622 -1.6439 -0.7938  5.0935
  661MOL0     H87233   2.066   7.501   4.519 -1.6028  0.5870 -0.4035
  661MOL0     H87234   2.641   7.329   5.516 -1.2518  1.0705  0.8891
  661MOL0     H87235   2.853   7.234   5.609 -2.5577 -2.1411 -2.1762
  661MOL0     H87236   3.336   7.281   5.650  1.1042  0.6608 -1.1351
  661MOL0     H87237   3.576   7.181   5.663  1.9088 -2.2288 -0.3048
  661MOL0     H87238   4.914   7.745   5.879 -2.5871 -4.1314  0.3292
  661MOL0     H87239   5.144   7.794   5.947  0.5332 -1.8583  1.3534
  661MOL0     H87240   5.554   7.834   5.851 -1.4373 -2.5426 -0.9348
  661MOL0     H87241   5.760   7.932   5.980 -0.4837  0.3951 -0.3694
  661MOL0     H87242   5.931   7.667   6.288  0.8398 -2.3974 -1.7820
  661MOL0     H87243   6.055   7.791   6.279 -3.1612  1.3547  3.5564
  661MOL0     H87244   6.121   7.538   6.230 -1.8042 -0.8846 -1.1268
  661MOL0     H87245   6.056   7.571   6.071 -0.4733 -0.0377 -0.2462
  661MOL0     H87246   6.216   7.773   6.051  2.4605 -0.1847  0.6061
  661MOL0     H87247   6.284   7.618   6.059 -2.1095 -1.2245  0.1740
  661MOL0     H87248   6.262   7.831   6.264 -2.4122 -1.6080  1.3382
  661MOL0     H87249   6.285   7.668   6.332  3.6267 -1.4964  0.5274
  661MOL0     H87250   6.658   7.798   6.175 -1.9057  5.1426 -0.7330
  661MOL0     H87251   5.855   7.521   6.075 -0.8719 -0.9573  1.7414
  661MOL0     H87252   5.653   7.442   5.981 -0.6478  0.3399 -1.3671
  662MOL0     O87253   3.345   5.533  10.227 -0.7338  0.0884 -0.5216
  662MOL0     C87254   3.356   5.479  10.117  0.4325 -0.1118 -0.1655
  662MOL0     O87255   3.260   5.416  10.055 -0.9555 -0.4713  0.4199
  662MOL0     C87256   3.140   5.381  10.110 -1.6426 -0.3813  0.0820
  662MOL0     C87257   3.069   5.454  10.208  0.1082  0.0347 -0.0532
  662MOL0     C87258   2.941   5.416  10.254  0.4184  0.4317  0.4278
  662MOL0     C87259   2.878   5.307  10.195 -0.0968  0.3222  0.0089
  662MOL0     O87260   2.753   5.268  10.230  0.6432 -0.3488 -0.5756
  662MOL0     C87261   2.729   5.258  10.370  0.7142  0.6567 -0.2784
  662MOL0     C87262   2.647   5.136  10.403 -0.0323 -0.4191 -0.1466
  662MOL0     C87263   2.707   5.004  10.362  0.3442  0.3299  0.1600
  662MOL0     C87264   2.628   4.872  10.397 -0.3860  0.0512 -0.5541
  662MOL0     C87265   2.686   4.764  10.302 -0.7920 -0.3953  0.1492
  662MOL0     C87266   2.609   4.781  10.167 -0.2409 -0.0729 -1.0542
  662MOL0     C87267   2.647   4.657  10.092  0.3595  0.5892 -0.0436
  662MOL0     C87268   2.589   4.674   9.942 -0.7857 -0.2763 -0.5737
  662MOL0     N87269   2.682   4.648   9.835 -0.0490  1.3999  0.2211
  662MOL0     C87270   2.722   4.521   9.792  0.6817 -0.0301  0.5012
  662MOL0     C87271   2.815   4.545   9.702 -0.2201 -0.5620  0.4919
  662MOL0     C87272   2.882   4.444   9.615  0.5258 -0.3442 -0.3160
  662MOL0     C87273   2.778   4.398   9.508 -0.4919  0.2345  0.0129
  662MOL0     C87274   2.851   4.358   9.384 -1.0804  0.6339  0.2626
  662MOL0     C87275   2.777   4.337   9.254  0.2214  0.0418 -0.6499
  662MOL0     O87276   2.635   4.373   9.276 -0.8481  1.0430 -0.8993
  662MOL0     C87277   2.541   4.353   9.183  0.2307 -0.5388  0.7204
  662MOL0     C87278   2.568   4.348   9.045 -0.0131  0.0654  0.0063
  662MOL0     C87279   2.464   4.335   8.948 -0.9380 -0.1348 -0.1186
  662MOL0     C87280   2.335   4.333   8.993  0.3607  0.4863 -0.4054
  662MOL0     C87281   2.219   4.307   8.914  0.2841  0.2985  0.7893
  662MOL0     O87282   2.237   4.202   8.825  0.2781  0.7400  0.6615
  662MOL0     C87283   2.138   4.184   8.726  1.2013  0.5764 -0.3782
  662MOL0     C87284   2.104   4.047   8.696  0.1704 -0.6075 -0.3416
  662MOL0     C87285   2.016   4.015   8.594 -0.0159 -0.6594  0.0685
  662MOL0     C87286   1.955   4.112   8.520 -0.1192 -0.5883  0.2668
  662MOL0     O87287   1.872   4.082   8.420  0.0502  0.5484  0.8395
  662MOL0     C87288   1.741   4.145   8.428 -0.1104  0.0032  0.3469
  662MOL0     C87289   1.657   4.081   8.319  0.8913  0.3737 -0.6173
  662MOL0     C87290   1.526   4.160   8.325 -0.6596  0.3485 -0.0282
  662MOL0     C87291   1.426   4.096   8.228 -0.2293  0.5079  0.1758
  662MOL0     C87292   1.288   4.162   8.216  0.3868  0.5889  0.5057
  662MOL0     C87293   1.212   4.130   8.083 -1.0804  0.0252 -0.1997
  662MOL0     C87294   1.231   3.982   8.043  0.8310  0.2262  0.2617
  662MOL0     C87295   1.133   3.917   7.945  1.3604  0.1688  0.2882
  662MOL0    Cl87296   1.129   4.032   7.804 -0.5476  0.1848  0.3007
  662MOL0     C87297   1.980   4.250   8.549 -0.0285 -0.1788  0.2140
  662MOL0     C87298   2.068   4.286   8.656 -0.2831  0.6083  0.4093
  662MOL0     O87299   2.119   4.361   8.942  0.3544 -0.0977  0.1905
  662MOL0     C87300   2.310   4.343   9.133 -1.0403  0.0344  0.0090
  662MOL0     C87301   2.410   4.361   9.231  0.0529  0.5838 -0.2452
  662MOL0     N87302   2.818   4.683   9.682 -0.4863  0.0724 -0.1939
  662MOL0     N87303   2.740   4.740   9.768  0.0592 -0.9363  0.2361
  662MOL0     C87304   2.945   5.236  10.091  0.4189  0.0167  0.1390
  662MOL0     C87305   3.081   5.263  10.054 -0.0870 -0.8497 -0.8395
  662MOL0     C87306   3.476   5.503  10.040 -0.9508  0.2908  0.3794
  662MOL0     C87307   3.486   5.481   9.901  0.1804 -0.1093  0.6551
  662MOL0     C87308   3.603   5.496   9.832 -0.2499  0.8351  0.4757
  662MOL0     C87309   3.711   5.552   9.893 -0.0438 -0.4228 -0.0830
  662MOL0     O87310   3.822   5.583   9.814  0.3218  0.1455 -0.1769
  662MOL0     C87311   3.897   5.707   9.842  0.5338 -0.0269  0.1958
  662MOL0     C87312   3.962   5.763   9.718  0.2420 -0.3694 -0.0731
  662MOL0     C87313   3.856   5.838   9.624 -0.1053  0.4213  0.0082
  662MOL0     C87314   3.906   5.820   9.483 -0.3060  0.1566  0.3006
  662MOL0     C87315   4.024   5.908   9.445  0.2543  0.4520  0.3765
  662MOL0     C87316   4.122   5.980   9.416  0.4399 -0.8076 -0.0914
  662MOL0     C87317   3.712   5.580  10.028 -0.1205  0.5382  0.4015
  662MOL0     C87318   3.593   5.554  10.102  0.5941 -0.7989  0.1989
  662MOL0     H87319   3.114   5.543  10.251  0.1722 -0.3700  0.7557
  662MOL0     H87320   2.886   5.471  10.330 -0.4559  0.8927 -0.5215
  662MOL0     H87321   2.674   5.346  10.405  0.3212 -0.5120  2.2816
  662MOL0     H87322   2.820   5.274  10.428 -0.4321  6.0779  0.5620
  662MOL0     H87323   2.553   5.147  10.349 -1.4712 -1.6988  1.9469
  662MOL0     H87324   2.633   5.129  10.511 -1.8551  1.3265 -0.1926
  662MOL0     H87325   2.808   5.003  10.404  1.1049  2.7334 -1.4308
  662MOL0     H87326   2.719   5.008  10.253 -2.0872 -0.5852 -0.1994
  662MOL0     H87327   2.645   4.853  10.503 -1.6714 -1.5525 -0.5968
  662MOL0     H87328   2.519   4.871  10.386 -0.4625  0.2506  0.1289
  662MOL0     H87329   2.662   4.668  10.348 -0.3150 -0.2286  0.7593
  662MOL0     H87330   2.794   4.753  10.288 -0.7984  0.2639 -0.4528
  662MOL0     H87331   2.645   4.865  10.107  1.3048 -1.3133 -1.9517
  662MOL0     H87332   2.501   4.797  10.176  0.0467  1.3691  0.2058
  662MOL0     H87333   2.756   4.659  10.098  0.2712  2.3881  2.3189
  662MOL0     H87334   2.608   4.565  10.137 -1.5629  0.1170 -2.4600
  662MOL0     H87335   2.564   4.780   9.942  1.2262  0.2536 -0.2361
  662MOL0     H87336   2.494   4.626   9.919 -0.1954 -1.7881 -0.0157
  662MOL0     H87337   2.675   4.430   9.829 -1.2802  0.8431  0.2567
  662MOL0     H87338   2.901   4.351   9.670 -0.3392 -1.1888 -1.3950
  662MOL0     H87339   2.981   4.480   9.584  1.4086 -4.7106 -3.7326
  662MOL0     H87340   2.709   4.479   9.486 -3.7844 -1.4866  2.9823
  662MOL0     H87341   2.715   4.313   9.537  0.7164  0.0808  2.5098
  662MOL0     H87342   2.910   4.448   9.363 -0.4047  1.0198  3.4158
  662MOL0     H87343   2.925   4.281   9.407  0.9317  2.5369  0.5169
  662MOL0     H87344   2.794   4.235   9.216  1.2651  0.9853 -2.8960
  662MOL0     H87345   2.816   4.401   9.175  1.6817 -2.0207 -1.6810
  662MOL0     H87346   2.671   4.353   9.012 -0.5297  1.6331 -1.5287
  662MOL0     H87347   2.495   4.334   8.844  1.2190  2.5784  0.3838
  662MOL0     H87348   2.154   3.967   8.751 -0.0781 -0.2873  0.3680
  662MOL0     H87349   2.002   3.912   8.565  2.3642 -0.8656 -0.5062
  662MOL0     H87350   1.754   4.246   8.389 -0.5744 -0.8092 -2.1369
  662MOL0     H87351   1.692   4.145   8.525 -1.0694  0.8856 -0.1249
  662MOL0     H87352   1.634   3.979   8.352  0.1590  0.8658  0.4523
  662MOL0     H87353   1.704   4.083   8.220 -2.7841 -0.1345 -2.5666
  662MOL0     H87354   1.558   4.259   8.292  0.4871  0.2850  0.8116
  662MOL0     H87355   1.480   4.167   8.424  2.5922 -2.2404  1.9240
  662MOL0     H87356   1.477   4.094   8.131 -0.3772 -2.1966  0.0776
  662MOL0     H87357   1.412   3.989   8.246  0.1704 -0.2521 -3.2223
  662MOL0     H87358   1.311   4.269   8.212  0.4592  0.6569  2.2623
  662MOL0     H87359   1.231   4.145   8.307 -0.8537  0.0989 -0.3413
  662MOL0     H87360   1.239   4.199   8.003 -1.7486  1.0514  0.4368
  662MOL0     H87361   1.106   4.130   8.111 -1.2593 -0.9027 -0.7995
  662MOL0     H87362   1.336   3.964   8.015  0.5876 -0.4253 -0.2680
  662MOL0     H87363   1.215   3.915   8.127 -0.7729 -0.3355 -0.4619
  662MOL0     H87364   1.040   3.890   7.996  1.2385 -0.8584 -0.4335
  662MOL0     H87365   1.174   3.817   7.922 -2.7066 -1.4823 -0.6902
  662MOL0     H87366   1.942   4.330   8.487  1.1269  0.2991  0.0973
  662MOL0     H87367   2.102   4.388   8.668  0.4972  0.6014 -1.3913
  662MOL0     H87368   2.208   4.351   9.168 -0.6865  0.5944  0.9630
  662MOL0     H87369   2.393   4.381   9.337  1.1420 -1.6862  0.4199
  662MOL0     H87370   2.906   5.142  10.055 -0.0868 -0.1873  1.1892
  662MOL0     H87371   3.142   5.197   9.994  0.2707 -0.5990 -0.7607
  662MOL0     H87372   3.395   5.447   9.851 -0.4142  0.7740  1.1141
  662MOL0     H87373   3.598   5.484   9.724  2.7124  2.8538 -0.0106
  662MOL0     H87374   3.974   5.683   9.917 -0.4835  0.6381  1.4801
  662MOL0     H87375   3.831   5.785   9.879 -1.5239 -0.2760 -2.6654
  662MOL0     H87376   4.026   5.844   9.753 -2.4086  1.5869  0.5605
  662MOL0     H87377   4.017   5.687   9.661  0.3470  0.8479 -1.6490
  662MOL0     H87378   3.845   5.940   9.662 -4.0975 -0.1815  0.9136
  662MOL0     H87379   3.755   5.800   9.636 -0.2783  1.3693  2.0866
  662MOL0     H87380   3.939   5.719   9.458 -1.5117  0.0647 -1.0627
  662MOL0     H87381   3.818   5.839   9.421  0.1081 -1.9490 -1.0286
  662MOL0     H87382   4.195   6.054   9.390 -1.9080  1.6545 -0.1692
  662MOL0     H87383   3.806   5.618  10.066 -0.9634  1.0806  2.0341
  662MOL0     H87384   3.599   5.571  10.209  2.0891 -3.0475  0.5536
  663MOL0     O87385   0.725   3.889   0.320  0.0104  1.0053  0.1825
  663MOL0     C87386   0.799   3.871   0.225  0.9631  0.4036  0.3465
  663MOL0     O87387   0.768   3.786   0.121  0.2914  0.8589 -0.0351
  663MOL0     C87388   0.663   3.699   0.131  0.3483  0.7528 -0.1248
  663MOL0     C87389   0.535   3.743   0.149  0.8331  0.0876  0.5137
  663MOL0     C87390   0.434   3.644   0.150  0.4967 -0.2532 -0.1436
  663MOL0     C87391   0.450   3.511   0.133  0.1483  0.3937 -0.4201
  663MOL0     O87392   0.367   3.402   0.123 -0.4016  0.5311  0.4134
  663MOL0     C87393   0.224   3.425   0.118  0.0795  0.4349 -0.3551
  663MOL0     C87394   0.156   3.424   0.260  0.7724  0.8547  0.4167
  663MOL0     C87395   0.131   3.278   0.296 -0.7523  0.3523  0.2786
  663MOL0     C87396   0.077   3.265   0.443 -0.3820  0.1029 -0.2318
  663MOL0     C87397   0.056   3.116   0.484 -0.0094  0.1469  0.5708
  663MOL0     C87398  -0.009   3.116   0.629 -0.9204  1.2861 -0.4555
  663MOL0     C87399  -0.020   2.970   0.682 -0.1553 -0.5230  0.3739
  663MOL0     C87400  -0.134   2.892   0.624 -0.1056 -0.8370  0.0694
  663MOL0     N87401  -0.261   2.947   0.688 -1.2042  0.1769 -0.7018
  663MOL0     C87402  -0.284   2.958   0.821 -0.3032  0.5129 -0.5478
  663MOL0     C87403  -0.396   3.025   0.834 -0.3182 -0.8479 -1.1619
  663MOL0     C87404  -0.468   3.047   0.956  0.4852 -0.3199 -0.0645
  663MOL0     C87405  -0.607   2.979   0.946  0.2248 -0.3672 -0.6946
  663MOL0     C87406  -0.705   3.072   0.874  0.5162 -0.0441 -0.6409
  663MOL0     C87407  -0.845   3.019   0.878  0.3066  0.4990 -0.2983
  663MOL0     O87408  -0.929   3.123   0.816 -0.0248 -0.1445  0.0203
  663MOL0     C87409  -1.066   3.094   0.828 -0.0822 -0.0299  0.5221
  663MOL0     C87410  -1.121   2.972   0.877 -0.5914 -0.2070  0.5357
  663MOL0     C87411  -1.258   2.951   0.880 -0.4505 -0.2277 -0.4854
  663MOL0     C87412  -1.353   3.046   0.837  0.3630  0.1478  0.0242
  663MOL0     C87413  -1.508   3.032   0.860 -0.2257 -0.0552  0.7040
  663MOL0     O87414  -1.592   3.141   0.817 -0.2565  0.7306  0.2627
  663MOL0     C87415  -1.734   3.138   0.828 -0.4557 -0.2087  0.9369
  663MOL0     C87416  -1.797   3.258   0.793  0.6196  0.7497 -0.6883
  663MOL0     C87417  -1.939   3.267   0.793  0.1501  0.7544 -0.4670
  663MOL0     C87418  -2.018   3.163   0.851 -0.8294  0.0549 -0.1549
  663MOL0     O87419  -2.151   3.181   0.859 -0.4522 -0.5155  0.2972
  663MOL0     C87420  -2.226   3.090   0.939  0.0210  0.6274 -0.6581
  663MOL0     C87421  -2.365   3.155   0.968  0.5864 -0.1588  0.8736
  663MOL0     C87422  -2.445   3.070   1.061  0.0230  0.5245  0.2088
  663MOL0     C87423  -2.583   3.128   1.082  0.7124 -0.7910 -0.4528
  663MOL0     C87424  -2.669   3.024   1.158 -0.4107  0.5816 -0.5028
  663MOL0     C87425  -2.802   3.077   1.212  0.2685  0.3715  0.6788
  663MOL0     C87426  -2.889   2.963   1.260  0.0474 -0.2285  0.0069
  663MOL0     C87427  -3.034   3.011   1.308  0.5862 -0.3849 -0.1719
  663MOL0    Cl87428  -3.145   3.074   1.177 -0.2925  0.2983  0.2797
  663MOL0     C87429  -1.952   3.045   0.892  0.3084  0.1618  0.4020
  663MOL0     C87430  -1.812   3.028   0.880 -1.3546 -1.0839 -0.8787
  663MOL0     O87431  -1.544   2.930   0.913 -0.3753 -0.2835  0.9401
  663MOL0     C87432  -1.303   3.164   0.780 -0.2096 -0.2852  0.1042
  663MOL0     C87433  -1.161   3.180   0.767  0.9795  0.2554  0.9809
  663MOL0     N87434  -0.428   3.072   0.703 -0.7173  0.0051 -0.2029
  663MOL0     N87435  -0.347   3.023   0.616  0.5149 -0.1854 -0.0106
  663MOL0     C87436   0.586   3.474   0.126 -0.0665 -0.4829  0.5907
  663MOL0     C87437   0.692   3.566   0.127 -0.1728  0.0422 -0.3119
  663MOL0     C87438   0.913   3.957   0.219 -0.3253  0.3401 -0.9541
  663MOL0     C87439   0.917   4.074   0.285 -0.0147  0.2242  0.4215
  663MOL0     C87440   1.028   4.171   0.272 -0.4720 -0.1051 -0.4055
  663MOL0     C87441   1.128   4.160   0.178  0.0571  0.3980 -0.8002
  663MOL0     O87442   1.207   4.262   0.171  0.3943 -0.4455 -0.6147
  663MOL0     C87443   1.318   4.240   0.084 -1.0509  0.8868 -0.6718
  663MOL0     C87444   1.401   4.372   0.075  0.9768  0.1258  0.2273
  663MOL0     C87445   1.538   4.353   0.002 -0.1873 -0.4014  0.1823
  663MOL0     C87446   1.633   4.471  -0.014 -0.3058  1.2671  0.3803
  663MOL0     C87447   1.741   4.437  -0.107  0.2254  0.0149  0.8744
  663MOL0     C87448   1.842   4.419  -0.179  0.7392 -0.0591 -0.4120
  663MOL0     C87449   1.128   4.030   0.112  0.4684 -0.3092  0.6715
  663MOL0     C87450   1.020   3.932   0.126  0.2648 -0.7573 -1.0416
  663MOL0     H87451   0.505   3.845   0.172 -4.0991 -1.2213  1.0341
  663MOL0     H87452   0.336   3.689   0.160  0.3551 -1.0369  4.3774
  663MOL0     H87453   0.161   3.363   0.054 -0.3075  0.3470  0.1081
  663MOL0     H87454   0.208   3.525   0.076 -1.8536  0.4373  0.3172
  663MOL0     H87455   0.067   3.488   0.261  1.3859  1.7301  0.1288
  663MOL0     H87456   0.234   3.464   0.326  2.4684  0.1606 -1.0745
  663MOL0     H87457   0.227   3.228   0.286 -0.2389  1.7435 -2.6943
  663MOL0     H87458   0.048   3.242   0.235 -2.6001  2.1072  1.6217
  663MOL0     H87459   0.152   3.310   0.509 -1.9752 -0.0316  1.7779
  663MOL0     H87460  -0.017   3.320   0.450 -1.0690 -0.7229 -2.3003
  663MOL0     H87461   0.160   3.083   0.485  0.7543  2.3765  1.0970
  663MOL0     H87462  -0.002   3.063   0.409 -0.5020 -0.9422  1.6897
  663MOL0     H87463  -0.108   3.161   0.619 -1.3877  0.4911  0.3571
  663MOL0     H87464   0.054   3.173   0.698  2.0983 -0.4429 -1.5915
  663MOL0     H87465   0.066   2.902   0.679  0.6964  0.3944  2.3091
  663MOL0     H87466  -0.030   2.980   0.790  3.2332  0.6466  0.6993
  663MOL0     H87467  -0.130   2.788   0.659  1.9466 -0.5499  0.8190
  663MOL0     H87468  -0.136   2.894   0.515 -0.7168 -3.4677 -0.0269
  663MOL0     H87469  -0.226   2.924   0.906  1.1634  2.5903 -0.6575
  663MOL0     H87470  -0.479   3.152   0.988 -4.4957 -1.1781  1.9613
  663MOL0     H87471  -0.413   3.002   1.039  4.8308 -1.7226 -3.4115
  663MOL0     H87472  -0.656   2.964   1.042 -4.9972 -1.6984 -3.1918
  663MOL0     H87473  -0.606   2.885   0.890 -0.3522 -0.4202 -0.6117
  663MOL0     H87474  -0.700   3.171   0.919 -1.3640  1.0745 -2.6828
  663MOL0     H87475  -0.681   3.071   0.767 -0.4467  1.6801 -0.9070
  663MOL0     H87476  -0.862   3.008   0.986  0.1976  0.8781 -0.2766
  663MOL0     H87477  -0.846   2.920   0.831 -0.1187 -0.3442  1.3940
  663MOL0     H87478  -1.054   2.895   0.914  0.0515  0.3637  0.5692
  663MOL0     H87479  -1.292   2.855   0.919 -0.4705  0.0404  0.1756
  663MOL0     H87480  -1.729   3.338   0.767  2.7507 -1.0505 -0.9833
  663MOL0     H87481  -1.995   3.353   0.757 -1.9358 -0.0993  0.5414
  663MOL0     H87482  -2.180   3.092   1.038 -3.7103 -1.4909  1.3350
  663MOL0     H87483  -2.232   2.989   0.896  0.1134  0.0730  0.5915
  663MOL0     H87484  -2.411   3.168   0.870  1.8329  0.0712  0.2941
  663MOL0     H87485  -2.353   3.255   1.011  0.8280 -0.8202  2.4145
  663MOL0     H87486  -2.397   3.049   1.158 -2.7425  0.0018  1.5676
  663MOL0     H87487  -2.474   2.976   1.013  0.2960  1.6654 -2.3218
  663MOL0     H87488  -2.583   3.218   1.145  1.3384 -1.8720  1.1437
  663MOL0     H87489  -2.625   3.165   0.988 -1.8595 -1.7437  0.2343
  663MOL0     H87490  -2.609   2.985   1.241 -0.4569  1.7963  0.1380
  663MOL0     H87491  -2.691   2.945   1.087 -1.0414 -1.5969  1.9551
  663MOL0     H87492  -2.849   3.119   1.122 -1.2888 -2.5309  0.0193
  663MOL0     H87493  -2.803   3.157   1.287 -1.6546  1.7587 -0.7210
  663MOL0     H87494  -2.887   2.892   1.177  0.4559 -1.8289  1.3230
  663MOL0     H87495  -2.841   2.905   1.340 -0.7784 -0.8378  0.0694
  663MOL0     H87496  -3.019   3.101   1.368  0.9471  0.0053 -0.8340
  663MOL0     H87497  -3.083   2.923   1.350  1.7451 -1.8331 -1.7095
  663MOL0     H87498  -1.999   2.958   0.938  2.2410 -1.6043 -0.7478
  663MOL0     H87499  -1.778   2.931   0.913  2.3403 -1.1133 -4.0048
  663MOL0     H87500  -1.370   3.245   0.754  0.4394 -0.9539 -4.7409
  663MOL0     H87501  -1.136   3.268   0.708 -1.3124  0.7031  0.5791
  663MOL0     H87502   0.608   3.368   0.121  1.1753 -0.2016 -0.5213
  663MOL0     H87503   0.797   3.541   0.129 -0.1978 -0.2275  3.0110
  663MOL0     H87504   0.836   4.093   0.355 -2.7115  2.9999 -3.0732
  663MOL0     H87505   1.031   4.258   0.336 -2.9093  0.9298 -1.5928
  663MOL0     H87506   1.287   4.212  -0.017 -2.6826  1.4614 -0.3565
  663MOL0     H87507   1.377   4.164   0.137 -1.3304  1.1715  0.0536
  663MOL0     H87508   1.344   4.449   0.022  0.9603 -0.0549 -0.0231
  663MOL0     H87509   1.418   4.403   0.178  1.1125  2.2748 -0.3976
  663MOL0     H87510   1.508   4.324  -0.099  1.3881 -0.4628 -0.2828
  663MOL0     H87511   1.593   4.270   0.048 -0.8266 -1.5314 -1.0152
  663MOL0     H87512   1.578   4.560  -0.047 -1.5776 -0.1655 -1.5677
  663MOL0     H87513   1.690   4.480   0.079 -0.0418 -0.6928  0.4536
  663MOL0     H87514   1.916   4.387  -0.249 -1.0491 -1.4521 -1.7670
  663MOL0     H87515   1.205   4.003   0.041  2.6615  0.0374  2.7620
  663MOL0     H87516   1.031   3.834   0.081 -2.7331 -1.6238 -0.1238
  664MOL0     O87517   8.559   7.815   8.635  0.1188  0.5147 -0.2884
  664MOL0     C87518   8.585   7.867   8.529 -0.1913 -0.2629  0.1811
  664MOL0     O87519   8.516   7.968   8.474 -0.6838 -0.6532  0.2456
  664MOL0     C87520   8.386   7.980   8.519 -0.2609 -0.1922  0.0533
  664MOL0     C87521   8.336   8.095   8.575  0.2316 -0.4070 -0.3543
  664MOL0     C87522   8.204   8.113   8.608  0.5351 -0.3564  0.9969
  664MOL0     C87523   8.107   8.024   8.563  0.2423 -0.7006  0.1345
  664MOL0     O87524   7.972   8.053   8.582  0.5527  0.3409 -0.0647
  664MOL0     C87525   7.926   8.102   8.713  0.2803  0.4131 -0.2109
  664MOL0     C87526   7.797   8.179   8.705 -0.1917  0.5042 -0.0853
  664MOL0     C87527   7.712   8.171   8.830  0.1704 -0.4258 -1.4930
  664MOL0     C87528   7.589   8.267   8.824  0.3921 -0.5742 -0.1915
  664MOL0     C87529   7.485   8.214   8.937 -0.6056 -0.0084  1.3207
  664MOL0     C87530   7.540   8.262   9.074  0.6168  0.0368  0.6222
  664MOL0     C87531   7.470   8.193   9.195 -0.5033  0.6600  0.1585
  664MOL0     C87532   7.499   8.257   9.333 -0.7051 -0.6198  0.0650
  664MOL0     N87533   7.420   8.192   9.437  0.2648  0.1326  0.1701
  664MOL0     C87534   7.438   8.063   9.484  0.2090 -0.4141 -0.0698
  664MOL0     C87535   7.335   8.047   9.573  0.5985 -1.6605 -0.9878
  664MOL0     C87536   7.311   7.927   9.666 -0.3139 -0.2035  0.3711
  664MOL0     C87537   7.260   7.802   9.587  0.7105  0.5652 -0.4284
  664MOL0     C87538   7.195   7.703   9.683  0.5627  0.6033  0.6161
  664MOL0     C87539   7.136   7.589   9.611 -0.8522 -0.3466 -0.0764
  664MOL0     O87540   7.020   7.632   9.546 -0.4690  0.0825  0.9411
  664MOL0     C87541   6.907   7.661   9.618  0.4312  0.5215  0.5259
  664MOL0     C87542   6.848   7.779   9.591  0.5685 -0.2338  0.6725
  664MOL0     C87543   6.741   7.819   9.667 -0.3223 -0.4884  0.4545
  664MOL0     C87544   6.688   7.739   9.767  0.1349  0.2680  0.0239
  664MOL0     C87545   6.569   7.774   9.845 -0.4254  0.0905 -0.1910
  664MOL0     O87546   6.470   7.872   9.810  0.1195 -0.3518 -0.6861
  664MOL0     C87547   6.362   7.909   9.892 -0.3206 -1.8065 -0.0802
  664MOL0     C87548   6.271   7.809   9.925 -0.3085  0.4101 -0.2114
  664MOL0     C87549   6.160   7.838  10.006  0.1185  0.7636 -0.4870
  664MOL0     C87550   6.133   7.967  10.042 -0.8240 -0.1304  0.2838
  664MOL0     O87551   6.018   7.998  10.107  0.0360 -0.2780  0.1315
  664MOL0     C87552   6.003   8.130  10.155  0.0381 -0.4413 -0.2009
  664MOL0     C87553   5.877   8.138  10.238 -0.5321 -0.2003  0.1012
  664MOL0     C87554   5.874   8.050  10.364 -0.8011 -0.0228  0.0045
  664MOL0     C87555   5.725   8.036  10.413 -0.0531 -0.5500  0.1005
  664MOL0     C87556   5.638   7.944  10.327 -0.2862 -0.0416  0.9432
  664MOL0     C87557   5.488   7.965  10.365  0.7950 -0.3125  0.0513
  664MOL0     C87558   5.418   7.823  10.342 -0.6463 -0.9254  0.1808
  664MOL0     C87559   5.268   7.839  10.341  0.2633  0.9677  0.2778
  664MOL0    Cl87560   5.207   7.904  10.194 -0.1832 -0.0295 -0.5787
  664MOL0     C87561   6.215   8.074   9.996  0.3917 -0.0374 -0.4823
  664MOL0     C87562   6.332   8.045   9.929 -0.1821 -0.1017  0.1917
  664MOL0     O87563   6.559   7.700   9.944  0.6072 -0.1950  0.5090
  664MOL0     C87564   6.750   7.620   9.797 -0.2897  0.3653 -0.2482
  664MOL0     C87565   6.863   7.584   9.724 -0.0181 -0.9044 -0.2424
  664MOL0     N87566   7.254   8.165   9.570 -0.5203  0.0238  0.0852
  664MOL0     N87567   7.316   8.253   9.492  0.8177  0.0384 -0.0137
  664MOL0     C87568   8.150   7.915   8.483  0.6182 -0.5608  0.1354
  664MOL0     C87569   8.292   7.898   8.460  0.0345  0.0186 -0.4333
  664MOL0     C87570   8.704   7.821   8.472 -0.3069  0.0589 -0.2453
  664MOL0     C87571   8.815   7.780   8.544 -0.1765  0.2823 -0.2734
  664MOL0     C87572   8.942   7.759   8.488  0.0239  0.2994 -0.1344
  664MOL0     C87573   8.964   7.772   8.354 -0.2902 -0.3266  0.4863
  664MOL0     O87574   9.084   7.739   8.301 -0.3362  0.0030  0.2972
  664MOL0     C87575   9.112   7.758   8.155  0.5807  0.4955 -0.5105
  664MOL0     C87576   9.227   7.683   8.101  0.4840 -0.3027  0.2277
  664MOL0     C87577   9.279   7.739   7.964  0.9134 -0.2466  0.1218
  664MOL0     C87578   9.419   7.676   7.935 -0.3603 -0.1593  1.2294
  664MOL0     C87579   9.443   7.704   7.794  0.4161  0.7305  0.1155
  664MOL0     C87580   9.464   7.732   7.679 -0.6999  1.0551  0.4332
  664MOL0     C87581   8.851   7.796   8.279  0.1335 -0.1886 -0.8751
  664MOL0     C87582   8.724   7.829   8.331 -0.6904  0.2690 -0.4180
  664MOL0     H87583   8.411   8.172   8.589  0.0571 -0.5666  1.6763
  664MOL0     H87584   8.178   8.210   8.651 -0.6550  1.7657 -3.7966
  664MOL0     H87585   8.001   8.162   8.765 -2.0437  1.0518  2.6197
  664MOL0     H87586   7.912   8.026   8.789 -2.3174  1.9166  0.9301
  664MOL0     H87587   7.739   8.143   8.620  2.9659 -2.0793 -1.3300
  664MOL0     H87588   7.839   8.280   8.704  2.0922 -0.3606  1.4090
  664MOL0     H87589   7.775   8.211   8.909 -1.3290 -1.2021  0.1783
  664MOL0     H87590   7.687   8.065   8.835 -0.6775 -0.2096 -0.8629
  664MOL0     H87591   7.629   8.367   8.842  1.2480 -1.0275  0.4786
  664MOL0     H87592   7.555   8.255   8.721  0.4905 -0.7567 -0.2033
  664MOL0     H87593   7.488   8.106   8.923 -1.2117  0.2243 -1.0841
  664MOL0     H87594   7.386   8.259   8.921 -0.9344 -1.4200 -1.0769
  664MOL0     H87595   7.511   8.366   9.087 -1.9486 -0.3082 -1.4328
  664MOL0     H87596   7.646   8.239   9.088  1.0687  1.4854 -0.1971
  664MOL0     H87597   7.361   8.194   9.201 -0.4419 -0.5451  2.3648
  664MOL0     H87598   7.492   8.086   9.194  0.4947  0.8481  0.3931
  664MOL0     H87599   7.481   8.365   9.331  0.3662 -0.4100  0.7791
  664MOL0     H87600   7.605   8.239   9.352 -0.9147 -1.0122  0.9258
  664MOL0     H87601   7.511   7.991   9.447  0.4199  1.3582 -3.5740
  664MOL0     H87602   7.238   7.950   9.743 -2.3270  1.3935 -1.8733
  664MOL0     H87603   7.409   7.904   9.710 -1.5632 -2.4083  2.1942
  664MOL0     H87604   7.337   7.751   9.529 -0.3157  0.5375 -1.8332
  664MOL0     H87605   7.190   7.828   9.506  1.4135  1.2241 -0.8447
  664MOL0     H87606   7.276   7.654   9.737 -0.4081 -0.8548  0.8092
  664MOL0     H87607   7.121   7.749   9.750 -0.5263  2.3214 -1.6299
  664MOL0     H87608   7.106   7.512   9.683 -0.1534 -1.0262 -0.5115
  664MOL0     H87609   7.213   7.541   9.550  1.1398 -0.5311  2.3951
  664MOL0     H87610   6.869   7.842   9.506 -2.0044  1.1168  0.9397
  664MOL0     H87611   6.698   7.916   9.644  2.1365  0.6372  0.2984
  664MOL0     H87612   6.279   7.708   9.885 -1.2891  0.4210 -0.4752
  664MOL0     H87613   6.084   7.766  10.035 -1.1028  2.9545  2.2008
  664MOL0     H87614   5.993   8.197  10.069  1.6921  0.1910  0.0526
  664MOL0     H87615   6.087   8.162  10.218  2.7729 -3.6260 -1.9438
  664MOL0     H87616   5.790   8.120  10.175 -2.1240  0.8266  1.8881
  664MOL0     H87617   5.871   8.242  10.269  1.0756 -0.3737  1.1399
  664MOL0     H87618   5.934   8.104  10.437  1.1988 -0.2737 -1.3915
  664MOL0     H87619   5.917   7.951  10.348 -1.3975 -0.5108  1.2978
  664MOL0     H87620   5.721   7.998  10.515  3.1112 -0.7217  0.2635
  664MOL0     H87621   5.673   8.131  10.396  0.4280 -0.6466 -2.2125
  664MOL0     H87622   5.666   7.841  10.352  2.1405  0.2843 -0.1723
  664MOL0     H87623   5.650   7.959  10.219  2.0684 -0.5443  1.0783
  664MOL0     H87624   5.438   8.042  10.305  0.6677  0.5637  1.2541
  664MOL0     H87625   5.475   8.013  10.462 -1.5186  0.9661 -0.7879
  664MOL0     H87626   5.451   7.787  10.244 -0.1818 -0.9694  0.3469
  664MOL0     H87627   5.452   7.752  10.419 -2.9985 -0.5633  1.6751
  664MOL0     H87628   5.235   7.871  10.440 -0.8681 -3.2531  1.4503
  664MOL0     H87629   5.246   7.733  10.324  3.4299  0.6679 -3.6361
  664MOL0     H87630   6.193   8.178  10.017 -1.4861 -0.1360 -1.6716
  664MOL0     H87631   6.405   8.119   9.898  0.2772 -0.1723  1.0563
  664MOL0     H87632   6.715   7.544   9.865 -0.3515 -1.3224 -2.0747
  664MOL0     H87633   6.904   7.486   9.744 -1.0813 -1.3012  0.0733
  664MOL0     H87634   8.085   7.852   8.424 -0.3445 -0.7851  1.3857
  664MOL0     H87635   8.316   7.814   8.395  0.6527  1.0559 -1.5739
  664MOL0     H87636   8.810   7.776   8.652  3.3788 -0.8806 -0.0260
  664MOL0     H87637   9.015   7.732   8.563 -1.1250 -0.3067  0.7928
  664MOL0     H87638   9.126   7.867   8.151 -0.9023  0.9354  2.6732
  664MOL0     H87639   9.025   7.739   8.091  1.6933  2.1505 -2.6389
  664MOL0     H87640   9.304   7.693   8.178  0.4282  1.9420  0.0662
  664MOL0     H87641   9.195   7.580   8.085  0.2305 -0.2816  0.5913
  664MOL0     H87642   9.300   7.845   7.974  1.5908 -0.4901  1.6051
  664MOL0     H87643   9.203   7.727   7.886 -3.9872  2.0783  3.9798
  664MOL0     H87644   9.495   7.739   7.982 -1.3820  2.4947 -0.4502
  664MOL0     H87645   9.424   7.571   7.964  3.2730 -0.4130  0.1732
  664MOL0     H87646   9.496   7.742   7.578  0.6014  0.2454  0.7424
  664MOL0     H87647   8.850   7.792   8.171 -0.4665 -0.2575 -0.8716
  664MOL0     H87648   8.639   7.859   8.271 -0.3517 -0.3066 -1.1949
  665MOL0     O87649   5.746   3.681   8.640  0.5745 -0.5229  0.4079
  665MOL0     C87650   5.719   3.779   8.577 -1.4272 -0.5652  0.2318
  665MOL0     O87651   5.798   3.832   8.476 -0.0071  0.1148  0.0603
  665MOL0     C87652   5.908   3.765   8.428  0.2595  0.3158 -0.9507
  665MOL0     C87653   6.022   3.764   8.509 -0.5263 -0.6175  0.2854
  665MOL0     C87654   6.147   3.703   8.467 -0.3858 -0.1118  0.3413
  665MOL0     C87655   6.146   3.629   8.346 -1.0008 -0.2128  0.4422
  665MOL0     O87656   6.251   3.551   8.316 -0.2452 -0.4499  0.3827
  665MOL0     C87657   6.261   3.489   8.182 -0.5166 -0.6787 -0.3228
  665MOL0     C87658   6.406   3.437   8.169  0.0507  0.2619  0.4519
  665MOL0     C87659   6.432   3.386   8.028  0.4495 -0.8280  0.0757
  665MOL0     C87660   6.571   3.339   8.006 -0.5734 -0.3149 -0.9452
  665MOL0     C87661   6.585   3.287   7.859 -0.7395 -0.3456 -0.4879
  665MOL0     C87662   6.738   3.262   7.820 -0.4221 -0.1287 -0.0487
  665MOL0     C87663   6.808   3.396   7.791 -0.2937 -0.8272  0.5727
  665MOL0     C87664   6.866   3.415   7.654 -0.1754 -0.7125  1.0055
  665MOL0     N87665   6.752   3.431   7.552  0.5417  0.4283 -0.7269
  665MOL0     C87666   6.694   3.550   7.532  0.0934  0.3776 -1.0058
  665MOL0     C87667   6.601   3.541   7.432  0.0459  1.1363 -0.9499
  665MOL0     C87668   6.494   3.625   7.379 -1.4002 -0.8829 -0.1916
  665MOL0     C87669   6.364   3.618   7.469  0.0434  1.0694  0.4523
  665MOL0     C87670   6.384   3.658   7.614 -0.7233 -1.1061 -0.4574
  665MOL0     C87671   6.278   3.720   7.709 -1.2517 -0.4930 -0.1922
  665MOL0     O87672   6.146   3.693   7.671  0.6145 -0.0882 -0.4763
  665MOL0     C87673   6.044   3.730   7.760  0.0093  0.4822  0.4029
  665MOL0     C87674   5.911   3.713   7.725 -0.1542  0.1347  0.0683
  665MOL0     C87675   5.810   3.762   7.804 -0.2285  0.0267 -0.0409
  665MOL0     C87676   5.839   3.819   7.927  0.2092 -0.7224 -0.7366
  665MOL0     C87677   5.731   3.869   8.010  0.5651  0.4433  0.5028
  665MOL0     O87678   5.603   3.864   7.950  0.1902  0.2015  0.4425
  665MOL0     C87679   5.499   3.862   8.041 -0.8527 -0.0272  0.6734
  665MOL0     C87680   5.421   3.977   8.050 -0.4666  0.2527 -0.6353
  665MOL0     C87681   5.309   3.976   8.125 -0.0556  0.2367  0.0524
  665MOL0     C87682   5.275   3.872   8.212  0.0994  1.6882  1.2991
  665MOL0     O87683   5.155   3.877   8.290  0.1543 -1.5122  0.1683
  665MOL0     C87684   5.108   3.769   8.365  0.0523  0.2520  0.9037
  665MOL0     C87685   5.018   3.796   8.490  0.4262  0.0074 -0.4465
  665MOL0     C87686   4.922   3.915   8.479 -0.2104 -0.1691 -0.2202
  665MOL0     C87687   4.869   3.964   8.605  0.5102 -0.5635 -1.1766
  665MOL0     C87688   4.758   4.063   8.577  0.2981 -0.7267 -1.0309
  665MOL0     C87689   4.622   4.002   8.544  0.7258  0.0034 -0.4986
  665MOL0     C87690   4.522   4.108   8.498  0.6787  0.2437 -0.3911
  665MOL0     C87691   4.476   4.211   8.600  0.2127 -0.2391  0.1486
  665MOL0    Cl87692   4.338   4.313   8.536 -0.3132  0.3517 -0.2282
  665MOL0     C87693   5.362   3.757   8.218 -0.3244  0.5594  0.7199
  665MOL0     C87694   5.475   3.751   8.130  0.1450  0.3172  0.0920
  665MOL0     O87695   5.749   3.905   8.124 -0.0715 -0.0096  0.5465
  665MOL0     C87696   5.978   3.854   7.957 -0.0107 -0.0865 -0.1885
  665MOL0     C87697   6.072   3.811   7.874 -0.3082  1.0998 -0.1937
  665MOL0     N87698   6.612   3.409   7.390 -1.2122 -1.0963  0.7254
  665MOL0     N87699   6.696   3.337   7.465 -0.0455 -0.3210 -0.0602
  665MOL0     C87700   6.034   3.642   8.258  0.7868 -0.4127 -0.4492
  665MOL0     C87701   5.916   3.709   8.301 -0.8211  0.3589  0.0516
  665MOL0     C87702   5.590   3.848   8.599 -0.2358 -0.7299 -0.3333
  665MOL0     C87703   5.516   3.833   8.718 -0.1153 -0.4837  0.2256
  665MOL0     C87704   5.402   3.904   8.741  0.5918 -0.4881  0.1650
  665MOL0     C87705   5.342   3.989   8.651 -1.0636  0.8366 -0.2465
  665MOL0     O87706   5.234   4.066   8.674 -0.1834  0.3661  1.0416
  665MOL0     C87707   5.209   4.125   8.801  0.3490 -0.6925  0.5992
  665MOL0     C87708   5.097   4.227   8.795  0.3110  0.1898 -1.0461
  665MOL0     C87709   5.125   4.317   8.678  0.1806  0.0597  0.7229
  665MOL0     C87710   5.027   4.441   8.662 -0.2789 -0.1159 -0.4394
  665MOL0     C87711   5.065   4.512   8.537  0.3124 -0.2320 -0.6074
  665MOL0     C87712   5.083   4.579   8.439 -0.4378 -0.0565  0.8632
  665MOL0     C87713   5.410   4.004   8.530 -0.0119  0.7607 -0.5274
  665MOL0     C87714   5.530   3.936   8.503  0.2425 -0.3596  0.8288
  665MOL0     H87715   6.010   3.819   8.602 -0.8816 -1.1158  0.5413
  665MOL0     H87716   6.223   3.698   8.544  0.2047 -2.1897 -0.3030
  665MOL0     H87717   6.237   3.564   8.105 -1.2041 -1.8198 -1.2462
  665MOL0     H87718   6.181   3.416   8.191  1.1369 -2.2767  3.1816
  665MOL0     H87719   6.410   3.354   8.240 -1.7011 -0.3139 -0.0700
  665MOL0     H87720   6.471   3.519   8.199 -1.3083  0.8857  1.7872
  665MOL0     H87721   6.403   3.467   7.961 -0.6368 -1.0217  0.2894
  665MOL0     H87722   6.356   3.306   8.027 -0.1036 -0.3088 -0.8968
  665MOL0     H87723   6.642   3.420   8.028  0.0568 -0.9588 -0.5683
  665MOL0     H87724   6.592   3.253   8.070  0.8585  1.6115  1.3587
  665MOL0     H87725   6.539   3.356   7.788  1.3002 -0.7688 -2.3378
  665MOL0     H87726   6.528   3.198   7.829 -1.4745  1.2566 -4.4287
  665MOL0     H87727   6.736   3.198   7.731  1.0715 -4.2712  2.5897
  665MOL0     H87728   6.776   3.198   7.900 -2.9335 -1.6834  0.0163
  665MOL0     H87729   6.731   3.473   7.803 -1.1750 -0.9970 -3.0632
  665MOL0     H87730   6.891   3.401   7.862  0.5435 -1.3638 -0.3407
  665MOL0     H87731   6.930   3.328   7.634  1.5739  1.0634 -1.7058
  665MOL0     H87732   6.926   3.505   7.641 -2.0862  0.5333  0.5238
  665MOL0     H87733   6.697   3.648   7.579 -0.7619 -0.6393  1.3211
  665MOL0     H87734   6.477   3.593   7.276 -1.6321 -0.8609 -0.1593
  665MOL0     H87735   6.538   3.725   7.380 -0.3824 -1.2361  3.5707
  665MOL0     H87736   6.312   3.523   7.456  1.0403  0.0603  3.2378
  665MOL0     H87737   6.297   3.693   7.424 -1.6220 -0.3037  0.5333
  665MOL0     H87738   6.414   3.564   7.661 -2.3917 -1.4943 -0.1028
  665MOL0     H87739   6.470   3.725   7.620 -3.0877  2.1101  0.2478
  665MOL0     H87740   6.285   3.829   7.717 -0.2300 -0.6791  2.3918
  665MOL0     H87741   6.307   3.688   7.810 -0.9766 -0.3778 -0.2334
  665MOL0     H87742   5.901   3.666   7.627 -0.2494 -0.2724  0.2703
  665MOL0     H87743   5.708   3.737   7.779 -0.0867 -0.6377  0.0323
  665MOL0     H87744   5.447   4.064   7.990 -0.1901 -0.7676 -2.0255
  665MOL0     H87745   5.243   4.061   8.111 -0.9533 -0.6338 -1.3113
  665MOL0     H87746   5.190   3.709   8.406 -2.6323 -3.7888  0.9641
  665MOL0     H87747   5.055   3.705   8.293 -1.1318 -0.7965  2.6344
  665MOL0     H87748   5.097   3.818   8.563  0.1284 -0.3186 -0.0264
  665MOL0     H87749   4.965   3.713   8.536  0.4072  1.2959  2.0324
  665MOL0     H87750   4.855   3.892   8.396  4.4702 -0.5728 -4.3761
  665MOL0     H87751   4.989   3.988   8.433  0.0804  1.4043  2.4920
  665MOL0     H87752   4.819   3.874   8.641 -2.2599  1.5112  0.5677
  665MOL0     H87753   4.954   3.994   8.668  0.2754 -1.8143 -0.2419
  665MOL0     H87754   4.793   4.120   8.491 -0.0202 -0.6204 -1.0914
  665MOL0     H87755   4.738   4.135   8.657 -3.8203 -1.9536 -0.7147
  665MOL0     H87756   4.577   3.956   8.632 -0.6316 -0.3102 -1.3396
  665MOL0     H87757   4.632   3.928   8.465  1.7312 -0.2282 -0.1727
  665MOL0     H87758   4.543   4.155   8.401  0.3084 -2.1310 -1.6979
  665MOL0     H87759   4.434   4.043   8.490 -1.1168  2.6404 -1.6215
  665MOL0     H87760   4.556   4.280   8.627 -2.8352  3.2365  1.1344
  665MOL0     H87761   4.459   4.163   8.697 -3.3410  1.5314  0.5663
  665MOL0     H87762   5.334   3.667   8.271  3.1075 -0.7361  0.5560
  665MOL0     H87763   5.540   3.665   8.137  0.1185  0.4470  2.7631
  665MOL0     H87764   6.012   3.928   8.029  0.0751 -0.7772  0.4894
  665MOL0     H87765   6.174   3.838   7.900  2.0197 -1.9552 -4.7977
  665MOL0     H87766   6.031   3.595   8.161  0.2327 -0.1655 -0.5549
  665MOL0     H87767   5.831   3.733   8.238 -2.8814  2.5458  3.3781
  665MOL0     H87768   5.544   3.764   8.798 -0.6463  4.3013  5.1423
  665MOL0     H87769   5.354   3.890   8.837 -1.3239  0.4642 -0.6108
  665MOL0     H87770   5.305   4.171   8.823  1.1501 -2.1852  0.3534
  665MOL0     H87771   5.201   4.054   8.885 -0.0807 -0.4513  0.7672
  665MOL0     H87772   4.998   4.180   8.799 -0.1518  1.2222  1.7448
  665MOL0     H87773   5.111   4.294   8.881  3.0444 -2.8294  1.1042
  665MOL0     H87774   5.098   4.268   8.584 -0.9603  0.9979  0.5353
  665MOL0     H87775   5.229   4.351   8.673  0.9026 -2.1801 -1.4533
  665MOL0     H87776   4.922   4.412   8.667  0.0510 -1.2503  0.2999
  665MOL0     H87777   5.040   4.518   8.739  1.4460  2.5034 -3.1576
  665MOL0     H87778   5.097   4.647   8.358 -1.6224 -1.2501 -0.3845
  665MOL0     H87779   5.368   4.068   8.453  0.0182  0.5859 -0.6887
  665MOL0     H87780   5.576   3.957   8.407 -0.3387 -1.2580  0.3354
  666MOL0     O87781   1.017   9.534   1.348 -0.0324 -0.2400 -0.5411
  666MOL0     C87782   1.088   9.501   1.443  0.4782 -0.1326  0.6249
  666MOL0     O87783   1.054   9.420   1.550 -0.1356  1.0482 -0.3554
  666MOL0     C87784   0.954   9.333   1.538  0.8517 -0.0582 -0.3907
  666MOL0     C87785   0.918   9.261   1.422 -0.4247 -1.3659 -0.1713
  666MOL0     C87786   0.808   9.174   1.438  0.2843  0.4698 -0.1204
  666MOL0     C87787   0.737   9.151   1.555  0.0017  0.0169  0.5052
  666MOL0     O87788   0.639   9.066   1.563 -0.0330 -0.1691 -0.0591
  666MOL0     C87789   0.529   9.078   1.656  0.7038 -0.1963  0.0151
  666MOL0     C87790   0.429   8.957   1.653 -0.0374  0.1823  0.9573
  666MOL0     C87791   0.498   8.825   1.648  0.5548  0.2109  0.8067
  666MOL0     C87792   0.396   8.707   1.644 -0.5189  0.5645 -0.4916
  666MOL0     C87793   0.471   8.573   1.638 -0.4814 -0.2161  0.6330
  666MOL0     C87794   0.372   8.461   1.601 -0.6764 -0.7778 -0.4885
  666MOL0     C87795   0.411   8.318   1.649  0.0566 -0.9799  0.4569
  666MOL0     C87796   0.552   8.271   1.589  0.3496  0.2524  0.2777
  666MOL0     N87797   0.548   8.283   1.440  0.5646  0.2774  0.2698
  666MOL0     C87798   0.504   8.202   1.343 -0.4924  0.9485 -0.0515
  666MOL0     C87799   0.555   8.245   1.222  0.2763  0.1441  0.2516
  666MOL0     C87800   0.511   8.193   1.088  0.4192 -0.6757 -0.8764
  666MOL0     C87801   0.591   8.066   1.050 -0.1576 -0.2954  0.5333
  666MOL0     C87802   0.506   7.983   0.949 -0.1044 -0.2745 -1.2415
  666MOL0     C87803   0.556   8.018   0.812 -0.0184 -0.5238 -0.9289
  666MOL0     O87804   0.515   8.150   0.776 -0.1918 -0.1227 -0.1836
  666MOL0     C87805   0.401   8.177   0.706  0.0520  0.6887 -0.4699
  666MOL0     C87806   0.389   8.303   0.645 -0.0663 -0.4572 -0.6507
  666MOL0     C87807   0.265   8.329   0.578 -1.2668 -0.0738  0.2064
  666MOL0     C87808   0.159   8.237   0.571  1.0123 -0.7774 -0.2022
  666MOL0     C87809   0.022   8.278   0.529  0.1813 -0.7823 -0.1475
  666MOL0     O87810  -0.072   8.182   0.482  0.9124  0.1316 -0.0460
  666MOL0     C87811  -0.202   8.230   0.466 -0.0949  0.6152  0.4056
  666MOL0     C87812  -0.247   8.301   0.354 -0.3799  0.5378  0.4361
  666MOL0     C87813  -0.380   8.341   0.349  0.0108 -0.3744  1.1526
  666MOL0     C87814  -0.464   8.324   0.458  0.3971 -0.6786  0.1033
  666MOL0     O87815  -0.588   8.360   0.438 -0.3986 -0.8035 -0.1600
  666MOL0     C87816  -0.646   8.421   0.553 -0.1779 -0.9136  0.3071
  666MOL0     C87817  -0.789   8.444   0.504  0.0343 -1.7545  0.2067
  666MOL0     C87818  -0.885   8.325   0.520  0.1024 -0.1282 -1.0158
  666MOL0     C87819  -1.031   8.354   0.485  0.8200  0.3978  0.1814
  666MOL0     C87820  -1.063   8.315   0.340  0.4439  1.3336 -0.7837
  666MOL0     C87821  -1.222   8.328   0.324  0.5333  0.4066  0.1704
  666MOL0     C87822  -1.274   8.270   0.187  0.0738 -0.2364 -0.1690
  666MOL0     C87823  -1.423   8.274   0.153 -1.2789  0.2538 -0.0276
  666MOL0    Cl87824  -1.465   8.439   0.117  0.3302 -0.0030 -0.3633
  666MOL0     C87825  -0.417   8.256   0.564 -0.8527 -0.0900  0.2499
  666MOL0     C87826  -0.288   8.210   0.571  0.0685  0.8105  0.7228
  666MOL0     O87827   0.005   8.400   0.518 -0.7241  0.5726  0.5268
  666MOL0     C87828   0.177   8.108   0.635 -0.0793  0.3166  0.0038
  666MOL0     C87829   0.296   8.085   0.694  0.4502  0.7468  0.5776
  666MOL0     N87830   0.610   8.369   1.248 -0.0005  0.2151  0.0495
  666MOL0     N87831   0.601   8.390   1.379 -0.3723  0.2039  0.3008
  666MOL0     C87832   0.778   9.227   1.663 -0.6817  0.3794  0.7248
  666MOL0     C87833   0.885   9.313   1.657 -0.1389 -0.3456  0.1483
  666MOL0     C87834   1.224   9.557   1.430 -0.4082  0.9280 -0.3045
  666MOL0     C87835   1.327   9.508   1.515  0.3350  0.5461  0.1702
  666MOL0     C87836   1.463   9.547   1.500 -0.1307  1.4902 -0.2534
  666MOL0     C87837   1.501   9.636   1.401  0.2223  0.1951  0.2607
  666MOL0     O87838   1.629   9.660   1.374 -0.5018 -0.0720  0.3660
  666MOL0     C87839   1.732   9.686   1.470  0.2914 -0.4161  0.4978
  666MOL0     C87840   1.728   9.844   1.482 -0.3502  0.2514 -1.7043
  666MOL0     C87841   1.782   9.916   1.365 -0.2254 -0.8973  0.8800
  666MOL0     C87842   1.734  10.064   1.375 -0.5918 -0.2205 -0.5439
  666MOL0     C87843   1.590  10.071   1.338  0.3149  0.3210 -0.3771
  666MOL0     C87844   1.473  10.063   1.328  0.3026  0.0302  0.4107
  666MOL0     C87845   1.398   9.690   1.319 -0.2251 -0.2422  0.0146
  666MOL0     C87846   1.260   9.644   1.323 -0.7347 -0.2258 -0.6225
  666MOL0     H87847   0.977   9.265   1.331  0.8369  0.1037  0.6642
  666MOL0     H87848   0.771   9.120   1.351 -1.2203 -0.3643  0.9941
  666MOL0     H87849   0.467   9.165   1.637 -1.4077 -1.3597  1.2968
  666MOL0     H87850   0.573   9.072   1.756 -0.1757 -1.4512  0.3480
  666MOL0     H87851   0.379   8.970   1.556  0.3807  0.2730  0.7519
  666MOL0     H87852   0.350   8.939   1.726 -2.5877 -7.1469 -2.5557
  666MOL0     H87853   0.563   8.813   1.735  2.1209  0.5085 -0.2794
  666MOL0     H87854   0.556   8.836   1.556 -4.1207  3.7759 -2.2235
  666MOL0     H87855   0.322   8.703   1.723  0.2071 -0.7412  0.1622
  666MOL0     H87856   0.346   8.712   1.547 -0.2033  0.8292 -0.6444
  666MOL0     H87857   0.514   8.573   1.738  0.8305  2.8908  0.1695
  666MOL0     H87858   0.546   8.581   1.559 -3.3608 -1.4324 -2.4759
  666MOL0     H87859   0.355   8.471   1.493 -0.8406 -3.1817 -0.7381
  666MOL0     H87860   0.280   8.483   1.657  1.1524  0.1273  2.3709
  666MOL0     H87861   0.429   8.305   1.756 -1.9750  0.2939  0.9978
  666MOL0     H87862   0.330   8.254   1.614  0.0764 -2.1222  2.3772
  666MOL0     H87863   0.568   8.169   1.624 -0.6242  0.1112  0.3389
  666MOL0     H87864   0.639   8.322   1.631  0.9518 -0.4588 -0.0895
  666MOL0     H87865   0.433   8.120   1.349 -0.8512  1.1995 -0.7011
  666MOL0     H87866   0.527   8.274   1.016  0.8495  2.7163  2.6852
  666MOL0     H87867   0.403   8.177   1.082  0.3205 -0.1444 -0.5938
  666MOL0     H87868   0.616   8.010   1.141  0.8157  2.3866  2.0407
  666MOL0     H87869   0.689   8.090   1.008 -1.3229 -1.4574 -3.2209
  666MOL0     H87870   0.538   7.881   0.970 -0.1703  0.0829  0.7808
  666MOL0     H87871   0.399   7.987   0.970  0.5715 -0.0112  2.9494
  666MOL0     H87872   0.525   7.946   0.736  0.4540 -0.6745 -0.9822
  666MOL0     H87873   0.665   8.022   0.808 -0.0488 -0.3664 -3.3087
  666MOL0     H87874   0.462   8.383   0.649  2.5215 -2.5117 -2.8618
  666MOL0     H87875   0.243   8.427   0.539 -1.0068 -0.4244 -0.8479
  666MOL0     H87876  -0.190   8.323   0.265 -0.7816 -0.9616 -0.2199
  666MOL0     H87877  -0.420   8.399   0.267 -5.2767  1.1366  4.3413
  666MOL0     H87878  -0.597   8.515   0.581 -1.1811 -0.7140  1.5194
  666MOL0     H87879  -0.657   8.352   0.637 -0.5995 -3.1637 -1.5010
  666MOL0     H87880  -0.782   8.475   0.399  1.1227 -1.4728  0.3441
  666MOL0     H87881  -0.826   8.527   0.564  1.6869 -1.7559  1.3025
  666MOL0     H87882  -0.876   8.303   0.627  1.5411  0.1717 -1.0627
  666MOL0     H87883  -0.841   8.246   0.459  0.5307 -2.8345  2.4427
  666MOL0     H87884  -1.096   8.309   0.561  0.9527 -1.2314 -0.6195
  666MOL0     H87885  -1.048   8.461   0.498  0.1246  0.4710 -1.1520
  666MOL0     H87886  -1.041   8.208   0.345  0.2706  1.3523  1.3244
  666MOL0     H87887  -0.998   8.358   0.262  0.5918  0.0522 -1.3958
  666MOL0     H87888  -1.246   8.435   0.319 -0.5223  0.1582 -0.4925
  666MOL0     H87889  -1.286   8.288   0.403 -0.5535 -0.2542 -1.0004
  666MOL0     H87890  -1.219   8.322   0.108 -1.0462 -0.1466 -0.9241
  666MOL0     H87891  -1.259   8.162   0.194  2.0064 -0.1011 -1.5111
  666MOL0     H87892  -1.473   8.248   0.247  0.0201 -2.5252 -0.0070
  666MOL0     H87893  -1.468   8.201   0.084 -2.1314  2.3482 -1.7919
  666MOL0     H87894  -0.488   8.229   0.641  0.6311 -0.6708  1.4714
  666MOL0     H87895  -0.259   8.154   0.658  0.1834  0.7550  0.6488
  666MOL0     H87896   0.110   8.024   0.646  1.3773 -0.8775  0.1420
  666MOL0     H87897   0.316   7.982   0.721  0.6706  0.8996  1.0239
  666MOL0     H87898   0.723   9.226   1.757 -1.2655 -0.5516  0.3872
  666MOL0     H87899   0.905   9.385   1.735  0.4256  2.6430 -2.5574
  666MOL0     H87900   1.302   9.428   1.583  2.6072 -0.8474 -0.5477
  666MOL0     H87901   1.541   9.498   1.557 -0.6008  0.6673 -0.2877
  666MOL0     H87902   1.822   9.650   1.420  1.0045  2.4015 -0.4219
  666MOL0     H87903   1.724   9.629   1.563  0.9539  1.0625  1.4973
  666MOL0     H87904   1.623   9.866   1.499 -0.3490 -0.4120 -0.7497
  666MOL0     H87905   1.787   9.880   1.568 -1.2147 -1.5271 -0.2854
  666MOL0     H87906   1.745   9.873   1.271  0.0322 -1.9137  1.2306
  666MOL0     H87907   1.891   9.910   1.363  0.2899  3.4790 -2.7061
  666MOL0     H87908   1.746  10.105   1.475 -1.5701  1.8139 -1.2147
  666MOL0     H87909   1.805  10.116   1.310 -0.3672 -0.5701 -0.5826
  666MOL0     H87910   1.373  10.025   1.320  0.0063  0.9135 -0.1662
  666MOL0     H87911   1.425   9.752   1.234  0.3743  0.6237  0.8131
  666MOL0     H87912   1.193   9.671   1.242 -2.0853  1.2679  0.9281
  667MOL0     O87913   0.623   6.130  10.005 -0.6426 -0.7877  0.3753
  667MOL0     C87914   0.708   6.194   9.943  0.1885 -0.4000  0.1417
  667MOL0     O87915   0.696   6.243   9.814  0.1055  1.0827  0.3460
  667MOL0     C87916   0.597   6.224   9.721 -0.7297 -1.1970 -0.6838
  667MOL0     C87917   0.494   6.139   9.741  0.4663  0.7136 -0.2130
  667MOL0     C87918   0.397   6.125   9.638  0.0828  0.1291  0.2338
  667MOL0     C87919   0.414   6.182   9.508  0.3472  1.1222 -0.0800
  667MOL0     O87920   0.322   6.168   9.406 -0.4269 -0.3074 -0.3323
  667MOL0     C87921   0.208   6.251   9.425  0.2637  0.2449 -0.0241
  667MOL0     C87922   0.100   6.187   9.343  0.1545 -0.0861 -0.1990
  667MOL0     C87923  -0.038   6.252   9.372  0.5827  0.2572  0.8115
  667MOL0     C87924  -0.141   6.211   9.264 -0.7111  0.8540 -0.0762
  667MOL0     C87925  -0.279   6.254   9.312  1.1332  1.0587  1.0492
  667MOL0     C87926  -0.390   6.220   9.210  0.5177  0.2076 -0.0753
  667MOL0     C87927  -0.517   6.217   9.289  0.5074  0.0311 -0.3121
  667MOL0     C87928  -0.635   6.181   9.199 -0.2173 -0.0464 -1.0172
  667MOL0     N87929  -0.755   6.171   9.284 -0.3004 -0.2654  0.0631
  667MOL0     C87930  -0.799   6.056   9.350 -0.0936 -0.4947  0.0572
  667MOL0     C87931  -0.929   6.078   9.371 -0.5800  0.5774  0.4746
  667MOL0     C87932  -1.019   5.983   9.440  0.5903 -0.0917 -0.6503
  667MOL0     C87933  -1.150   5.935   9.372  0.3636  0.5734  0.0295
  667MOL0     C87934  -1.130   5.845   9.245 -1.0776 -0.2825 -0.0929
  667MOL0     C87935  -1.255   5.842   9.149  0.4473  0.0293 -0.1538
  667MOL0     O87936  -1.365   5.793   9.222  0.5651 -0.8057  0.3724
  667MOL0     C87937  -1.493   5.785   9.159 -0.3036  0.2886 -0.7560
  667MOL0     C87938  -1.533   5.875   9.062  0.4948 -0.3284 -0.1701
  667MOL0     C87939  -1.660   5.864   9.005  0.4448  0.1601 -0.5588
  667MOL0     C87940  -1.754   5.763   9.043 -0.0821 -0.3634 -1.1537
  667MOL0     C87941  -1.897   5.759   8.998 -0.8386 -0.2839  0.1003
  667MOL0     O87942  -1.945   5.869   8.920 -0.0299 -0.3511  0.2007
  667MOL0     C87943  -2.057   5.864   8.858  0.2436  0.2511 -0.1696
  667MOL0     C87944  -2.174   5.862   8.936  0.2784 -0.3310 -0.0886
  667MOL0     C87945  -2.297   5.852   8.869 -0.0371 -0.8507 -0.1454
  667MOL0     C87946  -2.308   5.838   8.731 -0.5178  0.9502  0.2972
  667MOL0     O87947  -2.417   5.804   8.657  0.7039  0.8276 -0.0140
  667MOL0     C87948  -2.542   5.860   8.688 -0.7287  0.3586 -0.4298
  667MOL0     C87949  -2.636   5.822   8.572  0.5960  0.2288  0.0071
  667MOL0     C87950  -2.785   5.836   8.609  0.0648 -0.3259  0.5482
  667MOL0     C87951  -2.883   5.827   8.481  0.4570  0.4819  0.0961
  667MOL0     C87952  -3.027   5.810   8.534  0.4166 -0.7081 -0.4106
  667MOL0     C87953  -3.133   5.783   8.421 -0.5849 -0.4594  0.0544
  667MOL0     C87954  -3.274   5.794   8.472 -0.1597 -0.6699 -0.6910
  667MOL0     C87955  -3.378   5.784   8.363  0.5998  0.4472  0.3186
  667MOL0    Cl87956  -3.368   5.932   8.266  0.1680  0.3387 -0.0942
  667MOL0     C87957  -2.193   5.823   8.657  0.1608 -0.3598 -0.6024
  667MOL0     C87958  -2.069   5.840   8.720 -0.2006 -0.5424  0.2970
  667MOL0     O87959  -1.962   5.655   9.010  0.3429  0.0377 -0.3051
  667MOL0     C87960  -1.697   5.659   9.119 -0.4425 -0.4391 -0.1617
  667MOL0     C87961  -1.569   5.665   9.177  0.5170  0.4068  0.8815
  667MOL0     N87962  -0.959   6.195   9.306  0.7921 -0.0425  0.5643
  667MOL0     N87963  -0.857   6.257   9.257 -0.1501 -0.0240 -0.5496
  667MOL0     C87964   0.529   6.252   9.496 -0.4082 -1.3720  0.0451
  667MOL0     C87965   0.618   6.281   9.594 -0.1001 -0.2292  0.3163
  667MOL0     C87966   0.837   6.233  10.002 -0.6208 -0.0966 -0.5377
  667MOL0     C87967   0.928   6.316   9.932 -0.6356  0.2936 -1.0410
  667MOL0     C87968   1.056   6.346   9.981  0.0204  0.1121  0.1268
  667MOL0     C87969   1.093   6.295  10.105 -0.4108  0.3240 -0.4084
  667MOL0     O87970   1.222   6.307  10.156  0.4662 -0.4346  0.5320
  667MOL0     C87971   1.281   6.440  10.152  0.1200  1.2732  0.6856
  667MOL0     C87972   1.391   6.430  10.052  0.9729 -0.9232  0.6069
  667MOL0     C87973   1.479   6.556  10.026 -0.1243  0.0091  0.0297
  667MOL0     C87974   1.610   6.527  10.103  0.6504  0.2543 -0.1093
  667MOL0     C87975   1.600   6.584  10.235  0.7522 -0.2160  0.3753
  667MOL0     C87976   1.594   6.631  10.348 -0.4151  0.2429  0.5604
  667MOL0     C87977   1.006   6.220  10.176  0.0615 -0.2435 -0.4059
  667MOL0     C87978   0.876   6.191  10.133 -0.1437  0.0054 -0.4051
  667MOL0     H87979   0.459   6.095   9.834  0.4986 -0.2594 -0.6494
  667MOL0     H87980   0.308   6.067   9.657  0.3803 -1.2756 -2.2953
  667MOL0     H87981   0.237   6.351   9.393  0.7201  0.3156  0.5892
  667MOL0     H87982   0.191   6.263   9.532  0.8833 -0.3466  0.1525
  667MOL0     H87983   0.098   6.080   9.366 -0.3331  0.1610  1.0212
  667MOL0     H87984   0.122   6.201   9.237 -0.6227  0.7079 -0.2725
  667MOL0     H87985  -0.032   6.360   9.391 -0.3562  0.8807 -1.9218
  667MOL0     H87986  -0.082   6.197   9.456 -1.7514  0.9045  0.0874
  667MOL0     H87987  -0.108   6.252   9.168  1.2252 -3.2022 -1.3751
  667MOL0     H87988  -0.148   6.102   9.255  1.4076  0.6494  0.1952
  667MOL0     H87989  -0.268   6.363   9.317  1.6586  1.0454  0.4445
  667MOL0     H87990  -0.301   6.200   9.404  0.8164 -0.2958  0.2080
  667MOL0     H87991  -0.362   6.127   9.159 -2.4496  0.1248 -1.7452
  667MOL0     H87992  -0.402   6.298   9.134 -1.7081  3.1988  3.0762
  667MOL0     H87993  -0.505   6.138   9.364  0.8247  2.4140  2.2888
  667MOL0     H87994  -0.525   6.308   9.348 -1.6474 -0.4070  0.1433
  667MOL0     H87995  -0.599   6.090   9.149 -0.7539  0.1716 -1.8333
  667MOL0     H87996  -0.651   6.251   9.116 -0.0379 -1.7800 -2.6050
  667MOL0     H87997  -0.736   5.980   9.394  2.8914  0.1102 -2.7588
  667MOL0     H87998  -1.046   6.038   9.531  0.2849  2.1393 -2.0176
  667MOL0     H87999  -0.948   5.906   9.470  2.7641  2.3605  0.9378
  667MOL0     H88000  -1.205   6.028   9.358  0.8771  0.7741 -0.6782
  667MOL0     H88001  -1.209   5.868   9.436 -3.8592 -0.3384 -4.2575
  667MOL0     H88002  -1.046   5.881   9.185 -0.8085 -1.6159 -0.5382
  667MOL0     H88003  -1.105   5.744   9.280  0.0094  0.1556  0.4423
  667MOL0     H88004  -1.242   5.776   9.063  3.4705 -0.2846  0.4370
  667MOL0     H88005  -1.274   5.944   9.114  3.0660  1.4022  2.0751
  667MOL0     H88006  -1.471   5.961   9.038  0.5541 -0.1760  0.5219
  667MOL0     H88007  -1.698   5.941   8.938 -1.0423 -1.0850 -1.2102
  667MOL0     H88008  -2.173   5.879   9.043 -1.1460  0.8973 -0.2216
  667MOL0     H88009  -2.377   5.844   8.942  0.3704 -3.1347  0.1200
  667MOL0     H88010  -2.539   5.969   8.700 -0.0587  0.6581 -2.8026
  667MOL0     H88011  -2.577   5.819   8.783 -4.5457 -0.7894 -2.1719
  667MOL0     H88012  -2.620   5.721   8.533  0.3657  0.8806 -1.9037
  667MOL0     H88013  -2.614   5.877   8.480 -0.5025  0.1708 -0.3067
  667MOL0     H88014  -2.787   5.939   8.647  2.0581 -0.7602  1.9872
  667MOL0     H88015  -2.799   5.765   8.690  1.4697 -0.1390  0.9841
  667MOL0     H88016  -2.898   5.924   8.432 -2.6334  2.4501  4.2765
  667MOL0     H88017  -2.853   5.736   8.429  1.1179  0.6635  0.1456
  667MOL0     H88018  -3.055   5.906   8.578  2.4840 -1.2065  2.3030
  667MOL0     H88019  -3.038   5.739   8.616 -3.6749  0.4115  0.2579
  667MOL0     H88020  -3.111   5.684   8.381  2.4453 -0.3884  1.2768
  667MOL0     H88021  -3.108   5.844   8.333  3.6928 -2.0148 -0.0447
  667MOL0     H88022  -3.284   5.711   8.542  2.7854 -0.7529 -0.2517
  667MOL0     H88023  -3.285   5.888   8.526  3.9562  0.7882 -2.0219
  667MOL0     H88024  -3.479   5.791   8.404 -0.0711  0.7410 -1.3176
  667MOL0     H88025  -3.366   5.698   8.296 -1.9259  2.0078 -2.4030
  667MOL0     H88026  -2.197   5.808   8.550  2.6599  1.5745 -1.0680
  667MOL0     H88027  -1.980   5.847   8.659  1.3277 -1.0615  2.3578
  667MOL0     H88028  -1.749   5.568   9.147  2.2006 -1.6162  1.3503
  667MOL0     H88029  -1.548   5.602   9.262 -1.5464  1.6523  2.3922
  667MOL0     H88030   0.551   6.291   9.397  2.4601 -2.5816  0.0767
  667MOL0     H88031   0.713   6.332   9.582 -0.5615  0.5026 -0.2618
  667MOL0     H88032   0.899   6.362   9.838 -2.9670 -2.5835 -1.8641
  667MOL0     H88033   1.124   6.397   9.914 -0.5097 -1.3069 -1.5705
  667MOL0     H88034   1.323   6.464  10.251 -0.9535  2.5340  0.8668
  667MOL0     H88035   1.215   6.518  10.113  0.8352  1.2240 -0.6801
  667MOL0     H88036   1.447   6.340  10.077 -0.0667 -2.6092 -2.6057
  667MOL0     H88037   1.352   6.395   9.956  4.2637 -1.5887 -0.6031
  667MOL0     H88038   1.434   6.646  10.068 -0.2173 -0.7530  1.6141
  667MOL0     H88039   1.498   6.575   9.920  0.3273 -3.4467 -0.6435
  667MOL0     H88040   1.629   6.419  10.107 -2.3377 -0.5375 -2.7459
  667MOL0     H88041   1.692   6.584  10.058  1.4121  0.5093  1.5362
  667MOL0     H88042   1.600   6.666  10.449 -0.6740  0.2182  0.5858
  667MOL0     H88043   1.049   6.184  10.269  1.6286  2.5763  0.0999
  667MOL0     H88044   0.805   6.133  10.190  0.6304 -0.5821 -0.0261
  668MOL0     O88045   7.398   2.781   7.558 -1.1941 -0.2425  0.3827
  668MOL0     C88046   7.407   2.719   7.663 -0.8063  0.4585 -0.0674
  668MOL0     O88047   7.302   2.688   7.733  0.1147  0.2152 -0.3220
  668MOL0     C88048   7.172   2.728   7.710 -0.5084 -0.4322 -0.6733
  668MOL0     C88049   7.107   2.772   7.824  0.4280  0.1183  0.2921
  668MOL0     C88050   6.970   2.801   7.812 -0.4141 -0.3309 -0.4570
  668MOL0     C88051   6.904   2.821   7.684 -0.4181  0.6207 -0.1075
  668MOL0     O88052   6.771   2.847   7.684  0.1870 -0.0912  0.3501
  668MOL0     C88053   6.718   2.922   7.581 -1.1801  1.0514 -0.0167
  668MOL0     C88054   6.573   2.944   7.623  0.0650 -0.0044  0.6539
  668MOL0     C88055   6.503   3.060   7.545  0.2830 -0.4897 -0.4341
  668MOL0     C88056   6.355   3.057   7.577  0.1825 -0.1982 -0.4913
  668MOL0     C88057   6.293   3.165   7.489 -0.0597  0.1900 -0.1282
  668MOL0     C88058   6.142   3.172   7.495 -0.3218  1.3707 -0.2624
  668MOL0     C88059   6.082   3.224   7.637 -0.8646  0.1602 -0.3098
  668MOL0     C88060   6.069   3.373   7.655 -0.0093  0.5765  0.1981
  668MOL0     N88061   6.002   3.396   7.777  0.2825  0.5922 -0.3787
  668MOL0     C88062   5.881   3.351   7.803  0.1211  0.3433  0.7020
  668MOL0     C88063   5.875   3.339   7.934 -0.6458  0.8716  0.0052
  668MOL0     C88064   5.769   3.280   8.018 -0.8358 -0.1913 -0.4900
  668MOL0     C88065   5.709   3.401   8.081  0.8266 -0.9247 -0.7965
  668MOL0     C88066   5.602   3.384   8.188  0.2457 -0.7744 -0.0771
  668MOL0     C88067   5.671   3.362   8.327 -0.7902  0.0953  0.0656
  668MOL0     O88068   5.592   3.268   8.404 -0.7549  0.3952 -0.1911
  668MOL0     C88069   5.501   3.343   8.478  0.6904  0.2171  0.4108
  668MOL0     C88070   5.547   3.388   8.598 -0.1056  0.3869 -0.9645
  668MOL0     C88071   5.465   3.472   8.677  0.2869 -0.5819  0.7981
  668MOL0     C88072   5.330   3.498   8.637  0.5707 -0.5293  0.4608
  668MOL0     C88073   5.238   3.569   8.717 -0.7709 -0.7056 -0.1141
  668MOL0     O88074   5.282   3.606   8.843 -0.9809  0.2698  0.5894
  668MOL0     C88075   5.196   3.652   8.938 -0.1415 -0.7808 -0.4126
  668MOL0     C88076   5.241   3.622   9.068  0.3478 -0.2816  0.1127
  668MOL0     C88077   5.176   3.678   9.174 -0.0074 -0.8952 -0.9706
  668MOL0     C88078   5.069   3.769   9.156  1.0169 -0.0930  0.1466
  668MOL0     O88079   5.018   3.830   9.270  0.6249  0.2234  0.2735
  668MOL0     C88080   4.929   3.941   9.270  0.2245 -0.4873  0.6780
  668MOL0     C88081   4.999   4.070   9.252 -0.9281 -0.2338 -0.5609
  668MOL0     C88082   4.902   4.185   9.216 -0.5014 -0.3559  0.9632
  668MOL0     C88083   4.835   4.172   9.078  0.2852 -0.2551  0.3261
  668MOL0     C88084   4.781   4.312   9.034 -0.4210 -0.0365 -1.4068
  668MOL0     C88085   4.702   4.307   8.898 -0.5530  0.5770 -0.0877
  668MOL0     C88086   4.634   4.440   8.868  0.5457 -0.1538 -0.6113
  668MOL0     C88087   4.509   4.445   8.956  0.2257 -0.5399  0.0461
  668MOL0    Cl88088   4.383   4.346   8.888 -0.2575  0.2680  0.1882
  668MOL0     C88089   5.026   3.801   9.022 -0.5678 -0.5846 -0.1983
  668MOL0     C88090   5.089   3.750   8.911 -0.5900 -0.6425 -0.8453
  668MOL0     O88091   5.130   3.596   8.664 -0.2671  0.4284 -0.2227
  668MOL0     C88092   5.289   3.457   8.514 -0.7910  0.3966 -0.3762
  668MOL0     C88093   5.373   3.375   8.437 -0.4682 -0.3445  1.0664
  668MOL0     N88094   5.987   3.401   7.981  0.0171  0.5177 -0.1261
  668MOL0     N88095   6.071   3.426   7.890  0.0727 -0.5350 -0.9311
  668MOL0     C88096   6.985   2.791   7.573 -0.1949  0.0891  0.1018
  668MOL0     C88097   7.115   2.750   7.579 -1.2259 -0.1705 -0.5651
  668MOL0     C88098   7.542   2.646   7.682 -0.1661  0.2373 -0.1789
  668MOL0     C88099   7.586   2.596   7.807 -0.6368  0.3826 -0.5318
  668MOL0     C88100   7.705   2.537   7.828 -0.4821  0.0049 -0.2512
  668MOL0     C88101   7.801   2.534   7.721 -0.1510  0.2958  0.1050
  668MOL0     O88102   7.929   2.486   7.749  0.0472  0.1662  0.2106
  668MOL0     C88103   8.038   2.501   7.663 -0.1863 -0.6282  0.4377
  668MOL0     C88104   8.039   2.392   7.552  0.4568  0.9517 -0.0751
  668MOL0     C88105   8.150   2.416   7.446 -0.6226  0.5404  0.3864
  668MOL0     C88106   8.096   2.371   7.299 -0.7743 -0.4839  0.0291
  668MOL0     C88107   7.976   2.449   7.254  0.5832 -0.8824  0.1246
  668MOL0     C88108   7.868   2.500   7.242  0.4348  0.0659 -0.1988
  668MOL0     C88109   7.759   2.579   7.598  0.2625 -0.2486 -0.9011
  668MOL0     C88110   7.642   2.639   7.583  0.2617 -1.3215 -0.4427
  668MOL0     H88111   7.150   2.771   7.924 -1.1238  0.0170  0.9907
  668MOL0     H88112   6.913   2.840   7.895  2.1496  4.4093 -0.5686
  668MOL0     H88113   6.739   2.882   7.481  0.0224 -0.7208  0.9001
  668MOL0     H88114   6.761   3.022   7.592  1.1756 -0.1610  2.8232
  668MOL0     H88115   6.572   2.977   7.728 -2.3216  1.4077  0.2739
  668MOL0     H88116   6.522   2.848   7.627  2.0203 -1.0471  2.5042
  668MOL0     H88117   6.530   3.038   7.442 -2.1823 -0.1637 -1.2221
  668MOL0     H88118   6.560   3.146   7.580  1.8927 -2.1642  1.3282
  668MOL0     H88119   6.324   2.955   7.554  0.8350 -0.8483  1.3712
  668MOL0     H88120   6.339   3.083   7.682  0.3695 -0.5064 -0.3874
  668MOL0     H88121   6.323   3.157   7.384 -1.5269  0.0021 -0.5481
  668MOL0     H88122   6.331   3.263   7.519  0.4346 -0.5430  1.7795
  668MOL0     H88123   6.114   3.070   7.469 -1.7943  1.6684  0.0839
  668MOL0     H88124   6.092   3.222   7.412 -0.1838  0.3133 -1.0096
  668MOL0     H88125   5.981   3.182   7.647 -1.6639  1.6564 -1.6281
  668MOL0     H88126   6.136   3.170   7.716 -0.9111  1.7476  0.8626
  668MOL0     H88127   6.023   3.423   7.569 -1.4925  1.7576  1.6374
  668MOL0     H88128   6.172   3.411   7.664 -0.2753  1.5632 -0.7201
  668MOL0     H88129   5.812   3.303   7.735  0.4041  0.9987 -0.0664
  668MOL0     H88130   5.807   3.215   8.096  0.4441 -0.0801 -1.0015
  668MOL0     H88131   5.693   3.229   7.957 -1.8505 -0.2513  0.7831
  668MOL0     H88132   5.672   3.464   8.000 -1.0882  3.4168  3.0413
  668MOL0     H88133   5.787   3.460   8.129 -0.5080 -1.1737  1.8538
  668MOL0     H88134   5.523   3.459   8.195  0.9558  0.1280 -1.2958
  668MOL0     H88135   5.547   3.293   8.165  0.9603 -1.4456  0.8173
  668MOL0     H88136   5.688   3.460   8.373 -5.1281  2.1358 -2.1470
  668MOL0     H88137   5.770   3.320   8.308 -0.8689 -0.4463  0.8216
  668MOL0     H88138   5.651   3.370   8.625 -0.0552 -0.8935 -1.9093
  668MOL0     H88139   5.518   3.505   8.765 -0.8339 -0.4048  1.4291
  668MOL0     H88140   5.334   3.567   9.067 -0.1766 -1.2133 -1.2463
  668MOL0     H88141   5.216   3.663   9.274  3.5113  0.3579 -2.0355
  668MOL0     H88142   4.878   3.943   9.367 -1.9565 -1.3127 -0.3892
  668MOL0     H88143   4.841   3.927   9.207  0.4647  1.9587 -0.2916
  668MOL0     H88144   5.082   4.062   9.180 -1.5817  0.4923 -1.4297
  668MOL0     H88145   5.056   4.097   9.341  2.4561 -3.8332 -1.3656
  668MOL0     H88146   4.957   4.279   9.226 -0.2255  0.3022 -4.1973
  668MOL0     H88147   4.829   4.191   9.298 -0.9190 -1.2221  0.6681
  668MOL0     H88148   4.902   4.137   8.999 -0.1424  0.4513 -0.3665
  668MOL0     H88149   4.753   4.100   9.083 -1.1791  1.1724 -1.6128
  668MOL0     H88150   4.874   4.368   9.020  0.7924 -2.0976 -2.0018
  668MOL0     H88151   4.734   4.367   9.116 -1.8546  2.3857 -3.6867
  668MOL0     H88152   4.626   4.229   8.905 -0.7596  0.8478  0.7558
  668MOL0     H88153   4.783   4.279   8.829  1.5500 -0.1658  2.5406
  668MOL0     H88154   4.707   4.518   8.892 -1.2055  0.6547  2.6850
  668MOL0     H88155   4.599   4.446   8.764  0.3748  0.8054 -0.5119
  668MOL0     H88156   4.490   4.552   8.948  4.3131  0.3948  0.4436
  668MOL0     H88157   4.518   4.405   9.058 -3.1855 -2.4494 -0.2476
  668MOL0     H88158   4.942   3.865   9.001 -0.2958 -0.6569 -1.5713
  668MOL0     H88159   5.064   3.790   8.813  0.5902 -2.5211 -1.9648
  668MOL0     H88160   5.187   3.478   8.486 -1.5773 -0.9893  1.2348
  668MOL0     H88161   5.325   3.319   8.358  0.2076  0.0488  0.3629
  668MOL0     H88162   6.932   2.803   7.479 -0.8437  0.0596  0.4558
  668MOL0     H88163   7.167   2.735   7.485 -2.1496 -1.0844 -0.9452
  668MOL0     H88164   7.520   2.599   7.892  2.2839 -0.3095  1.9218
  668MOL0     H88165   7.726   2.492   7.925 -0.5877 -2.2439 -1.2142
  668MOL0     H88166   8.121   2.503   7.734  1.7324  1.5136 -1.7231
  668MOL0     H88167   8.047   2.592   7.605 -0.5368 -0.6912  0.2788
  668MOL0     H88168   8.043   2.296   7.605 -2.0281  1.9738  2.2303
  668MOL0     H88169   7.943   2.398   7.501  0.2245  0.2620  0.2735
  668MOL0     H88170   8.239   2.355   7.462 -0.4765  0.4295 -0.7800
  668MOL0     H88171   8.189   2.518   7.441 -0.1446  0.3213 -0.7161
  668MOL0     H88172   8.179   2.381   7.229  0.7320 -0.8884  1.6661
  668MOL0     H88173   8.074   2.264   7.291 -1.5904 -0.1700 -3.3013
  668MOL0     H88174   7.768   2.541   7.241  0.9133  1.5749  2.7527
  668MOL0     H88175   7.835   2.576   7.520  1.2458 -1.5197  0.0695
  668MOL0     H88176   7.622   2.685   7.487 -2.1672  1.0525  1.0494
  669MOL0     O88177   3.578   8.397   6.776 -0.1977  0.0657  0.4364
  669MOL0     C88178   3.590   8.490   6.692 -0.5767  0.1876 -0.7039
  669MOL0     O88179   3.498   8.523   6.600 -0.1285  0.1958 -0.1950
  669MOL0     C88180   3.379   8.456   6.586 -0.6346 -0.7926  0.9587
  669MOL0     C88181   3.334   8.330   6.636  0.3132 -0.7840 -0.1285
  669MOL0     C88182   3.204   8.280   6.602  0.3439  0.6267 -0.2154
  669MOL0     C88183   3.114   8.347   6.519  0.9988 -0.4829 -0.0992
  669MOL0     O88184   2.983   8.308   6.483  0.0142  0.2704 -0.4118
  669MOL0     C88185   2.969   8.168   6.455  0.3200  1.1087  0.3897
  669MOL0     C88186   2.828   8.134   6.405  0.5725 -0.1341  0.1953
  669MOL0     C88187   2.813   7.977   6.382 -0.7956  0.7312 -0.1905
  669MOL0     C88188   2.672   7.924   6.382  0.3033  0.5683 -0.2810
  669MOL0     C88189   2.656   7.780   6.358 -0.8206  0.2130 -0.1115
  669MOL0     C88190   2.509   7.740   6.361  0.1419 -0.4969 -0.2519
  669MOL0     C88191   2.501   7.593   6.364 -0.5991 -0.2721  0.1665
  669MOL0     C88192   2.367   7.538   6.398 -0.0180 -0.2150  0.0977
  669MOL0     N88193   2.268   7.589   6.296 -0.2537 -0.3107 -0.1188
  669MOL0     C88194   2.162   7.660   6.347  0.8344 -0.1389 -0.2949
  669MOL0     C88195   2.067   7.650   6.246 -0.2010  0.2200 -1.3652
  669MOL0     C88196   1.929   7.697   6.268 -0.0241 -0.0778  0.2672
  669MOL0     C88197   1.820   7.591   6.222 -0.5712  0.2540  0.3308
  669MOL0     C88198   1.670   7.640   6.228 -0.3453  0.3697  0.1029
  669MOL0     C88199   1.581   7.529   6.182 -0.3534  0.7411 -0.1978
  669MOL0     O88200   1.475   7.588   6.103  0.4200 -0.8361  0.0393
  669MOL0     C88201   1.374   7.504   6.064 -0.5077  0.1589 -0.6432
  669MOL0     C88202   1.361   7.365   6.092  0.1497 -0.0187 -0.6583
  669MOL0     C88203   1.258   7.296   6.030  0.4610  0.2900 -0.5461
  669MOL0     C88204   1.165   7.358   5.949  0.4828  0.1445 -1.0774
  669MOL0     C88205   1.052   7.295   5.886  1.1222 -0.2165 -0.2304
  669MOL0     O88206   0.992   7.196   5.959 -0.3994 -0.0756 -0.3180
  669MOL0     C88207   0.879   7.138   5.911 -1.3610  0.5094  1.2690
  669MOL0     C88208   0.756   7.164   5.970 -0.1544  0.2858 -0.2921
  669MOL0     C88209   0.642   7.095   5.931 -0.9065 -0.0188 -0.2211
  669MOL0     C88210   0.646   7.003   5.826  0.3162  0.1859 -1.1969
  669MOL0     O88211   0.527   6.940   5.792  0.2184  0.7027 -0.2403
  669MOL0     C88212   0.470   7.010   5.681  0.5072  1.2274 -0.1192
  669MOL0     C88213   0.353   6.930   5.626  0.5083 -0.2398 -0.4424
  669MOL0     C88214   0.257   7.023   5.562 -0.1706  0.0786  0.3090
  669MOL0     C88215   0.133   6.947   5.501 -0.3262 -0.8552  0.4508
  669MOL0     C88216   0.041   7.052   5.448 -0.2191  0.3152  0.0056
  669MOL0     C88217  -0.072   6.986   5.368  0.2784  1.2909 -0.5089
  669MOL0     C88218  -0.035   6.913   5.239  0.7039 -0.1238  0.0583
  669MOL0     C88219  -0.151   6.911   5.155 -1.0322  1.2326 -0.3863
  669MOL0    Cl88220  -0.099   6.880   4.988  0.0432  0.3696 -0.6042
  669MOL0     C88221   0.776   6.973   5.770  0.4602  0.2878  0.2772
  669MOL0     C88222   0.894   7.037   5.814 -1.4778 -0.1789 -0.5772
  669MOL0     O88223   1.022   7.321   5.767 -0.0348  0.0191  0.0742
  669MOL0     C88224   1.181   7.495   5.920 -0.1939  0.7920 -0.7023
  669MOL0     C88225   1.285   7.568   5.981 -0.0555  0.0517  0.3321
  669MOL0     N88226   2.133   7.610   6.133 -0.4324  0.3242 -0.2816
  669MOL0     N88227   2.254   7.568   6.162  0.1498  0.6849 -1.0458
  669MOL0     C88228   3.174   8.450   6.444  0.3217 -0.6350 -0.3806
  669MOL0     C88229   3.300   8.503   6.477  1.0124  0.6175 -0.9845
  669MOL0     C88230   3.719   8.572   6.712  0.3513  0.4072  0.3248
  669MOL0     C88231   3.729   8.688   6.647 -0.1495  0.3309  0.7457
  669MOL0     C88232   3.844   8.757   6.674  0.2973 -0.7750  0.3829
  669MOL0     C88233   3.944   8.712   6.752 -0.3015 -1.4626  0.1145
  669MOL0     O88234   4.046   8.805   6.778 -0.2630  0.3914  0.5577
  669MOL0     C88235   4.161   8.758   6.849  1.0572 -0.8696 -0.0035
  669MOL0     C88236   4.160   8.791   7.000  1.0701 -0.0533  0.3317
  669MOL0     C88237   4.296   8.763   7.066 -0.0703 -0.5486 -0.7188
  669MOL0     C88238   4.312   8.614   7.115  0.3723 -0.2176 -0.4481
  669MOL0     C88239   4.274   8.603   7.255 -0.2268  0.9168  0.3195
  669MOL0     C88240   4.247   8.592   7.368 -0.6515 -0.3653 -0.2264
  669MOL0     C88241   3.935   8.588   6.803 -1.0951  0.2409  0.7698
  669MOL0     C88242   3.827   8.512   6.785  0.4396 -0.1352 -0.5582
  669MOL0     H88243   3.371   8.274   6.722 -5.8850 -2.2267  2.1338
  669MOL0     H88244   3.160   8.191   6.646 -0.9651  0.7470 -1.2265
  669MOL0     H88245   2.997   8.111   6.544  2.8846  2.8675  0.8422
  669MOL0     H88246   3.036   8.139   6.373  0.5771 -2.6898  1.7278
  669MOL0     H88247   2.801   8.177   6.308 -1.0051 -3.6433 -1.1064
  669MOL0     H88248   2.754   8.159   6.481 -1.5997 -1.0482 -1.4999
  669MOL0     H88249   2.868   7.931   6.465 -1.8268 -0.8391 -0.3417
  669MOL0     H88250   2.862   7.939   6.292  1.4548 -0.6903  1.5279
  669MOL0     H88251   2.626   7.955   6.477 -1.9001 -1.5524 -0.5509
  669MOL0     H88252   2.615   7.985   6.312  1.9057  2.4011 -0.0673
  669MOL0     H88253   2.686   7.725   6.447 -1.0129 -2.0885 -1.4036
  669MOL0     H88254   2.695   7.740   6.264  0.0978  0.1839  0.2699
  669MOL0     H88255   2.463   7.778   6.269 -0.5887  0.5275  0.5004
  669MOL0     H88256   2.457   7.775   6.451  0.8392 -1.2553  0.4627
  669MOL0     H88257   2.538   7.560   6.266  3.7731 -0.3336  1.6450
  669MOL0     H88258   2.558   7.548   6.446 -0.5326 -3.3582 -1.4297
  669MOL0     H88259   2.338   7.573   6.497 -0.4166 -0.2889  0.0061
  669MOL0     H88260   2.367   7.428   6.398 -0.6430 -0.2295 -0.8442
  669MOL0     H88261   2.148   7.700   6.446 -0.5995 -0.9760 -0.1241
  669MOL0     H88262   1.926   7.792   6.215 -3.9511 -1.4289 -2.3463
  669MOL0     H88263   1.910   7.714   6.374 -0.1865 -2.8740  0.7732
  669MOL0     H88264   1.829   7.504   6.288  2.5455  1.0199  1.0475
  669MOL0     H88265   1.852   7.556   6.123  0.2852  2.2064 -0.1299
  669MOL0     H88266   1.629   7.662   6.327 -0.6529 -1.3708  0.3824
  669MOL0     H88267   1.654   7.719   6.154 -0.7841  1.5140  1.3719
  669MOL0     H88268   1.538   7.483   6.271 -0.7098 -3.0660 -2.1246
  669MOL0     H88269   1.643   7.456   6.129 -1.8568 -2.6772  2.3180
  669MOL0     H88270   1.429   7.317   6.161 -1.3864 -2.7877 -0.9312
  669MOL0     H88271   1.232   7.196   6.063 -0.1175 -0.0404 -1.9677
  669MOL0     H88272   0.733   7.240   6.043 -3.3966 -1.9197  1.2216
  669MOL0     H88273   0.547   7.129   5.971  0.0789  0.8798  1.4862
  669MOL0     H88274   0.545   7.032   5.605 -0.4555 -0.9497 -1.8253
  669MOL0     H88275   0.437   7.109   5.715  1.3828  1.0463  1.3689
  669MOL0     H88276   0.293   6.877   5.701 -0.3162  2.4676  0.9559
  669MOL0     H88277   0.391   6.853   5.558 -0.6027  0.5721 -2.0647
  669MOL0     H88278   0.302   7.076   5.477  0.2327 -0.1289  0.3938
  669MOL0     H88279   0.229   7.099   5.636 -2.6235 -1.1397  0.7552
  669MOL0     H88280   0.163   6.883   5.417 -0.6349 -1.7711  1.0234
  669MOL0     H88281   0.077   6.890   5.575 -4.3528  3.7973  1.4332
  669MOL0     H88282   0.092   7.126   5.386  3.3881 -0.4423  1.7999
  669MOL0     H88283  -0.014   7.093   5.533  2.7386 -2.6535  3.7095
  669MOL0     H88284  -0.146   7.065   5.352 -1.9173 -0.6399 -0.4817
  669MOL0     H88285  -0.123   6.915   5.435  0.8157 -1.6828 -3.0349
  669MOL0     H88286   0.046   6.965   5.187 -0.1577  1.5066  0.2590
  669MOL0     H88287  -0.021   6.809   5.269  1.1575  0.0090  0.3386
  669MOL0     H88288  -0.203   7.007   5.153 -2.0465  0.6848 -0.9926
  669MOL0     H88289  -0.208   6.824   5.189 -1.9506  0.4868 -3.4705
  669MOL0     H88290   0.783   6.888   5.703 -3.3399 -1.3070  1.6109
  669MOL0     H88291   0.992   7.005   5.780 -1.3478  0.4111 -0.7759
  669MOL0     H88292   1.119   7.540   5.843 -1.7239 -0.1469 -0.0783
  669MOL0     H88293   1.295   7.675   5.964 -1.4931  0.9729  4.2788
  669MOL0     H88294   3.137   8.496   6.353  3.3510  1.4275 -0.7273
  669MOL0     H88295   3.320   8.601   6.435 -4.9816  1.0683 -3.8342
  669MOL0     H88296   3.643   8.726   6.593 -0.6245  2.5206  2.8852
  669MOL0     H88297   3.867   8.847   6.618  0.8457 -3.0528 -3.3778
  669MOL0     H88298   4.245   8.814   6.808 -1.6818  3.2196 -0.6274
  669MOL0     H88299   4.183   8.653   6.826 -3.9128 -2.1106 -0.3307
  669MOL0     H88300   4.134   8.896   7.015  0.3394 -0.3630  1.3197
  669MOL0     H88301   4.088   8.734   7.059 -2.3638  1.2629 -2.2294
  669MOL0     H88302   4.314   8.822   7.157 -0.4992 -1.1065 -0.2662
  669MOL0     H88303   4.382   8.790   7.003  1.0690 -1.8248  0.2229
  669MOL0     H88304   4.254   8.543   7.054 -0.3678  0.5980 -0.7093
  669MOL0     H88305   4.419   8.591   7.114  0.2828 -0.7455  0.9913
  669MOL0     H88306   4.239   8.591   7.475  1.2405  3.7876  0.1828
  669MOL0     H88307   4.009   8.541   6.868 -1.1383 -0.6464  0.1863
  669MOL0     H88308   3.826   8.414   6.831  0.3174  0.1897  0.1378
  670MOL0     O88309   6.653   7.595   5.220  0.0421  0.3548 -0.1533
  670MOL0     C88310   6.593   7.696   5.267 -0.1503 -0.0107 -0.8486
  670MOL0     O88311   6.643   7.798   5.334  0.5061 -0.2138  0.4913
  670MOL0     C88312   6.782   7.804   5.338  0.4331 -0.5795  0.9470
  670MOL0     C88313   6.852   7.928   5.330 -0.1839  1.3203  0.3688
  670MOL0     C88314   6.989   7.936   5.338  0.4543  0.1885 -0.1525
  670MOL0     C88315   7.063   7.817   5.366 -0.0705 -0.2937  1.3725
  670MOL0     O88316   7.187   7.841   5.361 -0.6425 -0.5124 -0.1159
  670MOL0     C88317   7.287   7.740   5.402  0.5968 -0.4464 -0.1785
  670MOL0     C88318   7.430   7.791   5.379  0.5637  0.1923 -0.4084
  670MOL0     C88319   7.542   7.682   5.387  0.3389 -0.5444 -0.6812
  670MOL0     C88320   7.536   7.590   5.263 -0.3101 -0.0573 -0.2474
  670MOL0     C88321   7.654   7.495   5.258 -0.3452  0.3324 -0.4813
  670MOL0     C88322   7.667   7.397   5.142  0.0973 -0.6933  0.8773
  670MOL0     C88323   7.785   7.300   5.151  0.6456 -0.4613  0.7494
  670MOL0     C88324   7.796   7.219   5.279 -0.2475  0.1782  0.1549
  670MOL0     N88325   7.681   7.138   5.303 -0.3072  0.5651 -0.2797
  670MOL0     C88326   7.665   7.009   5.249 -0.4450 -0.3408 -0.1068
  670MOL0     C88327   7.530   6.986   5.285  0.3146  0.6025  0.1473
  670MOL0     C88328   7.454   6.852   5.266  0.4386 -0.9655 -1.2477
  670MOL0     C88329   7.497   6.744   5.370  0.5669  0.1407  0.2927
  670MOL0     C88330   7.433   6.607   5.354 -0.4854  0.7693  0.8227
  670MOL0     C88331   7.286   6.594   5.415  0.8594 -1.0398  0.0027
  670MOL0     O88332   7.227   6.461   5.421  0.1090  0.6696  0.1616
  670MOL0     C88333   7.110   6.447   5.492  0.9142 -0.7298  0.3146
  670MOL0     C88334   7.072   6.322   5.519 -0.8540 -0.2255  0.8569
  670MOL0     C88335   6.956   6.298   5.594  0.3184 -0.0757  1.0439
  670MOL0     C88336   6.878   6.403   5.650  0.0569  0.1006  0.8412
  670MOL0     C88337   6.762   6.377   5.739  0.1084 -0.6654 -0.5073
  670MOL0     O88338   6.652   6.450   5.717 -0.0197  0.3183 -0.5301
  670MOL0     C88339   6.550   6.452   5.813 -0.2778 -0.1488 -0.1704
  670MOL0     C88340   6.423   6.448   5.762 -0.2680 -0.4062  1.1675
  670MOL0     C88341   6.320   6.441   5.851  0.2171 -0.0462  0.0159
  670MOL0     C88342   6.337   6.449   5.988 -0.0133 -0.2718 -0.4314
  670MOL0     O88343   6.228   6.426   6.072  0.3121 -0.8401  0.1248
  670MOL0     C88344   6.245   6.389   6.206  0.8981 -0.2142  0.4871
  670MOL0     C88345   6.098   6.345   6.249  0.2226  0.4153 -0.3879
  670MOL0     C88346   6.046   6.219   6.161  0.3148 -0.2857 -0.2979
  670MOL0     C88347   5.894   6.181   6.193  0.0139  0.5029 -0.3129
  670MOL0     C88348   5.776   6.247   6.114 -0.7241 -0.0773 -0.6527
  670MOL0     C88349   5.774   6.201   5.964 -0.1387  0.3941 -1.3217
  670MOL0     C88350   5.642   6.243   5.907  0.9137  0.2121  0.1073
  670MOL0     C88351   5.524   6.147   5.929  0.1068 -0.2244  0.5128
  670MOL0    Cl88352   5.401   6.226   6.029  0.4509  0.2457 -0.0246
  670MOL0     C88353   6.464   6.465   6.034  0.1424  0.6342 -0.5345
  670MOL0     C88354   6.575   6.472   5.950  0.5721 -0.2202  0.3249
  670MOL0     O88355   6.782   6.298   5.833 -0.1137  0.3327 -0.3785
  670MOL0     C88356   6.908   6.532   5.615  0.0396 -0.3216  0.2415
  670MOL0     C88357   7.021   6.554   5.536  0.1057  0.8240  0.0825
  670MOL0     N88358   7.475   7.088   5.361 -0.4212 -0.0434  1.0367
  670MOL0     N88359   7.576   7.174   5.373  0.2631 -0.2387 -0.6421
  670MOL0     C88360   6.993   7.694   5.382 -0.1043  0.8784  0.4657
  670MOL0     C88361   6.856   7.692   5.377  0.6385  0.6928  0.0920
  670MOL0     C88362   6.446   7.705   5.261  0.7272 -0.0908  1.5667
  670MOL0     C88363   6.381   7.829   5.244  0.1664  0.3835  0.5332
  670MOL0     C88364   6.242   7.832   5.216  1.3503 -0.1008 -0.1239
  670MOL0     C88365   6.164   7.713   5.219 -0.3971  0.7319  0.4197
  670MOL0     O88366   6.030   7.715   5.192  1.1437  0.4232 -1.0827
  670MOL0     C88367   5.989   7.811   5.092  0.5435  0.7817  0.0988
  670MOL0     C88368   5.870   7.756   5.011  0.1723  0.3116 -0.7636
  670MOL0     C88369   5.900   7.653   4.900  0.0256  0.7236  0.6591
  670MOL0     C88370   5.991   7.694   4.779  0.9039  0.4805  0.5962
  670MOL0     C88371   5.945   7.813   4.714 -1.1245 -1.1999 -0.1595
  670MOL0     C88372   5.920   7.919   4.668  0.2149  0.1075  0.4240
  670MOL0     C88373   6.226   7.588   5.246  1.1298  0.3650  0.1932
  670MOL0     C88374   6.369   7.586   5.265  0.4394 -0.7943 -0.3257
  670MOL0     H88375   6.798   8.021   5.319 -0.0864  1.4125  0.6528
  670MOL0     H88376   7.039   8.032   5.326  2.4166 -0.6377  0.9698
  670MOL0     H88377   7.270   7.663   5.325 -1.2310  0.6786 -0.9567
  670MOL0     H88378   7.266   7.702   5.502 -0.7033 -0.5101 -0.4481
  670MOL0     H88379   7.447   7.870   5.452  1.1302 -1.9728  1.9320
  670MOL0     H88380   7.421   7.841   5.282 -3.2155 -0.1208 -0.3747
  670MOL0     H88381   7.533   7.624   5.480 -0.7940 -0.7143 -0.8898
  670MOL0     H88382   7.637   7.736   5.387 -0.1254  0.3631 -2.7590
  670MOL0     H88383   7.456   7.516   5.277  2.3679 -3.4927 -1.7085
  670MOL0     H88384   7.532   7.643   5.168 -3.4652  2.2164  0.9803
  670MOL0     H88385   7.644   7.444   5.354 -0.0605  3.4129  1.3105
  670MOL0     H88386   7.743   7.558   5.267 -0.4240  0.3639  0.1175
  670MOL0     H88387   7.685   7.463   5.056  2.1805 -0.2605  1.5931
  670MOL0     H88388   7.576   7.340   5.119  0.6659 -1.7195  1.1018
  670MOL0     H88389   7.763   7.237   5.064 -0.0869  0.8906 -0.0801
  670MOL0     H88390   7.875   7.362   5.139 -1.4969  2.5223 -1.4644
  670MOL0     H88391   7.809   7.286   5.365  0.3743  1.6147 -1.0122
  670MOL0     H88392   7.888   7.162   5.269  0.9018  2.3034 -2.5635
  670MOL0     H88393   7.739   6.944   5.205 -0.0539  1.5585 -2.4615
  670MOL0     H88394   7.459   6.805   5.167 -1.7068 -1.5472 -1.1323
  670MOL0     H88395   7.345   6.862   5.277  0.2926 -1.4209 -2.2426
  670MOL0     H88396   7.462   6.779   5.468 -1.9673  1.5099 -1.0120
  670MOL0     H88397   7.606   6.733   5.371  0.5582 -0.2904 -1.1999
  670MOL0     H88398   7.430   6.584   5.247 -2.5137 -3.0758  1.5065
  670MOL0     H88399   7.495   6.531   5.401  0.9968 -0.5709 -2.9112
  670MOL0     H88400   7.216   6.661   5.366  0.1903  0.3177  2.6104
  670MOL0     H88401   7.293   6.631   5.518 -0.1775  0.0623 -0.3008
  670MOL0     H88402   7.127   6.240   5.476 -1.8415 -2.8374  4.1539
  670MOL0     H88403   6.920   6.200   5.623 -2.2648  1.0409  1.9730
  670MOL0     H88404   6.407   6.448   5.654 -3.1856 -0.3617  1.5432
  670MOL0     H88405   6.217   6.428   5.817  0.0235 -1.4637  1.0909
  670MOL0     H88406   6.272   6.475   6.269 -1.7273  0.9260  0.1758
  670MOL0     H88407   6.313   6.303   6.212  0.9427 -0.1997  0.2033
  670MOL0     H88408   6.023   6.424   6.243 -2.3883 -1.4180  3.4359
  670MOL0     H88409   6.098   6.316   6.355 -3.3432 -3.8093 -1.2386
  670MOL0     H88410   6.104   6.131   6.190  1.1515  1.3481  3.6020
  670MOL0     H88411   6.068   6.243   6.056  2.4620 -3.3835 -0.6941
  670MOL0     H88412   5.877   6.076   6.169  2.4012  0.5908 -2.9176
  670MOL0     H88413   5.878   6.209   6.297  2.9159  0.9499  0.0955
  670MOL0     H88414   5.796   6.355   6.117  0.8376 -0.3534  0.5296
  670MOL0     H88415   5.681   6.223   6.162 -0.9686 -1.1079 -1.6156
  670MOL0     H88416   5.786   6.092   5.960 -2.0901  0.1631 -1.5748
  670MOL0     H88417   5.856   6.249   5.910  0.8931 -0.8190 -0.8719
  670MOL0     H88418   5.615   6.342   5.945 -2.0819 -0.7806  0.8500
  670MOL0     H88419   5.654   6.245   5.799 -1.3345  1.2716 -0.1752
  670MOL0     H88420   5.557   6.055   5.977 -1.4982 -2.6461 -2.6249
  670MOL0     H88421   5.485   6.102   5.837  1.9881  1.2842 -1.1090
  670MOL0     H88422   6.482   6.471   6.140  1.1083  3.4325 -0.7558
  670MOL0     H88423   6.677   6.480   5.987  0.8241  2.0621 -0.6947
  670MOL0     H88424   6.844   6.607   5.662 -3.9239 -1.9853 -2.0415
  670MOL0     H88425   7.044   6.656   5.508 -1.9710  1.0443 -0.9512
  670MOL0     H88426   7.048   7.608   5.421  0.1060  0.9437  0.3187
  670MOL0     H88427   6.817   7.598   5.412  2.3489 -0.0994 -0.0352
  670MOL0     H88428   6.448   7.915   5.244  2.1496 -1.0387 -1.9087
  670MOL0     H88429   6.206   7.930   5.185  2.4703 -0.4450 -2.8376
  670MOL0     H88430   6.077   7.824   5.029  0.3566  0.0035 -0.3270
  670MOL0     H88431   5.959   7.908   5.134 -0.7350  0.5227 -0.1951
  670MOL0     H88432   5.812   7.701   5.086  3.5678 -1.7203  0.5885
  670MOL0     H88433   5.803   7.835   4.976 -2.1667 -1.8752 -1.5094
  670MOL0     H88434   5.808   7.621   4.850  1.3408 -0.4924 -1.0927
  670MOL0     H88435   5.935   7.561   4.947 -3.7153  0.2105  2.9014
  670MOL0     H88436   6.094   7.707   4.813  1.1121 -0.6318  0.4283
  670MOL0     H88437   5.994   7.618   4.700 -2.7659  0.6167  0.1761
  670MOL0     H88438   5.910   8.022   4.640 -0.4937  0.0346  0.3804
  670MOL0     H88439   6.181   7.489   5.245  3.5396 -0.8208 -1.6734
  670MOL0     H88440   6.424   7.492   5.269 -0.8611 -1.5657  3.2608
  671MOL0     O88441   8.988   1.693   7.379 -0.4752  0.4733 -0.6944
  671MOL0     C88442   9.058   1.794   7.401 -0.2616 -0.1432  0.1749
  671MOL0     O88443   9.018   1.907   7.461  0.1360  0.3427 -0.0577
  671MOL0     C88444   8.880   1.929   7.464 -0.6836 -0.2976  0.1432
  671MOL0     C88445   8.781   1.895   7.356 -0.0950 -0.8210 -0.7652
  671MOL0     C88446   8.649   1.926   7.366 -0.0374  0.4568  0.6935
  671MOL0     C88447   8.608   1.998   7.480  0.3435 -0.5549  0.3868
  671MOL0     O88448   8.480   2.043   7.503  0.2397 -0.1019  0.3182
  671MOL0     C88449   8.367   1.991   7.433  0.4365  0.1705 -0.7351
  671MOL0     C88450   8.278   1.923   7.534 -0.0900 -0.3704 -0.2403
  671MOL0     C88451   8.128   1.930   7.499  1.1507  0.1853 -0.7547
  671MOL0     C88452   8.041   1.829   7.592 -0.3575  0.0497 -0.6562
  671MOL0     C88453   7.883   1.854   7.594  0.2514 -0.8669  0.1774
  671MOL0     C88454   7.821   1.940   7.709  0.1382  0.6317  0.6787
  671MOL0     C88455   7.886   2.073   7.714 -0.1148 -0.8672 -0.9751
  671MOL0     C88456   7.827   2.151   7.842  0.2313 -0.3492  0.1875
  671MOL0     N88457   7.687   2.158   7.840 -1.1121 -0.3559  0.2948
  671MOL0     C88458   7.615   2.242   7.769  0.3227 -0.1773  0.3871
  671MOL0     C88459   7.486   2.231   7.820 -0.3244 -0.1960 -0.2978
  671MOL0     C88460   7.360   2.302   7.783 -0.9230 -0.4282 -0.4266
  671MOL0     C88461   7.243   2.274   7.880  0.7438  0.6841 -0.5520
  671MOL0     C88462   7.115   2.332   7.812  0.4942 -0.3007 -0.1241
  671MOL0     C88463   6.998   2.327   7.911  0.0594  0.2881  0.3986
  671MOL0     O88464   6.880   2.400   7.854 -0.9607 -0.6869  0.5151
  671MOL0     C88465   6.761   2.404   7.918 -0.4187 -0.0795 -0.4063
  671MOL0     C88466   6.709   2.296   7.986 -0.1103 -0.7398 -0.1838
  671MOL0     C88467   6.587   2.310   8.049 -0.4981  0.3746 -0.5968
  671MOL0     C88468   6.534   2.435   8.077  0.7068  0.6591 -0.0877
  671MOL0     C88469   6.414   2.442   8.164  0.8579  0.4300 -0.0189
  671MOL0     O88470   6.382   2.568   8.211  0.1874  0.6969  0.0282
  671MOL0     C88471   6.268   2.590   8.292  0.5521 -0.2908 -0.0355
  671MOL0     C88472   6.208   2.724   8.303  0.6453  0.7561 -0.2147
  671MOL0     C88473   6.084   2.729   8.372  0.3606  0.1685  0.9925
  671MOL0     C88474   6.027   2.618   8.435  0.0279 -0.0025  0.5377
  671MOL0     O88475   5.906   2.640   8.499 -0.3746 -0.1572  0.2542
  671MOL0     C88476   5.829   2.533   8.551 -0.0667 -0.5475  0.1574
  671MOL0     C88477   5.696   2.588   8.602  0.9441  0.3793 -0.6381
  671MOL0     C88478   5.618   2.485   8.675  0.4393 -0.0877 -0.6608
  671MOL0     C88479   5.492   2.542   8.733 -0.6222 -0.1829 -0.3478
  671MOL0     C88480   5.394   2.423   8.766 -0.4862  0.0451 -0.3091
  671MOL0     C88481   5.295   2.485   8.855 -0.1143 -0.7263  0.0541
  671MOL0     C88482   5.217   2.364   8.910  0.1501  0.1593  0.5649
  671MOL0     C88483   5.093   2.411   8.989 -1.2913  0.6331 -0.4472
  671MOL0    Cl88484   5.007   2.269   9.058 -0.2994 -0.1428  0.5330
  671MOL0     C88485   6.093   2.498   8.438 -1.0193 -0.4983  0.4751
  671MOL0     C88486   6.211   2.483   8.369 -0.4043  0.6063  0.5917
  671MOL0     O88487   6.336   2.342   8.181 -0.7853  0.3942  0.1017
  671MOL0     C88488   6.590   2.541   8.016  0.3929 -0.7478 -0.8365
  671MOL0     C88489   6.704   2.527   7.936  1.3826 -0.4579 -0.6615
  671MOL0     N88490   7.498   2.151   7.927 -0.7840 -0.0882 -0.3953
  671MOL0     N88491   7.611   2.104   7.928 -0.5835  0.8095  0.3088
  671MOL0     C88492   8.701   2.035   7.577 -0.7391 -0.4638 -0.7592
  671MOL0     C88493   8.838   2.000   7.572  0.7181 -0.3993 -0.4875
  671MOL0     C88494   9.201   1.769   7.391 -0.7965 -0.2538  0.1673
  671MOL0     C88495   9.299   1.881   7.396 -0.2443  0.1808  0.1990
  671MOL0     C88496   9.434   1.853   7.376 -0.9479  0.6729 -0.1163
  671MOL0     C88497   9.488   1.722   7.359  0.2506  0.9285 -0.2285
  671MOL0     O88498   9.610   1.685   7.325 -0.0493  0.8302 -0.1097
  671MOL0     C88499   9.704   1.786   7.319  0.3444 -0.0126 -0.0204
  671MOL0     C88500   9.833   1.735   7.265  0.0396 -0.6670  0.9663
  671MOL0     C88501   9.905   1.649   7.373  0.3522 -0.1434  1.1622
  671MOL0     C88502  10.058   1.653   7.353 -0.7957  1.5007  0.2352
  671MOL0     C88503  10.108   1.785   7.371  0.3681  0.1051 -0.1101
  671MOL0     C88504  10.163   1.893   7.371  0.1953 -0.3753 -0.0821
  671MOL0     C88505   9.394   1.620   7.399 -0.0661 -0.1895  0.5192
  671MOL0     C88506   9.258   1.642   7.393  0.8460  0.1451 -0.2526
  671MOL0     H88507   8.822   1.845   7.269 -2.3257 -1.3239 -1.5871
  671MOL0     H88508   8.590   1.906   7.277  0.6159  1.6259 -0.0426
  671MOL0     H88509   8.397   1.912   7.363  0.9817 -1.4013  1.1679
  671MOL0     H88510   8.325   2.075   7.378  2.6897  1.4876 -0.5661
  671MOL0     H88511   8.270   1.982   7.626  1.7465  1.1386 -0.9899
  671MOL0     H88512   8.316   1.822   7.549  1.0365 -0.4073 -2.8386
  671MOL0     H88513   8.125   1.885   7.399 -1.4248 -1.3560 -0.0726
  671MOL0     H88514   8.083   2.030   7.497 -0.5918 -0.5408  0.3714
  671MOL0     H88515   8.062   1.732   7.546  2.6610  0.6153 -0.6891
  671MOL0     H88516   8.074   1.835   7.696  1.1013  0.2041 -1.1071
  671MOL0     H88517   7.835   1.756   7.604  1.2345 -1.5519 -1.3739
  671MOL0     H88518   7.848   1.896   7.499 -2.1700  2.8074  2.4034
  671MOL0     H88519   7.829   1.880   7.800  1.5160 -0.3847 -0.0794
  671MOL0     H88520   7.718   1.948   7.672  1.1242 -0.3161 -2.6016
  671MOL0     H88521   7.993   2.068   7.734 -0.6030 -0.2475  2.4338
  671MOL0     H88522   7.879   2.141   7.628  2.0897  2.4909  1.2419
  671MOL0     H88523   7.863   2.253   7.824 -1.9290  0.7882  1.9205
  671MOL0     H88524   7.865   2.101   7.932 -1.1056 -0.6442  0.6117
  671MOL0     H88525   7.646   2.301   7.683  0.2795  0.5086  0.8352
  671MOL0     H88526   7.325   2.268   7.685 -0.6648  2.4095 -1.6067
  671MOL0     H88527   7.373   2.410   7.771 -2.9007 -0.3594 -2.6656
  671MOL0     H88528   7.257   2.312   7.981 -1.6259  1.6411 -0.5119
  671MOL0     H88529   7.238   2.165   7.887  0.4543  0.7735  1.0004
  671MOL0     H88530   7.129   2.439   7.793  0.0723 -0.3171 -0.5461
  671MOL0     H88531   7.082   2.285   7.718 -2.6134  0.5099  0.4492
  671MOL0     H88532   7.025   2.378   8.005 -0.3724  1.2395  0.0212
  671MOL0     H88533   6.978   2.223   7.936 -0.8023  0.0086 -1.3547
  671MOL0     H88534   6.745   2.194   7.977 -1.5980 -1.3194  0.1195
  671MOL0     H88535   6.534   2.231   8.102 -0.4150  3.3574  4.5415
  671MOL0     H88536   6.247   2.821   8.275 -0.6904  1.2847 -0.3202
  671MOL0     H88537   6.029   2.822   8.367  0.5898  0.2439 -0.9683
  671MOL0     H88538   5.885   2.490   8.636  0.8978  2.8423  1.4021
  671MOL0     H88539   5.810   2.474   8.461 -0.5720  0.8628 -0.6814
  671MOL0     H88540   5.647   2.628   8.513  2.4804 -1.2103 -2.3108
  671MOL0     H88541   5.724   2.662   8.678 -0.8194 -0.6243  1.0979
  671MOL0     H88542   5.672   2.441   8.759 -1.8056 -1.5771  0.0908
  671MOL0     H88543   5.595   2.395   8.616 -0.6510 -1.5234  1.7924
  671MOL0     H88544   5.521   2.600   8.822 -0.8160  0.4905 -0.7213
  671MOL0     H88545   5.449   2.612   8.662 -1.0702  0.6121  0.6712
  671MOL0     H88546   5.446   2.346   8.823 -2.2065 -2.3808 -1.8177
  671MOL0     H88547   5.356   2.374   8.676 -0.5195  2.3846 -1.6518
  671MOL0     H88548   5.240   2.553   8.790 -0.1899 -1.9049 -1.1601
  671MOL0     H88549   5.343   2.539   8.937  3.7189 -1.5552 -1.4428
  671MOL0     H88550   5.177   2.303   8.829  3.1309 -2.2828  0.7496
  671MOL0     H88551   5.275   2.296   8.973 -0.6293 -1.6190 -0.5548
  671MOL0     H88552   5.027   2.463   8.919 -0.9619  0.7020 -0.7112
  671MOL0     H88553   5.138   2.479   9.061 -1.3455  1.3314 -1.0557
  671MOL0     H88554   6.039   2.419   8.487 -3.1118  0.2823 -0.4615
  671MOL0     H88555   6.249   2.381   8.372  0.7191  0.9355 -1.3772
  671MOL0     H88556   6.552   2.640   8.036 -1.2734 -1.7173  1.0214
  671MOL0     H88557   6.749   2.617   7.895 -0.7128  0.5444 -0.8923
  671MOL0     H88558   8.672   2.092   7.664 -2.1368 -1.9098 -0.2244
  671MOL0     H88559   8.908   2.022   7.652  2.1649 -1.6381 -1.3708
  671MOL0     H88560   9.258   1.981   7.390  0.1862  0.3969  0.6899
  671MOL0     H88561   9.495   1.942   7.364 -1.4587  0.9955 -0.3490
  671MOL0     H88562   9.715   1.817   7.423 -1.1838 -1.1117  0.5116
  671MOL0     H88563   9.676   1.877   7.264  3.1260  1.3485  0.6321
  671MOL0     H88564   9.806   1.670   7.181  3.0065 -1.3426  0.4233
  671MOL0     H88565   9.894   1.822   7.239  0.5581 -0.5959  2.3601
  671MOL0     H88566   9.859   1.550   7.381 -3.9093  1.4239 -0.6306
  671MOL0     H88567   9.898   1.702   7.469  0.0961 -0.7213  1.4638
  671MOL0     H88568  10.118   1.584   7.412 -0.4666 -0.1923 -1.9258
  671MOL0     H88569  10.075   1.614   7.252  0.0213 -0.0073  0.9226
  671MOL0     H88570  10.228   1.977   7.359  0.7353 -0.6181  1.0265
  671MOL0     H88571   9.426   1.518   7.413  0.2611 -0.3923 -1.4706
  671MOL0     H88572   9.192   1.555   7.391 -1.6928  1.9129  0.7617
  672MOL0     O88573   6.878   4.028   1.486 -0.1636 -0.0539  0.3329
  672MOL0     C88574   6.923   3.917   1.457 -0.4844  0.8209  0.2956
  672MOL0     O88575   7.014   3.893   1.353 -0.2624 -0.5595 -0.8064
  672MOL0     C88576   7.060   4.003   1.286 -0.2737 -0.4093  0.6561
  672MOL0     C88577   7.119   4.109   1.349 -0.1186 -0.1848 -0.3032
  672MOL0     C88578   7.167   4.219   1.274  0.0818 -0.0256  1.1449
  672MOL0     C88579   7.149   4.224   1.133  0.4901 -0.8512  0.6150
  672MOL0     O88580   7.198   4.331   1.054 -0.0080  0.9890  0.0308
  672MOL0     C88581   7.340   4.360   1.078  0.8072  1.1573  0.5144
  672MOL0     C88582   7.421   4.238   1.033  0.5300 -0.5251  1.0961
  672MOL0     C88583   7.573   4.270   1.040 -0.1414  0.3565  0.2504
  672MOL0     C88584   7.675   4.154   1.040 -0.5423  0.2965 -1.2066
  672MOL0     C88585   7.677   4.081   0.895  0.6781 -0.1406  0.3253
  672MOL0     C88586   7.716   4.169   0.777  0.2848  0.8346  1.3015
  672MOL0     C88587   7.714   4.075   0.650 -0.0947 -0.6589 -0.9995
  672MOL0     C88588   7.680   4.168   0.530 -0.1682 -0.0676 -0.9141
  672MOL0     N88589   7.531   4.219   0.534  0.5144 -0.8142 -0.4861
  672MOL0     C88590   7.415   4.158   0.598 -0.1659  0.5390 -0.0042
  672MOL0     C88591   7.309   4.235   0.557  1.5707 -0.5788 -0.5782
  672MOL0     C88592   7.158   4.217   0.574 -1.5832  0.8158 -0.1618
  672MOL0     C88593   7.117   4.087   0.503 -0.3103  0.9028 -0.7567
  672MOL0     C88594   7.131   4.099   0.348 -0.1746 -0.0143  0.5177
  672MOL0     C88595   7.026   4.014   0.288  0.1056  0.2541  0.3925
  672MOL0     O88596   6.887   4.070   0.306 -0.2715 -0.6092  0.6286
  672MOL0     C88597   6.835   4.165   0.221  1.0756 -0.4585  1.0116
  672MOL0     C88598   6.710   4.223   0.265  0.4830  0.8469  0.0667
  672MOL0     C88599   6.650   4.317   0.186 -0.9765 -0.0760 -0.3734
  672MOL0     C88600   6.719   4.384   0.081 -0.3263 -0.2682  0.3202
  672MOL0     C88601   6.651   4.505   0.009 -0.5241  0.2069  0.1308
  672MOL0     O88602   6.737   4.581  -0.076 -0.4759 -0.4154  0.0599
  672MOL0     C88603   6.684   4.701  -0.125 -0.4165 -0.5624  0.0296
  672MOL0     C88604   6.588   4.703  -0.226 -0.2210  0.1003  0.7268
  672MOL0     C88605   6.534   4.828  -0.270  0.4046  0.9283 -0.8182
  672MOL0     C88606   6.573   4.947  -0.211 -0.7425  0.3285 -0.7756
  672MOL0     O88607   6.531   5.068  -0.261  0.0221  0.0354 -0.0333
  672MOL0     C88608   6.393   5.078  -0.318 -0.6557 -0.0067  0.0911
  672MOL0     C88609   6.383   5.211  -0.396 -0.2755  0.5677  0.2195
  672MOL0     C88610   6.435   5.190  -0.540  0.0285 -0.1339  0.7954
  672MOL0     C88611   6.429   5.328  -0.629 -0.3483  0.6958  0.1950
  672MOL0     C88612   6.519   5.446  -0.594  0.0109 -0.0598 -0.1093
  672MOL0     C88613   6.661   5.405  -0.549  0.0225  0.3520 -0.0763
  672MOL0     C88614   6.753   5.525  -0.542 -0.5476 -0.6943 -0.1616
  672MOL0     C88615   6.825   5.545  -0.683  0.0081  0.5457  0.0265
  672MOL0    Cl88616   6.983   5.645  -0.687  0.1986  0.1914 -0.6539
  672MOL0     C88617   6.684   4.942  -0.118  0.0535 -0.6959 -0.1269
  672MOL0     C88618   6.735   4.817  -0.069  0.7758  0.2747 -0.0226
  672MOL0     O88619   6.538   4.541   0.041 -0.3478 -0.5098  0.0203
  672MOL0     C88620   6.843   4.330   0.039  0.1344  0.4295  1.1599
  672MOL0     C88621   6.900   4.227   0.110 -0.2719  0.7984  0.0840
  672MOL0     N88622   7.353   4.336   0.485 -0.2708  0.2697  0.1567
  672MOL0     N88623   7.486   4.332   0.464 -0.0811 -0.9816 -0.3032
  672MOL0     C88624   7.092   4.107   1.071 -0.8387 -0.1429  0.1084
  672MOL0     C88625   7.053   3.995   1.143  0.0298  0.4924 -0.0153
  672MOL0     C88626   6.860   3.796   1.507  0.2441  0.0716  0.0030
  672MOL0     C88627   6.727   3.807   1.547  0.0889  0.0802  0.1432
  672MOL0     C88628   6.661   3.695   1.592 -0.0250 -0.1596 -0.1116
  672MOL0     C88629   6.731   3.576   1.623 -0.9984  0.8330 -0.5206
  672MOL0     O88630   6.657   3.465   1.638  0.3367  0.5789 -0.0745
  672MOL0     C88631   6.715   3.341   1.689 -0.3706 -0.4885 -0.2562
  672MOL0     C88632   6.615   3.228   1.671 -0.3203 -0.4110  0.1026
  672MOL0     C88633   6.534   3.214   1.544 -0.5152  0.3440  0.4501
  672MOL0     C88634   6.406   3.123   1.572  0.3268  0.0473 -0.8564
  672MOL0     C88635   6.443   2.980   1.567 -0.8207 -0.3363 -0.4088
  672MOL0     C88636   6.478   2.871   1.560 -0.2626  0.0828 -0.9519
  672MOL0     C88637   6.869   3.570   1.600  0.6651 -0.0331 -0.9794
  672MOL0     C88638   6.932   3.677   1.534  0.0363  0.1790  0.3507
  672MOL0     H88639   7.135   4.093   1.455 -1.2848  0.1058 -0.0679
  672MOL0     H88640   7.209   4.305   1.324 -2.6236  0.7500  2.2536
  672MOL0     H88641   7.365   4.395   1.178 -0.6303 -0.5038  1.5185
  672MOL0     H88642   7.376   4.437   1.008  0.5407 -0.9932 -2.1760
  672MOL0     H88643   7.386   4.221   0.931  2.2588  3.1136 -0.2559
  672MOL0     H88644   7.390   4.147   1.085 -1.6267 -0.8094 -0.5440
  672MOL0     H88645   7.584   4.318   1.138 -0.2969  0.8206  0.0423
  672MOL0     H88646   7.594   4.347   0.965 -0.0443 -1.5219 -1.7446
  672MOL0     H88647   7.773   4.185   1.078  1.1734 -1.6566 -3.6433
  672MOL0     H88648   7.629   4.084   1.110 -1.1731  1.9362  0.0553
  672MOL0     H88649   7.574   4.047   0.881  0.1760  0.2141  2.6668
  672MOL0     H88650   7.741   3.993   0.900  1.2880  0.2253 -0.7077
  672MOL0     H88651   7.816   4.209   0.793  0.8055 -0.1894  0.6913
  672MOL0     H88652   7.655   4.258   0.759  1.3303  1.0922 -1.3199
  672MOL0     H88653   7.810   4.025   0.634  0.5138  0.7585 -2.0268
  672MOL0     H88654   7.648   3.991   0.671  3.1530 -3.2013 -0.1554
  672MOL0     H88655   7.701   4.120   0.434 -0.4974  1.8933 -2.0252
  672MOL0     H88656   7.749   4.252   0.523  0.6462 -0.4030  1.8355
  672MOL0     H88657   7.423   4.064   0.651 -0.0062 -0.9152 -2.4375
  672MOL0     H88658   7.095   4.300   0.541 -0.0633  2.4152  0.7714
  672MOL0     H88659   7.137   4.217   0.682  0.8216  2.5657  0.4055
  672MOL0     H88660   7.014   4.068   0.534 -0.2357 -2.3758 -2.1395
  672MOL0     H88661   7.167   3.996   0.536 -0.4306  0.7704 -0.9409
  672MOL0     H88662   7.114   4.202   0.317 -1.9596 -0.8151 -1.4212
  672MOL0     H88663   7.230   4.063   0.318  0.3067 -0.7443  2.7483
  672MOL0     H88664   7.046   3.911   0.319  3.9775  1.3135  1.9963
  672MOL0     H88665   7.051   4.014   0.181  0.7849 -4.5066  0.3304
  672MOL0     H88666   6.646   4.194   0.348 -1.5303 -0.2637 -1.7601
  672MOL0     H88667   6.559   4.369   0.215 -0.8433  0.5450 -1.0382
  672MOL0     H88668   6.555   4.611  -0.273 -0.4883  0.2211  0.6753
  672MOL0     H88669   6.456   4.829  -0.346 -0.8271  0.9550  0.4031
  672MOL0     H88670   6.332   5.084  -0.227  0.7901 -1.2018  1.1911
  672MOL0     H88671   6.357   4.986  -0.366 -1.2911  0.0417  0.4638
  672MOL0     H88672   6.434   5.287  -0.338  2.1531 -1.9720  1.6666
  672MOL0     H88673   6.278   5.241  -0.401 -1.0608 -2.0885 -1.9090
  672MOL0     H88674   6.377   5.110  -0.587 -0.5392  0.0759  1.1272
  672MOL0     H88675   6.538   5.153  -0.534  0.3047  0.6972  1.2712
  672MOL0     H88676   6.443   5.316  -0.737 -1.3729 -0.2927  0.1591
  672MOL0     H88677   6.327   5.365  -0.617 -1.2729 -1.3372 -0.8487
  672MOL0     H88678   6.467   5.488  -0.507 -1.5241  2.7942 -2.1964
  672MOL0     H88679   6.506   5.515  -0.678  0.4413  1.5291  1.0741
  672MOL0     H88680   6.692   5.324  -0.615  2.5178 -0.2253  1.6778
  672MOL0     H88681   6.652   5.359  -0.450  2.0367 -2.6782 -1.1548
  672MOL0     H88682   6.697   5.616  -0.519 -1.0891 -1.5621  2.3044
  672MOL0     H88683   6.833   5.516  -0.468 -0.1356  1.3439 -0.3113
  672MOL0     H88684   6.752   5.598  -0.745 -0.4525 -0.6947 -0.5209
  672MOL0     H88685   6.842   5.446  -0.725 -0.6196 -0.2300  1.5210
  672MOL0     H88686   6.732   5.030  -0.077  2.0675 -2.6483  1.9468
  672MOL0     H88687   6.799   4.825   0.018  0.9770  0.3371 -0.1755
  672MOL0     H88688   6.878   4.362  -0.059  0.6204  0.1966  1.2579
  672MOL0     H88689   6.989   4.191   0.062 -0.9167 -1.0669  0.2177
  672MOL0     H88690   7.095   4.119   0.963  2.0155  1.5349  0.2665
  672MOL0     H88691   7.021   3.903   1.094  0.5325 -0.0411  0.6441
  672MOL0     H88692   6.675   3.900   1.529  3.4926  1.3562 -5.6454
  672MOL0     H88693   6.554   3.708   1.601 -0.5047 -1.7374 -2.5211
  672MOL0     H88694   6.749   3.358   1.791 -0.1996 -0.7789 -0.2660
  672MOL0     H88695   6.803   3.317   1.629  0.0938 -0.7087  0.5031
  672MOL0     H88696   6.667   3.132   1.679 -2.8064 -1.8716 -0.1279
  672MOL0     H88697   6.547   3.223   1.757  1.2024 -2.7398  1.2621
  672MOL0     H88698   6.594   3.158   1.472 -2.6119 -0.9120 -0.4203
  672MOL0     H88699   6.504   3.308   1.497  0.4096  0.8928  0.9210
  672MOL0     H88700   6.365   3.143   1.671  2.7034 -1.4617  0.5234
  672MOL0     H88701   6.327   3.145   1.499  0.2174  0.1444 -0.7094
  672MOL0     H88702   6.496   2.766   1.553  1.7219  0.4323 -2.1403
  672MOL0     H88703   6.925   3.477   1.598  0.0118 -0.4261 -1.2056
  672MOL0     H88704   7.031   3.665   1.492 -0.8349  0.1037 -1.7906
  673MOL0     O88705   9.505   0.880   3.034 -0.3267 -0.4439  0.0632
  673MOL0     C88706   9.528   0.793   3.112  0.1251  0.0541  0.1080
  673MOL0     O88707   9.616   0.808   3.217  0.2022  0.2760  0.3176
  673MOL0     C88708   9.710   0.909   3.208  0.7591 -0.0773  0.5560
  673MOL0     C88709   9.783   0.917   3.094 -0.6322 -0.6407 -0.3083
  673MOL0     C88710   9.895   0.996   3.085  0.1598  0.2269 -0.1189
  673MOL0     C88711   9.927   1.078   3.185 -0.2262  0.2389  0.1787
  673MOL0     O88712  10.050   1.134   3.171 -1.0489 -0.2609 -0.6248
  673MOL0     C88713  10.131   1.151   3.285 -0.8948  0.2273  0.3092
  673MOL0     C88714  10.286   1.158   3.255  0.0495  1.0907 -0.6040
  673MOL0     C88715  10.364   1.040   3.187 -0.7886 -0.9004 -0.4692
  673MOL0     C88716  10.510   1.083   3.149  0.3196  1.0218  0.3907
  673MOL0     C88717  10.541   1.060   2.998 -0.1516  0.7017  0.4178
  673MOL0     C88718  10.682   1.098   2.963 -0.1665 -0.0126  0.4758
  673MOL0     C88719  10.749   1.214   3.041  1.0031 -0.0956  0.7754
  673MOL0     C88720  10.684   1.357   3.026 -0.4517 -0.6364 -0.7351
  673MOL0     N88721  10.721   1.420   2.898  0.2075  0.2385  1.2005
  673MOL0     C88722  10.673   1.376   2.775  0.3808  0.3569  0.6750
  673MOL0     C88723  10.717   1.469   2.685 -1.3087 -0.0825 -0.1423
  673MOL0     C88724  10.702   1.478   2.537 -0.0528 -0.1049  1.1688
  673MOL0     C88725  10.548   1.467   2.498 -0.2798 -0.0472 -0.5080
  673MOL0     C88726  10.551   1.429   2.345  0.4903  0.0746 -0.0640
  673MOL0     C88727  10.408   1.382   2.294 -0.1172 -0.5835 -0.0107
  673MOL0     O88728  10.317   1.486   2.322  0.2587 -0.3441 -0.6011
  673MOL0     C88729  10.185   1.479   2.279 -0.0282 -0.3654 -0.2146
  673MOL0     C88730  10.130   1.355   2.247 -0.7447 -0.2074 -0.1509
  673MOL0     C88731  10.010   1.356   2.178 -0.7615  1.0426  0.4908
  673MOL0     C88732   9.937   1.475   2.167 -0.7628  0.0791 -0.6268
  673MOL0     C88733   9.793   1.482   2.122 -0.1841 -0.4615 -0.7027
  673MOL0     O88734   9.711   1.585   2.179  0.3122 -0.4403 -0.2184
  673MOL0     C88735   9.590   1.631   2.121 -0.0598 -0.7003  0.1660
  673MOL0     C88736   9.546   1.757   2.174  0.7067 -0.6137  0.3868
  673MOL0     C88737   9.427   1.822   2.134  0.2764  0.1441  0.3276
  673MOL0     C88738   9.345   1.768   2.032 -0.1736  0.8598 -0.5780
  673MOL0     O88739   9.235   1.824   1.973 -0.2720  0.2873  0.6710
  673MOL0     C88740   9.204   1.958   2.010  0.1027 -0.4335  0.4565
  673MOL0     C88741   9.072   1.998   1.925  0.4417  0.2468  0.2566
  673MOL0     C88742   8.932   1.945   1.977 -0.7973 -0.6741  0.1017
  673MOL0     C88743   8.827   2.007   1.882 -0.4043  0.1264 -0.0107
  673MOL0     C88744   8.693   1.942   1.917 -1.1138 -0.0829  0.4001
  673MOL0     C88745   8.569   2.019   1.865 -0.3391  0.1329 -0.2812
  673MOL0     C88746   8.445   1.928   1.850  0.0819  0.2919  0.0123
  673MOL0     C88747   8.340   1.992   1.767  0.0114 -0.8554 -0.3162
  673MOL0    Cl88748   8.180   1.900   1.798  0.0837 -0.0363 -0.5037
  673MOL0     C88749   9.390   1.641   1.979 -0.3089 -0.0949  0.3198
  673MOL0     C88750   9.508   1.578   2.025  0.7256 -0.2128 -0.1190
  673MOL0     O88751   9.756   1.409   2.039  0.3549  0.5494  0.5412
  673MOL0     C88752   9.999   1.601   2.197  0.4654 -0.5423 -0.0702
  673MOL0     C88753  10.125   1.598   2.265 -0.9625 -0.4411  0.4630
  673MOL0     N88754  10.792   1.562   2.752  0.7425  0.0615  0.1456
  673MOL0     N88755  10.796   1.534   2.880  0.2023 -0.0781  0.3226
  673MOL0     C88756   9.853   1.066   3.305  0.5471  0.0527  0.2261
  673MOL0     C88757   9.740   0.986   3.310  0.0133  0.6468 -0.7992
  673MOL0     C88758   9.463   0.658   3.086 -0.3724 -1.5437  0.4797
  673MOL0     C88759   9.360   0.650   2.992 -0.5863 -0.1494 -0.4919
  673MOL0     C88760   9.309   0.525   2.949  0.2052 -0.4523 -0.1391
  673MOL0     C88761   9.357   0.401   3.002  0.9970 -0.2028  0.4234
  673MOL0     O88762   9.290   0.284   2.974 -0.3968  0.6490 -0.8101
  673MOL0     C88763   9.191   0.280   2.877  0.0206 -0.5478  0.1271
  673MOL0     C88764   9.250   0.277   2.734 -0.0879 -0.0867 -0.4975
  673MOL0     C88765   9.129   0.231   2.645 -0.6465  0.0722  0.7642
  673MOL0     C88766   9.160   0.237   2.494  1.2531  0.6246 -0.2130
  673MOL0     C88767   9.177   0.363   2.435 -0.9285 -0.7413  1.0021
  673MOL0     C88768   9.193   0.472   2.376  0.4286  0.2940 -0.6980
  673MOL0     C88769   9.456   0.412   3.096  0.5273  0.5051  0.0080
  673MOL0     C88770   9.511   0.534   3.135 -0.7060 -0.4120 -0.0506
  673MOL0     H88771   9.749   0.857   3.010 -4.1709 -0.1783  0.6407
  673MOL0     H88772   9.958   1.000   2.997  3.9130 -1.7561  2.1855
  673MOL0     H88773  10.118   1.073   3.360  0.6112 -0.9813 -0.6300
  673MOL0     H88774  10.114   1.248   3.334  1.6173  1.0010 -0.2428
  673MOL0     H88775  10.345   1.186   3.343  2.8451  3.8631 -3.1523
  673MOL0     H88776  10.293   1.242   3.186 -0.6462 -1.8082 -4.5609
  673MOL0     H88777  10.295   0.999   3.113 -2.9622 -0.4195  1.1886
  673MOL0     H88778  10.381   0.964   3.263 -1.3656 -0.1074  0.4740
  673MOL0     H88779  10.523   1.189   3.176 -1.1255  2.2085 -3.0092
  673MOL0     H88780  10.574   1.018   3.209 -1.6698 -1.9554 -0.4785
  673MOL0     H88781  10.468   1.118   2.940  0.2589  2.0855  1.2136
  673MOL0     H88782  10.534   0.953   2.981 -2.1908  0.8353  0.1271
  673MOL0     H88783  10.693   1.095   2.855  2.5619 -3.3916  0.6699
  673MOL0     H88784  10.752   1.016   2.983  0.5924  0.1228 -1.5016
  673MOL0     H88785  10.751   1.173   3.142 -2.7090 -1.5938  0.3818
  673MOL0     H88786  10.851   1.224   3.003  0.0015  3.9792 -1.5437
  673MOL0     H88787  10.743   1.418   3.095 -0.5048 -0.9640 -0.3964
  673MOL0     H88788  10.579   1.348   3.055 -0.0335 -3.5991  0.1853
  673MOL0     H88789  10.602   1.299   2.747  0.0576  1.3740 -1.5287
  673MOL0     H88790  10.751   1.390   2.494  0.1599  1.4501 -2.1087
  673MOL0     H88791  10.743   1.569   2.491 -1.1990  1.6438  3.4296
  673MOL0     H88792  10.498   1.563   2.506 -2.0092 -0.8267 -1.4630
  673MOL0     H88793  10.493   1.396   2.561 -1.8370 -0.1812 -1.9702
  673MOL0     H88794  10.599   1.515   2.296  2.6280 -0.2628  1.2880
  673MOL0     H88795  10.619   1.344   2.332  0.9892  0.2980  0.9451
  673MOL0     H88796  10.374   1.288   2.340  2.6239 -2.3539 -1.3227
  673MOL0     H88797  10.429   1.369   2.188  2.9842 -0.7724  0.5246
  673MOL0     H88798  10.173   1.259   2.273 -2.3219 -0.6043  1.0577
  673MOL0     H88799   9.959   1.261   2.161  0.9411  0.3290 -1.0361
  673MOL0     H88800   9.607   1.806   2.250  0.5726 -1.2301  0.9050
  673MOL0     H88801   9.392   1.916   2.176 -1.3242  1.1060 -2.8303
  673MOL0     H88802   9.271   2.039   1.979 -1.4249  0.2454 -1.2940
  673MOL0     H88803   9.188   1.958   2.119  3.1591 -1.9091  0.9989
  673MOL0     H88804   9.094   1.949   1.830  1.3992  0.3191  0.4304
  673MOL0     H88805   9.049   2.103   1.904 -1.3749 -0.4731 -1.7140
  673MOL0     H88806   8.920   1.983   2.079  1.6806  1.0603 -0.1509
  673MOL0     H88807   8.924   1.837   1.993 -2.0562 -0.4134  1.4806
  673MOL0     H88808   8.814   2.114   1.901  0.3040  0.1237  0.5614
  673MOL0     H88809   8.854   1.988   1.778 -1.9942  0.5322 -0.5134
  673MOL0     H88810   8.677   1.947   2.025  0.4687  0.9927  0.6344
  673MOL0     H88811   8.695   1.840   1.879 -3.4191  0.3581 -1.1095
  673MOL0     H88812   8.580   2.063   1.765 -1.3901  0.7074 -0.1636
  673MOL0     H88813   8.546   2.104   1.929 -2.1123 -1.1660  0.9391
  673MOL0     H88814   8.467   1.826   1.817  1.2029  0.7150 -0.6281
  673MOL0     H88815   8.396   1.909   1.946  0.7503  0.8820  0.4791
  673MOL0     H88816   8.354   1.983   1.659 -0.0936 -3.0353 -0.2008
  673MOL0     H88817   8.335   2.097   1.797  2.3890 -0.8712  0.2808
  673MOL0     H88818   9.338   1.599   1.894 -0.8766  1.5883 -0.2031
  673MOL0     H88819   9.536   1.484   1.978  2.7093  0.1420  0.2935
  673MOL0     H88820   9.949   1.697   2.196  2.6350  0.7985  3.0481
  673MOL0     H88821  10.168   1.685   2.313  0.5661 -0.9776  0.1269
  673MOL0     H88822   9.863   1.139   3.385 -1.0021  0.8150 -0.2371
  673MOL0     H88823   9.678   0.972   3.398  0.6214 -4.2004 -0.8783
  673MOL0     H88824   9.313   0.727   2.932 -1.3390 -0.8276 -0.7837
  673MOL0     H88825   9.222   0.539   2.886 -0.4749 -2.8531  0.1645
  673MOL0     H88826   9.129   0.370   2.890  1.6283  0.8861 -1.6207
  673MOL0     H88827   9.125   0.195   2.896  0.6725 -0.4033  3.6066
  673MOL0     H88828   9.292   0.375   2.712  3.6218 -1.5850 -0.7581
  673MOL0     H88829   9.330   0.202   2.741  3.9470  3.9358  1.1275
  673MOL0     H88830   9.033   0.281   2.662 -1.7886 -1.4235 -0.8250
  673MOL0     H88831   9.104   0.126   2.661  0.5156 -0.7315 -1.9959
  673MOL0     H88832   9.240   0.164   2.476  0.0855 -0.3036 -1.8620
  673MOL0     H88833   9.077   0.186   2.444  2.0849 -0.2338 -0.7625
  673MOL0     H88834   9.210   0.561   2.318 -1.4867  0.3725 -1.2164
  673MOL0     H88835   9.470   0.313   3.139 -2.1217 -0.9082 -2.0187
  673MOL0     H88836   9.564   0.524   3.229 -2.2652 -1.3661  0.7787
  674MOL0     O88837   6.285   7.996   2.412  0.5859 -0.0907 -0.6604
  674MOL0     C88838   6.288   7.986   2.285 -0.1380  0.0050  0.3524
  674MOL0     O88839   6.183   8.010   2.202  0.4409 -0.7164 -0.6649
  674MOL0     C88840   6.059   8.037   2.261  0.6814  0.1891  0.4371
  674MOL0     C88841   6.000   7.961   2.368 -0.1552  0.2696 -0.4571
  674MOL0     C88842   5.876   7.998   2.422 -0.4296 -0.4425  0.1738
  674MOL0     C88843   5.798   8.086   2.349  0.1950  0.9032 -0.2887
  674MOL0     O88844   5.668   8.091   2.395  0.8604 -0.4168 -0.4964
  674MOL0     C88845   5.577   8.153   2.314  1.0169 -0.4051  0.1241
  674MOL0     C88846   5.435   8.127   2.357  0.7848  0.6263 -0.0923
  674MOL0     C88847   5.415   8.182   2.500 -0.6051 -0.6668  0.6466
  674MOL0     C88848   5.274   8.161   2.536 -0.2271  0.1842 -0.0839
  674MOL0     C88849   5.245   8.216   2.673  0.2056 -0.5090 -0.2200
  674MOL0     C88850   5.113   8.168   2.725  0.2842 -1.0926 -0.0066
  674MOL0     C88851   5.088   8.239   2.852  0.2922 -0.0490  0.5504
  674MOL0     C88852   4.940   8.221   2.911  0.6967  0.6490  0.1382
  674MOL0     N88853   4.901   8.077   2.898 -0.4048 -0.6119  0.4416
  674MOL0     C88854   4.830   8.027   2.786  0.2173  0.0991  0.1382
  674MOL0     C88855   4.845   7.890   2.803  0.0125  0.8893  0.2838
  674MOL0     C88856   4.786   7.769   2.734 -0.4674 -0.0565  0.3198
  674MOL0     C88857   4.645   7.740   2.772  0.0561 -0.2110  0.6823
  674MOL0     C88858   4.547   7.854   2.741 -0.4016 -0.3577 -0.1462
  674MOL0     C88859   4.399   7.805   2.752  0.1148 -0.7296 -0.2211
  674MOL0     O88860   4.360   7.723   2.644 -0.7212  0.2783 -0.3435
  674MOL0     C88861   4.229   7.688   2.620 -0.1663 -0.1147 -0.0351
  674MOL0     C88862   4.122   7.718   2.715 -0.1964 -0.1820 -0.8596
  674MOL0     C88863   3.990   7.671   2.713  0.6280  0.0144  1.2002
  674MOL0     C88864   3.952   7.601   2.597  0.0806 -0.5623 -1.2229
  674MOL0     C88865   3.815   7.559   2.581 -0.3239 -0.2238  0.3884
  674MOL0     O88866   3.768   7.506   2.468  0.1701 -0.9452 -0.2975
  674MOL0     C88867   3.640   7.470   2.453  0.2600  0.6604  0.1115
  674MOL0     C88868   3.577   7.484   2.329  0.1882  0.6107  0.7154
  674MOL0     C88869   3.444   7.447   2.304  0.6298  0.2046 -0.2466
  674MOL0     C88870   3.367   7.379   2.401 -0.2827 -0.3247  0.7092
  674MOL0     O88871   3.229   7.363   2.384  0.0415 -0.4913 -0.3750
  674MOL0     C88872   3.165   7.290   2.487 -0.3412 -0.1708 -1.0010
  674MOL0     C88873   3.016   7.279   2.476  0.8496 -0.0933 -1.1066
  674MOL0     C88874   2.953   7.418   2.438  0.5061 -0.1345  0.0034
  674MOL0     C88875   2.800   7.420   2.436 -0.7042  0.3528 -0.2406
  674MOL0     C88876   2.748   7.569   2.446 -0.4372  0.1768 -0.3377
  674MOL0     C88877   2.802   7.659   2.336 -0.5850 -1.1422  0.4277
  674MOL0     C88878   2.750   7.801   2.355 -0.2936  0.2955 -1.0379
  674MOL0     C88879   2.765   7.884   2.234 -0.4398  1.0575 -0.4106
  674MOL0    Cl88880   2.730   8.040   2.273  0.2175  0.3563  0.2703
  674MOL0     C88881   3.439   7.348   2.519 -0.0783 -0.3578  0.1711
  674MOL0     C88882   3.567   7.394   2.544  0.3972  0.1788 -0.3931
  674MOL0     O88883   3.741   7.580   2.675  0.4980 -0.0244  0.0224
  674MOL0     C88884   4.043   7.570   2.498 -0.5049  0.4643 -0.7715
  674MOL0     C88885   4.179   7.610   2.508  0.6608  0.1109 -0.9579
  674MOL0     N88886   4.935   7.867   2.906 -0.2572  0.4069  0.0974
  674MOL0     N88887   4.953   7.975   2.972  0.0151 -0.5677 -0.6570
  674MOL0     C88888   5.845   8.158   2.243  0.9658  0.6328 -0.3594
  674MOL0     C88889   5.975   8.137   2.202 -0.2679  0.4641  0.4786
  674MOL0     C88890   6.412   7.943   2.210  0.5777 -0.1351 -0.3668
  674MOL0     C88891   6.405   7.950   2.068 -0.4050  0.1099  0.5085
  674MOL0     C88892   6.524   7.954   2.001  0.6321  0.0950 -0.5683
  674MOL0     C88893   6.639   7.920   2.062 -0.7180  0.8690  0.8659
  674MOL0     O88894   6.754   7.916   1.981  0.7930 -1.1671  0.2778
  674MOL0     C88895   6.883   7.887   2.040  0.4878 -0.2441 -0.1760
  674MOL0     C88896   6.986   7.883   1.926  0.1449  0.8785  0.3550
  674MOL0     C88897   6.971   7.751   1.836  0.7714  0.7035 -0.5849
  674MOL0     C88898   7.077   7.721   1.734 -0.5200 -1.2176  0.2510
  674MOL0     C88899   7.086   7.817   1.617 -0.6231  0.1461 -0.2110
  674MOL0     C88900   7.121   7.883   1.518 -0.1615 -1.4200 -0.4152
  674MOL0     C88901   6.643   7.884   2.192  0.7494 -0.3309  0.0995
  674MOL0     C88902   6.522   7.898   2.269  0.5759  1.1816 -0.2822
  674MOL0     H88903   6.047   7.876   2.417 -3.3790  0.0406  2.7185
  674MOL0     H88904   5.832   7.957   2.513  0.4786  1.4599  1.5400
  674MOL0     H88905   5.585   8.122   2.209 -1.5668  0.5711 -0.4255
  674MOL0     H88906   5.592   8.262   2.321  0.9971 -0.3168 -0.9964
  674MOL0     H88907   5.424   8.018   2.363 -0.9905  0.7792 -0.0556
  674MOL0     H88908   5.362   8.170   2.288 -0.6555 -0.4474  0.7119
  674MOL0     H88909   5.442   8.288   2.498 -0.0116 -0.8180  0.6603
  674MOL0     H88910   5.481   8.138   2.575 -0.3294 -0.2374  0.6581
  674MOL0     H88911   5.195   8.206   2.475  1.0592  0.2062 -1.8071
  674MOL0     H88912   5.245   8.057   2.526  0.5944 -0.2128  1.3813
  674MOL0     H88913   5.260   8.325   2.675 -0.9587 -0.3547  0.9653
  674MOL0     H88914   5.321   8.175   2.740  0.5186 -1.4487 -1.1161
  674MOL0     H88915   5.123   8.060   2.739 -1.1844 -1.9969 -4.3263
  674MOL0     H88916   5.033   8.192   2.654  1.8004 -1.1525 -1.8267
  674MOL0     H88917   5.162   8.221   2.931  0.2488  3.0013  1.4156
  674MOL0     H88918   5.103   8.347   2.838  0.0859  0.2051  2.1063
  674MOL0     H88919   4.870   8.290   2.861 -0.3884  1.1535  2.2241
  674MOL0     H88920   4.927   8.244   3.017 -0.4273 -0.4058  0.2508
  674MOL0     H88921   4.787   8.075   2.699 -0.6024 -1.2974 -0.2570
  674MOL0     H88922   4.846   7.679   2.751 -1.2645 -0.4611  1.0700
  674MOL0     H88923   4.781   7.785   2.626 -2.1833  1.9657  0.6280
  674MOL0     H88924   4.632   7.709   2.876 -1.0472  0.5086  0.7759
  674MOL0     H88925   4.611   7.659   2.708 -4.6496 -1.1974  3.8800
  674MOL0     H88926   4.573   7.941   2.803  3.6311 -1.3452 -0.1785
  674MOL0     H88927   4.552   7.883   2.636 -2.9679 -2.4112 -0.9372
  674MOL0     H88928   4.335   7.893   2.751 -0.2196 -0.9675  0.0166
  674MOL0     H88929   4.382   7.756   2.848 -1.9103  2.0959  0.9768
  674MOL0     H88930   4.141   7.776   2.805  1.3235 -0.4764 -0.9559
  674MOL0     H88931   3.933   7.711   2.796  3.7307 -0.6867  3.8349
  674MOL0     H88932   3.638   7.529   2.251 -0.2770 -2.0070 -1.2965
  674MOL0     H88933   3.397   7.462   2.207  2.9062 -1.8154 -1.7967
  674MOL0     H88934   3.182   7.333   2.586 -1.7516  2.4332 -1.8057
  674MOL0     H88935   3.211   7.191   2.488 -1.9824 -0.9699  0.2864
  674MOL0     H88936   2.973   7.243   2.570  0.9361  2.5956  0.0248
  674MOL0     H88937   2.987   7.198   2.408  2.0073 -0.7394 -0.8555
  674MOL0     H88938   2.986   7.452   2.339 -0.0310  1.4380  0.3323
  674MOL0     H88939   2.977   7.487   2.520 -2.6902  1.0518  0.1133
  674MOL0     H88940   2.764   7.360   2.353 -1.9206 -2.0894  1.9100
  674MOL0     H88941   2.767   7.377   2.532  2.3992  0.1631  0.8612
  674MOL0     H88942   2.776   7.602   2.546 -1.8843 -3.3333  1.3941
  674MOL0     H88943   2.638   7.572   2.443 -0.5595 -2.5009 -2.8687
  674MOL0     H88944   2.743   7.627   2.249  0.2127  3.2178 -2.0574
  674MOL0     H88945   2.909   7.660   2.314 -0.6286  3.6836 -0.9055
  674MOL0     H88946   2.646   7.779   2.383  0.1221 -0.8730 -0.3264
  674MOL0     H88947   2.801   7.846   2.440 -2.0475 -1.1607  0.9113
  674MOL0     H88948   2.695   7.837   2.163  2.5944 -2.9264 -1.1412
  674MOL0     H88949   2.872   7.872   2.213  0.3200 -3.8756  4.0733
  674MOL0     H88950   3.386   7.307   2.604 -1.4032  0.5848 -0.1528
  674MOL0     H88951   3.620   7.366   2.634  2.8784  0.6588 -1.6226
  674MOL0     H88952   4.011   7.509   2.414 -1.6908 -0.6625  0.4600
  674MOL0     H88953   4.249   7.590   2.428  1.7489  0.0702 -0.0162
  674MOL0     H88954   5.779   8.226   2.189  0.2297 -0.6214 -1.0849
  674MOL0     H88955   6.004   8.184   2.109 -0.5867 -1.3596 -0.5947
  674MOL0     H88956   6.320   7.979   2.008  0.9616 -1.0516 -2.1297
  674MOL0     H88957   6.521   7.974   1.894 -1.6499  1.8437 -0.2416
  674MOL0     H88958   6.877   7.792   2.094  1.0516 -1.0690 -1.5053
  674MOL0     H88959   6.910   7.963   2.113  0.1933 -0.0854 -0.2303
  674MOL0     H88960   6.966   7.963   1.854 -2.5403 -2.1971 -2.7118
  674MOL0     H88961   7.089   7.901   1.957 -0.7774  3.6387  2.1898
  674MOL0     H88962   6.878   7.756   1.779  1.4389  1.7847 -1.6114
  674MOL0     H88963   6.966   7.667   1.907 -3.6190  1.2884  0.0792
  674MOL0     H88964   7.170   7.710   1.791 -1.6836  1.5445  3.0210
  674MOL0     H88965   7.066   7.619   1.696 -0.5022 -0.6214 -1.4095
  674MOL0     H88966   7.158   7.939   1.435 -0.8689  0.7110  0.6381
  674MOL0     H88967   6.731   7.852   2.247 -0.3047 -0.5762  1.7173
  674MOL0     H88968   6.531   7.881   2.376 -1.4928 -1.1345 -0.3955
  675MOL0     O88969   4.964   2.049   7.019 -0.0958  0.0833  0.2784
  675MOL0     C88970   5.025   2.027   7.118 -0.0164 -0.1998 -0.0599
  675MOL0     O88971   5.124   1.931   7.127  0.3649 -0.5356  0.3116
  675MOL0     C88972   5.129   1.846   7.019 -0.4382  0.5639 -0.0341
  675MOL0     C88973   5.220   1.885   6.922  0.3509  0.1380  0.5842
  675MOL0     C88974   5.240   1.801   6.806  0.2678  1.4385 -0.2424
  675MOL0     C88975   5.154   1.687   6.788 -0.1273 -0.8304 -0.7057
  675MOL0     O88976   5.167   1.609   6.673 -0.1047 -0.3011 -0.8389
  675MOL0     C88977   5.066   1.618   6.578  0.8781  0.1693  0.4712
  675MOL0     C88978   5.115   1.547   6.447  0.2504  0.1374  0.3494
  675MOL0     C88979   5.014   1.573   6.339 -0.3269  0.3717  0.0524
  675MOL0     C88980   5.049   1.511   6.194 -0.0195 -0.6196  0.4019
  675MOL0     C88981   4.932   1.488   6.087 -0.9053 -0.3847  0.2576
  675MOL0     C88982   4.864   1.611   6.026 -0.2154 -0.6902  0.2553
  675MOL0     C88983   4.963   1.692   5.940 -0.4878 -0.3326  0.1767
  675MOL0     C88984   5.011   1.608   5.814  0.6148  0.2440 -0.3829
  675MOL0     N88985   4.910   1.583   5.710  0.1875 -0.5444  0.0375
  675MOL0     C88986   4.800   1.657   5.674 -0.8275  0.0002 -0.1194
  675MOL0     C88987   4.732   1.580   5.578 -0.2586 -0.6650 -1.0009
  675MOL0     C88988   4.608   1.605   5.500  0.0715  0.3981  0.1899
  675MOL0     C88989   4.492   1.535   5.559  0.1330 -0.4295 -0.4624
  675MOL0     C88990   4.369   1.572   5.483 -0.5283  0.4141  0.3636
  675MOL0     C88991   4.244   1.488   5.504  0.3610 -0.1291 -1.3480
  675MOL0     O88992   4.192   1.492   5.646 -0.9320 -0.2155  0.4712
  675MOL0     C88993   4.049   1.466   5.659 -0.1700 -0.4513  0.4604
  675MOL0     C88994   3.973   1.386   5.567 -0.1001 -0.3535  0.0719
  675MOL0     C88995   3.838   1.354   5.598  0.1051 -0.6998 -0.2544
  675MOL0     C88996   3.782   1.381   5.724 -1.2558 -0.7529 -0.0677
  675MOL0     C88997   3.647   1.333   5.757  0.3508  0.3110 -0.6417
  675MOL0     O88998   3.589   1.233   5.679  0.2750 -0.6181 -0.8135
  675MOL0     C88999   3.460   1.194   5.689 -0.2246 -0.4110 -0.0708
  675MOL0     C89000   3.347   1.265   5.742 -0.6860  0.4681  0.1447
  675MOL0     C89001   3.223   1.203   5.760 -0.1226 -0.4887  0.5394
  675MOL0     C89002   3.198   1.083   5.700 -0.6168 -0.3868 -0.1874
  675MOL0     O89003   3.076   1.030   5.722  0.9266 -0.4224 -0.0961
  675MOL0     C89004   3.071   0.887   5.737  0.0010 -0.3652 -0.0684
  675MOL0     C89005   2.923   0.849   5.759  0.0551 -0.3165 -0.8200
  675MOL0     C89006   2.805   0.936   5.692 -0.1100  0.8376 -1.3816
  675MOL0     C89007   2.665   0.895   5.740 -0.6284  1.0530 -0.7432
  675MOL0     C89008   2.571   1.003   5.705 -0.1944  0.4986 -0.1089
  675MOL0     C89009   2.429   0.955   5.724 -0.8223  0.4345  0.0283
  675MOL0     C89010   2.383   0.841   5.632 -0.5279 -0.6908  0.0613
  675MOL0     C89011   2.231   0.831   5.643 -0.4963 -0.1251  1.2719
  675MOL0    Cl89012   2.192   0.779   5.803  0.3282 -0.3013  0.0813
  675MOL0     C89013   3.311   1.013   5.637 -0.0173  0.0767  0.0998
  675MOL0     C89014   3.440   1.064   5.638  0.9173 -0.1797  0.9077
  675MOL0     O89015   3.592   1.387   5.852  0.1332  0.6047  0.6981
  675MOL0     C89016   3.855   1.475   5.803 -0.2806 -0.2712  0.4283
  675MOL0     C89017   3.984   1.526   5.772  0.0452  0.0492  0.2825
  675MOL0     N89018   4.800   1.460   5.563  0.7354 -0.0348  0.1211
  675MOL0     N89019   4.910   1.474   5.637  0.8446  0.0497 -0.3409
  675MOL0     C89020   5.070   1.650   6.897  0.6216  1.0525  0.2601
  675MOL0     C89021   5.055   1.733   7.007  0.2216  0.7348  0.9962
  675MOL0     C89022   5.021   2.142   7.216  0.3473  1.3140 -0.2847
  675MOL0     C89023   4.942   2.252   7.197 -0.1462  0.1847  0.6054
  675MOL0     C89024   4.954   2.366   7.280  0.5246 -0.6546  0.6151
  675MOL0     C89025   5.024   2.357   7.408  0.3501 -0.3240 -0.6077
  675MOL0     O89026   5.029   2.462   7.499 -0.1010 -0.1724 -0.0231
  675MOL0     C89027   5.035   2.421   7.631  0.3260  0.3084 -0.2746
  675MOL0     C89028   4.953   2.529   7.707 -0.2168 -0.3473  0.1277
  675MOL0     C89029   4.815   2.567   7.651 -0.1088 -0.1936  0.0115
  675MOL0     C89030   4.724   2.624   7.757  0.3607 -0.6096 -0.4632
  675MOL0     C89031   4.782   2.745   7.812 -1.1080  0.6195  0.9436
  675MOL0     C89032   4.832   2.842   7.861 -0.1648 -0.7296  0.5760
  675MOL0     C89033   5.083   2.229   7.429 -1.0436 -0.8810  0.1233
  675MOL0     C89034   5.079   2.121   7.340  0.4274  0.2400  0.2600
  675MOL0     H89035   5.274   1.979   6.931  2.4154 -0.7968 -1.0361
  675MOL0     H89036   5.301   1.818   6.718 -0.3700 -0.7664 -1.1912
  675MOL0     H89037   5.037   1.724   6.578  1.3613  0.3193  1.5840
  675MOL0     H89038   4.976   1.563   6.607 -0.7402  1.3623 -1.9601
  675MOL0     H89039   5.132   1.442   6.471 -1.3720  0.1762  1.8585
  675MOL0     H89040   5.211   1.578   6.405 -0.3689  2.8199  0.6913
  675MOL0     H89041   4.979   1.677   6.336 -0.9449  0.1554 -0.4343
  675MOL0     H89042   4.923   1.521   6.370  0.0475 -0.5232 -0.3228
  675MOL0     H89043   5.133   1.562   6.145  1.0391 -0.6709  2.0516
  675MOL0     H89044   5.088   1.412   6.221  1.7267 -0.5286 -1.5202
  675MOL0     H89045   4.850   1.429   6.127 -0.4968 -0.5159  0.9296
  675MOL0     H89046   4.978   1.449   5.996  3.3857  2.4931  0.8472
  675MOL0     H89047   4.834   1.671   6.113  1.6394 -1.5247  1.5517
  675MOL0     H89048   4.768   1.595   5.975 -0.4152  2.4547 -0.5776
  675MOL0     H89049   4.939   1.792   5.904  1.4568 -0.9394 -3.1871
  675MOL0     H89050   5.054   1.711   5.998 -0.7092 -3.0322  1.5905
  675MOL0     H89051   5.063   1.520   5.852  0.9948 -0.2230 -1.9220
  675MOL0     H89052   5.086   1.668   5.762 -1.6855  1.3682 -2.6299
  675MOL0     H89053   4.769   1.756   5.708 -2.2163 -0.8024  1.0568
  675MOL0     H89054   4.623   1.594   5.393 -0.9188  1.1821 -0.0533
  675MOL0     H89055   4.588   1.713   5.494 -1.7620  0.0159 -2.2959
  675MOL0     H89056   4.476   1.551   5.666  2.0634 -2.0282  0.1157
  675MOL0     H89057   4.514   1.428   5.550 -1.0670 -0.5126 -4.8663
  675MOL0     H89058   4.334   1.673   5.505 -2.1303  0.3210 -1.4763
  675MOL0     H89059   4.392   1.568   5.376  1.5864 -0.1195  0.7751
  675MOL0     H89060   4.264   1.385   5.472  0.5580 -0.0862 -1.3638
  675MOL0     H89061   4.169   1.531   5.436 -1.9941  1.7172  2.1232
  675MOL0     H89062   4.012   1.359   5.470 -1.0921 -0.7672 -0.2239
  675MOL0     H89063   3.787   1.293   5.524 -0.2929 -1.6322  0.7614
  675MOL0     H89064   3.365   1.368   5.770 -0.1763  0.8108 -1.3704
  675MOL0     H89065   3.154   1.240   5.835  0.3505  1.4071  0.1134
  675MOL0     H89066   3.125   0.853   5.826  0.6755 -0.2113 -0.4158
  675MOL0     H89067   3.112   0.839   5.647 -2.0127  0.8414 -1.7173
  675MOL0     H89068   2.913   0.870   5.866 -0.5595  2.9434 -1.3930
  675MOL0     H89069   2.909   0.743   5.736 -0.6046 -1.3588  3.4622
  675MOL0     H89070   2.804   0.942   5.583 -0.8290  1.8040 -1.3409
  675MOL0     H89071   2.817   1.036   5.735 -1.1920  1.0994 -1.6661
  675MOL0     H89072   2.631   0.805   5.686 -3.4229  1.1630  0.6511
  675MOL0     H89073   2.674   0.874   5.847 -1.6165 -0.9073 -0.9989
  675MOL0     H89074   2.581   1.027   5.599 -0.2377  1.4290  0.0914
  675MOL0     H89075   2.588   1.101   5.752  3.6380 -0.3374  0.6324
  675MOL0     H89076   2.367   1.039   5.691 -1.1460 -0.8482 -3.0534
  675MOL0     H89077   2.404   0.927   5.826 -1.9764 -2.6372 -0.9832
  675MOL0     H89078   2.415   0.865   5.530  3.3280  0.0773  1.3051
  675MOL0     H89079   2.430   0.747   5.660  0.4875 -0.2422 -0.1147
  675MOL0     H89080   2.209   0.760   5.562  1.6869 -0.5594  0.9790
  675MOL0     H89081   2.189   0.930   5.623  0.7453  0.0685 -0.7102
  675MOL0     H89082   3.291   0.912   5.603  1.0828 -0.4345  0.9055
  675MOL0     H89083   3.524   1.006   5.602 -0.7092  0.0616 -4.0454
  675MOL0     H89084   3.798   1.509   5.889 -1.1384  2.3701 -1.0870
  675MOL0     H89085   4.035   1.591   5.842 -0.8805 -0.6617  1.6496
  675MOL0     H89086   5.009   1.561   6.907  2.7362 -0.3472  1.5923
  675MOL0     H89087   4.983   1.710   7.085  1.2125  2.3069  2.4614
  675MOL0     H89088   4.897   2.255   7.099 -3.4614  1.9837  2.0164
  675MOL0     H89089   4.909   2.458   7.245  2.1446 -1.6755 -5.2744
  675MOL0     H89090   5.138   2.433   7.666  0.5602 -1.6414 -0.1717
  675MOL0     H89091   5.014   2.316   7.654  1.5382 -0.2294 -1.5014
  675MOL0     H89092   4.936   2.478   7.803  0.9664 -0.1254  0.4763
  675MOL0     H89093   5.019   2.615   7.717  1.8986 -1.9899  1.0951
  675MOL0     H89094   4.757   2.479   7.621  0.0575 -1.2300  2.4539
  675MOL0     H89095   4.830   2.634   7.566 -0.9884  1.6693  1.2788
  675MOL0     H89096   4.622   2.623   7.718  0.3147 -2.3546 -0.3807
  675MOL0     H89097   4.704   2.550   7.835 -0.7140  2.5662  2.5051
  675MOL0     H89098   4.863   2.939   7.894 -0.2937 -0.1254 -0.9817
  675MOL0     H89099   5.151   2.218   7.513  0.0900 -2.0695 -0.9212
  675MOL0     H89100   5.128   2.027   7.365 -1.7230 -1.3189 -0.9488
  676MOL0     O89101   1.366   5.499   1.382 -0.0939 -0.1020  0.4396
  676MOL0     C89102   1.438   5.550   1.471 -0.4037  0.2647 -0.1025
  676MOL0     O89103   1.399   5.614   1.579  0.4453 -0.1750 -0.7661
  676MOL0     C89104   1.260   5.649   1.583  0.2782 -1.0335  0.5693
  676MOL0     C89105   1.173   5.595   1.683  0.4306 -0.1128  0.4973
  676MOL0     C89106   1.034   5.613   1.676  0.4554 -0.1408 -0.9095
  676MOL0     C89107   0.977   5.710   1.593  1.1849  0.1380  0.1837
  676MOL0     O89108   0.849   5.760   1.602  0.0370  0.0495 -0.0733
  676MOL0     C89109   0.758   5.696   1.686  0.4557 -0.1532  0.4590
  676MOL0     C89110   0.729   5.540   1.675 -0.5004  0.3707  0.2258
  676MOL0     C89111   0.612   5.511   1.571  1.5583 -0.0735  1.0114
  676MOL0     C89112   0.572   5.361   1.569 -0.5747 -0.9098 -0.4206
  676MOL0     C89113   0.475   5.327   1.447  0.0668  0.3026  0.7866
  676MOL0     C89114   0.436   5.181   1.462  0.0093  0.1359 -0.2542
  676MOL0     C89115   0.353   5.146   1.338 -0.0554 -0.7414 -0.0235
  676MOL0     C89116   0.298   4.999   1.353 -0.2242 -0.0553 -0.0312
  676MOL0     N89117   0.181   4.975   1.273 -0.9437  0.2442 -0.5109
  676MOL0     C89118   0.055   4.996   1.315 -0.2947  0.4365 -0.4223
  676MOL0     C89119  -0.011   4.915   1.230 -1.0588  0.2926 -0.2460
  676MOL0     C89120  -0.161   4.906   1.239 -0.9800 -0.0362  0.0397
  676MOL0     C89121  -0.195   4.817   1.359  1.3674  0.0886  0.1240
  676MOL0     C89122  -0.165   4.668   1.331 -0.4197  0.0065 -0.4674
  676MOL0     C89123  -0.286   4.604   1.262 -1.1270 -0.5871  0.0200
  676MOL0     O89124  -0.403   4.610   1.344 -0.6526  0.5031 -0.0879
  676MOL0     C89125  -0.527   4.567   1.295  0.7068  0.2936  1.1023
  676MOL0     C89126  -0.555   4.496   1.174 -0.4116  0.2529  0.6113
  676MOL0     C89127  -0.681   4.462   1.132  0.5405 -0.0585 -1.2552
  676MOL0     C89128  -0.793   4.515   1.198  0.2572  0.1196 -0.5351
  676MOL0     C89129  -0.934   4.500   1.150 -0.5786  0.4189 -0.5839
  676MOL0     O89130  -1.020   4.583   1.209 -0.0677  0.3993  0.5215
  676MOL0     C89131  -1.134   4.605   1.139 -0.8040 -0.1228 -0.7564
  676MOL0     C89132  -1.242   4.519   1.147  0.2029  0.3955  0.5449
  676MOL0     C89133  -1.358   4.537   1.073 -0.7254 -0.2794 -0.6655
  676MOL0     C89134  -1.365   4.652   0.993 -0.0037  0.6343  0.4017
  676MOL0     O89135  -1.489   4.671   0.934 -0.4189  0.5527 -0.2903
  676MOL0     C89136  -1.545   4.804   0.948 -0.8746  0.4993  0.2126
  676MOL0     C89137  -1.684   4.801   0.887  0.2594  0.0847  0.0593
  676MOL0     C89138  -1.750   4.938   0.914  0.1112  1.0631  1.1323
  676MOL0     C89139  -1.880   4.951   0.824  1.0483 -0.2874 -0.7190
  676MOL0     C89140  -1.944   5.091   0.840 -0.2459 -0.2920  0.2237
  676MOL0     C89141  -2.079   5.070   0.767 -0.2311  0.0477  0.8559
  676MOL0     C89142  -2.151   5.195   0.753  0.5928 -0.2489  0.2643
  676MOL0     C89143  -2.090   5.296   0.659  1.6737 -0.4626 -0.7361
  676MOL0    Cl89144  -2.100   5.240   0.483 -0.0054  0.9312  0.3668
  676MOL0     C89145  -1.256   4.744   0.984  0.1902 -0.6671  0.5256
  676MOL0     C89146  -1.140   4.720   1.058 -0.9694 -0.2097  0.1639
  676MOL0     O89147  -0.956   4.418   1.064 -0.1753  0.3913  0.1421
  676MOL0     C89148  -0.768   4.599   1.301  0.1839  0.1802 -0.3026
  676MOL0     C89149  -0.643   4.619   1.357  0.2481 -0.6958 -1.4767
  676MOL0     N89150   0.069   4.862   1.134 -0.1506  0.2644  0.2913
  676MOL0     N89151   0.190   4.900   1.161 -0.0533 -0.0437 -0.3519
  676MOL0     C89152   1.059   5.773   1.490 -0.9511 -0.9888  0.5837
  676MOL0     C89153   1.201   5.742   1.485  0.5063  0.7573 -0.1101
  676MOL0     C89154   1.584   5.529   1.449  0.0328 -0.7988 -0.3661
  676MOL0     C89155   1.674   5.586   1.543 -0.7864  0.0078 -0.2217
  676MOL0     C89156   1.812   5.553   1.536 -0.6813  0.5610  0.0230
  676MOL0     C89157   1.863   5.459   1.446 -0.0582 -0.4160  0.6322
  676MOL0     O89158   1.996   5.424   1.432 -0.8682 -0.7190 -0.0308
  676MOL0     C89159   2.099   5.488   1.512  1.0053 -1.5907 -0.4496
  676MOL0     C89160   2.230   5.392   1.518  0.6541 -0.1689 -0.4663
  676MOL0     C89161   2.328   5.398   1.400  0.6943 -0.3337 -0.2491
  676MOL0     C89162   2.458   5.318   1.429  0.7141  0.7220  0.3403
  676MOL0     C89163   2.537   5.345   1.546 -0.2475 -0.3095 -1.4210
  676MOL0     C89164   2.617   5.338   1.633  0.2446 -0.1881 -0.0195
  676MOL0     C89165   1.773   5.409   1.352  0.2089  0.4654 -0.0861
  676MOL0     C89166   1.630   5.435   1.356 -0.9375 -0.0219  0.1852
  676MOL0     H89167   1.211   5.529   1.760 -0.9091 -0.6505  0.7135
  676MOL0     H89168   0.969   5.579   1.755 -1.6220  1.7852 -1.6868
  676MOL0     H89169   0.654   5.731   1.681 -0.3076 -2.3975 -1.8645
  676MOL0     H89170   0.798   5.715   1.785  1.2415  0.7472 -0.0167
  676MOL0     H89171   0.703   5.515   1.778  0.3998  2.5184  1.0442
  676MOL0     H89172   0.806   5.470   1.640 -2.4172 -2.7975  1.9707
  676MOL0     H89173   0.637   5.549   1.472 -2.3767  2.2930  0.7215
  676MOL0     H89174   0.517   5.558   1.599 -1.0029 -3.2651 -1.4896
  676MOL0     H89175   0.663   5.300   1.570  0.0677  0.0052 -1.1512
  676MOL0     H89176   0.514   5.336   1.658  0.7128 -0.6576  0.5122
  676MOL0     H89177   0.510   5.339   1.343 -2.8245  0.8600 -0.1950
  676MOL0     H89178   0.384   5.386   1.456 -2.3486 -3.1461  0.9451
  676MOL0     H89179   0.366   5.178   1.546  0.8601  0.5699  0.4762
  676MOL0     H89180   0.519   5.111   1.477 -0.9312 -1.0805 -0.5171
  676MOL0     H89181   0.268   5.214   1.322  0.2181 -0.5444 -0.6774
  676MOL0     H89182   0.422   5.146   1.254  1.7396 -3.1056  1.3408
  676MOL0     H89183   0.263   5.001   1.457 -0.0536  1.0522  0.0168
  676MOL0     H89184   0.377   4.924   1.340  0.9978  1.3199 -0.8434
  676MOL0     H89185   0.015   5.033   1.409 -1.5608 -2.8748  0.5201
  676MOL0     H89186  -0.201   4.870   1.144  2.4683  0.4499 -1.7553
  676MOL0     H89187  -0.196   5.007   1.262  0.0105  0.5966 -1.1146
  676MOL0     H89188  -0.303   4.824   1.378  1.0083 -2.9358 -0.3761
  676MOL0     H89189  -0.151   4.862   1.448 -0.8314 -1.7185  2.2482
  676MOL0     H89190  -0.070   4.659   1.279 -0.8145 -1.6287 -0.9723
  676MOL0     H89191  -0.156   4.627   1.431  0.7645 -0.7462 -0.8657
  676MOL0     H89192  -0.253   4.501   1.246  1.9705  0.4489 -1.0157
  676MOL0     H89193  -0.307   4.652   1.166  3.6100 -1.4724 -1.7435
  676MOL0     H89194  -0.465   4.465   1.121  0.0772  1.7681  0.4955
  676MOL0     H89195  -0.706   4.398   1.048 -4.0320 -1.1108  0.5768
  676MOL0     H89196  -1.244   4.424   1.199 -2.2368 -0.7086 -1.3573
  676MOL0     H89197  -1.438   4.463   1.077  0.6985 -1.8742  0.0547
  676MOL0     H89198  -1.496   4.880   0.887  0.0563 -0.2268  0.0433
  676MOL0     H89199  -1.559   4.833   1.053 -1.2610 -2.0117  0.9311
  676MOL0     H89200  -1.750   4.720   0.920 -1.6050  0.9888 -1.2690
  676MOL0     H89201  -1.686   4.769   0.783  2.5083 -0.5065  0.1544
  676MOL0     H89202  -1.684   5.025   0.902 -0.6104  1.5057  0.1951
  676MOL0     H89203  -1.779   4.951   1.019 -0.4910 -0.4295  1.1665
  676MOL0     H89204  -1.856   4.935   0.719 -1.8576  0.3432 -1.5702
  676MOL0     H89205  -1.948   4.875   0.863  0.9311  0.1051 -0.1276
  676MOL0     H89206  -1.877   5.165   0.794 -0.5671  0.3425  0.7604
  676MOL0     H89207  -1.973   5.133   0.937 -0.7206  2.3083 -0.9475
  676MOL0     H89208  -2.150   5.002   0.815  0.2079 -2.1473 -1.3543
  676MOL0     H89209  -2.057   5.033   0.666  1.2372  0.1721  1.1044
  676MOL0     H89210  -2.249   5.163   0.715  0.3001 -3.4067  3.2389
  676MOL0     H89211  -2.168   5.227   0.856 -0.3482  0.3156 -0.0596
  676MOL0     H89212  -1.988   5.322   0.688  1.0527 -0.1501  1.3026
  676MOL0     H89213  -2.144   5.391   0.664  2.8368  0.1451  1.3788
  676MOL0     H89214  -1.259   4.828   0.916  2.4045 -3.1669 -3.0183
  676MOL0     H89215  -1.051   4.782   1.052 -0.0974 -1.4942 -0.7944
  676MOL0     H89216  -0.854   4.636   1.355 -1.2096 -1.3101 -1.3924
  676MOL0     H89217  -0.638   4.683   1.445  2.9297 -0.7765 -1.4930
  676MOL0     H89218   1.027   5.851   1.423  1.8457  0.7465  1.1131
  676MOL0     H89219   1.264   5.786   1.408  0.8103 -0.6779 -0.7122
  676MOL0     H89220   1.652   5.659   1.621  0.8045 -1.8211  2.0631
  676MOL0     H89221   1.879   5.604   1.605 -3.0721  1.5273  1.7442
  676MOL0     H89222   2.067   5.507   1.615 -1.8213 -0.7857 -1.3839
  676MOL0     H89223   2.126   5.585   1.468 -2.2164  0.4970  1.7673
  676MOL0     H89224   2.289   5.415   1.607  0.2597 -2.4868  0.4684
  676MOL0     H89225   2.206   5.289   1.544 -0.2499  0.6503  2.3751
  676MOL0     H89226   2.354   5.502   1.382 -1.6035 -0.0575 -2.5044
  676MOL0     H89227   2.280   5.353   1.313 -0.4685 -2.2480  1.2972
  676MOL0     H89228   2.429   5.213   1.433  0.5021  0.6124 -2.0922
  676MOL0     H89229   2.509   5.332   1.333 -1.0071  2.1415 -0.4351
  676MOL0     H89230   2.695   5.352   1.707  0.0977 -1.2361  0.3442
  676MOL0     H89231   1.824   5.346   1.281  4.9887 -0.5329  3.7479
  676MOL0     H89232   1.577   5.366   1.291  0.6787 -1.3634  0.2136
  677MOL0     O89233   4.322   7.556   6.898 -0.2648  0.3444 -0.7042
  677MOL0     C89234   4.315   7.674   6.934 -0.5325 -0.2509  0.2508
  677MOL0     O89235   4.223   7.718   7.021 -0.2610  0.2859 -0.2253
  677MOL0     C89236   4.113   7.638   7.020  0.0658 -0.2723 -0.2809
  677MOL0     C89237   4.023   7.660   6.925  0.4131  0.1223  0.9049
  677MOL0     C89238   3.917   7.572   6.921  1.0104 -0.7438  0.7580
  677MOL0     C89239   3.902   7.455   6.999  0.1171 -0.2995  0.3546
  677MOL0     O89240   3.796   7.372   6.970 -0.4861 -0.1671  0.6194
  677MOL0     C89241   3.776   7.242   7.027  0.6742 -0.1656  0.2188
  677MOL0     C89242   3.681   7.147   6.944 -0.1296 -0.3678  0.1430
  677MOL0     C89243   3.536   7.181   6.964  0.2974 -0.4525  1.0704
  677MOL0     C89244   3.442   7.103   6.876 -0.3973  0.6268  0.4986
  677MOL0     C89245   3.298   7.165   6.880 -0.5062  0.5352 -0.4103
  677MOL0     C89246   3.206   7.105   6.772 -1.2121 -0.3838 -0.0169
  677MOL0     C89247   3.216   6.953   6.764  0.2568 -0.0123  0.3145
  677MOL0     C89248   3.098   6.885   6.694  0.7252  0.4298 -0.1679
  677MOL0     N89249   3.104   6.914   6.553 -0.0048  0.2043  0.1649
  677MOL0     C89250   3.037   7.020   6.497  0.1228 -0.0470  0.4880
  677MOL0     C89251   3.086   7.024   6.373 -0.4753 -0.6468 -0.0507
  677MOL0     C89252   3.041   7.113   6.260 -1.5311  0.0679 -0.5410
  677MOL0     C89253   3.163   7.212   6.238  0.4131 -0.1135  0.6966
  677MOL0     C89254   3.146   7.333   6.148  0.8580  0.0060  0.4004
  677MOL0     C89255   3.114   7.288   6.002 -0.5854 -0.1016  0.3478
  677MOL0     O89256   3.054   7.402   5.938 -0.1482  0.1678 -0.7361
  677MOL0     C89257   2.922   7.399   5.890 -0.5812  0.0907  0.0017
  677MOL0     C89258   2.886   7.501   5.801  0.8449  0.3744 -0.1532
  677MOL0     C89259   2.759   7.533   5.783  0.4966  0.5493  0.0410
  677MOL0     C89260   2.648   7.458   5.833 -0.4794  0.5303  0.4288
  677MOL0     C89261   2.509   7.491   5.790  0.2762 -0.9612  0.5351
  677MOL0     O89262   2.406   7.412   5.834 -0.4761 -0.5986  0.3156
  677MOL0     C89263   2.284   7.417   5.775  0.1564  0.2788  0.7934
  677MOL0     C89264   2.261   7.437   5.632 -0.0697 -0.5273 -0.5285
  677MOL0     C89265   2.138   7.471   5.590 -0.4959 -0.1625  0.8022
  677MOL0     C89266   2.034   7.480   5.676 -0.1110  0.6363 -0.8165
  677MOL0     O89267   1.907   7.513   5.650  0.3248 -0.2770  0.1654
  677MOL0     C89268   1.884   7.567   5.521  0.7967  0.1087 -0.0914
  677MOL0     C89269   1.852   7.465   5.421 -0.6852 -0.9034  0.8618
  677MOL0     C89270   1.775   7.531   5.307  0.3755 -0.6124  0.2095
  677MOL0     C89271   1.691   7.426   5.243  0.4899  0.5103 -0.1898
  677MOL0     C89272   1.632   7.472   5.095 -1.1121 -0.0845  0.1682
  677MOL0     C89273   1.535   7.370   5.047 -1.1251  0.4560 -0.3635
  677MOL0     C89274   1.459   7.416   4.920 -0.7445 -0.3844 -0.4032
  677MOL0     C89275   1.352   7.317   4.882  0.5669  0.3147 -0.4233
  677MOL0    Cl89276   1.365   7.143   4.922  0.6976  0.1104 -0.3492
  677MOL0     C89277   2.051   7.442   5.810 -0.5485 -0.2420 -0.4536
  677MOL0     C89278   2.175   7.412   5.862  0.9078  0.2547  0.1700
  677MOL0     O89279   2.494   7.583   5.707  0.3033  0.2768 -0.7227
  677MOL0     C89280   2.682   7.349   5.921  0.1283 -1.5406  1.2214
  677MOL0     C89281   2.821   7.314   5.946  0.6636  0.1257 -0.6655
  677MOL0     N89282   3.188   6.932   6.363  0.5173 -0.4139 -0.5694
  677MOL0     N89283   3.200   6.868   6.471 -0.3858  0.0471 -0.4088
  677MOL0     C89284   4.003   7.428   7.096 -0.0897 -0.2998  0.0398
  677MOL0     C89285   4.107   7.522   7.106  0.1880 -0.0647  0.6400
  677MOL0     C89286   4.418   7.759   6.892  0.7443 -0.4993 -0.3012
  677MOL0     C89287   4.428   7.875   6.969  0.6573 -0.7627 -0.1828
  677MOL0     C89288   4.523   7.969   6.931 -0.0536 -0.8814  0.4574
  677MOL0     C89289   4.612   7.944   6.821 -0.2700 -0.3477  0.2134
  677MOL0     O89290   4.714   8.024   6.790  0.1017 -0.5084 -0.1870
  677MOL0     C89291   4.766   8.111   6.892 -0.6436 -0.3398 -0.1835
  677MOL0     C89292   4.891   8.187   6.834  0.3269  0.5112 -0.0173
  677MOL0     C89293   5.004   8.091   6.792 -0.6039 -0.6752 -0.1825
  677MOL0     C89294   4.981   8.025   6.654  1.0047  0.5567  0.7300
  677MOL0     C89295   4.964   8.123   6.546  0.0467 -0.9060 -0.7772
  677MOL0     C89296   4.944   8.204   6.457 -0.3251  0.6144  0.4722
  677MOL0     C89297   4.617   7.817   6.769  0.3542 -0.4903  0.4009
  677MOL0     C89298   4.515   7.724   6.790  0.0598 -0.3864 -0.5121
  677MOL0     H89299   4.020   7.745   6.858 -3.3172  0.2495  1.0112
  677MOL0     H89300   3.834   7.590   6.853 -0.8130 -1.2364  2.7449
  677MOL0     H89301   3.740   7.263   7.128 -0.5903  0.3504 -0.3076
  677MOL0     H89302   3.876   7.201   7.035  0.5669 -0.6707 -0.8581
  677MOL0     H89303   3.694   7.046   6.983 -0.7498 -0.3129  0.4961
  677MOL0     H89304   3.715   7.143   6.840  1.3663  2.4926  0.4122
  677MOL0     H89305   3.529   7.290   6.955  0.9601 -0.0606  4.0776
  677MOL0     H89306   3.519   7.153   7.069 -0.8698 -1.1693  0.7090
  677MOL0     H89307   3.495   7.101   6.781  2.0496 -0.0043  1.8158
  677MOL0     H89308   3.438   7.005   6.923 -0.0218  0.1848 -0.3804
  677MOL0     H89309   3.303   7.272   6.858 -0.8829  0.6274 -0.0494
  677MOL0     H89310   3.246   7.148   6.975 -2.4269  0.3880 -1.4272
  677MOL0     H89311   3.236   7.152   6.678  2.2625  0.2143  1.2209
  677MOL0     H89312   3.101   7.133   6.779 -1.6162 -1.4572 -1.3665
  677MOL0     H89313   3.312   6.926   6.718  1.1940  0.0405  2.1402
  677MOL0     H89314   3.217   6.923   6.869  1.3466  0.1042  0.3504
  677MOL0     H89315   2.997   6.908   6.729 -1.1382 -1.9315 -3.4843
  677MOL0     H89316   3.099   6.776   6.692 -0.2667  0.3393  1.6910
  677MOL0     H89317   2.962   7.086   6.539  0.9088  1.0175  0.2580
  677MOL0     H89318   2.958   7.171   6.300 -0.1880  1.0724  0.8925
  677MOL0     H89319   3.028   7.067   6.162 -0.8707 -0.8597 -0.2031
  677MOL0     H89320   3.255   7.162   6.205  1.1468  1.3596  0.4251
  677MOL0     H89321   3.177   7.255   6.338  2.8563  0.6489  0.1013
  677MOL0     H89322   3.059   7.390   6.182  0.5618 -1.5392  2.4439
  677MOL0     H89323   3.234   7.397   6.142  0.8488 -0.0182 -0.0924
  677MOL0     H89324   3.045   7.204   5.986 -0.5787  0.1027 -0.7927
  677MOL0     H89325   3.208   7.255   5.956 -1.7631  0.1548 -2.4224
  677MOL0     H89326   2.967   7.558   5.755 -1.5492  2.5443 -1.9258
  677MOL0     H89327   2.751   7.608   5.705  0.9400  2.3064  1.6128
  677MOL0     H89328   2.336   7.442   5.555 -0.3094  0.0609 -0.7257
  677MOL0     H89329   2.126   7.487   5.484  0.3082 -2.2374  0.3616
  677MOL0     H89330   1.967   7.631   5.489  0.1537  0.7474 -0.5087
  677MOL0     H89331   1.802   7.639   5.525  0.2356 -0.5104 -0.2095
  677MOL0     H89332   1.810   7.372   5.461 -3.1983 -0.1451  0.1621
  677MOL0     H89333   1.947   7.438   5.373 -0.2035  3.6372 -1.1980
  677MOL0     H89334   1.836   7.584   5.233  1.2438  1.6071  2.3640
  677MOL0     H89335   1.710   7.610   5.346 -0.4771 -0.6855 -1.0076
  677MOL0     H89336   1.774   7.356   5.227  0.9018  0.0928  3.1230
  677MOL0     H89337   1.622   7.415   5.327  1.5207  1.6858  0.8595
  677MOL0     H89338   1.713   7.487   5.024 -0.2969  1.7544  1.4246
  677MOL0     H89339   1.584   7.570   5.091  0.8702  0.9169 -0.3186
  677MOL0     H89340   1.469   7.365   5.134  0.4598  1.4361  0.9588
  677MOL0     H89341   1.588   7.276   5.027 -1.4900  0.3022 -0.6130
  677MOL0     H89342   1.422   7.519   4.931 -0.8359 -0.4214 -0.3637
  677MOL0     H89343   1.530   7.422   4.837 -2.5641  1.1174 -1.9658
  677MOL0     H89344   1.331   7.314   4.775  0.1095  1.2548 -0.3621
  677MOL0     H89345   1.262   7.354   4.931 -0.0935  0.4017 -1.6674
  677MOL0     H89346   1.976   7.458   5.887  0.3292  1.1570  0.1392
  677MOL0     H89347   2.186   7.383   5.966  0.2208  0.7235  0.3854
  677MOL0     H89348   2.600   7.295   5.967 -0.4605 -2.2682 -0.5894
  677MOL0     H89349   2.837   7.246   6.029 -3.6103  1.3231  1.3909
  677MOL0     H89350   3.994   7.349   7.169 -2.7189  0.8592  1.0642
  677MOL0     H89351   4.183   7.489   7.176 -2.4329 -3.1129  2.3211
  677MOL0     H89352   4.357   7.910   7.044  0.2119 -2.1780  0.0762
  677MOL0     H89353   4.515   8.057   6.994 -4.0287 -1.9822  1.7919
  677MOL0     H89354   4.802   8.049   6.975  1.8085  0.3225 -0.6630
  677MOL0     H89355   4.695   8.187   6.927 -0.8747  0.3962 -2.1070
  677MOL0     H89356   4.852   8.245   6.749 -2.4578  1.2566  1.6360
  677MOL0     H89357   4.929   8.254   6.912  2.1484 -0.1138 -0.3101
  677MOL0     H89358   5.024   8.014   6.868  4.1272 -1.0737 -1.5146
  677MOL0     H89359   5.096   8.147   6.810 -0.9942 -0.7347  2.4475
  677MOL0     H89360   5.072   7.968   6.635  1.5741  1.6136  0.2124
  677MOL0     H89361   4.893   7.961   6.666 -1.7427  3.8889  0.2419
  677MOL0     H89362   4.932   8.266   6.371  1.1785 -1.0127 -0.9895
  677MOL0     H89363   4.686   7.803   6.686 -4.1847 -3.4428 -3.3976
  677MOL0     H89364   4.510   7.632   6.733  0.3764  0.6837 -2.3326
  678MOL0     O89365   8.258   1.187   3.342 -0.7674  0.0436 -0.3096
  678MOL0     C89366   8.192   1.281   3.391 -0.2825 -0.1102  0.7050
  678MOL0     O89367   8.246   1.384   3.464  0.3455 -0.0655  0.1111
  678MOL0     C89368   8.388   1.399   3.472  0.2082  0.8305 -0.2312
  678MOL0     C89369   8.446   1.466   3.583 -0.4183 -0.0240  0.4276
  678MOL0     C89370   8.585   1.498   3.586  1.2036  0.1507  0.0486
  678MOL0     C89371   8.665   1.463   3.480  0.3646 -0.3997  0.1537
  678MOL0     O89372   8.797   1.495   3.478 -0.3219 -0.7966  0.5978
  678MOL0     C89373   8.856   1.559   3.595 -0.0173  1.3426  1.0542
  678MOL0     C89374   9.007   1.531   3.589 -0.2390 -0.1629  0.3330
  678MOL0     C89375   9.077   1.624   3.696 -0.0238 -0.2947 -0.5704
  678MOL0     C89376   9.208   1.562   3.750 -0.6561 -0.2226 -0.2354
  678MOL0     C89377   9.318   1.651   3.699  0.3304  0.2081  0.9910
  678MOL0     C89378   9.458   1.607   3.751  0.5172  0.3707 -0.3210
  678MOL0     C89379   9.569   1.666   3.681 -0.5585  0.1255  1.1667
  678MOL0     C89380   9.580   1.813   3.719 -0.2718 -0.5446  0.6038
  678MOL0     N89381   9.713   1.866   3.676  0.1491  0.5831 -0.3284
  678MOL0     C89382   9.745   1.924   3.555  1.0885  0.1692 -0.5582
  678MOL0     C89383   9.884   1.943   3.562 -0.2811  0.3876  0.3060
  678MOL0     C89384   9.981   1.992   3.459  0.3413  0.7823  0.0496
  678MOL0     C89385   9.958   1.916   3.329 -1.1652  0.6878  0.1160
  678MOL0     C89386   9.881   1.997   3.225 -0.0518  0.0264 -0.4980
  678MOL0     C89387   9.892   1.945   3.077 -0.0925 -0.2240 -0.5907
  678MOL0     O89388   9.846   1.808   3.074 -0.5085 -0.4148 -0.5148
  678MOL0     C89389   9.703   1.804   3.069 -0.0942  0.1118  0.3121
  678MOL0     C89390   9.634   1.751   3.185 -0.2568 -0.8466  0.8615
  678MOL0     C89391   9.496   1.727   3.174 -1.0464  0.3845 -0.2240
  678MOL0     C89392   9.428   1.767   3.057 -0.2438  0.0263  0.4170
  678MOL0     C89393   9.284   1.757   3.033  1.0138  0.2732  0.0739
  678MOL0     O89394   9.239   1.818   2.923  0.0945  0.1098  0.5414
  678MOL0     C89395   9.106   1.834   2.883 -0.0011  0.2917  0.4282
  678MOL0     C89396   9.080   1.878   2.756 -0.0413  0.8841  0.0391
  678MOL0     C89397   8.947   1.875   2.697  0.0253  0.4573  0.5058
  678MOL0     C89398   8.832   1.855   2.785 -0.5452 -0.0589  0.3403
  678MOL0     O89399   8.704   1.854   2.725  0.0656  0.1380  0.3456
  678MOL0     C89400   8.593   1.896   2.806 -0.4306 -0.4838 -0.3730
  678MOL0     C89401   8.468   1.922   2.729  0.5171 -0.8128 -0.0878
  678MOL0     C89402   8.493   2.040   2.626  0.5388 -0.1990  0.3000
  678MOL0     C89403   8.500   2.186   2.688  0.5177 -1.1624 -0.3041
  678MOL0     C89404   8.383   2.234   2.776 -0.5200 -0.0358 -0.0032
  678MOL0     C89405   8.249   2.206   2.729  0.2603  0.1730  0.0295
  678MOL0     C89406   8.137   2.268   2.824 -0.9186 -0.2502  0.0583
  678MOL0     C89407   7.988   2.228   2.793 -0.7994 -0.4837  0.1497
  678MOL0    Cl89408   7.962   2.262   2.614  0.5339 -0.4212  0.0802
  678MOL0     C89409   8.854   1.831   2.923 -0.1414 -0.1866  0.5238
  678MOL0     C89410   8.992   1.814   2.969 -0.2043  0.7282  0.8341
  678MOL0     O89411   9.217   1.700   3.121 -0.2202  0.5903 -0.2780
  678MOL0     C89412   9.506   1.812   2.941  0.2700  0.6226 -0.6657
  678MOL0     C89413   9.641   1.815   2.944  0.1236 -0.4548 -0.2251
  678MOL0     N89414   9.925   1.902   3.687 -0.2261 -0.0529  0.3231
  678MOL0     N89415   9.820   1.868   3.759 -0.0873 -0.5658  0.1059
  678MOL0     C89416   8.602   1.405   3.368 -0.7153 -0.2555  0.8200
  678MOL0     C89417   8.464   1.372   3.361 -0.2699  0.1184  0.0502
  678MOL0     C89418   8.045   1.248   3.377 -0.7051  0.3468 -0.4015
  678MOL0     C89419   8.008   1.117   3.336  0.3256  0.5366  0.0590
  678MOL0     C89420   7.879   1.106   3.280  0.7297  0.4981 -0.0073
  678MOL0     C89421   7.780   1.205   3.295  0.3075 -0.0463 -1.1677
  678MOL0     O89422   7.652   1.193   3.240 -0.1903 -0.1407  0.0168
  678MOL0     C89423   7.648   1.152   3.099 -0.2891  0.5093 -0.3999
  678MOL0     C89424   7.503   1.163   3.063 -0.4176  0.2803 -0.1031
  678MOL0     C89425   7.402   1.074   3.153 -0.8607 -1.2186 -0.2007
  678MOL0     C89426   7.459   0.939   3.186  0.0355  0.6918  0.4866
  678MOL0     C89427   7.489   0.862   3.064 -0.3876 -0.6395  0.1907
  678MOL0     C89428   7.530   0.804   2.961  0.3876  0.0019 -0.6556
  678MOL0     C89429   7.811   1.323   3.363  0.9031 -0.1569  0.2203
  678MOL0     C89430   7.948   1.351   3.387 -0.0747  0.5380  0.0279
  678MOL0     H89431   8.399   1.511   3.670  2.0005 -1.1556  2.4426
  678MOL0     H89432   8.610   1.551   3.678 -1.5868  1.9073 -0.0642
  678MOL0     H89433   8.824   1.510   3.687  1.4895 -2.1676 -0.1064
  678MOL0     H89434   8.832   1.665   3.601  0.7967  1.5306  1.0666
  678MOL0     H89435   9.042   1.556   3.488  1.1026  0.4229  0.9254
  678MOL0     H89436   9.036   1.427   3.608 -0.4840 -1.0900 -3.4785
  678MOL0     H89437   9.008   1.633   3.780 -0.3819  3.1283 -1.0762
  678MOL0     H89438   9.100   1.723   3.656  3.5420 -0.0257  1.6709
  678MOL0     H89439   9.200   1.570   3.859  0.0083  0.6529 -0.2452
  678MOL0     H89440   9.208   1.456   3.722 -0.2449 -0.5019  0.7541
  678MOL0     H89441   9.297   1.756   3.721  0.1625  0.9295 -2.0918
  678MOL0     H89442   9.319   1.650   3.589 -1.7561 -3.4215  0.8301
  678MOL0     H89443   9.470   1.500   3.737  2.0768  0.3096  1.1332
  678MOL0     H89444   9.452   1.639   3.855 -1.7156 -0.3408 -0.1666
  678MOL0     H89445   9.657   1.607   3.709 -0.0124  0.6773  0.6685
  678MOL0     H89446   9.558   1.655   3.572  0.3558 -1.5735  1.2018
  678MOL0     H89447   9.564   1.829   3.826 -1.7631 -2.1183  0.6758
  678MOL0     H89448   9.498   1.868   3.672  1.1749 -0.7587 -2.4298
  678MOL0     H89449   9.675   1.948   3.475 -0.7710  1.3358  1.3212
  678MOL0     H89450  10.087   1.977   3.484  0.6890  2.3639 -0.3477
  678MOL0     H89451   9.976   2.099   3.440  0.5353  1.7114  4.2486
  678MOL0     H89452   9.904   1.821   3.342 -1.0845  0.3733 -1.6749
  678MOL0     H89453  10.060   1.900   3.293 -1.6778  0.0079 -1.0960
  678MOL0     H89454   9.779   1.999   3.263  0.2626  1.8100  0.3707
  678MOL0     H89455   9.915   2.101   3.219  0.8891 -0.0057  2.5097
  678MOL0     H89456   9.998   1.936   3.049 -0.2727  1.2901 -1.9104
  678MOL0     H89457   9.838   2.009   3.007  0.4960 -0.9831 -1.7752
  678MOL0     H89458   9.698   1.717   3.265  0.6974  1.5779  1.2159
  678MOL0     H89459   9.440   1.679   3.254  1.4531 -3.1737 -0.3757
  678MOL0     H89460   9.171   1.885   2.697  0.5498  0.2895  0.8625
  678MOL0     H89461   8.950   1.887   2.589  2.2601 -4.6369 -0.3188
  678MOL0     H89462   8.626   1.987   2.856  2.7984 -1.4963 -0.3916
  678MOL0     H89463   8.568   1.817   2.878  1.7347 -0.1108  0.8817
  678MOL0     H89464   8.381   1.949   2.789 -0.1991 -2.5307 -0.2896
  678MOL0     H89465   8.442   1.834   2.669 -0.9054  1.0782 -2.4530
  678MOL0     H89466   8.426   2.047   2.540  1.4530  1.6886 -0.3049
  678MOL0     H89467   8.592   2.021   2.582 -0.0258  0.4835 -1.3462
  678MOL0     H89468   8.582   2.183   2.760  0.3163  2.1721  0.1858
  678MOL0     H89469   8.517   2.256   2.606  1.3353  0.3631  1.1122
  678MOL0     H89470   8.404   2.340   2.794  4.4508 -0.8662  0.5733
  678MOL0     H89471   8.394   2.173   2.866 -1.0434 -0.8882 -0.5003
  678MOL0     H89472   8.238   2.099   2.714  1.9976 -0.2630  1.4810
  678MOL0     H89473   8.233   2.257   2.634 -1.8198 -2.6192 -1.2405
  678MOL0     H89474   8.158   2.240   2.928 -1.3123  1.8869  0.7672
  678MOL0     H89475   8.142   2.376   2.815 -0.6235 -0.4214 -3.2214
  678MOL0     H89476   7.925   2.295   2.853  1.5124  2.2416 -0.2217
  678MOL0     H89477   7.965   2.122   2.803 -3.0838  0.0694  1.5232
  678MOL0     H89478   8.771   1.816   2.992  1.9336 -1.8800  2.8531
  678MOL0     H89479   9.007   1.790   3.074  0.8275 -0.5215  0.4331
  678MOL0     H89480   9.453   1.828   2.848  0.6854 -2.0360 -1.4513
  678MOL0     H89481   9.696   1.839   2.853  1.3239 -1.2470  0.2656
  678MOL0     H89482   8.659   1.382   3.279 -1.7216 -0.3821  0.1967
  678MOL0     H89483   8.428   1.345   3.262  0.6602  0.3694 -0.3669
  678MOL0     H89484   8.090   1.046   3.335 -0.7929 -0.8198 -2.1391
  678MOL0     H89485   7.861   1.013   3.228 -1.4364 -0.3474  2.0974
  678MOL0     H89486   7.673   1.046   3.088  0.5609  0.9533 -3.5673
  678MOL0     H89487   7.711   1.207   3.028 -0.6252  1.5864  0.1108
  678MOL0     H89488   7.474   1.268   3.063 -0.0127  0.4083  1.3758
  678MOL0     H89489   7.502   1.128   2.959 -1.7704 -0.9423  0.2775
  678MOL0     H89490   7.301   1.070   3.110 -1.1595  2.7813 -0.1864
  678MOL0     H89491   7.393   1.128   3.247 -1.1138 -1.5534 -0.0281
  678MOL0     H89492   7.553   0.942   3.242 -0.2295  1.3664  0.9070
  678MOL0     H89493   7.391   0.882   3.249  0.9723 -0.5016  0.4707
  678MOL0     H89494   7.570   0.762   2.871  1.2426  0.0653 -0.3114
  678MOL0     H89495   7.738   1.402   3.378  1.7595  1.5475 -3.3433
  678MOL0     H89496   7.987   1.448   3.417 -2.6471  1.2426  1.4158
  679MOL0     O89497   1.370   8.652  10.159  0.4924 -0.2672  0.1778
  679MOL0     C89498   1.384   8.755  10.214 -0.0516 -0.2826  0.2451
  679MOL0     O89499   1.274   8.827  10.263  0.1141 -0.8910  0.8091
  679MOL0     C89500   1.148   8.776  10.253  0.2286  0.5401  0.1990
  679MOL0     C89501   1.052   8.824  10.161  0.5911  0.5938 -0.2716
  679MOL0     C89502   0.919   8.764  10.151 -0.1821 -0.9696  0.0274
  679MOL0     C89503   0.878   8.662  10.240  1.0179 -0.9571  0.2272
  679MOL0     O89504   0.753   8.600  10.235 -0.6308 -0.1909  0.1713
  679MOL0     C89505   0.695   8.580  10.109 -0.3396 -0.5682 -0.0561
  679MOL0     C89506   0.575   8.489  10.137  0.1855  0.6094 -0.5543
  679MOL0     C89507   0.457   8.480  10.034 -0.0252 -1.3107 -0.5160
  679MOL0     C89508   0.496   8.426   9.908 -0.0310  0.1105 -0.2047
  679MOL0     C89509   0.360   8.348   9.858 -0.5455 -0.6977 -0.6222
  679MOL0     C89510   0.370   8.312   9.720  0.3260 -0.8015 -0.7165
  679MOL0     C89511   0.235   8.260   9.668 -0.1228  0.4986  0.5987
  679MOL0     C89512   0.130   8.370   9.639  0.0658  0.4264  0.4245
  679MOL0     N89513   0.021   8.333   9.548  1.5613 -0.1853 -0.9241
  679MOL0     C89514   0.005   8.384   9.426 -1.1426  0.1468  0.5488
  679MOL0     C89515  -0.109   8.335   9.381  0.4312  0.2995  0.8807
  679MOL0     C89516  -0.173   8.378   9.246  0.0640 -0.0279 -0.4331
  679MOL0     C89517  -0.307   8.442   9.252  0.7726  0.0303 -0.2261
  679MOL0     C89518  -0.416   8.331   9.281  0.5615 -0.1560  0.4965
  679MOL0     C89519  -0.565   8.373   9.280  0.5898  0.3996 -0.3966
  679MOL0     O89520  -0.590   8.431   9.153  0.0723 -0.0468  0.7113
  679MOL0     C89521  -0.716   8.459   9.102 -0.0668 -0.6652  0.0955
  679MOL0     C89522  -0.837   8.465   9.174  0.0948 -0.1706 -0.5645
  679MOL0     C89523  -0.962   8.495   9.109  0.3746 -0.1548  0.8839
  679MOL0     C89524  -0.969   8.533   8.973  0.1083 -0.1938 -0.0648
  679MOL0     C89525  -1.098   8.600   8.924  0.2027  0.4607  0.2296
  679MOL0     O89526  -1.191   8.625   9.023  0.1102 -0.3413  0.1577
  679MOL0     C89527  -1.310   8.689   8.997  0.1193 -0.1722  0.3062
  679MOL0     C89528  -1.399   8.639   8.896  0.0158  0.5933  0.2908
  679MOL0     C89529  -1.522   8.697   8.868 -0.2592  0.5640  0.0740
  679MOL0     C89530  -1.546   8.819   8.935 -0.1829  0.1622  0.0495
  679MOL0     O89531  -1.655   8.899   8.921  0.2238  0.5196  0.2678
  679MOL0     C89532  -1.790   8.840   8.910 -0.8442  0.6196  0.0604
  679MOL0     C89533  -1.885   8.946   8.863 -0.0251  0.0894  1.5057
  679MOL0     C89534  -2.014   8.890   8.814 -0.7599  0.2850 -0.0573
  679MOL0     C89535  -2.094   9.003   8.734 -0.6175 -0.4976 -0.8227
  679MOL0     C89536  -2.225   8.947   8.688  1.0375  0.1447  0.6761
  679MOL0     C89537  -2.311   9.054   8.611  1.1626  1.8751 -0.0375
  679MOL0     C89538  -2.365   9.144   8.716  0.3268 -0.8096  0.1269
  679MOL0     C89539  -2.483   9.238   8.678  0.8193  0.3947 -1.4930
  679MOL0    Cl89540  -2.457   9.298   8.500  0.0365  0.5026  0.5568
  679MOL0     C89541  -1.453   8.874   9.023  0.3359  0.7663 -0.2080
  679MOL0     C89542  -1.338   8.809   9.062  0.1299 -0.0264 -0.4811
  679MOL0     O89543  -1.113   8.623   8.801 -0.0899  0.3744 -0.4393
  679MOL0     C89544  -0.851   8.524   8.899  0.6410  0.3467 -0.3543
  679MOL0     C89545  -0.732   8.483   8.968  0.4063 -0.0435  0.0456
  679MOL0     N89546  -0.158   8.249   9.475  0.2860 -0.7176 -0.8231
  679MOL0     N89547  -0.079   8.241   9.577  0.1461  0.1269  0.1984
  679MOL0     C89548   0.969   8.640  10.350 -0.6649 -0.2738  0.1308
  679MOL0     C89549   1.101   8.697  10.361 -0.4701  0.1115 -0.3000
  679MOL0     C89550   1.527   8.802  10.221  0.1933 -0.4252 -0.2417
  679MOL0     C89551   1.565   8.915  10.300  0.5001  0.0763 -0.1715
  679MOL0     C89552   1.698   8.954  10.312  0.6709  0.9070 -0.5412
  679MOL0     C89553   1.800   8.880  10.270  0.3316 -0.1447  0.9414
  679MOL0     O89554   1.931   8.928  10.294 -0.1671  0.2377  1.3150
  679MOL0     C89555   2.025   8.824  10.313 -0.0944 -0.1932  0.0413
  679MOL0     C89556   2.159   8.881  10.354 -0.4949  0.5048  0.4707
  679MOL0     C89557   2.242   8.919  10.226 -0.5654  0.2694  0.6914
  679MOL0     C89558   2.358   9.014  10.257 -0.6452  0.3376 -0.7241
  679MOL0     C89559   2.472   9.024  10.157 -1.1887 -0.1521 -0.6928
  679MOL0     C89560   2.561   9.033  10.073 -0.3965  0.4558 -0.5218
  679MOL0     C89561   1.768   8.768  10.205  0.2353  0.3151  0.0573
  679MOL0     C89562   1.635   8.731  10.169 -0.5684 -0.3958 -0.2691
  679MOL0     H89563   1.082   8.893  10.083  3.8094  0.7718  1.0000
  679MOL0     H89564   0.850   8.807  10.079  0.4261  1.5959  0.8812
  679MOL0     H89565   0.767   8.538  10.038 -0.8349  0.2105 -1.0501
  679MOL0     H89566   0.677   8.682  10.074  2.4571 -0.0789 -0.3154
  679MOL0     H89567   0.530   8.524  10.230  1.5704 -3.7139  2.0506
  679MOL0     H89568   0.606   8.386  10.159 -0.0198  1.1434  2.7533
  679MOL0     H89569   0.423   8.584  10.027  3.7023  0.0129 -1.1996
  679MOL0     H89570   0.383   8.414  10.081  0.4224 -2.4774 -1.3933
  679MOL0     H89571   0.520   8.512   9.844 -4.0419  2.0800  0.5968
  679MOL0     H89572   0.575   8.350   9.908 -1.5451 -1.5300 -0.1306
  679MOL0     H89573   0.276   8.418   9.868  0.7007  1.1868 -2.4598
  679MOL0     H89574   0.352   8.258   9.919 -0.6662  0.9005  1.8646
  679MOL0     H89575   0.448   8.239   9.698  4.2757  1.7441  3.2046
  679MOL0     H89576   0.395   8.403   9.663  0.2142  0.3841  1.0327
  679MOL0     H89577   0.266   8.208   9.577  0.3377  0.1132  0.9689
  679MOL0     H89578   0.186   8.188   9.734  0.0530  0.3405  0.5568
  679MOL0     H89579   0.176   8.459   9.596  0.3981 -0.6928 -1.7037
  679MOL0     H89580   0.079   8.396   9.732 -1.6186 -0.0045 -0.3432
  679MOL0     H89581   0.070   8.450   9.369  0.9793 -0.9258  1.6027
  679MOL0     H89582  -0.184   8.286   9.187 -1.0351  0.5762 -1.2024
  679MOL0     H89583  -0.111   8.447   9.189 -2.7658  2.5477 -0.5950
  679MOL0     H89584  -0.336   8.494   9.160 -1.4296 -2.0394 -0.8000
  679MOL0     H89585  -0.296   8.521   9.327  1.9561 -0.4679  0.1400
  679MOL0     H89586  -0.409   8.252   9.206 -0.2799 -0.7409  1.0204
  679MOL0     H89587  -0.385   8.293   9.379  3.0117 -0.5982 -0.3831
  679MOL0     H89588  -0.574   8.451   9.355  1.1825  0.3557 -0.2742
  679MOL0     H89589  -0.638   8.293   9.296  2.3132 -1.3633 -0.8656
  679MOL0     H89590  -0.843   8.434   9.278 -0.6369 -2.6612 -1.2918
  679MOL0     H89591  -1.053   8.491   9.168 -0.0923  0.5578  0.2217
  679MOL0     H89592  -1.385   8.544   8.846 -1.4339 -0.6491  2.1049
  679MOL0     H89593  -1.598   8.643   8.812 -1.6783 -0.5243  2.8528
  679MOL0     H89594  -1.828   8.809   9.008 -2.4918  2.0823 -0.0594
  679MOL0     H89595  -1.777   8.762   8.836 -0.6272 -0.7919  1.5303
  679MOL0     H89596  -1.830   9.001   8.786 -2.7738  1.2514  0.2560
  679MOL0     H89597  -1.900   9.019   8.943 -0.3909  0.0704  1.4539
  679MOL0     H89598  -2.072   8.853   8.899  1.5267 -0.6202  1.1868
  679MOL0     H89599  -1.988   8.814   8.741  2.2553  0.7005  0.4344
  679MOL0     H89600  -2.109   9.095   8.791 -1.2486 -0.1594 -1.5075
  679MOL0     H89601  -2.033   9.029   8.647 -1.0115 -1.3052 -1.3567
  679MOL0     H89602  -2.281   8.920   8.778 -0.0127  0.3132  0.0969
  679MOL0     H89603  -2.213   8.862   8.620 -2.9006  0.0704 -0.1927
  679MOL0     H89604  -2.400   9.008   8.566  1.7792 -0.2359  0.7466
  679MOL0     H89605  -2.246   9.104   8.538  1.7866  2.4547  0.8866
  679MOL0     H89606  -2.392   9.082   8.802  0.4764 -2.3105 -0.8702
  679MOL0     H89607  -2.279   9.200   8.754 -0.1308 -0.5021  0.7457
  679MOL0     H89608  -2.501   9.326   8.741 -0.1992  1.7413 -3.5701
  679MOL0     H89609  -2.576   9.181   8.676  1.5540 -0.9155 -0.0376
  679MOL0     H89610  -1.475   8.968   9.071  1.4402  0.9283  0.0231
  679MOL0     H89611  -1.282   8.852   9.144 -0.9904  0.5372  0.0089
  679MOL0     H89612  -0.851   8.533   8.790  1.1174  0.9653 -0.3058
  679MOL0     H89613  -0.652   8.478   8.895 -0.4041  0.3663 -0.8969
  679MOL0     H89614   0.927   8.574  10.426  0.4651  2.9663  3.8815
  679MOL0     H89615   1.152   8.686  10.456  1.4514  2.6796 -0.9308
  679MOL0     H89616   1.486   8.969  10.351  0.8569  0.0213  0.4512
  679MOL0     H89617   1.717   9.042  10.373 -1.8563  1.4998 -0.4903
  679MOL0     H89618   2.040   8.780  10.214  2.3370  1.1230 -0.2441
  679MOL0     H89619   1.995   8.755  10.392  0.3764  0.9305  1.2329
  679MOL0     H89620   2.139   8.978  10.401  4.5265  2.4759 -0.7780
  679MOL0     H89621   2.217   8.808  10.410 -0.4350 -0.0940 -0.3610
  679MOL0     H89622   2.168   8.970  10.163 -4.0816 -2.5645  2.1947
  679MOL0     H89623   2.285   8.829  10.181 -1.7456 -0.7333  1.5013
  679MOL0     H89624   2.329   9.116  10.286  0.8096 -0.1005  2.8445
  679MOL0     H89625   2.418   8.969  10.337  0.9706  1.7805 -1.0643
  679MOL0     H89626   2.645   9.042  10.006 -1.0684 -0.4121 -1.5039
  679MOL0     H89627   1.847   8.701  10.172 -0.5576 -0.7810  0.3233
  679MOL0     H89628   1.627   8.630  10.129  2.8985 -0.6577 -0.6030
  680MOL0     O89629   8.258   7.301  10.956  0.5087 -0.1176 -0.1001
  680MOL0     C89630   8.263   7.194  10.901  0.5422 -0.1071 -0.2614
  680MOL0     O89631   8.355   7.150  10.812 -0.7531 -0.2288  0.0243
  680MOL0     C89632   8.447   7.244  10.770 -0.8657  0.1391 -1.6735
  680MOL0     C89633   8.419   7.320  10.661 -1.0214 -0.1212  0.2753
  680MOL0     C89634   8.497   7.420  10.616 -0.4930 -0.4601  0.6634
  680MOL0     C89635   8.622   7.447  10.671  0.2009 -0.8877 -0.1332
  680MOL0     O89636   8.714   7.551  10.636  0.1246  0.6483  0.6015
  680MOL0     C89637   8.671   7.651  10.540 -0.7823 -0.4931 -0.4514
  680MOL0     C89638   8.557   7.734  10.593  1.2012 -0.1545 -0.4167
  680MOL0     C89639   8.498   7.806  10.469 -0.0121 -0.9296  0.3219
  680MOL0     C89640   8.453   7.947  10.513  0.7308  0.0941  0.1668
  680MOL0     C89641   8.371   8.014  10.399 -0.4527 -0.3124  0.0065
  680MOL0     C89642   8.323   8.148  10.447  0.5877  0.1191 -0.3103
  680MOL0     C89643   8.208   8.200  10.363 -0.4843  0.2299 -0.1143
  680MOL0     C89644   8.116   8.287  10.447  0.2827 -0.0733  0.2589
  680MOL0     N89645   8.016   8.346  10.364 -0.3707 -0.0976 -0.0257
  680MOL0     C89646   8.029   8.410  10.244 -0.8279 -0.4197  0.6337
  680MOL0     C89647   7.910   8.448  10.209 -0.5473 -0.0185 -0.2144
  680MOL0     C89648   7.876   8.517  10.081 -0.7120 -0.2387  0.1836
  680MOL0     C89649   7.856   8.670  10.098 -0.2990  0.0116  0.6266
  680MOL0     C89650   7.728   8.706  10.175 -0.2476 -0.8006  0.1255
  680MOL0     C89651   7.602   8.662  10.107  0.1928  0.0745 -0.2954
  680MOL0     O89652   7.591   8.725   9.976  0.2352  0.2247 -0.4791
  680MOL0     C89653   7.513   8.839   9.981 -1.1838 -0.0206  0.4403
  680MOL0     C89654   7.380   8.841   9.993  0.7516  0.7206  0.9648
  680MOL0     C89655   7.307   8.962   9.990  0.6802  0.3330  0.0748
  680MOL0     C89656   7.368   9.084   9.966 -0.1436 -0.1732 -0.4635
  680MOL0     C89657   7.293   9.206   9.984 -0.4500  0.2203  0.0816
  680MOL0     O89658   7.165   9.188  10.025 -0.0350  0.5288  0.6234
  680MOL0     C89659   7.078   9.289  10.032 -1.6610 -0.1871 -0.0559
  680MOL0     C89660   7.083   9.391   9.933 -0.0585  0.0128 -0.1631
  680MOL0     C89661   6.994   9.499   9.937  0.1381 -0.6087 -0.6035
  680MOL0     C89662   6.891   9.506  10.034  0.1180 -0.2703 -0.8837
  680MOL0     O89663   6.791   9.599  10.041  0.5210  0.4413  0.1190
  680MOL0     C89664   6.781   9.689   9.940  0.0487  0.0185  0.3548
  680MOL0     C89665   6.674   9.804   9.956  0.0679  0.6509  0.6663
  680MOL0     C89666   6.675   9.835  10.096  0.7153 -0.1560  0.3158
  680MOL0     C89667   6.585   9.953  10.113 -1.0342  0.1478 -0.1690
  680MOL0     C89668   6.616  10.028  10.242  0.5088  0.0589  0.8689
  680MOL0     C89669   6.552   9.967  10.374  0.5205 -0.4165  0.4236
  680MOL0     C89670   6.401   9.958  10.372 -0.4097 -0.1745  0.1103
  680MOL0     C89671   6.343   9.823  10.336  0.6656  0.5916  0.4750
  680MOL0    Cl89672   6.377   9.718  10.472  0.4810 -0.1235 -0.2468
  680MOL0     C89673   6.885   9.402  10.129  0.3508  0.4189  0.7877
  680MOL0     C89674   6.979   9.296  10.128 -0.2507  0.0293 -0.0956
  680MOL0     O89675   7.354   9.314   9.975 -0.0009 -0.4829 -0.3738
  680MOL0     C89676   7.507   9.079   9.935 -0.4089  0.7655  0.1332
  680MOL0     C89677   7.571   8.958   9.943 -0.4371 -0.0683 -0.2971
  680MOL0     N89678   7.820   8.418  10.309  0.3288  0.0049 -0.5230
  680MOL0     N89679   7.886   8.363  10.402  0.5852  0.2000  0.0401
  680MOL0     C89680   8.660   7.367  10.787 -0.0781 -0.0409  1.0232
  680MOL0     C89681   8.569   7.263  10.833  0.9109  0.8098 -0.3142
  680MOL0     C89682   8.139   7.104  10.909 -0.1275 -1.0951  0.2094
  680MOL0     C89683   8.135   6.967  10.885  0.1439  0.4744 -0.1809
  680MOL0     C89684   8.018   6.889  10.887  0.8315 -0.3497  0.6239
  680MOL0     C89685   7.891   6.947  10.904  0.0661  0.2462 -0.3106
  680MOL0     O89686   7.779   6.871  10.910 -0.5625  0.5490  0.1499
  680MOL0     C89687   7.755   6.742  10.854 -1.0915  1.1016  0.0374
  680MOL0     C89688   7.704   6.760  10.716  0.9893 -0.0236 -0.4919
  680MOL0     C89689   7.674   6.620  10.643  0.4474 -0.8951 -0.2550
  680MOL0     C89690   7.639   6.669  10.497  0.2821  0.2740  0.5413
  680MOL0     C89691   7.487   6.696  10.489 -0.4034 -0.3090 -0.0058
  680MOL0     C89692   7.376   6.739  10.487  1.0703 -0.6613  1.0253
  680MOL0     C89693   7.888   7.083  10.944  1.1892 -0.3607 -0.2474
  680MOL0     C89694   8.009   7.159  10.939  0.1684  0.1972  0.4600
  680MOL0     H89695   8.329   7.297  10.604 -1.2278  2.7417 -0.7507
  680MOL0     H89696   8.461   7.466  10.524 -0.1470 -2.9902 -0.8438
  680MOL0     H89697   8.630   7.603  10.450 -1.6001 -0.3278 -0.1726
  680MOL0     H89698   8.751   7.717  10.506  1.0810 -1.7568  1.2756
  680MOL0     H89699   8.581   7.808  10.670 -3.9321 -0.5079  1.9405
  680MOL0     H89700   8.474   7.680  10.639  2.2278 -0.8713  0.6526
  680MOL0     H89701   8.411   7.756  10.427 -2.1280  0.9959  2.1067
  680MOL0     H89702   8.568   7.814  10.385 -0.9229 -2.2913 -0.6065
  680MOL0     H89703   8.388   7.929  10.599  5.1341  3.0214  4.6486
  680MOL0     H89704   8.531   8.019  10.541 -1.7575  2.9007  0.4724
  680MOL0     H89705   8.284   7.953  10.372 -1.7073  2.6405 -3.4678
  680MOL0     H89706   8.421   8.026  10.302 -2.5421  1.1148 -0.9829
  680MOL0     H89707   8.400   8.225  10.437  1.3447 -0.4927  0.6094
  680MOL0     H89708   8.297   8.133  10.552  0.5383  0.3580 -0.2886
  680MOL0     H89709   8.260   8.255  10.283  4.0185 -1.2239  1.4775
  680MOL0     H89710   8.157   8.115  10.316 -0.6229 -1.1581  2.3634
  680MOL0     H89711   8.172   8.362  10.503  1.4325  0.1446 -1.0949
  680MOL0     H89712   8.065   8.229  10.524 -2.2192  0.9653 -0.5371
  680MOL0     H89713   8.113   8.436  10.180 -2.1333 -0.6187 -1.2355
  680MOL0     H89714   7.793   8.466  10.032  0.8536 -3.0437  0.2196
  680MOL0     H89715   7.958   8.502  10.009 -1.0167 -1.8435  0.1372
  680MOL0     H89716   7.851   8.708   9.996  0.1645  1.0296  0.9677
  680MOL0     H89717   7.946   8.723  10.133 -0.5752  2.4846 -2.0703
  680MOL0     H89718   7.721   8.660  10.273  0.2196  1.4777  1.3090
  680MOL0     H89719   7.730   8.815  10.186  0.0352 -0.8251  0.3132
  680MOL0     H89720   7.510   8.681  10.164  0.5416 -0.1238  0.3429
  680MOL0     H89721   7.611   8.553  10.106  1.1973  0.0187  2.9116
  680MOL0     H89722   7.318   8.754  10.013  2.4348 -0.2136  2.3558
  680MOL0     H89723   7.200   8.965  10.009  0.5947  4.9571 -0.0820
  680MOL0     H89724   7.161   9.397   9.858 -1.2499 -3.2812 -1.8289
  680MOL0     H89725   7.019   9.575   9.863 -1.5678 -2.8540 -3.7400
  680MOL0     H89726   6.760   9.631   9.850 -1.4345 -0.2151  0.8244
  680MOL0     H89727   6.873   9.748   9.949 -0.3460  0.7811 -0.4250
  680MOL0     H89728   6.579   9.768   9.913  1.4203 -0.6617 -1.4137
  680MOL0     H89729   6.698   9.887   9.889 -0.9854 -1.2699 -2.3323
  680MOL0     H89730   6.778   9.853  10.130  0.5137  0.2273  0.7345
  680MOL0     H89731   6.631   9.756  10.158 -3.3810  1.9867  0.4555
  680MOL0     H89732   6.598  10.022  10.030 -2.8117 -1.4897 -1.8989
  680MOL0     H89733   6.482   9.919  10.100 -0.4922 -1.7099  0.1223
  680MOL0     H89734   6.568  10.126  10.230 -2.3729 -1.3700 -0.0954
  680MOL0     H89735   6.724  10.043  10.252  1.0325 -3.3203  1.2465
  680MOL0     H89736   6.586  10.033  10.454  3.9054 -0.1701 -1.0703
  680MOL0     H89737   6.594   9.868  10.390  0.8640 -0.3820 -0.2194
  680MOL0     H89738   6.364   9.996  10.468  2.1863  1.1225  0.6794
  680MOL0     H89739   6.361  10.032  10.301 -0.0231 -0.7961 -0.7779
  680MOL0     H89740   6.382   9.774  10.247  2.8418  1.0800  1.0980
  680MOL0     H89741   6.238   9.847  10.321  0.5125 -1.0515 -1.4223
  680MOL0     H89742   6.800   9.407  10.196  0.0889 -0.1046  0.4947
  680MOL0     H89743   6.995   9.213  10.196  0.2104 -0.3598 -0.6655
  680MOL0     H89744   7.561   9.166   9.899  2.5782 -0.9057  0.2866
  680MOL0     H89745   7.671   8.946   9.904  0.0552  2.3278  0.0676
  680MOL0     H89746   8.758   7.386  10.829  1.5536 -2.6714 -1.2444
  680MOL0     H89747   8.587   7.201  10.921  0.3182 -1.6999 -1.8424
  680MOL0     H89748   8.222   6.918  10.843 -1.0970 -0.4094 -1.8208
  680MOL0     H89749   8.026   6.783  10.867  1.0136 -0.2750  0.2962
  680MOL0     H89750   7.680   6.688  10.911 -0.8963  1.6298  0.8038
  680MOL0     H89751   7.845   6.679  10.854 -2.6358 -1.2343 -0.5883
  680MOL0     H89752   7.610   6.815  10.719 -0.7845 -2.8474 -0.6136
  680MOL0     H89753   7.785   6.815  10.667  0.6182  1.7121  0.7485
  680MOL0     H89754   7.590   6.571  10.694  0.3049  0.3705  0.7799
  680MOL0     H89755   7.756   6.551  10.658  0.1335 -0.7852  2.5564
  680MOL0     H89756   7.696   6.757  10.464  2.5398 -1.0904  0.5567
  680MOL0     H89757   7.670   6.579  10.443  0.5157 -0.7959  2.3916
  680MOL0     H89758   7.271   6.760  10.479  1.1844 -0.0812  1.0307
  680MOL0     H89759   7.796   7.132  10.973  2.7331  3.2249 -0.8992
  680MOL0     H89760   8.011   7.264  10.965 -0.0815  0.2967  0.0714
  681MOL0     O89761  10.102   3.176   4.363 -0.0590  0.3098  0.0513
  681MOL0     C89762  10.146   3.200   4.255 -0.2864  0.4401 -0.0724
  681MOL0     O89763  10.077   3.231   4.141  0.3381 -0.1928 -0.0911
  681MOL0     C89764   9.932   3.230   4.129  0.7042  0.6093 -0.2173
  681MOL0     C89765   9.874   3.288   4.013 -0.2394  0.6144 -0.2544
  681MOL0     C89766   9.734   3.285   3.991  0.6641 -0.4464 -0.7719
  681MOL0     C89767   9.648   3.252   4.100 -0.2533  0.2183  0.4422
  681MOL0     O89768   9.511   3.262   4.095 -0.3028  0.3607  0.0218
  681MOL0     C89769   9.455   3.328   3.984 -0.0307  0.6347 -0.8569
  681MOL0     C89770   9.306   3.342   4.009  0.0088 -0.3081  0.7559
  681MOL0     C89771   9.225   3.384   3.884 -0.4542 -0.2023 -0.1926
  681MOL0     C89772   9.087   3.449   3.914  0.4777 -1.2333  0.5848
  681MOL0     C89773   9.003   3.369   4.010  0.0148  0.3092  0.6132
  681MOL0     C89774   8.862   3.423   4.011  0.5573 -0.3604 -0.0401
  681MOL0     C89775   8.830   3.564   4.064  0.5434 -0.9191 -0.6039
  681MOL0     C89776   8.684   3.617   4.072  0.0987 -0.2924  0.5124
  681MOL0     N89777   8.589   3.538   3.984 -0.3626 -0.4359 -0.4807
  681MOL0     C89778   8.524   3.417   4.003 -0.7933  0.0005  0.7844
  681MOL0     C89779   8.456   3.391   3.891  0.0131  0.4892 -0.1501
  681MOL0     C89780   8.370   3.265   3.862  0.1764 -0.7040 -0.2983
  681MOL0     C89781   8.218   3.292   3.896  0.0666  0.5925 -0.1041
  681MOL0     C89782   8.193   3.254   4.044  0.9727  0.3212  0.0893
  681MOL0     C89783   8.048   3.200   4.070 -0.8450 -0.5760 -0.2999
  681MOL0     O89784   7.957   3.308   4.041  0.8005  0.1728 -0.1563
  681MOL0     C89785   7.830   3.301   4.090 -0.3001  0.1729 -0.3588
  681MOL0     C89786   7.772   3.424   4.105 -0.2923 -0.1795 -0.2935
  681MOL0     C89787   7.641   3.437   4.164 -0.1549 -0.0598  0.1445
  681MOL0     C89788   7.560   3.325   4.179 -0.5989  0.4956 -0.3599
  681MOL0     C89789   7.416   3.342   4.212 -0.2280  0.7593 -0.1995
  681MOL0     O89790   7.367   3.469   4.225  0.1171  0.3846 -0.0799
  681MOL0     C89791   7.227   3.491   4.245 -0.2234 -0.7130 -0.5049
  681MOL0     C89792   7.191   3.617   4.298  1.0091  0.7125  0.5978
  681MOL0     C89793   7.068   3.640   4.355 -0.1577 -1.2130 -0.1417
  681MOL0     C89794   6.959   3.552   4.341  0.1415  0.2394 -0.1735
  681MOL0     O89795   6.847   3.573   4.412 -0.3064  0.0219  0.2047
  681MOL0     C89796   6.788   3.691   4.372  0.6404 -0.1977  0.3169
  681MOL0     C89797   6.700   3.748   4.486 -0.2427  1.0803 -0.8308
  681MOL0     C89798   6.570   3.673   4.515  0.1731  0.7648 -0.4084
  681MOL0     C89799   6.469   3.753   4.604 -0.8564 -0.1361 -0.7915
  681MOL0     C89800   6.359   3.660   4.661 -0.3119  0.0852  0.8539
  681MOL0     C89801   6.278   3.738   4.773 -0.1141  0.2711 -0.5220
  681MOL0     C89802   6.161   3.830   4.727 -0.8917 -0.4858  0.0322
  681MOL0     C89803   6.073   3.893   4.830 -0.4217  0.4324 -0.1382
  681MOL0    Cl89804   5.980   3.782   4.940  0.5998 -0.0500 -0.4282
  681MOL0     C89805   6.987   3.424   4.293  0.0359  0.0173  0.5636
  681MOL0     C89806   7.118   3.394   4.241  0.4173 -0.8345  2.0556
  681MOL0     O89807   7.362   3.237   4.238  0.6410 -0.8712 -0.2374
  681MOL0     C89808   7.625   3.194   4.177  0.2392 -0.5785 -0.4874
  681MOL0     C89809   7.759   3.180   4.131 -0.7272 -0.1166  0.4457
  681MOL0     N89810   8.485   3.498   3.807  0.7479  0.6467 -0.0568
  681MOL0     N89811   8.550   3.587   3.868 -0.6046  0.3864 -0.3948
  681MOL0     C89812   9.698   3.203   4.220 -0.8596 -0.0449 -0.4307
  681MOL0     C89813   9.843   3.192   4.234  0.6123 -0.0549  0.4201
  681MOL0     C89814  10.295   3.206   4.242 -0.1460  0.5166 -0.8805
  681MOL0     C89815  10.353   3.232   4.120 -0.3110 -0.5754 -0.3479
  681MOL0     C89816  10.485   3.261   4.107  1.2942  0.0390  0.3121
  681MOL0     C89817  10.575   3.253   4.229  0.7649 -0.5199 -0.2838
  681MOL0     O89818  10.706   3.268   4.231  0.1021  0.9783  0.3040
  681MOL0     C89819  10.783   3.282   4.114 -0.3098 -0.1529  0.4426
  681MOL0     C89820  10.913   3.203   4.128 -0.6400 -0.7543 -0.3262
  681MOL0     C89821  10.983   3.239   4.269 -0.2438  0.1779  0.9192
  681MOL0     C89822  11.006   3.393   4.300 -0.5769  0.3705 -0.4171
  681MOL0     C89823  11.118   3.454   4.227  0.4992 -0.6905 -0.6687
  681MOL0     C89824  11.208   3.513   4.174  0.2176 -1.1055  0.5610
  681MOL0     C89825  10.510   3.227   4.350 -0.6616 -0.0259 -0.5344
  681MOL0     C89826  10.374   3.207   4.361  0.9869  0.1840  0.6976
  681MOL0     H89827   9.943   3.316   3.934 -0.9426  2.8669 -0.1396
  681MOL0     H89828   9.698   3.317   3.893 -0.2652  2.6884  0.4838
  681MOL0     H89829   9.488   3.266   3.901 -1.1924 -0.6542 -0.3940
  681MOL0     H89830   9.492   3.426   3.952 -1.6930  0.7506 -2.5971
  681MOL0     H89831   9.277   3.398   4.098 -3.9934  0.3006 -0.7161
  681MOL0     H89832   9.267   3.242   4.031 -1.8701  0.0054 -0.7774
  681MOL0     H89833   9.221   3.302   3.811 -1.4642  0.0483 -0.4384
  681MOL0     H89834   9.286   3.465   3.844 -0.3421  0.0190  0.4153
  681MOL0     H89835   9.118   3.539   3.969 -1.4872 -1.3470  1.9635
  681MOL0     H89836   9.037   3.466   3.819  1.2322 -1.9991  0.0369
  681MOL0     H89837   9.052   3.378   4.108  1.8744 -0.4414 -0.2005
  681MOL0     H89838   9.002   3.267   3.970  0.2120  0.4437  0.2622
  681MOL0     H89839   8.814   3.354   4.081  0.8862  0.9751  1.5662
  681MOL0     H89840   8.810   3.408   3.916 -2.9769 -0.5117  1.7607
  681MOL0     H89841   8.867   3.582   4.165  2.5138 -1.7743 -1.1205
  681MOL0     H89842   8.895   3.629   4.005 -1.2643 -1.2602 -3.1433
  681MOL0     H89843   8.679   3.720   4.036 -1.9447 -0.0034  1.4500
  681MOL0     H89844   8.651   3.616   4.176 -0.8528  0.0483  0.2337
  681MOL0     H89845   8.551   3.350   4.084  2.0003 -0.0737 -0.1289
  681MOL0     H89846   8.421   3.181   3.911  2.8158  0.3384 -1.0631
  681MOL0     H89847   8.370   3.243   3.755 -1.3672  1.0195 -0.6980
  681MOL0     H89848   8.159   3.226   3.831  0.3511  1.1654 -0.9633
  681MOL0     H89849   8.197   3.396   3.872 -2.4967  0.1681 -0.0207
  681MOL0     H89850   8.252   3.166   4.072 -0.0234 -0.1625  0.7134
  681MOL0     H89851   8.228   3.334   4.111  0.9832 -0.8622  1.5410
  681MOL0     H89852   8.030   3.173   4.174 -2.8578  0.2556 -0.3723
  681MOL0     H89853   8.020   3.116   4.006 -2.6514  0.0951 -0.4434
  681MOL0     H89854   7.835   3.511   4.094 -1.1299  0.1469 -3.4254
  681MOL0     H89855   7.611   3.542   4.167  2.7383  0.8637 -0.2003
  681MOL0     H89856   7.271   3.690   4.302  1.5228  0.2570 -0.7726
  681MOL0     H89857   7.074   3.736   4.406  0.7422 -2.0969  1.5059
  681MOL0     H89858   6.718   3.679   4.289 -0.5248  2.8430  0.7337
  681MOL0     H89859   6.856   3.768   4.333 -1.5782  0.4740 -2.6057
  681MOL0     H89860   6.670   3.853   4.477 -1.8011  0.5962 -1.7856
  681MOL0     H89861   6.762   3.740   4.575  1.6788  2.3571 -1.9817
  681MOL0     H89862   6.597   3.582   4.569 -0.5185  0.2468 -0.9211
  681MOL0     H89863   6.520   3.628   4.429 -0.3837 -2.3092  1.3852
  681MOL0     H89864   6.525   3.790   4.691  0.3324  2.8796 -2.6921
  681MOL0     H89865   6.428   3.840   4.553 -1.5090  0.0953  0.1032
  681MOL0     H89866   6.390   3.564   4.704 -4.4183 -1.9711 -0.2864
  681MOL0     H89867   6.297   3.634   4.574  2.6662 -1.9906 -0.8365
  681MOL0     H89868   6.347   3.778   4.848  0.3633  0.5434 -1.1010
  681MOL0     H89869   6.232   3.649   4.817 -1.7334  0.8871 -0.9327
  681MOL0     H89870   6.208   3.907   4.665 -1.5989  0.5468  0.7402
  681MOL0     H89871   6.104   3.782   4.647 -2.4995 -1.4367  1.6639
  681MOL0     H89872   5.999   3.957   4.781  0.1764  1.3293  0.0988
  681MOL0     H89873   6.140   3.946   4.897 -1.0064 -0.9259  1.6093
  681MOL0     H89874   6.915   3.343   4.283  3.3163 -2.9122 -2.0576
  681MOL0     H89875   7.136   3.294   4.202  1.6381  0.7774 -2.0474
  681MOL0     H89876   7.566   3.110   4.212  1.0056 -0.6633  0.6340
  681MOL0     H89877   7.792   3.077   4.121 -2.1967 -0.8125  2.2485
  681MOL0     H89878   9.637   3.180   4.306  0.6705 -0.8800  0.4654
  681MOL0     H89879   9.879   3.148   4.326  0.6145 -0.6919  0.1229
  681MOL0     H89880  10.307   3.229   4.021  2.8287  3.3214 -2.2217
  681MOL0     H89881  10.533   3.277   4.010  1.4258 -2.3260 -0.0866
  681MOL0     H89882  10.814   3.386   4.107  1.1778 -0.4080  2.3233
  681MOL0     H89883  10.730   3.253   4.023 -1.4729  1.6014  0.5186
  681MOL0     H89884  10.899   3.095   4.118 -2.4797 -0.6550  0.7397
  681MOL0     H89885  10.971   3.244   4.045  0.0595  1.9312  1.3598
  681MOL0     H89886  11.077   3.185   4.281 -0.3270 -0.6249 -1.4067
  681MOL0     H89887  10.922   3.191   4.345 -0.8817 -2.5315 -1.1345
  681MOL0     H89888  10.911   3.446   4.295 -0.9628  0.1608  2.8012
  681MOL0     H89889  11.038   3.391   4.405 -3.3732  0.6098  0.5184
  681MOL0     H89890  11.290   3.580   4.154 -0.0052  0.1789  3.4688
  681MOL0     H89891  10.566   3.234   4.443 -0.6558 -2.5594 -0.2873
  681MOL0     H89892  10.336   3.170   4.456  1.8621 -3.7476 -0.3185
  682MOL0     O89893   3.805   9.350   3.649  0.4292  1.1427 -0.5369
  682MOL0     C89894   3.707   9.345   3.573 -0.6436  1.0253 -1.2271
  682MOL0     O89895   3.705   9.356   3.433  0.3706  0.2203  0.4944
  682MOL0     C89896   3.826   9.356   3.372 -0.9031 -0.2312 -0.6151
  682MOL0     C89897   3.894   9.235   3.341  0.2739  0.1475  0.2079
  682MOL0     C89898   4.008   9.227   3.277  0.3160  0.2915 -0.0945
  682MOL0     C89899   4.072   9.342   3.237  1.0280 -0.7969 -0.6872
  682MOL0     O89900   4.185   9.341   3.162  0.1841 -0.9617  0.1886
  682MOL0     C89901   4.291   9.248   3.174 -0.5835  0.7808 -0.4321
  682MOL0     C89902   4.303   9.156   3.050 -0.6265 -0.8652  0.1210
  682MOL0     C89903   4.317   9.229   2.912  0.2983  0.5560 -0.6011
  682MOL0     C89904   4.343   9.141   2.790 -0.4950 -0.9868  0.0901
  682MOL0     C89905   4.494   9.117   2.772 -0.3787  0.0011  0.3625
  682MOL0     C89906   4.530   9.025   2.654  0.2146  0.2388  0.2496
  682MOL0     C89907   4.661   9.055   2.600 -0.4706 -0.1248 -0.0588
  682MOL0     C89908   4.776   9.048   2.694 -0.1888  0.2107 -0.2221
  682MOL0     N89909   4.790   8.912   2.741 -0.4045 -0.4579  0.1995
  682MOL0     C89910   4.835   8.805   2.668 -0.0876  0.6443 -0.7190
  682MOL0     C89911   4.808   8.694   2.742 -0.1945 -0.2540 -0.2917
  682MOL0     C89912   4.826   8.549   2.713  0.1223 -0.6814  0.2885
  682MOL0     C89913   4.707   8.480   2.640  1.0850 -0.3014 -0.9204
  682MOL0     C89914   4.578   8.474   2.739 -0.6270  0.0214 -0.4197
  682MOL0     C89915   4.584   8.366   2.839  0.6937  1.3693  0.3201
  682MOL0     O89916   4.470   8.364   2.919 -0.5808  0.1041 -0.2335
  682MOL0     C89917   4.362   8.295   2.867  0.6874 -0.6626  0.7789
  682MOL0     C89918   4.250   8.320   2.945 -0.1042 -0.6454  0.6942
  682MOL0     C89919   4.127   8.258   2.919 -0.1649 -0.1088 -0.6065
  682MOL0     C89920   4.109   8.172   2.811  0.4622 -0.4415  0.7557
  682MOL0     C89921   3.983   8.109   2.788 -0.4427  0.8987  0.8100
  682MOL0     O89922   3.866   8.165   2.835  0.3534  0.1873 -0.2595
  682MOL0     C89923   3.745   8.109   2.795 -0.0347  0.1559 -0.1448
  682MOL0     C89924   3.655   8.186   2.721 -0.0288  0.1353 -0.5782
  682MOL0     C89925   3.543   8.127   2.657 -0.9074 -0.0468 -0.7627
  682MOL0     C89926   3.523   7.993   2.650 -0.3096  0.6985  0.7929
  682MOL0     O89927   3.426   7.946   2.561 -0.4933  0.1789  0.1883
  682MOL0     C89928   3.391   7.813   2.572 -0.0890 -0.0454  0.7087
  682MOL0     C89929   3.276   7.781   2.489 -0.5454 -0.3650  0.6892
  682MOL0     C89930   3.291   7.826   2.339  1.1360 -0.2231 -0.1127
  682MOL0     C89931   3.183   7.763   2.240  0.0562  0.3817 -0.3554
  682MOL0     C89932   3.218   7.799   2.091 -0.9503  0.4627  0.0683
  682MOL0     C89933   3.184   7.682   1.998 -0.1361 -0.0685 -0.1073
  682MOL0     C89934   3.035   7.632   2.006 -0.3964 -0.5449  0.0976
  682MOL0     C89935   2.991   7.554   1.883  0.1636 -0.3578  0.1676
  682MOL0    Cl89936   2.844   7.454   1.932 -0.2254  0.3456 -0.2682
  682MOL0     C89937   3.621   7.917   2.717 -0.1234  0.2661  0.1266
  682MOL0     C89938   3.717   7.972   2.801  0.8264 -0.1368  0.3868
  682MOL0     O89939   3.991   8.009   2.718  0.4062  0.0018  0.4224
  682MOL0     C89940   4.232   8.133   2.741  0.6923 -0.7269  0.1333
  682MOL0     C89941   4.350   8.201   2.767 -0.4604  0.5077 -0.2707
  682MOL0     N89942   4.752   8.736   2.861  0.1576  0.0480  0.2839
  682MOL0     N89943   4.728   8.855   2.845  0.2162 -0.7099 -0.5650
  682MOL0     C89944   4.010   9.473   3.266  0.3557 -0.4661 -0.5198
  682MOL0     C89945   3.889   9.480   3.342  0.2434 -0.8692  0.4257
  682MOL0     C89946   3.584   9.340   3.643  0.2919 -1.2734  0.9535
  682MOL0     C89947   3.574   9.342   3.776 -0.1652 -0.1092 -0.4729
  682MOL0     C89948   3.448   9.362   3.837  0.5418  0.2355 -0.4336
  682MOL0     C89949   3.327   9.346   3.768 -0.2671 -0.2749 -0.6195
  682MOL0     O89950   3.218   9.341   3.845  0.2426 -0.8161 -0.5310
  682MOL0     C89951   3.086   9.313   3.788  0.2117  0.9784 -0.8128
  682MOL0     C89952   3.052   9.166   3.748  0.2321 -0.0012  0.8259
  682MOL0     C89953   3.031   9.072   3.868 -0.5039 -0.0479  0.1572
  682MOL0     C89954   2.877   9.051   3.883 -0.1416  0.1876 -0.1199
  682MOL0     C89955   2.825   8.959   3.776 -0.0332 -0.3258  0.4755
  682MOL0     C89956   2.793   8.885   3.685 -1.3375  0.3133 -0.0404
  682MOL0     C89957   3.346   9.320   3.633  0.7846 -0.1921 -0.9074
  682MOL0     C89958   3.469   9.326   3.573  0.2890 -0.0721  0.6273
  682MOL0     H89959   3.853   9.144   3.381 -0.6930 -0.5881 -2.2826
  682MOL0     H89960   4.043   9.133   3.234 -1.5690 -0.9147  0.8559
  682MOL0     H89961   4.276   9.188   3.265 -1.1154  2.5473  0.7039
  682MOL0     H89962   4.383   9.307   3.181 -0.2173  0.2434 -0.6221
  682MOL0     H89963   4.212   9.097   3.038 -2.4181  1.2593  2.3380
  682MOL0     H89964   4.380   9.079   3.063  0.5020  0.3742  1.0967
  682MOL0     H89965   4.400   9.299   2.915  0.8925 -0.1129 -1.1163
  682MOL0     H89966   4.227   9.286   2.886 -0.4900 -1.3857 -2.4689
  682MOL0     H89967   4.299   9.042   2.806 -0.7246 -1.2872 -2.0896
  682MOL0     H89968   4.305   9.193   2.701 -1.0679 -1.0801  0.2748
  682MOL0     H89969   4.544   9.079   2.861  1.6616 -1.5515 -1.3561
  682MOL0     H89970   4.532   9.218   2.755 -1.3282 -0.0758 -3.1088
  682MOL0     H89971   4.461   9.034   2.570 -1.6446  1.0433  1.7648
  682MOL0     H89972   4.538   8.920   2.686  3.2848  0.7502  1.5090
  682MOL0     H89973   4.674   8.983   2.518 -1.2572 -2.5228  1.7951
  682MOL0     H89974   4.656   9.157   2.562 -2.0688  0.6724  2.1104
  682MOL0     H89975   4.765   9.117   2.778  0.4924  0.0342  0.0149
  682MOL0     H89976   4.874   9.068   2.651  0.4719  0.0172  1.1588
  682MOL0     H89977   4.901   8.822   2.583  1.5442  0.6716  0.4939
  682MOL0     H89978   4.854   8.492   2.803 -1.6634 -2.4206 -0.1877
  682MOL0     H89979   4.909   8.537   2.643 -0.3011  0.8576 -0.5046
  682MOL0     H89980   4.732   8.376   2.621 -0.0314 -0.3378 -2.3879
  682MOL0     H89981   4.679   8.533   2.548  0.9189  0.4618 -0.4409
  682MOL0     H89982   4.570   8.567   2.797  1.3296 -0.7685  1.2613
  682MOL0     H89983   4.489   8.466   2.677 -2.5659  1.6308  1.9748
  682MOL0     H89984   4.673   8.384   2.900  2.0590 -0.5892 -0.9683
  682MOL0     H89985   4.593   8.265   2.797 -2.5957  1.3966 -0.6975
  682MOL0     H89986   4.264   8.388   3.028 -0.9643 -0.8173  0.9944
  682MOL0     H89987   4.053   8.271   2.997  1.1637 -2.0531  1.0618
  682MOL0     H89988   3.685   8.290   2.711  3.0157 -0.8308 -3.4625
  682MOL0     H89989   3.477   8.191   2.600  1.1033  0.5039 -2.5790
  682MOL0     H89990   3.377   7.784   2.677  0.6201  0.3058  0.9079
  682MOL0     H89991   3.465   7.747   2.527  0.8714  1.1255  0.5137
  682MOL0     H89992   3.194   7.834   2.539  1.2940  3.5506 -0.0578
  682MOL0     H89993   3.257   7.673   2.484  0.4214 -0.6375  2.1565
  682MOL0     H89994   3.392   7.796   2.310  0.7250 -0.9301 -0.8331
  682MOL0     H89995   3.279   7.933   2.316 -1.6771 -0.5957 -0.7241
  682MOL0     H89996   3.179   7.654   2.249  0.4447  0.3211 -0.8729
  682MOL0     H89997   3.086   7.808   2.265  0.7045  0.3247  2.6407
  682MOL0     H89998   3.327   7.806   2.094 -0.9376  0.2904  0.0064
  682MOL0     H89999   3.170   7.888   2.048  3.0608  3.2668  0.8314
  682MOL0     H90000   3.247   7.592   2.005 -0.1768 -0.2664 -1.8688
  682MOL0     H90001   3.204   7.722   1.898  0.0381  0.8134  0.2714
  682MOL0     H90002   3.026   7.578   2.101  2.6966 -1.1380  0.1718
  682MOL0     H90003   2.975   7.723   2.018 -0.2865 -0.7189  2.4816
  682MOL0     H90004   3.064   7.479   1.852 -0.7748 -2.1647  2.1175
  682MOL0     H90005   2.981   7.628   1.803 -1.4648 -0.3750  0.3296
  682MOL0     H90006   3.611   7.809   2.719  1.6571  0.0653  2.4004
  682MOL0     H90007   3.782   7.905   2.856  0.2335 -0.8602  0.2141
  682MOL0     H90008   4.233   8.055   2.666 -0.8690 -0.4770 -0.1860
  682MOL0     H90009   4.432   8.177   2.701  1.1506 -0.0936  1.8321
  682MOL0     H90010   4.058   9.567   3.241 -1.6176  1.0589  1.1568
  682MOL0     H90011   3.833   9.570   3.364  0.0868  1.0778 -5.9917
  682MOL0     H90012   3.661   9.334   3.840 -1.6460 -2.3247  1.4116
  682MOL0     H90013   3.450   9.377   3.944 -1.8706 -0.0209 -0.3035
  682MOL0     H90014   3.075   9.382   3.704  0.0631  1.2342 -0.5831
  682MOL0     H90015   3.013   9.342   3.865  0.7575 -1.3245  0.6698
  682MOL0     H90016   2.962   9.170   3.686 -2.6062 -0.2988  4.5403
  682MOL0     H90017   3.145   9.139   3.697  0.0221  3.6280 -1.8638
  682MOL0     H90018   3.067   9.119   3.960  1.6542 -0.5319 -0.3716
  682MOL0     H90019   3.078   8.976   3.845  0.3009  1.0680 -3.7412
  682MOL0     H90020   2.849   8.996   3.973 -0.5587 -0.5843 -0.6985
  682MOL0     H90021   2.822   9.145   3.873 -0.5915 -0.2542 -2.4947
  682MOL0     H90022   2.771   8.816   3.606 -1.3890  0.4998 -0.1896
  682MOL0     H90023   3.261   9.314   3.566  0.3841 -0.6308 -0.3722
  682MOL0     H90024   3.469   9.326   3.464 -0.6354  0.2884  0.6201
  683MOL0     O90025   1.941   5.110   9.524 -0.2831  0.2779 -0.6163
  683MOL0     C90026   2.012   5.203   9.500 -0.7854  0.1258  0.6107
  683MOL0     O90027   2.020   5.328   9.562  0.4543 -0.1789 -0.0843
  683MOL0     C90028   1.993   5.341   9.698  0.5446  1.3401 -0.0899
  683MOL0     C90029   1.896   5.270   9.775  0.1578  0.6600 -0.5794
  683MOL0     C90030   1.850   5.322   9.895  0.4322 -0.3228 -0.4401
  683MOL0     C90031   1.913   5.430   9.950 -0.1496 -0.6518 -0.0399
  683MOL0     O90032   1.875   5.476  10.077 -0.1819  0.0079  0.4705
  683MOL0     C90033   1.920   5.384  10.174 -0.6222 -1.2694 -0.0055
  683MOL0     C90034   1.908   5.450  10.313  0.4778 -0.5746 -0.2839
  683MOL0     C90035   1.779   5.415  10.371  0.8970 -0.2641 -1.0293
  683MOL0     C90036   1.660   5.482  10.302  0.6196 -0.7559  0.2473
  683MOL0     C90037   1.523   5.428  10.364  1.0113  0.2791 -0.9387
  683MOL0     C90038   1.489   5.492  10.504 -0.5446  0.4514  0.1972
  683MOL0     C90039   1.341   5.445  10.544  0.0769  0.4161  0.0444
  683MOL0     C90040   1.249   5.559  10.559 -0.4973 -0.7803  0.0469
  683MOL0     N90041   1.118   5.525  10.610 -0.0125 -0.0695 -0.5164
  683MOL0     C90042   1.091   5.467  10.734 -0.9058 -0.4103 -0.0405
  683MOL0     C90043   0.956   5.444  10.737  0.5143 -0.4618 -0.6222
  683MOL0     C90044   0.872   5.382  10.847  0.2127 -0.0132  0.1579
  683MOL0     C90045   0.720   5.360  10.814  0.1442 -0.9325 -1.0492
  683MOL0     C90046   0.692   5.258  10.710 -0.0404  0.1612  0.5045
  683MOL0     C90047   0.546   5.233  10.688 -0.3493 -0.3508 -0.8260
  683MOL0     O90048   0.485   5.161  10.786  0.2313 -0.0254 -0.6893
  683MOL0     C90049   0.348   5.129  10.760 -0.3346  0.4364  0.0993
  683MOL0     C90050   0.266   5.071  10.863 -0.4151  1.1943  1.6201
  683MOL0     C90051   0.130   5.033  10.841 -0.3138  0.5145 -0.0819
  683MOL0     C90052   0.072   5.049  10.714  0.7099 -0.0345  0.4454
  683MOL0     C90053  -0.058   4.994  10.690  0.7570  0.2202 -0.0648
  683MOL0     O90054  -0.151   4.978  10.795 -0.1404  0.2259 -0.2037
  683MOL0     C90055  -0.260   4.911  10.766  0.2866  0.8174  0.7684
  683MOL0     C90056  -0.369   4.991  10.732 -0.2236 -0.2791  0.1850
  683MOL0     C90057  -0.496   4.937  10.704  0.0908  0.4921  0.2205
  683MOL0     C90058  -0.511   4.800  10.726  0.2149 -0.7225  1.1666
  683MOL0     O90059  -0.624   4.737  10.698 -0.2455  0.1595  0.2149
  683MOL0     C90060  -0.737   4.778  10.782 -0.0000  0.3015  0.3816
  683MOL0     C90061  -0.850   4.678  10.754 -0.2619  0.2770 -0.6962
  683MOL0     C90062  -0.821   4.541  10.821  0.4642  0.4418 -0.4840
  683MOL0     C90063  -0.958   4.470  10.840 -0.1901  0.6996 -0.1659
  683MOL0     C90064  -0.939   4.317  10.884  0.6713  0.3416 -0.4322
  683MOL0     C90065  -1.072   4.261  10.926  0.2904  0.2829 -0.8329
  683MOL0     C90066  -1.085   4.108  10.913  0.0768  0.5200 -0.2278
  683MOL0     C90067  -1.225   4.063  10.952 -0.8708 -0.4283  0.0402
  683MOL0    Cl90068  -1.251   3.906  10.901 -0.2823 -0.2256 -0.3497
  683MOL0     C90069  -0.410   4.719  10.767 -0.1809  0.4202 -0.0675
  683MOL0     C90070  -0.280   4.769  10.773  0.8559 -0.5345 -0.1478
  683MOL0     O90071  -0.086   4.955  10.578  0.9280 -0.2666 -0.2692
  683MOL0     C90072   0.149   5.112  10.614  0.9363 -0.1101 -0.0158
  683MOL0     C90073   0.275   5.150  10.637 -0.9722 -1.0955 -0.9025
  683MOL0     N90074   0.914   5.481  10.613  0.6183  0.2790  0.5504
  683MOL0     N90075   1.007   5.526  10.530  0.6787 -0.5107  1.0144
  683MOL0     C90076   2.017   5.490   9.885 -0.4105 -0.7557 -0.8713
  683MOL0     C90077   2.061   5.444   9.759 -0.9815 -0.7158  0.6336
  683MOL0     C90078   2.086   5.197   9.369  0.1082  0.2948  0.3879
  683MOL0     C90079   2.180   5.292   9.332 -0.6023 -0.6760 -0.3383
  683MOL0     C90080   2.236   5.293   9.202  0.8773  0.6119 -0.6238
  683MOL0     C90081   2.226   5.186   9.119  0.5865  0.0283  0.4076
  683MOL0     O90082   2.291   5.171   8.997 -0.1494 -0.1650 -0.4350
  683MOL0     C90083   2.389   5.259   8.962  0.0114 -0.1909  0.1523
  683MOL0     C90084   2.477   5.203   8.851 -0.6854  0.4418  0.9660
  683MOL0     C90085   2.541   5.073   8.902  1.6024 -0.2656 -0.2312
  683MOL0     C90086   2.670   5.036   8.827  0.1278  0.9004 -0.9548
  683MOL0     C90087   2.646   4.986   8.686  0.3278 -0.0727  0.1300
  683MOL0     C90088   2.621   4.940   8.577 -0.7112  0.0169  0.5788
  683MOL0     C90089   2.126   5.089   9.148 -0.3797 -0.5987  0.0396
  683MOL0     C90090   2.052   5.107   9.270  0.0757  0.0043 -0.7182
  683MOL0     H90091   1.832   5.207   9.714  0.3377  0.2323 -0.3292
  683MOL0     H90092   1.758   5.282   9.936  1.8354 -0.2917  3.0145
  683MOL0     H90093   2.022   5.346  10.167 -0.0843  0.3595 -2.6404
  683MOL0     H90094   1.849   5.300  10.178 -2.5820  0.3815  2.7945
  683MOL0     H90095   1.927   5.558  10.313 -0.4794 -0.3647  1.8947
  683MOL0     H90096   1.987   5.409  10.376  0.4535 -1.8529 -1.0367
  683MOL0     H90097   1.772   5.463  10.470 -2.7953 -2.5422 -0.0041
  683MOL0     H90098   1.772   5.309  10.398 -0.6262 -0.8296 -3.3762
  683MOL0     H90099   1.673   5.591  10.302 -0.9196 -0.5516  0.1556
  683MOL0     H90100   1.660   5.446  10.199  0.2988 -0.6536  0.2100
  683MOL0     H90101   1.532   5.319  10.353  3.3672  0.5749 -2.6042
  683MOL0     H90102   1.450   5.462  10.290 -1.2208  0.3169  1.1315
  683MOL0     H90103   1.509   5.600  10.500  0.5342  0.4356  2.9158
  683MOL0     H90104   1.563   5.464  10.580  1.2825  2.4293 -0.7338
  683MOL0     H90105   1.286   5.392  10.466  0.5601 -0.7241  0.4613
  683MOL0     H90106   1.344   5.375  10.628 -1.0521  1.0402  0.6336
  683MOL0     H90107   1.232   5.602  10.460 -1.5950 -3.0380 -0.8028
  683MOL0     H90108   1.278   5.630  10.637 -2.8065  0.0191  0.2681
  683MOL0     H90109   1.155   5.437  10.816  1.1843 -0.0178 -1.4333
  683MOL0     H90110   0.874   5.462  10.921  1.2003  1.2905 -1.2174
  683MOL0     H90111   0.918   5.295  10.895 -2.9060 -1.0920  1.4948
  683MOL0     H90112   0.669   5.451  10.783 -0.2912 -0.8885 -0.2456
  683MOL0     H90113   0.678   5.345  10.914  0.9129  0.6092 -0.4645
  683MOL0     H90114   0.726   5.293  10.613  0.5774  0.1834  0.7245
  683MOL0     H90115   0.752   5.167  10.726  1.3560  0.8699 -0.5523
  683MOL0     H90116   0.526   5.180  10.594 -3.2094 -0.6940 -0.1280
  683MOL0     H90117   0.490   5.327  10.680 -0.1744 -0.0378  1.2495
  683MOL0     H90118   0.313   5.051  10.959  0.0110 -2.3694  0.8113
  683MOL0     H90119   0.069   4.981  10.915 -0.4162  1.8400  0.7867
  683MOL0     H90120  -0.355   5.098  10.718 -1.9897 -0.1554 -1.0319
  683MOL0     H90121  -0.579   4.994  10.665  0.7281  0.1636 -1.7000
  683MOL0     H90122  -0.779   4.877  10.766 -0.2520 -0.2590 -3.3099
  683MOL0     H90123  -0.704   4.767  10.886  0.1215 -0.0085  0.3122
  683MOL0     H90124  -0.876   4.658  10.649 -0.3800  2.4338 -1.1131
  683MOL0     H90125  -0.942   4.714  10.802  0.2301 -0.1664  0.6213
  683MOL0     H90126  -0.784   4.553  10.923  2.9489  0.6466 -1.3308
  683MOL0     H90127  -0.741   4.485  10.771  0.5441 -1.5434  1.6976
  683MOL0     H90128  -1.024   4.513  10.916 -1.2134 -0.4474 -0.3783
  683MOL0     H90129  -0.999   4.460  10.740  1.4448  0.7892 -0.8722
  683MOL0     H90130  -0.873   4.310  10.972  0.6565 -0.9852 -0.5042
  683MOL0     H90131  -0.897   4.266  10.797  1.8012  1.0379 -0.3134
  683MOL0     H90132  -1.150   4.301  10.861 -1.4275  1.3804  1.7236
  683MOL0     H90133  -1.099   4.302  11.024  3.0247 -2.1325  1.0889
  683MOL0     H90134  -1.060   4.068  10.815 -0.2172  1.8838 -0.8699
  683MOL0     H90135  -1.014   4.069  10.987 -1.7070  1.6357  2.2232
  683MOL0     H90136  -1.302   4.119  10.898  1.7993  0.8303 -2.7608
  683MOL0     H90137  -1.250   4.076  11.058  1.6397 -0.3203  0.6897
  683MOL0     H90138  -0.434   4.614  10.775  1.4919  0.1273  2.0836
  683MOL0     H90139  -0.196   4.708  10.806  1.5004  0.3075 -0.1770
  683MOL0     H90140   0.111   5.128  10.514 -2.1902 -4.4182  0.1792
  683MOL0     H90141   0.331   5.198  10.557  1.2758  1.0230  1.6841
  683MOL0     H90142   2.065   5.579   9.925 -2.1524  0.2582 -0.9055
  683MOL0     H90143   2.139   5.502   9.711 -2.4203  0.5867 -0.2061
  683MOL0     H90144   2.200   5.373   9.402 -2.4055  1.1134 -1.7582
  683MOL0     H90145   2.315   5.367   9.196  1.8644 -0.2031  1.4306
  683MOL0     H90146   2.461   5.268   9.043  1.8518  3.3029 -1.6561
  683MOL0     H90147   2.362   5.361   8.933  2.0714 -0.3196 -2.6370
  683MOL0     H90148   2.415   5.183   8.763  1.4548 -2.8195  0.0293
  683MOL0     H90149   2.552   5.272   8.810 -0.8193  1.0405  1.7156
  683MOL0     H90150   2.470   4.991   8.893  0.6735  0.4561  0.3235
  683MOL0     H90151   2.569   5.097   9.006 -1.5381  2.3285  0.1872
  683MOL0     H90152   2.745   5.116   8.837  1.0862 -0.1306  0.5946
  683MOL0     H90153   2.713   4.950   8.880 -2.2631 -0.0145 -0.4000
  683MOL0     H90154   2.596   4.912   8.477  0.2459  2.3156 -0.3795
  683MOL0     H90155   2.096   5.016   9.074 -4.1401 -0.6782  1.4278
  683MOL0     H90156   1.967   5.045   9.299 -1.3128  2.8701  1.9121
  684MOL0     O90157  10.215  10.368   7.892  0.6677  0.6597 -0.0086
  684MOL0     C90158  10.224  10.440   7.992  0.4184 -0.9936  0.3583
  684MOL0     O90159  10.127  10.525   8.033  0.4568 -0.2819  0.9080
  684MOL0     C90160  10.002  10.523   7.971  0.5767 -0.2228 -0.6566
  684MOL0     C90161   9.994  10.553   7.836  0.0156 -0.4287 -0.3714
  684MOL0     C90162   9.871  10.532   7.768  1.1825 -0.9520  1.1387
  684MOL0     C90163   9.755  10.489   7.836  0.3038 -0.3655  0.1855
  684MOL0     O90164   9.626  10.474   7.785 -0.0586  0.1756 -0.1510
  684MOL0     C90165   9.588  10.560   7.673  0.1879 -0.8143  0.0749
  684MOL0     C90166   9.465  10.479   7.617 -1.1271 -0.1816  0.1596
  684MOL0     C90167   9.363  10.454   7.731 -0.4380  0.5135  0.5891
  684MOL0     C90168   9.270  10.555   7.777  0.0553 -1.2345 -0.0656
  684MOL0     C90169   9.216  10.541   7.915 -0.3012  0.0453 -0.3953
  684MOL0     C90170   9.101  10.433   7.921 -0.3759 -0.7574  0.7712
  684MOL0     C90171   9.019  10.449   8.053 -0.0075  0.1867  0.1673
  684MOL0     C90172   8.885  10.380   8.047 -0.0692 -0.4031  0.6205
  684MOL0     N90173   8.809  10.435   7.933  0.4751  0.4177  0.0516
  684MOL0     C90174   8.756  10.366   7.822 -0.7578  0.6681 -0.0202
  684MOL0     C90175   8.676  10.456   7.758 -0.4679  0.5552 -0.5636
  684MOL0     C90176   8.601  10.429   7.628 -0.9828  0.2640 -0.4541
  684MOL0     C90177   8.446  10.418   7.641  0.3863 -0.2691 -1.2010
  684MOL0     C90178   8.404  10.294   7.723 -0.3545  0.4370  0.5968
  684MOL0     C90179   8.261  10.302   7.758 -0.6527  0.7753  0.2680
  684MOL0     O90180   8.213  10.194   7.836 -0.8604  0.0894  0.0099
  684MOL0     C90181   8.074  10.175   7.837 -0.3304  0.7273  0.0228
  684MOL0     C90182   7.982  10.253   7.771 -0.4397 -0.4008 -0.3069
  684MOL0     C90183   7.848  10.228   7.788  0.1288 -0.7123 -0.7855
  684MOL0     C90184   7.801  10.111   7.871  0.0812 -0.5187  0.1886
  684MOL0     C90185   7.655  10.080   7.887 -0.1820 -0.0955 -0.7988
  684MOL0     O90186   7.569  10.181   7.861 -0.4138 -0.3608  0.0135
  684MOL0     C90187   7.448  10.188   7.920  0.3347  0.2024 -0.5326
  684MOL0     C90188   7.419  10.141   8.052  0.3397 -0.3798 -0.8639
  684MOL0     C90189   7.287  10.180   8.112  0.5370 -0.9028  0.3756
  684MOL0     C90190   7.190  10.234   8.029 -0.4992  0.7380  0.4370
  684MOL0     O90191   7.066  10.249   8.084 -0.1937  0.4392 -0.2485
  684MOL0     C90192   6.949  10.268   8.004 -0.2716  0.9822  0.4554
  684MOL0     C90193   6.834  10.190   8.072  0.0055 -0.7374 -0.1634
  684MOL0     C90194   6.727  10.136   7.974 -0.9041  0.1796 -0.5244
  684MOL0     C90195   6.627  10.037   8.048 -0.2222 -0.0567  0.4255
  684MOL0     C90196   6.550   9.944   7.949  0.1191 -0.0059 -0.1964
  684MOL0     C90197   6.405   9.977   7.962  0.0307  0.1575  0.0871
  684MOL0     C90198   6.368  10.112   7.896 -0.6832 -0.0012 -0.6571
  684MOL0     C90199   6.221  10.113   7.892  0.1227  0.2839 -0.3336
  684MOL0    Cl90200   6.147  10.011   7.763  0.0866  0.1796  0.0873
  684MOL0     C90201   7.224  10.272   7.897 -0.1540 -0.1194 -0.5016
  684MOL0     C90202   7.348  10.258   7.842 -0.6100 -0.0242  0.6067
  684MOL0     O90203   7.626   9.972   7.939  0.2596 -0.1858 -1.1547
  684MOL0     C90204   7.898  10.023   7.923 -0.3146 -0.8873  0.4630
  684MOL0     C90205   8.043  10.057   7.909  0.0050 -0.7244 -0.3011
  684MOL0     N90206   8.683  10.575   7.827  0.6374 -0.5512 -0.4168
  684MOL0     N90207   8.766  10.566   7.930  0.9294  0.8473 -0.0484
  684MOL0     C90208   9.773  10.453   7.968  0.0481  0.9244 -0.5734
  684MOL0     C90209   9.892  10.478   8.038 -0.2288 -1.0854 -0.2876
  684MOL0     C90210  10.353  10.444   8.060 -0.1416  0.0768 -0.1772
  684MOL0     C90211  10.368  10.521   8.176 -0.4807 -0.2096  0.0673
  684MOL0     C90212  10.488  10.541   8.236  0.3287  0.1403  0.3557
  684MOL0     C90213  10.603  10.495   8.172 -0.6400  0.0635 -0.4987
  684MOL0     O90214  10.731  10.518   8.209 -0.0814  0.1232 -0.6871
  684MOL0     C90215  10.800  10.420   8.287 -0.0857  0.5755  1.0819
  684MOL0     C90216  10.900  10.350   8.194 -0.4838  0.6627 -0.9334
  684MOL0     C90217  11.016  10.444   8.152  0.6437 -0.0337 -1.3557
  684MOL0     C90218  11.110  10.391   8.039  0.7723 -0.3888 -0.3590
  684MOL0     C90219  11.205  10.287   8.081 -0.3714  0.0925 -0.8621
  684MOL0     C90220  11.277  10.198   8.133 -0.3580  0.3122  0.6153
  684MOL0     C90221  10.588  10.410   8.068 -0.5589  0.3270 -0.8605
  684MOL0     C90222  10.470  10.382   8.009  0.0586 -0.4934 -0.0487
  684MOL0     H90223  10.069  10.591   7.768  1.7945 -3.1668 -0.0997
  684MOL0     H90224   9.864  10.579   7.670 -0.6598  1.5654  2.3728
  684MOL0     H90225   9.656  10.562   7.586 -1.4925  1.8842 -1.3171
  684MOL0     H90226   9.558  10.663   7.694 -4.0836 -1.3790 -2.1227
  684MOL0     H90227   9.506  10.388   7.572  0.6620  1.4003 -1.6533
  684MOL0     H90228   9.416  10.533   7.536 -0.8333  0.3631  0.3405
  684MOL0     H90229   9.403  10.396   7.814 -1.2761  2.3667  2.3639
  684MOL0     H90230   9.292  10.384   7.684 -0.2217  1.0073 -0.5134
  684MOL0     H90231   9.322  10.651   7.774 -0.8609 -0.7355 -1.8517
  684MOL0     H90232   9.186  10.565   7.708 -0.8821  0.0259  1.2104
  684MOL0     H90233   9.188  10.638   7.957  2.6133 -0.0061  1.9942
  684MOL0     H90234   9.293  10.514   7.988  0.2539  0.3823 -0.8555
  684MOL0     H90235   9.145  10.333   7.914 -0.3485 -0.6637 -0.7091
  684MOL0     H90236   9.044  10.442   7.828  0.3276  2.3040  0.5161
  684MOL0     H90237   9.070  10.408   8.141 -3.9961  0.7375  3.0196
  684MOL0     H90238   8.991  10.550   8.084 -0.5194 -0.3589  1.5547
  684MOL0     H90239   8.832  10.401   8.140 -1.6736  3.0878 -0.9143
  684MOL0     H90240   8.915  10.275   8.036 -2.7406 -1.0695 -1.2300
  684MOL0     H90241   8.768  10.266   7.781 -1.6245  0.7895 -0.5937
  684MOL0     H90242   8.638  10.339   7.579  1.2774 -0.1235  1.7816
  684MOL0     H90243   8.620  10.507   7.553 -2.0685  0.7016 -0.3014
  684MOL0     H90244   8.400  10.388   7.546 -0.8096 -0.5907 -0.5337
  684MOL0     H90245   8.387  10.502   7.677  2.6828  1.2753 -0.8127
  684MOL0     H90246   8.421  10.211   7.653 -0.2564  0.4798  0.5686
  684MOL0     H90247   8.462  10.276   7.814 -1.3516  0.2730  1.2043
  684MOL0     H90248   8.208  10.297   7.662 -1.4742 -2.5580  0.7669
  684MOL0     H90249   8.228  10.394   7.805 -0.9853  1.0324 -0.4581
  684MOL0     H90250   8.001  10.346   7.718  0.5051  0.7184  1.8667
  684MOL0     H90251   7.776  10.299   7.749 -2.0541 -2.7975 -0.7978
  684MOL0     H90252   7.481  10.078   8.115  0.8059  0.5485 -0.3867
  684MOL0     H90253   7.262  10.150   8.213  1.0367 -0.7646  0.5424
  684MOL0     H90254   6.959  10.212   7.911 -1.8982  2.5536 -0.7167
  684MOL0     H90255   6.926  10.374   7.991  1.4072  1.2656 -0.4360
  684MOL0     H90256   6.788  10.260   8.143  2.3186  1.0402 -0.2846
  684MOL0     H90257   6.883  10.107   8.122 -0.2260 -1.4974 -1.1596
  684MOL0     H90258   6.775  10.079   7.893 -0.9266  1.1890 -1.2707
  684MOL0     H90259   6.671  10.216   7.926 -0.8404  0.7206  0.2961
  684MOL0     H90260   6.678   9.971   8.120 -1.5500 -0.8669  0.6409
  684MOL0     H90261   6.556  10.091   8.111  0.6929 -2.1362  3.4774
  684MOL0     H90262   6.563   9.839   7.977  0.4669  0.5060  1.7179
  684MOL0     H90263   6.585   9.966   7.848  2.0720 -1.6734  0.0427
  684MOL0     H90264   6.374   9.976   8.067  0.7020  0.5597  0.2923
  684MOL0     H90265   6.348   9.903   7.905  1.3793  0.3853 -1.6279
  684MOL0     H90266   6.395  10.187   7.972 -2.2794  0.0670 -0.1262
  684MOL0     H90267   6.410  10.128   7.797 -2.6838  0.5158 -1.4647
  684MOL0     H90268   6.197  10.218   7.875 -0.0452  0.7217  2.2731
  684MOL0     H90269   6.184  10.082   7.990  0.2968  1.6155  0.1816
  684MOL0     H90270   7.148  10.331   7.846  0.1420  1.3285  0.6446
  684MOL0     H90271   7.377  10.295   7.744 -0.6577  1.3029  1.0828
  684MOL0     H90272   7.873   9.931   7.975 -0.4545 -1.3196 -0.3638
  684MOL0     H90273   8.119   9.993   7.952  2.7829  1.3786 -1.7292
  684MOL0     H90274   9.684  10.419   8.020  1.7200 -1.6543  0.8151
  684MOL0     H90275   9.899  10.469   8.146  1.8116 -0.6004 -0.3437
  684MOL0     H90276  10.282  10.559   8.230 -1.3729 -0.8295 -0.8861
  684MOL0     H90277  10.501  10.602   8.325  2.0031  1.1488 -0.5217
  684MOL0     H90278  10.725  10.355   8.332 -2.2882  2.0876 -0.1403
  684MOL0     H90279  10.849  10.477   8.367 -1.9909  0.2762  2.5318
  684MOL0     H90280  10.945  10.266   8.248 -1.5294 -0.0295 -1.0936
  684MOL0     H90281  10.846  10.321   8.103 -0.2464  1.5178 -1.3516
  684MOL0     H90282  11.071  10.475   8.240  0.6397  2.0978 -2.0560
  684MOL0     H90283  10.970  10.540   8.126 -0.9853  0.4270  2.5224
  684MOL0     H90284  11.047  10.350   7.959  2.5316 -1.7220 -1.1275
  684MOL0     H90285  11.176  10.469   8.000  3.0709 -1.1894  1.6300
  684MOL0     H90286  11.333  10.115   8.171 -0.6907  1.4549  3.8522
  684MOL0     H90287  10.678  10.367   8.026 -0.8286 -1.9406  0.7493
  684MOL0     H90288  10.465  10.321   7.919 -2.0109  2.1972 -1.9492
  685MOL0     O90289  10.223   2.413   2.206  0.6858  0.1072 -0.7099
  685MOL0     C90290  10.262   2.362   2.312 -0.2551  0.5934  0.2518
  685MOL0     O90291  10.182   2.301   2.403  0.4281 -0.5097  0.0901
  685MOL0     C90292  10.058   2.269   2.364 -0.3611  0.4413  0.3194
  685MOL0     C90293  10.036   2.156   2.303 -0.5057  0.7483 -0.1916
  685MOL0     C90294   9.913   2.115   2.246 -0.1046  0.3876 -0.7569
  685MOL0     C90295   9.809   2.204   2.251  0.1878  0.4965  0.2145
  685MOL0     O90296   9.683   2.161   2.207 -0.6058  0.3443  0.0436
  685MOL0     C90297   9.681   2.120   2.076  0.6727  0.5804  0.8593
  685MOL0     C90298   9.543   2.151   2.004 -0.1582  0.1858 -0.1502
  685MOL0     C90299   9.529   2.075   1.877 -0.4531  0.3948  0.5072
  685MOL0     C90300   9.646   2.114   1.781 -0.1140  0.6810 -0.5894
  685MOL0     C90301   9.617   2.061   1.636  0.1492 -0.3226 -0.3082
  685MOL0     C90302   9.501   2.132   1.556  0.1698 -0.5021 -0.4642
  685MOL0     C90303   9.552   2.285   1.549 -0.3729  0.6167  0.6720
  685MOL0     C90304   9.452   2.361   1.460  0.5666  0.2615  0.2704
  685MOL0     N90305   9.311   2.350   1.510  0.5402 -0.4876 -0.2608
  685MOL0     C90306   9.201   2.322   1.432  0.1058  0.2155 -0.0031
  685MOL0     C90307   9.103   2.288   1.528 -0.2716 -0.5121 -0.3005
  685MOL0     C90308   8.973   2.226   1.516  1.1512  0.6844  0.7454
  685MOL0     C90309   8.903   2.295   1.404  0.1733  1.0877 -0.4936
  685MOL0     C90310   8.751   2.275   1.422 -0.3196 -0.0278  0.2349
  685MOL0     C90311   8.701   2.131   1.440 -0.6411 -0.7090 -0.4358
  685MOL0     O90312   8.669   2.061   1.318  1.1582  0.6927 -0.5330
  685MOL0     C90313   8.562   2.087   1.247  0.3597 -0.6582  0.1982
  685MOL0     C90314   8.539   2.009   1.127 -0.0450 -0.0620 -0.9233
  685MOL0     C90315   8.441   2.026   1.037  0.3211  0.1126  0.2678
  685MOL0     C90316   8.347   2.121   1.064  0.8995  0.5457 -0.4765
  685MOL0     C90317   8.230   2.136   0.974  0.9270  0.6138  0.1333
  685MOL0     O90318   8.208   2.037   0.880  0.5397  1.0452  0.2875
  685MOL0     C90319   8.081   2.026   0.823 -0.8133 -0.0472  0.0226
  685MOL0     C90320   8.075   2.046   0.686  0.8225 -0.8129 -0.2824
  685MOL0     C90321   7.954   2.029   0.615  0.1849 -0.1101 -0.1761
  685MOL0     C90322   7.835   1.987   0.680  0.0797 -0.4344  0.2517
  685MOL0     O90323   7.723   1.962   0.608  0.1214  0.4258  0.6926
  685MOL0     C90324   7.684   2.044   0.502  0.0683 -0.4445 -0.7895
  685MOL0     C90325   7.593   2.171   0.551 -0.0077  0.7253  0.2833
  685MOL0     C90326   7.552   2.254   0.437 -0.0538 -0.0018 -0.0363
  685MOL0     C90327   7.463   2.364   0.485 -0.2163 -0.7954 -0.4836
  685MOL0     C90328   7.444   2.472   0.377 -0.6434 -0.0201 -0.3046
  685MOL0     C90329   7.342   2.578   0.403  0.2244  0.2781  0.4125
  685MOL0     C90330   7.195   2.529   0.376 -0.1680 -0.5098  0.2897
  685MOL0     C90331   7.084   2.638   0.423  0.7469 -0.2428 -0.2055
  685MOL0    Cl90332   7.117   2.796   0.393 -0.2328 -0.5397  0.1186
  685MOL0     C90333   7.844   1.962   0.818 -1.2277 -0.2036  0.1524
  685MOL0     C90334   7.969   1.989   0.892 -0.0308  0.5220  0.1406
  685MOL0     O90335   8.159   2.235   0.982 -0.8473 -0.0463  0.3932
  685MOL0     C90336   8.357   2.194   1.187  0.2853  0.0571 -0.5533
  685MOL0     C90337   8.465   2.184   1.276 -0.2032 -0.2492  0.2708
  685MOL0     N90338   9.154   2.314   1.659  0.6461 -0.1411 -0.3700
  685MOL0     N90339   9.278   2.354   1.644  0.1398 -0.1651 -0.5889
  685MOL0     C90340   9.825   2.335   2.305  0.5475  0.0918  0.6875
  685MOL0     C90341   9.949   2.366   2.363  0.6512 -0.0502  0.0316
  685MOL0     C90342  10.403   2.358   2.351 -0.1964  0.6087  0.3042
  685MOL0     C90343  10.507   2.385   2.256  0.7447 -0.9315  0.2104
  685MOL0     C90344  10.643   2.381   2.294  1.2016 -0.7037  0.4392
  685MOL0     C90345  10.670   2.365   2.431 -0.1010 -0.3898 -0.2004
  685MOL0     O90346  10.795   2.347   2.485  0.0142 -0.1175  0.3489
  685MOL0     C90347  10.869   2.242   2.437  0.7951  0.1623 -0.4161
  685MOL0     C90348  10.985   2.209   2.532 -1.1310  0.0606  0.8511
  685MOL0     C90349  11.093   2.310   2.512  0.8557 -0.0321  0.5367
  685MOL0     C90350  11.175   2.263   2.393  0.1921  0.6302  0.6888
  685MOL0     C90351  11.302   2.336   2.408  0.2476 -0.1815  0.3999
  685MOL0     C90352  11.399   2.401   2.426  0.7213 -1.1014  0.1477
  685MOL0     C90353  10.570   2.362   2.535  0.3939  0.4647 -0.4626
  685MOL0     C90354  10.439   2.353   2.488  1.4802 -0.3827 -0.1260
  685MOL0     H90355  10.123   2.092   2.304 -0.2371  1.0057 -2.5885
  685MOL0     H90356   9.903   2.027   2.184  3.7145 -0.0186 -1.0327
  685MOL0     H90357   9.685   2.010   2.072 -2.8203  0.3398  0.4624
  685MOL0     H90358   9.764   2.160   2.017 -0.6346  2.6506  0.3211
  685MOL0     H90359   9.533   2.258   1.982  0.4303  0.3335  0.2854
  685MOL0     H90360   9.459   2.126   2.071 -0.6006 -0.3668 -0.8952
  685MOL0     H90361   9.436   2.105   1.829 -0.4538 -0.4579 -0.0386
  685MOL0     H90362   9.522   1.967   1.890  0.9187  0.2488  0.2438
  685MOL0     H90363   9.663   2.222   1.782  3.0836  0.2679  0.2630
  685MOL0     H90364   9.733   2.059   1.818  0.3338  1.5284 -0.3807
  685MOL0     H90365   9.578   1.960   1.646 -0.9050  0.1565  0.6086
  685MOL0     H90366   9.708   2.046   1.577  0.5532  2.5030 -0.5403
  685MOL0     H90367   9.412   2.118   1.618  1.8948 -0.0005  2.3414
  685MOL0     H90368   9.477   2.097   1.456  0.2720 -0.1499 -0.6131
  685MOL0     H90369   9.560   2.331   1.648  3.9400  2.6288 -0.3683
  685MOL0     H90370   9.654   2.298   1.511  0.7112  0.5822  3.3694
  685MOL0     H90371   9.455   2.322   1.358  0.2787  1.1257 -0.0761
  685MOL0     H90372   9.474   2.467   1.452  0.4087  0.4375  1.7837
  685MOL0     H90373   9.192   2.304   1.325  0.4296 -1.4407  0.2241
  685MOL0     H90374   8.914   2.241   1.607 -0.4468  0.0079 -0.1420
  685MOL0     H90375   8.993   2.118   1.510  2.4566  0.6748  3.6127
  685MOL0     H90376   8.933   2.250   1.309 -0.7756  1.3205 -0.9131
  685MOL0     H90377   8.926   2.402   1.408  4.2864  0.3556  0.2336
  685MOL0     H90378   8.713   2.342   1.499  0.5799  2.9594 -1.7418
  685MOL0     H90379   8.720   2.315   1.325  2.3281 -0.2999 -0.8076
  685MOL0     H90380   8.614   2.138   1.506  0.8788  1.6260  1.4904
  685MOL0     H90381   8.766   2.076   1.508  3.2109  1.6235 -1.9291
  685MOL0     H90382   8.615   1.938   1.097 -1.8968 -2.6372  0.0471
  685MOL0     H90383   8.440   1.968   0.946 -2.2933 -0.5157  0.6115
  685MOL0     H90384   8.162   2.078   0.629  0.2577  2.2592  0.3821
  685MOL0     H90385   7.965   2.031   0.507  0.0085 -0.8074 -0.2111
  685MOL0     H90386   7.617   2.002   0.427  0.9356 -0.7705 -1.4064
  685MOL0     H90387   7.772   2.070   0.442  0.4439 -0.1866 -0.1341
  685MOL0     H90388   7.647   2.229   0.627 -1.8400  2.0078  0.6763
  685MOL0     H90389   7.506   2.137   0.606 -0.3018 -1.6389 -1.5085
  685MOL0     H90390   7.499   2.200   0.358 -0.9556  0.7323  0.0486
  685MOL0     H90391   7.645   2.297   0.400 -0.2643 -2.2671 -3.7041
  685MOL0     H90392   7.365   2.327   0.519  0.6278 -2.7010  0.0225
  685MOL0     H90393   7.508   2.414   0.571 -0.1239  0.7534 -1.3945
  685MOL0     H90394   7.412   2.418   0.288 -0.6020 -2.1142  0.8837
  685MOL0     H90395   7.541   2.517   0.353 -0.0816 -1.2920 -0.4739
  685MOL0     H90396   7.361   2.665   0.339 -1.8869  0.0027 -0.6963
  685MOL0     H90397   7.349   2.599   0.510 -0.6577 -0.0594  0.5432
  685MOL0     H90398   7.187   2.527   0.267 -0.9993  0.0595  0.3262
  685MOL0     H90399   7.186   2.432   0.426  1.0541 -1.0071 -0.4207
  685MOL0     H90400   7.080   2.622   0.531  1.2598 -0.6567 -0.2461
  685MOL0     H90401   6.985   2.606   0.390  1.1269 -3.2466  1.2590
  685MOL0     H90402   7.756   1.938   0.877 -1.0170  2.5820  1.8018
  685MOL0     H90403   7.957   1.966   0.998  1.0463  1.0701  0.3944
  685MOL0     H90404   8.285   2.273   1.203 -0.3914 -0.0942 -2.5779
  685MOL0     H90405   8.473   2.254   1.358  4.0235 -0.3028  0.0983
  685MOL0     H90406   9.736   2.396   2.306  1.1666  1.1464 -1.7509
  685MOL0     H90407   9.950   2.468   2.399  0.2342  0.8011 -2.1713
  685MOL0     H90408  10.471   2.399   2.155 -2.3734 -1.9851  1.0415
  685MOL0     H90409  10.716   2.383   2.214  1.6164 -2.7087  0.7160
  685MOL0     H90410  10.890   2.253   2.331  0.9770 -0.9329 -0.5038
  685MOL0     H90411  10.808   2.151   2.446  0.7681  0.1570 -0.6460
  685MOL0     H90412  10.942   2.210   2.633  0.3379  1.1405  1.4982
  685MOL0     H90413  11.025   2.110   2.508  0.6688  1.4766 -2.7896
  685MOL0     H90414  11.154   2.320   2.602  1.3373  1.3400  0.0946
  685MOL0     H90415  11.047   2.408   2.494  4.1333  1.2913 -1.6151
  685MOL0     H90416  11.194   2.156   2.403 -1.8030  0.0478 -0.9960
  685MOL0     H90417  11.133   2.277   2.292 -1.3189 -0.7770  1.0768
  685MOL0     H90418  11.488   2.459   2.433 -1.4310  2.2951  1.3878
  685MOL0     H90419  10.601   2.341   2.636  0.6871  0.5797 -0.5274
  685MOL0     H90420  10.366   2.334   2.566 -1.2840  2.2552 -1.8323
  686MOL0     O90421   4.269   9.266   5.509 -0.3235  0.0756 -0.6102
  686MOL0     C90422   4.238   9.157   5.553 -0.6966  1.4731  0.3450
  686MOL0     O90423   4.110   9.114   5.585 -0.5102  0.2922 -0.6776
  686MOL0     C90424   3.996   9.183   5.584 -0.4862  0.7759 -0.2216
  686MOL0     C90425   3.883   9.100   5.578 -0.3279 -0.1997 -0.0652
  686MOL0     C90426   3.758   9.160   5.567 -0.5016 -0.2962 -0.6056
  686MOL0     C90427   3.751   9.299   5.551  0.6556 -0.3238 -0.3927
  686MOL0     O90428   3.622   9.357   5.531 -0.0925 -0.5725 -0.6750
  686MOL0     C90429   3.551   9.350   5.662  0.8146 -0.6858  0.3516
  686MOL0     C90430   3.400   9.379   5.647 -0.0650 -0.9015 -0.4903
  686MOL0     C90431   3.317   9.271   5.601  0.3062  0.3840  0.0730
  686MOL0     C90432   3.254   9.173   5.710 -0.6821 -0.4381  1.1775
  686MOL0     C90433   3.135   9.101   5.654  0.0158 -0.7638 -0.3716
  686MOL0     C90434   3.077   9.010   5.757 -0.0512  0.0944 -0.9530
  686MOL0     C90435   2.941   8.946   5.724  0.3055 -0.1443 -0.0981
  686MOL0     C90436   2.904   8.836   5.829  0.2661  0.3653  0.4267
  686MOL0     N90437   2.787   8.752   5.798  0.9386  0.5648 -0.4131
  686MOL0     C90438   2.803   8.638   5.726 -0.1090 -0.0976  1.0552
  686MOL0     C90439   2.678   8.584   5.725  0.7751  0.0873  0.2455
  686MOL0     C90440   2.652   8.446   5.671 -0.1318 -0.0186  0.9319
  686MOL0     C90441   2.505   8.413   5.674  0.6146  0.0231  0.5855
  686MOL0     C90442   2.478   8.283   5.603 -1.0896 -0.6700  0.6711
  686MOL0     C90443   2.517   8.275   5.456  0.5235 -0.2526 -0.0355
  686MOL0     O90444   2.468   8.381   5.380  0.1760 -0.0218 -0.3062
  686MOL0     C90445   2.329   8.390   5.359  0.6769  0.1316 -0.1774
  686MOL0     C90446   2.227   8.307   5.395 -0.1286 -1.2062 -0.3763
  686MOL0     C90447   2.097   8.318   5.345 -0.0416 -0.3393  1.0784
  686MOL0     C90448   2.058   8.430   5.270 -0.2946 -0.3560 -0.2532
  686MOL0     C90449   1.918   8.463   5.242  0.6742  0.5781 -0.2663
  686MOL0     O90450   1.821   8.380   5.293 -0.1313  0.3811 -0.1548
  686MOL0     C90451   1.687   8.413   5.276  0.5922  0.3457  0.7296
  686MOL0     C90452   1.600   8.410   5.393  0.2040  0.7303 -0.3478
  686MOL0     C90453   1.456   8.425   5.387 -0.3894  0.8712 -0.5221
  686MOL0     C90454   1.401   8.444   5.256 -0.9397  1.1043  0.1240
  686MOL0     O90455   1.268   8.451   5.230 -0.0556 -0.8596 -0.6828
  686MOL0     C90456   1.170   8.479   5.326 -0.0114  0.0925 -0.6922
  686MOL0     C90457   1.141   8.631   5.319 -0.5002 -0.0077  0.0241
  686MOL0     C90458   0.993   8.651   5.331 -1.0331  1.1029 -0.0454
  686MOL0     C90459   0.964   8.797   5.313 -0.1196  0.3246  0.3873
  686MOL0     C90460   0.818   8.824   5.315 -0.0099 -0.7228 -0.5764
  686MOL0     C90461   0.737   8.765   5.435 -0.7729 -0.2580  0.8248
  686MOL0     C90462   0.590   8.798   5.403 -0.0666 -0.3729 -0.3252
  686MOL0     C90463   0.492   8.735   5.506 -0.2967  0.6897 -0.9574
  686MOL0    Cl90464   0.472   8.836   5.648 -0.0225  0.0089 -0.4354
  686MOL0     C90465   1.492   8.456   5.144  0.5595 -0.0259  0.8143
  686MOL0     C90466   1.636   8.458   5.149 -0.8621 -0.1684 -0.4156
  686MOL0     O90467   1.895   8.566   5.181 -0.5072 -0.0049  0.4778
  686MOL0     C90468   2.160   8.520   5.232  0.2179  0.4651  0.3919
  686MOL0     C90469   2.288   8.497   5.276  0.9198 -0.6037 -0.4425
  686MOL0     N90470   2.598   8.659   5.812  0.7586 -0.2307 -0.6500
  686MOL0     N90471   2.658   8.775   5.830 -0.4008  0.3073  0.0581
  686MOL0     C90472   3.866   9.381   5.549  0.0358  0.2526  0.0990
  686MOL0     C90473   3.988   9.319   5.571  0.4380 -0.4171 -1.1400
  686MOL0     C90474   4.351   9.057   5.550  0.2219 -0.3180 -0.2446
  686MOL0     C90475   4.475   9.095   5.497 -0.3696  0.6852 -0.0612
  686MOL0     C90476   4.587   9.009   5.506  0.9232  0.0756 -0.1784
  686MOL0     C90477   4.571   8.885   5.574 -0.0693 -0.3164 -0.3207
  686MOL0     O90478   4.688   8.805   5.585  0.1575 -0.0521  0.4881
  686MOL0     C90479   4.720   8.748   5.712 -0.5614 -0.3661 -0.2938
  686MOL0     C90480   4.873   8.770   5.736 -0.8167 -0.3683 -0.0011
  686MOL0     C90481   4.925   8.919   5.738 -0.2368  0.4535 -0.2342
  686MOL0     C90482   4.887   8.991   5.872 -0.2125  0.3793  0.6474
  686MOL0     C90483   4.984   8.963   5.981 -0.7267  0.1841 -0.2578
  686MOL0     C90484   5.053   8.940   6.078 -0.3191  0.7358 -0.3802
  686MOL0     C90485   4.446   8.843   5.626 -0.2724  0.7349  0.6641
  686MOL0     C90486   4.339   8.933   5.616 -0.1572  0.6110  0.5857
  686MOL0     H90487   3.901   8.993   5.576  0.5308 -0.0975  0.9251
  686MOL0     H90488   3.673   9.094   5.555 -0.2440 -1.7035  3.6096
  686MOL0     H90489   3.584   9.425   5.734 -0.2937  1.7981 -1.5692
  686MOL0     H90490   3.551   9.251   5.708  3.1155 -2.2531 -2.6676
  686MOL0     H90491   3.403   9.455   5.569  1.5658 -0.9475 -0.5100
  686MOL0     H90492   3.354   9.424   5.736  0.8796 -0.7981 -0.0390
  686MOL0     H90493   3.369   9.212   5.525 -2.8460 -3.6354  0.6810
  686MOL0     H90494   3.233   9.319   5.549 -2.2151 -0.7138  2.8207
  686MOL0     H90495   3.330   9.100   5.740  0.3851  0.0080 -0.3161
  686MOL0     H90496   3.230   9.230   5.800 -0.4238  1.9213 -0.1541
  686MOL0     H90497   3.168   9.050   5.563  1.9016 -2.0030  0.9514
  686MOL0     H90498   3.063   9.180   5.628 -0.3882 -0.1018  2.4710
  686MOL0     H90499   3.075   9.070   5.849  4.0303  0.3451 -0.8516
  686MOL0     H90500   3.149   8.928   5.772 -0.0864  0.1405 -0.5118
  686MOL0     H90501   2.873   9.032   5.727 -0.5704 -0.8172 -0.2504
  686MOL0     H90502   2.943   8.904   5.623 -1.9003 -0.5501 -0.0253
  686MOL0     H90503   2.892   8.885   5.926  2.7734  1.8582  0.0559
  686MOL0     H90504   2.992   8.772   5.842  0.0694  0.3087  1.6383
  686MOL0     H90505   2.881   8.590   5.668 -0.5054 -0.0321  0.4608
  686MOL0     H90506   2.715   8.375   5.727 -0.0596 -1.2513 -0.6428
  686MOL0     H90507   2.687   8.425   5.570 -2.5847 -2.1978  0.4362
  686MOL0     H90508   2.443   8.489   5.625  0.2810 -0.4502  0.2654
  686MOL0     H90509   2.475   8.403   5.779 -1.7163 -4.3830 -0.2572
  686MOL0     H90510   2.528   8.199   5.652 -1.3376 -0.7693  0.7558
  686MOL0     H90511   2.376   8.255   5.630 -1.0760 -1.3989 -0.0267
  686MOL0     H90512   2.478   8.183   5.411 -0.8190  0.0420  0.4598
  686MOL0     H90513   2.626   8.282   5.446  0.2838  1.1519 -2.3834
  686MOL0     H90514   2.238   8.228   5.469 -0.9682 -2.7293 -1.8212
  686MOL0     H90515   2.018   8.253   5.381 -0.3897  0.2435  1.3663
  686MOL0     H90516   1.660   8.379   5.478  2.6674 -0.7390 -2.4710
  686MOL0     H90517   1.402   8.423   5.481  1.6567 -0.8239  0.6998
  686MOL0     H90518   1.208   8.454   5.425 -1.1170  0.1192 -0.2466
  686MOL0     H90519   1.087   8.411   5.306  0.8424 -1.5142  0.9916
  686MOL0     H90520   1.160   8.669   5.218 -2.4417  1.0716  0.0090
  686MOL0     H90521   1.198   8.681   5.398  0.0976 -2.0704  0.9745
  686MOL0     H90522   0.961   8.616   5.430 -0.2091 -0.3950 -0.2692
  686MOL0     H90523   0.938   8.585   5.263  1.0878 -3.5900  2.2788
  686MOL0     H90524   1.009   8.842   5.402 -4.1821  1.4281  2.1432
  686MOL0     H90525   1.003   8.840   5.221  0.1418  0.6946  0.6695
  686MOL0     H90526   0.776   8.794   5.219  0.2113 -0.9269 -0.6094
  686MOL0     H90527   0.799   8.931   5.312 -1.2983 -0.8919  0.4903
  686MOL0     H90528   0.758   8.798   5.537  0.6276  1.7661 -0.0558
  686MOL0     H90529   0.742   8.656   5.444 -1.7213 -0.4085 -0.2624
  686MOL0     H90530   0.572   8.905   5.408  4.0865  0.4150  1.3379
  686MOL0     H90531   0.565   8.751   5.307 -0.8014 -2.3603  0.7539
  686MOL0     H90532   0.535   8.640   5.540  0.1801  1.8556  1.9682
  686MOL0     H90533   0.391   8.719   5.467 -0.0257  1.9262 -2.2321
  686MOL0     H90534   1.449   8.489   5.050  1.8748  2.4476  0.9925
  686MOL0     H90535   1.693   8.454   5.057  4.3277 -2.9072  2.4413
  686MOL0     H90536   2.143   8.613   5.179 -0.9889 -1.0968 -2.1762
  686MOL0     H90537   2.372   8.546   5.227  3.0167 -5.1138 -1.9286
  686MOL0     H90538   3.845   9.486   5.534 -2.9991 -0.2115  0.5250
  686MOL0     H90539   4.080   9.376   5.576 -0.1223  0.4058  0.6660
  686MOL0     H90540   4.480   9.195   5.455 -1.7913  0.7953 -0.0350
  686MOL0     H90541   4.685   9.045   5.475  0.8673 -1.7532 -2.9012
  686MOL0     H90542   4.696   8.643   5.729  2.6836 -0.8748  2.1835
  686MOL0     H90543   4.666   8.805   5.788  1.8831  0.3934  0.9966
  686MOL0     H90544   4.912   8.717   5.824 -1.3328  0.6437  0.8626
  686MOL0     H90545   4.921   8.723   5.650  0.0993 -0.5541  0.5983
  686MOL0     H90546   4.891   8.979   5.653 -1.4850 -0.5867 -0.5049
  686MOL0     H90547   5.033   8.933   5.727 -0.7328  4.2909 -1.4487
  686MOL0     H90548   4.896   9.100   5.866  2.1637  0.2524  0.7325
  686MOL0     H90549   4.784   8.971   5.904 -1.1266  0.3449 -2.1230
  686MOL0     H90550   5.119   8.911   6.158  1.9044 -1.3472 -2.8037
  686MOL0     H90551   4.432   8.746   5.672  1.0456  0.0706 -0.2603
  686MOL0     H90552   4.251   8.903   5.672 -0.0365  2.4213  1.8363
  687MOL0     O90553   4.306   9.692  10.949 -0.4772  0.4373  0.7608
  687MOL0     C90554   4.233   9.586  10.948  0.6576 -0.8358 -0.6004
  687MOL0     O90555   4.157   9.547  11.055  0.4620  0.3786  0.4629
  687MOL0     C90556   4.083   9.631  11.135  1.2445 -0.0853 -0.5391
  687MOL0     C90557   4.038   9.585  11.259 -0.1758 -0.3092  0.2861
  687MOL0     C90558   3.968   9.666  11.344  0.3114 -0.0408  0.3043
  687MOL0     C90559   3.930   9.793  11.320 -0.2571  0.7658  0.7973
  687MOL0     O90560   3.867   9.871  11.421  0.3619  0.0755  0.6970
  687MOL0     C90561   3.831  10.001  11.378  0.4882 -0.6848  0.7956
  687MOL0     C90562   3.783  10.089  11.491 -0.5553 -0.0691  0.8052
  687MOL0     C90563   3.682  10.034  11.592 -0.1705  0.0091  0.2064
  687MOL0     C90564   3.614  10.152  11.671 -0.6526  0.7553 -0.1193
  687MOL0     C90565   3.479  10.100  11.713  0.0942  1.0930  0.7654
  687MOL0     C90566   3.383  10.224  11.739 -0.6935  0.7970 -0.1093
  687MOL0     C90567   3.257  10.181  11.810 -0.6466 -0.2705 -0.0848
  687MOL0     C90568   3.185  10.307  11.848 -0.4430  0.3008 -0.5128
  687MOL0     N90569   3.063  10.269  11.910  0.1830  0.0967  0.3490
  687MOL0     C90570   2.940  10.264  11.850  0.1736  0.0167  1.0878
  687MOL0     C90571   2.847  10.224  11.937 -0.4678  0.8387 -0.0893
  687MOL0     C90572   2.706  10.178  11.913 -0.9052 -0.8341  0.5969
  687MOL0     C90573   2.603  10.284  11.902 -0.5678 -0.0479  0.2974
  687MOL0     C90574   2.511  10.269  11.773  0.5961 -0.5450 -0.3843
  687MOL0     C90575   2.411  10.390  11.778 -0.3957  0.0144  0.3930
  687MOL0     O90576   2.330  10.393  11.660 -0.1711  0.9595  0.2431
  687MOL0     C90577   2.207  10.334  11.649  0.9646  0.0517 -0.7012
  687MOL0     C90578   2.125  10.369  11.548 -0.1996  0.1685 -0.3144
  687MOL0     C90579   1.990  10.339  11.539  0.1429  0.3710  0.5815
  687MOL0     C90580   1.920  10.281  11.653  0.0393 -0.2788 -0.2508
  687MOL0     C90581   1.771  10.265  11.663  0.1657 -0.4980  1.4685
  687MOL0     O90582   1.689  10.351  11.599 -0.5084 -0.3928  0.0923
  687MOL0     C90583   1.552  10.328  11.595 -0.0857  0.5584  0.1368
  687MOL0     C90584   1.474  10.446  11.595 -0.2369  0.5755  0.0285
  687MOL0     C90585   1.337  10.445  11.609  0.7596 -0.6185  0.3564
  687MOL0     C90586   1.258  10.326  11.606  0.2023 -0.2671 -0.4315
  687MOL0     O90587   1.122  10.329  11.607 -0.5669  0.0832 -0.4307
  687MOL0     C90588   1.058  10.212  11.611 -0.0760 -0.1450  0.0778
  687MOL0     C90589   0.909  10.229  11.593 -0.2733  0.2896  0.0089
  687MOL0     C90590   0.829  10.096  11.630 -0.2890  0.0729  0.1815
  687MOL0     C90591   0.679  10.138  11.619  0.2949  0.1299 -0.1677
  687MOL0     C90592   0.591  10.041  11.700 -0.1064 -0.9070  0.7433
  687MOL0     C90593   0.443  10.046  11.650 -0.0506  0.0381  0.4923
  687MOL0     C90594   0.357   9.960  11.734  0.9242 -0.3343 -0.4273
  687MOL0     C90595   0.210   9.978  11.687 -0.3095  0.5425  0.6615
  687MOL0    Cl90596   0.179   9.866  11.550 -0.7347 -0.0444  0.1191
  687MOL0     C90597   1.333  10.206  11.594  0.0651 -0.2692  0.7115
  687MOL0     C90598   1.477  10.207  11.586 -0.1291 -0.2371 -0.9416
  687MOL0     O90599   1.735  10.181  11.743  0.6760  0.3797  0.1603
  687MOL0     C90600   2.003  10.231  11.759 -0.3227  0.1530  1.8059
  687MOL0     C90601   2.142  10.266  11.755 -0.2512  0.6218  0.2116
  687MOL0     N90602   2.916  10.219  12.058  0.9048 -0.0601 -0.5155
  687MOL0     N90603   3.040  10.241  12.043  0.0823 -0.2494  0.1318
  687MOL0     C90604   3.976   9.844  11.196 -0.4023 -1.0438  0.0065
  687MOL0     C90605   4.052   9.765  11.102 -0.4980 -0.3601 -0.6212
  687MOL0     C90606   4.245   9.477  10.847 -0.6640 -0.0068  0.5713
  687MOL0     C90607   4.135   9.396  10.816  0.3870 -0.5632  0.6843
  687MOL0     C90608   4.141   9.306  10.700  0.1257  0.6998 -0.2291
  687MOL0     C90609   4.255   9.302  10.620  0.1212  0.1012  0.8680
  687MOL0     O90610   4.272   9.223  10.505 -0.0218 -0.5400  0.5549
  687MOL0     C90611   4.169   9.131  10.460 -0.4504 -0.1545 -0.3591
  687MOL0     C90612   4.123   9.167  10.322 -1.2760  0.1838 -0.1080
  687MOL0     C90613   4.230   9.195  10.211  0.3924 -0.0702 -0.2592
  687MOL0     C90614   4.335   9.089  10.177 -0.0563 -1.0618  0.1984
  687MOL0     C90615   4.260   8.966  10.171  0.1038 -0.7399 -0.2951
  687MOL0     C90616   4.207   8.858  10.165  1.0343  0.2565 -0.4910
  687MOL0     C90617   4.365   9.382  10.657  1.4106  0.7217  0.2408
  687MOL0     C90618   4.351   9.476  10.761 -0.1949  0.6298  0.4483
  687MOL0     H90619   4.060   9.482  11.282  1.4664 -0.5377 -2.0167
  687MOL0     H90620   3.942   9.619  11.438 -0.8021  1.6112  0.8889
  687MOL0     H90621   3.757   9.975  11.302  1.1392 -1.3204  0.3638
  687MOL0     H90622   3.907  10.067  11.335 -1.2683  1.1996  0.4477
  687MOL0     H90623   3.750  10.186  11.453  1.9885  0.6228  0.1567
  687MOL0     H90624   3.868  10.121  11.553  0.7857  0.0910 -1.0181
  687MOL0     H90625   3.733   9.961  11.655  1.1686  0.5486 -0.2175
  687MOL0     H90626   3.600   9.986  11.537 -0.1227  0.5525 -0.3519
  687MOL0     H90627   3.675  10.188  11.754 -0.3051 -1.3349  0.5845
  687MOL0     H90628   3.603  10.245  11.614  0.5988  0.2311 -1.2616
  687MOL0     H90629   3.490  10.035  11.801  2.6155 -2.9106 -2.1982
  687MOL0     H90630   3.433  10.047  11.630  1.2411  1.2082  0.0300
  687MOL0     H90631   3.369  10.279  11.646 -0.0632 -2.4010 -2.2730
  687MOL0     H90632   3.443  10.283  11.808  0.9420 -0.9911  0.0904
  687MOL0     H90633   3.197  10.114  11.747 -2.1927 -3.0070  3.8932
  687MOL0     H90634   3.290  10.122  11.896 -1.8477  1.2369  1.4714
  687MOL0     H90635   3.159  10.358  11.755  0.3640 -1.0922 -1.5430
  687MOL0     H90636   3.222  10.386  11.915 -1.2203 -0.9650  1.5248
  687MOL0     H90637   2.919  10.282  11.745  1.5642  4.3041  1.3190
  687MOL0     H90638   2.686  10.112  11.998 -0.2274 -3.0169 -0.8315
  687MOL0     H90639   2.712  10.117  11.822  3.2891 -0.8037  0.6458
  687MOL0     H90640   2.652  10.381  11.910 -1.1165  0.8331 -4.2519
  687MOL0     H90641   2.540  10.270  11.990 -0.6159  0.7975  0.4007
  687MOL0     H90642   2.557  10.263  11.674  3.4704  0.7292  0.7677
  687MOL0     H90643   2.449  10.180  11.792  2.6132 -2.0446 -0.5401
  687MOL0     H90644   2.483  10.472  11.774  1.7350 -1.6519  2.0068
  687MOL0     H90645   2.354  10.394  11.871 -0.2839 -0.9049  0.5140
  687MOL0     H90646   2.173  10.423  11.467  4.0195 -0.3748  1.5268
  687MOL0     H90647   1.938  10.373  11.450  1.4089 -1.3006 -0.8728
  687MOL0     H90648   1.532  10.536  11.612  0.4363  0.3654 -1.0861
  687MOL0     H90649   1.290  10.540  11.629 -1.8947 -1.3434 -1.6964
  687MOL0     H90650   1.083  10.165  11.706 -2.4112 -0.3844  0.6555
  687MOL0     H90651   1.090  10.135  11.540  2.6778 -1.7153  2.7788
  687MOL0     H90652   0.878  10.265  11.494  3.2815  0.8429 -1.0808
  687MOL0     H90653   0.875  10.303  11.666 -2.1123 -2.0553  1.6728
  687MOL0     H90654   0.863  10.071  11.731  1.8574  0.4274 -0.4020
  687MOL0     H90655   0.869  10.015  11.568 -0.2261 -1.7415  2.4623
  687MOL0     H90656   0.660  10.241  11.650 -0.4785 -0.6894  2.3060
  687MOL0     H90657   0.650  10.139  11.514  2.6063 -1.1801 -0.9077
  687MOL0     H90658   0.593  10.072  11.805 -1.7766 -0.6934  0.7431
  687MOL0     H90659   0.624   9.939  11.675 -0.3128 -0.3837 -1.9825
  687MOL0     H90660   0.431  10.015  11.546  4.4612  0.9838 -0.5662
  687MOL0     H90661   0.410  10.149  11.664 -0.1638 -0.3197  3.3391
  687MOL0     H90662   0.379   9.853  11.726 -0.7124 -0.5928 -2.4954
  687MOL0     H90663   0.369   9.993  11.837  2.1408  0.3312 -0.7583
  687MOL0     H90664   0.190  10.083  11.665  0.3167  0.1397 -2.1485
  687MOL0     H90665   0.130   9.948  11.756 -1.8094 -0.8149 -1.5246
  687MOL0     H90666   1.293  10.106  11.584  2.7562 -1.3298 -0.6669
  687MOL0     H90667   1.532  10.115  11.569  1.0290  0.4844 -1.2289
  687MOL0     H90668   1.971  10.184  11.851 -0.5160 -2.1542  0.6529
  687MOL0     H90669   2.195  10.231  11.843 -1.2778  1.5583  1.2494
  687MOL0     H90670   3.945   9.940  11.156  0.4434  0.8891  3.6016
  687MOL0     H90671   4.073   9.807  11.004 -1.1591 -2.5462 -1.7706
  687MOL0     H90672   4.047   9.400  10.880  0.8656  0.8323  1.3087
  687MOL0     H90673   4.053   9.246  10.676 -0.0595  0.9514 -0.1865
  687MOL0     H90674   4.084   9.127  10.529  1.5201 -0.2172  2.2116
  687MOL0     H90675   4.217   9.033  10.467 -1.8577 -0.7775  4.6764
  687MOL0     H90676   4.047   9.093  10.297 -2.9316  1.1286  1.7730
  687MOL0     H90677   4.069   9.262  10.329 -0.8511  0.4323 -0.1622
  687MOL0     H90678   4.294   9.275  10.248 -0.9932  0.4560  1.1268
  687MOL0     H90679   4.186   9.230  10.117  0.7876  2.4601  0.4381
  687MOL0     H90680   4.395   9.127  10.093 -0.6459  3.5455  1.5766
  687MOL0     H90681   4.413   9.091  10.253  0.5768 -0.7280 -0.4398
  687MOL0     H90682   4.147   8.771  10.145 -1.6535  2.2891 -1.7930
  687MOL0     H90683   4.460   9.370  10.605  0.9860 -0.7453 -0.2362
  687MOL0     H90684   4.438   9.534  10.789  0.4352  0.4577 -1.0210
  688MOL0     O90685   4.630   0.467   0.288 -0.7959 -0.5050  0.4875
  688MOL0     C90686   4.637   0.584   0.343 -0.3509 -1.1489  2.3717
  688MOL0     O90687   4.746   0.668   0.333 -0.3809 -0.1178  0.1899
  688MOL0     C90688   4.869   0.620   0.317 -0.6328 -0.2541  0.3141
  688MOL0     C90689   4.966   0.709   0.266 -0.3041  0.1420 -0.0561
  688MOL0     C90690   5.098   0.691   0.259  0.3672  0.0985  0.4896
  688MOL0     C90691   5.149   0.569   0.315 -0.6013 -0.1462 -0.1615
  688MOL0     O90692   5.281   0.528   0.323 -0.7046 -0.0989 -0.3753
  688MOL0     C90693   5.357   0.561   0.205  0.7725 -0.4686  0.4502
  688MOL0     C90694   5.503   0.520   0.217 -0.4006 -0.6150  0.3591
  688MOL0     C90695   5.541   0.451   0.091 -0.0381 -0.3720 -0.0477
  688MOL0     C90696   5.686   0.441   0.054 -0.5334  0.7002 -0.4056
  688MOL0     C90697   5.708   0.351  -0.066  1.0631 -0.4501  0.1085
  688MOL0     C90698   5.678   0.202  -0.032 -0.3208 -0.7095 -0.2984
  688MOL0     C90699   5.700   0.132  -0.158 -0.0737  0.1720  0.2730
  688MOL0     C90700   5.679  -0.023  -0.125 -0.3202 -0.5291 -0.2662
  688MOL0     N90701   5.680  -0.098  -0.256 -0.4328 -0.2915  0.3242
  688MOL0     C90702   5.580  -0.108  -0.356 -1.6355 -0.0507 -0.7198
  688MOL0     C90703   5.634  -0.196  -0.445  0.6305 -0.0169  0.2451
  688MOL0     C90704   5.558  -0.222  -0.580 -0.2819 -0.2537 -0.1410
  688MOL0     C90705   5.431  -0.306  -0.577 -1.0734 -0.1312 -0.6927
  688MOL0     C90706   5.358  -0.272  -0.706  0.3650  0.0957  0.1317
  688MOL0     C90707   5.227  -0.351  -0.722 -1.2467 -0.6843 -0.0526
  688MOL0     O90708   5.135  -0.346  -0.617  0.2530 -0.5734  0.1673
  688MOL0     C90709   5.000  -0.324  -0.645 -0.3232  0.0939 -0.5081
  688MOL0     C90710   4.939  -0.340  -0.771  0.3368  0.3883 -0.6601
  688MOL0     C90711   4.806  -0.295  -0.787 -0.9653  0.6768 -0.1868
  688MOL0     C90712   4.736  -0.236  -0.680 -0.1308  0.2091  0.8367
  688MOL0     C90713   4.595  -0.185  -0.683  0.2839  0.9784 -0.1903
  688MOL0     O90714   4.537  -0.120  -0.572 -0.4505  0.6215  0.4596
  688MOL0     C90715   4.399  -0.099  -0.571  0.1149  0.4355 -0.5705
  688MOL0     C90716   4.363  -0.008  -0.476 -0.4737  0.8736 -0.1905
  688MOL0     C90717   4.239   0.044  -0.469  0.0196 -1.3861 -0.1024
  688MOL0     C90718   4.140  -0.004  -0.551 -0.1470 -0.1200 -0.4046
  688MOL0     O90719   4.012   0.040  -0.538  0.1892 -0.6908  0.0213
  688MOL0     C90720   3.986   0.185  -0.529  0.3000 -0.1620  0.2521
  688MOL0     C90721   3.934   0.230  -0.669 -0.2460  0.0330  0.9315
  688MOL0     C90722   3.820   0.141  -0.722 -0.0264  0.5255  0.5076
  688MOL0     C90723   3.701   0.119  -0.620 -0.4533 -0.2775 -0.6888
  688MOL0     C90724   3.587   0.028  -0.653 -1.3913 -0.5578  0.4675
  688MOL0     C90725   3.476   0.055  -0.549  1.0319 -0.4589 -0.3926
  688MOL0     C90726   3.355  -0.044  -0.569 -0.3973  0.1780 -0.0011
  688MOL0     C90727   3.248  -0.019  -0.462 -0.2120 -0.2115  0.0074
  688MOL0    Cl90728   3.312  -0.081  -0.298  0.1600  0.3364  0.2463
  688MOL0     C90729   4.163  -0.112  -0.639 -0.5827 -0.4144 -0.8398
  688MOL0     C90730   4.293  -0.167  -0.641  0.1322  0.1561  0.1779
  688MOL0     O90731   4.533  -0.220  -0.780 -0.0649 -0.4293  0.0040
  688MOL0     C90732   4.807  -0.207  -0.563 -0.3506  0.4782  0.0326
  688MOL0     C90733   4.936  -0.256  -0.544  0.6139  0.4014 -0.1378
  688MOL0     N90734   5.754  -0.239  -0.404 -0.3989  1.0026  0.0808
  688MOL0     N90735   5.779  -0.189  -0.285  0.4970  0.1230  0.3466
  688MOL0     C90736   5.061   0.479   0.371  0.4452  0.5015 -0.8327
  688MOL0     C90737   4.921   0.500   0.372 -0.7732 -0.7045  0.3750
  688MOL0     C90738   4.518   0.632   0.402  0.1975 -0.3851 -0.1759
  688MOL0     C90739   4.506   0.772   0.411  0.1691 -1.0861  0.3932
  688MOL0     C90740   4.377   0.820   0.449 -0.5156 -0.2195 -0.5916
  688MOL0     C90741   4.267   0.734   0.492 -1.1836  0.7513  1.3219
  688MOL0     O90742   4.139   0.806   0.496  0.3509  0.1862  0.1371
  688MOL0     C90743   4.026   0.718   0.527 -0.0944  0.8745  0.5669
  688MOL0     C90744   3.939   0.819   0.593 -0.1117 -0.2275 -0.3562
  688MOL0     C90745   3.790   0.773   0.592 -0.6514 -0.8312 -1.0958
  688MOL0     C90746   3.704   0.833   0.480  0.1326  0.7014  0.0530
  688MOL0     C90747   3.569   0.777   0.501 -0.2506 -0.1603  0.6508
  688MOL0     C90748   3.466   0.733   0.540  0.8072  0.3429 -1.0374
  688MOL0     C90749   4.288   0.599   0.482 -0.0739  0.6435  0.0217
  688MOL0     C90750   4.413   0.549   0.431 -0.0349 -0.6380 -0.3261
  688MOL0     H90751   4.927   0.805   0.232  0.0906 -0.0518 -1.0879
  688MOL0     H90752   5.166   0.767   0.223 -0.2002  0.4138  0.0698
  688MOL0     H90753   5.360   0.669   0.185  0.4316 -0.2159  1.6767
  688MOL0     H90754   5.306   0.520   0.118  1.3207 -0.7967  0.2813
  688MOL0     H90755   5.512   0.445   0.296 -1.7293 -1.0535  0.1234
  688MOL0     H90756   5.553   0.616   0.233 -0.0498 -1.0250  1.8845
  688MOL0     H90757   5.485   0.496   0.008  1.6383 -0.7529 -1.4513
  688MOL0     H90758   5.502   0.352   0.114  1.6885 -0.6963  1.7504
  688MOL0     H90759   5.706   0.547   0.039 -0.3271  0.3142 -3.6246
  688MOL0     H90760   5.744   0.417   0.144  0.3638 -1.7278 -1.5409
  688MOL0     H90761   5.811   0.375  -0.097  0.4880 -0.1753 -1.7082
  688MOL0     H90762   5.642   0.383  -0.147  2.7303 -1.7244 -1.8542
  688MOL0     H90763   5.575   0.198   0.004 -0.7737  0.1122 -1.4392
  688MOL0     H90764   5.747   0.167   0.045  0.3028  1.9122  0.4231
  688MOL0     H90765   5.621   0.155  -0.230  1.1481  0.2652 -1.1055
  688MOL0     H90766   5.796   0.154  -0.207  0.1618  1.4610  1.2790
  688MOL0     H90767   5.580  -0.032  -0.079 -1.8866  2.1797 -2.7281
  688MOL0     H90768   5.761  -0.065  -0.066 -1.7015  1.1691  3.0841
  688MOL0     H90769   5.481  -0.066  -0.350 -2.0321 -0.9934 -0.5203
  688MOL0     H90770   5.630  -0.255  -0.656 -2.5299  3.1083 -4.1980
  688MOL0     H90771   5.529  -0.123  -0.617 -0.7762 -0.2650  0.2059
  688MOL0     H90772   5.369  -0.283  -0.490 -1.3261 -0.5121 -0.7658
  688MOL0     H90773   5.457  -0.413  -0.575  1.1925  0.3786 -0.5633
  688MOL0     H90774   5.320  -0.170  -0.715 -1.4400 -0.4616  1.0192
  688MOL0     H90775   5.423  -0.303  -0.789 -0.3490  2.0695 -1.2519
  688MOL0     H90776   5.257  -0.456  -0.729 -1.0198 -0.5484 -1.3327
  688MOL0     H90777   5.179  -0.324  -0.816  0.2931 -0.4786 -0.8112
  688MOL0     H90778   4.994  -0.399  -0.844  0.1114 -1.2818  0.4499
  688MOL0     H90779   4.749  -0.316  -0.877 -1.4199 -1.1976  0.4895
  688MOL0     H90780   4.439   0.025  -0.406 -1.3979  0.0855  1.2262
  688MOL0     H90781   4.208   0.123  -0.401 -0.7963 -2.9388  1.3927
  688MOL0     H90782   4.065   0.254  -0.497 -0.6157  0.4609  1.2349
  688MOL0     H90783   3.902   0.201  -0.462  0.4516  0.0338  0.3971
  688MOL0     H90784   4.020   0.240  -0.736  0.3399  3.2186  1.9864
  688MOL0     H90785   3.880   0.324  -0.654 -1.2601 -0.6353  1.6730
  688MOL0     H90786   3.862   0.043  -0.745  0.9047  0.8968  0.6032
  688MOL0     H90787   3.777   0.177  -0.816  3.1839 -0.3940 -1.4724
  688MOL0     H90788   3.725   0.084  -0.519 -1.1081  1.3671  0.0752
  688MOL0     H90789   3.665   0.222  -0.608 -0.6533 -0.4477  0.2991
  688MOL0     H90790   3.617  -0.076  -0.668 -0.7494 -0.0227 -2.7918
  688MOL0     H90791   3.552   0.060  -0.752 -0.1196  0.0176  0.1896
  688MOL0     H90792   3.457   0.161  -0.569  4.7630  0.2918 -0.8349
  688MOL0     H90793   3.513   0.050  -0.446  1.9867 -0.6412 -0.7277
  688MOL0     H90794   3.301  -0.033  -0.663 -3.5985 -0.1497  1.6540
  688MOL0     H90795   3.401  -0.143  -0.565  1.2354  0.9033 -0.1531
  688MOL0     H90796   3.150  -0.065  -0.477 -0.4109 -0.2782  1.3711
  688MOL0     H90797   3.221   0.087  -0.458  0.0864 -0.1535  0.6292
  688MOL0     H90798   4.085  -0.152  -0.701 -0.9568 -0.2128 -0.5038
  688MOL0     H90799   4.309  -0.255  -0.703 -1.4301  0.2242 -0.3564
  688MOL0     H90800   4.755  -0.154  -0.484  0.0006  2.0992 -0.7830
  688MOL0     H90801   4.987  -0.248  -0.449  2.8297 -0.4495 -1.1678
  688MOL0     H90802   5.098   0.385   0.409 -2.1663 -0.4387 -0.3968
  688MOL0     H90803   4.853   0.422   0.402 -2.5627  1.0061  0.9879
  688MOL0     H90804   4.579   0.844   0.377  1.3175 -0.6260  3.5447
  688MOL0     H90805   4.360   0.928   0.444 -2.6359 -0.5464 -1.9476
  688MOL0     H90806   4.037   0.627   0.586  0.4202 -0.9763 -2.1856
  688MOL0     H90807   3.977   0.694   0.432  0.4355  0.4337  0.4008
  688MOL0     H90808   3.969   0.826   0.697  1.2473  1.5421 -0.8128
  688MOL0     H90809   3.950   0.910   0.533  3.0123 -0.5870 -0.4737
  688MOL0     H90810   3.751   0.796   0.691 -1.4925 -4.7002 -0.3714
  688MOL0     H90811   3.789   0.664   0.580 -0.1869 -0.8043 -1.4083
  688MOL0     H90812   3.715   0.942   0.477  1.8059  0.5680  0.1195
  688MOL0     H90813   3.748   0.795   0.387 -3.0341 -4.7828  0.3923
  688MOL0     H90814   3.380   0.720   0.602  1.4331  0.0264 -0.2183
  688MOL0     H90815   4.209   0.530   0.508  0.0598 -1.5111 -4.3339
  688MOL0     H90816   4.429   0.442   0.439  3.6018 -0.7862 -5.1113
  689MOL0     O90817   6.580   5.751   3.952 -0.0823 -0.1094  0.0703
  689MOL0     C90818   6.613   5.696   3.844  0.1040  0.8980  0.4458
  689MOL0     O90819   6.526   5.653   3.745 -0.3278 -0.0636  0.5073
  689MOL0     C90820   6.397   5.633   3.764 -0.8635 -0.2320 -0.2860
  689MOL0     C90821   6.325   5.623   3.885 -0.6965  0.1879  0.5718
  689MOL0     C90822   6.181   5.605   3.883 -0.7662  0.0618 -0.4142
  689MOL0     C90823   6.113   5.615   3.770  1.0065  0.3289 -0.3864
  689MOL0     O90824   5.972   5.595   3.772 -0.3728  0.2710 -0.1796
  689MOL0     C90825   5.901   5.521   3.673  0.2193 -0.0709 -0.3118
  689MOL0     C90826   5.786   5.427   3.743  0.3118 -0.6774  0.9190
  689MOL0     C90827   5.841   5.313   3.838 -0.1727  1.5513  0.2990
  689MOL0     C90828   5.723   5.238   3.904 -0.8611 -0.0383  0.6822
  689MOL0     C90829   5.772   5.160   4.022 -0.8341  0.4799 -0.3322
  689MOL0     C90830   5.667   5.122   4.129 -0.4712 -0.7265  0.2670
  689MOL0     C90831   5.539   5.078   4.065 -0.0103 -0.4905  0.2691
  689MOL0     C90832   5.456   4.985   4.148  0.1222  0.0413  0.2704
  689MOL0     N90833   5.411   5.049   4.277  0.6158 -0.6745  0.0709
  689MOL0     C90834   5.338   5.165   4.294  0.4548  0.4655 -0.2104
  689MOL0     C90835   5.321   5.177   4.431  0.3265  0.0110 -0.6352
  689MOL0     C90836   5.255   5.280   4.521  0.1355 -0.0191 -0.1168
  689MOL0     C90837   5.348   5.410   4.541  0.2490  1.4014  0.5151
  689MOL0     C90838   5.289   5.511   4.640  0.4681 -0.0908  1.2155
  689MOL0     C90839   5.368   5.642   4.631  0.0576 -0.4387  0.5728
  689MOL0     O90840   5.507   5.632   4.676  0.1596  0.4368  0.7627
  689MOL0     C90841   5.594   5.715   4.621 -0.4612  0.1259 -0.3974
  689MOL0     C90842   5.570   5.842   4.567  0.3983 -0.4669  0.3882
  689MOL0     C90843   5.672   5.915   4.505  0.6748  0.1691  0.8116
  689MOL0     C90844   5.805   5.866   4.508 -0.6025 -0.8949 -0.3070
  689MOL0     C90845   5.907   5.931   4.429 -1.1643 -0.1752  0.5191
  689MOL0     O90846   6.030   5.877   4.440  0.1567 -0.4467  0.3539
  689MOL0     C90847   6.136   5.944   4.380 -0.4640 -0.0956  0.2581
  689MOL0     C90848   6.193   5.883   4.265  0.0253  0.8089  0.2174
  689MOL0     C90849   6.293   5.944   4.191  0.0033  0.4081 -0.6208
  689MOL0     C90850   6.348   6.061   4.241  0.3913 -0.6434  0.2181
  689MOL0     O90851   6.439   6.127   4.168  0.3341 -0.0087  0.2194
  689MOL0     C90852   6.409   6.151   4.028 -0.0007 -1.3473 -0.3425
  689MOL0     C90853   6.488   6.271   3.999 -0.0302  0.7113 -0.0192
  689MOL0     C90854   6.638   6.248   3.980 -0.5331  0.4970 -0.2916
  689MOL0     C90855   6.714   6.225   4.111  0.3511  0.0934 -0.1353
  689MOL0     C90856   6.860   6.222   4.082  0.5211 -0.4941 -1.1041
  689MOL0     C90857   6.937   6.221   4.220 -0.3946 -0.1852 -1.1468
  689MOL0     C90858   7.089   6.231   4.230  0.8427  0.1040 -0.6779
  689MOL0     C90859   7.140   6.375   4.174 -0.8416  0.0200  0.0688
  689MOL0    Cl90860   7.158   6.485   4.321  0.3450  0.0784  0.4153
  689MOL0     C90861   6.296   6.118   4.356 -0.4986  0.1640  0.2584
  689MOL0     C90862   6.182   6.070   4.423  0.0049 -0.4873  0.4601
  689MOL0     O90863   5.882   6.040   4.377 -0.7530  0.3718 -0.3042
  689MOL0     C90864   5.832   5.744   4.562  0.5246 -0.1089 -0.4945
  689MOL0     C90865   5.729   5.669   4.622 -0.5352 -0.2655  0.1529
  689MOL0     N90866   5.397   5.073   4.491  0.9698 -0.1085  0.3116
  689MOL0     N90867   5.449   5.008   4.400 -0.4632  0.1769 -0.2056
  689MOL0     C90868   6.172   5.620   3.648 -0.4763  0.3131  0.2708
  689MOL0     C90869   6.317   5.628   3.644 -0.8743  0.8868 -0.3046
  689MOL0     C90870   6.752   5.666   3.817 -0.8002 -0.2328  0.4780
  689MOL0     C90871   6.800   5.596   3.703  0.7592 -0.0659  0.5179
  689MOL0     C90872   6.931   5.582   3.679 -0.4881 -0.3782  0.2171
  689MOL0     C90873   7.027   5.648   3.763  0.7616  0.1017  0.7224
  689MOL0     O90874   7.162   5.641   3.726  1.0496 -0.0964 -0.8475
  689MOL0     C90875   7.250   5.633   3.836 -0.9050  0.4565 -0.6561
  689MOL0     C90876   7.395   5.593   3.781  0.0144 -0.6377 -0.3382
  689MOL0     C90877   7.403   5.444   3.740  0.5572 -0.7104  0.0762
  689MOL0     C90878   7.537   5.385   3.731  0.7938 -0.0118  0.3481
  689MOL0     C90879   7.587   5.430   3.611 -0.6737 -0.8240 -0.5481
  689MOL0     C90880   7.640   5.483   3.516 -0.3740  1.1344  0.5814
  689MOL0     C90881   6.987   5.719   3.878  1.0914 -0.4921 -0.2614
  689MOL0     C90882   6.848   5.728   3.901 -0.5174  0.6401 -0.4062
  689MOL0     H90883   6.375   5.626   3.981  0.4982 -0.4889  0.0069
  689MOL0     H90884   6.130   5.611   3.979 -1.2314 -2.7368 -0.3870
  689MOL0     H90885   5.968   5.464   3.607 -0.9159 -1.8191 -0.0235
  689MOL0     H90886   5.864   5.596   3.602  2.6551  1.4307 -0.0983
  689MOL0     H90887   5.736   5.385   3.655  2.6139 -0.8160 -0.4137
  689MOL0     H90888   5.706   5.482   3.793  1.7081  0.5399  1.8698
  689MOL0     H90889   5.896   5.361   3.919  3.0246  0.4647 -1.0621
  689MOL0     H90890   5.898   5.231   3.795 -2.3232 -0.1024  0.4537
  689MOL0     H90891   5.639   5.299   3.937 -1.4333 -1.0547  1.1369
  689MOL0     H90892   5.672   5.168   3.837 -2.4126 -2.4236  4.0660
  689MOL0     H90893   5.860   5.203   4.070  0.5542 -3.2536  0.8129
  689MOL0     H90894   5.809   5.067   3.978  0.4911  0.2540  1.1586
  689MOL0     H90895   5.647   5.202   4.200  1.9176 -0.1760  0.4201
  689MOL0     H90896   5.706   5.035   4.183  1.3334  0.3812  0.8157
  689MOL0     H90897   5.481   5.168   4.041  2.0911  0.8917  0.0513
  689MOL0     H90898   5.558   5.024   3.972 -0.0492  0.1732 -0.1342
  689MOL0     H90899   5.509   4.894   4.175 -2.3266 -1.2249  1.1430
  689MOL0     H90900   5.369   4.953   4.089 -0.8526  0.3523  1.4871
  689MOL0     H90901   5.303   5.244   4.229  1.4336 -0.1566 -1.5391
  689MOL0     H90902   5.234   5.234   4.618  3.1090 -4.8632 -1.4273
  689MOL0     H90903   5.164   5.322   4.478  3.8026  4.6679 -4.6354
  689MOL0     H90904   5.381   5.453   4.446  1.9500 -1.1691 -0.1400
  689MOL0     H90905   5.436   5.377   4.597 -1.3002 -0.4089  2.0572
  689MOL0     H90906   5.184   5.513   4.611  0.4004 -3.4866  0.8398
  689MOL0     H90907   5.307   5.484   4.745  7.6016 -4.3543 -0.4033
  689MOL0     H90908   5.313   5.716   4.690 -1.0277 -1.0625  0.3776
  689MOL0     H90909   5.364   5.680   4.529  2.4868  1.3793  1.0657
  689MOL0     H90910   5.473   5.890   4.569 -0.3487 -1.5054 -3.4671
  689MOL0     H90911   5.659   6.012   4.459  2.3071  0.9450  1.8847
  689MOL0     H90912   6.147   5.789   4.236 -0.5154  0.6382  1.5694
  689MOL0     H90913   6.329   5.905   4.096 -2.1825 -3.9035  0.0302
  689MOL0     H90914   6.300   6.160   4.030  0.0366 -0.7264  1.5665
  689MOL0     H90915   6.447   6.078   3.956  0.5888 -1.6031  0.2112
  689MOL0     H90916   6.475   6.356   4.066  0.7401  3.7618 -3.4045
  689MOL0     H90917   6.449   6.317   3.907  0.8788 -0.8601 -1.2448
  689MOL0     H90918   6.669   6.343   3.936  2.4047 -0.7488 -1.1501
  689MOL0     H90919   6.657   6.163   3.915  0.1529  1.1883 -1.0120
  689MOL0     H90920   6.679   6.299   4.184  0.7213 -2.0719  2.3707
  689MOL0     H90921   6.685   6.130   4.155  3.6708 -1.0198 -0.1297
  689MOL0     H90922   6.898   6.316   4.041  0.5327 -0.0667 -0.1321
  689MOL0     H90923   6.889   6.146   4.010 -0.1772 -3.4137  1.4954
  689MOL0     H90924   6.909   6.127   4.267  0.4357 -0.0069 -0.2606
  689MOL0     H90925   6.901   6.299   4.287 -0.9085 -2.5740  1.5104
  689MOL0     H90926   7.098   6.225   4.339 -0.1934 -0.0610 -0.5938
  689MOL0     H90927   7.130   6.149   4.171 -1.0435  0.3160 -2.3983
  689MOL0     H90928   7.078   6.428   4.101 -0.2775  0.9607  0.2687
  689MOL0     H90929   7.236   6.354   4.126 -0.7606 -2.1444  1.0568
  689MOL0     H90930   6.340   6.207   4.399  0.2640 -0.2707  0.3953
  689MOL0     H90931   6.140   6.112   4.513  3.2820  2.4356  0.8206
  689MOL0     H90932   5.930   5.698   4.552 -1.0952 -3.7163 -1.4816
  689MOL0     H90933   5.758   5.572   4.661 -0.0184 -0.6945 -1.2399
  689MOL0     H90934   6.120   5.613   3.554  0.0395 -0.2867  0.0248
  689MOL0     H90935   6.367   5.622   3.548  0.8584 -2.0245  0.6504
  689MOL0     H90936   6.731   5.541   3.641 -1.3157 -1.4375  3.7854
  689MOL0     H90937   6.954   5.521   3.592  1.8407 -0.4504  0.8237
  689MOL0     H90938   7.219   5.571   3.920  0.4289  4.0138  2.7630
  689MOL0     H90939   7.251   5.730   3.885 -0.5057  1.8644 -3.2476
  689MOL0     H90940   7.424   5.663   3.703 -1.5177  1.2924  0.7412
  689MOL0     H90941   7.468   5.613   3.860 -2.2980  0.1166  1.7524
  689MOL0     H90942   7.338   5.430   3.653 -1.3380  0.8243  1.1727
  689MOL0     H90943   7.351   5.381   3.813 -1.4519  1.7898  0.9338
  689MOL0     H90944   7.596   5.417   3.817  0.7280  4.0734 -0.9061
  689MOL0     H90945   7.538   5.275   3.729  2.1039 -0.0111 -0.1333
  689MOL0     H90946   7.673   5.520   3.421 -2.6164 -2.2338 -1.6973
  689MOL0     H90947   7.059   5.772   3.939  1.5363 -1.9099  0.4866
  689MOL0     H90948   6.824   5.784   3.991  3.4222  1.8229  0.1156
  690MOL0     O90949   2.943   3.655   9.985 -0.1483 -0.3807 -0.4951
  690MOL0     C90950   2.880   3.546   9.990 -0.3648 -0.2710  0.1272
  690MOL0     O90951   2.927   3.422   9.954  0.2344  0.5549  0.2603
  690MOL0     C90952   3.056   3.389   9.929  0.7419 -0.7676  0.9436
  690MOL0     C90953   3.165   3.469   9.958 -0.5614 -0.0154 -0.2204
  690MOL0     C90954   3.291   3.430   9.915  0.2667  0.6352  0.4355
  690MOL0     C90955   3.319   3.312   9.843 -0.3407  0.5875  0.4560
  690MOL0     O90956   3.443   3.279   9.814 -0.7231 -0.3058  0.1450
  690MOL0     C90957   3.478   3.219   9.690  0.4268  0.1663  0.0965
  690MOL0     C90958   3.478   3.066   9.710 -0.8143  0.2694  0.1388
  690MOL0     C90959   3.609   2.996   9.753 -0.5138  0.3861 -0.3349
  690MOL0     C90960   3.670   3.046   9.892 -0.3822  0.1406  0.1829
  690MOL0     C90961   3.757   2.937   9.957 -0.0366  1.0029 -0.1620
  690MOL0     C90962   3.810   2.978  10.095 -0.4940 -0.5105  0.5257
  690MOL0     C90963   3.869   2.863  10.182  0.3911 -0.2170 -0.0457
  690MOL0     C90964   3.764   2.751  10.216  0.4338 -0.8998 -0.3527
  690MOL0     N90965   3.651   2.814  10.296 -0.0165  0.3720  0.1536
  690MOL0     C90966   3.538   2.872  10.252  0.3561 -0.7711  0.2276
  690MOL0     C90967   3.461   2.898  10.358  0.9684 -0.6772  0.3308
  690MOL0     C90968   3.325   2.960  10.350  0.2492 -0.5876  0.2784
  690MOL0     C90969   3.335   3.090  10.269 -0.3084 -0.4204  0.8468
  690MOL0     C90970   3.191   3.150  10.254  0.0956  0.9508 -0.1163
  690MOL0     C90971   3.143   3.209  10.398  0.2973  0.8589  0.4392
  690MOL0     O90972   3.019   3.283  10.364 -0.8625 -0.4424  0.0685
  690MOL0     C90973   2.895   3.219  10.370  0.2994 -0.2726 -0.8354
  690MOL0     C90974   2.867   3.088  10.384  1.3269  0.3061 -0.2000
  690MOL0     C90975   2.731   3.030  10.395 -0.0301 -0.3359 -0.6529
  690MOL0     C90976   2.627   3.119  10.389  0.1553 -1.0189  0.1789
  690MOL0     C90977   2.482   3.083  10.403 -0.1501  0.2581  0.1532
  690MOL0     O90978   2.390   3.172  10.460  0.4535 -0.3056 -0.2007
  690MOL0     C90979   2.254   3.153  10.436 -0.3815 -0.0920 -0.2241
  690MOL0     C90980   2.176   3.082  10.532 -0.3961  0.3250  0.3121
  690MOL0     C90981   2.052   3.030  10.494 -0.6995  0.2300 -0.5800
  690MOL0     C90982   1.998   3.062  10.366  0.4570 -0.0700  0.1595
  690MOL0     O90983   1.864   3.027  10.349 -0.0321  0.4996  0.3054
  690MOL0     C90984   1.791   3.097  10.248 -1.0561  0.4370  0.4168
  690MOL0     C90985   1.647   3.054  10.250  0.6806 -0.1442 -0.2689
  690MOL0     C90986   1.557   3.095  10.128  0.0649 -0.5241  0.0051
  690MOL0     C90987   1.572   3.248  10.100  0.3397 -0.1717 -1.0480
  690MOL0     C90988   1.462   3.305  10.010  0.1199  0.2865 -0.3151
  690MOL0     C90989   1.521   3.437   9.954  0.0565 -0.5284 -0.4819
  690MOL0     C90990   1.431   3.501   9.846  0.1797 -1.1223  0.0306
  690MOL0     C90991   1.525   3.618   9.775 -0.2401 -0.0503 -0.2238
  690MOL0    Cl90992   1.435   3.701   9.647  0.1256 -0.0960  0.0884
  690MOL0     C90993   2.075   3.141  10.279  0.1093 -0.3393  0.4805
  690MOL0     C90994   2.205   3.186  10.308 -0.2897  0.6737 -0.1173
  690MOL0     O90995   2.449   2.983  10.339  0.0106 -0.1441  0.2533
  690MOL0     C90996   2.663   3.258  10.367  0.0419 -0.7987  0.2706
  690MOL0     C90997   2.787   3.306  10.356 -0.0631 -0.0631  0.8809
  690MOL0     N90998   3.522   2.843  10.467 -0.2287 -0.4744 -0.2098
  690MOL0     N90999   3.641   2.801  10.433  0.9399  0.3767 -0.6256
  690MOL0     C91000   3.208   3.238   9.813  0.7582  0.1578 -0.0838
  690MOL0     C91001   3.077   3.280   9.851  0.3357 -0.2080 -0.5075
  690MOL0     C91002   2.751   3.564  10.051  0.8507  0.9655  0.0105
  690MOL0     C91003   2.671   3.445  10.068 -0.5430 -0.0969 -0.6598
  690MOL0     C91004   2.540   3.453  10.122 -0.6342  0.7165  0.5274
  690MOL0     C91005   2.499   3.572  10.180  0.2211 -0.4594 -0.8832
  690MOL0     O91006   2.369   3.566  10.231 -0.7135 -0.4464  1.2093
  690MOL0     C91007   2.315   3.687  10.286 -0.3833  0.2720  0.2698
  690MOL0     C91008   2.174   3.671  10.339 -0.7349  0.4456  0.2228
  690MOL0     C91009   2.065   3.642  10.231 -0.2293  0.4954 -0.2411
  690MOL0     C91010   1.930   3.653  10.299  0.3162 -0.7319  0.0940
  690MOL0     C91011   1.847   3.762  10.239 -1.1301  0.0270  0.9682
  690MOL0     C91012   1.765   3.835  10.175 -0.7131 -0.1246 -0.1899
  690MOL0     C91013   2.576   3.683  10.166  0.1519 -0.0381  0.3891
  690MOL0     C91014   2.698   3.682  10.106 -0.1655 -0.0605 -0.3530
  690MOL0     H91015   3.150   3.554  10.024 -2.5596  1.0974 -1.9975
  690MOL0     H91016   3.373   3.493   9.946 -1.1633  3.2638 -0.8665
  690MOL0     H91017   3.580   3.241   9.659 -0.2270  2.0525 -0.9015
  690MOL0     H91018   3.413   3.247   9.606  0.5783  2.2617  0.6125
  690MOL0     H91019   3.448   3.025   9.614 -1.1078  0.2344  0.2459
  690MOL0     H91020   3.397   3.045   9.780 -2.5335  1.2204 -1.4717
  690MOL0     H91021   3.689   3.008   9.680  0.0874 -0.1196  0.2346
  690MOL0     H91022   3.604   2.889   9.772  2.1466  0.4867  1.3994
  690MOL0     H91023   3.731   3.134   9.871  3.7754 -2.3840  0.5806
  690MOL0     H91024   3.589   3.071   9.961 -0.4654 -1.8130  0.8626
  690MOL0     H91025   3.840   2.930   9.887 -0.7934 -1.6951 -0.8858
  690MOL0     H91026   3.716   2.836   9.967 -1.4302  1.3138 -2.1566
  690MOL0     H91027   3.735   3.028  10.157  0.5990  2.2395 -0.1805
  690MOL0     H91028   3.885   3.055  10.073  0.2662 -0.1559  3.8669
  690MOL0     H91029   3.961   2.825  10.136  0.5703 -1.5948  1.3883
  690MOL0     H91030   3.904   2.905  10.277 -1.3551 -0.6105  0.7922
  690MOL0     H91031   3.808   2.672  10.277  2.2307  0.9312  0.8275
  690MOL0     H91032   3.719   2.700  10.130 -1.1266  1.0267 -0.7482
  690MOL0     H91033   3.505   2.883  10.150  2.1330 -0.9979 -0.3948
  690MOL0     H91034   3.283   2.988  10.447 -1.0077  0.6417 -0.5856
  690MOL0     H91035   3.271   2.878  10.302  0.8611 -1.2305  0.6705
  690MOL0     H91036   3.366   3.079  10.165  1.7793  2.8822  0.9684
  690MOL0     H91037   3.403   3.163  10.314  0.7658  0.1123 -1.4903
  690MOL0     H91038   3.184   3.238  10.189  0.9871  2.0168  1.1847
  690MOL0     H91039   3.123   3.080  10.205 -0.0870  0.0688  1.3529
  690MOL0     H91040   3.217   3.280  10.435 -0.1244  1.6517 -0.2144
  690MOL0     H91041   3.123   3.130  10.471  3.1933 -0.0156  0.4237
  690MOL0     H91042   2.952   3.021  10.398  2.1512  1.6732  1.8593
  690MOL0     H91043   2.737   2.922  10.406  1.7998 -0.3124 -1.1388
  690MOL0     H91044   2.215   3.054  10.629 -0.7549  4.5923  1.9028
  690MOL0     H91045   1.993   2.980  10.570 -2.0423  1.3020 -0.8784
  690MOL0     H91046   1.834   3.062  10.153  0.4751 -0.1187  1.2749
  690MOL0     H91047   1.806   3.205  10.246  2.3358  0.0884 -1.0613
  690MOL0     H91048   1.604   3.104  10.336 -0.0653  2.2090 -1.9165
  690MOL0     H91049   1.637   2.945  10.259 -0.2119 -0.4313 -3.5042
  690MOL0     H91050   1.459   3.059  10.159 -0.6287  1.8445  0.7592
  690MOL0     H91051   1.582   3.038  10.038 -2.2446 -0.7026 -0.5892
  690MOL0     H91052   1.568   3.316  10.185 -0.8390  1.1221 -2.0879
  690MOL0     H91053   1.670   3.269  10.056  1.8041 -1.0967  1.5490
  690MOL0     H91054   1.369   3.324  10.062  1.1837  1.3824  1.2598
  690MOL0     H91055   1.444   3.235   9.927 -1.7730  0.6982 -0.2928
  690MOL0     H91056   1.621   3.417   9.913 -1.1714 -1.6743 -3.1741
  690MOL0     H91057   1.531   3.517  10.027 -3.6608 -1.0754  0.8641
  690MOL0     H91058   1.401   3.422   9.776 -3.5597 -1.5460  1.8567
  690MOL0     H91059   1.333   3.529   9.884 -1.0261 -1.9473 -2.2344
  690MOL0     H91060   1.619   3.571   9.746 -0.0922 -2.6079  3.6549
  690MOL0     H91061   1.551   3.696   9.848  1.2992 -0.5402 -0.2079
  690MOL0     H91062   2.029   3.163  10.183 -2.3060  0.9485  1.8025
  690MOL0     H91063   2.259   3.238  10.229 -0.0421 -0.8521 -0.9747
  690MOL0     H91064   2.573   3.317  10.353 -2.0043 -2.4297  4.7354
  690MOL0     H91065   2.810   3.409  10.330  0.4070 -0.1924  0.7762
  690MOL0     H91066   3.212   3.153   9.745  0.1501  2.9209 -3.8918
  690MOL0     H91067   2.996   3.211   9.831 -0.3975  0.7283 -0.8100
  690MOL0     H91068   2.703   3.346  10.037  1.5309 -0.6896  2.8379
  690MOL0     H91069   2.488   3.359  10.135  1.8026 -1.2392 -2.4427
  690MOL0     H91070   2.308   3.778  10.226 -0.3852  1.3864  1.9110
  690MOL0     H91071   2.384   3.707  10.368 -0.7917 -2.2805  1.3236
  690MOL0     H91072   2.175   3.591  10.414  1.0619 -0.6321 -0.8803
  690MOL0     H91073   2.138   3.759  10.392 -2.8463  0.4360 -1.0374
  690MOL0     H91074   2.068   3.542  10.187 -2.2570  0.2424  0.0763
  690MOL0     H91075   2.080   3.706  10.144  1.3607 -1.4665 -1.4721
  690MOL0     H91076   1.875   3.559  10.288 -3.1262  1.0665  0.6303
  690MOL0     H91077   1.939   3.671  10.407  1.6567  0.2102 -0.1478
  690MOL0     H91078   1.691   3.896  10.128 -0.5916  1.7194  1.8499
  690MOL0     H91079   2.535   3.779  10.195  1.5682  0.4947  0.6621
  690MOL0     H91080   2.753   3.776  10.099  0.7645 -0.6967 -2.3917
  691MOL0     O91081   2.035   0.219   4.156 -0.6226 -0.0691  0.3823
  691MOL0     C91082   2.045   0.220   4.281 -0.0561  0.7599  0.0299
  691MOL0     O91083   1.943   0.187   4.370  1.4140  0.1996  0.3559
  691MOL0     C91084   1.818   0.163   4.324  0.1732  0.8315 -1.0309
  691MOL0     C91085   1.730   0.138   4.435 -1.0513 -0.0530  0.3447
  691MOL0     C91086   1.597   0.119   4.407 -0.3541 -0.3215  0.5039
  691MOL0     C91087   1.539   0.121   4.276 -0.3763 -0.1400  0.3116
  691MOL0     O91088   1.404   0.103   4.245 -0.6227  0.2993 -0.1579
  691MOL0     C91089   1.315   0.035   4.340 -0.5191 -0.4460 -0.0934
  691MOL0     C91090   1.204  -0.032   4.265 -1.0829  0.3933  0.4700
  691MOL0     C91091   1.107   0.064   4.205 -0.2397  0.4368 -0.0636
  691MOL0     C91092   0.983  -0.004   4.156  0.3040 -0.5688  0.0925
  691MOL0     C91093   0.857   0.086   4.115  0.3135 -0.1183 -0.4861
  691MOL0     C91094   0.787   0.151   4.232 -0.0447 -1.2508  0.4845
  691MOL0     C91095   0.647   0.183   4.205 -0.6177  0.0671  0.2164
  691MOL0     C91096   0.564   0.221   4.335 -0.2484  0.3875 -0.9288
  691MOL0     N91097   0.424   0.255   4.309 -0.6175  0.0908 -0.0984
  691MOL0     C91098   0.378   0.259   4.180  0.1054  0.5623 -0.3756
  691MOL0     C91099   0.249   0.242   4.188  0.4311 -1.2293  0.7033
  691MOL0     C91100   0.144   0.268   4.082 -0.1930 -0.5204  0.1466
  691MOL0     C91101   0.097   0.425   4.092 -1.0064  0.2872 -0.3657
  691MOL0     C91102  -0.003   0.469   4.201 -0.2447  0.3224 -0.5347
  691MOL0     C91103  -0.151   0.449   4.161  0.0349  0.5523 -0.4891
  691MOL0     O91104  -0.188   0.545   4.064 -0.3025 -1.1900  0.6759
  691MOL0     C91105  -0.312   0.554   4.023  0.7723  0.3595  0.0728
  691MOL0     C91106  -0.415   0.478   4.080 -0.1955 -1.2024 -0.0948
  691MOL0     C91107  -0.548   0.488   4.038  0.1284 -0.5991  0.4699
  691MOL0     C91108  -0.581   0.580   3.925 -0.5294  0.3104 -0.3803
  691MOL0     C91109  -0.717   0.592   3.874  0.0182  0.3378 -0.3042
  691MOL0     O91110  -0.727   0.650   3.755 -0.2755 -0.1273  0.1064
  691MOL0     C91111  -0.846   0.699   3.710 -0.3147  0.8452  1.0008
  691MOL0     C91112  -0.837   0.825   3.635 -0.4203  0.8513 -0.1909
  691MOL0     C91113  -0.947   0.904   3.604 -0.2122  0.1827  0.0432
  691MOL0     C91114  -1.081   0.851   3.628 -0.6994  0.9392  0.0615
  691MOL0     O91115  -1.197   0.921   3.598  0.6943 -0.3633 -0.3393
  691MOL0     C91116  -1.318   0.882   3.659  0.5328  0.5870  0.1930
  691MOL0     C91117  -1.428   0.977   3.619  0.3018  0.0937  0.6795
  691MOL0     C91118  -1.525   1.024   3.718  0.0378 -0.2506 -0.3910
  691MOL0     C91119  -1.610   0.907   3.781  0.1505 -0.3311 -0.2390
  691MOL0     C91120  -1.747   0.950   3.839 -0.1926  1.0414 -0.3492
  691MOL0     C91121  -1.743   1.071   3.934  0.7026  0.3959  0.9746
  691MOL0     C91122  -1.867   1.066   4.027 -0.6516 -0.0986  0.1926
  691MOL0     C91123  -2.006   1.080   3.961 -0.1927 -0.1054 -0.3101
  691MOL0    Cl91124  -2.002   1.240   3.863 -0.4130  0.4184  0.1699
  691MOL0     C91125  -1.088   0.719   3.680  0.7019 -0.4489  0.2411
  691MOL0     C91126  -0.980   0.653   3.728 -1.1485  0.6700 -1.0175
  691MOL0     O91127  -0.806   0.517   3.924 -0.3379  1.0382  0.0918
  691MOL0     C91128  -0.470   0.644   3.866 -0.5560 -1.0331 -0.6594
  691MOL0     C91129  -0.347   0.646   3.921 -0.0453 -0.9668  0.4464
  691MOL0     N91130   0.210   0.227   4.320 -0.7777 -0.3936  0.3362
  691MOL0     N91131   0.314   0.229   4.388 -0.5935 -0.1933  0.4323
  691MOL0     C91132   1.632   0.144   4.170 -0.2649  0.0481  0.1918
  691MOL0     C91133   1.770   0.156   4.195  0.6217  0.2395 -0.3701
  691MOL0     C91134   2.171   0.261   4.337  0.4306  0.3954 -0.2759
  691MOL0     C91135   2.192   0.240   4.476  0.5469 -0.2728 -0.6234
  691MOL0     C91136   2.311   0.280   4.532  0.5199 -0.2037  0.5486
  691MOL0     C91137   2.413   0.319   4.459 -0.0818  0.0243 -0.5319
  691MOL0     O91138   2.522   0.346   4.527 -0.0419 -0.9259 -0.6523
  691MOL0     C91139   2.652   0.363   4.466  0.0445 -0.4492 -0.3104
  691MOL0     C91140   2.763   0.285   4.547 -0.0266  0.1781 -0.0612
  691MOL0     C91141   2.768   0.136   4.516  0.2156  0.0211 -0.3590
  691MOL0     C91142   2.893   0.088   4.445 -0.2271  0.3804  0.4422
  691MOL0     C91143   2.911   0.131   4.306  0.2986  0.3473  0.3492
  691MOL0     C91144   2.928   0.195   4.197 -0.5296  0.5218 -0.0756
  691MOL0     C91145   2.394   0.336   4.322 -0.2962  0.8319 -0.5796
  691MOL0     C91146   2.276   0.306   4.261 -0.9325 -0.3917  0.3047
  691MOL0     H91147   1.765   0.130   4.538 -2.6911 -2.1022  0.7983
  691MOL0     H91148   1.533   0.103   4.492 -0.0899 -0.6910  0.6322
  691MOL0     H91149   1.283   0.110   4.412 -0.3307 -0.3269 -0.1328
  691MOL0     H91150   1.362  -0.034   4.411 -1.4140 -0.8850  0.0806
  691MOL0     H91151   1.151  -0.079   4.348 -0.2816  0.5860  1.0951
  691MOL0     H91152   1.233  -0.106   4.190 -1.9356  0.6665 -0.1410
  691MOL0     H91153   1.152   0.114   4.119 -0.3982  2.0434  0.7508
  691MOL0     H91154   1.087   0.148   4.273  1.9633  0.0894  1.0936
  691MOL0     H91155   1.005  -0.068   4.070 -1.3782  1.3680 -1.9037
  691MOL0     H91156   0.944  -0.067   4.236  1.1041 -0.4537  0.5825
  691MOL0     H91157   0.791   0.015   4.065  1.9830 -2.0252 -0.1397
  691MOL0     H91158   0.880   0.173   4.052 -1.2538 -0.0467 -0.9928
  691MOL0     H91159   0.840   0.238   4.270 -0.6519 -1.8054  2.7211
  691MOL0     H91160   0.797   0.087   4.320  1.6723 -0.1170  1.1565
  691MOL0     H91161   0.647   0.264   4.133  0.9052 -1.3949 -1.5226
  691MOL0     H91162   0.604   0.087   4.174 -1.9121  0.6530  0.1237
  691MOL0     H91163   0.605   0.311   4.382  1.7293  0.6666 -3.0405
  691MOL0     H91164   0.570   0.143   4.412 -2.1821  0.4373 -0.6695
  691MOL0     H91165   0.431   0.269   4.086 -2.2107 -4.1798 -2.5350
  691MOL0     H91166   0.056   0.208   4.106 -0.8059  0.7392  1.2132
  691MOL0     H91167   0.186   0.242   3.985 -0.7002 -2.1217  0.3338
  691MOL0     H91168   0.064   0.454   3.992 -1.0369 -1.2864 -0.8531
  691MOL0     H91169   0.195   0.464   4.119 -0.4781 -0.4500 -1.1439
  691MOL0     H91170   0.033   0.420   4.292 -0.0880 -0.4593 -1.0094
  691MOL0     H91171   0.009   0.578   4.203 -1.9338  0.5647 -1.7214
  691MOL0     H91172  -0.210   0.459   4.253  0.3914 -3.7707  0.4417
  691MOL0     H91173  -0.176   0.348   4.128  1.9520  0.5241 -2.0572
  691MOL0     H91174  -0.399   0.397   4.151 -2.1896 -1.5438  0.0294
  691MOL0     H91175  -0.629   0.426   4.075 -0.8872  0.9964  1.0517
  691MOL0     H91176  -0.734   0.858   3.618 -0.0712 -0.6307 -1.1798
  691MOL0     H91177  -0.936   1.005   3.568 -1.6486  0.6830  0.9549
  691MOL0     H91178  -1.316   0.896   3.768  0.9580 -0.9673  0.4078
  691MOL0     H91179  -1.352   0.784   3.626  0.5057  0.3149  0.9952
  691MOL0     H91180  -1.482   0.932   3.535  1.4373 -3.1050  1.5055
  691MOL0     H91181  -1.377   1.068   3.587  0.9826 -0.1501  1.0442
  691MOL0     H91182  -1.597   1.092   3.672 -0.5139 -1.8307 -1.9506
  691MOL0     H91183  -1.481   1.083   3.800 -2.9202  2.8896 -0.8386
  691MOL0     H91184  -1.638   0.836   3.703 -0.0222 -0.1955 -0.3000
  691MOL0     H91185  -1.540   0.855   3.848  0.7484 -2.0105 -2.0932
  691MOL0     H91186  -1.782   0.867   3.902  0.7039  1.2579  0.4579
  691MOL0     H91187  -1.810   0.970   3.752  0.1063 -0.6933 -0.9970
  691MOL0     H91188  -1.738   1.168   3.884 -0.0796 -0.8030 -1.6396
  691MOL0     H91189  -1.654   1.056   3.996  0.0309 -1.0535  1.6350
  691MOL0     H91190  -1.859   0.970   4.078  1.9636 -0.5548 -0.9172
  691MOL0     H91191  -1.850   1.154   4.091  2.2805  0.4328 -1.1195
  691MOL0     H91192  -2.091   1.096   4.027 -1.9826 -3.8842 -1.4684
  691MOL0     H91193  -2.025   1.001   3.889  2.4147 -2.0961  0.9871
  691MOL0     H91194  -1.182   0.667   3.692 -0.0287  0.6127 -0.6470
  691MOL0     H91195  -1.001   0.558   3.776  2.5587 -0.2977 -1.0736
  691MOL0     H91196  -0.478   0.691   3.769  3.7176 -1.0310 -1.1973
  691MOL0     H91197  -0.273   0.717   3.884 -0.0061 -0.2988  1.7267
  691MOL0     H91198   1.597   0.139   4.068 -0.5169 -0.0859  0.2821
  691MOL0     H91199   1.836   0.173   4.111  1.2759  0.1592  0.1109
  691MOL0     H91200   2.119   0.197   4.544  2.0329 -0.9546  0.6152
  691MOL0     H91201   2.317   0.302   4.638  0.9688  0.9019  0.3062
  691MOL0     H91202   2.676   0.469   4.455 -0.3679 -0.4491 -1.3488
  691MOL0     H91203   2.644   0.323   4.364  0.6486  2.4917 -1.6095
  691MOL0     H91204   2.865   0.324   4.535  0.8914 -0.7204  3.5897
  691MOL0     H91205   2.742   0.308   4.652  0.6911 -2.4986  0.7481
  691MOL0     H91206   2.679   0.118   4.454 -0.2114 -0.7878  0.4767
  691MOL0     H91207   2.753   0.082   4.610 -2.0057 -2.5074 -1.9948
  691MOL0     H91208   2.982   0.115   4.503  2.9766 -5.3593 -1.0351
  691MOL0     H91209   2.897  -0.021   4.454  2.1730  0.2938 -0.7691
  691MOL0     H91210   2.958   0.251   4.111  3.5812 -0.4605  0.4774
  691MOL0     H91211   2.474   0.367   4.256  0.9371 -0.1357  0.3905
  691MOL0     H91212   2.270   0.332   4.156 -0.7115 -1.3169  0.0506
  692MOL0     O91213   7.716  11.050   2.978 -0.1154 -0.5249  0.1158
  692MOL0     C91214   7.820  11.110   3.001 -0.5637 -0.1286  0.2553
  692MOL0     O91215   7.827  11.245   3.032  0.5122 -0.2891  0.1252
  692MOL0     C91216   7.707  11.313   3.025 -0.0340  0.6103  0.3087
  692MOL0     C91217   7.644  11.367   3.142 -0.3099 -0.2026  0.3618
  692MOL0     C91218   7.523  11.434   3.126 -0.5682  0.4884 -0.0495
  692MOL0     C91219   7.471  11.470   2.997  0.0458  0.3890  0.1488
  692MOL0     O91220   7.356  11.558   2.981 -0.1080  0.6187 -0.1672
  692MOL0     C91221   7.261  11.527   2.881  1.2594 -0.5076  0.0043
  692MOL0     C91222   7.134  11.581   2.933 -0.0811  0.4463 -0.5557
  692MOL0     C91223   7.008  11.548   2.844  0.2601  0.5863 -0.7873
  692MOL0     C91224   6.888  11.650   2.871  0.2106 -1.5506 -0.0439
  692MOL0     C91225   6.786  11.639   2.763 -0.2699 -0.8808 -0.1660
  692MOL0     C91226   6.669  11.723   2.771 -0.0434 -0.0734  0.0763
  692MOL0     C91227   6.556  11.698   2.669 -0.6489  0.3599  0.2882
  692MOL0     C91228   6.593  11.658   2.522  0.1050 -0.5260  0.4030
  692MOL0     N91229   6.474  11.629   2.449 -1.2740 -0.0676  0.2129
  692MOL0     C91230   6.393  11.725   2.395  0.0768  0.0338 -0.2452
  692MOL0     C91231   6.304  11.661   2.319 -0.1042  0.1808  0.3965
  692MOL0     C91232   6.194  11.710   2.242 -0.3720 -1.2433  0.5927
  692MOL0     C91233   6.236  11.845   2.171  0.7982  0.2185  0.0439
  692MOL0     C91234   6.122  11.904   2.087  0.0124 -0.7171  0.4811
  692MOL0     C91235   6.087  11.822   1.964  0.4877  0.1140  0.3652
  692MOL0     O91236   6.215  11.786   1.902  1.1868 -0.2145 -0.3893
  692MOL0     C91237   6.214  11.704   1.795 -0.2520 -0.6688 -0.2210
  692MOL0     C91238   6.337  11.642   1.770 -0.1221  0.0397 -0.4392
  692MOL0     C91239   6.355  11.548   1.672  0.1971  0.8666  1.1149
  692MOL0     C91240   6.252  11.524   1.582  0.9098  0.2191  0.8115
  692MOL0     C91241   6.289  11.446   1.456  1.1274  0.2697 -0.0389
  692MOL0     O91242   6.377  11.352   1.471 -0.5004  0.3953  0.7324
  692MOL0     C91243   6.388  11.248   1.378 -0.1857 -0.4292  0.0136
  692MOL0     C91244   6.331  11.128   1.420  0.2736 -0.6826 -0.4533
  692MOL0     C91245   6.346  11.010   1.342  0.5265 -0.5897 -0.6678
  692MOL0     C91246   6.392  11.004   1.217 -0.7496  0.1302 -0.5869
  692MOL0     O91247   6.411  10.895   1.140  0.2034  0.7171 -0.3947
  692MOL0     C91248   6.446  10.904   0.994  0.0532  0.2320 -0.2308
  692MOL0     C91249   6.324  10.923   0.903  0.0166  0.0368 -0.0399
  692MOL0     C91250   6.360  11.034   0.804 -0.2049  0.6964 -0.5153
  692MOL0     C91251   6.234  11.096   0.732  0.1568  0.4785  0.1474
  692MOL0     C91252   6.147  10.989   0.644  0.2826 -0.6149 -0.5484
  692MOL0     C91253   6.052  11.047   0.549  0.4983  0.8510  0.4410
  692MOL0     C91254   5.993  10.935   0.454  0.7847 -0.6470 -0.4900
  692MOL0     C91255   5.915  11.003   0.343  0.3953 -0.7605 -0.0464
  692MOL0    Cl91256   5.805  11.135   0.388 -0.2279 -0.5646 -0.2619
  692MOL0     C91257   6.433  11.132   1.169 -0.3231  0.0660  0.5064
  692MOL0     C91258   6.427  11.251   1.247 -0.2372  0.5400 -0.3400
  692MOL0     O91259   6.210  11.450   1.363 -0.2758  0.2727  0.5591
  692MOL0     C91260   6.127  11.596   1.593  0.3540 -0.6898  0.0274
  692MOL0     C91261   6.110  11.678   1.702 -0.0694 -0.0997 -0.4453
  692MOL0     N91262   6.326  11.520   2.339 -0.5841 -1.1170 -0.3522
  692MOL0     N91263   6.434  11.510   2.406  0.1072  0.2737 -0.0114
  692MOL0     C91264   7.532  11.419   2.885 -0.1187  0.2188  0.2350
  692MOL0     C91265   7.644  11.336   2.894  0.0815  0.2149 -0.4092
  692MOL0     C91266   7.940  11.029   2.979 -0.3299  0.7360  0.4795
  692MOL0     C91267   7.935  10.889   2.983  0.5752  0.9483  0.8289
  692MOL0     C91268   8.046  10.808   2.981 -0.1468 -0.0030  0.0902
  692MOL0     C91269   8.175  10.865   2.991 -0.4277 -0.8374  0.2423
  692MOL0     O91270   8.291  10.809   2.972 -0.4571  0.7160 -0.9393
  692MOL0     C91271   8.288  10.664   2.996  0.5195 -0.3819  0.7487
  692MOL0     C91272   8.433  10.620   3.013  0.6141 -0.2991  0.1470
  692MOL0     C91273   8.493  10.667   3.149 -0.2648  0.3628 -0.1314
  692MOL0     C91274   8.615  10.572   3.172 -0.0481 -0.0329  0.7707
  692MOL0     C91275   8.712  10.606   3.065  0.1719  0.5604  0.0381
  692MOL0     C91276   8.795  10.652   2.986 -1.4762 -0.6230 -0.5483
  692MOL0     C91277   8.177  11.006   2.974 -0.3492  0.5647 -0.3107
  692MOL0     C91278   8.065  11.089   2.962  0.2013 -0.3252 -0.0131
  692MOL0     H91279   7.697  11.342   3.233  1.7140 -0.7257 -0.8968
  692MOL0     H91280   7.470  11.468   3.214  3.6607 -1.8263  3.8100
  692MOL0     H91281   7.249  11.420   2.864 -0.7048 -0.2036 -0.7369
  692MOL0     H91282   7.294  11.570   2.786 -0.7768  1.2365  0.0317
  692MOL0     H91283   7.158  11.686   2.952 -0.0546  0.1874  0.9762
  692MOL0     H91284   7.112  11.540   3.032 -3.0345 -1.6475 -1.9155
  692MOL0     H91285   6.975  11.446   2.864 -1.3584  0.9850 -1.2655
  692MOL0     H91286   7.045  11.563   2.742  2.2888 -3.6323 -0.8731
  692MOL0     H91287   6.827  11.641   2.961 -1.4182  1.2728 -0.7523
  692MOL0     H91288   6.931  11.750   2.878 -1.0215 -0.9336 -0.9363
  692MOL0     H91289   6.749  11.536   2.765 -0.0904 -0.9693  2.3687
  692MOL0     H91290   6.838  11.657   2.669  0.4767  1.3738  0.6053
  692MOL0     H91291   6.706  11.825   2.761  2.5640 -1.0203 -0.6967
  692MOL0     H91292   6.626  11.734   2.871 -1.6244 -0.9117 -0.4608
  692MOL0     H91293   6.489  11.627   2.718 -1.1856  0.7692  0.1653
  692MOL0     H91294   6.498  11.791   2.659  2.2609  2.1181 -1.8415
  692MOL0     H91295   6.655  11.568   2.528  1.1219  0.1980  1.1640
  692MOL0     H91296   6.664  11.723   2.469  0.6790  1.1890  3.1054
  692MOL0     H91297   6.405  11.833   2.395  2.2424 -0.1003  2.5752
  692MOL0     H91298   6.108  11.707   2.309  0.0896 -1.7637  1.1662
  692MOL0     H91299   6.176  11.627   2.172  0.9207 -1.5846  0.6383
  692MOL0     H91300   6.329  11.821   2.119  0.4108 -1.4322  0.0518
  692MOL0     H91301   6.254  11.921   2.248  0.8933 -2.3953  2.7983
  692MOL0     H91302   6.021  11.911   2.131 -0.2005 -0.8765  0.0181
  692MOL0     H91303   6.165  12.000   2.059 -1.7116 -0.3056 -0.9007
  692MOL0     H91304   6.029  11.870   1.885  1.6977 -2.1391 -2.0368
  692MOL0     H91305   6.041  11.727   1.995 -3.0248  0.9541 -1.7590
  692MOL0     H91306   6.406  11.656   1.853 -0.3658 -0.4326 -0.1483
  692MOL0     H91307   6.451  11.498   1.662 -1.4707 -2.6308  1.0725
  692MOL0     H91308   6.291  11.120   1.521 -1.1213  2.2545 -0.6811
  692MOL0     H91309   6.296  10.922   1.383  0.6997 -0.6527 -0.5897
  692MOL0     H91310   6.480  10.805   0.963 -1.2491 -1.2476  2.6589
  692MOL0     H91311   6.527  10.975   0.975  0.9460  1.0519  5.0975
  692MOL0     H91312   6.237  10.941   0.967 -1.6290  1.8075 -2.5642
  692MOL0     H91313   6.314  10.831   0.845  4.3006 -0.9146  0.3604
  692MOL0     H91314   6.426  10.996   0.726  0.9850  1.0914  0.2724
  692MOL0     H91315   6.419  11.110   0.856  0.5356  1.1671 -1.9861
  692MOL0     H91316   6.171  11.144   0.806 -0.4202 -0.2540  0.1407
  692MOL0     H91317   6.275  11.167   0.659  0.8899  0.0808  0.1551
  692MOL0     H91318   6.095  10.931   0.721  0.5505 -2.0909 -1.4306
  692MOL0     H91319   6.213  10.917   0.594  0.4917 -1.0496  0.3263
  692MOL0     H91320   6.110  11.114   0.486  0.8848  0.2403  0.1457
  692MOL0     H91321   5.968  11.094   0.603 -0.5198 -1.8947  1.4097
  692MOL0     H91322   6.069  10.865   0.419  1.1242  0.3109 -1.7364
  692MOL0     H91323   5.920  10.871   0.505 -2.7630  2.0700 -1.7252
  692MOL0     H91324   5.847  10.926   0.306  1.6382 -2.1059  0.3256
  692MOL0     H91325   5.985  11.030   0.263  0.9234  1.3389  1.0575
  692MOL0     H91326   6.473  11.150   1.069 -0.6048  4.6412  1.0076
  692MOL0     H91327   6.443  11.354   1.217  0.7345  0.7356  0.7719
  692MOL0     H91328   6.053  11.565   1.519 -0.1466 -0.6389  0.5015
  692MOL0     H91329   6.024  11.743   1.712  0.0591 -0.0244  0.2174
  692MOL0     H91330   7.505  11.452   2.785  1.7725  5.6442  1.2145
  692MOL0     H91331   7.684  11.294   2.803 -1.1971 -2.6414  0.2330
  692MOL0     H91332   7.835  10.847   2.971 -0.5209  2.4791  3.6180
  692MOL0     H91333   8.036  10.701   2.966  0.0698 -0.1514  0.9497
  692MOL0     H91334   8.234  10.630   2.907 -0.7012  2.4092  0.3251
  692MOL0     H91335   8.227  10.634   3.081 -2.4266 -1.3403 -1.5247
  692MOL0     H91336   8.421  10.511   3.017  1.1644 -0.5435 -2.5674
  692MOL0     H91337   8.503  10.638   2.931  0.9538 -2.0224  0.0168
  692MOL0     H91338   8.417  10.644   3.224  0.8401 -0.2853  0.8323
  692MOL0     H91339   8.518  10.773   3.153  0.1645  0.2809 -0.4824
  692MOL0     H91340   8.665  10.600   3.265  2.2864 -1.9120  0.1577
  692MOL0     H91341   8.586  10.466   3.176 -3.2311  0.7406  2.1123
  692MOL0     H91342   8.866  10.698   2.920  0.6631 -0.8174  1.4790
  692MOL0     H91343   8.276  11.051   2.968  0.0002 -0.3844 -4.2657
  692MOL0     H91344   8.065  11.196   2.945 -3.0558 -0.4673 -1.7689
  693MOL0     O91345   2.943   9.797   9.680  0.2792  0.0451  0.2314
  693MOL0     C91346   2.928   9.773   9.562 -0.5971 -0.0140 -0.3163
  693MOL0     O91347   2.813   9.745   9.492 -0.5525 -0.0360 -0.1477
  693MOL0     C91348   2.689   9.779   9.538 -0.2411 -0.1749 -0.1728
  693MOL0     C91349   2.664   9.880   9.631 -0.0584 -0.2400 -0.9663
  693MOL0     C91350   2.534   9.908   9.676  0.5198 -0.0319 -0.4446
  693MOL0     C91351   2.425   9.829   9.627 -0.0006  0.0999  0.4062
  693MOL0     O91352   2.298   9.852   9.688  0.8452  0.4091 -0.2294
  693MOL0     C91353   2.268   9.740   9.773 -0.3075 -0.2400  0.8282
  693MOL0     C91354   2.368   9.733   9.887 -0.5364 -1.0280  0.0316
  693MOL0     C91355   2.324   9.645  10.007  0.0604 -0.0412  0.0730
  693MOL0     C91356   2.210   9.709  10.095 -0.1820 -0.2693  0.4664
  693MOL0     C91357   2.205   9.648  10.236  0.3636  0.5491  0.1803
  693MOL0     C91358   2.151   9.507  10.220  0.9299  0.2576 -0.3564
  693MOL0     C91359   2.133   9.450  10.365 -1.2348  0.0587 -0.5045
  693MOL0     C91360   2.147   9.308  10.384  0.4949 -0.1271 -0.4151
  693MOL0     N91361   2.070   9.280  10.511 -0.2038 -1.1315  0.2469
  693MOL0     C91362   1.946   9.228  10.526  0.7079 -0.0333 -0.1312
  693MOL0     C91363   1.946   9.202  10.659 -0.6019  0.1719 -0.2952
  693MOL0     C91364   1.853   9.106  10.738 -1.1934  0.4220 -0.0529
  693MOL0     C91365   1.906   8.962  10.724 -0.3360 -0.1470 -0.4695
  693MOL0     C91366   2.031   8.926  10.802 -0.4211 -0.0078 -0.7749
  693MOL0     C91367   2.094   8.789  10.758  0.5699  0.0657 -1.0708
  693MOL0     O91368   2.204   8.741  10.835  0.6834  0.6112  0.0774
  693MOL0     C91369   2.256   8.615  10.792 -0.9434  0.5987  0.1788
  693MOL0     C91370   2.367   8.573  10.852  0.3497 -0.2375 -0.3302
  693MOL0     C91371   2.424   8.445  10.822  0.5517  0.1380 -0.1698
  693MOL0     C91372   2.356   8.362  10.724 -0.4430  0.3997 -0.5983
  693MOL0     C91373   2.412   8.229  10.688  0.0181 -0.2253 -0.2481
  693MOL0     O91374   2.526   8.187  10.749 -0.5060 -0.8974  0.0917
  693MOL0     C91375   2.599   8.086  10.686  0.5150  0.5568 -0.3256
  693MOL0     C91376   2.653   8.109  10.560  0.6293 -0.4076 -0.4596
  693MOL0     C91377   2.739   8.017  10.504  0.3624 -0.1524 -0.5993
  693MOL0     C91378   2.769   7.899  10.569 -0.5388 -0.6622 -0.6500
  693MOL0     O91379   2.855   7.816  10.506  0.3318  0.1479 -0.2298
  693MOL0     C91380   2.908   7.708  10.581 -0.5204  0.0806 -0.0766
  693MOL0     C91381   3.043   7.662  10.520  0.3605 -1.0907  0.9029
  693MOL0     C91382   3.079   7.524  10.564 -0.6892 -0.3584  0.2632
  693MOL0     C91383   3.210   7.468  10.500  1.1776 -0.3421  0.5175
  693MOL0     C91384   3.208   7.317  10.509  0.9279 -0.3329 -0.0958
  693MOL0     C91385   3.352   7.260  10.469  0.5163  0.4294 -0.0347
  693MOL0     C91386   3.385   7.267  10.323  0.2807 -0.2361  0.4821
  693MOL0     C91387   3.482   7.150  10.288  0.0097 -0.0783 -0.2353
  693MOL0    Cl91388   3.379   7.002  10.259  0.2132 -0.6589 -0.0663
  693MOL0     C91389   2.705   7.874  10.691 -0.8501 -1.2040 -0.2484
  693MOL0     C91390   2.635   7.972  10.758 -0.3287  0.0886  0.3635
  693MOL0     O91391   2.355   8.174  10.597  0.0178  0.0782  0.2483
  693MOL0     C91392   2.241   8.414  10.659  0.2409 -0.3035 -0.1106
  693MOL0     C91393   2.194   8.534  10.691  0.1635  0.5282  0.7156
  693MOL0     N91394   2.063   9.229  10.718  0.0293 -0.6432  0.2288
  693MOL0     N91395   2.132   9.283  10.631 -0.9234 -0.7885  0.4447
  693MOL0     C91396   2.450   9.739   9.521 -0.5865 -0.0121 -0.8707
  693MOL0     C91397   2.584   9.703   9.479 -0.3165 -0.3675 -0.4509
  693MOL0     C91398   3.067   9.772   9.487  0.5462  0.1179  0.2020
  693MOL0     C91399   3.075   9.734   9.349  0.8760  0.8709  1.0472
  693MOL0     C91400   3.194   9.724   9.285 -0.7017 -0.4355  0.3579
  693MOL0     C91401   3.315   9.770   9.347  1.7429  0.0745  0.5752
  693MOL0     O91402   3.423   9.752   9.267  0.6354 -0.3598 -0.0071
  693MOL0     C91403   3.548   9.791   9.318  0.4087 -0.6957 -0.3322
  693MOL0     C91404   3.657   9.706   9.265  0.9619 -0.7280  0.8099
  693MOL0     C91405   3.622   9.549   9.272  0.4132 -0.3431 -0.3387
  693MOL0     C91406   3.533   9.501   9.150 -0.2825  0.2261  0.2661
  693MOL0     C91407   3.501   9.362   9.161  1.1869 -0.2428  0.0192
  693MOL0     C91408   3.481   9.246   9.153 -0.6331 -0.1298  0.2168
  693MOL0     C91409   3.306   9.824   9.478  0.6850 -0.1480  0.4277
  693MOL0     C91410   3.180   9.822   9.553  0.1678  0.2939  0.8259
  693MOL0     H91411   2.742   9.941   9.677 -1.0069  0.8924 -0.7924
  693MOL0     H91412   2.519   9.979   9.757 -1.8532  2.4665 -2.8561
  693MOL0     H91413   2.276   9.652   9.709  0.4686  1.0139 -0.8843
  693MOL0     H91414   2.164   9.763   9.799 -0.0306  0.1283  1.6198
  693MOL0     H91415   2.368   9.837   9.923 -0.0569 -1.4183  1.2078
  693MOL0     H91416   2.474   9.711   9.872 -0.4454 -0.9406  0.5154
  693MOL0     H91417   2.407   9.644  10.078  0.1382  1.2920  0.0374
  693MOL0     H91418   2.306   9.541   9.980 -0.6705  0.6265 -2.3150
  693MOL0     H91419   2.228   9.815  10.113 -1.1576  0.0046 -0.1270
  693MOL0     H91420   2.118   9.702  10.037  1.1225  0.5606 -1.8215
  693MOL0     H91421   2.148   9.721  10.295 -0.2000  0.2609 -0.0008
  693MOL0     H91422   2.302   9.644  10.287  1.1607 -0.9311 -1.3489
  693MOL0     H91423   2.214   9.440  10.161 -0.4947 -1.7188  0.2729
  693MOL0     H91424   2.054   9.502  10.170  0.5798 -0.8273  0.3964
  693MOL0     H91425   2.212   9.494  10.426  0.7131 -1.7955 -1.5830
  693MOL0     H91426   2.037   9.489  10.402 -0.4866  2.3274 -0.7605
  693MOL0     H91427   2.251   9.282  10.405 -0.0374 -0.1393  2.7978
  693MOL0     H91428   2.105   9.243  10.307  0.5678  0.3540 -0.8667
  693MOL0     H91429   1.883   9.188  10.447  0.1343  1.3489 -0.4043
  693MOL0     H91430   1.747   9.124  10.720 -1.3883  0.4055  0.9994
  693MOL0     H91431   1.865   9.129  10.844  0.4546 -0.7516  0.0462
  693MOL0     H91432   1.920   8.940  10.617  0.7010  1.0033 -0.5842
  693MOL0     H91433   1.834   8.888  10.761  1.4945 -2.5663 -1.4297
  693MOL0     H91434   2.121   8.986  10.813 -1.0647  0.7721  0.5345
  693MOL0     H91435   1.991   8.926  10.904  2.9155 -0.1459  0.6654
  693MOL0     H91436   2.129   8.796  10.655 -0.5251  0.6255 -1.4153
  693MOL0     H91437   2.012   8.717  10.753 -0.8993  1.6325 -0.7265
  693MOL0     H91438   2.410   8.640  10.926 -5.5840  1.9194  1.8290
  693MOL0     H91439   2.521   8.418  10.863  1.4712  2.7094 -0.4431
  693MOL0     H91440   2.637   8.196  10.497  1.3122 -0.4988 -0.7669
  693MOL0     H91441   2.782   8.039  10.407 -1.6018 -2.3582 -2.0754
  693MOL0     H91442   2.830   7.632  10.589 -2.3458  2.0161  1.8528
  693MOL0     H91443   2.936   7.719  10.686  1.8272  0.0960 -0.6511
  693MOL0     H91444   3.118   7.735  10.553  0.8054  0.1236 -2.4153
  693MOL0     H91445   3.043   7.668  10.411 -1.6601  1.2725  0.9380
  693MOL0     H91446   2.993   7.461  10.539 -0.0208 -0.1699 -2.8358
  693MOL0     H91447   3.082   7.531  10.673 -2.2994  1.2634  0.2475
  693MOL0     H91448   3.230   7.508  10.401  2.9872  1.8211  1.6530
  693MOL0     H91449   3.290   7.506  10.565 -0.8821  0.4826  2.7209
  693MOL0     H91450   3.133   7.272  10.443  0.0670 -1.8534  1.8344
  693MOL0     H91451   3.172   7.282  10.606 -0.4060 -3.1665 -1.5017
  693MOL0     H91452   3.364   7.156  10.500  3.4607  0.4913 -0.7055
  693MOL0     H91453   3.429   7.309  10.530  0.4989  0.0490  0.2954
  693MOL0     H91454   3.298   7.256  10.258 -0.3548 -0.3141  1.3359
  693MOL0     H91455   3.438   7.362  10.310  2.7305 -0.8510  4.3721
  693MOL0     H91456   3.564   7.134  10.359  1.0735  2.9349 -0.6026
  693MOL0     H91457   3.528   7.183  10.194  1.1305  1.3942  0.7787
  693MOL0     H91458   2.721   7.776  10.736  1.7517 -0.6711  0.0905
  693MOL0     H91459   2.592   7.967  10.858 -1.6232  2.6485  0.0370
  693MOL0     H91460   2.192   8.360  10.578  2.6388  0.1235 -1.9586
  693MOL0     H91461   2.106   8.570  10.640 -0.1630  1.0349  1.6039
  693MOL0     H91462   2.373   9.666   9.496 -1.5512  0.1938  1.3130
  693MOL0     H91463   2.606   9.616   9.418 -1.6370  0.7594 -2.6449
  693MOL0     H91464   2.990   9.701   9.291  0.0230  3.1664  0.8607
  693MOL0     H91465   3.207   9.709   9.178 -0.2026 -0.0456  0.3590
  693MOL0     H91466   3.556   9.779   9.426  0.4963 -3.1977 -0.5649
  693MOL0     H91467   3.568   9.896   9.296 -0.5612 -0.5250 -0.4333
  693MOL0     H91468   3.674   9.747   9.164 -0.6728  0.1658  0.8694
  693MOL0     H91469   3.747   9.729   9.323  2.6016  0.9620 -2.1206
  693MOL0     H91470   3.571   9.547   9.369 -0.3931  4.0918 -0.4595
  693MOL0     H91471   3.719   9.500   9.275  0.8452  0.4008 -1.4140
  693MOL0     H91472   3.442   9.557   9.127  0.1746  0.4631 -1.0135
  693MOL0     H91473   3.603   9.506   9.067  1.3529  0.5075  1.6099
  693MOL0     H91474   3.480   9.139   9.166  2.2109 -0.1307  1.1715
  693MOL0     H91475   3.396   9.865   9.522  0.2434  0.2059  1.0200
  693MOL0     H91476   3.178   9.863   9.654  2.1491  0.3839  0.8783
  694MOL0     O91477   3.618   0.347   2.877 -0.6779 -0.5631 -0.3388
  694MOL0     C91478   3.637   0.464   2.916  0.0553  0.2502  0.2647
  694MOL0     O91479   3.546   0.539   2.985 -0.0060 -0.1079 -0.3616
  694MOL0     C91480   3.432   0.473   3.032  0.1493  0.0016  0.0326
  694MOL0     C91481   3.307   0.485   2.958 -0.4477  0.3202 -1.6321
  694MOL0     C91482   3.194   0.421   3.003 -0.4755  0.1334 -0.8795
  694MOL0     C91483   3.194   0.356   3.131 -0.5113  0.8898 -0.0289
  694MOL0     O91484   3.065   0.326   3.186 -0.8307  0.8446  0.8604
  694MOL0     C91485   3.032   0.391   3.311 -0.1138 -0.4341 -0.3706
  694MOL0     C91486   2.897   0.356   3.356  0.2807  0.7365 -1.0045
  694MOL0     C91487   2.841   0.210   3.331 -0.3584 -0.0405 -0.2067
  694MOL0     C91488   2.725   0.183   3.419 -0.2404  0.6054  0.1043
  694MOL0     C91489   2.634   0.065   3.382 -0.6241 -0.8059  0.6139
  694MOL0     C91490   2.544   0.021   3.497 -0.4021 -0.0849  0.6651
  694MOL0     C91491   2.399   0.033   3.446  0.2399  0.3072 -0.3088
  694MOL0     C91492   2.361   0.182   3.436 -0.9141 -0.8576  0.2700
  694MOL0     N91493   2.216   0.191   3.451  0.0287  0.0980 -0.4121
  694MOL0     C91494   2.157   0.230   3.572  0.0520 -0.9405 -0.2389
  694MOL0     C91495   2.023   0.197   3.551  0.2606 -0.1060 -0.5668
  694MOL0     C91496   1.894   0.219   3.632 -0.3276 -0.5993 -0.0192
  694MOL0     C91497   1.860   0.092   3.720 -0.6863 -0.5036 -0.8280
  694MOL0     C91498   1.817  -0.023   3.639  0.0198 -0.3444 -0.7059
  694MOL0     C91499   1.793  -0.148   3.730  1.1361  0.0156 -0.6114
  694MOL0     O91500   1.690  -0.124   3.843  0.5116 -0.2109  0.2876
  694MOL0     C91501   1.549  -0.106   3.823 -0.7755 -0.1343  0.0369
  694MOL0     C91502   1.472  -0.074   3.931 -0.3562  0.4319 -0.3085
  694MOL0     C91503   1.345  -0.037   3.926 -0.6438  0.0761  0.2015
  694MOL0     C91504   1.281  -0.048   3.801  1.7664  1.2428  0.8032
  694MOL0     C91505   1.137  -0.020   3.776  1.2780 -0.7581 -0.6081
  694MOL0     O91506   1.069  -0.112   3.703 -1.2247 -0.3662  0.0588
  694MOL0     C91507   0.940  -0.084   3.679  0.1179 -0.0065 -0.0956
  694MOL0     C91508   0.894  -0.066   3.553 -0.7450  0.8150  0.6772
  694MOL0     C91509   0.757  -0.057   3.537  0.2631  0.0100 -0.5390
  694MOL0     C91510   0.662  -0.067   3.643  0.4379 -0.0090 -0.1209
  694MOL0     O91511   0.527  -0.058   3.621  0.6871  0.1719 -0.3549
  694MOL0     C91512   0.480  -0.072   3.484  0.3635 -0.0847  0.5447
  694MOL0     C91513   0.335  -0.122   3.502 -0.3749  0.3781 -0.5595
  694MOL0     C91514   0.253  -0.078   3.372  0.0798  0.7287 -1.0760
  694MOL0     C91515   0.121  -0.141   3.381  0.6616  1.0796  1.2009
  694MOL0     C91516   0.015  -0.035   3.397  0.1431  0.3805 -1.0027
  694MOL0     C91517  -0.137  -0.093   3.400 -0.7249  0.6279 -0.1344
  694MOL0     C91518  -0.249   0.005   3.437 -0.1496 -0.5594  0.7082
  694MOL0     C91519  -0.342  -0.054   3.551  0.4194  0.4584 -0.4186
  694MOL0    Cl91520  -0.444  -0.188   3.498  0.2857 -0.4702 -0.8689
  694MOL0     C91521   0.707  -0.074   3.774  0.1517 -0.9552 -0.2199
  694MOL0     C91522   0.847  -0.093   3.790  0.3667  1.2141 -0.7891
  694MOL0     O91523   1.080   0.074   3.838  0.1249 -0.1852 -0.1486
  694MOL0     C91524   1.358  -0.090   3.689  0.5005 -0.8204 -0.1050
  694MOL0     C91525   1.488  -0.110   3.703 -0.5483  0.2559 -0.5867
  694MOL0     N91526   2.017   0.150   3.421  1.3141  0.4601 -0.3954
  694MOL0     N91527   2.126   0.145   3.358  0.2004 -0.4177  0.8066
  694MOL0     C91528   3.311   0.344   3.203  0.2620 -0.3447 -0.4763
  694MOL0     C91529   3.426   0.398   3.153 -0.1806 -0.1391 -0.2176
  694MOL0     C91530   3.775   0.510   2.897 -0.9750 -0.1656  0.0413
  694MOL0     C91531   3.862   0.451   2.797  0.2719  0.1312 -0.0123
  694MOL0     C91532   3.996   0.478   2.787  0.1006  0.1916 -0.9870
  694MOL0     C91533   4.043   0.591   2.861 -0.2092  0.1730  0.7215
  694MOL0     O91534   4.167   0.642   2.861 -1.2677 -0.3262  0.4976
  694MOL0     C91535   4.280   0.561   2.827 -0.8139 -0.8780 -0.3500
  694MOL0     C91536   4.414   0.620   2.883  0.6749  0.2163  0.4863
  694MOL0     C91537   4.395   0.649   3.040 -0.7118  0.7789 -0.0504
  694MOL0     C91538   4.393   0.801   3.056 -0.0428  1.1622  0.1955
  694MOL0     C91539   4.524   0.867   3.028  0.3163 -0.1269 -0.1170
  694MOL0     C91540   4.626   0.919   3.017  0.7907 -0.3220  1.8893
  694MOL0     C91541   3.951   0.672   2.942 -1.0450 -0.2546 -0.0541
  694MOL0     C91542   3.824   0.622   2.972  0.5797  0.4666 -0.6768
  694MOL0     H91543   3.291   0.536   2.863  3.0412 -2.0366 -3.6932
  694MOL0     H91544   3.109   0.424   2.935 -2.3446 -3.7088  0.9650
  694MOL0     H91545   3.035   0.499   3.297 -0.2727 -0.3405  0.2889
  694MOL0     H91546   3.095   0.354   3.392 -1.6197  0.6296  1.3690
  694MOL0     H91547   2.822   0.421   3.309  0.8834  0.7212 -2.0196
  694MOL0     H91548   2.887   0.378   3.462 -1.3797 -1.8078 -0.5214
  694MOL0     H91549   2.913   0.129   3.344 -1.8609 -1.2543  0.8225
  694MOL0     H91550   2.810   0.203   3.226 -3.4269 -0.5942  0.6385
  694MOL0     H91551   2.767   0.180   3.520  0.9496 -0.5469 -0.3878
  694MOL0     H91552   2.664   0.273   3.424  1.9008  2.1723 -0.2645
  694MOL0     H91553   2.695  -0.020   3.350  1.0908  0.8440 -0.7219
  694MOL0     H91554   2.571   0.095   3.298  3.8797  0.7318 -2.5814
  694MOL0     H91555   2.538   0.086   3.585 -1.8437  2.9355 -1.4874
  694MOL0     H91556   2.570  -0.082   3.523  0.3309  0.4660  2.2607
  694MOL0     H91557   2.377  -0.000   3.344 -0.8436  2.1325 -0.7040
  694MOL0     H91558   2.333  -0.025   3.510 -0.0542  0.5828 -0.3594
  694MOL0     H91559   2.372   0.209   3.330 -3.2098 -0.9057 -0.0367
  694MOL0     H91560   2.424   0.249   3.496  0.5276 -2.1944  0.3004
  694MOL0     H91561   2.199   0.295   3.649  0.6626 -0.1609 -1.1945
  694MOL0     H91562   1.814   0.245   3.561 -2.0545  1.8950  2.5905
  694MOL0     H91563   1.887   0.306   3.699 -0.6239  0.3011 -1.1876
  694MOL0     H91564   1.789   0.133   3.793  1.6528 -0.7520  1.7397
  694MOL0     H91565   1.948   0.070   3.781 -2.4178 -0.5650  1.8510
  694MOL0     H91566   1.738   0.016   3.575  3.1690  4.3339 -2.2256
  694MOL0     H91567   1.896  -0.045   3.566  1.2790  2.0509 -0.1641
  694MOL0     H91568   1.885  -0.160   3.788  0.6326 -2.8366 -0.2677
  694MOL0     H91569   1.772  -0.239   3.672 -2.6549  0.1084  0.3158
  694MOL0     H91570   1.513  -0.074   4.032 -1.6839  2.4057  0.3093
  694MOL0     H91571   1.295  -0.002   4.016 -2.5870 -2.0086  0.0298
  694MOL0     H91572   0.971  -0.058   3.477 -1.5684 -0.3246 -0.2929
  694MOL0     H91573   0.725  -0.049   3.434 -1.3024 -0.1601 -0.0790
  694MOL0     H91574   0.529  -0.153   3.430 -1.0285 -0.8427  0.3797
  694MOL0     H91575   0.485   0.021   3.426  0.3018 -2.3775 -3.4654
  694MOL0     H91576   0.281  -0.093   3.592 -4.5956  1.1101 -3.0492
  694MOL0     H91577   0.336  -0.232   3.498  0.3403  0.3109  0.9179
  694MOL0     H91578   0.313  -0.121   3.292  4.3930  2.2620  1.0166
  694MOL0     H91579   0.239   0.030   3.360 -1.2870  0.9339  1.4816
  694MOL0     H91580   0.101  -0.202   3.292 -0.1516 -2.9842  3.8961
  694MOL0     H91581   0.105  -0.217   3.458  1.5976 -1.6252 -1.0916
  694MOL0     H91582   0.029   0.029   3.309  4.4998  1.5040  0.2498
  694MOL0     H91583   0.037   0.032   3.480 -1.4486  1.6504 -1.5520
  694MOL0     H91584  -0.129  -0.176   3.471 -0.1800  2.0079  1.4857
  694MOL0     H91585  -0.167  -0.144   3.308 -3.4877 -1.7948  1.9114
  694MOL0     H91586  -0.211   0.101   3.474  1.8503 -0.2245 -1.8921
  694MOL0     H91587  -0.292   0.039   3.343  1.8461  2.7815  0.8107
  694MOL0     H91588  -0.413   0.027   3.574  1.0412  1.9676 -3.2955
  694MOL0     H91589  -0.278  -0.092   3.631  4.3573 -2.3098 -4.4487
  694MOL0     H91590   0.627  -0.077   3.847 -1.1636 -0.7506 -1.5977
  694MOL0     H91591   0.885  -0.124   3.887 -0.3252 -0.3598 -0.9853
  694MOL0     H91592   1.302  -0.102   3.596  0.0170 -1.0069  0.2083
  694MOL0     H91593   1.554  -0.145   3.624  2.7725  0.2100  1.9702
  694MOL0     H91594   3.310   0.269   3.282 -1.2375 -1.1683 -1.2192
  694MOL0     H91595   3.523   0.383   3.199  0.9472 -1.1767 -2.7376
  694MOL0     H91596   3.820   0.370   2.738  0.4144 -0.6879  0.9762
  694MOL0     H91597   4.064   0.420   2.726 -1.3734 -0.6608 -1.8799
  694MOL0     H91598   4.281   0.542   2.719 -5.0817  0.7880 -0.8726
  694MOL0     H91599   4.254   0.470   2.882 -1.2965 -0.3722  0.2679
  694MOL0     H91600   4.501   0.556   2.864  0.0179 -0.2940 -1.0106
  694MOL0     H91601   4.444   0.709   2.828 -0.5139 -0.2637 -1.0135
  694MOL0     H91602   4.476   0.615   3.105 -0.9793 -0.7138 -0.4710
  694MOL0     H91603   4.303   0.601   3.075  0.5581 -2.1632 -0.4796
  694MOL0     H91604   4.316   0.834   2.986  0.1448 -1.8352 -1.6235
  694MOL0     H91605   4.365   0.824   3.159 -1.1785  0.3924  0.0795
  694MOL0     H91606   4.720   0.960   2.985 -2.0266  4.8353 -1.2697
  694MOL0     H91607   3.984   0.770   2.975  0.9874 -0.7438 -0.4530
  694MOL0     H91608   3.757   0.671   3.042  0.2832 -1.2040  0.2653
  695MOL0     O91609   7.278   4.111   7.904 -0.1450 -0.4431 -0.5678
  695MOL0     C91610   7.222   4.013   7.962  0.0181  0.1238 -0.3037
  695MOL0     O91611   7.100   4.014   8.020 -0.1696 -0.6693  0.3124
  695MOL0     C91612   7.001   4.105   7.979  0.1285 -0.1145  0.1797
  695MOL0     C91613   6.899   4.136   8.071 -0.1175 -0.2961  0.4030
  695MOL0     C91614   6.799   4.229   8.039 -0.3191  0.0914 -0.6472
  695MOL0     C91615   6.791   4.294   7.919 -0.1268 -0.0100  0.2683
  695MOL0     O91616   6.690   4.386   7.903  0.3798  0.9655 -0.2475
  695MOL0     C91617   6.689   4.459   7.785 -0.3049 -0.3314  0.9027
  695MOL0     C91618   6.598   4.585   7.800  0.3513 -1.0420  0.5285
  695MOL0     C91619   6.618   4.678   7.922 -0.6929 -0.6117 -0.6000
  695MOL0     C91620   6.528   4.804   7.922  0.1744  0.3587  0.3543
  695MOL0     C91621   6.556   4.896   8.039  0.0765  0.2526  0.8441
  695MOL0     C91622   6.698   4.969   8.015  0.0875 -0.4094 -0.3337
  695MOL0     C91623   6.725   5.043   8.154  0.0361  0.2126  0.0123
  695MOL0     C91624   6.853   5.122   8.169  0.4029  0.1795  0.4907
  695MOL0     N91625   6.970   5.077   8.094 -0.3528 -0.6365  0.3621
  695MOL0     C91626   7.086   5.026   8.157 -0.2373  0.8318  0.2079
  695MOL0     C91627   7.176   5.036   8.063 -0.9266  0.3337  0.1447
  695MOL0     C91628   7.317   5.001   8.090 -0.0575  1.2401  0.0310
  695MOL0     C91629   7.407   5.126   8.069 -0.4759  0.2281  0.2500
  695MOL0     C91630   7.540   5.125   8.156  0.4243 -0.3689  0.0611
  695MOL0     C91631   7.618   4.997   8.135 -0.0269  0.5237  0.0126
  695MOL0     O91632   7.757   5.026   8.172  0.1481  0.1876 -0.3829
  695MOL0     C91633   7.848   4.923   8.177 -0.2654  0.8551 -0.2393
  695MOL0     C91634   7.988   4.951   8.179  0.4871  0.0269  0.2908
  695MOL0     C91635   8.079   4.845   8.179  0.0090  0.7735 -1.3558
  695MOL0     C91636   8.050   4.712   8.177  0.5674  0.0114  0.0955
  695MOL0     C91637   8.155   4.597   8.193  0.1037  0.2721  0.2432
  695MOL0     O91638   8.293   4.624   8.218  0.0063 -0.0070 -0.1765
  695MOL0     C91639   8.390   4.532   8.193 -0.6273  0.0411  1.8653
  695MOL0     C91640   8.505   4.525   8.276  0.2162 -0.2734  0.6166
  695MOL0     C91641   8.614   4.447   8.235  0.4594  0.3266  0.5845
  695MOL0     C91642   8.607   4.360   8.123  0.2508 -0.6397 -0.0576
  695MOL0     O91643   8.705   4.274   8.086  0.1981 -0.1862 -0.6681
  695MOL0     C91644   8.669   4.138   8.095 -0.9447  0.1785  0.3299
  695MOL0     C91645   8.795   4.053   8.065  0.2447  0.9110 -0.6730
  695MOL0     C91646   8.845   4.067   7.925  0.3033 -0.9231  0.2525
  695MOL0     C91647   8.952   3.963   7.898 -1.4835 -0.1005 -0.2288
  695MOL0     C91648   8.942   3.898   7.760 -0.0312  1.4281  0.4574
  695MOL0     C91649   8.966   3.972   7.628 -0.0350  0.2678  0.5281
  695MOL0     C91650   8.979   3.886   7.511 -0.7437  0.1228  0.2865
  695MOL0     C91651   9.119   3.822   7.501 -0.6014  0.3062  0.2920
  695MOL0    Cl91652   9.246   3.947   7.494  0.1197  0.1269 -0.1910
  695MOL0     C91653   8.492   4.366   8.041  0.5171  0.1615 -0.1938
  695MOL0     C91654   8.390   4.459   8.070  1.1977  0.3407  0.5962
  695MOL0     O91655   8.105   4.484   8.180 -0.2072  0.1787 -0.5555
  695MOL0     C91656   7.911   4.687   8.161  0.6223  0.3948  0.3254
  695MOL0     C91657   7.812   4.787   8.165 -0.6987 -0.9107  0.0696
  695MOL0     N91658   7.125   5.097   7.950 -0.4920 -0.0106 -0.3781
  695MOL0     N91659   6.998   5.118   7.965 -0.0214 -0.5701 -0.3500
  695MOL0     C91660   6.892   4.261   7.818 -0.3521 -0.9342 -0.3125
  695MOL0     C91661   6.995   4.173   7.843  0.2983 -0.1623 -0.4800
  695MOL0     C91662   7.312   3.895   8.001  0.9418 -0.1530 -0.0130
  695MOL0     C91663   7.259   3.800   8.085 -0.6229  1.3279  0.5696
  695MOL0     C91664   7.335   3.682   8.103 -0.9260  0.1597  0.5683
  695MOL0     C91665   7.466   3.667   8.047  0.9523 -0.0430 -0.5686
  695MOL0     O91666   7.522   3.551   8.087  0.9824 -0.3825 -0.6732
  695MOL0     C91667   7.631   3.495   8.010 -0.8589 -0.8104  0.2088
  695MOL0     C91668   7.712   3.396   8.090  0.1418  0.6736 -0.3369
  695MOL0     C91669   7.839   3.350   8.007  0.2804 -0.3876  0.2141
  695MOL0     C91670   7.927   3.256   8.081 -0.6270 -0.1539 -0.5097
  695MOL0     C91671   8.041   3.207   8.003 -0.1269 -0.4100 -0.0309
  695MOL0     C91672   8.148   3.189   7.942  0.1022  0.8315 -0.0842
  695MOL0     C91673   7.516   3.765   7.973 -0.4425  0.3304 -0.6485
  695MOL0     C91674   7.445   3.879   7.949  1.6666  0.1416 -0.4146
  695MOL0     H91675   6.902   4.101   8.173  0.3509  0.5182  0.6796
  695MOL0     H91676   6.727   4.261   8.113 -0.5815 -1.4081 -0.2326
  695MOL0     H91677   6.652   4.401   7.700  0.3796  2.4186 -1.4068
  695MOL0     H91678   6.789   4.495   7.761 -0.7599  2.5800  2.8865
  695MOL0     H91679   6.493   4.554   7.800 -0.5402  1.3737 -2.8050
  695MOL0     H91680   6.629   4.646   7.715  5.3140  0.9410  3.3678
  695MOL0     H91681   6.724   4.707   7.925 -1.2767  1.6458  0.7808
  695MOL0     H91682   6.591   4.627   8.014  3.0532 -1.5356  0.1585
  695MOL0     H91683   6.526   4.864   7.831 -0.7161  0.0751  0.1701
  695MOL0     H91684   6.427   4.764   7.941 -0.2349  0.5018 -1.3220
  695MOL0     H91685   6.545   4.839   8.131 -3.6635 -2.2014 -0.8775
  695MOL0     H91686   6.474   4.969   8.042 -0.0421  0.1825 -0.2921
  695MOL0     H91687   6.696   5.049   7.940 -1.0835  0.8926  1.0106
  695MOL0     H91688   6.781   4.899   8.004  0.3242 -0.6591  2.4080
  695MOL0     H91689   6.635   5.101   8.177 -0.9768 -0.4975 -1.9904
  695MOL0     H91690   6.740   4.970   8.235  0.2680 -2.3072 -2.1757
  695MOL0     H91691   6.883   5.125   8.274 -1.7629  0.4654  1.1515
  695MOL0     H91692   6.832   5.228   8.148 -2.4276 -0.1282  1.4260
  695MOL0     H91693   7.087   4.996   8.261 -0.3234  0.6000  0.1424
  695MOL0     H91694   7.350   4.917   8.029  0.4271  0.8350  0.8362
  695MOL0     H91695   7.316   4.966   8.193 -3.0057 -1.3388 -0.7157
  695MOL0     H91696   7.349   5.214   8.096  1.5219  0.9958  2.3621
  695MOL0     H91697   7.429   5.127   7.961 -2.3162 -1.1184 -0.1879
  695MOL0     H91698   7.606   5.211   8.140  0.7132 -0.1922  1.9774
  695MOL0     H91699   7.494   5.122   8.255  0.5903 -0.9425  0.1252
  695MOL0     H91700   7.617   4.968   8.029  2.7047  0.8405 -0.1709
  695MOL0     H91701   7.570   4.914   8.187 -1.4591  0.2249 -1.7058
  695MOL0     H91702   8.026   5.049   8.203  2.3131 -0.5762 -0.0035
  695MOL0     H91703   8.186   4.858   8.193  0.4125 -3.2991  0.7441
  695MOL0     H91704   8.509   4.581   8.369  0.3196  0.1729  0.3471
  695MOL0     H91705   8.712   4.439   8.281  0.1679 -0.0773  1.1430
  695MOL0     H91706   8.595   4.115   8.018  0.0866 -0.9249 -0.3578
  695MOL0     H91707   8.624   4.121   8.194 -0.2349  1.1454  0.8285
  695MOL0     H91708   8.769   3.951   8.095  1.1318  0.7803 -0.3008
  695MOL0     H91709   8.867   4.074   8.145 -3.5712 -2.6626  4.3941
  695MOL0     H91710   8.888   4.167   7.916  0.0307 -0.7214  1.1212
  695MOL0     H91711   8.762   4.041   7.859  1.6587 -2.4243 -0.9688
  695MOL0     H91712   9.049   4.014   7.906 -2.9716  3.6181 -2.9682
  695MOL0     H91713   8.940   3.880   7.968 -2.9915 -0.3008 -0.6912
  695MOL0     H91714   8.844   3.853   7.774  1.6594 -2.0355  2.5005
  695MOL0     H91715   9.007   3.810   7.757  0.0334  1.4840  0.0505
  695MOL0     H91716   9.055   4.035   7.628 -0.3186  0.6720  0.2096
  695MOL0     H91717   8.879   4.036   7.613 -0.7143 -1.0188 -1.3469
  695MOL0     H91718   8.895   3.816   7.511 -0.3260 -0.4508 -2.2635
  695MOL0     H91719   8.958   3.952   7.427 -1.6320  3.4166  2.8829
  695MOL0     H91720   9.120   3.761   7.409 -1.6717 -0.2347  0.6200
  695MOL0     H91721   9.126   3.753   7.585 -1.0123 -0.5584 -0.3593
  695MOL0     H91722   8.492   4.287   7.966 -0.6675 -0.8848  0.8608
  695MOL0     H91723   8.302   4.450   8.007  0.8937  1.2987  0.8688
  695MOL0     H91724   7.866   4.589   8.166 -2.0694  1.3909 -1.6426
  695MOL0     H91725   7.709   4.750   8.168 -2.0480  2.2167 -2.2735
  695MOL0     H91726   6.898   4.299   7.716  1.2380 -3.1486 -1.1221
  695MOL0     H91727   7.075   4.166   7.770 -0.5000  0.1328 -1.4023
  695MOL0     H91728   7.157   3.815   8.118 -1.9318 -0.9401 -2.0735
  695MOL0     H91729   7.301   3.608   8.175  0.0737 -0.0459  0.8583
  695MOL0     H91730   7.703   3.575   7.992  0.5204 -1.7834  1.2376
  695MOL0     H91731   7.589   3.457   7.916 -2.8210  4.0931 -1.2103
  695MOL0     H91732   7.743   3.436   8.187  3.5637  0.0561 -1.0265
  695MOL0     H91733   7.651   3.307   8.108  0.7317  0.4252  0.4850
  695MOL0     H91734   7.903   3.434   7.978 -1.4541  0.0669 -2.7219
  695MOL0     H91735   7.808   3.304   7.913  5.4973 -1.9400 -1.0740
  695MOL0     H91736   7.968   3.313   8.166  1.3860 -0.4994 -1.1830
  695MOL0     H91737   7.870   3.169   8.114 -1.0408  0.3806  0.2316
  695MOL0     H91738   8.239   3.171   7.889 -0.6323  1.7538 -1.7473
  695MOL0     H91739   7.619   3.767   7.938  0.7175 -0.1104  2.4815
  695MOL0     H91740   7.481   3.961   7.887  0.1939  1.4124  0.3509
  696MOL0     O91741   0.209   1.626   9.440 -0.4881  0.4706  0.4387
  696MOL0     C91742   0.267   1.616   9.549  1.0745  0.0177 -0.9670
  696MOL0     O91743   0.202   1.606   9.671 -0.0086  0.2618 -0.2737
  696MOL0     C91744   0.065   1.644   9.683  0.1743 -0.1184 -0.4063
  696MOL0     C91745   0.040   1.768   9.732 -0.0770  0.3112  0.6130
  696MOL0     C91746  -0.088   1.806   9.779  0.2882  0.4800  0.5023
  696MOL0     C91747  -0.199   1.719   9.755  0.2720  0.0828  0.4834
  696MOL0     O91748  -0.321   1.731   9.823 -0.4370  0.2831 -0.5958
  696MOL0     C91749  -0.410   1.816   9.750  0.1445 -0.2683 -0.2951
  696MOL0     C91750  -0.532   1.846   9.856  0.2561 -0.1542  0.1010
  696MOL0     C91751  -0.663   1.904   9.800 -0.6833  0.9035 -0.2532
  696MOL0     C91752  -0.773   1.923   9.916 -0.3131  0.4715  0.5499
  696MOL0     C91753  -0.844   1.787   9.952  0.8918  0.3309  0.2543
  696MOL0     C91754  -0.817   1.757  10.101 -0.4398 -0.2470  0.3553
  696MOL0     C91755  -0.905   1.843  10.199  0.0254  0.4430  0.5684
  696MOL0     C91756  -1.014   1.768  10.267 -0.4889 -0.2295  0.5164
  696MOL0     N91757  -1.091   1.835  10.376 -0.1096 -0.0930  0.0127
  696MOL0     C91758  -1.040   1.922  10.463  0.2973  0.7104 -0.0609
  696MOL0     C91759  -1.154   1.967  10.524 -0.7915  0.2257  0.5162
  696MOL0     C91760  -1.135   2.083  10.626  0.3658  0.1215 -0.2066
  696MOL0     C91761  -1.248   2.182  10.636 -0.4280  0.6172  0.8182
  696MOL0     C91762  -1.250   2.278  10.514 -0.2745  1.2627 -0.5468
  696MOL0     C91763  -1.382   2.361  10.504  0.5582 -0.2719  0.9903
  696MOL0     O91764  -1.367   2.479  10.429 -0.1321  0.1419 -0.1820
  696MOL0     C91765  -1.476   2.557  10.405 -0.3741 -0.4611 -0.7132
  696MOL0     C91766  -1.470   2.651  10.302 -0.8020  0.7080 -0.3288
  696MOL0     C91767  -1.575   2.726  10.262 -0.0340 -0.6729 -0.8216
  696MOL0     C91768  -1.698   2.714  10.334  0.1299 -1.0695 -0.3573
  696MOL0     C91769  -1.811   2.789  10.292 -0.3897 -0.8374  0.1099
  696MOL0     O91770  -1.815   2.920  10.277 -0.2380 -0.3521  0.1694
  696MOL0     C91771  -1.924   2.986  10.219 -0.5010 -0.2908  0.0175
  696MOL0     C91772  -1.890   3.066  10.108  0.2718 -0.5997 -0.5138
  696MOL0     C91773  -1.981   3.149  10.039 -0.9617 -0.0544 -0.2794
  696MOL0     C91774  -2.108   3.164  10.080 -0.1059  0.6974 -0.7349
  696MOL0     O91775  -2.199   3.245  10.021  0.6559 -1.1262 -0.1010
  696MOL0     C91776  -2.244   3.204   9.896  0.1160 -0.1111  0.3396
  696MOL0     C91777  -2.377   3.247   9.845 -0.0878 -0.3358  0.6024
  696MOL0     C91778  -2.490   3.227   9.939 -0.4090  0.3519 -0.1050
  696MOL0     C91779  -2.502   3.083   9.992 -0.0950  0.2547 -1.1490
  696MOL0     C91780  -2.637   3.045  10.051  0.0799  0.1991  0.0247
  696MOL0     C91781  -2.716   2.960   9.945 -0.6740  0.1124  0.0531
  696MOL0     C91782  -2.762   3.061   9.844  0.1838  0.1849  0.5574
  696MOL0     C91783  -2.825   2.984   9.730 -0.1582 -0.5104 -0.2481
  696MOL0    Cl91784  -2.708   2.894   9.642 -0.4704 -0.5537  0.2126
  696MOL0     C91785  -2.147   3.083  10.193 -0.6332 -1.0187  0.1514
  696MOL0     C91786  -2.057   3.000  10.265 -0.1357 -0.0612  0.2151
  696MOL0     O91787  -1.910   2.722  10.264  0.3424  0.7051 -0.2223
  696MOL0     C91788  -1.707   2.616  10.428  0.3870  0.3717 -0.6319
  696MOL0     C91789  -1.605   2.542  10.469 -0.8185  0.2514 -0.8208
  696MOL0     N91790  -1.270   1.920  10.456 -0.7022 -0.0014 -0.3483
  696MOL0     N91791  -1.227   1.833  10.376  0.1630 -0.8133 -0.0266
  696MOL0     C91792  -0.168   1.592   9.686  0.3159 -0.7697  0.6239
  696MOL0     C91793  -0.037   1.553   9.657  0.2958  0.4182  0.3506
  696MOL0     C91794   0.417   1.620   9.535 -0.7940  0.1348 -0.2416
  696MOL0     C91795   0.492   1.693   9.636  0.2894  0.2411 -0.0635
  696MOL0     C91796   0.629   1.725   9.615 -0.7942  1.2496 -0.2317
  696MOL0     C91797   0.691   1.667   9.506  0.4016  0.6107 -0.4539
  696MOL0     O91798   0.822   1.677   9.490 -0.0265 -0.7631  0.3283
  696MOL0     C91799   0.898   1.777   9.565 -0.4811 -0.6085  0.0553
  696MOL0     C91800   1.052   1.751   9.539  0.0202 -0.2158 -1.0826
  696MOL0     C91801   1.133   1.858   9.610  0.1907  0.6701  0.7145
  696MOL0     C91802   1.111   2.002   9.598  0.0591 -0.5594 -0.0100
  696MOL0     C91803   1.080   2.053   9.463  0.1600 -0.1525  0.6794
  696MOL0     C91804   1.081   2.114   9.359  0.2374  0.3045 -0.3960
  696MOL0     C91805   0.621   1.579   9.418 -0.4247 -0.7720 -0.0452
  696MOL0     C91806   0.484   1.562   9.429  0.6923 -0.9990  0.3908
  696MOL0     H91807   0.136   1.815   9.748  1.2519 -2.1002  0.2309
  696MOL0     H91808  -0.093   1.899   9.835  1.5873  0.2227  1.0904
  696MOL0     H91809  -0.445   1.773   9.656 -1.9706  2.4503 -0.8669
  696MOL0     H91810  -0.357   1.910   9.732 -0.3256  0.4617  1.8097
  696MOL0     H91811  -0.499   1.911   9.938 -0.4937 -1.3907  1.4450
  696MOL0     H91812  -0.558   1.753   9.907  0.0613 -0.0116  0.2617
  696MOL0     H91813  -0.693   1.844   9.713 -0.4784  0.7301 -0.2049
  696MOL0     H91814  -0.631   2.003   9.767  0.9126  0.5265  0.0746
  696MOL0     H91815  -0.731   1.977  10.001  0.0466  1.7682 -0.4284
  696MOL0     H91816  -0.853   1.984   9.873 -1.2103 -1.5761 -0.8748
  696MOL0     H91817  -0.804   1.697   9.903 -0.9442  0.6452 -1.9761
  696MOL0     H91818  -0.950   1.788   9.925  1.1579  3.3590 -0.9596
  696MOL0     H91819  -0.712   1.782  10.118 -0.3470 -0.5727  0.2651
  696MOL0     H91820  -0.824   1.650  10.124 -0.3729 -1.0141 -2.6742
  696MOL0     H91821  -0.841   1.862  10.285  4.2328  0.5227 -2.2443
  696MOL0     H91822  -0.944   1.928  10.143 -0.7910 -0.1549  0.1990
  696MOL0     H91823  -0.974   1.672  10.301  0.5491  0.7615  2.1952
  696MOL0     H91824  -1.081   1.735  10.187  0.5203  0.9159 -0.8529
  696MOL0     H91825  -0.936   1.949  10.470  0.1869  2.0438 -2.3930
  696MOL0     H91826  -1.049   2.147  10.602  0.0729  1.3963  1.8170
  696MOL0     H91827  -1.126   2.033  10.723  0.6026  1.5252  0.5268
  696MOL0     H91828  -1.228   2.251  10.719  1.4104  0.0026  0.9361
  696MOL0     H91829  -1.342   2.127  10.642 -0.7886  0.8504 -1.7216
  696MOL0     H91830  -1.160   2.338  10.524 -0.0772  1.1162 -1.3880
  696MOL0     H91831  -1.242   2.219  10.422  0.1379  0.0961  0.2174
  696MOL0     H91832  -1.400   2.406  10.602 -1.2860 -0.5529  0.8021
  696MOL0     H91833  -1.463   2.300  10.465 -1.3362  2.2327  0.7518
  696MOL0     H91834  -1.372   2.657  10.256  0.6031  1.9467  2.5336
  696MOL0     H91835  -1.573   2.801  10.184  0.9599 -0.9548 -1.0895
  696MOL0     H91836  -1.794   3.062  10.057  0.4676  3.1625 -0.6750
  696MOL0     H91837  -1.943   3.209   9.957 -1.4433  0.4857 -0.1124
  696MOL0     H91838  -2.230   3.095   9.898  3.4991  0.1981  2.5033
  696MOL0     H91839  -2.171   3.244   9.824 -4.5276  3.5223 -2.9583
  696MOL0     H91840  -2.393   3.190   9.752 -0.4275  0.6299  0.0541
  696MOL0     H91841  -2.387   3.353   9.821 -5.9494 -0.4293  1.0262
  696MOL0     H91842  -2.588   3.272   9.919 -1.2334 -0.6888  1.2940
  696MOL0     H91843  -2.455   3.279  10.029  0.2451 -1.0968  0.5233
  696MOL0     H91844  -2.479   3.019   9.906  0.9155 -0.2835 -0.5035
  696MOL0     H91845  -2.425   3.057  10.065 -1.0880 -1.4609 -0.6561
  696MOL0     H91846  -2.692   3.128  10.095  0.6719  1.0157 -0.7428
  696MOL0     H91847  -2.617   2.974  10.132  1.4925  1.9868  1.3280
  696MOL0     H91848  -2.797   2.904   9.994  1.1691 -3.4962 -0.6887
  696MOL0     H91849  -2.647   2.880   9.918 -0.1420 -0.2107  2.1413
  696MOL0     H91850  -2.847   3.115   9.889 -1.5214 -3.6883  2.4277
  696MOL0     H91851  -2.677   3.116   9.804  0.8632 -2.0241 -1.1978
  696MOL0     H91852  -2.879   3.048   9.659  0.1471  0.2211  0.1621
  696MOL0     H91853  -2.902   2.925   9.781  0.7247 -0.2606  1.4384
  696MOL0     H91854  -2.244   3.086  10.240 -0.0173 -0.7109  1.4328
  696MOL0     H91855  -2.116   2.947  10.338 -1.6194 -1.2424 -1.7383
  696MOL0     H91856  -1.794   2.588  10.487 -0.6597 -2.5101 -3.2241
  696MOL0     H91857  -1.630   2.465  10.541 -1.7679  1.1837 -0.1259
  696MOL0     H91858  -0.248   1.521   9.678  0.0070 -0.3395 -0.2761
  696MOL0     H91859  -0.012   1.455   9.618 -0.4028 -0.5660  2.2399
  696MOL0     H91860   0.445   1.738   9.723  2.1855  0.6257  0.8175
  696MOL0     H91861   0.672   1.793   9.689 -1.6187  2.9433 -1.2390
  696MOL0     H91862   0.874   1.774   9.672 -1.6229  0.6558 -0.1358
  696MOL0     H91863   0.885   1.879   9.528  1.4975 -1.6532 -4.0231
  696MOL0     H91864   1.080   1.656   9.585  1.5090 -0.0460 -1.5972
  696MOL0     H91865   1.078   1.745   9.433  0.1630 -0.6755 -1.0213
  696MOL0     H91866   1.238   1.831   9.597  0.5172  0.7845  2.7655
  696MOL0     H91867   1.123   1.844   9.718  1.3041  4.9293  1.5767
  696MOL0     H91868   1.019   2.031   9.649  1.2635  0.2152  1.8176
  696MOL0     H91869   1.185   2.067   9.646 -0.6245  0.1467  0.1034
  696MOL0     H91870   1.075   2.176   9.272  0.2935  1.0063  0.0847
  696MOL0     H91871   0.673   1.527   9.338 -0.6789 -1.3695  0.1739
  696MOL0     H91872   0.428   1.507   9.354 -1.7810  3.9866 -1.8969
  697MOL0     O91873   5.908   3.306   9.930  0.1541 -0.3229 -0.1947
  697MOL0     C91874   5.842   3.298  10.034 -0.6912  0.8025 -0.5699
  697MOL0     O91875   5.862   3.208  10.133 -0.7172  0.2580 -0.1966
  697MOL0     C91876   5.980   3.142  10.133  0.3000  1.0303 -0.1618
  697MOL0     C91877   6.103   3.191  10.108 -0.9888  0.0156 -0.0969
  697MOL0     C91878   6.206   3.103  10.090  0.5579  1.0770 -0.1353
  697MOL0     C91879   6.195   2.962  10.126  1.0402 -0.3064  0.0482
  697MOL0     O91880   6.304   2.879  10.108 -0.3414  0.4483 -0.0898
  697MOL0     C91881   6.317   2.760  10.192  0.1938 -0.4653  0.6364
  697MOL0     C91882   6.457   2.697  10.191  0.4095 -0.2303  0.0876
  697MOL0     C91883   6.564   2.779  10.270 -0.9690  0.3898  0.5487
  697MOL0     C91884   6.689   2.691  10.306  1.0347  0.0297 -0.3998
  697MOL0     C91885   6.797   2.770  10.369 -0.9360  0.2994 -0.1465
  697MOL0     C91886   6.757   2.850  10.487  0.3116  0.1733 -0.0147
  697MOL0     C91887   6.888   2.907  10.541  0.2696  0.0354  0.5372
  697MOL0     C91888   6.870   3.010  10.650 -0.8233  0.7133 -0.2992
  697MOL0     N91889   6.770   2.978  10.747  1.0870 -0.1755 -0.3949
  697MOL0     C91890   6.643   3.015  10.731  0.3247  0.1288 -0.4490
  697MOL0     C91891   6.592   2.989  10.857  0.0326 -0.4015  0.3688
  697MOL0     C91892   6.465   3.029  10.930  0.5927  0.2949  0.8158
  697MOL0     C91893   6.379   3.128  10.845 -0.0047  0.7409  0.1953
  697MOL0     C91894   6.254   3.172  10.923 -0.5858 -0.1418  0.1900
  697MOL0     C91895   6.190   3.292  10.859 -0.9896  0.3327  1.0475
  697MOL0     O91896   6.080   3.336  10.936  1.0148 -0.1408 -0.3351
  697MOL0     C91897   6.026   3.460  10.895  0.1823 -0.0522  0.0194
  697MOL0     C91898   5.933   3.512  10.984  0.4532  0.9670 -0.1134
  697MOL0     C91899   5.863   3.633  10.971 -0.3620 -0.7848  0.5318
  697MOL0     C91900   5.891   3.709  10.853 -0.2152  0.0723  0.5297
  697MOL0     C91901   5.826   3.833  10.824 -1.2700 -0.0603  0.2222
  697MOL0     O91902   5.842   3.904  10.706  0.5184  0.5772  0.2371
  697MOL0     C91903   5.748   3.998  10.666  0.5415 -0.0858 -0.4664
  697MOL0     C91904   5.655   4.068  10.748 -0.7899 -0.5579 -0.2473
  697MOL0     C91905   5.584   4.173  10.678 -0.5886 -0.4305 -0.1423
  697MOL0     C91906   5.604   4.215  10.548  0.4153 -0.6077 -0.3460
  697MOL0     O91907   5.535   4.321  10.495  0.9688  0.2597 -0.0531
  697MOL0     C91908   5.392   4.320  10.504  0.6816  0.6351 -0.6770
  697MOL0     C91909   5.336   4.415  10.404 -0.0841 -1.7297 -0.3817
  697MOL0     C91910   5.204   4.476  10.455 -1.5212 -0.4552  0.3674
  697MOL0     C91911   5.147   4.555  10.342 -0.2688 -0.7785  0.0285
  697MOL0     C91912   5.002   4.576  10.379  0.7248  0.3715 -0.3640
  697MOL0     C91913   4.912   4.635  10.269 -0.4242 -0.2766  0.2824
  697MOL0     C91914   4.949   4.788  10.249  0.2655 -0.4969  0.6109
  697MOL0     C91915   4.879   4.832  10.119 -0.2891  0.1596  0.0432
  697MOL0    Cl91916   4.882   5.005  10.093 -0.2675 -0.4500  0.3235
  697MOL0     C91917   5.710   4.158  10.483  0.4388 -0.2750  0.6775
  697MOL0     C91918   5.773   4.052  10.541 -0.1322 -0.4074 -0.7067
  697MOL0     O91919   5.754   3.868  10.918 -0.1959 -0.2029 -0.4347
  697MOL0     C91920   5.992   3.660  10.763  0.5830 -0.7924 -0.7701
  697MOL0     C91921   6.060   3.540  10.783  0.1298 -0.0456  0.3698
  697MOL0     N91922   6.684   2.935  10.934 -1.0596 -0.4393 -0.5521
  697MOL0     N91923   6.798   2.921  10.868  0.2373 -0.0092  0.1658
  697MOL0     C91924   6.062   2.916  10.177 -0.3131 -0.9100  0.1871
  697MOL0     C91925   5.959   3.013  10.181 -0.2917  0.4690  0.1245
  697MOL0     C91926   5.718   3.377  10.036 -0.5829 -0.4284  0.3849
  697MOL0     C91927   5.603   3.327  10.095 -0.0880 -0.5796 -0.3662
  697MOL0     C91928   5.483   3.398  10.085  0.1121 -0.2890 -0.3573
  697MOL0     C91929   5.470   3.521  10.007 -0.6290  0.4709 -0.5444
  697MOL0     O91930   5.348   3.592  10.000 -0.2779 -0.0915  0.4086
  697MOL0     C91931   5.233   3.548  10.074 -0.0528 -0.2490 -0.9852
  697MOL0     C91932   5.113   3.648  10.037 -0.6123 -0.1247 -0.2790
  697MOL0     C91933   4.974   3.603  10.086  0.4192  1.1027 -0.1822
  697MOL0     C91934   4.865   3.712  10.065 -0.0787 -0.3053 -0.3473
  697MOL0     C91935   4.729   3.647  10.077  0.2188  0.5747 -0.5883
  697MOL0     C91936   4.619   3.602  10.087 -0.7093  0.9626 -0.5296
  697MOL0     C91937   5.588   3.567   9.950 -0.0859  0.8269 -0.3013
  697MOL0     C91938   5.705   3.498   9.960  0.2017  0.2344  0.7727
  697MOL0     H91939   6.127   3.292  10.079  0.6441 -0.3186 -0.0107
  697MOL0     H91940   6.302   3.141  10.057  2.5352 -2.6377  0.8189
  697MOL0     H91941   6.249   2.681  10.159  1.2004 -1.3221  0.5560
  697MOL0     H91942   6.292   2.783  10.296 -0.3922 -0.1675  0.4320
  697MOL0     H91943   6.479   2.698  10.084 -1.8334  3.7811 -0.5514
  697MOL0     H91944   6.442   2.595  10.228  0.9180 -0.7822 -1.1738
  697MOL0     H91945   6.518   2.820  10.361  0.0578  0.6473  0.9756
  697MOL0     H91946   6.592   2.866  10.210 -0.1681 -0.2483 -0.0195
  697MOL0     H91947   6.677   2.602  10.368  3.7369  0.6824  1.2352
  697MOL0     H91948   6.737   2.665  10.211  0.5198  0.3747 -0.7639
  697MOL0     H91949   6.828   2.846  10.298  0.0968 -0.5423 -0.6266
  697MOL0     H91950   6.883   2.709  10.399 -1.3827  0.5167  1.7513
  697MOL0     H91951   6.721   2.774  10.558  0.0836 -1.3727 -1.7319
  697MOL0     H91952   6.690   2.935  10.468 -0.3216 -0.6600 -1.6691
  697MOL0     H91953   6.945   2.822  10.579  0.6916 -0.1878 -0.5735
  697MOL0     H91954   6.953   2.946  10.462 -0.3013 -3.7820 -2.0638
  697MOL0     H91955   6.838   3.106  10.609 -1.7359  1.3839  1.8549
  697MOL0     H91956   6.963   3.002  10.706 -0.2475  0.3611 -1.2706
  697MOL0     H91957   6.596   3.048  10.639 -1.2088 -1.1015 -0.1646
  697MOL0     H91958   6.504   3.080  11.019  2.0254 -1.6670  1.3946
  697MOL0     H91959   6.408   2.938  10.949 -0.5563  1.1172  1.4260
  697MOL0     H91960   6.335   3.079  10.758 -2.5143  0.5381  1.4699
  697MOL0     H91961   6.436   3.216  10.815  0.8244  1.4690  3.4925
  697MOL0     H91962   6.178   3.094  10.925 -0.4132 -0.2975  1.1498
  697MOL0     H91963   6.288   3.196  11.024  2.5911  3.0652 -1.4259
  697MOL0     H91964   6.153   3.270  10.759  0.0938  1.1484  0.4442
  697MOL0     H91965   6.270   3.365  10.843 -1.0030  0.2380  0.5329
  697MOL0     H91966   5.927   3.452  11.074  3.6878  0.3156 -0.2124
  697MOL0     H91967   5.790   3.673  11.041  0.8839 -0.6252  1.7708
  697MOL0     H91968   5.637   4.060  10.854  2.0513  1.7932  0.5610
  697MOL0     H91969   5.512   4.238  10.727  0.6489 -0.1682  1.4309
  697MOL0     H91970   5.367   4.365  10.600  1.8616 -0.5731  0.2413
  697MOL0     H91971   5.333   4.229  10.490 -1.0541  1.6987 -0.4658
  697MOL0     H91972   5.326   4.362  10.309  0.9092 -0.5247 -1.2041
  697MOL0     H91973   5.406   4.497  10.385  1.8356 -2.8043  1.7535
  697MOL0     H91974   5.212   4.553  10.533  0.2702  1.0208 -1.1808
  697MOL0     H91975   5.136   4.396  10.487  0.1283 -3.0498 -2.1606
  697MOL0     H91976   5.196   4.651  10.325  0.8013 -1.2645  0.3233
  697MOL0     H91977   5.156   4.492  10.253 -0.4573  0.2036 -0.7181
  697MOL0     H91978   4.992   4.640  10.466  1.3134 -0.5783  0.4224
  697MOL0     H91979   4.952   4.478  10.382  0.2927  0.6229  1.5191
  697MOL0     H91980   4.806   4.627  10.291  0.0495 -1.6820  2.3486
  697MOL0     H91981   4.929   4.567  10.185 -1.2099  0.0433 -0.1468
  697MOL0     H91982   4.925   4.835  10.345  2.9683  1.1974  0.5717
  697MOL0     H91983   5.058   4.795  10.240  0.4430 -2.6196  0.6933
  697MOL0     H91984   4.776   4.797  10.124 -0.6704  1.4081  2.4150
  697MOL0     H91985   4.938   4.800  10.032  2.4748  0.6593  1.5962
  697MOL0     H91986   5.727   4.204  10.386 -0.9605  1.0965  1.0464
  697MOL0     H91987   5.853   4.007  10.482 -1.5147 -1.6796 -1.6930
  697MOL0     H91988   6.005   3.719  10.673 -3.4414  1.7440  0.0656
  697MOL0     H91989   6.139   3.516  10.713  0.5514  0.1979  0.7589
  697MOL0     H91990   6.052   2.811  10.202  0.0602 -1.4652 -1.8645
  697MOL0     H91991   5.859   2.975  10.198  0.6308 -2.2845 -0.1450
  697MOL0     H91992   5.600   3.231  10.146  0.7279 -0.2873  0.2585
  697MOL0     H91993   5.394   3.361  10.135 -0.8469 -1.5851 -2.8928
  697MOL0     H91994   5.265   3.555  10.178 -1.7736  2.6756 -0.5377
  697MOL0     H91995   5.208   3.444  10.051 -0.0149 -1.6323  4.0701
  697MOL0     H91996   5.138   3.744  10.084 -2.6034  0.0278  0.5650
  697MOL0     H91997   5.116   3.659   9.928  2.8768 -2.5277 -0.6040
  697MOL0     H91998   4.982   3.582  10.193 -3.3649 -0.2106 -0.0314
  697MOL0     H91999   4.952   3.504  10.044 -3.8654  0.1116  3.5847
  697MOL0     H92000   4.878   3.798  10.131  1.0518  0.2478 -1.2553
  697MOL0     H92001   4.878   3.744   9.961  1.3222  0.5529  0.0629
  697MOL0     H92002   4.519   3.564  10.088 -0.4213 -0.5240 -4.7907
  697MOL0     H92003   5.583   3.661   9.896 -2.4993 -0.3444 -2.3176
  697MOL0     H92004   5.798   3.533   9.916  0.9888 -2.8134 -0.1989
  698MOL0     O92005   4.596   1.401   0.424  0.5930  0.0999 -0.4010
  698MOL0     C92006   4.582   1.281   0.446  0.1555  0.3395 -0.0453
  698MOL0     O92007   4.460   1.208   0.444 -0.5378  0.0375 -0.5747
  698MOL0     C92008   4.332   1.259   0.416 -0.3317 -0.5221 -0.0581
  698MOL0     C92009   4.311   1.386   0.360 -0.5466  0.0344 -0.5390
  698MOL0     C92010   4.180   1.429   0.335 -0.3547 -1.0129  0.3451
  698MOL0     C92011   4.065   1.359   0.373 -0.9826 -0.1840 -0.6985
  698MOL0     O92012   3.937   1.414   0.350 -0.1850  0.1283 -0.4928
  698MOL0     C92013   3.843   1.317   0.306 -0.1678 -0.0153 -0.2420
  698MOL0     C92014   3.699   1.371   0.306 -0.7301 -0.0132  0.0056
  698MOL0     C92015   3.607   1.260   0.341 -0.1126 -0.3571 -0.3476
  698MOL0     C92016   3.464   1.311   0.352  0.7946  0.4046  0.1968
  698MOL0     C92017   3.380   1.179   0.387  0.8457 -1.1020 -1.1639
  698MOL0     C92018   3.241   1.201   0.431  0.6892  0.6260  0.0598
  698MOL0     C92019   3.175   1.067   0.479 -0.3931 -0.8772 -0.1599
  698MOL0     C92020   3.222   1.028   0.619  0.7076 -0.6237  0.3094
  698MOL0     N92021   3.120   0.952   0.677  0.3250  0.7012 -0.2899
  698MOL0     C92022   2.987   0.986   0.712 -0.3768  0.6456 -0.5472
  698MOL0     C92023   2.925   0.876   0.763  0.1225 -0.3548  0.1017
  698MOL0     C92024   2.778   0.848   0.804  0.4515  0.1509 -0.0362
  698MOL0     C92025   2.699   0.842   0.673 -0.6735 -0.8058  0.2660
  698MOL0     C92026   2.689   0.991   0.615 -0.1941  0.1228 -0.3312
  698MOL0     C92027   2.575   1.012   0.526 -0.4251 -0.5245  0.7653
  698MOL0     O92028   2.470   1.055   0.608  1.0915 -0.0587  1.4709
  698MOL0     C92029   2.342   1.075   0.539 -0.3793  0.5667 -0.4335
  698MOL0     C92030   2.318   1.050   0.407  0.7721  0.6965  0.6253
  698MOL0     C92031   2.196   1.081   0.343 -0.5481  1.1412 -0.0326
  698MOL0     C92032   2.079   1.125   0.414 -0.1537  0.1734  0.4340
  698MOL0     C92033   1.943   1.139   0.358 -0.1767 -0.1568  0.3931
  698MOL0     O92034   1.939   1.101   0.218  0.0464  0.7287  0.3087
  698MOL0     C92035   1.820   1.105   0.152 -0.2518 -0.7163 -0.0640
  698MOL0     C92036   1.820   1.051   0.026  0.4635 -1.0053  0.9161
  698MOL0     C92037   1.712   1.071  -0.060  0.2756 -0.3219  0.5468
  698MOL0     C92038   1.589   1.117  -0.014 -0.1041  0.3895 -0.3610
  698MOL0     O92039   1.471   1.108  -0.090  0.4578  0.3420 -0.6320
  698MOL0     C92040   1.376   1.209  -0.077 -0.0225 -0.0777 -0.0350
  698MOL0     C92041   1.297   1.216  -0.205  0.1680  0.8415  0.3630
  698MOL0     C92042   1.374   1.244  -0.335  0.2404  0.6999  0.5348
  698MOL0     C92043   1.447   1.387  -0.323 -0.1851 -0.8558  0.1864
  698MOL0     C92044   1.502   1.442  -0.452  0.0777 -0.4305 -0.6915
  698MOL0     C92045   1.604   1.351  -0.529 -0.3727  0.2422  1.0085
  698MOL0     C92046   1.720   1.306  -0.435  0.5241 -0.0681 -0.6027
  698MOL0     C92047   1.773   1.178  -0.494 -0.4954  0.6648  0.1396
  698MOL0    Cl92048   1.873   1.215  -0.628  0.3224 -0.6815  0.2388
  698MOL0     C92049   1.594   1.169   0.116  0.0452 -0.5240 -0.1111
  698MOL0     C92050   1.707   1.174   0.200 -0.2548 -0.2446  0.3784
  698MOL0     O92051   1.845   1.151   0.437 -0.4079 -0.1198  0.6640
  698MOL0     C92052   2.110   1.154   0.550 -0.4570  0.2502 -0.9511
  698MOL0     C92053   2.234   1.130   0.612 -0.4860 -0.4889 -0.5389
  698MOL0     N92054   3.017   0.769   0.737  0.1038 -0.7200 -0.2512
  698MOL0     N92055   3.134   0.817   0.698 -0.0897  0.2234  0.5810
  698MOL0     C92056   4.089   1.239   0.446  0.4604  0.4521  0.1265
  698MOL0     C92057   4.219   1.189   0.459  1.3150 -0.1689  0.5337
  698MOL0     C92058   4.699   1.200   0.472  1.1982  0.3700 -0.6295
  698MOL0     C92059   4.677   1.066   0.509  0.0694  0.4647  0.6536
  698MOL0     C92060   4.791   0.999   0.557  0.7645  0.3371  0.5181
  698MOL0     C92061   4.922   1.051   0.554 -0.0230 -0.4369  0.0501
  698MOL0     O92062   5.037   0.986   0.604  0.5836  0.0607  0.2750
  698MOL0     C92063   5.045   0.840   0.593  0.2721 -0.2368  0.2713
  698MOL0     C92064   5.150   0.790   0.693 -0.2906 -0.7855 -0.4935
  698MOL0     C92065   5.289   0.840   0.644 -1.2728 -0.0013  0.2645
  698MOL0     C92066   5.407   0.804   0.731  0.4098 -0.5465  0.8001
  698MOL0     C92067   5.390   0.842   0.874  0.9899 -0.2149  0.7937
  698MOL0     C92068   5.357   0.836   0.992 -0.2676  0.1791  0.2061
  698MOL0     C92069   4.934   1.180   0.518 -0.2403 -0.2464 -0.7822
  698MOL0     C92070   4.828   1.254   0.472  0.3079  0.4841  0.5895
  698MOL0     H92071   4.390   1.451   0.325 -1.7057  1.6602 -0.2857
  698MOL0     H92072   4.168   1.529   0.294  2.1796  1.3299  4.5465
  698MOL0     H92073   3.850   1.234   0.377  1.4930  0.6251  0.3932
  698MOL0     H92074   3.878   1.271   0.213  0.7660 -1.2494  0.6921
  698MOL0     H92075   3.663   1.413   0.212 -0.8709 -2.1434 -0.9605
  698MOL0     H92076   3.696   1.455   0.376 -2.6513  2.3823 -2.6947
  698MOL0     H92077   3.625   1.221   0.442 -2.5604 -0.1451  0.2360
  698MOL0     H92078   3.612   1.179   0.268  3.4674 -0.0836 -0.5770
  698MOL0     H92079   3.454   1.395   0.420 -0.5171  0.6955 -0.3250
  698MOL0     H92080   3.434   1.358   0.258 -0.0195 -0.4094  0.0366
  698MOL0     H92081   3.435   1.120   0.461  2.7821  3.4022  1.3946
  698MOL0     H92082   3.371   1.130   0.290  1.0152  0.0764 -1.7781
  698MOL0     H92083   3.186   1.243   0.346  3.7773 -1.9130 -3.5254
  698MOL0     H92084   3.243   1.274   0.513  0.6657 -0.1620  0.7807
  698MOL0     H92085   3.067   1.070   0.466 -0.2644 -0.0154 -1.2379
  698MOL0     H92086   3.210   0.991   0.409  0.2174  1.3751 -2.4948
  698MOL0     H92087   3.231   1.119   0.680 -0.2313 -1.0733  1.1402
  698MOL0     H92088   3.320   0.979   0.615  2.7954  3.1232  0.7179
  698MOL0     H92089   2.950   1.087   0.706 -1.8474  0.1624  0.0999
  698MOL0     H92090   2.745   0.931   0.867 -2.8145 -0.7966 -0.3131
  698MOL0     H92091   2.771   0.756   0.862 -2.8477  1.5826  2.0788
  698MOL0     H92092   2.595   0.811   0.685 -0.7341 -0.4451  0.7128
  698MOL0     H92093   2.745   0.774   0.601  2.6266  2.3837 -0.9842
  698MOL0     H92094   2.695   1.060   0.700  1.0101 -0.9911  0.5252
  698MOL0     H92095   2.772   1.010   0.547 -0.6285  0.2593 -0.8331
  698MOL0     H92096   2.565   0.923   0.463  0.5889  0.0951 -0.3137
  698MOL0     H92097   2.590   1.103   0.466 -3.1992 -0.1077  0.5675
  698MOL0     H92098   2.406   1.016   0.352 -0.1533  0.1111 -0.5586
  698MOL0     H92099   2.177   1.046   0.242  2.6299  0.8559 -0.6182
  698MOL0     H92100   1.909   1.001  -0.011 -0.5873 -1.7355 -0.7312
  698MOL0     H92101   1.713   1.045  -0.165 -2.1156 -1.1126  0.6623
  698MOL0     H92102   1.423   1.308  -0.072  1.5927 -0.5976 -2.6661
  698MOL0     H92103   1.302   1.202   0.004 -2.4003 -0.8069 -2.1318
  698MOL0     H92104   1.215   1.287  -0.190 -1.1775 -0.7200  0.6999
  698MOL0     H92105   1.247   1.120  -0.221  1.2526  0.4640 -0.8760
  698MOL0     H92106   1.297   1.249  -0.412  0.0633  0.5813  0.7023
  698MOL0     H92107   1.449   1.164  -0.346  0.0313  0.6850 -0.9668
  698MOL0     H92108   1.364   1.452  -0.295  0.6583 -0.8522  2.8911
  698MOL0     H92109   1.521   1.388  -0.243  0.7579 -1.4350 -0.6527
  698MOL0     H92110   1.554   1.534  -0.423 -3.6036  0.3624  5.1842
  698MOL0     H92111   1.419   1.474  -0.516  0.1398 -1.5150 -1.3338
  698MOL0     H92112   1.642   1.409  -0.614 -1.1687  1.0771  1.2048
  698MOL0     H92113   1.545   1.269  -0.571  1.1924  0.0084 -0.8690
  698MOL0     H92114   1.792   1.388  -0.434  0.1200  0.2868 -0.1343
  698MOL0     H92115   1.692   1.281  -0.332 -1.3151 -0.4601 -1.1573
  698MOL0     H92116   1.696   1.103  -0.516 -3.0545  2.7962  1.2295
  698MOL0     H92117   1.841   1.140  -0.418 -0.0815  1.2371  0.0630
  698MOL0     H92118   1.505   1.219   0.151  1.5076  3.2401 -1.2769
  698MOL0     H92119   1.694   1.245   0.282 -1.8258  1.9304 -1.5884
  698MOL0     H92120   2.029   1.185   0.616 -0.4466  2.3132 -1.8271
  698MOL0     H92121   2.254   1.173   0.710  0.2424  1.4790 -1.5034
  698MOL0     H92122   4.015   1.185   0.504 -0.0113 -1.6064 -2.2183
  698MOL0     H92123   4.236   1.095   0.511 -4.9638  0.0172  3.8712
  698MOL0     H92124   4.578   1.027   0.530  0.6458  0.3397  3.4085
  698MOL0     H92125   4.779   0.904   0.608 -0.1523  0.0390 -0.2356
  698MOL0     H92126   5.068   0.798   0.494  0.0998 -1.6250  0.8009
  698MOL0     H92127   4.947   0.793   0.602  0.4267 -0.6848 -0.3734
  698MOL0     H92128   5.138   0.839   0.790  0.5407 -0.4827 -0.5336
  698MOL0     H92129   5.141   0.681   0.693 -0.1811 -0.8122 -2.1767
  698MOL0     H92130   5.287   0.949   0.653  2.0646  0.2069 -0.2979
  698MOL0     H92131   5.307   0.801   0.543 -0.1448 -0.4760  0.6259
  698MOL0     H92132   5.422   0.695   0.726  1.5127 -0.3797 -0.1087
  698MOL0     H92133   5.494   0.854   0.687 -0.4875  0.3370 -0.0277
  698MOL0     H92134   5.336   0.799   1.090  0.2217 -2.5222 -0.6408
  698MOL0     H92135   5.029   1.230   0.505 -1.1714  1.4093 -1.4921
  698MOL0     H92136   4.846   1.355   0.435 -0.4208 -0.1533 -1.7111
  699MOL0     O92137   7.029   7.081   0.593 -0.0997  0.1729  0.2013
  699MOL0     C92138   7.045   7.198   0.570 -1.0205  0.1358  0.0784
  699MOL0     O92139   6.953   7.300   0.600  1.0395  0.7095  0.2401
  699MOL0     C92140   6.825   7.251   0.652 -0.0037 -0.5512  0.1973
  699MOL0     C92141   6.734   7.362   0.658  0.6509  0.5083 -0.2272
  699MOL0     C92142   6.605   7.350   0.714 -0.3991 -0.6810  1.1003
  699MOL0     C92143   6.559   7.223   0.756 -0.1510 -0.3346 -0.3333
  699MOL0     O92144   6.433   7.190   0.805 -0.2762  1.0123  0.8993
  699MOL0     C92145   6.325   7.286   0.798  1.0103  0.1500  0.2196
  699MOL0     C92146   6.196   7.223   0.850  1.0390  0.9063 -0.4583
  699MOL0     C92147   6.208   7.113   0.954  0.0070 -0.2632 -0.9026
  699MOL0     C92148   6.083   7.095   1.041  0.0327  0.7203  0.4172
  699MOL0     C92149   5.956   7.073   0.947  0.3484  1.0136 -0.4781
  699MOL0     C92150   5.827   7.039   1.027  1.0150 -0.2585 -0.4107
  699MOL0     C92151   5.704   7.031   0.927 -0.0825 -0.7400  0.3842
  699MOL0     C92152   5.644   7.166   0.906 -0.2503 -0.9866 -0.1557
  699MOL0     N92153   5.515   7.157   0.852  0.4201 -0.1742  0.5149
  699MOL0     C92154   5.407   7.122   0.922  0.6462  0.2800 -1.0345
  699MOL0     C92155   5.319   7.102   0.818 -0.2253 -0.6169  0.4124
  699MOL0     C92156   5.182   7.053   0.859 -0.4307 -0.1374 -1.1275
  699MOL0     C92157   5.099   7.159   0.911  0.9814  0.2520 -0.4355
  699MOL0     C92158   4.966   7.091   0.959 -0.3257  1.5303  0.5475
  699MOL0     C92159   4.880   7.188   1.029 -0.6646 -0.2647  0.2690
  699MOL0     O92160   4.763   7.136   1.092 -0.0140  0.4917 -0.4336
  699MOL0     C92161   4.687   7.228   1.160 -0.2937 -0.9351 -0.0703
  699MOL0     C92162   4.733   7.356   1.192 -0.1420 -0.0775 -0.0086
  699MOL0     C92163   4.659   7.441   1.279 -0.3203  0.4400 -0.3693
  699MOL0     C92164   4.534   7.395   1.333  0.7295  0.1549  0.2637
  699MOL0     C92165   4.446   7.472   1.427 -0.1986  0.3886 -0.2132
  699MOL0     O92166   4.341   7.409   1.490  0.8520  0.5008  0.5597
  699MOL0     C92167   4.244   7.475   1.569  0.2899 -0.0153  0.3340
  699MOL0     C92168   4.212   7.415   1.689 -0.4696  0.4575 -0.7731
  699MOL0     C92169   4.134   7.484   1.780 -0.0838 -0.8186 -0.6161
  699MOL0     C92170   4.071   7.604   1.738  0.3881  0.3143  0.3642
  699MOL0     O92171   3.995   7.669   1.831  0.5068  0.6372 -0.5148
  699MOL0     C92172   3.873   7.727   1.780 -0.0643 -0.4077  0.1627
  699MOL0     C92173   3.762   7.766   1.881  0.1006  0.0167  0.0891
  699MOL0     C92174   3.821   7.788   2.018 -0.3350 -0.0799 -0.3576
  699MOL0     C92175   3.719   7.845   2.119  0.3317  0.2506 -0.5837
  699MOL0     C92176   3.769   7.922   2.236 -0.0006 -1.0320 -0.5686
  699MOL0     C92177   3.879   7.852   2.304  0.5036 -0.2798 -0.1873
  699MOL0     C92178   3.924   7.933   2.424  0.1167  0.6353 -0.0628
  699MOL0     C92179   3.980   8.078   2.405 -0.1721 -0.3934 -0.4322
  699MOL0    Cl92180   3.858   8.210   2.388  0.5680 -0.0610  0.7838
  699MOL0     C92181   4.098   7.662   1.618 -0.7891  0.3164  0.9479
  699MOL0     C92182   4.189   7.599   1.529  0.4526  0.9943  0.1572
  699MOL0     O92183   4.484   7.584   1.458  0.6832 -0.0644  0.0638
  699MOL0     C92184   4.501   7.265   1.306  1.0624  0.1077 -0.7462
  699MOL0     C92185   4.575   7.183   1.227 -0.6413  0.0075  0.4417
  699MOL0     N92186   5.363   7.128   0.693 -1.0925 -0.1451  0.1459
  699MOL0     N92187   5.489   7.161   0.718 -0.0516 -0.2307  0.6254
  699MOL0     C92188   6.646   7.120   0.744  0.5912 -0.1355 -0.4471
  699MOL0     C92189   6.774   7.126   0.691  0.9446  0.0562  0.0365
  699MOL0     C92190   7.164   7.226   0.488 -0.5778 -0.2976 -0.5806
  699MOL0     C92191   7.241   7.119   0.432 -0.1600 -0.5368 -0.1339
  699MOL0     C92192   7.362   7.152   0.364 -0.0675  0.0845  0.0555
  699MOL0     C92193   7.404   7.286   0.349  0.0026  0.3718 -0.3912
  699MOL0     O92194   7.519   7.305   0.270 -0.2764 -0.6138 -0.3312
  699MOL0     C92195   7.591   7.429   0.269 -0.7382 -0.1174  0.4256
  699MOL0     C92196   7.723   7.382   0.204 -0.4278  0.1732  0.2662
  699MOL0     C92197   7.843   7.474   0.186  0.0452 -0.3601 -0.1932
  699MOL0     C92198   7.883   7.569   0.301  0.4734  0.5190 -0.3770
  699MOL0     C92199   7.875   7.502   0.434 -0.1795 -0.0810  0.7373
  699MOL0     C92200   7.868   7.435   0.534  0.2044  0.5220  0.2855
  699MOL0     C92201   7.319   7.390   0.399 -0.5258  1.2531 -0.2335
  699MOL0     C92202   7.200   7.358   0.462 -0.4224  0.9791 -0.1820
  699MOL0     H92203   6.764   7.455   0.612 -1.3653  1.9984  1.2917
  699MOL0     H92204   6.541   7.437   0.719 -0.0184 -0.2157 -1.0065
  699MOL0     H92205   6.309   7.328   0.699  0.5892 -1.6429 -0.5102
  699MOL0     H92206   6.352   7.375   0.857 -2.3818  1.7662 -0.3810
  699MOL0     H92207   6.167   7.159   0.766 -1.7621 -1.1132  1.8683
  699MOL0     H92208   6.114   7.290   0.879 -1.3659 -2.4230  1.0473
  699MOL0     H92209   6.292   7.124   1.024 -0.6101 -0.6731 -0.0811
  699MOL0     H92210   6.226   7.022   0.897  3.4201 -0.7601  0.7222
  699MOL0     H92211   6.110   7.007   1.100 -0.3033 -0.5483 -1.2272
  699MOL0     H92212   6.074   7.172   1.118 -1.6333 -0.4100  1.4161
  699MOL0     H92213   5.978   6.988   0.882  0.9055  0.0607  0.9151
  699MOL0     H92214   5.936   7.165   0.892 -3.4005  1.6376  1.5966
  699MOL0     H92215   5.817   7.112   1.109  1.8164 -0.1965 -0.3627
  699MOL0     H92216   5.842   6.943   1.078  2.7152  0.2576  0.1372
  699MOL0     H92217   5.728   6.997   0.826 -1.3009 -0.7606  0.0914
  699MOL0     H92218   5.629   6.963   0.970  0.8057 -1.5871  0.6333
  699MOL0     H92219   5.692   7.225   0.827 -0.3867  0.1417  0.5783
  699MOL0     H92220   5.641   7.211   1.005  3.3678  1.1281 -0.8196
  699MOL0     H92221   5.402   7.109   1.030 -0.2721  0.7359 -1.0171
  699MOL0     H92222   5.186   6.958   0.913 -2.0212 -0.6843 -1.9122
  699MOL0     H92223   5.140   7.013   0.766 -2.8508  0.8703 -0.5397
  699MOL0     H92224   5.079   7.229   0.829  2.5675 -1.1285 -2.0964
  699MOL0     H92225   5.135   7.214   0.998  0.3685  1.1315 -0.7230
  699MOL0     H92226   4.909   7.034   0.885  3.1328  0.3003 -1.4205
  699MOL0     H92227   4.992   7.016   1.033 -1.2437  2.8240  2.2559
  699MOL0     H92228   4.838   7.262   0.961  3.0722  1.9107  0.0721
  699MOL0     H92229   4.938   7.245   1.102 -0.9302  2.0509 -1.2418
  699MOL0     H92230   4.821   7.400   1.146  0.7761  1.3454  2.7966
  699MOL0     H92231   4.693   7.544   1.282 -0.1900  0.3771  0.4377
  699MOL0     H92232   4.254   7.316   1.707 -0.4868  0.3591 -1.2560
  699MOL0     H92233   4.119   7.433   1.874  1.2021 -1.2584 -0.6242
  699MOL0     H92234   3.827   7.653   1.712 -1.6292  0.6080  0.0604
  699MOL0     H92235   3.896   7.815   1.720  0.5601  0.6659  1.9227
  699MOL0     H92236   3.682   7.691   1.884  0.5689 -0.4727  1.7682
  699MOL0     H92237   3.707   7.851   1.840  0.8342  0.5583  0.2167
  699MOL0     H92238   3.911   7.849   2.006 -1.0618  0.4646 -4.3722
  699MOL0     H92239   3.853   7.693   2.062  0.7572  1.6126  2.8363
  699MOL0     H92240   3.642   7.899   2.064  0.4401  0.9721 -0.0470
  699MOL0     H92241   3.661   7.763   2.163 -1.3042  2.0481  0.7605
  699MOL0     H92242   3.685   7.937   2.304  1.6901 -2.0631  1.9038
  699MOL0     H92243   3.803   8.021   2.204 -1.7769 -0.2984 -0.2502
  699MOL0     H92244   3.978   7.836   2.259  1.4245 -2.1453  2.2885
  699MOL0     H92245   3.837   7.756   2.337 -4.0490  2.0755  1.8114
  699MOL0     H92246   3.838   7.936   2.491 -0.0091 -1.1756 -0.1078
  699MOL0     H92247   4.006   7.870   2.461 -0.6807 -1.0366 -1.0344
  699MOL0     H92248   4.050   8.087   2.321  0.0354 -0.7073 -0.2949
  699MOL0     H92249   4.041   8.112   2.488 -2.9122 -0.5732  1.8018
  699MOL0     H92250   4.053   7.753   1.579  3.6809  0.8425 -4.2154
  699MOL0     H92251   4.206   7.650   1.435 -1.4704  2.0586  0.3599
  699MOL0     H92252   4.425   7.229   1.375  0.9781  0.1523 -0.8157
  699MOL0     H92253   4.538   7.082   1.217 -2.8314  0.7639  0.3863
  699MOL0     H92254   6.595   7.035   0.787 -0.9245 -0.1520 -2.1663
  699MOL0     H92255   6.825   7.031   0.678 -0.1383 -0.3073 -1.7775
  699MOL0     H92256   7.211   7.015   0.440  0.9501 -0.7446  2.0959
  699MOL0     H92257   7.422   7.076   0.315 -0.2325 -0.0818  0.1127
  699MOL0     H92258   7.598   7.476   0.368 -0.7272  2.4997 -0.7382
  699MOL0     H92259   7.540   7.510   0.216 -2.4469 -0.6368  1.2063
  699MOL0     H92260   7.759   7.297   0.263 -1.6451 -0.7397 -0.2631
  699MOL0     H92261   7.705   7.351   0.101  3.2828 -0.0210 -0.4731
  699MOL0     H92262   7.812   7.531   0.098  1.9223 -1.0370 -1.3635
  699MOL0     H92263   7.926   7.411   0.152  0.5107  0.7728 -1.2363
  699MOL0     H92264   7.982   7.610   0.279  2.1034 -3.3128 -0.9105
  699MOL0     H92265   7.814   7.653   0.309  0.3461  0.6990 -2.8338
  699MOL0     H92266   7.861   7.374   0.621  1.4166 -2.6012 -1.6139
  699MOL0     H92267   7.352   7.493   0.390 -2.0650  1.8361  0.4819
  699MOL0     H92268   7.139   7.440   0.498 -0.4774  0.5913  0.6285
  700MOL0     O92269   6.459   3.856   0.667  0.0203  0.0355  0.1151
  700MOL0     C92270   6.538   3.786   0.727 -0.8859  0.1422  0.2204
  700MOL0     O92271   6.629   3.835   0.821 -0.3154  0.0696 -1.0008
  700MOL0     C92272   6.645   3.974   0.827 -0.4761  0.5114  1.1450
  700MOL0     C92273   6.672   4.027   0.956  0.0059 -0.0241  0.8013
  700MOL0     C92274   6.690   4.160   0.965 -0.6587  0.2490 -1.2099
  700MOL0     C92275   6.712   4.249   0.861  0.8037  0.0064 -0.3839
  700MOL0     O92276   6.741   4.384   0.883 -0.4041 -0.1683 -0.8720
  700MOL0     C92277   6.880   4.412   0.902  0.4751  0.1450 -0.7027
  700MOL0     C92278   6.918   4.524   0.800 -0.2536 -0.3825 -0.3469
  700MOL0     C92279   7.064   4.523   0.758 -0.2064 -0.4921 -0.6198
  700MOL0     C92280   7.070   4.591   0.616 -0.6030  0.6165 -1.2981
  700MOL0     C92281   7.210   4.624   0.576 -0.3633  0.5272  0.1983
  700MOL0     C92282   7.296   4.713   0.669 -0.4067  0.1594 -0.1323
  700MOL0     C92283   7.223   4.842   0.719  0.2247 -0.6148  0.3176
  700MOL0     C92284   7.162   4.922   0.601 -0.0721 -0.0453  0.1353
  700MOL0     N92285   7.266   4.972   0.518 -0.3954  0.2022  0.6882
  700MOL0     C92286   7.268   4.965   0.381  0.4591  0.0823  0.7243
  700MOL0     C92287   7.397   4.997   0.346 -0.4573 -0.0218  0.3406
  700MOL0     C92288   7.453   4.988   0.203  0.5971 -0.1183  0.3483
  700MOL0     C92289   7.609   4.992   0.193 -0.6024 -0.3205  0.5214
  700MOL0     C92290   7.662   4.975   0.048 -0.0597  0.3922  0.3036
  700MOL0     C92291   7.783   4.888   0.021 -1.1083 -0.2283 -0.0695
  700MOL0     O92292   7.898   4.972   0.034  0.4672  0.0618  0.0013
  700MOL0     C92293   8.032   4.940   0.013  0.0624 -0.0895  0.1532
  700MOL0     C92294   8.077   4.818  -0.023 -0.9189  0.0757  0.1629
  700MOL0     C92295   8.206   4.793  -0.055 -0.2956  0.6162  0.9629
  700MOL0     C92296   8.303   4.892  -0.043  0.3264 -0.4644 -0.9279
  700MOL0     C92297   8.446   4.878  -0.062 -0.1513 -0.4422 -0.5902
  700MOL0     O92298   8.500   4.765  -0.120 -0.1876  0.6340  0.8044
  700MOL0     C92299   8.632   4.752  -0.126  0.4454 -0.4457 -0.0353
  700MOL0     C92300   8.709   4.684  -0.032  0.0681  0.1002 -0.0053
  700MOL0     C92301   8.846   4.670  -0.040 -1.1333 -0.9254  0.5508
  700MOL0     C92302   8.917   4.728  -0.148  0.6127 -0.4941 -0.6194
  700MOL0     O92303   9.052   4.722  -0.166 -0.4791 -0.0098 -0.9019
  700MOL0     C92304   9.133   4.627  -0.095 -0.8861  0.0538 -0.0527
  700MOL0     C92305   9.275   4.655  -0.124  0.5506 -0.2077 -0.2939
  700MOL0     C92306   9.328   4.793  -0.091  0.4830 -0.1410 -0.9637
  700MOL0     C92307   9.483   4.795  -0.091 -0.3714  0.5794  0.3924
  700MOL0     C92308   9.531   4.919  -0.026 -0.2533  0.5494  0.2357
  700MOL0     C92309   9.685   4.932  -0.027  0.0938  0.1462  0.1147
  700MOL0     C92310   9.736   5.041   0.066 -0.0815  0.1174 -0.2402
  700MOL0     C92311   9.850   5.001   0.157  0.2445  1.0303 -0.2163
  700MOL0    Cl92312   9.998   4.963   0.076 -0.1833 -0.2894  0.7981
  700MOL0     C92313   8.839   4.807  -0.234  0.3758  0.4228  0.3681
  700MOL0     C92314   8.700   4.818  -0.227  0.5543  0.0461 -0.3033
  700MOL0     O92315   8.516   4.965  -0.024 -0.1505 -0.6262  0.0514
  700MOL0     C92316   8.256   5.022   0.004  0.4939  0.3097 -0.0795
  700MOL0     C92317   8.120   5.042   0.032  0.0086 -1.1076 -0.6922
  700MOL0     N92318   7.466   5.040   0.460  0.7490  0.1945  0.3568
  700MOL0     N92319   7.384   5.025   0.562 -0.4018 -0.1474  0.0355
  700MOL0     C92320   6.683   4.196   0.734  0.1279  0.3001  0.4871
  700MOL0     C92321   6.650   4.059   0.710 -1.2448  0.9845 -0.0392
  700MOL0     C92322   6.554   3.641   0.686  0.6353  0.4642  0.5484
  700MOL0     C92323   6.469   3.570   0.602 -0.3859  0.3162  0.1113
  700MOL0     C92324   6.496   3.432   0.563  1.3379 -0.2830 -0.1285
  700MOL0     C92325   6.612   3.368   0.612 -0.6418  0.9652  0.1799
  700MOL0     O92326   6.669   3.248   0.568 -0.4933  0.6869 -0.4050
  700MOL0     C92327   6.592   3.169   0.475 -0.3496  0.2012 -0.1475
  700MOL0     C92328   6.656   3.043   0.436  0.3495  0.0029 -1.0771
  700MOL0     C92329   6.643   2.936   0.546 -0.4515  0.3299 -0.4156
  700MOL0     C92330   6.717   2.811   0.505  0.3410 -0.8798 -0.3959
  700MOL0     C92331   6.713   2.695   0.594 -0.6371  0.0284  0.4630
  700MOL0     C92332   6.714   2.590   0.661  0.0591 -0.2515 -0.1470
  700MOL0     C92333   6.693   3.438   0.701 -0.2658  0.2841 -0.2673
  700MOL0     C92334   6.671   3.575   0.726 -0.7278 -0.5478 -0.4189
  700MOL0     H92335   6.656   3.957   1.037  0.4441  0.2302  1.1085
  700MOL0     H92336   6.696   4.204   1.064 -0.2131  0.5241 -1.3536
  700MOL0     H92337   6.937   4.320   0.883  0.0746 -0.3126  0.2632
  700MOL0     H92338   6.891   4.441   1.007  0.8617  2.0875 -1.2305
  700MOL0     H92339   6.897   4.625   0.836  1.5792 -0.9262  2.6526
  700MOL0     H92340   6.856   4.506   0.712  0.0732  0.7395 -0.8264
  700MOL0     H92341   7.109   4.424   0.747 -1.7891 -1.2145 -0.8347
  700MOL0     H92342   7.122   4.586   0.826  0.3052  0.5069 -1.9439
  700MOL0     H92343   7.029   4.529   0.536 -0.8513  1.5601 -1.9140
  700MOL0     H92344   7.014   4.685   0.615  2.0193  2.4045  1.5407
  700MOL0     H92345   7.210   4.671   0.477 -1.5772 -1.8195 -0.9878
  700MOL0     H92346   7.274   4.536   0.571  2.3103  2.4134 -2.2665
  700MOL0     H92347   7.386   4.739   0.613  0.3524 -0.5891  0.7147
  700MOL0     H92348   7.316   4.649   0.755 -0.0383  0.9422  0.3863
  700MOL0     H92349   7.145   4.799   0.782  0.1102  0.7281  1.1292
  700MOL0     H92350   7.298   4.904   0.769 -0.7957  3.0942 -2.3531
  700MOL0     H92351   7.114   5.012   0.640 -1.4647 -1.4725  1.8995
  700MOL0     H92352   7.080   4.882   0.539  0.4804  0.9882 -1.3170
  700MOL0     H92353   7.192   4.925   0.314 -0.1824  0.1929  1.3721
  700MOL0     H92354   7.416   5.078   0.153 -0.5137  0.6468  2.4029
  700MOL0     H92355   7.419   4.893   0.161 -0.2810  0.9962 -1.5778
  700MOL0     H92356   7.651   4.912   0.255  0.9962 -0.3689 -0.5799
  700MOL0     H92357   7.658   5.084   0.229  1.0937  0.2168 -2.8156
  700MOL0     H92358   7.582   4.925  -0.008 -0.5962 -1.4851  2.5649
  700MOL0     H92359   7.681   5.075   0.009  0.1774 -0.3732 -1.6496
  700MOL0     H92360   7.768   4.855  -0.082 -3.0682  2.6466 -0.8045
  700MOL0     H92361   7.780   4.802   0.089  2.5333 -1.4477 -1.1707
  700MOL0     H92362   8.018   4.732  -0.052  2.2914 -2.2621  0.0693
  700MOL0     H92363   8.235   4.692  -0.081 -1.7695  0.5035 -0.4286
  700MOL0     H92364   8.658   4.641   0.054  0.5264  1.6756  1.1138
  700MOL0     H92365   8.891   4.620   0.046 -1.4707  0.5677  1.6318
  700MOL0     H92366   9.114   4.526  -0.131 -0.9533 -0.8219  2.3231
  700MOL0     H92367   9.114   4.628   0.012  1.4927 -2.4012  0.4924
  700MOL0     H92368   9.302   4.637  -0.228  4.2594  1.4273  0.2604
  700MOL0     H92369   9.321   4.569  -0.074  0.6582 -0.5565 -0.9728
  700MOL0     H92370   9.299   4.809   0.013  2.8053 -0.7758 -0.1628
  700MOL0     H92371   9.281   4.868  -0.156 -0.9119  2.1666  2.3756
  700MOL0     H92372   9.522   4.706  -0.041 -1.4966 -0.6812 -0.9024
  700MOL0     H92373   9.510   4.799  -0.197 -0.9766  1.2988  0.2555
  700MOL0     H92374   9.498   4.927   0.078  1.2515 -0.4265  0.8275
  700MOL0     H92375   9.497   5.003  -0.087 -0.1145  0.0796 -0.5026
  700MOL0     H92376   9.712   4.956  -0.131 -1.6061  1.5914 -0.0433
  700MOL0     H92377   9.734   4.836  -0.011  0.1106 -0.2134 -1.7872
  700MOL0     H92378   9.776   5.124   0.007  1.1106  0.1936  0.6334
  700MOL0     H92379   9.649   5.073   0.125 -1.4122 -1.5271 -1.2294
  700MOL0     H92380   9.809   4.910   0.202  0.0077  0.4558 -1.5408
  700MOL0     H92381   9.871   5.083   0.226 -1.1201  0.8586  0.4467
  700MOL0     H92382   8.896   4.870  -0.302  1.6622 -0.2847  0.7611
  700MOL0     H92383   8.638   4.884  -0.287  2.7878  1.5857 -1.0747
  700MOL0     H92384   8.320   5.106   0.028 -0.1266  0.5844  0.6950
  700MOL0     H92385   8.081   5.123   0.093  0.6943 -2.3786  1.5913
  700MOL0     H92386   6.689   4.265   0.650 -0.7215  1.1651  1.1174
  700MOL0     H92387   6.633   4.015   0.612  0.2633 -1.3315  0.6701
  700MOL0     H92388   6.389   3.630   0.561  2.4325  4.0917 -0.4033
  700MOL0     H92389   6.435   3.389   0.484 -1.3846 -0.3524  1.8559
  700MOL0     H92390   6.572   3.218   0.379  0.0473  1.4281  0.3775
  700MOL0     H92391   6.491   3.158   0.516  0.1632 -2.5398  0.5499
  700MOL0     H92392   6.607   3.004   0.346  0.5474 -1.2313 -0.6710
  700MOL0     H92393   6.760   3.067   0.414  0.7656 -1.8289 -1.3029
  700MOL0     H92394   6.538   2.910   0.564 -0.0559 -0.7035  0.5073
  700MOL0     H92395   6.689   2.973   0.638 -1.9338  3.5495 -0.8458
  700MOL0     H92396   6.696   2.781   0.402 -0.0212 -0.6957 -0.3764
  700MOL0     H92397   6.819   2.850   0.511  0.4460 -1.3084  0.9917
  700MOL0     H92398   6.739   2.497   0.710 -0.7142 -1.1153 -1.3472
  700MOL0     H92399   6.776   3.373   0.730 -1.4835 -1.3635 -0.3027
  700MOL0     H92400   6.744   3.629   0.786 -1.9269 -0.2536  0.8332
  701MOL0     O92401   1.980   0.061   8.164  0.4051  0.3822 -0.1679
  701MOL0     C92402   1.898   0.086   8.074  0.6453 -0.7495 -0.1671
  701MOL0     O92403   1.932   0.143   7.953 -0.3577 -0.7298  0.9494
  701MOL0     C92404   2.067   0.170   7.933  0.0858 -0.5163  1.0758
  701MOL0     C92405   2.155   0.241   8.014 -0.7431  0.7269 -0.3015
  701MOL0     C92406   2.282   0.284   7.969  0.0869 -0.2499  0.0850
  701MOL0     C92407   2.334   0.249   7.840  0.2730  1.0530 -0.2420
  701MOL0     O92408   2.463   0.271   7.797  0.5989 -0.1536 -0.4248
  701MOL0     C92409   2.568   0.329   7.879 -0.0875 -0.7117  0.3812
  701MOL0     C92410   2.667   0.222   7.905  0.7223 -0.5251  0.1418
  701MOL0     C92411   2.799   0.270   7.967 -0.3850 -0.1139 -0.7437
  701MOL0     C92412   2.895   0.144   7.985  0.0125 -0.3549  0.0394
  701MOL0     C92413   3.036   0.151   8.033 -0.2907 -0.0637 -0.0261
  701MOL0     C92414   3.126   0.215   7.921 -0.6710  0.2869 -0.5460
  701MOL0     C92415   3.274   0.208   7.963  0.4964  0.0715  0.0460
  701MOL0     C92416   3.362   0.288   7.871 -0.6159 -0.6144  0.3095
  701MOL0     N92417   3.502   0.283   7.917  0.1918 -0.6004  0.5763
  701MOL0     C92418   3.558   0.363   8.017  0.1935 -0.2119 -0.3055
  701MOL0     C92419   3.687   0.319   8.026  0.5244 -0.3538 -0.5054
  701MOL0     C92420   3.801   0.393   8.088 -0.4423 -0.1612  0.4940
  701MOL0     C92421   3.896   0.287   8.149 -1.2641  0.9146 -0.6837
  701MOL0     C92422   3.833   0.204   8.266 -1.1447 -0.1818  0.3638
  701MOL0     C92423   3.787   0.280   8.391  0.5421  0.4382  0.2395
  701MOL0     O92424   3.677   0.374   8.374  0.6753  0.9304  0.1626
  701MOL0     C92425   3.545   0.340   8.397  0.1209 -0.8773  0.7376
  701MOL0     C92426   3.489   0.220   8.355 -0.4539  0.6949 -0.8195
  701MOL0     C92427   3.357   0.177   8.389  0.3775  0.1684  0.6331
  701MOL0     C92428   3.273   0.261   8.466 -0.7538  0.0150 -0.6281
  701MOL0     C92429   3.136   0.212   8.526  0.4057 -1.7043  0.2142
  701MOL0     O92430   3.071   0.305   8.597  0.1357 -0.4083 -0.2405
  701MOL0     C92431   2.961   0.250   8.653 -0.0752  0.4490 -0.1891
  701MOL0     C92432   2.950   0.180   8.774 -0.2026 -0.0518  0.0002
  701MOL0     C92433   2.831   0.122   8.815 -0.7640  0.1035 -0.5006
  701MOL0     C92434   2.715   0.143   8.742 -0.0469  0.3426 -0.0198
  701MOL0     O92435   2.598   0.065   8.751  0.3577 -0.1153  0.1978
  701MOL0     C92436   2.602  -0.034   8.850  0.3428  0.0117 -0.2018
  701MOL0     C92437   2.469  -0.098   8.859 -0.1910  0.6389  0.0662
  701MOL0     C92438   2.427  -0.171   8.733  0.6703  0.5053 -0.3552
  701MOL0     C92439   2.525  -0.268   8.672 -0.7297 -0.3874  0.2359
  701MOL0     C92440   2.553  -0.394   8.755 -0.2165 -0.0129 -0.7390
  701MOL0     C92441   2.426  -0.478   8.796  0.5133  0.6190 -0.4491
  701MOL0     C92442   2.348  -0.519   8.670  0.1861  0.3912 -0.2840
  701MOL0     C92443   2.222  -0.601   8.690 -0.3343 -0.2512 -0.4447
  701MOL0    Cl92444   2.091  -0.487   8.747 -0.2667 -0.3365  0.4371
  701MOL0     C92445   2.722   0.228   8.624  0.2949 -0.3375  0.4865
  701MOL0     C92446   2.845   0.280   8.582  0.6301 -0.2671 -0.1809
  701MOL0     O92447   3.099   0.093   8.514 -0.5271  0.0188 -0.4778
  701MOL0     C92448   3.334   0.391   8.501  0.6610  0.4575 -0.1356
  701MOL0     C92449   3.465   0.431   8.467  0.0337  0.3223  0.1052
  701MOL0     N92450   3.707   0.224   7.927 -0.5129  0.2282 -0.4951
  701MOL0     N92451   3.594   0.193   7.879  0.6745 -0.3410 -0.2429
  701MOL0     C92452   2.239   0.185   7.759 -0.0031  0.3483 -0.5331
  701MOL0     C92453   2.110   0.144   7.807 -1.1784  0.8437  0.1565
  701MOL0     C92454   1.751   0.081   8.108  0.0118  1.3851  0.1407
  701MOL0     C92455   1.708   0.058   8.238 -0.9747 -0.1210 -0.9519
  701MOL0     C92456   1.578   0.047   8.273 -0.0975  0.2142  0.5114
  701MOL0     C92457   1.481   0.041   8.172  0.6615 -0.1838  0.0055
  701MOL0     O92458   1.347   0.020   8.184 -0.1132  0.1137 -0.1119
  701MOL0     C92459   1.288  -0.008   8.307 -0.5087  0.0648  0.1212
  701MOL0     C92460   1.142  -0.033   8.271  0.6993  0.4703 -0.0715
  701MOL0     C92461   1.073  -0.077   8.403 -0.9026 -0.2793  0.3736
  701MOL0     C92462   0.919  -0.048   8.392  0.1042 -0.7206 -0.0879
  701MOL0     C92463   0.842  -0.085   8.512 -0.2039  0.6182 -0.0410
  701MOL0     C92464   0.781  -0.134   8.600  0.7568  0.9581 -0.2020
  701MOL0     C92465   1.518   0.068   8.040  0.1934 -1.5618 -0.8334
  701MOL0     C92466   1.659   0.084   8.010 -0.2986 -0.2893 -1.4550
  701MOL0     H92467   2.136   0.282   8.113  5.2402  3.1336  0.3112
  701MOL0     H92468   2.334   0.343   8.043  0.7022  0.2989 -0.7575
  701MOL0     H92469   2.541   0.375   7.975  1.3350  1.3154 -0.1420
  701MOL0     H92470   2.616   0.410   7.824 -1.5049  1.3800  2.0767
  701MOL0     H92471   2.688   0.174   7.809  1.7726 -1.1358  0.6622
  701MOL0     H92472   2.615   0.152   7.971  0.2466  1.7144  2.3030
  701MOL0     H92473   2.781   0.313   8.066  2.7768 -0.6257  0.1889
  701MOL0     H92474   2.837   0.354   7.908 -4.2613  3.4732  1.2687
  701MOL0     H92475   2.853   0.068   8.052  0.0322 -1.2131 -0.8891
  701MOL0     H92476   2.900   0.102   7.884  0.3162 -2.7057  0.9557
  701MOL0     H92477   3.072   0.054   8.067 -1.2773 -0.1314  0.9066
  701MOL0     H92478   3.042   0.219   8.119 -1.0229  1.6007 -1.2363
  701MOL0     H92479   3.086   0.316   7.908 -1.9046  0.1782  1.7835
  701MOL0     H92480   3.107   0.148   7.837  3.0520 -0.4736 -0.9371
  701MOL0     H92481   3.279   0.250   8.064  1.6021 -0.2333  0.1409
  701MOL0     H92482   3.306   0.103   7.963 -0.8536 -0.3560 -0.7187
  701MOL0     H92483   3.327   0.392   7.865  1.5444  0.0744 -2.0824
  701MOL0     H92484   3.358   0.242   7.771  1.6014 -0.3093  0.0197
  701MOL0     H92485   3.516   0.449   8.067  0.5678 -0.5397  0.5948
  701MOL0     H92486   3.765   0.467   8.160  0.1011  0.4219  0.1766
  701MOL0     H92487   3.846   0.441   8.001  0.8696 -0.8673  0.7512
  701MOL0     H92488   3.980   0.339   8.196 -2.5478  2.9031 -0.4595
  701MOL0     H92489   3.936   0.225   8.068  0.0039 -0.3488  0.8407
  701MOL0     H92490   3.749   0.144   8.231 -1.4247 -0.7788  1.9813
  701MOL0     H92491   3.909   0.134   8.301 -0.7388  1.1656  2.3206
  701MOL0     H92492   3.877   0.331   8.427  2.4916 -0.0782 -3.3594
  701MOL0     H92493   3.756   0.199   8.458 -1.2201  3.0651  2.8111
  701MOL0     H92494   3.537   0.133   8.311 -3.0535  0.6295 -3.8915
  701MOL0     H92495   3.330   0.079   8.350  3.3590 -1.3945  2.1070
  701MOL0     H92496   3.045   0.154   8.821 -0.7086 -1.0430  0.5162
  701MOL0     H92497   2.817   0.061   8.903  1.8918  0.2403  0.1227
  701MOL0     H92498   2.608   0.008   8.951 -1.6161  0.4536 -0.2304
  701MOL0     H92499   2.681  -0.109   8.858 -1.6671 -2.0427  2.4800
  701MOL0     H92500   2.388  -0.026   8.874 -0.0517  0.7914  0.0852
  701MOL0     H92501   2.478  -0.162   8.946 -0.5443  0.6211  0.0932
  701MOL0     H92502   2.403  -0.094   8.659 -0.2132  0.4749 -0.1056
  701MOL0     H92503   2.337  -0.228   8.759  0.7525  1.0043  1.1235
  701MOL0     H92504   2.480  -0.294   8.576 -0.7602  3.6621 -1.0342
  701MOL0     H92505   2.614  -0.212   8.643 -1.0615  2.2774  3.6503
  701MOL0     H92506   2.603  -0.357   8.845 -0.3333 -2.4315  0.3917
  701MOL0     H92507   2.625  -0.460   8.707  0.0469  0.2700 -0.7324
  701MOL0     H92508   2.369  -0.424   8.871  2.3296 -0.2685  1.6814
  701MOL0     H92509   2.462  -0.569   8.844  1.6034  1.2799  0.0135
  701MOL0     H92510   2.305  -0.437   8.611 -2.0704 -0.5141 -0.0176
  701MOL0     H92511   2.415  -0.572   8.602  1.0659  1.0944  0.0245
  701MOL0     H92512   2.237  -0.680   8.765 -1.0334  0.8716  0.9136
  701MOL0     H92513   2.186  -0.649   8.599  0.1256 -1.4034 -0.0476
  701MOL0     H92514   2.636   0.235   8.558  0.2348 -1.2901  0.4589
  701MOL0     H92515   2.868   0.323   8.485  1.1010  0.5874  0.2947
  701MOL0     H92516   3.282   0.452   8.574 -1.1111 -1.8767  0.7076
  701MOL0     H92517   3.509   0.518   8.515  0.3678  0.9119 -1.1950
  701MOL0     H92518   2.262   0.153   7.657  1.0220 -1.5572  0.2504
  701MOL0     H92519   2.042   0.095   7.738 -0.4506 -1.0633  0.7045
  701MOL0     H92520   1.786   0.054   8.314  1.3592  1.9380 -3.0706
  701MOL0     H92521   1.548   0.034   8.377  0.1793  1.5548  0.7720
  701MOL0     H92522   1.308   0.076   8.374 -0.4168 -1.4900  2.1275
  701MOL0     H92523   1.333  -0.097   8.351  1.7152  1.8856  1.7792
  701MOL0     H92524   1.091   0.056   8.234  0.7884  0.6539  0.2397
  701MOL0     H92525   1.122  -0.109   8.195  3.7901 -1.0538  0.4965
  701MOL0     H92526   1.121  -0.033   8.491  2.1008  0.0703 -1.3383
  701MOL0     H92527   1.094  -0.184   8.408 -0.9130 -0.2323  1.8605
  701MOL0     H92528   0.902   0.056   8.365  0.8946 -1.0690 -2.1492
  701MOL0     H92529   0.884  -0.114   8.312  1.1499 -1.9517  0.4303
  701MOL0     H92530   0.734  -0.164   8.692  0.8413 -0.1238 -0.5020
  701MOL0     H92531   1.453   0.075   7.954  0.0578  2.7038 -0.5826
  701MOL0     H92532   1.684   0.061   7.907 -1.9993  1.0002 -2.2216
  702MOL0     O92533   9.236  11.234   2.819 -0.0494 -0.0365 -0.0492
  702MOL0     C92534   9.248  11.195   2.937  0.6258 -0.0376  1.0097
  702MOL0     O92535   9.173  11.094   2.984 -0.2113  0.5360 -0.2948
  702MOL0     C92536   9.073  11.036   2.909 -0.3077 -0.1816  0.8902
  702MOL0     C92537   8.945  11.098   2.880 -0.2969  0.3065 -0.1016
  702MOL0     C92538   8.849  11.037   2.798 -0.3307 -0.3330  0.3061
  702MOL0     C92539   8.883  10.918   2.737  0.5033 -1.2899  0.2732
  702MOL0     O92540   8.786  10.866   2.657  0.2392 -0.5807  0.1306
  702MOL0     C92541   8.809  10.808   2.534  0.9291 -0.7321 -0.6172
  702MOL0     C92542   8.801  10.925   2.432 -0.5881 -0.0345  0.2646
  702MOL0     C92543   8.851  10.885   2.293 -0.0420 -0.7142  0.8901
  702MOL0     C92544   8.769  10.787   2.202 -0.0687  0.2635  0.0435
  702MOL0     C92545   8.620  10.829   2.175 -0.4802  0.1646 -0.4930
  702MOL0     C92546   8.600  10.967   2.111 -0.4241  0.8378 -1.1021
  702MOL0     C92547   8.454  11.017   2.120 -0.4427 -0.8071  0.8798
  702MOL0     C92548   8.427  11.158   2.088  0.1308  0.0755 -0.2934
  702MOL0     N92549   8.286  11.191   2.053  0.3256  0.3027 -0.3480
  702MOL0     C92550   8.223  11.211   1.935 -0.2352 -0.4883  0.2157
  702MOL0     C92551   8.103  11.256   1.956  0.3379  0.3289  0.0428
  702MOL0     C92552   8.000  11.293   1.852 -0.8475  0.5659  0.5467
  702MOL0     C92553   7.893  11.186   1.856  0.7557 -0.1911 -0.1050
  702MOL0     C92554   7.763  11.228   1.785 -0.8669 -0.7354  0.3559
  702MOL0     C92555   7.636  11.157   1.819 -0.7397 -0.4084 -0.7613
  702MOL0     O92556   7.644  11.017   1.814  0.5185 -0.4042 -0.0495
  702MOL0     C92557   7.556  10.938   1.876  0.7429 -0.4945  0.9601
  702MOL0     C92558   7.434  10.974   1.929  0.5203 -1.5784  0.2448
  702MOL0     C92559   7.342  10.877   1.982 -0.9817  0.6213 -0.1189
  702MOL0     C92560   7.370  10.744   1.985  0.6013  0.0584  0.5563
  702MOL0     C92561   7.285  10.640   2.047 -0.7550 -0.8872 -0.3116
  702MOL0     O92562   7.355  10.521   2.071 -0.7719 -0.3236 -0.7072
  702MOL0     C92563   7.310  10.439   2.164  0.4631  0.1968  0.6056
  702MOL0     C92564   7.294  10.308   2.138  0.1744  1.4436  0.0765
  702MOL0     C92565   7.267  10.215   2.238 -0.3324 -0.3119 -0.3810
  702MOL0     C92566   7.236  10.268   2.371 -0.3779 -0.4868  0.5371
  702MOL0     O92567   7.222  10.184   2.484  0.1204  0.5434 -0.7376
  702MOL0     C92568   7.314  10.075   2.500 -0.2427  0.5496 -0.3062
  702MOL0     C92569   7.302  10.020   2.638  0.0587 -0.7373 -0.4896
  702MOL0     C92570   7.384   9.883   2.638 -0.1739  0.6264  0.1610
  702MOL0     C92571   7.338   9.795   2.749  0.1843 -0.4416 -0.2096
  702MOL0     C92572   7.455   9.703   2.775  0.0396  0.6480 -0.7456
  702MOL0     C92573   7.403   9.582   2.860 -0.5870 -0.8271 -0.3844
  702MOL0     C92574   7.531   9.498   2.909 -0.4281  0.3831  0.2445
  702MOL0     C92575   7.537   9.355   2.859 -0.2096 -0.4115 -0.4412
  702MOL0    Cl92576   7.698   9.304   2.914 -0.1909 -0.4388 -0.0323
  702MOL0     C92577   7.247  10.402   2.398  0.6580 -0.0959  1.4299
  702MOL0     C92578   7.288  10.488   2.296  0.4514  0.7254 -0.3588
  702MOL0     O92579   7.179  10.669   2.097 -0.4538  0.2537  0.0972
  702MOL0     C92580   7.496  10.710   1.930 -0.2279 -0.2911 -0.7013
  702MOL0     C92581   7.579  10.803   1.875 -0.0184 -0.2392  1.3814
  702MOL0     N92582   8.080  11.265   2.090  0.1797  0.4313 -0.2481
  702MOL0     N92583   8.187  11.225   2.152  0.0272  1.0869  0.2702
  702MOL0     C92584   8.998  10.850   2.766  0.1322 -1.1973  0.7326
  702MOL0     C92585   9.088  10.917   2.847 -0.5796 -0.0686 -0.8480
  702MOL0     C92586   9.341  11.255   3.035 -0.4106  0.1233  0.0813
  702MOL0     C92587   9.343  11.209   3.165  0.4335 -0.1701  0.4099
  702MOL0     C92588   9.438  11.270   3.251 -0.3945 -0.4920  0.3082
  702MOL0     C92589   9.536  11.369   3.206  0.8168  0.1530 -0.4217
  702MOL0     O92590   9.636  11.401   3.293  0.3461 -0.5675  0.7868
  702MOL0     C92591   9.738  11.510   3.270 -0.2830  0.0223  0.2025
  702MOL0     C92592   9.843  11.453   3.172 -0.1572  1.3891  0.2687
  702MOL0     C92593   9.989  11.442   3.220 -0.2103  0.3096 -0.2714
  702MOL0     C92594  10.104  11.424   3.110  0.3935  0.3261  0.5487
  702MOL0     C92595  10.130  11.557   3.050  0.5318  0.1233 -0.5436
  702MOL0     C92596  10.168  11.648   2.993 -0.4450  0.4028  0.3568
  702MOL0     C92597   9.527  11.398   3.070 -0.2553 -0.4771 -0.4051
  702MOL0     C92598   9.438  11.339   2.985  0.8579 -0.5989  0.5464
  702MOL0     H92599   8.930  11.198   2.921 -1.4881  0.8982 -1.8556
  702MOL0     H92600   8.746  11.074   2.790  0.2387  1.1585 -0.7033
  702MOL0     H92601   8.731  10.739   2.500  4.1183 -4.7706 -0.5587
  702MOL0     H92602   8.908  10.761   2.534  2.3836  2.1358 -1.5051
  702MOL0     H92603   8.869  11.002   2.467  0.0245 -0.0560 -0.8453
  702MOL0     H92604   8.697  10.961   2.432 -0.4106  0.4841  0.7463
  702MOL0     H92605   8.951  10.841   2.298 -0.7709 -2.5235  0.1895
  702MOL0     H92606   8.862  10.979   2.239 -0.0576 -0.3779  1.4588
  702MOL0     H92607   8.821  10.779   2.107 -2.5102 -1.2013 -1.2651
  702MOL0     H92608   8.765  10.685   2.240 -3.5657  1.5672  4.0413
  702MOL0     H92609   8.569  10.837   2.272  2.2727  0.0208  1.0688
  702MOL0     H92610   8.578  10.752   2.109 -0.5697  1.4131 -1.9341
  702MOL0     H92611   8.626  10.968   2.005  0.3771  1.1727 -0.9058
  702MOL0     H92612   8.675  11.034   2.154 -0.4338  1.2524 -1.7100
  702MOL0     H92613   8.389  10.960   2.054 -0.8845 -1.7719  2.0976
  702MOL0     H92614   8.409  11.010   2.220 -0.6112  2.6926  1.1674
  702MOL0     H92615   8.492  11.181   2.003 -0.7401 -1.9302 -1.5682
  702MOL0     H92616   8.453  11.222   2.173  0.7956 -4.6074  3.4960
  702MOL0     H92617   8.273  11.198   1.840  1.1874 -0.3405  0.9124
  702MOL0     H92618   8.045  11.304   1.753 -0.5604  1.8775  0.7973
  702MOL0     H92619   7.952  11.390   1.869  0.2741  1.3138 -0.3988
  702MOL0     H92620   7.867  11.161   1.959 -0.0937 -0.7838 -0.4466
  702MOL0     H92621   7.934  11.095   1.810  2.0527 -0.0935  0.8151
  702MOL0     H92622   7.740  11.333   1.805 -0.3720 -0.7669  1.1010
  702MOL0     H92623   7.774  11.221   1.677  1.5560 -0.6675  0.5500
  702MOL0     H92624   7.548  11.189   1.763 -0.5790  2.0382  0.2575
  702MOL0     H92625   7.621  11.194   1.921  2.4639  3.5134 -1.4121
  702MOL0     H92626   7.411  11.080   1.927  1.1988 -1.4227  0.6519
  702MOL0     H92627   7.257  10.920   2.035  0.7631  2.6317  1.2202
  702MOL0     H92628   7.314  10.278   2.035 -0.5705 -1.2708  0.6362
  702MOL0     H92629   7.264  10.107   2.232  0.5032 -0.2736 -1.7796
  702MOL0     H92630   7.418  10.099   2.476 -1.2167  2.2935 -3.3085
  702MOL0     H92631   7.273   9.998   2.435 -0.0169  1.5641 -1.7043
  702MOL0     H92632   7.195  10.006   2.659 -0.5352  1.8894 -1.3331
  702MOL0     H92633   7.336  10.097   2.708 -1.9033  1.0028 -1.3116
  702MOL0     H92634   7.491   9.909   2.636  0.7298 -2.3742  2.4034
  702MOL0     H92635   7.364   9.825   2.547  0.5764 -1.3782  1.2118
  702MOL0     H92636   7.314   9.865   2.830 -2.0848  1.1741 -2.1543
  702MOL0     H92637   7.251   9.742   2.710  1.1683 -0.7385 -2.1145
  702MOL0     H92638   7.521   9.766   2.835  1.3764  0.4155 -1.9293
  702MOL0     H92639   7.497   9.666   2.681 -1.8517  0.5704 -1.6059
  702MOL0     H92640   7.335   9.523   2.799 -0.2936 -0.8103 -0.7273
  702MOL0     H92641   7.362   9.619   2.955  0.2464  0.4673 -0.4923
  702MOL0     H92642   7.623   9.551   2.882  0.7951 -1.0762  1.3571
  702MOL0     H92643   7.531   9.500   3.018 -0.0194 -1.0004  0.2822
  702MOL0     H92644   7.542   9.345   2.750  0.4379 -0.5555 -0.4044
  702MOL0     H92645   7.456   9.292   2.896 -0.5602 -0.5821 -1.4504
  702MOL0     H92646   7.210  10.444   2.491 -1.3351 -1.4397  1.3121
  702MOL0     H92647   7.283  10.595   2.315  0.5747  1.0918 -2.2092
  702MOL0     H92648   7.528  10.608   1.949 -3.3782 -1.4220 -1.0073
  702MOL0     H92649   7.667  10.762   1.827 -1.7024 -0.2944 -1.9014
  702MOL0     H92650   9.028  10.751   2.733  0.2324 -2.0235  3.1341
  702MOL0     H92651   9.177  10.856   2.858 -0.2826  0.0682 -2.3087
  702MOL0     H92652   9.269  11.140   3.205 -3.6918  1.6034 -3.3275
  702MOL0     H92653   9.453  11.241   3.354 -0.7439 -0.3119  0.4121
  702MOL0     H92654   9.793  11.538   3.361  3.8502  0.5438 -2.2243
  702MOL0     H92655   9.685  11.598   3.233  1.5899  0.5888 -1.2503
  702MOL0     H92656   9.803  11.357   3.140  1.7875  0.7989 -0.5608
  702MOL0     H92657   9.855  11.507   3.077 -1.7103 -2.8896 -2.6273
  702MOL0     H92658   9.997  11.359   3.290  1.9970  0.3137 -0.4270
  702MOL0     H92659  10.009  11.532   3.280 -1.5978  0.2374  0.3363
  702MOL0     H92660  10.201  11.388   3.145  0.6403 -2.8850 -2.8362
  702MOL0     H92661  10.075  11.351   3.033  0.4482 -1.3986  2.1155
  702MOL0     H92662  10.209  11.718   2.923  1.3953 -0.1021  0.8590
  702MOL0     H92663   9.586  11.471   3.015 -2.2634  0.3788 -1.5042
  702MOL0     H92664   9.429  11.367   2.880 -0.2887 -0.9722  0.5307
  703MOL0     O92665   1.482   8.517   8.541  0.3729  0.0452  0.1400
  703MOL0     C92666   1.530   8.473   8.647 -0.6453  0.0546  0.5205
  703MOL0     O92667   1.466   8.375   8.721  0.1519 -0.1963 -0.0807
  703MOL0     C92668   1.359   8.304   8.683 -0.4043  0.0664  0.9978
  703MOL0     C92669   1.256   8.270   8.772 -0.1283 -0.5567 -0.5517
  703MOL0     C92670   1.149   8.180   8.726 -0.4251  0.3146  1.0829
  703MOL0     C92671   1.167   8.114   8.608 -0.7326  0.1161  0.2976
  703MOL0     O92672   1.089   8.010   8.572 -0.1454 -0.8512 -0.0906
  703MOL0     C92673   1.133   7.900   8.652 -0.1665  0.3970 -0.1448
  703MOL0     C92674   1.118   7.764   8.576  0.2279 -0.1002 -0.3557
  703MOL0     C92675   1.131   7.634   8.655  0.1131 -0.3458  0.3771
  703MOL0     C92676   1.276   7.625   8.719 -0.5924  0.1545  0.3532
  703MOL0     C92677   1.314   7.488   8.766  1.0313 -1.0189 -0.4451
  703MOL0     C92678   1.359   7.400   8.648 -0.3426  0.3180 -0.4886
  703MOL0     C92679   1.384   7.260   8.710 -0.2784  0.6767 -0.8079
  703MOL0     C92680   1.260   7.191   8.785 -0.0861  0.1274  0.5005
  703MOL0     N92681   1.125   7.187   8.710 -0.9279  0.2035 -0.0003
  703MOL0     C92682   1.121   7.124   8.588  0.0122 -0.1306  0.0311
  703MOL0     C92683   0.999   7.161   8.544  0.0854  0.6326 -0.0278
  703MOL0     C92684   0.938   7.113   8.413 -0.5574  0.3921  0.0385
  703MOL0     C92685   0.830   7.013   8.419  0.6540 -0.7225 -0.4184
  703MOL0     C92686   0.772   7.007   8.279  0.0024  0.0627 -0.4819
  703MOL0     C92687   0.660   6.901   8.277 -0.8263 -0.2460  0.0347
  703MOL0     O92688   0.605   6.909   8.147  0.2203  0.5729  0.1966
  703MOL0     C92689   0.498   6.826   8.117 -0.4529 -0.4460 -0.1834
  703MOL0     C92690   0.443   6.728   8.184  0.3749 -0.0450  0.5659
  703MOL0     C92691   0.337   6.656   8.144  0.2369  0.0251  0.3955
  703MOL0     C92692   0.280   6.684   8.020 -0.3859  0.3334  0.1004
  703MOL0     C92693   0.173   6.596   7.967  1.3200 -0.3752  0.2682
  703MOL0     O92694   0.169   6.563   7.834 -0.3135 -0.7497  0.1731
  703MOL0     C92695   0.091   6.463   7.788 -0.5052  0.0691 -0.8305
  703MOL0     C92696   0.074   6.342   7.854  1.0408  0.1155 -0.7843
  703MOL0     C92697  -0.012   6.244   7.802  0.1982 -1.0455  0.4509
  703MOL0     C92698  -0.096   6.280   7.687 -0.0721 -0.5406  0.0784
  703MOL0     O92699  -0.187   6.194   7.642  0.0849 -1.3432  0.6874
  703MOL0     C92700  -0.317   6.206   7.705  0.0207  0.0360 -0.0237
  703MOL0     C92701  -0.407   6.085   7.703 -0.4566 -0.1826  0.1834
  703MOL0     C92702  -0.355   5.972   7.800 -1.0992  0.0385 -0.3469
  703MOL0     C92703  -0.465   5.873   7.815 -0.1933  0.3749 -0.3577
  703MOL0     C92704  -0.427   5.754   7.905  0.0954 -0.0951 -0.3317
  703MOL0     C92705  -0.410   5.764   8.062  1.2988  0.3119  0.9077
  703MOL0     C92706  -0.507   5.850   8.132 -0.0346 -0.2761  0.1175
  703MOL0     C92707  -0.522   5.795   8.273  0.3831 -0.8768  0.2085
  703MOL0    Cl92708  -0.617   5.643   8.270 -0.3786 -0.2410  0.5006
  703MOL0     C92709  -0.077   6.401   7.623  0.4722 -0.0226  0.3603
  703MOL0     C92710   0.022   6.490   7.669  0.5227 -0.9307  0.5809
  703MOL0     O92711   0.089   6.562   8.046  0.1280 -0.4614  0.6632
  703MOL0     C92712   0.338   6.784   7.947 -0.3279  0.1969 -0.0957
  703MOL0     C92713   0.443   6.856   7.995 -0.6261  1.0289  0.4943
  703MOL0     N92714   0.948   7.257   8.622  0.2789 -0.3442  0.2012
  703MOL0     N92715   1.016   7.263   8.736 -0.1455 -0.6596 -0.3073
  703MOL0     C92716   1.263   8.152   8.521 -0.1525  0.0004 -0.2626
  703MOL0     C92717   1.363   8.246   8.556  0.0865 -0.8844 -0.6478
  703MOL0     C92718   1.654   8.520   8.698  0.7569 -0.4018  0.5865
  703MOL0     C92719   1.727   8.625   8.628 -0.3999 -0.5174 -0.5845
  703MOL0     C92720   1.851   8.674   8.682  0.2110 -0.1639 -0.0656
  703MOL0     C92721   1.904   8.619   8.801  0.1435 -0.8808  0.9306
  703MOL0     O92722   2.021   8.676   8.847 -0.1029  0.3524 -0.0052
  703MOL0     C92723   2.089   8.612   8.950  0.3130  0.3993  0.3743
  703MOL0     C92724   2.220   8.663   8.973 -1.0294  0.1490  0.6561
  703MOL0     C92725   2.225   8.810   9.026 -0.4656 -0.4641  0.1022
  703MOL0     C92726   2.365   8.868   9.051  0.3506  0.4527 -0.5106
  703MOL0     C92727   2.411   8.848   9.183 -0.2166  0.0824  0.4598
  703MOL0     C92728   2.436   8.820   9.300  0.0253  0.4229 -0.4029
  703MOL0     C92729   1.827   8.519   8.865 -0.4184  0.3024  0.4376
  703MOL0     C92730   1.710   8.467   8.814 -0.1742  0.1686 -0.4504
  703MOL0     H92731   1.228   8.334   8.856 -2.0641 -2.1195  0.0839
  703MOL0     H92732   1.073   8.166   8.802  1.5128  1.9122  3.4939
  703MOL0     H92733   1.063   7.884   8.735 -0.3658 -1.6128 -0.6661
  703MOL0     H92734   1.234   7.914   8.691  0.5491  5.3718 -2.8804
  703MOL0     H92735   1.195   7.774   8.499  0.9619  1.0167  0.4890
  703MOL0     H92736   1.019   7.763   8.530 -0.8106 -3.9162  1.5457
  703MOL0     H92737   1.124   7.555   8.580  0.3629  0.8884 -1.0083
  703MOL0     H92738   1.056   7.621   8.733  1.8783 -0.9707  2.0601
  703MOL0     H92739   1.352   7.661   8.648 -0.7649  1.9468  1.0382
  703MOL0     H92740   1.278   7.683   8.811  1.2420 -2.5390  2.1654
  703MOL0     H92741   1.233   7.440   8.821  1.4076 -2.2802 -0.9663
  703MOL0     H92742   1.391   7.493   8.844  1.0375 -3.4437 -0.2321
  703MOL0     H92743   1.450   7.449   8.613  0.2021 -0.4146 -0.1188
  703MOL0     H92744   1.293   7.401   8.561 -0.8159  0.1751 -0.1363
  703MOL0     H92745   1.416   7.187   8.635 -0.8834  0.0419 -0.4682
  703MOL0     H92746   1.467   7.263   8.781 -0.3015  0.8817 -0.7889
  703MOL0     H92747   1.259   7.236   8.885 -4.1553 -0.5725  0.9527
  703MOL0     H92748   1.282   7.086   8.806 -1.8210 -0.7930 -1.8407
  703MOL0     H92749   1.197   7.062   8.542 -0.6661  0.2163 -1.6207
  703MOL0     H92750   1.023   7.071   8.360  0.2070  2.0012 -0.0535
  703MOL0     H92751   0.897   7.199   8.360 -0.3437  1.7217  1.9368
  703MOL0     H92752   0.750   7.053   8.482 -0.2637  0.5561 -2.3172
  703MOL0     H92753   0.884   6.924   8.453  4.7829  2.7169  3.2401
  703MOL0     H92754   0.728   7.100   8.241 -1.1137 -0.8244 -1.4540
  703MOL0     H92755   0.844   6.967   8.207 -2.2365  0.7021 -3.2973
  703MOL0     H92756   0.591   6.927   8.358  2.7532  1.1099  2.9336
  703MOL0     H92757   0.709   6.806   8.302 -1.5071  0.2527  3.8757
  703MOL0     H92758   0.478   6.714   8.286  0.9762  2.1176  0.6996
  703MOL0     H92759   0.293   6.575   8.202  0.2311 -1.0990 -1.1436
  703MOL0     H92760   0.126   6.318   7.946 -1.7308 -1.4288  0.5111
  703MOL0     H92761   0.004   6.143   7.841  2.2863 -0.8481  0.2420
  703MOL0     H92762  -0.364   6.284   7.643  1.9776  1.0572 -0.3122
  703MOL0     H92763  -0.307   6.235   7.810  1.5729 -0.2823 -0.0631
  703MOL0     H92764  -0.408   6.048   7.600 -0.2094 -0.0341  0.1270
  703MOL0     H92765  -0.504   6.114   7.743  0.4587  2.3954  0.7151
  703MOL0     H92766  -0.324   6.013   7.897 -1.4579 -0.0602 -0.1898
  703MOL0     H92767  -0.269   5.931   7.747  0.5113  1.1270  1.2700
  703MOL0     H92768  -0.550   5.929   7.855  0.1698  0.4272  0.3549
  703MOL0     H92769  -0.487   5.837   7.714  2.3923 -0.0617 -0.8407
  703MOL0     H92770  -0.331   5.710   7.877 -0.8934 -3.2317  0.7463
  703MOL0     H92771  -0.495   5.672   7.882  0.5013 -1.2457  2.1556
  703MOL0     H92772  -0.314   5.810   8.088  1.4969 -0.1243  0.9434
  703MOL0     H92773  -0.416   5.666   8.109 -0.2989  0.4986  1.1360
  703MOL0     H92774  -0.475   5.955   8.133  2.3100 -0.8271  3.9497
  703MOL0     H92775  -0.603   5.834   8.082 -0.0360 -0.2389  0.1077
  703MOL0     H92776  -0.578   5.869   8.331 -0.3540 -1.7026  0.5752
  703MOL0     H92777  -0.433   5.765   8.330 -1.4287 -2.0786  2.5861
  703MOL0     H92778  -0.127   6.424   7.530  0.9015  2.7260  0.7287
  703MOL0     H92779   0.030   6.587   7.622 -2.4767 -0.4627  0.8678
  703MOL0     H92780   0.315   6.810   7.845  0.1332  1.3571  0.0881
  703MOL0     H92781   0.490   6.943   7.951 -0.0178  1.5490  2.1351
  703MOL0     H92782   1.254   8.100   8.427  0.4212  0.2149 -0.4413
  703MOL0     H92783   1.443   8.274   8.487  0.1174 -0.7357 -0.5508
  703MOL0     H92784   1.711   8.659   8.526 -1.2311 -1.6743 -0.8552
  703MOL0     H92785   1.895   8.762   8.636  1.1722 -1.6286 -2.1104
  703MOL0     H92786   2.095   8.510   8.910 -1.7650  1.0383 -1.8049
  703MOL0     H92787   2.038   8.624   9.046 -0.6057 -0.9659  0.0904
  703MOL0     H92788   2.274   8.601   9.046 -1.1770 -1.6660 -0.7200
  703MOL0     H92789   2.272   8.654   8.878 -0.1499  3.7357  0.6280
  703MOL0     H92790   2.165   8.819   9.117  0.9457 -3.1169  1.4134
  703MOL0     H92791   2.181   8.870   8.945  0.9065  0.8592  0.3125
  703MOL0     H92792   2.433   8.822   8.979  0.3985 -0.4629  0.1074
  703MOL0     H92793   2.370   8.976   9.035 -1.3218  0.8692  1.4645
  703MOL0     H92794   2.470   8.814   9.402 -0.2657  2.1476 -0.1745
  703MOL0     H92795   1.874   8.487   8.957  0.3907  3.9561  1.4583
  703MOL0     H92796   1.650   8.389   8.862 -1.5977  0.6483 -1.3984
  704MOL0     O92797   1.349  10.246   8.209 -0.1315 -0.0029  1.0114
  704MOL0     C92798   1.269  10.322   8.153 -0.1710 -0.0468 -0.0017
  704MOL0     O92799   1.298  10.426   8.070 -0.0741  0.3986 -0.6193
  704MOL0     C92800   1.431  10.456   8.049  0.3814 -0.5741 -0.5440
  704MOL0     C92801   1.465  10.596   8.043 -0.1552  0.4514 -0.4106
  704MOL0     C92802   1.599  10.641   8.036 -0.1880  0.6976 -1.0790
  704MOL0     C92803   1.698  10.547   8.010 -0.7916 -0.2237  0.0631
  704MOL0     O92804   1.833  10.577   7.987 -0.2557 -0.4506  0.2488
  704MOL0     C92805   1.865  10.681   7.891  0.1989 -0.5284  0.4947
  704MOL0     C92806   1.941  10.621   7.773  0.2149  0.1697 -1.0492
  704MOL0     C92807   1.882  10.479   7.725 -0.4587 -1.0070  0.2124
  704MOL0     C92808   1.939  10.442   7.583  0.0405  0.4674 -0.9055
  704MOL0     C92809   1.878  10.309   7.520  0.5801 -0.3435 -0.0326
  704MOL0     C92810   1.726  10.333   7.481  0.0608 -0.7088 -1.1398
  704MOL0     C92811   1.679  10.195   7.424  0.3927 -0.4630  0.0353
  704MOL0     C92812   1.535  10.208   7.372  0.0540 -0.2184  0.4199
  704MOL0     N92813   1.471  10.085   7.301  0.4443  0.2589 -0.4684
  704MOL0     C92814   1.529  10.003   7.205 -0.0810 -0.1370  0.5813
  704MOL0     C92815   1.424   9.947   7.145 -2.2186  0.4306 -1.2677
  704MOL0     C92816   1.443   9.859   7.033 -0.8031 -0.5973  1.3267
  704MOL0     C92817   1.367   9.920   6.900  1.3148 -0.2614 -0.1439
  704MOL0     C92818   1.419   9.831   6.786  0.3009 -0.2282 -0.3907
  704MOL0     C92819   1.312   9.842   6.677  0.1632 -0.0715  0.4780
  704MOL0     O92820   1.184   9.793   6.719 -0.0439 -0.0806 -0.5031
  704MOL0     C92821   1.093   9.747   6.623 -0.9891 -0.3644 -0.3053
  704MOL0     C92822   0.968   9.716   6.679  0.0964  0.9480  0.9106
  704MOL0     C92823   0.866   9.690   6.584 -1.0183 -0.0878 -0.4115
  704MOL0     C92824   0.876   9.712   6.440 -0.0513  0.3966 -0.0133
  704MOL0     C92825   0.768   9.675   6.342 -0.2112  0.3826  0.1350
  704MOL0     O92826   0.792   9.620   6.214 -0.0092 -0.1709 -0.6225
  704MOL0     C92827   0.673   9.606   6.144 -0.7469 -0.3486  0.8068
  704MOL0     C92828   0.589   9.713   6.114  0.1515 -0.1179 -0.0017
  704MOL0     C92829   0.468   9.696   6.055  0.9391  0.2626 -0.3160
  704MOL0     C92830   0.430   9.566   6.005 -0.2793  0.3629 -0.6366
  704MOL0     O92831   0.315   9.528   5.945 -0.8186 -0.0376 -0.0776
  704MOL0     C92832   0.232   9.637   5.890  0.5116 -0.0548 -0.8962
  704MOL0     C92833   0.140   9.592   5.783 -0.0829  0.0048 -0.6752
  704MOL0     C92834   0.191   9.606   5.639 -0.5989  0.2253  0.4638
  704MOL0     C92835   0.185   9.750   5.592  0.0081  0.6447  0.5402
  704MOL0     C92836   0.257   9.756   5.458 -0.0929 -1.5857  0.0364
  704MOL0     C92837   0.233   9.898   5.401  0.5034  1.1134 -0.8240
  704MOL0     C92838   0.275   9.895   5.260 -1.4035  0.5180 -0.2870
  704MOL0     C92839   0.176   9.958   5.168  0.1737 -0.0525  0.1761
  704MOL0    Cl92840   0.149  10.117   5.228 -0.0441 -0.2907 -0.0051
  704MOL0     C92841   0.525   9.463   6.024  0.8979 -0.4248  0.4907
  704MOL0     C92842   0.637   9.481   6.095 -1.3920  0.3291  0.7815
  704MOL0     O92843   0.657   9.699   6.392 -0.0276  0.0078 -0.1300
  704MOL0     C92844   1.010   9.742   6.396  0.0890 -0.5372 -0.1590
  704MOL0     C92845   1.113   9.751   6.488  0.2339 -0.1431  0.5015
  704MOL0     N92846   1.307   9.986   7.206 -0.2644  0.4133 -0.5212
  704MOL0     N92847   1.333  10.074   7.297 -0.3192 -0.2593 -0.0693
  704MOL0     C92848   1.658  10.408   8.012 -1.0858  0.1261 -0.0676
  704MOL0     C92849   1.531  10.363   8.027 -0.2060 -0.6410 -0.4139
  704MOL0     C92850   1.122  10.302   8.178 -0.1576  0.2817 -0.6879
  704MOL0     C92851   1.027  10.391   8.146  0.3450 -1.8530  0.3783
  704MOL0     C92852   0.892  10.381   8.170  0.3827 -0.3934  0.5524
  704MOL0     C92853   0.847  10.273   8.252  0.4570  0.7639  0.7906
  704MOL0     O92854   0.709  10.248   8.288 -0.2026  0.0909  0.0317
  704MOL0     C92855   0.612  10.347   8.268  0.1162  0.6613 -0.0539
  704MOL0     C92856   0.494  10.324   8.364  0.3251  0.3173  1.5782
  704MOL0     C92857   0.395  10.226   8.311 -0.4578 -0.1197  0.7933
  704MOL0     C92858   0.269  10.298   8.251 -0.1943  1.7258  0.0754
  704MOL0     C92859   0.179  10.346   8.356  0.5085 -0.3704  0.2962
  704MOL0     C92860   0.098  10.378   8.439 -0.7232 -1.0117 -0.8485
  704MOL0     C92861   0.939  10.186   8.302 -0.7387 -0.5880  0.5832
  704MOL0     C92862   1.078  10.190   8.261  0.4842 -0.1014 -0.2133
  704MOL0     H92863   1.384  10.660   8.076  0.2532 -0.1500  1.9448
  704MOL0     H92864   1.639  10.742   8.044  0.5758  0.3276  0.2190
  704MOL0     H92865   1.924  10.758   7.940 -2.8896  2.8470 -0.6318
  704MOL0     H92866   1.781  10.736   7.846  1.4837  0.1065 -1.2216
  704MOL0     H92867   2.044  10.609   7.809 -0.1867 -0.3359 -0.0477
  704MOL0     H92868   1.937  10.696   7.693  1.7199  0.4445 -0.8927
  704MOL0     H92869   1.773  10.481   7.725 -0.4794  1.0813 -0.2184
  704MOL0     H92870   1.911  10.397   7.790  0.9358 -1.3677 -0.8113
  704MOL0     H92871   1.918  10.524   7.513 -4.4452  0.2631 -0.1367
  704MOL0     H92872   2.045  10.431   7.607 -0.2385  1.3879  0.8930
  704MOL0     H92873   1.895  10.224   7.587  1.8664 -0.7549 -0.8497
  704MOL0     H92874   1.926  10.279   7.426 -0.1688 -0.0883 -0.5040
  704MOL0     H92875   1.713  10.406   7.401  3.1279  0.1489 -0.9870
  704MOL0     H92876   1.676  10.354   7.576  1.3360  0.7673 -0.7582
  704MOL0     H92877   1.744  10.146   7.351  0.6960  2.7584 -2.0640
  704MOL0     H92878   1.668  10.132   7.513 -4.0688  0.8283  0.6351
  704MOL0     H92879   1.535  10.284   7.293  0.1726 -2.3440 -1.7244
  704MOL0     H92880   1.472  10.246   7.453  0.2821  0.2966  0.3647
  704MOL0     H92881   1.635   9.994   7.186  0.3348  0.2679  2.5256
  704MOL0     H92882   1.413   9.756   7.055  2.7426 -1.6633  1.7050
  704MOL0     H92883   1.548   9.845   7.008 -0.5026 -1.9927  3.1618
  704MOL0     H92884   1.386  10.026   6.882  2.7680 -0.7095 -1.5112
  704MOL0     H92885   1.262   9.902   6.922  1.7158 -2.7749  0.0277
  704MOL0     H92886   1.516   9.860   6.745  1.1020 -1.2433  0.7194
  704MOL0     H92887   1.439   9.729   6.820  1.2817  0.1935  0.3463
  704MOL0     H92888   1.348   9.774   6.599 -2.9466 -2.0436  0.5848
  704MOL0     H92889   1.315   9.945   6.643  1.5947 -0.2259  0.0391
  704MOL0     H92890   0.944   9.723   6.785 -0.6186  2.2260  0.6888
  704MOL0     H92891   0.770   9.661   6.625 -1.6539  0.3519 -1.5307
  704MOL0     H92892   0.626   9.808   6.151 -2.1965  1.2417 -0.9252
  704MOL0     H92893   0.397   9.771   6.022  0.8757 -0.2606 -1.4106
  704MOL0     H92894   0.290   9.727   5.866  0.8681  0.2311  0.8905
  704MOL0     H92895   0.155   9.672   5.959  2.4460 -0.2063  1.4379
  704MOL0     H92896   0.046   9.648   5.785 -0.2504 -0.2915  0.1729
  704MOL0     H92897   0.121   9.491   5.822 -0.3671  1.0008  2.0394
  704MOL0     H92898   0.130   9.537   5.580  1.7671 -2.4015  0.8725
  704MOL0     H92899   0.294   9.571   5.639  0.1480  1.9514  4.4514
  704MOL0     H92900   0.086   9.792   5.570 -0.3538  0.0588  1.0459
  704MOL0     H92901   0.243   9.808   5.665 -0.8088  2.0699  0.0946
  704MOL0     H92902   0.203   9.691   5.389 -1.8702  1.5156 -1.7487
  704MOL0     H92903   0.364   9.738   5.471 -0.1901 -0.3614  3.3624
  704MOL0     H92904   0.291   9.969   5.462  4.1275 -0.8206 -1.6943
  704MOL0     H92905   0.131   9.936   5.408  0.8324  1.8434  0.6369
  704MOL0     H92906   0.375   9.940   5.254 -1.9094  1.9864  1.3792
  704MOL0     H92907   0.286   9.790   5.233 -2.8161  0.5131 -0.9207
  704MOL0     H92908   0.080   9.905   5.170  0.2694 -0.2622 -0.6779
  704MOL0     H92909   0.217   9.962   5.067 -0.0216  1.2696  0.1306
  704MOL0     H92910   0.506   9.371   5.970  1.0024 -0.5377  0.6447
  704MOL0     H92911   0.704   9.397   6.113 -0.5422  0.6779 -0.6159
  704MOL0     H92912   1.033   9.759   6.291  3.8567  1.5081  0.8313
  704MOL0     H92913   1.213   9.760   6.446 -0.4457  0.6086 -1.0773
  704MOL0     H92914   1.738  10.334   8.014 -1.1497  0.0665  2.2536
  704MOL0     H92915   1.509  10.257   8.022 -0.4415 -0.5290 -3.8617
  704MOL0     H92916   1.055  10.471   8.079  0.8790  0.4608  3.1437
  704MOL0     H92917   0.829  10.445   8.109  2.9704 -0.7705 -2.7712
  704MOL0     H92918   0.575  10.355   8.165 -1.3809 -0.0567  0.4158
  704MOL0     H92919   0.655  10.445   8.294 -0.3882  0.1275  3.1730
  704MOL0     H92920   0.542  10.287   8.454  3.8914 -1.5626 -0.8356
  704MOL0     H92921   0.440  10.414   8.393 -1.1869  0.1644 -0.4921
  704MOL0     H92922   0.378  10.141   8.377  1.0286 -0.1580  1.1599
  704MOL0     H92923   0.441  10.173   8.227 -0.5379 -0.6261  1.0686
  704MOL0     H92924   0.283  10.374   8.174  4.1176  0.2467 -0.8348
  704MOL0     H92925   0.214  10.214   8.206 -1.8662  1.8941  1.6537
  704MOL0     H92926   0.040  10.406   8.525  1.2775  0.6738  0.0547
  704MOL0     H92927   0.911  10.108   8.372  0.1736 -1.9103 -0.4821
  704MOL0     H92928   1.156  10.125   8.299  2.1842  1.4149 -0.9617
  705MOL0     O92929   2.411   9.346   3.459 -0.4184 -0.4845  0.8788
  705MOL0     C92930   2.369   9.433   3.530  0.0661  0.1669  1.0380
  705MOL0     O92931   2.445   9.534   3.593  0.8714 -0.7502  0.5762
  705MOL0     C92932   2.576   9.535   3.562  0.2953  0.6490 -0.2725
  705MOL0     C92933   2.663   9.453   3.638 -0.0852  0.9942 -0.8782
  705MOL0     C92934   2.802   9.449   3.610 -0.5648  1.0299 -0.0965
  705MOL0     C92935   2.857   9.521   3.505 -0.4038  0.0650 -0.6946
  705MOL0     O92936   2.991   9.492   3.488  0.1313  0.9364  0.5170
  705MOL0     C92937   3.076   9.581   3.413  0.3262  0.1045 -0.2993
  705MOL0     C92938   3.088   9.716   3.496 -0.2712 -0.6160 -0.2813
  705MOL0     C92939   3.203   9.720   3.604  1.2098 -0.5496  0.4306
  705MOL0     C92940   3.343   9.702   3.549  0.1666  0.7594 -0.1378
  705MOL0     C92941   3.450   9.727   3.658  0.7360 -0.7412 -0.0342
  705MOL0     C92942   3.585   9.732   3.580  0.7148 -0.7127  0.0736
  705MOL0     C92943   3.686   9.784   3.670  0.3116  0.2519 -0.0600
  705MOL0     C92944   3.816   9.806   3.606  0.1571 -0.4594  0.6275
  705MOL0     N92945   3.880   9.933   3.623 -0.1932 -0.0899 -0.0996
  705MOL0     C92946   3.982   9.955   3.697  0.3332 -0.2485  0.1056
  705MOL0     C92947   3.994  10.095   3.707  0.2962 -0.1028  1.6552
  705MOL0     C92948   4.090  10.170   3.791  0.7141  0.0336  0.0274
  705MOL0     C92949   4.037  10.198   3.931  0.5535  0.7645 -0.3555
  705MOL0     C92950   4.069  10.083   4.033  0.1236 -0.3316  0.1805
  705MOL0     C92951   3.967  10.086   4.153 -0.3894  0.0016 -0.5325
  705MOL0     O92952   3.868   9.994   4.118  1.2863 -0.8192 -0.1639
  705MOL0     C92953   3.736  10.033   4.129  0.1496 -0.3120  0.2072
  705MOL0     C92954   3.667   9.985   4.021 -0.0176 -0.3497  0.0833
  705MOL0     C92955   3.531  10.020   3.996 -0.9524 -0.3244  0.0981
  705MOL0     C92956   3.455  10.088   4.098  0.0284 -0.3438 -0.6052
  705MOL0     C92957   3.313  10.131   4.078 -0.8392  0.6853 -0.0840
  705MOL0     O92958   3.254  10.178   4.197  0.3996 -0.0561  0.1086
  705MOL0     C92959   3.128  10.224   4.193  0.2150  0.0564 -0.6079
  705MOL0     C92960   3.062  10.226   4.317  0.1473 -0.0402 -0.5174
  705MOL0     C92961   2.930  10.248   4.331 -1.4782  0.1711 -0.0742
  705MOL0     C92962   2.859  10.302   4.214 -0.0570 -0.0392 -0.1903
  705MOL0     O92963   2.730  10.331   4.221  0.3684 -0.8750  0.0032
  705MOL0     C92964   2.641  10.225   4.243  0.3631  0.8394  0.7804
  705MOL0     C92965   2.566  10.189   4.115  0.4451  0.6742  0.0263
  705MOL0     C92966   2.432  10.120   4.148  0.2396  0.6503 -0.4059
  705MOL0     C92967   2.336  10.124   4.030  0.1462  0.3443 -0.0523
  705MOL0     C92968   2.205  10.041   4.056  0.4018 -0.1607  0.9939
  705MOL0     C92969   2.080  10.080   3.970  0.3023  0.4801 -0.1010
  705MOL0     C92970   1.955   9.984   3.994 -0.8847 -0.5600 -0.1371
  705MOL0     C92971   1.902   9.917   3.866 -0.1150 -1.0882  0.3815
  705MOL0    Cl92972   1.994   9.762   3.842  0.0073  0.3494 -0.0920
  705MOL0     C92973   2.924  10.316   4.091  0.9119 -0.1049 -0.3471
  705MOL0     C92974   3.064  10.285   4.086  0.1857  0.3346 -1.2537
  705MOL0     O92975   3.264  10.103   3.967 -0.6129 -0.2991  0.1091
  705MOL0     C92976   3.533  10.129   4.210 -0.1369 -0.0852  0.5086
  705MOL0     C92977   3.672  10.112   4.225 -0.1057 -0.3812 -0.3386
  705MOL0     N92978   3.903  10.145   3.616  0.5532  0.1327 -0.2054
  705MOL0     N92979   3.829  10.049   3.575  0.0123 -0.4354  0.0226
  705MOL0     C92980   2.774   9.607   3.435 -0.5933  0.4168  0.3128
  705MOL0     C92981   2.634   9.608   3.461  0.0754 -0.0438  0.1686
  705MOL0     C92982   2.223   9.419   3.548  0.6479  0.5799 -0.0367
  705MOL0     C92983   2.164   9.294   3.526 -1.1016 -0.1630 -0.1289
  705MOL0     C92984   2.023   9.274   3.556 -1.1253  0.6016  0.5304
  705MOL0     C92985   1.950   9.381   3.601  0.4427 -1.1325  0.6039
  705MOL0     O92986   1.813   9.371   3.626  0.6045 -0.1802 -0.1804
  705MOL0     C92987   1.735   9.466   3.714 -0.7022  0.4242  0.7409
  705MOL0     C92988   1.682   9.574   3.630 -0.9692 -0.1888 -0.4575
  705MOL0     C92989   1.528   9.571   3.622  0.1161  0.3625  0.2696
  705MOL0     C92990   1.470   9.447   3.557 -0.4302 -0.5037  1.2341
  705MOL0     C92991   1.339   9.488   3.492  0.6408 -0.2321 -0.4269
  705MOL0     C92992   1.236   9.541   3.453  0.0754  0.0269  0.8513
  705MOL0     C92993   2.012   9.506   3.629 -0.2105  0.1469  0.0881
  705MOL0     C92994   2.148   9.528   3.600  0.1239  0.8792  0.5805
  705MOL0     H92995   2.620   9.404   3.724  0.6558 -1.1028 -1.6359
  705MOL0     H92996   2.878   9.410   3.677 -0.2875 -0.9895 -1.4928
  705MOL0     H92997   3.054   9.591   3.306  0.8752 -0.5603 -0.4851
  705MOL0     H92998   3.172   9.528   3.414 -1.0273 -2.5774 -1.5938
  705MOL0     H92999   2.995   9.727   3.552  1.2609 -3.4456  3.2728
  705MOL0     H93000   3.104   9.793   3.420  1.0298 -1.5204 -0.9755
  705MOL0     H93001   3.170   9.653   3.684  0.0865  0.1774  0.5956
  705MOL0     H93002   3.203   9.822   3.643 -1.4806 -0.8892  1.5412
  705MOL0     H93003   3.352   9.601   3.508  0.5182  1.6092 -2.3162
  705MOL0     H93004   3.355   9.769   3.463  2.3389 -1.1276 -1.4035
  705MOL0     H93005   3.435   9.652   3.736  1.1927 -1.4139 -0.5831
  705MOL0     H93006   3.433   9.824   3.705  1.2224 -2.8221  5.0751
  705MOL0     H93007   3.577   9.814   3.509  1.9148  0.2159  0.9688
  705MOL0     H93008   3.609   9.632   3.543  0.5541 -1.0262  0.7895
  705MOL0     H93009   3.655   9.884   3.702  3.7243  1.5326 -0.2723
  705MOL0     H93010   3.697   9.715   3.754 -0.9677 -0.2946 -0.3127
  705MOL0     H93011   3.796   9.805   3.498 -3.1791  3.1232  1.0017
  705MOL0     H93012   3.885   9.726   3.636  3.1916  1.2013 -1.3720
  705MOL0     H93013   4.042   9.883   3.752  0.4600  0.5676  1.0533
  705MOL0     H93014   4.143  10.251   3.740  0.3168  1.3800  1.7024
  705MOL0     H93015   4.178  10.105   3.803  2.2061  1.6803 -1.4448
  705MOL0     H93016   3.928  10.206   3.928  0.5867  1.7152  0.3975
  705MOL0     H93017   4.083  10.287   3.976  1.5302 -1.1138  2.6003
  705MOL0     H93018   4.052   9.980   3.999 -1.3154 -0.2591  0.5968
  705MOL0     H93019   4.175  10.089   4.057  0.6294 -1.5665 -1.5546
  705MOL0     H93020   3.925  10.184   4.177 -3.5781 -0.5698 -3.1194
  705MOL0     H93021   4.017  10.044   4.241 -2.3995 -3.4189 -0.8449
  705MOL0     H93022   3.712   9.935   3.936 -3.2740  2.7600 -3.9097
  705MOL0     H93023   3.476   9.996   3.905  0.5604  2.1445 -1.5957
  705MOL0     H93024   3.111  10.207   4.412 -1.5793 -0.0509  0.4048
  705MOL0     H93025   2.875  10.245   4.424  0.9404  1.2699  1.4711
  705MOL0     H93026   2.571  10.263   4.317  0.2113  1.2826  0.4188
  705MOL0     H93027   2.688  10.136   4.285 -3.2312 -0.7679  1.7988
  705MOL0     H93028   2.626  10.116   4.060 -0.6776  0.8284 -1.4754
  705MOL0     H93029   2.551  10.281   4.058 -1.0583  1.5722  1.7743
  705MOL0     H93030   2.382  10.179   4.225 -1.0986 -1.2676  0.2435
  705MOL0     H93031   2.441  10.017   4.183  0.0446  0.2782 -1.4026
  705MOL0     H93032   2.307  10.230   4.025 -1.7993 -0.1268  0.4598
  705MOL0     H93033   2.382  10.092   3.936 -0.5831 -0.5239 -0.1297
  705MOL0     H93034   2.183  10.047   4.163 -2.2336  1.7347  0.4466
  705MOL0     H93035   2.236   9.938   4.037  0.9631  0.0524  0.7167
  705MOL0     H93036   2.101  10.079   3.862  1.5205 -3.7278  0.0226
  705MOL0     H93037   2.062  10.183   4.003 -0.3026  0.1719  0.5435
  705MOL0     H93038   1.998   9.906   4.057  0.9669  0.3061 -0.2550
  705MOL0     H93039   1.872  10.038   4.041 -0.3299  0.5923 -0.4304
  705MOL0     H93040   1.900   9.984   3.779  1.2514 -0.0871  1.0911
  705MOL0     H93041   1.797   9.894   3.886  0.0342 -0.1356  2.5576
  705MOL0     H93042   2.884  10.376   4.010  1.3781  0.8215  0.0905
  705MOL0     H93043   3.116  10.317   3.997  1.1775 -2.4443 -1.7701
  705MOL0     H93044   3.482  10.178   4.292 -1.4835 -4.1339  2.3764
  705MOL0     H93045   3.717  10.151   4.315 -1.2281 -0.2358  0.1813
  705MOL0     H93046   2.820   9.666   3.357  0.7773 -0.5603  0.3354
  705MOL0     H93047   2.590   9.680   3.394  2.2914  3.3353  2.0541
  705MOL0     H93048   2.227   9.214   3.488 -1.3064 -0.6493  0.5446
  705MOL0     H93049   1.972   9.181   3.535 -1.0951  0.5483  0.6905
  705MOL0     H93050   1.793   9.510   3.795  0.9893  1.4390 -0.9715
  705MOL0     H93051   1.648   9.419   3.763 -1.2437 -0.1888 -0.7466
  705MOL0     H93052   1.724   9.668   3.665 -1.4959  0.8272 -2.4064
  705MOL0     H93053   1.721   9.549   3.531 -0.3934  2.6693 -1.0398
  705MOL0     H93054   1.507   9.659   3.560  0.5769 -1.0847 -2.0475
  705MOL0     H93055   1.478   9.584   3.718  0.2491  0.4065  0.3331
  705MOL0     H93056   1.538   9.412   3.478  0.0065  5.2005 -1.3631
  705MOL0     H93057   1.442   9.367   3.626  1.1843 -1.0108  1.3406
  705MOL0     H93058   1.142   9.575   3.415  0.0268 -0.5559  0.4384
  705MOL0     H93059   1.952   9.587   3.670 -1.9664 -0.2399 -1.5420
  705MOL0     H93060   2.205   9.618   3.617  2.6105 -0.0465 -2.0366
  706MOL0     O93061   3.503   4.242   0.488 -0.0912  0.3613  0.1727
  706MOL0     C93062   3.548   4.288   0.383 -0.4988  0.3158  0.0292
  706MOL0     O93063   3.477   4.367   0.295 -0.2681 -0.1593 -0.1328
  706MOL0     C93064   3.342   4.339   0.289  0.0007  0.0278 -1.0050
  706MOL0     C93065   3.251   4.444   0.293  0.5273 -0.3701 -0.7865
  706MOL0     C93066   3.111   4.416   0.306  0.6001 -0.4455 -0.0929
  706MOL0     C93067   3.068   4.282   0.294 -0.3154 -0.2526  0.3757
  706MOL0     O93068   2.932   4.257   0.302 -0.1101 -1.1333  0.1507
  706MOL0     C93069   2.868   4.128   0.273 -0.0530  0.6916  0.1171
  706MOL0     C93070   2.726   4.143   0.321  0.6502  0.1717 -0.4059
  706MOL0     C93071   2.652   4.009   0.326  0.7245 -0.8161  0.8477
  706MOL0     C93072   2.636   3.948   0.186 -0.1748  0.4418 -0.1618
  706MOL0     C93073   2.541   4.015   0.087  0.0441  0.5484 -1.3019
  706MOL0     C93074   2.610   4.115  -0.010  0.3205 -1.0766  0.2220
  706MOL0     C93075   2.510   4.215  -0.087 -0.0788 -0.1733 -0.1401
  706MOL0     C93076   2.445   4.313   0.003  0.3767 -0.2931 -0.3465
  706MOL0     N93077   2.350   4.402  -0.069  0.3901  0.9828  0.0670
  706MOL0     C93078   2.375   4.477  -0.181 -0.3893  0.4081  0.3825
  706MOL0     C93079   2.254   4.523  -0.214  0.5104 -0.2028 -0.4506
  706MOL0     C93080   2.226   4.603  -0.341 -0.3049  0.1439  0.5748
  706MOL0     C93081   2.200   4.752  -0.289  0.2210  0.3000  0.0917
  706MOL0     C93082   2.325   4.828  -0.239  0.8159  0.7913  0.3729
  706MOL0     C93083   2.409   4.886  -0.349 -0.7988 -0.8085 -0.6038
  706MOL0     O93084   2.502   4.979  -0.288 -0.0906 -0.3137  0.1603
  706MOL0     C93085   2.582   5.035  -0.384 -0.3889  0.0652 -0.0131
  706MOL0     C93086   2.708   4.988  -0.402 -0.4918 -0.5195 -0.1763
  706MOL0     C93087   2.808   5.075  -0.471  0.4137  0.0586 -0.8289
  706MOL0     C93088   2.761   5.195  -0.536 -0.0169  0.0171  0.3272
  706MOL0     C93089   2.845   5.271  -0.613  0.5305 -0.5403  1.0138
  706MOL0     O93090   2.799   5.399  -0.643  0.3217 -0.4877  0.0680
  706MOL0     C93091   2.865   5.489  -0.716  0.3948  0.0946 -0.1358
  706MOL0     C93092   2.996   5.495  -0.761  0.3346 -0.4822 -0.3200
  706MOL0     C93093   3.051   5.603  -0.831 -0.3068  1.0404 -0.1342
  706MOL0     C93094   2.975   5.711  -0.868 -0.4261  0.4536  0.1451
  706MOL0     O93095   3.024   5.812  -0.953 -0.3022  0.6247  0.3059
  706MOL0     C93096   2.950   5.920  -1.005  1.0101 -1.0324 -0.1502
  706MOL0     C93097   3.019   6.019  -1.090 -0.1159 -0.3819  0.2564
  706MOL0     C93098   3.061   5.952  -1.220  0.2355  0.8804  0.1829
  706MOL0     C93099   3.126   6.043  -1.323 -0.8607  0.5320 -0.7232
  706MOL0     C93100   3.178   5.972  -1.449 -0.0143 -0.1428  0.0351
  706MOL0     C93101   3.279   5.863  -1.442 -0.0966 -0.1077  1.2129
  706MOL0     C93102   3.408   5.913  -1.375  0.6619  0.3450 -0.0956
  706MOL0     C93103   3.530   5.883  -1.459  0.9654 -0.4614  0.4619
  706MOL0    Cl93104   3.525   5.996  -1.599 -0.0848 -0.1472 -0.1839
  706MOL0     C93105   2.840   5.703  -0.832  0.0215 -0.1677  0.9630
  706MOL0     C93106   2.790   5.596  -0.755 -0.8138  0.0738  0.1486
  706MOL0     O93107   2.943   5.219  -0.658 -0.3912  0.6204  0.1772
  706MOL0     C93108   2.621   5.234  -0.530 -0.5314  0.2302 -0.0491
  706MOL0     C93109   2.544   5.153  -0.444  0.6565  0.7964  0.7800
  706MOL0     N93110   2.154   4.474  -0.128  0.1402  0.1035  0.5288
  706MOL0     N93111   2.216   4.391  -0.054  0.8357 -0.4995  0.6465
  706MOL0     C93112   3.156   4.183   0.270 -0.5937  0.6169  0.2816
  706MOL0     C93113   3.292   4.207   0.278  0.0995 -0.0624 -1.0125
  706MOL0     C93114   3.692   4.248   0.359 -0.0839  0.4320  0.4293
  706MOL0     C93115   3.730   4.249   0.229  0.0961  0.0049  1.0495
  706MOL0     C93116   3.859   4.207   0.190 -0.2067  0.2635  0.2018
  706MOL0     C93117   3.955   4.175   0.289 -0.3612 -0.4763  0.0690
  706MOL0     O93118   4.086   4.148   0.267 -0.1137  0.4707 -0.4894
  706MOL0     C93119   4.139   4.127   0.133  0.1183  0.4460  0.7870
  706MOL0     C93120   4.264   4.052   0.150 -0.7279 -0.8429  0.5256
  706MOL0     C93121   4.296   3.964   0.025  0.0064 -0.4436 -0.0822
  706MOL0     C93122   4.429   3.882   0.025  0.6138 -0.5773 -0.0136
  706MOL0     C93123   4.440   3.789  -0.086 -0.1240  0.3194 -0.6508
  706MOL0     C93124   4.461   3.697  -0.163 -0.5838  0.1709  0.5975
  706MOL0     C93125   3.908   4.163   0.416  0.2493 -0.0849 -0.6216
  706MOL0     C93126   3.776   4.197   0.463  0.4190 -0.6765  0.7323
  706MOL0     H93127   3.292   4.545   0.297  0.3594 -0.0350 -4.2788
  706MOL0     H93128   3.035   4.493   0.322 -0.3707 -1.3644 -0.1367
  706MOL0     H93129   2.904   4.038   0.324 -1.3182 -0.8976 -1.6386
  706MOL0     H93130   2.864   4.100   0.167 -0.3718  3.0555 -0.5421
  706MOL0     H93131   2.664   4.218   0.270 -2.3647 -1.0505  1.2192
  706MOL0     H93132   2.729   4.172   0.426 -1.7155 -2.0721  0.3842
  706MOL0     H93133   2.553   4.021   0.372 -0.6275 -1.1288 -1.7775
  706MOL0     H93134   2.713   3.941   0.386  2.6702 -0.4589 -0.6319
  706MOL0     H93135   2.731   3.938   0.132  1.6944  3.5383  2.2482
  706MOL0     H93136   2.591   3.848   0.187 -1.7842  1.1284 -0.5922
  706MOL0     H93137   2.464   4.058   0.153  0.8462  1.2400 -0.7992
  706MOL0     H93138   2.500   3.940   0.019 -0.7238 -0.2638  0.0047
  706MOL0     H93139   2.660   4.052  -0.083  0.3078 -1.0154  0.1602
  706MOL0     H93140   2.688   4.172   0.041  3.0662 -3.5126 -0.9876
  706MOL0     H93141   2.578   4.262  -0.159  0.7786 -2.8634 -1.2163
  706MOL0     H93142   2.431   4.165  -0.144  1.3382 -2.2960 -0.3511
  706MOL0     H93143   2.521   4.369   0.059  1.2813 -2.2762  0.5172
  706MOL0     H93144   2.384   4.255   0.073 -0.2666  1.2833  0.4355
  706MOL0     H93145   2.467   4.477  -0.238 -0.1125  0.0842  0.8201
  706MOL0     H93146   2.138   4.556  -0.386  1.9374 -1.6599 -2.3408
  706MOL0     H93147   2.307   4.595  -0.414 -0.5263 -1.9567  0.4970
  706MOL0     H93148   2.126   4.746  -0.208 -0.0633 -0.0772 -0.1896
  706MOL0     H93149   2.162   4.814  -0.370  0.4356 -0.2759 -0.4562
  706MOL0     H93150   2.283   4.906  -0.175 -2.4611  1.3187 -2.1160
  706MOL0     H93151   2.385   4.760  -0.178 -1.7465 -4.4592 -2.2187
  706MOL0     H93152   2.343   4.942  -0.416 -0.9290  0.3543  0.4630
  706MOL0     H93153   2.460   4.801  -0.395  0.9872  0.1711 -0.4780
  706MOL0     H93154   2.747   4.901  -0.349  1.8804  0.5367 -0.0466
  706MOL0     H93155   2.914   5.051  -0.477  0.1854 -0.7300 -1.9755
  706MOL0     H93156   3.070   5.416  -0.750  0.0168 -0.5756  1.4819
  706MOL0     H93157   3.158   5.592  -0.841 -0.4270 -2.9994  1.3142
  706MOL0     H93158   2.919   5.982  -0.920 -0.2026 -2.7353  0.7136
  706MOL0     H93159   2.865   5.883  -1.064  0.4388 -0.2345  0.1413
  706MOL0     H93160   3.105   6.060  -1.036  0.6192 -0.4522 -0.8376
  706MOL0     H93161   2.962   6.112  -1.103 -3.0891 -1.8202  1.9902
  706MOL0     H93162   2.962   5.926  -1.258 -0.3862 -2.8435  3.7130
  706MOL0     H93163   3.123   5.862  -1.215  0.9176  1.3297  0.0641
  706MOL0     H93164   3.061   6.126  -1.352 -0.6316  0.9693 -0.0056
  706MOL0     H93165   3.217   6.085  -1.278 -1.7645 -0.1729  1.9265
  706MOL0     H93166   3.235   6.053  -1.495  1.8122 -0.0441  2.2714
  706MOL0     H93167   3.099   5.938  -1.516  0.3654 -1.5198  0.2505
  706MOL0     H93168   3.302   5.835  -1.545  2.3637 -1.1278  1.9386
  706MOL0     H93169   3.241   5.775  -1.390 -0.3026  0.4030  1.9413
  706MOL0     H93170   3.405   6.021  -1.355 -1.1932  0.2123  0.5494
  706MOL0     H93171   3.421   5.871  -1.275 -2.1204  2.2190  1.1698
  706MOL0     H93172   3.528   5.779  -1.493 -1.5283 -0.1128 -0.7204
  706MOL0     H93173   3.617   5.911  -1.399  2.7473 -0.5686 -1.9588
  706MOL0     H93174   2.770   5.784  -0.851  0.3193 -0.0196  0.4636
  706MOL0     H93175   2.685   5.596  -0.728 -0.8619  1.1356 -0.0050
  706MOL0     H93176   2.589   5.335  -0.551  0.9369  0.9024  0.7519
  706MOL0     H93177   2.447   5.202  -0.434  1.1734  2.9121 -2.8100
  706MOL0     H93178   3.124   4.080   0.256  1.0390 -0.5957  4.1742
  706MOL0     H93179   3.357   4.121   0.264 -1.4452 -0.8437 -4.5232
  706MOL0     H93180   3.666   4.280   0.147  0.5110 -0.2194  0.6425
  706MOL0     H93181   3.888   4.207   0.085 -0.4205  0.2739  0.1437
  706MOL0     H93182   4.161   4.224   0.087  2.4759 -1.0611 -1.4919
  706MOL0     H93183   4.066   4.073   0.073 -0.3529  0.7723  1.0561
  706MOL0     H93184   4.339   4.130   0.166 -1.1859 -0.0660 -0.9670
  706MOL0     H93185   4.256   3.991   0.241 -1.1128  1.2904  1.9911
  706MOL0     H93186   4.301   4.033  -0.059  0.1143  0.8451  0.9523
  706MOL0     H93187   4.210   3.898   0.012 -0.1039 -0.5820  1.1852
  706MOL0     H93188   4.514   3.951   0.033  1.5043 -1.8223  1.9237
  706MOL0     H93189   4.429   3.826   0.119  1.2924  0.5123  0.6673
  706MOL0     H93190   4.499   3.629  -0.237 -1.8717 -0.6028  0.6170
  706MOL0     H93191   3.975   4.122   0.491  1.7145 -0.5753 -2.1198
  706MOL0     H93192   3.757   4.202   0.570  1.8160 -0.6096  0.9926
  707MOL0     O93193   0.029   5.263   1.508  0.4662 -0.1281 -0.5956
  707MOL0     C93194  -0.011   5.363   1.565 -0.8656  1.1602  0.5396
  707MOL0     O93195  -0.131   5.407   1.570  0.0846 -0.7041  0.1557
  707MOL0     C93196  -0.226   5.354   1.485 -0.5134  0.3183  0.2021
  707MOL0     C93197  -0.232   5.402   1.347  0.6059  0.5871  0.0946
  707MOL0     C93198  -0.318   5.331   1.252 -0.2094 -0.1586 -1.2303
  707MOL0     C93199  -0.400   5.226   1.295 -0.1237  0.3434  0.3183
  707MOL0     O93200  -0.472   5.176   1.194  0.4947  0.5492  0.4244
  707MOL0     C93201  -0.609   5.145   1.227  0.0625  0.0921 -0.0972
  707MOL0     C93202  -0.625   5.000   1.194  0.3188 -0.0996  0.7941
  707MOL0     C93203  -0.642   4.986   1.041 -0.3937 -0.3824 -0.2345
  707MOL0     C93204  -0.675   4.848   1.008 -0.5208  0.1545  0.0554
  707MOL0     C93205  -0.779   4.849   0.897  2.3345 -0.1743  0.5353
  707MOL0     C93206  -0.794   4.705   0.842 -0.0725  0.2710 -0.8379
  707MOL0     C93207  -0.925   4.690   0.769 -0.1298  0.0556  0.0299
  707MOL0     C93208  -0.924   4.563   0.674  0.2186 -0.5155 -0.3323
  707MOL0     N93209  -1.058   4.524   0.632  0.4590 -0.1970 -0.5059
  707MOL0     C93210  -1.149   4.436   0.704 -0.0308 -0.0293 -0.0573
  707MOL0     C93211  -1.262   4.420   0.624 -0.1780  0.3534 -0.1032
  707MOL0     C93212  -1.396   4.346   0.660  0.4593  0.0775  0.0805
  707MOL0     C93213  -1.508   4.419   0.611  0.8329  0.1845  0.0215
  707MOL0     C93214  -1.643   4.370   0.660 -0.0341 -0.0331  0.5746
  707MOL0     C93215  -1.700   4.423   0.785 -0.2222 -0.1664 -0.0113
  707MOL0     O93216  -1.815   4.339   0.798  0.6438 -0.0893  0.5640
  707MOL0     C93217  -1.937   4.397   0.770 -0.4352 -0.8593  0.1769
  707MOL0     C93218  -1.988   4.512   0.842 -0.5585  0.1993  0.3476
  707MOL0     C93219  -2.099   4.575   0.780 -0.3473  0.5816  0.1624
  707MOL0     C93220  -2.144   4.540   0.655 -0.1005  0.3352 -0.4669
  707MOL0     C93221  -2.271   4.602   0.614  0.7346  0.4695 -0.4428
  707MOL0     O93222  -2.365   4.527   0.548 -0.3033  0.1728  0.1444
  707MOL0     C93223  -2.484   4.581   0.521 -1.1855  0.0079  0.0640
  707MOL0     C93224  -2.505   4.659   0.403  0.9886  0.3501 -0.9683
  707MOL0     C93225  -2.627   4.727   0.388 -0.0927  0.4360  0.7470
  707MOL0     C93226  -2.733   4.706   0.479  0.3073  0.0105  0.0213
  707MOL0     O93227  -2.871   4.741   0.464  0.3752 -0.0338 -0.7108
  707MOL0     C93228  -2.927   4.752   0.336  0.3397 -0.2053  0.4911
  707MOL0     C93229  -3.070   4.796   0.343  0.1229 -0.8491 -0.3293
  707MOL0     C93230  -3.160   4.681   0.374 -0.3913 -0.2307 -0.0811
  707MOL0     C93231  -3.311   4.727   0.386 -0.5162 -0.3696 -0.7188
  707MOL0     C93232  -3.397   4.609   0.431 -0.2677 -0.1704  0.3292
  707MOL0     C93233  -3.545   4.633   0.404  0.4101  0.4045 -0.4450
  707MOL0     C93234  -3.602   4.742   0.489  0.4531 -1.5445 -0.5457
  707MOL0     C93235  -3.597   4.712   0.638 -0.1815  0.4334  0.3991
  707MOL0    Cl93236  -3.694   4.576   0.701 -0.2220  0.1612  0.2111
  707MOL0     C93237  -2.713   4.625   0.590  0.0835  0.8326  0.7518
  707MOL0     C93238  -2.594   4.569   0.611  0.3987 -0.2159  0.8915
  707MOL0     O93239  -2.282   4.726   0.632 -0.1432 -0.1763  0.2709
  707MOL0     C93240  -2.092   4.428   0.589 -0.0313  0.2697 -0.5525
  707MOL0     C93241  -1.992   4.345   0.645  0.5941  0.1376  0.1127
  707MOL0     N93242  -1.243   4.496   0.509 -0.0872  0.1311 -0.4778
  707MOL0     N93243  -1.130   4.559   0.521 -0.0506 -0.0471 -1.1092
  707MOL0     C93244  -0.405   5.184   1.427  0.2773 -0.6140 -0.0315
  707MOL0     C93245  -0.314   5.252   1.520 -0.2470  0.1633  0.1966
  707MOL0     C93246   0.088   5.430   1.651  0.4445 -0.5165 -0.4300
  707MOL0     C93247   0.087   5.565   1.642  0.8185  0.2716 -0.5367
  707MOL0     C93248   0.184   5.644   1.709 -0.7833  0.1428  0.1466
  707MOL0     C93249   0.283   5.583   1.789 -0.0025 -0.6588  0.1191
  707MOL0     O93250   0.377   5.643   1.869 -0.8077  0.0550  0.7807
  707MOL0     C93251   0.396   5.783   1.862 -0.6168  0.6293 -0.1312
  707MOL0     C93252   0.469   5.822   1.978 -0.1609 -0.4496 -0.5751
  707MOL0     C93253   0.391   5.811   2.108 -0.3817 -0.1824  0.1242
  707MOL0     C93254   0.453   5.899   2.226 -0.4288 -0.0544  0.5834
  707MOL0     C93255   0.590   5.853   2.256  0.0478 -0.1965  0.7565
  707MOL0     C93256   0.702   5.802   2.273  0.1494  1.3015 -0.3660
  707MOL0     C93257   0.281   5.439   1.796 -0.5384  0.0274  0.2448
  707MOL0     C93258   0.187   5.362   1.725  0.6438  0.1538 -0.3922
  707MOL0     H93259  -0.169   5.487   1.323  1.7591 -0.8184 -2.2145
  707MOL0     H93260  -0.305   5.356   1.148  0.7207 -1.8349 -1.5565
  707MOL0     H93261  -0.672   5.210   1.165  1.9401  1.8280 -0.3111
  707MOL0     H93262  -0.635   5.167   1.331 -3.7137 -1.0032 -0.6637
  707MOL0     H93263  -0.712   4.962   1.248 -0.4083 -1.5316 -1.2345
  707MOL0     H93264  -0.532   4.951   1.225  1.8787  1.4229 -1.1410
  707MOL0     H93265  -0.547   5.023   1.003 -0.8888  0.5112 -0.6269
  707MOL0     H93266  -0.727   5.051   1.018  0.8362  1.0179 -0.9352
  707MOL0     H93267  -0.580   4.812   0.968  1.0882  2.9319  1.1219
  707MOL0     H93268  -0.702   4.789   1.096  3.0831 -1.5359  0.2171
  707MOL0     H93269  -0.751   4.910   0.810  1.4277  0.5864  0.7642
  707MOL0     H93270  -0.876   4.882   0.934  1.9609 -2.2262  1.5364
  707MOL0     H93271  -0.790   4.642   0.932  0.7195  0.9788 -0.3662
  707MOL0     H93272  -0.715   4.681   0.771 -2.3708 -0.5439 -3.3314
  707MOL0     H93273  -1.008   4.682   0.840  0.4533 -0.5915  0.6568
  707MOL0     H93274  -0.938   4.782   0.711  2.4928  0.2595 -0.3550
  707MOL0     H93275  -0.880   4.480   0.729  0.0805 -1.6450 -1.8428
  707MOL0     H93276  -0.860   4.599   0.593  0.6310  1.2578  0.7304
  707MOL0     H93277  -1.126   4.384   0.797  0.1639 -1.6760 -0.9986
  707MOL0     H93278  -1.417   4.320   0.764 -3.5145 -0.3281 -0.6358
  707MOL0     H93279  -1.406   4.254   0.602 -3.7061  0.3143  0.0686
  707MOL0     H93280  -1.492   4.425   0.503  5.1513  3.9015  0.5816
  707MOL0     H93281  -1.501   4.526   0.635 -1.0169 -0.1789  2.6995
  707MOL0     H93282  -1.715   4.387   0.579  2.2133  2.5047 -1.0328
  707MOL0     H93283  -1.637   4.261   0.661 -1.7865 -0.1599  0.3512
  707MOL0     H93284  -1.725   4.529   0.792 -0.3370 -0.2439  0.8645
  707MOL0     H93285  -1.632   4.408   0.869  1.7811  0.6323 -1.4167
  707MOL0     H93286  -1.954   4.545   0.940 -0.7638 -2.1050  1.2673
  707MOL0     H93287  -2.142   4.662   0.829 -5.8592 -0.1441 -2.6746
  707MOL0     H93288  -2.423   4.675   0.334 -0.3070  0.9603 -2.4354
  707MOL0     H93289  -2.632   4.775   0.291  1.7380 -0.8622 -0.0382
  707MOL0     H93290  -2.922   4.658   0.279 -0.2523 -0.0893  0.2387
  707MOL0     H93291  -2.889   4.840   0.285 -1.4573  1.3575  1.7182
  707MOL0     H93292  -3.109   4.839   0.250  0.7695  0.2182 -0.1341
  707MOL0     H93293  -3.096   4.867   0.422  0.1066  0.7092 -1.6763
  707MOL0     H93294  -3.117   4.620   0.454  2.2266 -1.0949 -2.0138
  707MOL0     H93295  -3.144   4.610   0.292  1.1326 -0.7355  0.6222
  707MOL0     H93296  -3.325   4.787   0.476 -0.7189  1.1017 -1.6897
  707MOL0     H93297  -3.364   4.766   0.298 -2.1436  2.4212  1.3258
  707MOL0     H93298  -3.381   4.591   0.538  0.7746 -1.8826 -0.0706
  707MOL0     H93299  -3.371   4.523   0.368  0.3162 -0.2187  0.6303
  707MOL0     H93300  -3.602   4.541   0.423  1.3921 -0.4686 -1.5341
  707MOL0     H93301  -3.560   4.644   0.296  0.6125 -3.3502 -1.0018
  707MOL0     H93302  -3.552   4.836   0.464  1.6604 -2.8812 -3.8312
  707MOL0     H93303  -3.707   4.756   0.463  0.6413  2.7032  0.2914
  707MOL0     H93304  -3.619   4.805   0.692  3.7698  2.0106 -0.2883
  707MOL0     H93305  -3.494   4.700   0.675 -0.3397 -1.1986  0.3778
  707MOL0     H93306  -2.794   4.608   0.660 -1.7879  2.5055 -0.8702
  707MOL0     H93307  -2.576   4.514   0.703  4.7396  0.7959  0.8541
  707MOL0     H93308  -2.139   4.405   0.494  0.7402 -1.9932 -0.4239
  707MOL0     H93309  -1.948   4.280   0.570  0.9483  2.7832 -2.1555
  707MOL0     H93310  -0.464   5.099   1.461  1.5940 -2.6056 -2.4189
  707MOL0     H93311  -0.299   5.206   1.617 -3.0422 -0.9866  0.1728
  707MOL0     H93312   0.028   5.637   1.586 -2.8880 -2.4222 -0.3910
  707MOL0     H93313   0.174   5.751   1.691 -1.4942 -0.0566 -0.6830
  707MOL0     H93314   0.301   5.838   1.862 -0.7720  0.7687  4.5334
  707MOL0     H93315   0.453   5.812   1.774 -2.0958 -0.0052 -1.3429
  707MOL0     H93316   0.566   5.772   1.988  0.5651  1.1223  0.5792
  707MOL0     H93317   0.492   5.927   1.960  1.7482 -0.6898  0.1702
  707MOL0     H93318   0.399   5.710   2.151  3.3434  0.4955  1.4060
  707MOL0     H93319   0.287   5.836   2.085 -0.6456 -2.7136 -1.8290
  707MOL0     H93320   0.464   6.005   2.204  3.0124  0.1798  2.6864
  707MOL0     H93321   0.399   5.881   2.319 -1.3572  0.1038  0.0898
  707MOL0     H93322   0.792   5.757   2.311  0.3948  0.4903 -1.8198
  707MOL0     H93323   0.352   5.381   1.854 -1.6985 -1.5752  0.1158
  707MOL0     H93324   0.183   5.254   1.720  0.3290  0.2178 -1.8884
  708MOL0     O93325   2.020   9.434   6.414 -0.6835 -0.8159  0.4192
  708MOL0     C93326   2.070   9.319   6.425  0.3901  0.0451  0.6257
  708MOL0     O93327   2.000   9.213   6.471  0.2982  0.5297 -1.2035
  708MOL0     C93328   1.867   9.197   6.456 -0.5606 -0.2015 -0.2696
  708MOL0     C93329   1.812   9.102   6.537 -0.1341  0.8602  0.7302
  708MOL0     C93330   1.677   9.065   6.522 -0.4974  0.1793 -0.2981
  708MOL0     C93331   1.594   9.119   6.431  0.7443  0.8467 -0.8470
  708MOL0     O93332   1.474   9.065   6.398  0.2994 -0.8666  0.3609
  708MOL0     C93333   1.375   9.019   6.485  0.4542  0.4844 -0.6095
  708MOL0     C93334   1.262   9.114   6.491  0.0537 -0.2518 -1.0114
  708MOL0     C93335   1.192   9.104   6.633 -0.3269 -0.3824  0.1503
  708MOL0     C93336   1.122   8.967   6.643  1.1782 -0.1916  0.4537
  708MOL0     C93337   1.066   8.929   6.783  0.0206  0.2416  0.1587
  708MOL0     C93338   1.011   8.785   6.795 -0.7307 -0.1247  0.1752
  708MOL0     C93339   0.928   8.768   6.924 -0.3339 -0.0674  0.4579
  708MOL0     C93340   0.875   8.622   6.929 -0.3585 -0.7771 -0.3524
  708MOL0     N93341   0.827   8.594   7.068  0.3256  0.9849 -0.8483
  708MOL0     C93342   0.904   8.561   7.176  0.9837 -0.1596 -0.5137
  708MOL0     C93343   0.815   8.542   7.280 -1.0012  0.2851  0.7119
  708MOL0     C93344   0.843   8.486   7.417  0.2302 -0.2634  0.0066
  708MOL0     C93345   0.774   8.557   7.528  0.0955  0.2658 -0.5376
  708MOL0     C93346   0.745   8.460   7.648 -0.2973  0.3574  0.8886
  708MOL0     C93347   0.675   8.513   7.762  0.3469  0.1492  0.4553
  708MOL0     O93348   0.540   8.505   7.725  0.4694  0.1307  0.6787
  708MOL0     C93349   0.446   8.552   7.813 -0.2715 -0.6169 -0.5145
  708MOL0     C93350   0.327   8.595   7.753 -0.0562 -0.5146  0.0921
  708MOL0     C93351   0.221   8.637   7.827  0.8157 -0.0887  0.6818
  708MOL0     C93352   0.240   8.645   7.967  0.0383 -1.1219  0.0841
  708MOL0     C93353   0.125   8.683   8.058 -0.3415 -0.5429  0.6799
  708MOL0     O93354  -0.003   8.690   8.006  0.1705  0.1976 -0.4767
  708MOL0     C93355  -0.094   8.755   8.091  0.2900  0.1256  0.7638
  708MOL0     C93356  -0.158   8.682   8.188  0.3442 -0.3945 -0.4969
  708MOL0     C93357  -0.254   8.738   8.259  0.8841 -0.4785 -0.4980
  708MOL0     C93358  -0.292   8.875   8.250  0.6190  0.4724 -0.4073
  708MOL0     O93359  -0.377   8.931   8.343  0.4424  0.0439  0.7050
  708MOL0     C93360  -0.467   9.030   8.295 -0.3943 -0.8467 -0.3071
  708MOL0     C93361  -0.387   9.162   8.320 -0.9937  0.6119 -1.0378
  708MOL0     C93362  -0.462   9.285   8.265  0.2345 -0.2602 -0.3630
  708MOL0     C93363  -0.398   9.425   8.307  0.0023  0.7294  1.1248
  708MOL0     C93364  -0.492   9.541   8.306 -0.3539  0.1059 -0.4983
  708MOL0     C93365  -0.488   9.630   8.434 -0.0044 -0.6229  0.0619
  708MOL0     C93366  -0.378   9.725   8.455 -0.1269  0.4788  0.6898
  708MOL0     C93367  -0.240   9.672   8.429  0.4645  0.2914  0.5008
  708MOL0    Cl93368  -0.195   9.557   8.567 -0.1758 -0.5330 -0.3840
  708MOL0     C93369  -0.234   8.943   8.142  1.0287 -0.4542  0.0766
  708MOL0     C93370  -0.145   8.879   8.054 -0.5687  0.8109 -0.7011
  708MOL0     O93371   0.154   8.693   8.172 -0.1618 -0.3331  0.3779
  708MOL0     C93372   0.368   8.614   8.034  0.4181  0.3572  0.0849
  708MOL0     C93373   0.466   8.554   7.951  0.6847 -0.2736 -0.9776
  708MOL0     N93374   0.689   8.574   7.234 -0.0738 -0.1990 -0.8753
  708MOL0     N93375   0.694   8.602   7.106 -0.3205 -0.2708  0.3652
  708MOL0     C93376   1.649   9.216   6.339  0.5393  0.3195  0.8050
  708MOL0     C93377   1.787   9.247   6.352 -0.3265 -1.1260 -0.7790
  708MOL0     C93378   2.208   9.304   6.374  0.5252  0.3184  0.1152
  708MOL0     C93379   2.298   9.201   6.404  0.2940  0.2445  0.3726
  708MOL0     C93380   2.420   9.196   6.336  0.3384 -0.4943  0.3585
  708MOL0     C93381   2.459   9.288   6.234  0.6221  0.5061  0.0116
  708MOL0     O93382   2.587   9.271   6.176 -0.9190 -0.1586 -0.7185
  708MOL0     C93383   2.635   9.378   6.097 -0.4367 -0.5030 -0.3373
  708MOL0     C93384   2.769   9.348   6.030 -0.1255 -0.0045  0.4664
  708MOL0     C93385   2.815   9.471   5.942 -0.7943 -0.2882 -0.0461
  708MOL0     C93386   2.930   9.438   5.845 -0.7004  0.0473  0.4316
  708MOL0     C93387   3.052   9.423   5.918 -0.1332 -0.5236 -0.3685
  708MOL0     C93388   3.151   9.440   5.981 -0.3345 -0.5303  0.4311
  708MOL0     C93389   2.368   9.393   6.206 -0.0106  0.0908  0.2380
  708MOL0     C93390   2.250   9.403   6.279  0.1986 -0.4868 -0.5933
  708MOL0     H93391   1.883   9.058   6.606  3.0487 -3.2126 -4.3890
  708MOL0     H93392   1.644   8.989   6.592 -0.3054  1.3956  1.1640
  708MOL0     H93393   1.410   9.009   6.588 -0.1424  2.5400 -0.1562
  708MOL0     H93394   1.338   8.925   6.443  2.1084 -0.0356 -1.0088
  708MOL0     H93395   1.189   9.096   6.412 -1.5664  0.9593  0.1368
  708MOL0     H93396   1.311   9.209   6.467  1.8903 -1.0049 -0.4264
  708MOL0     H93397   1.119   9.179   6.663 -0.3676 -0.7127  0.8755
  708MOL0     H93398   1.272   9.116   6.707  0.1735 -0.6720 -0.3287
  708MOL0     H93399   1.035   8.968   6.576  0.7095  2.6585  0.9828
  708MOL0     H93400   1.194   8.890   6.614  3.3057  1.8551  0.0006
  708MOL0     H93401   0.981   8.994   6.811 -1.1225 -0.1428 -2.1755
  708MOL0     H93402   1.141   8.950   6.860 -0.8573  0.0308  1.1014
  708MOL0     H93403   1.092   8.711   6.792  0.9941  1.6671  0.3133
  708MOL0     H93404   0.956   8.769   6.702  1.6190  0.6748 -1.4613
  708MOL0     H93405   0.991   8.778   7.013 -0.6471 -5.8596  1.7211
  708MOL0     H93406   0.845   8.838   6.936 -0.8021 -0.2482 -1.4769
  708MOL0     H93407   0.952   8.552   6.896 -0.3367 -1.8895  1.8657
  708MOL0     H93408   0.791   8.621   6.859  0.2793  1.6894 -1.2482
  708MOL0     H93409   1.009   8.539   7.190  1.1104 -1.7083 -3.3020
  708MOL0     H93410   0.949   8.493   7.440 -0.5594  0.3870  4.4407
  708MOL0     H93411   0.823   8.378   7.422  2.5054 -0.6635  2.2458
  708MOL0     H93412   0.681   8.600   7.489  0.4212  2.0384  0.5146
  708MOL0     H93413   0.825   8.645   7.567  1.5453 -0.9041  0.3299
  708MOL0     H93414   0.702   8.362   7.626  0.8366 -0.3044  1.5129
  708MOL0     H93415   0.848   8.437   7.677  0.4304  2.8006  0.4860
  708MOL0     H93416   0.710   8.613   7.787  0.3972  0.7930 -1.9076
  708MOL0     H93417   0.704   8.464   7.855  0.7412 -1.0502 -0.2679
  708MOL0     H93418   0.331   8.590   7.645  1.2173 -1.5362  0.1623
  708MOL0     H93419   0.129   8.671   7.781  0.7215 -0.0755  0.8760
  708MOL0     H93420  -0.111   8.586   8.208  0.7011 -0.0317  0.4793
  708MOL0     H93421  -0.299   8.679   8.339 -0.5055  1.0356 -0.0954
  708MOL0     H93422  -0.563   9.022   8.345 -2.0262  0.4242 -2.9793
  708MOL0     H93423  -0.491   9.006   8.191  1.2950 -2.1872 -0.4313
  708MOL0     H93424  -0.280   9.166   8.302 -0.7890  0.6788  0.0930
  708MOL0     H93425  -0.381   9.200   8.423  0.2117 -3.1094  0.4406
  708MOL0     H93426  -0.566   9.288   8.299 -0.2886 -1.3026 -1.7826
  708MOL0     H93427  -0.470   9.270   8.157 -0.7348 -0.1919 -0.3057
  708MOL0     H93428  -0.350   9.412   8.405 -0.9032 -4.0270  1.2017
  708MOL0     H93429  -0.319   9.442   8.234  1.1580 -0.7626  1.9744
  708MOL0     H93430  -0.595   9.506   8.294 -0.3758 -0.8126  1.8235
  708MOL0     H93431  -0.471   9.596   8.214 -1.6239 -2.1791 -2.2849
  708MOL0     H93432  -0.494   9.562   8.520  1.5859 -1.9859 -0.8278
  708MOL0     H93433  -0.580   9.687   8.449  0.8761  0.4026  1.9562
  708MOL0     H93434  -0.393   9.805   8.382 -0.0575 -2.3038 -2.6478
  708MOL0     H93435  -0.370   9.767   8.555  0.4735 -0.7282  1.1697
  708MOL0     H93436  -0.162   9.748   8.428 -1.1846  2.0769 -1.6282
  708MOL0     H93437  -0.237   9.621   8.333  1.5323 -4.0420  2.5649
  708MOL0     H93438  -0.275   9.040   8.117 -0.9413 -1.4891 -0.9751
  708MOL0     H93439  -0.093   8.927   7.972  2.5157 -1.1731 -0.0471
  708MOL0     H93440   0.391   8.625   8.139  0.3601  2.7914 -0.0980
  708MOL0     H93441   0.551   8.504   7.998  0.8043  1.9776  1.4025
  708MOL0     H93442   1.611   9.269   6.252  1.5811 -0.7549 -0.3465
  708MOL0     H93443   1.843   9.310   6.283  1.1618 -1.2831  0.2397
  708MOL0     H93444   2.262   9.118   6.465 -1.8528  1.2798  0.6003
  708MOL0     H93445   2.499   9.122   6.349 -2.0149 -3.3580 -0.4976
  708MOL0     H93446   2.640   9.463   6.164 -1.0540  2.2039 -3.4645
  708MOL0     H93447   2.559   9.407   6.024 -0.4501 -0.6504 -0.3843
  708MOL0     H93448   2.840   9.323   6.110  0.1203  1.0511  0.5954
  708MOL0     H93449   2.766   9.257   5.970  2.6232  0.3664 -0.3942
  708MOL0     H93450   2.840   9.558   6.004  1.0454 -1.6916  1.3053
  708MOL0     H93451   2.730   9.506   5.882  0.1266 -1.8941 -2.4285
  708MOL0     H93452   2.901   9.349   5.789  0.0946  0.3849 -0.5564
  708MOL0     H93453   2.943   9.518   5.771  1.2142  1.9299  2.6112
  708MOL0     H93454   3.220   9.442   6.063  0.9945 -1.3051 -0.6158
  708MOL0     H93455   2.393   9.464   6.128 -2.7999  1.0126  0.0860
  708MOL0     H93456   2.187   9.485   6.248  0.0321 -0.2901  0.2425
  709MOL0     O93457   8.788   8.813   7.119 -0.1937  0.9481 -0.2037
  709MOL0     C93458   8.776   8.729   7.208  0.0168 -1.0862  0.6584
  709MOL0     O93459   8.691   8.617   7.210 -0.2297  0.6054 -0.1777
  709MOL0     C93460   8.610   8.590   7.099  0.2209  0.9138  0.8058
  709MOL0     C93461   8.565   8.684   7.005 -0.2644 -0.5487  0.2124
  709MOL0     C93462   8.471   8.650   6.916  1.1671 -0.7734 -0.3667
  709MOL0     C93463   8.412   8.517   6.918  0.1064 -0.4794 -0.0131
  709MOL0     O93464   8.309   8.473   6.837  0.2664 -0.1547 -0.3305
  709MOL0     C93465   8.192   8.561   6.823 -0.7497  0.2190 -0.6179
  709MOL0     C93466   8.169   8.577   6.673 -0.1173  0.0026 -0.5004
  709MOL0     C93467   8.045   8.657   6.634 -1.1562 -1.0134  1.0254
  709MOL0     C93468   8.049   8.798   6.696 -0.0362  0.3486  0.3127
  709MOL0     C93469   7.928   8.882   6.643  0.1452 -0.4138 -0.7063
  709MOL0     C93470   7.955   9.020   6.703  0.5717 -0.3571 -0.7300
  709MOL0     C93471   7.882   9.137   6.623 -0.3860  0.8068 -0.3640
  709MOL0     C93472   7.907   9.276   6.687 -0.8726 -0.3894 -0.6550
  709MOL0     N93473   7.837   9.295   6.815  0.8802 -0.2528  0.5532
  709MOL0     C93474   7.696   9.291   6.831 -0.6154 -0.0149 -1.1517
  709MOL0     C93475   7.681   9.317   6.964  0.3627 -0.3008 -0.5139
  709MOL0     C93476   7.550   9.346   7.027  0.1689  0.5196  0.6632
  709MOL0     C93477   7.548   9.345   7.180 -0.0478  1.0068  0.1479
  709MOL0     C93478   7.469   9.457   7.227 -0.5909  0.0494 -0.1548
  709MOL0     C93479   7.444   9.438   7.381 -0.2247 -0.1850 -0.7372
  709MOL0     O93480   7.335   9.526   7.426  0.6680  0.2024  0.3932
  709MOL0     C93481   7.211   9.504   7.378  0.2648  0.5271 -0.3281
  709MOL0     C93482   7.150   9.379   7.377 -0.0841  0.2020 -0.1342
  709MOL0     C93483   7.027   9.361   7.324 -0.0234 -0.1748 -0.4891
  709MOL0     C93484   6.955   9.466   7.267  0.2418  0.3872  0.4314
  709MOL0     C93485   6.815   9.428   7.217 -0.7913 -0.3718  1.0428
  709MOL0     O93486   6.720   9.526   7.202 -1.0538 -0.1321  0.6872
  709MOL0     C93487   6.595   9.494   7.150  0.4008 -1.0912  0.8533
  709MOL0     C93488   6.596   9.462   7.009 -0.1266  0.4712  1.3193
  709MOL0     C93489   6.481   9.420   6.950 -0.5939  0.2814 -0.4010
  709MOL0     C93490   6.361   9.412   7.026  0.0500 -0.2663  0.2507
  709MOL0     O93491   6.238   9.371   6.986  0.4247  0.3722 -0.3561
  709MOL0     C93492   6.202   9.387   6.848 -0.6763  0.6398 -0.3494
  709MOL0     C93493   6.049   9.343   6.840 -1.4634 -0.2589  0.5316
  709MOL0     C93494   5.946   9.447   6.879  0.9591  0.3181 -0.6051
  709MOL0     C93495   5.802   9.405   6.863 -0.2120  0.2170 -0.1441
  709MOL0     C93496   5.740   9.409   6.716 -0.7010 -0.1103  0.1488
  709MOL0     C93497   5.587   9.441   6.714 -1.3781 -0.6592 -0.2271
  709MOL0     C93498   5.497   9.329   6.763  0.7957 -0.5370  0.1331
  709MOL0     C93499   5.358   9.370   6.771 -0.2554 -0.0160 -0.2418
  709MOL0    Cl93500   5.281   9.405   6.618 -0.1157  0.1248 -0.0573
  709MOL0     C93501   6.361   9.457   7.159 -0.6134 -0.2943  0.8423
  709MOL0     C93502   6.478   9.488   7.220  0.4235  0.4984 -0.1508
  709MOL0     O93503   6.800   9.307   7.185 -0.0768  0.9524  0.1315
  709MOL0     C93504   7.010   9.591   7.266 -0.4731  0.3811 -0.4149
  709MOL0     C93505   7.140   9.605   7.312 -0.0459  0.0255 -0.5068
  709MOL0     N93506   7.806   9.345   7.016  0.4845  0.2620  0.7787
  709MOL0     N93507   7.895   9.321   6.932  0.3481 -1.1920 -0.6458
  709MOL0     C93508   8.477   8.423   6.995  0.3108 -0.5704  0.2649
  709MOL0     C93509   8.579   8.457   7.084  0.8615  0.5232  0.8037
  709MOL0     C93510   8.857   8.748   7.327  0.5652 -0.3551  0.0232
  709MOL0     C93511   8.934   8.865   7.348  0.3373  0.9536  1.1291
  709MOL0     C93512   9.013   8.882   7.459  0.0368  0.8279 -0.4788
  709MOL0     C93513   9.031   8.777   7.554 -0.9200 -0.5678 -0.9123
  709MOL0     O93514   9.114   8.807   7.662  0.1208 -0.9983 -0.1692
  709MOL0     C93515   9.120   8.702   7.768 -0.9569  0.5970 -0.9239
  709MOL0     C93516   9.203   8.749   7.891  0.1272  0.2505  0.3664
  709MOL0     C93517   9.257   8.645   7.985  0.1404  0.7498 -0.3011
  709MOL0     C93518   9.373   8.697   8.082 -0.1672 -0.2299  0.3600
  709MOL0     C93519   9.498   8.700   8.007  1.4899 -0.2893 -0.2845
  709MOL0     C93520   9.603   8.708   7.950 -0.3724  0.4446  0.8583
  709MOL0     C93521   8.953   8.661   7.540  1.1369  0.3266  0.4312
  709MOL0     C93522   8.857   8.651   7.432 -0.0545 -0.5899  0.3678
  709MOL0     H93523   8.592   8.789   7.003 -0.7210 -0.4176  0.7005
  709MOL0     H93524   8.435   8.716   6.837  1.7757  0.8437  0.6715
  709MOL0     H93525   8.209   8.658   6.870  1.2492  0.6120 -2.0148
  709MOL0     H93526   8.104   8.509   6.861  0.5018 -1.9401 -0.4911
  709MOL0     H93527   8.154   8.484   6.619 -1.3415 -0.7723  1.0934
  709MOL0     H93528   8.263   8.616   6.633  0.5742 -1.6459 -0.5355
  709MOL0     H93529   7.952   8.607   6.663 -1.4282 -1.4889 -0.5803
  709MOL0     H93530   8.051   8.660   6.525 -0.2898  1.6606  1.1019
  709MOL0     H93531   8.036   8.788   6.805 -0.5679 -0.0014  0.2211
  709MOL0     H93532   8.143   8.848   6.675 -0.7053  0.9175 -1.4669
  709MOL0     H93533   7.826   8.847   6.658  0.2429 -1.3164 -2.0626
  709MOL0     H93534   7.939   8.887   6.534 -4.0245 -1.5258 -1.3357
  709MOL0     H93535   8.061   9.038   6.720  0.4176 -1.3332  1.5643
  709MOL0     H93536   7.911   9.008   6.802  2.5028  0.6016  0.2884
  709MOL0     H93537   7.909   9.144   6.517 -1.1604  1.4002 -0.5361
  709MOL0     H93538   7.777   9.107   6.615  0.4271 -2.6297  0.3588
  709MOL0     H93539   7.883   9.355   6.615 -1.6658  0.0960  0.1173
  709MOL0     H93540   8.013   9.299   6.700 -0.2263 -3.2992  0.0150
  709MOL0     H93541   7.613   9.268   6.765 -1.1810 -0.0203 -0.4475
  709MOL0     H93542   7.487   9.268   6.983 -1.6734  1.8610  0.7940
  709MOL0     H93543   7.511   9.441   6.989  0.5691  0.1607 -0.6951
  709MOL0     H93544   7.649   9.350   7.221 -0.4493 -0.1783  1.3552
  709MOL0     H93545   7.493   9.262   7.226  0.0813  0.9991  0.2904
  709MOL0     H93546   7.508   9.558   7.219 -0.8315  0.2060  0.6379
  709MOL0     H93547   7.376   9.448   7.169 -0.7328  0.3159  0.0349
  709MOL0     H93548   7.538   9.468   7.428  0.2161  0.1606 -1.8155
  709MOL0     H93549   7.426   9.335   7.412 -1.8480 -0.1323 -1.4215
  709MOL0     H93550   7.195   9.294   7.426  1.6426  0.4597 -1.1912
  709MOL0     H93551   6.986   9.261   7.333  1.0866 -0.6497 -0.5470
  709MOL0     H93552   6.687   9.435   6.957 -1.6267 -1.1140 -0.6758
  709MOL0     H93553   6.475   9.406   6.842  2.6405 -1.9460 -0.4120
  709MOL0     H93554   6.262   9.321   6.784 -0.1369  0.3063  0.4905
  709MOL0     H93555   6.219   9.490   6.816 -2.5351  1.3486  0.8322
  709MOL0     H93556   6.036   9.257   6.905  1.5854  0.2703  2.0052
  709MOL0     H93557   6.030   9.307   6.738  1.3512 -0.8229  0.1236
  709MOL0     H93558   5.954   9.534   6.813  2.2663 -0.9214 -2.1800
  709MOL0     H93559   5.961   9.462   6.986  0.6269  1.6685 -0.7290
  709MOL0     H93560   5.792   9.306   6.908  0.1507  0.3641  0.2633
  709MOL0     H93561   5.744   9.469   6.930  0.1237 -2.2397  2.7077
  709MOL0     H93562   5.752   9.313   6.667  0.7364 -0.3458  0.9080
  709MOL0     H93563   5.788   9.489   6.659 -1.9125  0.1528 -0.5366
  709MOL0     H93564   5.558   9.474   6.614  2.0720  3.1055 -0.2409
  709MOL0     H93565   5.567   9.532   6.770  0.5902  0.2550 -0.9066
  709MOL0     H93566   5.504   9.235   6.707 -2.0838  0.4000 -2.0617
  709MOL0     H93567   5.539   9.304   6.861  0.3737  1.2851  0.8141
  709MOL0     H93568   5.343   9.467   6.819 -0.4982 -0.3708  0.4091
  709MOL0     H93569   5.310   9.294   6.833 -0.3552 -0.2653 -0.6201
  709MOL0     H93570   6.271   9.435   7.216 -0.0987 -3.0378  0.7433
  709MOL0     H93571   6.480   9.514   7.326 -1.6017 -1.3925  0.4139
  709MOL0     H93572   6.956   9.670   7.215  0.6066  1.7048  0.4341
  709MOL0     H93573   7.182   9.703   7.328  1.3457 -0.7762  1.1947
  709MOL0     H93574   8.444   8.321   6.981 -0.7843  0.1455 -3.0964
  709MOL0     H93575   8.629   8.386   7.148  2.0614  0.5203 -0.0970
  709MOL0     H93576   8.940   8.945   7.274  2.7738 -1.4937 -1.5412
  709MOL0     H93577   9.068   8.971   7.484  0.9029 -0.1160  1.1074
  709MOL0     H93578   9.171   8.614   7.728 -0.4067  0.2580  0.4776
  709MOL0     H93579   9.017   8.681   7.799 -1.5700  1.8719 -1.9830
  709MOL0     H93580   9.287   8.805   7.849  0.6104  0.2295  1.2818
  709MOL0     H93581   9.146   8.813   7.958  1.1570  0.9030  0.6522
  709MOL0     H93582   9.297   8.555   7.937 -0.7450 -0.6790  1.5561
  709MOL0     H93583   9.170   8.630   8.048 -0.8862  2.8767 -1.1121
  709MOL0     H93584   9.355   8.798   8.122 -0.8364  0.0210 -0.5434
  709MOL0     H93585   9.396   8.635   8.169  1.9591  1.1461  0.8597
  709MOL0     H93586   9.699   8.710   7.903 -1.4085 -2.5282 -1.7358
  709MOL0     H93587   8.962   8.581   7.613 -2.0210 -0.2023  0.4069
  709MOL0     H93588   8.787   8.569   7.430 -1.1524  0.3105 -2.3970
  710MOL0     O93589  10.584  10.553   6.983  0.4130  0.4111 -0.2211
  710MOL0     C93590  10.680  10.583   6.910  0.0413  0.1414 -1.0220
  710MOL0     O93591  10.674  10.676   6.820 -0.2185  0.0660  0.0688
  710MOL0     C93592  10.563  10.754   6.791  0.4106 -0.4166 -0.6143
  710MOL0     C93593  10.530  10.771   6.655 -0.5273  0.3173 -0.6868
  710MOL0     C93594  10.441  10.868   6.617 -0.0793  0.0551  0.3234
  710MOL0     C93595  10.367  10.936   6.711  0.1783  0.4220  0.1071
  710MOL0     O93596  10.263  11.026   6.670  0.5774  0.6059 -1.0825
  710MOL0     C93597  10.322  11.157   6.666 -0.1323  0.2329 -0.3719
  710MOL0     C93598  10.240  11.243   6.565 -0.4653  0.1235 -0.7275
  710MOL0     C93599  10.090  11.228   6.574 -0.4769  0.1556  0.3528
  710MOL0     C93600  10.007  11.353   6.519 -0.1443  0.5216  0.2123
  710MOL0     C93601   9.854  11.332   6.556 -0.4401  0.8120 -0.7896
  710MOL0     C93602   9.811  11.345   6.702  0.1400 -0.9294 -0.6378
  710MOL0     C93603   9.839  11.477   6.772 -0.0670 -0.0597  0.3425
  710MOL0     C93604   9.809  11.474   6.923 -0.6609 -0.2461  0.5758
  710MOL0     N93605   9.664  11.465   6.943  0.3191 -0.7872  0.1085
  710MOL0     C93606   9.594  11.345   6.960 -0.3486  0.0540 -0.5518
  710MOL0     C93607   9.463  11.385   6.950 -0.3845 -0.7628  0.0171
  710MOL0     C93608   9.342  11.300   6.971  0.1712 -0.1854 -0.4531
  710MOL0     C93609   9.269  11.348   7.101  0.4033  0.6135 -0.5678
  710MOL0     C93610   9.119  11.305   7.109 -0.4655  0.0441  0.3177
  710MOL0     C93611   9.060  11.373   7.233 -0.6876  1.3453 -0.1444
  710MOL0     O93612   8.915  11.382   7.212  0.5035 -0.9959 -0.8342
  710MOL0     C93613   8.832  11.433   7.306 -0.3962 -0.6267 -0.3822
  710MOL0     C93614   8.698  11.414   7.282 -0.2297 -0.6743  0.8841
  710MOL0     C93615   8.598  11.469   7.372 -0.5763 -0.8427 -0.6497
  710MOL0     C93616   8.632  11.529   7.494  0.9193 -0.8933  0.7160
  710MOL0     C93617   8.528  11.592   7.581 -0.5998 -0.0827  0.1699
  710MOL0     O93618   8.395  11.602   7.544  0.3110 -0.7994  0.6027
  710MOL0     C93619   8.309  11.621   7.647 -0.3439 -0.5465  0.6073
  710MOL0     C93620   8.282  11.535   7.751  0.6894 -0.3342  0.2441
  710MOL0     C93621   8.194  11.570   7.855  0.3562  1.1757  0.8309
  710MOL0     C93622   8.124  11.692   7.848  0.6369 -1.3339  0.0063
  710MOL0     O93623   8.019  11.726   7.934 -0.5118 -0.0389  0.0399
  710MOL0     C93624   8.041  11.838   8.020 -0.6343  0.2949 -0.7855
  710MOL0     C93625   7.966  11.826   8.151 -0.5719  0.3180 -0.2133
  710MOL0     C93626   7.831  11.763   8.137  1.0119  0.5287 -0.1643
  710MOL0     C93627   7.747  11.738   8.258 -0.2182  0.3528 -0.7470
  710MOL0     C93628   7.620  11.665   8.222  0.8306  0.5131 -0.2331
  710MOL0     C93629   7.528  11.657   8.345  0.7620  0.3206  0.0881
  710MOL0     C93630   7.405  11.587   8.308 -0.0781  0.0774  0.2989
  710MOL0     C93631   7.294  11.688   8.269 -0.2910 -0.7837 -1.1763
  710MOL0    Cl93632   7.330  11.774   8.107  0.3905  0.2073 -0.0670
  710MOL0     C93633   8.141  11.778   7.741  0.5566 -0.0876  0.4481
  710MOL0     C93634   8.240  11.745   7.639  0.4448  0.4134 -0.2292
  710MOL0     O93635   8.565  11.622   7.691  0.2227 -0.6574  0.4077
  710MOL0     C93636   8.766  11.536   7.519 -1.1144 -0.8921 -0.1480
  710MOL0     C93637   8.865  11.510   7.428  0.1643  0.8046 -0.5610
  710MOL0     N93638   9.454  11.522   6.918 -0.4699  0.3845  0.4816
  710MOL0     N93639   9.580  11.573   6.907 -0.2740  0.5247 -0.6704
  710MOL0     C93640  10.397  10.915   6.849 -0.3130 -0.5644  0.4723
  710MOL0     C93641  10.493  10.822   6.893 -0.1784  0.0173 -0.0907
  710MOL0     C93642  10.805  10.506   6.921  0.8865  0.0598 -0.4199
  710MOL0     C93643  10.832  10.428   7.041 -0.4910 -1.1608  0.4160
  710MOL0     C93644  10.946  10.345   7.046 -1.1385  0.0672 -0.7126
  710MOL0     C93645  11.035  10.332   6.933 -1.1472  0.2483  0.7027
  710MOL0     O93646  11.159  10.262   6.942 -1.0675 -0.5907 -0.4771
  710MOL0     C93647  11.205  10.208   6.818 -0.0153 -0.8834  1.2585
  710MOL0     C93648  11.300  10.102   6.868 -0.0960  0.2514 -0.4926
  710MOL0     C93649  11.431  10.158   6.936  0.0832 -0.6916  0.5305
  710MOL0     C93650  11.538  10.047   6.942 -0.1943  0.3672 -0.1974
  710MOL0     C93651  11.661  10.108   6.993 -0.4493 -0.7434 -0.6623
  710MOL0     C93652  11.755  10.169   7.038 -0.4340 -0.6712  0.2639
  710MOL0     C93653  11.013  10.421   6.821  0.5303  0.3360 -0.2402
  710MOL0     C93654  10.898  10.502   6.816 -0.2438 -0.3720  0.0389
  710MOL0     H93655  10.597  10.714   6.591 -1.5361 -2.0027  0.1950
  710MOL0     H93656  10.415  10.882   6.513 -1.5524  0.9416  0.7731
  710MOL0     H93657  10.422  11.154   6.620  1.9543  1.7152  3.5845
  710MOL0     H93658  10.343  11.206   6.761  1.5231 -1.0709 -0.0163
  710MOL0     H93659  10.275  11.219   6.464  4.0840 -0.9861  0.8726
  710MOL0     H93660  10.273  11.342   6.598  1.4651 -0.3378 -1.1372
  710MOL0     H93661  10.070  11.219   6.682  0.9179  1.1834  0.7208
  710MOL0     H93662  10.057  11.139   6.519 -2.1195  0.7176  0.3618
  710MOL0     H93663  10.043  11.444   6.567  2.5685 -0.5238  0.3639
  710MOL0     H93664  10.009  11.363   6.411  1.0718  0.1217  0.1816
  710MOL0     H93665   9.827  11.233   6.518 -3.3676  0.7470  1.1365
  710MOL0     H93666   9.802  11.403   6.491 -1.6765 -2.3309 -3.5079
  710MOL0     H93667   9.857  11.276   6.773  0.8715  1.0070  0.8862
  710MOL0     H93668   9.701  11.344   6.704  0.1005 -0.4114 -1.7774
  710MOL0     H93669   9.948  11.492   6.763  0.0161 -0.2271  1.0274
  710MOL0     H93670   9.787  11.561   6.725  2.4112 -0.0479 -2.7248
  710MOL0     H93671   9.845  11.567   6.968 -0.6012  0.1111 -0.1986
  710MOL0     H93672   9.854  11.387   6.971  1.3963  0.8870  0.8429
  710MOL0     H93673   9.627  11.243   6.974 -1.6379 -0.5650 -1.7691
  710MOL0     H93674   9.368  11.195   6.981  0.3960 -0.1156 -0.3095
  710MOL0     H93675   9.281  11.310   6.880 -1.1012 -0.1360  0.3742
  710MOL0     H93676   9.281  11.456   7.114  1.6826  0.2539  2.0114
  710MOL0     H93677   9.321  11.316   7.192  1.4847 -1.9825 -1.9824
  710MOL0     H93678   9.068  11.338   7.018 -0.6080 -1.2582 -0.1006
  710MOL0     H93679   9.107  11.196   7.110  0.4953 -0.0979 -0.9452
  710MOL0     H93680   9.112  11.467   7.254  2.6588 -0.1324 -1.0253
  710MOL0     H93681   9.086  11.315   7.322  0.9880 -1.3422 -2.2327
  710MOL0     H93682   8.664  11.373   7.188  1.3551 -1.7624  0.7501
  710MOL0     H93683   8.491  11.483   7.359 -0.4423  0.9940 -0.0462
  710MOL0     H93684   8.331  11.438   7.753 -0.2049 -0.9849 -2.8633
  710MOL0     H93685   8.194  11.506   7.942  1.3710  2.4959  1.8395
  710MOL0     H93686   8.013  11.938   7.986  0.5720  2.7387  4.3781
  710MOL0     H93687   8.149  11.851   8.033 -0.4637  1.1340 -2.6878
  710MOL0     H93688   7.966  11.926   8.196  0.2212  0.8657 -1.3649
  710MOL0     H93689   8.028  11.768   8.220  1.3598  1.6471 -0.7299
  710MOL0     H93690   7.846  11.662   8.097  1.3164  1.0060 -1.3080
  710MOL0     H93691   7.769  11.817   8.065  1.5915 -2.6370 -3.3003
  710MOL0     H93692   7.802  11.684   8.335 -0.1907  1.4190  0.0083
  710MOL0     H93693   7.720  11.835   8.300  0.4205  1.0475 -1.8835
  710MOL0     H93694   7.642  11.561   8.196  2.2533  0.4490  1.0719
  710MOL0     H93695   7.571  11.715   8.138  0.8337  2.3059  0.7880
  710MOL0     H93696   7.508  11.753   8.394  0.7168  0.5657 -0.4065
  710MOL0     H93697   7.582  11.594   8.417  3.3396  0.2657 -1.7507
  710MOL0     H93698   7.415  11.542   8.208 -0.6438  0.2988  0.1447
  710MOL0     H93699   7.387  11.511   8.384  1.9131  0.1877  0.9616
  710MOL0     H93700   7.271  11.761   8.347  1.4113 -1.7171  0.2624
  710MOL0     H93701   7.201  11.631   8.258 -1.9377  1.1586  1.3925
  710MOL0     H93702   8.087  11.872   7.737 -0.4522 -0.6600  0.0405
  710MOL0     H93703   8.260  11.812   7.557  3.5192  0.2087  0.2431
  710MOL0     H93704   8.800  11.574   7.614  0.9934  0.1715 -1.2456
  710MOL0     H93705   8.970  11.533   7.441  0.4505 -0.2779 -0.8115
  710MOL0     H93706  10.329  10.960   6.921 -1.7977 -0.4323 -0.9483
  710MOL0     H93707  10.504  10.789   6.996 -0.9436 -3.0828 -0.8982
  710MOL0     H93708  10.758  10.415   7.119 -1.3386 -0.7949 -0.3124
  710MOL0     H93709  10.953  10.272   7.125 -0.8478 -1.5679 -2.1828
  710MOL0     H93710  11.269  10.275   6.762 -2.1579  0.5161  0.3407
  710MOL0     H93711  11.122  10.170   6.759  0.1679  1.8883 -0.9925
  710MOL0     H93712  11.253  10.025   6.930 -0.9244  0.4936 -0.8062
  710MOL0     H93713  11.322  10.049   6.775 -1.2317 -1.0919 -0.0399
  710MOL0     H93714  11.395  10.195   7.033  2.6698  3.5465  0.1267
  710MOL0     H93715  11.472  10.246   6.886 -0.1465 -1.7349 -1.5799
  710MOL0     H93716  11.502   9.970   7.012 -0.9504  1.6337  0.8611
  710MOL0     H93717  11.544   9.998   6.845 -0.1167  1.6740 -0.8635
  710MOL0     H93718  11.843  10.220   7.073 -0.4810 -1.1247  1.0580
  710MOL0     H93719  11.084  10.418   6.739 -1.8323 -3.2973 -2.4425
  710MOL0     H93720  10.879  10.556   6.724 -1.1104  1.2316  1.1016
  711MOL0     O93721   1.886  10.320  10.046  0.7654 -0.1831 -0.1928
  711MOL0     C93722   1.821  10.403  10.115 -0.5053  0.6640  0.0113
  711MOL0     O93723   1.875  10.521  10.167 -0.7236 -0.0334 -0.3200
  711MOL0     C93724   2.006  10.544  10.186  0.8236 -0.1598  0.0405
  711MOL0     C93725   2.079  10.563  10.069  0.9611 -0.7382  0.3896
  711MOL0     C93726   2.203  10.602  10.082  0.0758  0.5443  0.8986
  711MOL0     C93727   2.272  10.609  10.206  0.1670  0.5886 -0.6897
  711MOL0     O93728   2.398  10.662  10.182  0.0640  0.1761 -0.7735
  711MOL0     C93729   2.482  10.686  10.297 -0.9338  0.6065 -0.4261
  711MOL0     C93730   2.621  10.649  10.256  0.2210 -0.1941 -0.1029
  711MOL0     C93731   2.724  10.649  10.363  0.6264 -0.0411  0.3353
  711MOL0     C93732   2.862  10.617  10.330 -0.4201 -0.3435  0.6841
  711MOL0     C93733   2.941  10.585  10.457  0.6293  0.0740  0.0377
  711MOL0     C93734   3.092  10.595  10.439 -0.7295  0.2916 -0.1563
  711MOL0     C93735   3.163  10.503  10.539 -0.2072 -0.0733 -0.6941
  711MOL0     C93736   3.317  10.501  10.532  0.5609 -0.2855 -0.5503
  711MOL0     N93737   3.360  10.454  10.398  0.0800  0.1735  0.5801
  711MOL0     C93738   3.407  10.536  10.301  0.5204  0.2760 -0.8123
  711MOL0     C93739   3.431  10.463  10.193  0.2211  0.2716 -0.6629
  711MOL0     C93740   3.503  10.502  10.071  0.5252 -0.3137  0.0550
  711MOL0     C93741   3.649  10.536  10.097  0.7623  0.0728 -0.0672
  711MOL0     C93742   3.728  10.409  10.094 -0.1447 -0.4606  0.3863
  711MOL0     C93743   3.853  10.425  10.008 -0.4666  1.0655 -0.0688
  711MOL0     O93744   3.924  10.547  10.060 -0.3890  0.1542  0.5835
  711MOL0     C93745   4.004  10.618   9.980 -0.5383 -1.1469  0.1260
  711MOL0     C93746   4.000  10.618   9.845  0.1199 -0.5072 -0.0577
  711MOL0     C93747   4.090  10.697   9.777  0.5852 -0.0610 -0.7766
  711MOL0     C93748   4.196  10.769   9.847  1.2755 -0.5025 -0.0075
  711MOL0     C93749   4.297  10.842   9.762  0.6546  0.5656  0.3495
  711MOL0     O93750   4.266  10.872   9.633  0.2014 -0.1199 -0.0545
  711MOL0     C93751   4.352  10.951   9.557  0.7095  0.7230 -0.3189
  711MOL0     C93752   4.326  10.934   9.419 -0.3911 -0.3025 -1.2850
  711MOL0     C93753   4.394  11.003   9.317  0.3380 -0.6790  0.0769
  711MOL0     C93754   4.487  11.103   9.356  1.4662 -0.6972 -0.5374
  711MOL0     O93755   4.567  11.147   9.260 -0.5603  0.0433  0.0845
  711MOL0     C93756   4.685  11.210   9.293 -0.6596  1.1217  0.0745
  711MOL0     C93757   4.755  11.263   9.171 -0.8119  0.7280  1.6112
  711MOL0     C93758   4.885  11.309   9.215  0.0234  0.5919 -0.2054
  711MOL0     C93759   4.953  11.405   9.132 -0.4550 -0.8700  0.1349
  711MOL0     C93760   5.085  11.461   9.183 -0.3171 -0.1363  0.0791
  711MOL0     C93761   5.159  11.531   9.073  0.2845 -0.6848  0.5335
  711MOL0     C93762   5.312  11.508   9.072  0.0297  0.2717  0.1071
  711MOL0     C93763   5.382  11.629   9.138 -1.2196  0.2912 -0.2773
  711MOL0    Cl93764   5.356  11.789   9.070  0.0053  0.7309 -0.0088
  711MOL0     C93765   4.502  11.134   9.490  0.9482  0.1886 -0.4150
  711MOL0     C93766   4.436  11.054   9.594 -0.2626  0.1124  0.0244
  711MOL0     O93767   4.401  10.869   9.824 -0.5599  0.0084  0.8271
  711MOL0     C93768   4.196  10.771   9.985  0.2023  0.2763 -0.3740
  711MOL0     C93769   4.110  10.682  10.048  0.0715  0.6093 -0.2077
  711MOL0     N93770   3.400  10.333  10.230  0.6282 -0.1341  0.4138
  711MOL0     N93771   3.357  10.321  10.357 -1.0245 -0.5415  0.0642
  711MOL0     C93772   2.202  10.585  10.327 -0.0305 -0.5274 -0.1305
  711MOL0     C93773   2.061  10.550  10.315 -0.2354  0.4081 -0.0051
  711MOL0     C93774   1.675  10.389  10.135  0.5593  0.5812 -0.0367
  711MOL0     C93775   1.600  10.483  10.214  0.4921  0.8423  0.7930
  711MOL0     C93776   1.465  10.465  10.232 -0.2350  0.2715  0.0254
  711MOL0     C93777   1.396  10.356  10.177 -0.7119  0.1124 -0.7577
  711MOL0     O93778   1.258  10.341  10.202 -0.0751 -0.2791  0.1615
  711MOL0     C93779   1.185  10.338  10.075  0.2577  0.5084  0.3465
  711MOL0     C93780   1.132  10.194  10.056 -0.3908  0.2988  0.5962
  711MOL0     C93781   1.033  10.137  10.159 -0.1689  0.4902 -0.2042
  711MOL0     C93782   0.895  10.199  10.165 -0.3302  0.2601  0.7392
  711MOL0     C93783   0.811  10.127  10.252 -0.2403  0.0730  0.1714
  711MOL0     C93784   0.731  10.050  10.298  0.4280 -0.0041 -0.3538
  711MOL0     C93785   1.466  10.265  10.100  0.0656  0.1365  0.0744
  711MOL0     C93786   1.604  10.285  10.067  0.6216  0.1852  0.0973
  711MOL0     H93787   2.034  10.544   9.972  1.3017  0.2937  0.0167
  711MOL0     H93788   2.266  10.622   9.996 -1.5337  5.6729  0.5657
  711MOL0     H93789   2.455  10.613  10.373 -0.5547 -1.7766 -2.4453
  711MOL0     H93790   2.465  10.785  10.339 -2.3412 -0.2689  1.1901
  711MOL0     H93791   2.665  10.716  10.182 -0.4874  0.0645 -0.2954
  711MOL0     H93792   2.607  10.555  10.202 -0.8724 -0.6964  0.9904
  711MOL0     H93793   2.696  10.563  10.425 -3.0805  1.0092  0.3866
  711MOL0     H93794   2.719  10.737  10.429 -0.3708 -0.9114  1.4553
  711MOL0     H93795   2.871  10.534  10.260  0.8059  0.1985  0.1545
  711MOL0     H93796   2.908  10.708  10.290  1.7692 -0.0187  3.5655
  711MOL0     H93797   2.911  10.482  10.480 -1.3959  0.3866 -0.9893
  711MOL0     H93798   2.906  10.653  10.535  2.1470 -1.9658  2.6666
  711MOL0     H93799   3.129  10.697  10.438 -0.2258  0.1067 -0.9213
  711MOL0     H93800   3.114  10.557  10.339 -0.2683  0.5060 -0.1350
  711MOL0     H93801   3.150  10.534  10.643 -0.3434 -1.7868 -0.1788
  711MOL0     H93802   3.131  10.400  10.523  0.9873 -0.2494 -2.2246
  711MOL0     H93803   3.355  10.432  10.608 -0.2024  1.8848  1.9996
  711MOL0     H93804   3.361  10.600  10.551  0.1221 -0.2650  0.4628
  711MOL0     H93805   3.434  10.639  10.324  0.0498  0.7509 -2.2767
  711MOL0     H93806   3.461  10.593  10.026 -1.4629 -1.1310  0.1639
  711MOL0     H93807   3.498  10.417  10.002 -1.7505 -0.7609  0.6832
  711MOL0     H93808   3.662  10.586  10.194 -0.9351  2.2135 -0.8620
  711MOL0     H93809   3.688  10.611  10.027  1.8415 -0.1925  0.2209
  711MOL0     H93810   3.763  10.385  10.195  2.1985  3.8469  0.8625
  711MOL0     H93811   3.675  10.321  10.055  1.0080  0.2531 -3.1678
  711MOL0     H93812   3.834  10.420   9.900  0.4428 -2.7736 -0.2148
  711MOL0     H93813   3.913  10.335  10.029  0.8438  1.4719 -1.8084
  711MOL0     H93814   3.908  10.584   9.797 -0.5686  1.1941 -0.0292
  711MOL0     H93815   4.076  10.706   9.670 -3.3981 -0.1942 -0.4357
  711MOL0     H93816   4.246  10.871   9.381 -1.3641  0.9687 -1.3822
  711MOL0     H93817   4.374  10.985   9.212 -2.0411  0.9965  0.1505
  711MOL0     H93818   4.750  11.134   9.337  0.9902  1.8071 -1.0701
  711MOL0     H93819   4.666  11.288   9.368 -1.6144  0.0025  1.0417
  711MOL0     H93820   4.700  11.349   9.131  1.8975  1.5717 -0.6260
  711MOL0     H93821   4.769  11.189   9.092  5.3505  2.2448  0.8153
  711MOL0     H93822   4.956  11.226   9.215  2.6199  2.6773 -0.0691
  711MOL0     H93823   4.893  11.358   9.313  3.2175  0.2033 -0.1644
  711MOL0     H93824   4.965  11.356   9.035  0.6564  3.0904 -1.9508
  711MOL0     H93825   4.890  11.495   9.127  1.2957  0.6757  3.1381
  711MOL0     H93826   5.150  11.384   9.225  1.5814  0.5562 -1.4234
  711MOL0     H93827   5.060  11.535   9.259  2.8952  0.5004  0.6657
  711MOL0     H93828   5.135  11.638   9.067 -1.1953 -0.9227  1.5726
  711MOL0     H93829   5.128  11.479   8.982  1.2313 -0.3443  0.0035
  711MOL0     H93830   5.341  11.415   9.121  1.6481  2.8475  4.5750
  711MOL0     H93831   5.341  11.503   8.967 -4.5134 -2.4000 -1.3116
  711MOL0     H93832   5.491  11.615   9.140 -0.8810  1.5930 -3.2522
  711MOL0     H93833   5.332  11.629   9.235 -1.0324  1.2782 -0.1723
  711MOL0     H93834   4.553  11.225   9.518 -2.7386  2.1242  0.6218
  711MOL0     H93835   4.448  11.088   9.696 -2.7649  1.2351  0.0123
  711MOL0     H93836   4.257  10.834  10.050  0.8765 -0.2464 -0.4928
  711MOL0     H93837   4.093  10.673  10.155 -2.3402 -1.7920 -0.6919
  711MOL0     H93838   2.255  10.602  10.420  0.5268  1.2337 -0.7290
  711MOL0     H93839   1.997  10.536  10.402  0.0852  1.3762  0.4137
  711MOL0     H93840   1.633  10.577  10.256 -1.3565  2.0255 -0.2318
  711MOL0     H93841   1.419  10.539  10.297 -0.6903 -0.6125  0.7419
  711MOL0     H93842   1.259  10.358   9.996  1.9543 -2.1296  1.1253
  711MOL0     H93843   1.096  10.402  10.077  1.1281  1.7791 -0.0571
  711MOL0     H93844   1.083  10.193   9.958 -1.2986  0.1869  1.0377
  711MOL0     H93845   1.206  10.114  10.047 -1.6225 -0.7148 -1.7434
  711MOL0     H93846   1.084  10.166  10.251 -0.7663  0.0243  0.2772
  711MOL0     H93847   1.036  10.029  10.142  1.9669  0.0906  2.0728
  711MOL0     H93848   0.901  10.306  10.191 -0.2795  0.6978 -0.9640
  711MOL0     H93849   0.860  10.181  10.063  2.3021 -0.6091 -0.0899
  711MOL0     H93850   0.673   9.970  10.340  1.5624 -0.4585  0.3742
  711MOL0     H93851   1.409  10.187  10.050  0.7912 -0.8574  0.7474
  711MOL0     H93852   1.648  10.232   9.983  0.4782  1.3996 -0.7735
  712MOL0     O93853   4.756   9.745   2.898  0.3838 -0.6790  0.2547
  712MOL0     C93854   4.755   9.641   2.834 -0.9377  0.5426  0.0109
  712MOL0     O93855   4.652   9.585   2.766  0.9238  0.1086  0.3111
  712MOL0     C93856   4.528   9.641   2.773  0.8221 -0.1792 -1.5285
  712MOL0     C93857   4.455   9.610   2.890 -0.1209  0.6683 -0.1169
  712MOL0     C93858   4.325   9.661   2.890 -0.1224  0.2734 -0.0760
  712MOL0     C93859   4.267   9.744   2.791 -0.0150 -0.2709 -0.9046
  712MOL0     O93860   4.137   9.783   2.794 -0.1469 -0.1486  0.3783
  712MOL0     C93861   4.113   9.869   2.910  0.3667  0.0789  0.1322
  712MOL0     C93862   3.979   9.949   2.907 -1.0486  0.0214 -0.2774
  712MOL0     C93863   3.974  10.047   3.023  0.7176 -0.3755 -0.0767
  712MOL0     C93864   3.835  10.109   3.022 -0.6730  0.2700 -0.0126
  712MOL0     C93865   3.808  10.199   3.143  0.0487  0.0787  0.5392
  712MOL0     C93866   3.686  10.288   3.133 -0.0106  0.3163 -0.1454
  712MOL0     C93867   3.683  10.376   3.256 -0.3519  1.4014  0.6993
  712MOL0     C93868   3.567  10.485   3.253  0.8859 -0.1562 -1.3371
  712MOL0     N93869   3.565  10.580   3.135 -0.3231  0.1355 -0.1918
  712MOL0     C93870   3.674  10.642   3.079 -0.2931  0.1439  0.5626
  712MOL0     C93871   3.628  10.741   3.001  0.0874 -0.0483 -0.0996
  712MOL0     C93872   3.709  10.837   2.922 -1.3139 -0.0826 -0.1311
  712MOL0     C93873   3.710  10.817   2.760 -1.0742  0.0701 -0.2471
  712MOL0     C93874   3.653  10.930   2.691 -0.3452  0.0607  0.1832
  712MOL0     C93875   3.508  10.960   2.729  0.6123 -0.4762  0.6298
  712MOL0     O93876   3.468  11.074   2.649 -1.2570 -0.4735 -1.0311
  712MOL0     C93877   3.333  11.077   2.626  0.0892 -0.4666 -0.4995
  712MOL0     C93878   3.291  11.110   2.498 -0.6306  1.1442  0.0444
  712MOL0     C93879   3.149  11.104   2.472 -0.1255  0.4143 -0.5994
  712MOL0     C93880   3.055  11.061   2.569  0.1016 -0.2264 -0.5941
  712MOL0     C93881   2.911  11.062   2.546 -0.3531 -0.5435  1.3180
  712MOL0     O93882   2.830  10.977   2.614 -0.4394  0.2193 -0.3747
  712MOL0     C93883   2.694  10.960   2.590 -0.1729 -0.0986  0.2228
  712MOL0     C93884   2.647  10.962   2.456  0.5525  0.7116  0.1300
  712MOL0     C93885   2.502  10.965   2.445  0.1701  0.2115  0.3669
  712MOL0     C93886   2.417  10.969   2.561  0.9164 -0.1560  0.4914
  712MOL0     O93887   2.281  10.982   2.552  0.6941  0.4924  0.1083
  712MOL0     C93888   2.202  10.987   2.675 -0.5367  1.0046 -0.4776
  712MOL0     C93889   2.055  11.001   2.628  0.3358 -0.9947 -0.7841
  712MOL0     C93890   1.972  11.050   2.741 -0.1671 -1.1873  0.1224
  712MOL0     C93891   1.824  11.041   2.711  0.2396 -0.9745  0.0427
  712MOL0     C93892   1.741  11.137   2.805 -0.2429 -1.0550  0.3251
  712MOL0     C93893   1.587  11.126   2.769  0.4935  0.0348  0.4453
  712MOL0     C93894   1.501  11.224   2.856 -0.2865  0.8967 -0.2872
  712MOL0     C93895   1.364  11.164   2.870 -0.4884 -0.1178 -0.7159
  712MOL0    Cl93896   1.246  11.293   2.941  0.8119  0.2066  0.1686
  712MOL0     C93897   2.473  10.963   2.689 -0.1716  0.2734  0.7732
  712MOL0     C93898   2.612  10.959   2.698  1.0166  0.0183  0.5447
  712MOL0     O93899   2.863  11.148   2.463 -0.3481  0.1319 -0.1837
  712MOL0     C93900   3.105  11.025   2.692  0.3551 -0.3701  0.6263
  712MOL0     C93901   3.238  11.028   2.722  0.2685 -1.3224 -0.2644
  712MOL0     N93902   3.488  10.738   3.004 -0.3245 -0.4170 -0.2189
  712MOL0     N93903   3.455  10.642   3.079  0.0543  0.0299 -0.2155
  712MOL0     C93904   4.346   9.777   2.687  0.5067 -0.1046  0.3858
  712MOL0     C93905   4.478   9.729   2.674 -0.3800 -1.5388 -0.1192
  712MOL0     C93906   4.875   9.558   2.822  0.2044  0.1558 -0.7380
  712MOL0     C93907   4.988   9.587   2.894 -0.2867  0.9851 -0.1314
  712MOL0     C93908   5.100   9.518   2.877 -0.9259  0.6009  0.3821
  712MOL0     C93909   5.123   9.422   2.782 -0.2243 -0.3667  0.2902
  712MOL0     O93910   5.256   9.382   2.764 -0.1000  0.4916 -0.0320
  712MOL0     C93911   5.300   9.295   2.653 -0.8536 -0.5957 -0.8801
  712MOL0     C93912   5.421   9.204   2.695 -0.1110  0.0355 -0.1434
  712MOL0     C93913   5.393   9.104   2.810  0.1399  0.5685  0.0660
  712MOL0     C93914   5.521   9.022   2.844 -0.5149  1.5423 -0.2635
  712MOL0     C93915   5.508   8.959   2.973 -0.2904  0.5235 -0.6455
  712MOL0     C93916   5.507   8.889   3.072 -0.1210  0.0377  0.4250
  712MOL0     C93917   5.012   9.404   2.691 -0.8645 -0.5163 -0.4330
  712MOL0     C93918   4.890   9.471   2.717 -0.4747 -0.4843  0.3917
  712MOL0     H93919   4.497   9.547   2.968 -2.0537 -0.2647  0.2395
  712MOL0     H93920   4.262   9.621   2.969  1.2585 -0.4548  0.6932
  712MOL0     H93921   4.192   9.945   2.910  0.9561 -0.5269 -0.0207
  712MOL0     H93922   4.122   9.809   3.000 -1.6803  0.5526  0.7058
  712MOL0     H93923   3.904   9.870   2.914  1.2835 -2.3384 -0.0194
  712MOL0     H93924   3.975   9.988   2.805  0.5593 -4.2423 -2.2227
  712MOL0     H93925   4.038  10.134   3.003 -1.2772  1.0492 -0.5560
  712MOL0     H93926   4.004   9.995   3.114  1.3777  0.2165  0.0555
  712MOL0     H93927   3.826  10.167   2.929  1.7360  1.7623  0.6068
  712MOL0     H93928   3.770  10.021   3.022  0.4400 -0.5711  0.8901
  712MOL0     H93929   3.890  10.272   3.141  0.1683 -0.0218  1.5552
  712MOL0     H93930   3.826  10.144   3.235  1.5748 -2.5165 -1.1623
  712MOL0     H93931   3.591  10.235   3.125 -1.2081  2.1587  1.3092
  712MOL0     H93932   3.686  10.353   3.045  0.8797  0.4450 -0.0579
  712MOL0     H93933   3.657  10.311   3.340 -0.3646  0.6952  0.1520
  712MOL0     H93934   3.777  10.427   3.284 -0.0841  1.4175 -0.1898
  712MOL0     H93935   3.589  10.549   3.338  0.8800 -1.2256 -0.5040
  712MOL0     H93936   3.470  10.435   3.264  1.0433 -0.2078  0.0482
  712MOL0     H93937   3.779  10.612   3.085  0.2219  1.7026 -0.1308
  712MOL0     H93938   3.810  10.823   2.960 -0.7781  1.2607 -0.9702
  712MOL0     H93939   3.685  10.938   2.956  1.4301  0.1229  1.4357
  712MOL0     H93940   3.660  10.728   2.719  1.6434 -1.1156 -1.2282
  712MOL0     H93941   3.812  10.797   2.727 -0.5864  0.6290  0.8882
  712MOL0     H93942   3.718  11.016   2.708  3.6506 -3.4806  6.4632
  712MOL0     H93943   3.641  10.902   2.585 -3.8724  0.1354  0.4295
  712MOL0     H93944   3.501  10.982   2.836 -0.0075  1.7390  0.1872
  712MOL0     H93945   3.454  10.868   2.706  0.5112 -0.4228  0.6515
  712MOL0     H93946   3.366  11.151   2.431  0.3807  1.2098  1.1814
  712MOL0     H93947   3.119  11.132   2.372 -1.7573 -1.8166 -0.8119
  712MOL0     H93948   2.715  10.964   2.371 -2.2917 -2.4634 -2.4891
  712MOL0     H93949   2.469  10.961   2.342  0.4917 -0.4209  0.2816
  712MOL0     H93950   2.238  11.061   2.747  1.5486 -1.5508  1.2828
  712MOL0     H93951   2.231  10.892   2.721  2.2222  2.2358  0.5976
  712MOL0     H93952   2.015  10.907   2.590 -0.9937 -0.8579  0.2228
  712MOL0     H93953   2.034  11.076   2.552 -1.6018 -1.3912 -0.6729
  712MOL0     H93954   1.999  11.150   2.775 -1.1786 -1.1552  0.8625
  712MOL0     H93955   1.993  10.993   2.832 -2.4432  2.7316  3.4305
  712MOL0     H93956   1.797  11.062   2.607 -0.4786 -2.0299 -0.0036
  712MOL0     H93957   1.791  10.937   2.721  2.0429 -1.4159  2.1707
  712MOL0     H93958   1.774  11.240   2.787 -0.7581 -1.0013 -0.3448
  712MOL0     H93959   1.755  11.130   2.913 -0.8031 -2.8131  0.3131
  712MOL0     H93960   1.551  11.024   2.789 -1.3741  0.6142  0.2172
  712MOL0     H93961   1.571  11.128   2.661  1.5099 -3.1360  0.1029
  712MOL0     H93962   1.549  11.250   2.951  3.0811 -0.2901 -1.5074
  712MOL0     H93963   1.508  11.315   2.794 -0.1176 -0.3342 -2.1565
  712MOL0     H93964   1.368  11.074   2.933 -1.9249  0.0460 -0.3571
  712MOL0     H93965   1.323  11.134   2.773 -1.6728 -0.4700 -0.1266
  712MOL0     H93966   2.406  10.942   2.773 -2.6232  3.6220 -0.1417
  712MOL0     H93967   2.649  10.968   2.800 -1.4419  3.6304  1.3082
  712MOL0     H93968   3.038  10.981   2.765  0.9904  1.5194  2.4409
  712MOL0     H93969   3.268  11.028   2.826 -4.0209  0.0920  1.1928
  712MOL0     H93970   4.311   9.845   2.609  0.7309 -0.6553 -0.2084
  712MOL0     H93971   4.550   9.766   2.602  1.2711 -1.8145  1.3471
  712MOL0     H93972   4.986   9.669   2.965  4.2693 -1.9031  3.9195
  712MOL0     H93973   5.178   9.550   2.945  0.7711  1.4135 -1.8343
  712MOL0     H93974   5.334   9.366   2.578 -1.0025  0.6438  0.1802
  712MOL0     H93975   5.219   9.232   2.616 -1.1235 -2.8176  2.9240
  712MOL0     H93976   5.444   9.149   2.604  3.1622  2.1969 -0.7977
  712MOL0     H93977   5.514   9.256   2.720 -0.7540  1.2792 -0.2288
  712MOL0     H93978   5.316   9.038   2.772  0.0862 -0.2368  1.5145
  712MOL0     H93979   5.369   9.162   2.900  0.0949  2.0117 -0.8323
  712MOL0     H93980   5.542   8.936   2.779 -2.5086 -3.1207  4.5563
  712MOL0     H93981   5.613   9.080   2.850  1.2281 -1.2076  1.8336
  712MOL0     H93982   5.517   8.830   3.162 -1.4993  1.3066  1.4502
  712MOL0     H93983   5.014   9.331   2.611 -1.5695 -1.6494  0.5511
  712MOL0     H93984   4.809   9.457   2.646  0.7641 -1.2538 -0.9353
  713MOL0     O93985   1.823   6.593   6.973 -0.4008  0.0093  0.1040
  713MOL0     C93986   1.876   6.483   6.955  0.2855  0.0900  0.2623
  713MOL0     O93987   1.818   6.365   6.958 -0.1288  0.4208 -0.3132
  713MOL0     C93988   1.690   6.353   6.996  0.8676 -0.3313  1.0820
  713MOL0     C93989   1.594   6.331   6.891  0.5362  0.0101  0.5299
  713MOL0     C93990   1.465   6.310   6.925  0.0927 -0.2483 -0.4894
  713MOL0     C93991   1.416   6.313   7.063 -0.1235  0.0511 -0.4033
  713MOL0     O93992   1.291   6.271   7.096 -0.0976  0.3632  0.8721
  713MOL0     C93993   1.198   6.199   7.010 -0.1959 -0.6699  0.1802
  713MOL0     C93994   1.066   6.153   7.080  0.1755 -0.5253 -0.0968
  713MOL0     C93995   0.970   6.083   6.992 -1.1331  0.0015  0.2716
  713MOL0     C93996   0.890   6.196   6.920 -0.1008  0.0311 -0.4810
  713MOL0     C93997   0.800   6.143   6.817  0.0197  0.8526  0.6822
  713MOL0     C93998   0.707   6.247   6.772  0.5730 -0.5724  0.4496
  713MOL0     C93999   0.650   6.186   6.641 -0.3145 -0.4908  0.1563
  713MOL0     C94000   0.558   6.293   6.578 -0.2563 -0.8002 -0.5508
  713MOL0     N94001   0.503   6.262   6.457  0.2293  0.1656  0.3598
  713MOL0     C94002   0.379   6.208   6.448  0.0390 -0.2986  0.5211
  713MOL0     C94003   0.351   6.207   6.313  0.5563 -0.5935  0.2915
  713MOL0     C94004   0.232   6.129   6.270  0.5534 -0.4105 -0.0719
  713MOL0     C94005   0.111   6.216   6.237 -0.9983  1.0498 -0.6706
  713MOL0     C94006  -0.008   6.120   6.203 -0.5355  0.1625  0.6646
  713MOL0     C94007  -0.115   6.219   6.140 -0.1564 -0.5503 -0.1644
  713MOL0     O94008  -0.233   6.145   6.096  0.8945 -0.7247 -1.2221
  713MOL0     C94009  -0.314   6.198   6.002 -0.4964 -1.0369  0.3047
  713MOL0     C94010  -0.268   6.263   5.884  0.1285 -0.7729  0.6957
  713MOL0     C94011  -0.367   6.306   5.793  0.2124  0.6477  0.9362
  713MOL0     C94012  -0.503   6.280   5.807  0.2807 -0.1774  0.1461
  713MOL0     C94013  -0.589   6.333   5.700  1.2654  0.1864 -0.0658
  713MOL0     O94014  -0.718   6.291   5.707 -0.1957  0.2626  0.0594
  713MOL0     C94015  -0.798   6.324   5.603 -0.0835  0.4046 -0.4565
  713MOL0     C94016  -0.820   6.241   5.491  0.1748  0.3709 -0.1069
  713MOL0     C94017  -0.917   6.274   5.396 -0.4981  0.1633 -0.2342
  713MOL0     C94018  -0.977   6.402   5.404  0.2236  0.0107  0.3203
  713MOL0     O94019  -1.073   6.440   5.324  0.0633  0.0994  0.1100
  713MOL0     C94020  -1.147   6.343   5.241  0.4083  0.1726  0.3415
  713MOL0     C94021  -1.275   6.394   5.175 -0.1770  0.2375 -0.7467
  713MOL0     C94022  -1.380   6.433   5.282 -0.5755  0.5041 -0.1276
  713MOL0     C94023  -1.504   6.484   5.208  0.2462  0.2184 -0.1653
  713MOL0     C94024  -1.620   6.523   5.283  0.0827  0.8577  0.7433
  713MOL0     C94025  -1.717   6.630   5.223 -0.3324  0.3575 -0.3100
  713MOL0     C94026  -1.772   6.581   5.081 -0.5254  0.4986  1.0179
  713MOL0     C94027  -1.860   6.694   5.026  0.4752 -0.4322  0.4607
  713MOL0    Cl94028  -1.745   6.830   4.988 -0.3062 -0.3747 -0.2742
  713MOL0     C94029  -0.950   6.495   5.507  0.6282  1.0840 -0.5354
  713MOL0     C94030  -0.859   6.453   5.614  0.1120 -0.2798  0.2597
  713MOL0     O94031  -0.540   6.402   5.610  0.5591 -0.3014  0.4238
  713MOL0     C94032  -0.547   6.216   5.924  0.5410  0.1426 -0.3547
  713MOL0     C94033  -0.451   6.169   6.011 -0.8472  0.5469  0.5003
  713MOL0     N94034   0.461   6.258   6.240  0.7437 -0.1311 -0.4001
  713MOL0     N94035   0.552   6.293   6.337  0.5962  0.4102  0.6444
  713MOL0     C94036   1.507   6.348   7.160 -0.5222 -0.1780 -0.4842
  713MOL0     C94037   1.642   6.361   7.123  0.0603 -0.4808  0.1172
  713MOL0     C94038   2.025   6.471   6.948  0.0410 -1.0579 -0.1732
  713MOL0     C94039   2.093   6.346   6.923  1.1894 -0.1532  0.0475
  713MOL0     C94040   2.234   6.348   6.923 -0.2373 -0.4003  0.1196
  713MOL0     C94041   2.305   6.458   6.971  0.9863  0.1737 -0.0303
  713MOL0     O94042   2.441   6.452   6.978 -0.1935 -0.3179  0.1756
  713MOL0     C94043   2.497   6.509   7.102  0.0430  0.8056  0.7735
  713MOL0     C94044   2.638   6.460   7.119 -0.1806 -0.4251  0.1379
  713MOL0     C94045   2.647   6.302   7.115 -0.2921 -0.6201 -0.2873
  713MOL0     C94046   2.785   6.236   7.128  0.0727  1.0214  0.6275
  713MOL0     C94047   2.833   6.281   7.257  0.1989 -0.7361 -0.2755
  713MOL0     C94048   2.884   6.307   7.363  0.1532  0.2141 -0.0641
  713MOL0     C94049   2.234   6.579   7.004 -0.4479 -0.2346 -0.2512
  713MOL0     C94050   2.099   6.591   6.991  0.3392  0.8109  0.3922
  713MOL0     H94051   1.629   6.332   6.788 -1.9954  2.7982 -0.4448
  713MOL0     H94052   1.392   6.286   6.848  0.5368 -3.9023  0.0506
  713MOL0     H94053   1.246   6.110   6.968 -1.5791 -0.9174 -0.9648
  713MOL0     H94054   1.183   6.272   6.930 -1.4451  1.7334  2.4243
  713MOL0     H94055   1.022   6.232   7.141 -0.3481 -0.6538 -0.3025
  713MOL0     H94056   1.097   6.088   7.163  0.9902 -0.3430 -0.2453
  713MOL0     H94057   0.901   6.012   7.038 -2.5690  0.6894 -0.7697
  713MOL0     H94058   1.024   6.026   6.915 -1.9525  0.9441 -1.0456
  713MOL0     H94059   0.833   6.253   6.994  1.0601  0.2938  0.2449
  713MOL0     H94060   0.958   6.265   6.869  0.4960  0.5759  1.0014
  713MOL0     H94061   0.740   6.057   6.849  0.5173  0.7792  1.4313
  713MOL0     H94062   0.864   6.108   6.735 -0.2962  1.1671  0.2919
  713MOL0     H94063   0.761   6.339   6.747 -2.2795  1.0085 -0.4103
  713MOL0     H94064   0.625   6.265   6.842 -0.8692 -3.5924 -0.2847
  713MOL0     H94065   0.733   6.163   6.573 -1.9929 -0.3063 -2.0574
  713MOL0     H94066   0.593   6.095   6.664  1.1253 -1.5509 -0.3669
  713MOL0     H94067   0.620   6.382   6.566  1.4654 -1.7155  1.0080
  713MOL0     H94068   0.474   6.303   6.647  0.1390 -1.8232  0.0962
  713MOL0     H94069   0.314   6.181   6.531  0.1814 -0.5565  0.5478
  713MOL0     H94070   0.202   6.066   6.354 -3.0225 -0.2254 -1.0481
  713MOL0     H94071   0.257   6.054   6.195 -1.3316 -4.4091  2.9551
  713MOL0     H94072   0.145   6.265   6.146  2.2163  3.2332  1.5119
  713MOL0     H94073   0.106   6.287   6.320 -0.5439 -0.9462  1.1582
  713MOL0     H94074   0.014   6.054   6.119  1.2478  1.1829  0.2728
  713MOL0     H94075  -0.054   6.062   6.284 -4.0534 -1.1572 -2.0058
  713MOL0     H94076  -0.066   6.260   6.051 -1.4936  0.2489 -0.5619
  713MOL0     H94077  -0.131   6.297   6.215  2.9969  2.0885 -1.9630
  713MOL0     H94078  -0.164   6.288   5.863  0.4261 -1.8764  0.7755
  713MOL0     H94079  -0.333   6.372   5.714 -1.1055  4.0863  2.9998
  713MOL0     H94080  -0.770   6.145   5.483 -3.0497 -1.4720  0.2465
  713MOL0     H94081  -0.940   6.202   5.318 -3.4125  0.7321 -0.0010
  713MOL0     H94082  -1.163   6.258   5.308 -0.1399 -1.3847 -1.6419
  713MOL0     H94083  -1.079   6.310   5.162 -1.9293  0.2116 -1.8084
  713MOL0     H94084  -1.316   6.313   5.114 -1.6579 -0.8501  1.5657
  713MOL0     H94085  -1.237   6.482   5.122  2.6301  0.4744  1.3900
  713MOL0     H94086  -1.332   6.507   5.347  0.6644  1.6193 -2.2079
  713MOL0     H94087  -1.408   6.344   5.339  0.9048 -2.2744 -3.3642
  713MOL0     H94088  -1.473   6.572   5.150 -1.8520  2.0493  1.3184
  713MOL0     H94089  -1.544   6.403   5.147 -2.1326  0.0287  1.4989
  713MOL0     H94090  -1.593   6.557   5.383 -4.6977  0.9415  2.2416
  713MOL0     H94091  -1.682   6.437   5.309  0.7507 -0.2343 -1.0584
  713MOL0     H94092  -1.666   6.726   5.216 -2.3027  1.3584 -2.8329
  713MOL0     H94093  -1.801   6.652   5.290 -0.8850 -0.0018 -0.8724
  713MOL0     H94094  -1.691   6.569   5.008 -0.2054  0.9416  1.2988
  713MOL0     H94095  -1.818   6.482   5.088 -1.1549  0.4715 -1.9790
  713MOL0     H94096  -1.931   6.715   5.107 -0.8204 -1.6931 -0.3050
  713MOL0     H94097  -1.910   6.660   4.935  0.0480 -0.2140  0.6132
  713MOL0     H94098  -0.977   6.600   5.506  1.4913  1.3133 -0.7901
  713MOL0     H94099  -0.822   6.524   5.687  3.1088  0.8993 -2.1920
  713MOL0     H94100  -0.652   6.194   5.937  0.3773  2.0451  2.5207
  713MOL0     H94101  -0.482   6.110   6.096  0.7130 -1.5256 -0.2962
  713MOL0     H94102   1.485   6.348   7.267 -0.2666 -0.1238 -0.4302
  713MOL0     H94103   1.715   6.373   7.202 -1.2081 -2.6100  1.6964
  713MOL0     H94104   2.048   6.253   6.891  0.1020  0.7721 -1.2521
  713MOL0     H94105   2.289   6.255   6.911 -1.4889 -1.2972  1.1647
  713MOL0     H94106   2.440   6.478   7.189 -0.6384  2.5613  1.0029
  713MOL0     H94107   2.496   6.619   7.099 -1.1319  0.8087  0.9164
  713MOL0     H94108   2.694   6.505   7.036  0.4013 -0.8440  0.3007
  713MOL0     H94109   2.684   6.494   7.212  1.8652 -2.9797  0.1681
  713MOL0     H94110   2.608   6.280   7.016  0.0854  1.5671 -0.9857
  713MOL0     H94111   2.587   6.254   7.193  0.1678  0.3953  0.7334
  713MOL0     H94112   2.774   6.128   7.130  0.9424  0.9321  1.3069
  713MOL0     H94113   2.849   6.239   7.038  0.5013 -1.5684  0.7641
  713MOL0     H94114   2.922   6.320   7.463 -2.0080 -1.6906  1.1100
  713MOL0     H94115   2.296   6.665   7.026 -0.2795 -0.4097 -0.0401
  713MOL0     H94116   2.052   6.686   7.013 -1.8495 -0.3659  1.1692
  714MOL0     O94117   1.030   2.841   1.247  0.4345  0.5351 -0.0346
  714MOL0     C94118   1.121   2.770   1.284 -0.0671 -0.1042  0.6014
  714MOL0     O94119   1.118   2.662   1.353 -0.7740  0.0881 -0.5238
  714MOL0     C94120   0.991   2.621   1.402 -0.1378 -0.3154 -0.2608
  714MOL0     C94121   0.904   2.562   1.314  0.1619 -0.7764 -0.4366
  714MOL0     C94122   0.775   2.525   1.359 -0.2025 -0.1451 -0.0754
  714MOL0     C94123   0.739   2.534   1.494 -0.2896  0.7403  1.2205
  714MOL0     O94124   0.610   2.497   1.541  0.0370 -0.1998  0.1032
  714MOL0     C94125   0.522   2.427   1.456  0.0745  0.3131 -0.5092
  714MOL0     C94126   0.434   2.359   1.548  0.2548  0.2039 -0.2114
  714MOL0     C94127   0.315   2.468   1.582  0.0113 -0.5319  0.0173
  714MOL0     C94128   0.228   2.395   1.677  0.6036  0.3377 -0.3146
  714MOL0     C94129   0.138   2.486   1.773  0.4963 -0.2982 -0.3882
  714MOL0     C94130  -0.010   2.494   1.735 -1.1289  0.1889  0.1716
  714MOL0     C94131  -0.095   2.561   1.842  0.3627  1.1366  0.4309
  714MOL0     C94132  -0.104   2.481   1.973 -0.3571 -0.0408 -0.6596
  714MOL0     N94133  -0.204   2.524   2.069 -0.7471  0.6094  0.1715
  714MOL0     C94134  -0.180   2.578   2.193 -0.4241 -0.5468 -0.0295
  714MOL0     C94135  -0.300   2.598   2.256  0.4353  0.7563  0.4272
  714MOL0     C94136  -0.326   2.671   2.382 -0.8633  1.2277 -1.2627
  714MOL0     C94137  -0.321   2.825   2.362  1.0876  0.5447  0.1115
  714MOL0     C94138  -0.414   2.873   2.255  0.8614  0.1512 -0.5168
  714MOL0     C94139  -0.560   2.845   2.279 -0.0142  0.6589  0.9323
  714MOL0     O94140  -0.610   2.888   2.415  0.1703 -0.1815  0.4232
  714MOL0     C94141  -0.735   2.860   2.458  0.3213 -0.4689  0.2549
  714MOL0     C94142  -0.772   2.909   2.578  0.1311  0.3136  0.3558
  714MOL0     C94143  -0.896   2.871   2.634 -0.0042  0.0971  0.1173
  714MOL0     C94144  -0.994   2.800   2.557  0.6886  0.6997 -0.7444
  714MOL0     C94145  -1.134   2.780   2.607  0.6161  0.5544  1.0295
  714MOL0     O94146  -1.234   2.718   2.526 -0.6118  0.2617 -0.3329
  714MOL0     C94147  -1.368   2.723   2.562 -1.1752 -0.2929 -0.8267
  714MOL0     C94148  -1.423   2.751   2.685 -0.1593 -1.1746 -0.1923
  714MOL0     C94149  -1.562   2.755   2.702  0.2407 -0.5075 -0.9094
  714MOL0     C94150  -1.651   2.720   2.592 -0.5876  0.6984 -0.7637
  714MOL0     O94151  -1.786   2.700   2.600 -0.5720 -0.5107  0.1157
  714MOL0     C94152  -1.814   2.621   2.712  0.4889 -0.2015  0.4077
  714MOL0     C94153  -1.935   2.531   2.677  0.8824 -0.2880  0.1637
  714MOL0     C94154  -2.060   2.621   2.641  0.1232  0.2660  0.2228
  714MOL0     C94155  -2.176   2.527   2.616 -0.4142  1.2412 -1.2145
  714MOL0     C94156  -2.306   2.599   2.573  0.0791 -0.1239 -0.7328
  714MOL0     C94157  -2.339   2.710   2.670 -1.0110 -1.3695 -0.1106
  714MOL0     C94158  -2.494   2.729   2.677 -0.5074  0.4002 -0.2782
  714MOL0     C94159  -2.530   2.844   2.769 -0.4061  0.7328 -0.3156
  714MOL0    Cl94160  -2.694   2.840   2.844 -0.1986 -0.5271  0.2973
  714MOL0     C94161  -1.594   2.710   2.467  0.3222  0.9029 -0.8417
  714MOL0     C94162  -1.456   2.718   2.453  0.0113  0.1274 -0.6325
  714MOL0     O94163  -1.145   2.837   2.715  0.5989  0.3393  0.1278
  714MOL0     C94164  -0.964   2.751   2.431  0.4219 -1.1826  0.6952
  714MOL0     C94165  -0.833   2.794   2.386 -0.1485  0.0553 -0.8560
  714MOL0     N94166  -0.393   2.544   2.162  0.6054  0.0424 -0.2511
  714MOL0     N94167  -0.337   2.500   2.058  0.1501  0.3555 -0.2614
  714MOL0     C94168   0.841   2.588   1.582 -0.0592 -0.6827  0.5850
  714MOL0     C94169   0.963   2.650   1.538  0.1828  0.3477  0.9208
  714MOL0     C94170   1.247   2.830   1.236  0.6391  1.2802  0.6317
  714MOL0     C94171   1.261   2.966   1.210  0.1924  0.2790  0.8574
  714MOL0     C94172   1.379   3.025   1.176  0.5812 -0.8855 -0.0932
  714MOL0     C94173   1.491   2.951   1.160 -0.1938 -0.4670  0.0164
  714MOL0     O94174   1.605   3.015   1.123  0.0775  0.3471  0.0601
  714MOL0     C94175   1.702   2.952   1.037 -0.1574 -0.1556  1.1589
  714MOL0     C94176   1.654   2.919   0.896  0.5867  0.3756  0.0382
  714MOL0     C94177   1.543   3.016   0.842  0.4748 -0.8416 -1.0747
  714MOL0     C94178   1.530   2.981   0.695 -0.4340  0.1487 -0.0044
  714MOL0     C94179   1.438   3.074   0.631 -0.2443 -0.0607  0.9940
  714MOL0     C94180   1.343   3.145   0.604 -0.5022  0.6968  0.5647
  714MOL0     C94181   1.488   2.813   1.193 -0.1059 -0.0860 -0.1532
  714MOL0     C94182   1.362   2.753   1.225  0.2317 -0.4034 -0.0453
  714MOL0     H94183   0.924   2.562   1.207  0.0934  1.5918 -0.4933
  714MOL0     H94184   0.704   2.496   1.282 -0.5214  0.7362 -0.1230
  714MOL0     H94185   0.574   2.351   1.396  0.4704  0.2570 -0.1084
  714MOL0     H94186   0.483   2.500   1.385  1.2037 -0.0083 -1.4874
  714MOL0     H94187   0.485   2.327   1.639 -0.0933 -0.4603 -0.2446
  714MOL0     H94188   0.391   2.272   1.498  3.3913 -2.5325  1.4959
  714MOL0     H94189   0.252   2.504   1.500 -2.3813 -0.0577  1.9231
  714MOL0     H94190   0.353   2.557   1.633 -0.6823  1.1024 -2.1490
  714MOL0     H94191   0.174   2.328   1.610  2.2264 -1.7529  0.3525
  714MOL0     H94192   0.279   2.328   1.747 -1.0717  0.5232  1.1518
  714MOL0     H94193   0.177   2.587   1.788  0.9449 -0.5793  0.3655
  714MOL0     H94194   0.146   2.436   1.870 -1.4808 -2.6744 -1.3357
  714MOL0     H94195  -0.043   2.393   1.712 -2.4834  0.5379  0.4434
  714MOL0     H94196  -0.012   2.545   1.638  1.8427 -1.1165 -0.6730
  714MOL0     H94197  -0.061   2.664   1.854  0.4295  1.1335  0.2746
  714MOL0     H94198  -0.195   2.561   1.799  0.8733 -0.2433 -0.8376
  714MOL0     H94199  -0.003   2.488   2.015  0.9454  2.5519 -3.8016
  714MOL0     H94200  -0.104   2.374   1.950 -0.0015 -0.3158  0.5119
  714MOL0     H94201  -0.090   2.629   2.225 -1.6563  2.4834 -1.0407
  714MOL0     H94202  -0.236   2.648   2.441 -3.3701  2.1366  3.4239
  714MOL0     H94203  -0.411   2.629   2.435 -0.4747  1.9634  0.0046
  714MOL0     H94204  -0.219   2.852   2.335  0.0624  2.6065 -2.0958
  714MOL0     H94205  -0.345   2.878   2.455  0.1972 -2.8374  1.9947
  714MOL0     H94206  -0.412   2.981   2.243 -0.9074  0.3361  0.5413
  714MOL0     H94207  -0.381   2.841   2.155  2.3932  0.9094 -0.2739
  714MOL0     H94208  -0.574   2.739   2.256  3.5806 -0.4832  3.2463
  714MOL0     H94209  -0.613   2.904   2.203 -2.5899 -1.6646  0.7486
  714MOL0     H94210  -0.703   2.955   2.649  0.4486 -3.1891  2.5315
  714MOL0     H94211  -0.911   2.891   2.739 -2.0387  2.1632 -0.4827
  714MOL0     H94212  -1.370   2.766   2.779 -0.0344 -0.9538 -0.2954
  714MOL0     H94213  -1.594   2.775   2.803  2.4332  0.0405 -0.2878
  714MOL0     H94214  -1.838   2.682   2.800  0.3019  2.0192 -1.0857
  714MOL0     H94215  -1.737   2.547   2.736 -0.8837 -1.8802 -0.2160
  714MOL0     H94216  -1.951   2.463   2.761  0.4005 -0.7668 -0.3083
  714MOL0     H94217  -1.900   2.477   2.589  1.3365  0.2498  0.0077
  714MOL0     H94218  -2.032   2.677   2.551  1.2738  0.6563  0.7984
  714MOL0     H94219  -2.086   2.690   2.722  0.8199 -0.3665  1.0161
  714MOL0     H94220  -2.154   2.469   2.526  1.7908  2.0727 -1.2977
  714MOL0     H94221  -2.189   2.467   2.707  0.5942  1.8253 -0.6611
  714MOL0     H94222  -2.382   2.521   2.584  2.0449 -1.9049  1.5132
  714MOL0     H94223  -2.303   2.637   2.470 -0.8645  0.7145 -0.4644
  714MOL0     H94224  -2.308   2.807   2.631 -1.4626 -2.1161 -2.4685
  714MOL0     H94225  -2.303   2.699   2.772 -1.9849 -2.2225  0.1668
  714MOL0     H94226  -2.520   2.764   2.576  1.0840 -2.0384 -1.6203
  714MOL0     H94227  -2.537   2.630   2.696  0.6071  0.0976  0.8310
  714MOL0     H94228  -2.520   2.937   2.712 -0.1119  1.1932  0.4799
  714MOL0     H94229  -2.455   2.843   2.848  1.8056  0.5270 -2.2993
  714MOL0     H94230  -1.656   2.688   2.381  2.9974  0.6364 -2.8185
  714MOL0     H94231  -1.426   2.713   2.348  4.2857  1.6840  0.2897
  714MOL0     H94232  -1.025   2.700   2.357 -0.6235  0.1751  0.5991
  714MOL0     H94233  -0.807   2.758   2.287 -2.8348 -3.5308 -0.4616
  714MOL0     H94234   0.806   2.589   1.685  0.0282  0.7148  0.6230
  714MOL0     H94235   1.040   2.693   1.600  0.2113 -0.5135  1.4916
  714MOL0     H94236   1.173   3.030   1.214 -0.5447 -0.5598 -0.9979
  714MOL0     H94237   1.385   3.132   1.159  0.0457 -0.8843 -0.2858
  714MOL0     H94238   1.729   2.863   1.094 -0.7007 -0.6374  0.6720
  714MOL0     H94239   1.790   3.014   1.017  0.5408 -1.0451  1.3931
  714MOL0     H94240   1.752   2.922   0.847  0.3789 -0.0206 -0.4010
  714MOL0     H94241   1.628   2.813   0.891  4.9465 -0.9668  1.0507
  714MOL0     H94242   1.585   3.114   0.861 -3.2116  1.7278 -4.4688
  714MOL0     H94243   1.451   3.008   0.901  1.5993 -2.0703  0.5955
  714MOL0     H94244   1.625   2.985   0.640  0.6010 -0.3807  1.6686
  714MOL0     H94245   1.490   2.879   0.689  2.3881 -1.2869  2.5455
  714MOL0     H94246   1.266   3.217   0.589  1.3816  2.5635 -0.5221
  714MOL0     H94247   1.573   2.744   1.190  1.5989  1.9171 -0.7479
  714MOL0     H94248   1.367   2.649   1.257  1.2246 -0.8232 -1.4506
  715MOL0     O94249   2.135   5.694   2.995 -0.7003 -0.0027  0.1899
  715MOL0     C94250   2.152   5.779   3.086 -0.0374  0.5846 -0.2731
  715MOL0     O94251   2.065   5.784   3.193  0.4259 -0.9239 -0.0733
  715MOL0     C94252   1.949   5.715   3.165  0.1228 -0.7245  0.0618
  715MOL0     C94253   1.917   5.595   3.215 -1.0236 -0.2777  0.2925
  715MOL0     C94254   1.792   5.537   3.188  0.3382  0.1758  0.8899
  715MOL0     C94255   1.703   5.599   3.099  0.6227  0.2644  0.3982
  715MOL0     O94256   1.589   5.530   3.072 -0.3462  0.6395  0.4390
  715MOL0     C94257   1.461   5.589   3.042  0.0908  0.4676  0.3854
  715MOL0     C94258   1.353   5.501   3.108  0.5035  0.1068  0.3450
  715MOL0     C94259   1.217   5.547   3.071  0.2118  0.1575 -0.0343
  715MOL0     C94260   1.110   5.450   3.129 -0.5428 -0.1875  0.5090
  715MOL0     C94261   0.974   5.512   3.094 -0.0958  0.3066 -0.1565
  715MOL0     C94262   0.860   5.446   3.175 -0.0554  0.2546 -1.1289
  715MOL0     C94263   0.730   5.499   3.126 -0.4125  0.0370  0.0413
  715MOL0     C94264   0.605   5.446   3.207 -0.3315  0.4579  0.0909
  715MOL0     N94265   0.476   5.491   3.154  0.4932 -0.0457 -0.6175
  715MOL0     C94266   0.416   5.615   3.176  0.2561  0.7025  0.1874
  715MOL0     C94267   0.288   5.601   3.134  0.0549 -0.3410 -0.4125
  715MOL0     C94268   0.192   5.717   3.112  0.3299 -0.4337  0.3063
  715MOL0     C94269   0.258   5.827   3.025  0.1521  0.5320  0.2938
  715MOL0     C94270   0.265   5.764   2.879 -0.3474  0.1396  0.5253
  715MOL0     C94271   0.315   5.860   2.772 -0.0665  0.7185 -0.2131
  715MOL0     O94272   0.310   5.793   2.646  0.4293  0.9652 -0.2350
  715MOL0     C94273   0.189   5.795   2.573  0.4712 -0.6803 -0.1414
  715MOL0     C94274   0.069   5.872   2.593  0.0581 -0.1301  0.1507
  715MOL0     C94275  -0.046   5.862   2.506 -0.1008 -0.2138 -0.1843
  715MOL0     C94276  -0.037   5.773   2.394  0.4915 -1.9324 -0.0406
  715MOL0     C94277  -0.157   5.741   2.310  0.7396  0.5664 -0.3938
  715MOL0     O94278  -0.135   5.691   2.187 -0.0300 -0.0823  0.1422
  715MOL0     C94279  -0.221   5.702   2.083  0.3903  0.9217  0.3289
  715MOL0     C94280  -0.358   5.756   2.085 -0.7759 -0.3070  0.5783
  715MOL0     C94281  -0.427   5.760   1.967  0.5397 -0.4461  0.1282
  715MOL0     C94282  -0.375   5.692   1.855 -1.0795  0.7242 -0.3388
  715MOL0     O94283  -0.453   5.666   1.744  0.0811 -0.2286  0.0969
  715MOL0     C94284  -0.568   5.582   1.770 -0.3275  0.2989 -0.5109
  715MOL0     C94285  -0.606   5.532   1.632 -0.0710 -0.2927  0.2037
  715MOL0     C94286  -0.748   5.473   1.637 -0.5423 -0.4839  0.1988
  715MOL0     C94287  -0.783   5.397   1.513 -0.0426  0.1860 -0.4950
  715MOL0     C94288  -0.916   5.328   1.533  0.0853 -0.0483  0.4687
  715MOL0     C94289  -0.955   5.278   1.395 -0.6210  0.1771 -0.4303
  715MOL0     C94290  -1.086   5.201   1.394 -0.4423  0.4476  0.4022
  715MOL0     C94291  -1.122   5.158   1.245 -0.0334  0.3908 -0.2696
  715MOL0    Cl94292  -1.040   5.001   1.202  0.7314 -0.2211  0.2184
  715MOL0     C94293  -0.243   5.654   1.850  0.0215  0.0348 -0.1653
  715MOL0     C94294  -0.161   5.661   1.967  0.2981 -1.1111  1.2538
  715MOL0     O94295  -0.260   5.777   2.354 -0.4906  0.1572  0.2713
  715MOL0     C94296   0.088   5.707   2.370 -0.1037  0.0034  0.0117
  715MOL0     C94297   0.197   5.724   2.450 -0.4609  0.6900 -0.3092
  715MOL0     N94298   0.270   5.463   3.109 -0.7790  0.6348  0.2676
  715MOL0     N94299   0.382   5.403   3.112 -0.1767 -0.2297  0.2636
  715MOL0     C94300   1.732   5.733   3.061  0.7022 -0.7877 -0.9806
  715MOL0     C94301   1.852   5.786   3.094  0.6589 -1.2397  0.0749
  715MOL0     C94302   2.257   5.887   3.078  0.5836  1.3514 -0.8614
  715MOL0     C94303   2.342   5.906   2.977  0.3973 -0.1546  1.2636
  715MOL0     C94304   2.431   6.013   2.965  0.0561 -1.4086  0.4712
  715MOL0     C94305   2.439   6.101   3.068 -0.9757 -0.5122  0.3702
  715MOL0     O94306   2.536   6.200   3.070  0.1948  0.3371  0.3212
  715MOL0     C94307   2.565   6.278   2.954 -0.1623  0.4334  0.5974
  715MOL0     C94308   2.596   6.426   2.990 -0.9486  0.1716 -0.3401
  715MOL0     C94309   2.481   6.481   3.079 -0.5943 -0.7390  0.4974
  715MOL0     C94310   2.488   6.636   3.086 -0.5549 -1.3986  0.8956
  715MOL0     C94311   2.393   6.679   3.187 -0.0883 -0.0383  0.1958
  715MOL0     C94312   2.301   6.707   3.265 -0.5784  0.2199  0.3164
  715MOL0     C94313   2.357   6.084   3.178  0.3743  0.4100 -0.0794
  715MOL0     C94314   2.273   5.975   3.186 -0.2985  0.4831  0.1830
  715MOL0     H94315   1.994   5.532   3.259  0.6387  0.9117 -0.7703
  715MOL0     H94316   1.762   5.443   3.233  1.0441 -1.6400 -2.1639
  715MOL0     H94317   1.438   5.589   2.935  1.6191  0.9373  0.0280
  715MOL0     H94318   1.461   5.691   3.082 -0.2916  1.1128 -1.1695
  715MOL0     H94319   1.371   5.497   3.215 -0.9783 -0.2034  0.6044
  715MOL0     H94320   1.369   5.398   3.075 -0.4087 -0.3512  1.3044
  715MOL0     H94321   1.211   5.550   2.961  0.9199  0.7988 -0.0654
  715MOL0     H94322   1.191   5.651   3.095 -4.3975 -0.5481 -0.9602
  715MOL0     H94323   1.119   5.349   3.088  2.1469  1.0607 -2.4407
  715MOL0     H94324   1.114   5.456   3.238  0.5940 -0.5665  0.4997
  715MOL0     H94325   0.954   5.518   2.987 -0.3431 -0.9026 -0.1874
  715MOL0     H94326   0.979   5.616   3.128  3.4693  1.3596 -3.1598
  715MOL0     H94327   0.869   5.453   3.283  1.2331 -1.2488 -1.0963
  715MOL0     H94328   0.857   5.338   3.155  0.1839 -0.1069  0.6510
  715MOL0     H94329   0.719   5.607   3.125  0.0379  0.0904  0.4070
  715MOL0     H94330   0.715   5.467   3.022 -1.7381  0.7157  0.0014
  715MOL0     H94331   0.614   5.481   3.310  0.4814  0.1182  0.1466
  715MOL0     H94332   0.620   5.339   3.195 -0.2729  0.6157 -1.3618
  715MOL0     H94333   0.468   5.700   3.221 -0.0394  0.5877  0.7524
  715MOL0     H94334   0.174   5.763   3.209  1.2529  0.7540 -0.0635
  715MOL0     H94335   0.097   5.676   3.074 -0.4644  0.0305  1.6997
  715MOL0     H94336   0.358   5.853   3.059 -0.1519  0.8017  1.0132
  715MOL0     H94337   0.202   5.920   3.040 -0.6732  0.1580 -0.3932
  715MOL0     H94338   0.320   5.670   2.878 -0.7498 -0.1479 -2.1175
  715MOL0     H94339   0.165   5.729   2.851 -0.0826 -2.7293  2.6882
  715MOL0     H94340   0.418   5.884   2.798  0.0974  1.0756 -1.1539
  715MOL0     H94341   0.256   5.952   2.783  1.9468  2.0758 -0.2864
  715MOL0     H94342   0.063   5.930   2.685 -1.7591  0.7568 -0.4616
  715MOL0     H94343  -0.133   5.924   2.525 -2.6464 -3.3586 -0.7137
  715MOL0     H94344  -0.402   5.791   2.177 -0.8049 -0.7154  0.7237
  715MOL0     H94345  -0.529   5.799   1.967  0.0212 -1.6812  2.0334
  715MOL0     H94346  -0.658   5.622   1.818 -0.8053  0.0060 -1.1476
  715MOL0     H94347  -0.535   5.499   1.833 -0.1504 -0.6555 -1.8077
  715MOL0     H94348  -0.535   5.454   1.602 -1.2126 -1.7543  1.1367
  715MOL0     H94349  -0.598   5.611   1.557  3.4120  0.3674  1.0969
  715MOL0     H94350  -0.819   5.556   1.633  1.3935  1.2734  0.4685
  715MOL0     H94351  -0.759   5.416   1.730  2.7258  2.5365  2.7614
  715MOL0     H94352  -0.801   5.470   1.433 -1.1482 -1.4642 -1.8096
  715MOL0     H94353  -0.708   5.320   1.492 -0.3218 -0.7498  1.6584
  715MOL0     H94354  -0.987   5.401   1.573 -0.8870  0.3326 -1.7999
  715MOL0     H94355  -0.899   5.246   1.604 -0.3340  0.8949  1.7008
  715MOL0     H94356  -0.879   5.211   1.354  1.5316  1.2822  1.5222
  715MOL0     H94357  -0.950   5.369   1.333  4.3667  0.0927 -0.5402
  715MOL0     H94358  -1.079   5.106   1.447  0.8753  0.3315  0.0442
  715MOL0     H94359  -1.159   5.271   1.436  0.9656  3.4121 -1.6995
  715MOL0     H94360  -1.085   5.237   1.178  2.3951  0.1549  0.6815
  715MOL0     H94361  -1.231   5.159   1.246 -0.0354  0.3234 -0.4236
  715MOL0     H94362  -0.198   5.610   1.761  0.0027  0.2052 -0.2601
  715MOL0     H94363  -0.063   5.615   1.954  0.2926 -0.3794 -2.4225
  715MOL0     H94364   0.092   5.639   2.286 -1.6637 -0.6931  0.4607
  715MOL0     H94365   0.296   5.684   2.429  0.4206  2.4486  0.2412
  715MOL0     H94366   1.656   5.791   3.010 -0.2257 -2.5461 -1.6873
  715MOL0     H94367   1.885   5.881   3.054 -0.8483 -1.7048 -2.5659
  715MOL0     H94368   2.344   5.833   2.898 -1.5721 -2.3172  3.0771
  715MOL0     H94369   2.502   6.020   2.883 -0.7164  2.5497 -0.0622
  715MOL0     H94370   2.486   6.282   2.879  1.8751 -1.5579 -1.8475
  715MOL0     H94371   2.663   6.237   2.925  0.3558  2.2819 -0.4297
  715MOL0     H94372   2.692   6.436   3.042 -1.3425 -0.2080  0.4788
  715MOL0     H94373   2.595   6.480   2.895  1.1530 -0.4406 -0.7520
  715MOL0     H94374   2.479   6.425   3.173  0.9469 -3.1135 -0.7907
  715MOL0     H94375   2.384   6.457   3.034 -0.5698 -1.4365  0.8040
  715MOL0     H94376   2.592   6.666   3.102  0.2333 -1.5134 -3.0006
  715MOL0     H94377   2.465   6.672   2.985  0.4584 -1.1859  0.7284
  715MOL0     H94378   2.217   6.720   3.331 -0.6109 -2.4346  0.8773
  715MOL0     H94379   2.360   6.158   3.258 -1.6925  3.6057 -2.6661
  715MOL0     H94380   2.198   5.984   3.264 -0.9212  0.2412 -0.3810
  716MOL0     O94381   9.554   9.117   8.126 -0.6519 -0.3165  0.0835
  716MOL0     C94382   9.525   9.173   8.234  0.8917  0.3597  0.5260
  716MOL0     O94383   9.410   9.148   8.301  0.0133 -0.1680  0.0627
  716MOL0     C94384   9.311   9.085   8.235  0.2606  0.1308  0.4067
  716MOL0     C94385   9.263   8.970   8.294  1.0513 -0.5012  0.6903
  716MOL0     C94386   9.133   8.924   8.248 -0.0357 -0.1976 -0.1365
  716MOL0     C94387   9.064   8.993   8.151 -0.2203  0.0132  0.3507
  716MOL0     O94388   8.947   8.937   8.108  0.1893 -0.6336 -0.2816
  716MOL0     C94389   8.822   8.997   8.139  0.2902 -0.5344 -0.4022
  716MOL0     C94390   8.719   8.899   8.204  0.2661 -0.1060 -0.4043
  716MOL0     C94391   8.635   8.839   8.085 -0.1081  0.9483  0.7259
  716MOL0     C94392   8.530   8.743   8.136  0.6004  0.0266 -1.0961
  716MOL0     C94393   8.456   8.660   8.029  0.3922 -1.1926 -0.2023
  716MOL0     C94394   8.543   8.581   7.938 -0.3136 -0.2798  0.0188
  716MOL0     C94395   8.460   8.487   7.864 -0.9405  0.2918 -0.0910
  716MOL0     C94396   8.346   8.409   7.943 -0.8870 -0.2252 -0.7342
  716MOL0     N94397   8.335   8.272   7.892 -0.0218  0.3328  0.3339
  716MOL0     C94398   8.251   8.228   7.790  0.5947 -0.1357 -0.1316
  716MOL0     C94399   8.248   8.095   7.809 -0.1671 -0.5918 -0.4237
  716MOL0     C94400   8.164   7.995   7.735 -0.2473 -0.3652  0.5605
  716MOL0     C94401   8.015   8.014   7.761  0.4954 -0.4491 -0.5027
  716MOL0     C94402   7.942   7.928   7.667 -0.7053 -0.6855  0.4380
  716MOL0     C94403   7.795   7.974   7.652  0.1186 -0.6102 -0.2285
  716MOL0     O94404   7.795   8.111   7.614  0.1264  0.1428  0.2478
  716MOL0     C94405   7.679   8.186   7.619  0.9771  0.3472  0.3307
  716MOL0     C94406   7.550   8.125   7.620 -0.3031 -0.5435  0.3547
  716MOL0     C94407   7.439   8.203   7.630 -0.5805  0.9481 -0.3787
  716MOL0     C94408   7.450   8.341   7.618  0.5636  0.1481 -0.2122
  716MOL0     C94409   7.331   8.421   7.607 -1.1916  0.3846  0.2048
  716MOL0     O94410   7.212   8.365   7.644 -0.4061 -0.4602  0.1051
  716MOL0     C94411   7.094   8.441   7.624 -0.4389 -0.5730  0.1175
  716MOL0     C94412   6.985   8.375   7.570  0.1183 -0.9793  0.0237
  716MOL0     C94413   6.860   8.442   7.568  0.0166 -0.0526  0.9776
  716MOL0     C94414   6.837   8.576   7.617 -0.0455  0.8143 -0.5282
  716MOL0     O94415   6.720   8.651   7.612  0.4915 -0.2166 -0.3535
  716MOL0     C94416   6.626   8.642   7.500 -0.3094 -0.5732  0.5725
  716MOL0     C94417   6.479   8.643   7.549 -0.5554  0.2411  0.4178
  716MOL0     C94418   6.419   8.779   7.584  0.3621 -0.5522  0.5147
  716MOL0     C94419   6.321   8.773   7.700 -1.0121 -0.5374  0.2378
  716MOL0     C94420   6.181   8.728   7.658  0.4331  0.0256 -0.2086
  716MOL0     C94421   6.086   8.720   7.778 -0.7142  0.1673  0.9700
  716MOL0     C94422   6.065   8.849   7.861 -0.3595  0.1858  0.8169
  716MOL0     C94423   5.929   8.853   7.935 -0.1737 -0.1169  0.9200
  716MOL0    Cl94424   5.795   8.885   7.817 -0.4310  0.3028  0.5713
  716MOL0     C94425   6.951   8.637   7.678  0.3467  0.1285  0.0186
  716MOL0     C94426   7.079   8.568   7.690  0.5828  0.5115 -0.4853
  716MOL0     O94427   7.344   8.529   7.555 -0.1516 -0.3392  0.1766
  716MOL0     C94428   7.574   8.403   7.601  0.5545 -0.3223  0.1168
  716MOL0     C94429   7.691   8.332   7.617 -0.0030 -0.5828 -0.2367
  716MOL0     N94430   8.346   8.060   7.902 -0.0005  0.1231 -0.7929
  716MOL0     N94431   8.400   8.165   7.940 -0.4546  0.6797 -0.5120
  716MOL0     C94432   9.118   9.107   8.088  0.2304  0.8159  0.2880
  716MOL0     C94433   9.247   9.151   8.126 -0.0708  0.2274  0.1569
  716MOL0     C94434   9.630   9.244   8.309 -0.5398 -0.3071 -0.0630
  716MOL0     C94435   9.595   9.342   8.412  0.0020 -0.0755  0.2710
  716MOL0     C94436   9.690   9.425   8.479  0.1699  0.4020 -1.1516
  716MOL0     C94437   9.823   9.400   8.445  0.0351  0.3237  0.1554
  716MOL0     O94438   9.924   9.454   8.509 -0.7811 -0.7467 -0.4286
  716MOL0     C94439   9.897   9.558   8.616  0.5923  0.0322  0.0800
  716MOL0     C94440  10.028   9.587   8.690 -0.4156  0.6385  0.4736
  716MOL0     C94441  10.019   9.693   8.800 -0.5853 -0.8687  0.5190
  716MOL0     C94442   9.915   9.652   8.897  0.4161  0.5196 -0.6928
  716MOL0     C94443   9.922   9.720   9.022 -0.0398 -0.4577 -0.0572
  716MOL0     C94444   9.946   9.775   9.129  0.5067  0.2523  0.2072
  716MOL0     C94445   9.865   9.321   8.338 -0.1831  0.4903 -0.4350
  716MOL0     C94446   9.768   9.243   8.275  0.2743  0.4884  0.0584
  716MOL0     H94447   9.315   8.928   8.380  2.5023  1.4776  0.8367
  716MOL0     H94448   9.105   8.832   8.297  0.9089 -0.3493  0.1448
  716MOL0     H94449   8.774   9.041   8.051 -4.6033  1.0506  2.6108
  716MOL0     H94450   8.842   9.075   8.214  3.3162 -1.2732 -0.3208
  716MOL0     H94451   8.660   8.957   8.276  2.3215  0.7440  0.6664
  716MOL0     H94452   8.782   8.827   8.257  2.1838 -0.7376 -3.2820
  716MOL0     H94453   8.706   8.787   8.019 -1.6000 -2.4485  1.5627
  716MOL0     H94454   8.584   8.925   8.041 -3.8685 -1.2215  0.4352
  716MOL0     H94455   8.562   8.670   8.211 -1.1027  1.1034  0.7893
  716MOL0     H94456   8.445   8.797   8.179  0.6865 -1.0080  0.4480
  716MOL0     H94457   8.388   8.728   7.977  2.0778  2.0180  1.4546
  716MOL0     H94458   8.395   8.592   8.089 -0.8445 -0.0431 -0.1195
  716MOL0     H94459   8.612   8.525   8.001  0.4215 -0.4341 -0.9118
  716MOL0     H94460   8.595   8.640   7.862 -2.6701  2.5400  0.4186
  716MOL0     H94461   8.402   8.536   7.785 -3.6821 -0.6305  1.2316
  716MOL0     H94462   8.534   8.421   7.818  2.0200  3.3069 -0.0559
  716MOL0     H94463   8.247   8.453   7.932 -0.6260  0.5014 -0.2607
  716MOL0     H94464   8.357   8.408   8.052 -1.6818  0.5245 -0.6399
  716MOL0     H94465   8.187   8.283   7.722  0.5287  0.8864  0.7213
  716MOL0     H94466   8.196   7.894   7.763 -3.0896 -1.0464  1.6677
  716MOL0     H94467   8.192   8.004   7.630 -0.8889 -1.2670  0.2957
  716MOL0     H94468   7.996   8.117   7.727 -3.6297 -1.5401 -2.1607
  716MOL0     H94469   7.986   8.007   7.866  2.0851  2.9087  0.2804
  716MOL0     H94470   7.986   7.929   7.566  1.1118  2.0935  1.1411
  716MOL0     H94471   7.949   7.823   7.698 -0.2168 -0.1962  2.0614
  716MOL0     H94472   7.748   7.959   7.749 -1.7588  1.4939 -0.7396
  716MOL0     H94473   7.745   7.909   7.580  1.6062 -5.0145  2.3280
  716MOL0     H94474   7.541   8.018   7.601 -2.2525 -0.7923  2.1882
  716MOL0     H94475   7.344   8.151   7.619 -0.6837  1.0945 -0.1637
  716MOL0     H94476   6.982   8.271   7.539 -0.0523 -1.3217  1.1408
  716MOL0     H94477   6.779   8.390   7.517  0.9131 -0.2236 -0.3058
  716MOL0     H94478   6.643   8.552   7.441 -1.3219 -1.0001  0.9235
  716MOL0     H94479   6.650   8.722   7.428 -0.2149 -2.6672 -1.8893
  716MOL0     H94480   6.466   8.586   7.641  1.9596 -2.8718 -0.9537
  716MOL0     H94481   6.428   8.586   7.470  0.0303  0.1404  0.1093
  716MOL0     H94482   6.387   8.834   7.495  0.0285 -1.0524  0.3228
  716MOL0     H94483   6.504   8.841   7.613  0.9508 -1.8609  1.6791
  716MOL0     H94484   6.364   8.714   7.781  0.9572  2.6039  1.6939
  716MOL0     H94485   6.322   8.874   7.742  2.9059  0.9074 -2.7886
  716MOL0     H94486   6.190   8.626   7.620 -3.4035 -0.9040  1.0049
  716MOL0     H94487   6.142   8.797   7.583  3.0643  1.4936 -0.3695
  716MOL0     H94488   6.127   8.644   7.844  2.9720  2.1845  1.2902
  716MOL0     H94489   5.989   8.685   7.741  0.0829 -1.5923  0.4548
  716MOL0     H94490   6.149   8.872   7.926 -1.0144 -1.4662  2.3310
  716MOL0     H94491   6.057   8.932   7.790  0.9531  0.9685  1.5610
  716MOL0     H94492   5.930   8.941   8.000 -0.3939  2.8681 -2.7917
  716MOL0     H94493   5.925   8.764   7.999 -1.9092 -1.3474 -0.7980
  716MOL0     H94494   6.938   8.740   7.710 -1.6566  1.2200 -3.7490
  716MOL0     H94495   7.163   8.624   7.729  2.1579 -2.4558  0.6911
  716MOL0     H94496   7.576   8.511   7.587 -0.7353 -0.2503  0.3898
  716MOL0     H94497   7.784   8.387   7.623 -0.7359  0.5562  1.8755
  716MOL0     H94498   9.063   9.159   8.010  1.6597  1.4327 -0.3403
  716MOL0     H94499   9.295   9.234   8.075  2.0170 -0.3487  1.0658
  716MOL0     H94500   9.489   9.357   8.430 -0.1486 -1.0310  0.2647
  716MOL0     H94501   9.659   9.494   8.556  3.1420  1.4598 -0.7839
  716MOL0     H94502   9.816   9.532   8.684 -0.7060 -1.8690 -2.0433
  716MOL0     H94503   9.862   9.650   8.567  1.5083  0.6387  0.5353
  716MOL0     H94504  10.070   9.493   8.728 -0.9540 -0.1429 -0.8174
  716MOL0     H94505  10.106   9.628   8.626 -2.7551  2.9716 -1.0610
  716MOL0     H94506   9.990   9.792   8.764 -0.5735 -0.6386  1.1252
  716MOL0     H94507  10.117   9.701   8.848  0.2410  2.2950 -1.3669
  716MOL0     H94508   9.817   9.659   8.848  1.4855  2.0329 -2.8131
  716MOL0     H94509   9.932   9.546   8.917 -1.7986  0.2244 -0.0911
  716MOL0     H94510   9.972   9.825   9.220 -0.4249  2.3485 -0.5963
  716MOL0     H94511   9.965   9.326   8.295 -1.6797 -0.3631 -4.4244
  716MOL0     H94512   9.807   9.181   8.194 -2.7687  1.3297 -2.2043
  717MOL0     O94513   2.497   6.999   5.180  0.2398  0.5668 -0.4415
  717MOL0     C94514   2.586   7.066   5.234 -0.6630  0.5696 -0.4472
  717MOL0     O94515   2.577   7.107   5.361 -0.0908  0.1763 -0.0338
  717MOL0     C94516   2.461   7.088   5.430  0.3960 -0.0699  0.2145
  717MOL0     C94517   2.339   7.160   5.392 -0.9850  0.1208  1.1690
  717MOL0     C94518   2.228   7.153   5.473  0.2346  0.3239 -0.6774
  717MOL0     C94519   2.230   7.058   5.587 -0.6596  0.0849 -0.1229
  717MOL0     O94520   2.126   7.029   5.667 -0.1395  0.4077 -0.1393
  717MOL0     C94521   1.991   7.073   5.636 -0.3301 -0.4014  0.4161
  717MOL0     C94522   1.880   6.985   5.703 -0.3959  0.5269  0.2884
  717MOL0     C94523   1.758   6.960   5.608  0.0367  0.6614 -0.3785
  717MOL0     C94524   1.669   6.846   5.648 -0.3367  0.6657  0.0369
  717MOL0     C94525   1.590   6.793   5.530  0.3110 -0.4656  0.2931
  717MOL0     C94526   1.490   6.688   5.589 -0.2184 -0.1892 -1.0469
  717MOL0     C94527   1.423   6.612   5.479 -0.4530  0.0776  0.4582
  717MOL0     C94528   1.358   6.482   5.523  0.5499 -0.9476  0.8891
  717MOL0     N94529   1.252   6.441   5.424 -0.8031 -0.7686 -1.0305
  717MOL0     C94530   1.132   6.390   5.457 -0.8319  0.1660  0.1387
  717MOL0     C94531   1.068   6.355   5.334 -0.6392  0.3208 -0.0919
  717MOL0     C94532   0.932   6.292   5.302  0.2786 -0.1572 -0.6509
  717MOL0     C94533   0.892   6.177   5.392  0.1000 -0.1504 -0.2091
  717MOL0     C94534   0.762   6.206   5.459  0.2986 -0.2225  0.5467
  717MOL0     C94535   0.652   6.186   5.372  0.1521  0.4796  0.6428
  717MOL0     O94536   0.538   6.223   5.453 -0.0329  0.3108 -0.2646
  717MOL0     C94537   0.415   6.181   5.402  0.9340  0.0190  0.4071
  717MOL0     C94538   0.383   6.133   5.275  0.3813  0.1307 -0.6081
  717MOL0     C94539   0.247   6.103   5.250 -0.0815 -0.9181 -0.6389
  717MOL0     C94540   0.147   6.116   5.345  0.1003 -0.9522 -0.1655
  717MOL0     C94541   0.004   6.081   5.312 -0.4695 -0.6111  0.5998
  717MOL0     O94542  -0.090   6.131   5.390 -0.8413 -0.3442  0.5093
  717MOL0     C94543  -0.216   6.088   5.379 -1.1094 -0.3475 -0.1365
  717MOL0     C94544  -0.315   6.184   5.382  0.5779 -0.0430  0.2092
  717MOL0     C94545  -0.448   6.140   5.378 -0.2670 -1.0364 -0.0518
  717MOL0     C94546  -0.483   6.003   5.360 -0.7694 -0.7372 -1.1216
  717MOL0     O94547  -0.616   5.977   5.359  0.6058 -0.3114 -0.1584
  717MOL0     C94548  -0.655   5.854   5.313 -1.2047 -0.1810 -0.7234
  717MOL0     C94549  -0.794   5.854   5.250 -0.1526 -0.8906 -0.1734
  717MOL0     C94550  -0.909   5.869   5.348  0.7244  1.2205 -0.5866
  717MOL0     C94551  -1.033   5.892   5.267  0.3618 -0.6476 -0.5920
  717MOL0     C94552  -1.150   5.929   5.355  0.0926 -0.5247 -0.1824
  717MOL0     C94553  -1.279   5.970   5.266 -0.1127 -0.2398 -0.3110
  717MOL0     C94554  -1.407   6.014   5.346  0.0208  0.0522 -0.4805
  717MOL0     C94555  -1.526   6.029   5.260 -0.0632  0.6693 -0.0108
  717MOL0    Cl94556  -1.613   5.877   5.204 -0.1386  0.1689  0.0827
  717MOL0     C94557  -0.380   5.909   5.361 -0.8826  0.6300 -1.0228
  717MOL0     C94558  -0.249   5.947   5.375  0.3191 -0.1471  0.7205
  717MOL0     O94559  -0.012   6.018   5.209  0.3467  0.1921  0.7044
  717MOL0     C94560   0.185   6.173   5.467  0.3997 -0.1867 -1.0451
  717MOL0     C94561   0.317   6.208   5.494 -0.2787 -0.7120 -0.7133
  717MOL0     N94562   1.155   6.390   5.230 -0.1864 -0.3545 -0.1184
  717MOL0     N94563   1.263   6.447   5.286 -0.8363  0.7305  0.0585
  717MOL0     C94564   2.344   6.985   5.609  0.3508  0.2806 -0.2041
  717MOL0     C94565   2.456   7.017   5.541 -0.6801  0.1041 -0.2900
  717MOL0     C94566   2.705   7.103   5.152 -0.3962  0.1505 -0.0166
  717MOL0     C94567   2.824   7.147   5.211 -0.1218  0.1691  0.1617
  717MOL0     C94568   2.930   7.191   5.138 -0.0354  1.8940  0.1924
  717MOL0     C94569   2.913   7.205   5.003 -0.8697  1.2976  0.2813
  717MOL0     O94570   3.018   7.262   4.926 -0.2666 -0.4629 -0.4146
  717MOL0     C94571   3.047   7.397   4.970  0.6113 -0.0791  1.1684
  717MOL0     C94572   2.944   7.508   4.917 -0.2287 -0.1102  0.7858
  717MOL0     C94573   2.991   7.647   4.953 -0.4457 -0.4422  0.4034
  717MOL0     C94574   2.914   7.765   4.880  0.4142 -0.6054  0.8778
  717MOL0     C94575   2.769   7.754   4.901  0.2124 -0.1304  0.2187
  717MOL0     C94576   2.649   7.768   4.914 -0.5363  0.5364  1.4993
  717MOL0     C94577   2.796   7.159   4.936  0.1329 -0.4242 -0.4064
  717MOL0     C94578   2.692   7.101   5.008  0.4069 -0.8662 -1.0840
  717MOL0     H94579   2.336   7.224   5.304  0.8131 -0.6858  0.4757
  717MOL0     H94580   2.143   7.219   5.458  0.7536  1.2485  0.3397
  717MOL0     H94581   1.975   7.067   5.527  2.0208  0.6292 -0.0345
  717MOL0     H94582   1.963   7.178   5.650 -2.6305  0.0187 -4.8706
  717MOL0     H94583   1.846   7.024   5.799 -0.1361 -0.6468  0.8807
  717MOL0     H94584   1.919   6.888   5.735  0.5634 -0.1211 -2.5160
  717MOL0     H94585   1.804   6.930   5.513 -0.2066  1.8958 -0.9080
  717MOL0     H94586   1.708   7.056   5.593  0.6416  1.1318  0.5174
  717MOL0     H94587   1.728   6.763   5.687  0.3449  1.0860 -0.0832
  717MOL0     H94588   1.599   6.880   5.725  0.0203  1.3559  0.0646
  717MOL0     H94589   1.652   6.753   5.449 -1.3490  1.4115 -2.0269
  717MOL0     H94590   1.530   6.876   5.491 -0.1308 -2.0093 -2.6535
  717MOL0     H94591   1.416   6.743   5.649  1.1673 -1.6790  2.2787
  717MOL0     H94592   1.534   6.619   5.661 -0.6995  0.4576 -0.0987
  717MOL0     H94593   1.366   6.678   5.413  0.7994 -0.6240 -1.4215
  717MOL0     H94594   1.506   6.580   5.414  0.2986  0.4408  1.2150
  717MOL0     H94595   1.314   6.489   5.623  0.8017 -1.4017  1.0358
  717MOL0     H94596   1.434   6.404   5.529  1.4242 -0.3344 -1.4268
  717MOL0     H94597   1.090   6.388   5.557  2.4740  2.7895  1.7935
  717MOL0     H94598   0.943   6.254   5.200 -0.8212 -2.4362  0.0009
  717MOL0     H94599   0.854   6.368   5.296  0.3427 -0.1641 -1.8688
  717MOL0     H94600   0.973   6.159   5.465 -0.6893  1.2512  1.0738
  717MOL0     H94601   0.889   6.082   5.338 -1.0642  0.5107 -1.3356
  717MOL0     H94602   0.756   6.136   5.543  1.8651 -2.4394 -1.0722
  717MOL0     H94603   0.768   6.306   5.502 -2.0608  0.2263 -0.0117
  717MOL0     H94604   0.655   6.086   5.328  1.7475  1.5758 -1.9887
  717MOL0     H94605   0.656   6.242   5.278  2.9694 -1.3685 -0.5016
  717MOL0     H94606   0.463   6.118   5.203  1.4597  0.3122  0.5099
  717MOL0     H94607   0.217   6.064   5.153  2.2919 -1.4068 -1.2460
  717MOL0     H94608  -0.301   6.290   5.401 -1.0884  0.3623 -0.6374
  717MOL0     H94609  -0.527   6.213   5.393  0.8362 -0.4137  3.5970
  717MOL0     H94610  -0.631   5.779   5.389  2.2472  1.1166 -0.3312
  717MOL0     H94611  -0.607   5.832   5.217 -1.5761  0.4902 -1.0726
  717MOL0     H94612  -0.819   5.762   5.195  1.7432 -0.3851 -2.0191
  717MOL0     H94613  -0.785   5.932   5.174  2.3194  1.4401  2.2961
  717MOL0     H94614  -0.880   5.953   5.412  0.0765 -0.1619  1.6147
  717MOL0     H94615  -0.921   5.779   5.410  3.5240  0.1779 -1.4151
  717MOL0     H94616  -0.997   5.971   5.201  5.6428 -1.4213  0.8726
  717MOL0     H94617  -1.054   5.803   5.207  0.8123 -1.9503  1.0965
  717MOL0     H94618  -1.111   6.022   5.397  2.5396 -0.7554 -1.7259
  717MOL0     H94619  -1.170   5.855   5.434 -0.8897  1.0404  1.0931
  717MOL0     H94620  -1.301   5.893   5.192 -1.6641  2.5609 -3.0157
  717MOL0     H94621  -1.247   6.062   5.216 -2.6837  1.0569  0.2287
  717MOL0     H94622  -1.415   5.949   5.433  4.0179 -0.9737 -0.6992
  717MOL0     H94623  -1.391   6.118   5.378  6.3614  0.3291 -3.1407
  717MOL0     H94624  -1.500   6.087   5.171 -1.0339  1.2641  0.0845
  717MOL0     H94625  -1.594   6.095   5.316  0.4023  1.0190  0.1513
  717MOL0     H94626  -0.403   5.803   5.368  4.0143 -0.5742  1.2463
  717MOL0     H94627  -0.163   5.882   5.374  0.9559  0.6455  1.9398
  717MOL0     H94628   0.116   6.188   5.549  1.1241  0.0010 -0.4627
  717MOL0     H94629   0.346   6.250   5.590 -1.5156  1.7504 -1.3440
  717MOL0     H94630   2.337   6.915   5.692 -2.5982  1.6741  0.8434
  717MOL0     H94631   2.551   6.986   5.585 -0.4224 -0.9906 -1.5705
  717MOL0     H94632   2.829   7.141   5.319  1.1062 -0.2221  0.0892
  717MOL0     H94633   3.025   7.212   5.185  0.9126  1.4217 -1.4424
  717MOL0     H94634   3.148   7.421   4.936  1.8939 -1.3445  3.7993
  717MOL0     H94635   3.070   7.399   5.077  0.1672 -2.2199  1.3460
  717MOL0     H94636   2.948   7.506   4.808 -0.3376  2.6144  0.6556
  717MOL0     H94637   2.839   7.487   4.940 -0.5621 -1.1412 -1.4325
  717MOL0     H94638   3.096   7.666   4.932 -1.0712 -0.1486 -3.0718
  717MOL0     H94639   2.966   7.654   5.059  0.2208 -3.0487  0.7930
  717MOL0     H94640   2.952   7.860   4.918  1.0010 -0.9657  1.2083
  717MOL0     H94641   2.942   7.765   4.774  1.9525  1.5782  1.2057
  717MOL0     H94642   2.543   7.780   4.926 -0.3616  1.9202  1.7754
  717MOL0     H94643   2.792   7.162   4.828 -1.0729  1.7296 -0.3459
  717MOL0     H94644   2.597   7.080   4.959  0.6744 -0.0511 -1.9915
  718MOL0     O94645   4.455   9.107   3.447  0.3904 -0.2994 -0.4563
  718MOL0     C94646   4.396   9.003   3.461  0.6288 -0.0057  0.1304
  718MOL0     O94647   4.439   8.881   3.428 -0.0112  0.3489 -0.7050
  718MOL0     C94648   4.573   8.864   3.399 -0.7532 -0.8698 -0.5417
  718MOL0     C94649   4.643   8.776   3.485  0.8958 -0.2955  0.7404
  718MOL0     C94650   4.772   8.741   3.449 -0.2107  0.2671 -0.2485
  718MOL0     C94651   4.837   8.793   3.329 -0.0350  0.1737  0.3270
  718MOL0     O94652   4.973   8.776   3.297 -0.5792  0.4414 -0.3095
  718MOL0     C94653   5.027   8.785   3.161  0.0096 -0.3899 -1.1560
  718MOL0     C94654   5.158   8.709   3.156 -0.1752 -0.1669 -0.5188
  718MOL0     C94655   5.242   8.724   3.027  0.6096  0.9725  0.1509
  718MOL0     C94656   5.168   8.665   2.906 -0.0407  1.6418  0.1968
  718MOL0     C94657   5.241   8.614   2.785 -0.5545  0.7677  0.0478
  718MOL0     C94658   5.290   8.720   2.684 -0.5614 -0.2065 -0.0539
  718MOL0     C94659   5.177   8.762   2.589 -0.6087  0.5853 -0.1412
  718MOL0     C94660   5.233   8.840   2.472 -0.4433  0.9609 -0.5123
  718MOL0     N94661   5.133   8.926   2.409 -0.8554  0.2526  0.2738
  718MOL0     C94662   5.081   8.896   2.288  0.6922  0.9721 -0.6939
  718MOL0     C94663   4.966   8.965   2.273  0.3213 -0.5128 -0.3325
  718MOL0     C94664   4.856   8.944   2.170 -0.8763 -0.2183  0.3674
  718MOL0     C94665   4.723   8.912   2.236 -0.6568  0.0511  0.1385
  718MOL0     C94666   4.625   8.890   2.104 -0.6127  0.1634  0.0953
  718MOL0     C94667   4.481   8.881   2.162 -0.1095  0.0574 -0.8220
  718MOL0     O94668   4.466   8.824   2.291 -0.1495 -0.1191  0.5816
  718MOL0     C94669   4.350   8.840   2.360  0.0274  0.1705 -0.9054
  718MOL0     C94670   4.221   8.879   2.309  0.3628  0.4612  0.3073
  718MOL0     C94671   4.112   8.891   2.391  0.5987 -0.6128  1.1215
  718MOL0     C94672   4.129   8.862   2.530  0.4302 -0.4137  0.0700
  718MOL0     C94673   4.011   8.880   2.614  0.2692  0.3785  0.1564
  718MOL0     O94674   4.020   8.842   2.750 -0.2453  0.8170 -0.7508
  718MOL0     C94675   3.924   8.875   2.839  0.7863  1.1743 -0.5359
  718MOL0     C94676   3.795   8.828   2.819  0.3826  0.6011 -0.6316
  718MOL0     C94677   3.698   8.847   2.913 -0.2388 -0.1784  0.0086
  718MOL0     C94678   3.720   8.915   3.028 -0.3500  0.6887 -0.5939
  718MOL0     O94679   3.602   8.924   3.110  0.4079 -0.8408 -0.3012
  718MOL0     C94680   3.635   8.962   3.247 -0.4613 -0.2103 -0.1202
  718MOL0     C94681   3.517   8.987   3.338 -0.6482 -0.2334 -0.6459
  718MOL0     C94682   3.403   9.061   3.265  0.6886  0.4885  0.3496
  718MOL0     C94683   3.286   9.086   3.355  0.0651  0.8026 -0.1580
  718MOL0     C94684   3.168   9.151   3.281  0.8233  0.2494  0.1346
  718MOL0     C94685   3.045   9.177   3.365  0.1712  0.5447 -0.6290
  718MOL0     C94686   2.931   9.226   3.284 -0.7122  0.7525  0.7536
  718MOL0     C94687   2.798   9.234   3.355  0.0059  0.4568  0.3933
  718MOL0    Cl94688   2.702   9.086   3.351 -0.0987  0.3861  0.3007
  718MOL0     C94689   3.846   8.973   3.050  0.6798 -0.2328  0.4547
  718MOL0     C94690   3.951   8.954   2.953 -0.1264  1.8508 -0.6807
  718MOL0     O94691   3.912   8.933   2.569  0.1380  0.0417  0.5298
  718MOL0     C94692   4.250   8.819   2.578  0.1221  0.6414  0.3489
  718MOL0     C94693   4.361   8.812   2.494 -0.1502  0.1542  0.3959
  718MOL0     N94694   4.953   9.048   2.382  0.0437  0.2283 -0.5177
  718MOL0     N94695   5.049   9.015   2.469  0.2282 -0.6954 -0.8947
  718MOL0     C94696   4.761   8.884   3.260  0.6552  0.4868  0.4584
  718MOL0     C94697   4.630   8.911   3.283  0.0306  0.2672 -0.5101
  718MOL0     C94698   4.251   9.000   3.497 -0.3840  0.3622  0.3097
  718MOL0     C94699   4.175   8.880   3.492  0.1376  0.1492  0.5352
  718MOL0     C94700   4.050   8.868   3.545  0.4299  0.5532 -0.4714
  718MOL0     C94701   3.987   8.970   3.611  0.3986  0.6060 -0.6255
  718MOL0     O94702   3.871   8.944   3.676 -0.3315  0.4310 -0.1915
  718MOL0     C94703   3.862   9.017   3.798  0.5279 -0.4264  0.3831
  718MOL0     C94704   3.737   8.968   3.876 -0.8278  0.1791  0.2305
  718MOL0     C94705   3.620   8.970   3.776 -0.8643 -0.1059 -0.8550
  718MOL0     C94706   3.487   8.925   3.846 -0.2335  0.1498  0.0157
  718MOL0     C94707   3.390   8.891   3.735 -0.1435 -0.5733 -0.3159
  718MOL0     C94708   3.328   8.870   3.637  0.1108 -1.1403 -0.1439
  718MOL0     C94709   4.054   9.096   3.600  1.3133  0.1399 -0.3380
  718MOL0     C94710   4.187   9.118   3.551  0.1939  0.5087 -0.2526
  718MOL0     H94711   4.588   8.726   3.564 -0.9191  0.2316 -0.1360
  718MOL0     H94712   4.828   8.658   3.490  0.1093 -0.7073 -2.4698
  718MOL0     H94713   5.044   8.891   3.141  0.1150  0.0655  1.0443
  718MOL0     H94714   4.955   8.760   3.082  0.5736  0.3714 -1.9339
  718MOL0     H94715   5.143   8.605   3.188  0.7145 -0.5659 -1.3413
  718MOL0     H94716   5.224   8.759   3.227 -1.6105  0.0251  0.7202
  718MOL0     H94717   5.335   8.668   3.039  0.8954  1.1767 -0.9855
  718MOL0     H94718   5.263   8.830   3.011  0.2858  0.8973 -0.8888
  718MOL0     H94719   5.122   8.573   2.942  0.6975  1.1300 -0.1483
  718MOL0     H94720   5.096   8.733   2.862 -0.3812  1.1414 -0.0206
  718MOL0     H94721   5.190   8.535   2.730  1.8710  1.7264 -4.0327
  718MOL0     H94722   5.330   8.565   2.824 -1.1433 -0.9020 -0.6227
  718MOL0     H94723   5.371   8.686   2.619 -0.8067  4.0489 -2.9989
  718MOL0     H94724   5.333   8.807   2.733 -1.4380  0.9190 -1.2174
  718MOL0     H94725   5.145   8.669   2.541 -1.3258  1.1593 -0.8146
  718MOL0     H94726   5.090   8.811   2.633 -2.5170 -0.8646 -2.0523
  718MOL0     H94727   5.263   8.762   2.401 -2.4462  0.3917 -0.7876
  718MOL0     H94728   5.318   8.897   2.512 -1.0857  0.4816  1.6626
  718MOL0     H94729   5.125   8.829   2.215 -0.6249  1.7663 -2.2964
  718MOL0     H94730   4.893   8.870   2.099 -1.0495  0.0704 -0.0342
  718MOL0     H94731   4.841   9.038   2.115 -0.8783  0.1852  1.0461
  718MOL0     H94732   4.692   8.996   2.298 -0.7650 -0.2846  0.5447
  718MOL0     H94733   4.736   8.820   2.293 -0.5529  1.0747  1.8151
  718MOL0     H94734   4.636   8.969   2.028 -1.5702 -0.0061 -0.2266
  718MOL0     H94735   4.653   8.795   2.058 -0.7974 -0.6435  1.5886
  718MOL0     H94736   4.428   8.823   2.086 -1.7708  2.8040 -1.9444
  718MOL0     H94737   4.447   8.985   2.164  1.7511  0.8091  3.9126
  718MOL0     H94738   4.214   8.904   2.204  1.9104  1.3529  0.3856
  718MOL0     H94739   4.013   8.914   2.352  1.7633  1.3896 -0.9274
  718MOL0     H94740   3.780   8.759   2.736 -1.0728 -0.7602  0.7062
  718MOL0     H94741   3.604   8.797   2.892 -0.4457  0.9853 -2.0725
  718MOL0     H94742   3.689   9.057   3.236 -0.1773 -0.0906  1.8629
  718MOL0     H94743   3.713   8.899   3.291  0.1302  0.2928 -0.4292
  718MOL0     H94744   3.548   9.044   3.426 -0.5429  0.5169 -1.1649
  718MOL0     H94745   3.480   8.887   3.363 -1.4121 -0.7246 -3.3985
  718MOL0     H94746   3.373   8.994   3.184  0.1960  1.3192 -0.1770
  718MOL0     H94747   3.428   9.159   3.221 -3.9186  2.3381  1.2674
  718MOL0     H94748   3.248   8.990   3.392 -1.8365  0.9618 -1.5402
  718MOL0     H94749   3.317   9.147   3.440  1.6568  1.1895 -0.9870
  718MOL0     H94750   3.143   9.091   3.193 -1.0814  2.6662 -1.1048
  718MOL0     H94751   3.210   9.248   3.251  1.3767  0.0681  0.3043
  718MOL0     H94752   3.082   9.251   3.437  2.7009 -1.4105  0.2538
  718MOL0     H94753   3.034   9.076   3.405  2.6630 -0.5636 -2.4462
  718MOL0     H94754   2.953   9.330   3.258 -1.7242  0.5198 -1.2739
  718MOL0     H94755   2.920   9.169   3.191 -0.1046  0.0833  1.0858
  718MOL0     H94756   2.750   9.317   3.302  2.8439  0.4092 -2.5809
  718MOL0     H94757   2.811   9.264   3.460  0.1815  2.0052 -0.0370
  718MOL0     H94758   3.868   9.031   3.139  2.8148 -0.0043 -0.1460
  718MOL0     H94759   4.051   8.989   2.980 -0.7384  3.7363 -0.7304
  718MOL0     H94760   4.262   8.792   2.682 -0.8161 -1.9040 -0.1386
  718MOL0     H94761   4.454   8.766   2.525 -0.4872 -0.7019  0.1800
  718MOL0     H94762   4.807   8.938   3.178 -1.8126  0.0967 -1.2736
  718MOL0     H94763   4.578   8.982   3.220 -1.1063  3.4861  3.5810
  718MOL0     H94764   4.221   8.785   3.464  2.5199  0.4175  3.0940
  718MOL0     H94765   4.003   8.772   3.530  0.8656  0.4793 -1.4213
  718MOL0     H94766   3.848   9.121   3.767  0.6525 -0.0001  1.6981
  718MOL0     H94767   3.955   9.000   3.854 -0.5135  1.9583  3.1088
  718MOL0     H94768   3.767   8.866   3.903  1.6884  1.4592  2.7167
  718MOL0     H94769   3.706   9.033   3.958 -1.2411  1.4993 -0.9417
  718MOL0     H94770   3.636   8.904   3.690 -2.0135 -0.0812 -1.1097
  718MOL0     H94771   3.612   9.076   3.750 -2.1910 -0.4242 -1.9156
  718MOL0     H94772   3.494   8.832   3.904  4.2279 -0.2723 -0.8671
  718MOL0     H94773   3.444   9.006   3.906 -2.2899 -0.7124 -0.1832
  718MOL0     H94774   3.280   8.840   3.546  1.6821  0.9135 -1.7678
  718MOL0     H94775   3.990   9.182   3.617 -0.6936 -0.2528 -4.5632
  718MOL0     H94776   4.235   9.216   3.557 -1.9602  1.8429 -2.5613
  719MOL0     O94777  10.313   6.835   6.377 -0.0883 -0.2456  0.0450
  719MOL0     C94778  10.311   6.959   6.397  1.0241  0.4959 -0.0526
  719MOL0     O94779  10.222   7.051   6.344  0.1596 -0.0659 -0.0543
  719MOL0     C94780  10.113   7.029   6.261 -0.0639 -0.8822 -0.7607
  719MOL0     C94781  10.077   6.905   6.208  0.6320 -0.1372  0.5838
  719MOL0     C94782   9.974   6.891   6.108 -1.1161 -0.1302 -0.5871
  719MOL0     C94783   9.903   7.002   6.062 -1.1182  0.2546  0.6331
  719MOL0     O94784   9.795   6.994   5.977 -0.1513 -0.0753 -0.7575
  719MOL0     C94785   9.709   6.879   5.977 -0.3636  0.2623 -0.0360
  719MOL0     C94786   9.588   6.910   5.870  1.3622  0.3704  0.5390
  719MOL0     C94787   9.476   7.012   5.917 -0.0039  0.2698  0.1974
  719MOL0     C94788   9.395   6.959   6.044  1.5327  0.0665 -0.2874
  719MOL0     C94789   9.308   6.841   6.016  0.6093 -0.2150 -0.4211
  719MOL0     C94790   9.245   6.793   6.148  0.4856 -0.2863 -0.4840
  719MOL0     C94791   9.339   6.686   6.215  0.2820  0.6011 -0.6562
  719MOL0     C94792   9.248   6.595   6.304 -0.2962 -0.5703  0.4007
  719MOL0     N94793   9.234   6.655   6.434  0.3333  1.6544  0.1512
  719MOL0     C94794   9.323   6.663   6.534 -0.9912 -0.7490 -0.3426
  719MOL0     C94795   9.257   6.712   6.641 -0.2589  0.1761  0.0399
  719MOL0     C94796   9.325   6.740   6.769  0.5617  1.0442 -0.6200
  719MOL0     C94797   9.229   6.762   6.882  0.2906 -0.4047  0.0780
  719MOL0     C94798   9.145   6.634   6.923 -0.0854 -0.0747  0.7458
  719MOL0     C94799   9.051   6.675   7.016  1.3564 -0.1968 -0.4451
  719MOL0     O94800   8.991   6.557   7.046 -0.0995 -0.5315 -0.7387
  719MOL0     C94801   8.863   6.553   7.101  0.5358 -0.2783  1.1786
  719MOL0     C94802   8.816   6.421   7.112  0.2490  0.0060  0.6032
  719MOL0     C94803   8.684   6.391   7.160  0.3315 -0.6626  0.1866
  719MOL0     C94804   8.608   6.499   7.212 -0.3062 -0.7521  0.3900
  719MOL0     C94805   8.467   6.481   7.255  0.3323 -0.3696 -0.0646
  719MOL0     O94806   8.385   6.598   7.267  0.0014  0.2994 -0.0809
  719MOL0     C94807   8.261   6.576   7.322  0.4877 -1.4418  0.0065
  719MOL0     C94808   8.216   6.646   7.437 -0.0039  0.0090  1.0164
  719MOL0     C94809   8.080   6.638   7.474 -0.7165 -0.1692 -0.9002
  719MOL0     C94810   7.985   6.567   7.395 -0.1877  0.4904 -0.2129
  719MOL0     O94811   7.849   6.543   7.428 -0.5698  0.1044 -0.1038
  719MOL0     C94812   7.779   6.623   7.532 -0.0410  0.0399  0.5704
  719MOL0     C94813   7.719   6.754   7.463 -0.0384 -0.3228 -0.1717
  719MOL0     C94814   7.575   6.737   7.406 -0.5451 -0.3024 -0.0257
  719MOL0     C94815   7.480   6.685   7.512 -0.0194  1.0766 -0.3064
  719MOL0     C94816   7.335   6.748   7.500 -0.6528  0.4699  0.2103
  719MOL0     C94817   7.230   6.686   7.573  0.0757  0.2437 -0.5204
  719MOL0     C94818   7.224   6.724   7.728 -0.2583  0.7902  0.0958
  719MOL0     C94819   7.260   6.872   7.755  0.7100 -0.4208 -0.0185
  719MOL0    Cl94820   7.139   6.987   7.706 -0.3073 -0.6908  0.2081
  719MOL0     C94821   8.036   6.491   7.289  0.2753  0.3508  0.3394
  719MOL0     C94822   8.173   6.498   7.250  0.9583  0.3902  0.1450
  719MOL0     O94823   8.433   6.363   7.279 -0.4187  0.2712  0.2113
  719MOL0     C94824   8.663   6.630   7.209 -0.0032 -0.0167 -1.0448
  719MOL0     C94825   8.782   6.659   7.147 -0.3952  0.1802  0.7853
  719MOL0     N94826   9.130   6.725   6.605 -0.5220 -0.6247  0.3592
  719MOL0     N94827   9.121   6.702   6.479  0.6784 -0.5275  0.2816
  719MOL0     C94828   9.931   7.126   6.126  0.5913  0.8407  0.1375
  719MOL0     C94829  10.039   7.141   6.217  0.0650  0.7665  0.5302
  719MOL0     C94830  10.422   7.016   6.479  0.2826  0.3674 -1.3232
  719MOL0     C94831  10.496   6.928   6.568 -0.4518 -0.7967  0.1938
  719MOL0     C94832  10.599   6.970   6.644 -0.3109 -0.0187 -0.5555
  719MOL0     C94833  10.626   7.102   6.666  1.1269  1.1395  0.2879
  719MOL0     O94834  10.713   7.154   6.752 -0.4881  0.6895  0.2368
  719MOL0     C94835  10.710   7.104   6.890 -0.1679  0.3370  0.0731
  719MOL0     C94836  10.798   7.190   6.991 -0.2864 -0.1267 -0.3374
  719MOL0     C94837  10.948   7.164   6.961  0.0589  0.0829 -0.9657
  719MOL0     C94838  10.992   7.031   7.033 -0.0954 -0.2464 -0.2787
  719MOL0     C94839  11.029   7.063   7.172 -0.0085  0.6815 -0.0696
  719MOL0     C94840  11.065   7.092   7.286  0.1914 -0.7880  0.1984
  719MOL0     C94841  10.552   7.194   6.586  0.4846  0.0146 -0.1730
  719MOL0     C94842  10.459   7.154   6.488 -0.0572  0.6251 -0.3750
  719MOL0     H94843  10.130   6.814   6.235  2.1171  0.8263  1.0592
  719MOL0     H94844   9.967   6.789   6.072  0.1946 -0.5020  0.1514
  719MOL0     H94845   9.667   6.866   6.077 -1.9796  1.1959 -0.5412
  719MOL0     H94846   9.757   6.783   5.958 -0.0828  0.7031 -1.7006
  719MOL0     H94847   9.538   6.814   5.852 -1.5937  1.8806  0.1735
  719MOL0     H94848   9.641   6.944   5.781  0.4391 -2.8916 -1.4528
  719MOL0     H94849   9.416   7.020   5.826  0.0062  1.1264  0.2574
  719MOL0     H94850   9.515   7.111   5.944 -1.9779  1.5527 -1.3776
  719MOL0     H94851   9.471   6.929   6.117  3.1055 -3.0581 -2.9399
  719MOL0     H94852   9.335   7.040   6.086 -1.0391 -2.0717  0.4822
  719MOL0     H94853   9.344   6.752   5.964 -3.8292 -1.8025 -1.2285
  719MOL0     H94854   9.229   6.882   5.951  0.3395 -0.5606 -0.3145
  719MOL0     H94855   9.149   6.744   6.130 -0.6764  1.0315  1.7259
  719MOL0     H94856   9.216   6.874   6.215  0.3241  1.3681 -2.4256
  719MOL0     H94857   9.399   6.625   6.147 -0.4817  0.4749 -1.2238
  719MOL0     H94858   9.407   6.733   6.287  1.0591 -1.1479 -0.1895
  719MOL0     H94859   9.300   6.499   6.311 -0.0330 -0.9949 -4.2353
  719MOL0     H94860   9.150   6.575   6.261  0.1566  0.6232 -1.3296
  719MOL0     H94861   9.429   6.641   6.519  0.8657  4.8774  1.8489
  719MOL0     H94862   9.376   6.835   6.751  2.1964  0.1289 -1.0987
  719MOL0     H94863   9.400   6.665   6.799 -0.5944 -0.0874 -0.4688
  719MOL0     H94864   9.164   6.843   6.848 -0.0484  0.1893  2.0316
  719MOL0     H94865   9.281   6.810   6.965 -1.1054 -0.5575  1.0832
  719MOL0     H94866   9.100   6.602   6.829 -1.1346 -1.5191  1.7057
  719MOL0     H94867   9.209   6.555   6.963  1.2917  1.2617  1.2987
  719MOL0     H94868   8.984   6.753   6.979 -0.1203 -0.8886  0.6720
  719MOL0     H94869   9.093   6.707   7.112 -2.9520  3.0617  0.6842
  719MOL0     H94870   8.879   6.346   7.065  1.0845  0.2710  1.2972
  719MOL0     H94871   8.635   6.295   7.169 -2.6938  0.7053 -0.3754
  719MOL0     H94872   8.289   6.703   7.493 -1.7126  2.4998  0.8748
  719MOL0     H94873   8.052   6.698   7.560  1.9766  0.4414 -0.3586
  719MOL0     H94874   7.847   6.654   7.611 -1.1462 -0.5123  1.7697
  719MOL0     H94875   7.704   6.568   7.590  0.0206 -0.3246  0.3067
  719MOL0     H94876   7.792   6.779   7.385 -3.0710  1.1209 -2.7770
  719MOL0     H94877   7.716   6.843   7.526  1.5690 -0.4290  0.0960
  719MOL0     H94878   7.580   6.663   7.325  0.8229 -2.1865  1.6827
  719MOL0     H94879   7.550   6.836   7.367  0.7174  0.6932  1.5637
  719MOL0     H94880   7.460   6.578   7.503  0.0205  0.8892  1.4220
  719MOL0     H94881   7.511   6.709   7.615  1.0319 -2.3937  0.2987
  719MOL0     H94882   7.317   6.730   7.393  1.9101 -4.2907  0.3097
  719MOL0     H94883   7.338   6.856   7.515  0.5729  0.5540 -0.4979
  719MOL0     H94884   7.227   6.577   7.559  0.0215  0.3628 -1.5137
  719MOL0     H94885   7.138   6.713   7.521 -0.3801  0.7273  0.5083
  719MOL0     H94886   7.128   6.706   7.777  0.0009  1.4965  0.8829
  719MOL0     H94887   7.300   6.657   7.771 -2.6627 -1.6684  0.7862
  719MOL0     H94888   7.358   6.908   7.724  1.1431  2.3629  3.8322
  719MOL0     H94889   7.270   6.883   7.864 -1.6529  1.5568  0.0900
  719MOL0     H94890   7.963   6.427   7.241  0.6946 -0.4613  0.7725
  719MOL0     H94891   8.201   6.428   7.173  1.6189  0.3427  0.4223
  719MOL0     H94892   8.616   6.716   7.256  0.6781 -0.2062  0.0175
  719MOL0     H94893   8.825   6.758   7.138  0.3921  0.0109  2.4377
  719MOL0     H94894   9.866   7.209   6.100  0.4186  1.0851  1.2933
  719MOL0     H94895  10.080   7.235   6.251  2.0805  1.5163 -3.4245
  719MOL0     H94896  10.486   6.820   6.572  0.7187 -1.0322 -1.9224
  719MOL0     H94897  10.639   6.897   6.712 -0.7150 -0.4116 -0.7356
  719MOL0     H94898  10.758   7.006   6.887  2.2689  1.4507  0.0590
  719MOL0     H94899  10.607   7.106   6.927  0.4034 -0.5745  1.8104
  719MOL0     H94900  10.781   7.298   6.983 -1.3236 -0.2482  0.1746
  719MOL0     H94901  10.765   7.164   7.092  2.5826  0.6051  0.9020
  719MOL0     H94902  11.002   7.254   6.992 -2.4931  1.0426  1.0992
  719MOL0     H94903  10.953   7.150   6.853 -1.5089 -2.0978 -0.8180
  719MOL0     H94904  10.918   6.951   7.042  0.7383 -0.8174  2.2406
  719MOL0     H94905  11.080   6.998   6.978  0.2553 -1.3738  0.9133
  719MOL0     H94906  11.104   7.127   7.379  1.2569  0.0777 -0.5382
  719MOL0     H94907  10.590   7.295   6.597  3.2773 -1.0778  0.9902
  719MOL0     H94908  10.407   7.230   6.430  1.2357  1.0162 -1.0718
  720MOL0     O94909   6.814   4.053   4.308 -0.3369 -0.6600 -0.0951
  720MOL0     C94910   6.795   4.070   4.185  0.7189  0.5829  1.1140
  720MOL0     O94911   6.683   4.123   4.121 -1.1491  0.6610 -0.2153
  720MOL0     C94912   6.565   4.093   4.172 -0.0208 -0.0944 -1.3910
  720MOL0     C94913   6.531   3.964   4.217 -0.0550 -0.5320  0.5989
  720MOL0     C94914   6.396   3.933   4.253 -0.1903 -1.3875  0.6328
  720MOL0     C94915   6.301   4.038   4.253 -0.6197  0.8833 -0.5801
  720MOL0     O94916   6.158   4.022   4.277 -1.2135  0.0952 -0.1307
  720MOL0     C94917   6.117   3.888   4.299 -0.6503  0.2304  0.6059
  720MOL0     C94918   5.972   3.877   4.335  0.3556 -0.9062  0.3031
  720MOL0     C94919   5.924   3.952   4.460  0.0997 -1.3686 -0.1725
  720MOL0     C94920   5.782   3.902   4.506  0.1626 -0.5643 -0.6979
  720MOL0     C94921   5.671   3.907   4.392 -0.3232 -0.1043  0.3664
  720MOL0     C94922   5.540   3.849   4.433 -0.7053  0.1488  0.8470
  720MOL0     C94923   5.419   3.894   4.349  0.0927 -0.8808 -0.3645
  720MOL0     C94924   5.300   3.901   4.446  0.4650  1.0955 -0.2416
  720MOL0     N94925   5.290   3.784   4.536  0.8102 -0.1752  0.7118
  720MOL0     C94926   5.325   3.780   4.668 -0.3258 -0.6770  0.1436
  720MOL0     C94927   5.271   3.665   4.712  1.0559 -0.5475 -0.3540
  720MOL0     C94928   5.263   3.618   4.852 -0.0247 -0.3249  0.9535
  720MOL0     C94929   5.160   3.704   4.931 -0.3172  0.4416 -0.0890
  720MOL0     C94930   5.020   3.701   4.866  0.3107 -0.3332 -0.4045
  720MOL0     C94931   4.915   3.728   4.974  0.3820  0.1405 -0.5592
  720MOL0     O94932   4.938   3.854   5.037 -0.1386 -0.1115  0.0441
  720MOL0     C94933   4.846   3.912   5.122 -0.9562 -0.1891  0.9152
  720MOL0     C94934   4.882   4.027   5.188  0.3274 -0.3429 -0.2375
  720MOL0     C94935   4.786   4.083   5.275 -0.2084 -0.1221 -0.3798
  720MOL0     C94936   4.660   4.039   5.289  0.6679 -0.0916  0.1211
  720MOL0     C94937   4.568   4.112   5.382 -0.3887  1.5705  0.8647
  720MOL0     O94938   4.483   4.032   5.452  0.0347 -0.2460  0.3780
  720MOL0     C94939   4.386   4.085   5.527 -0.2687 -0.0052 -0.8432
  720MOL0     C94940   4.292   4.185   5.486  0.9025 -0.0981 -0.1059
  720MOL0     C94941   4.188   4.235   5.578  0.6605 -0.3301  0.8192
  720MOL0     C94942   4.172   4.174   5.701  0.1866 -0.1672  0.0912
  720MOL0     O94943   4.087   4.204   5.803  0.2571 -0.4040  0.5826
  720MOL0     C94944   3.947   4.222   5.763  0.0378  0.4422  0.9211
  720MOL0     C94945   3.869   4.232   5.896  0.1835 -0.0001  0.9187
  720MOL0     C94946   3.725   4.289   5.910 -0.3837 -0.0799 -0.9261
  720MOL0     C94947   3.681   4.287   6.047  0.1509 -0.1023  0.2982
  720MOL0     C94948   3.539   4.334   6.054 -0.0181 -0.5490  0.4059
  720MOL0     C94949   3.484   4.344   6.193  0.4663 -0.2397 -0.6856
  720MOL0     C94950   3.539   4.473   6.251  0.1585 -0.1188 -0.3469
  720MOL0     C94951   3.453   4.493   6.379 -0.7110 -0.1998 -0.0044
  720MOL0    Cl94952   3.481   4.375   6.496  0.0548 -0.2189 -0.3922
  720MOL0     C94953   4.263   4.073   5.739  0.0513 -0.1537  0.3827
  720MOL0     C94954   4.363   4.028   5.655 -0.4153  0.2510  0.2755
  720MOL0     O94955   4.576   4.231   5.390  0.5243 -0.3365  0.0520
  720MOL0     C94956   4.624   3.935   5.200  0.0447 -1.1953 -0.2894
  720MOL0     C94957   4.714   3.870   5.128 -0.0095  1.2243 -0.2028
  720MOL0     N94958   5.193   3.610   4.604 -0.1863  0.4522  0.6543
  720MOL0     N94959   5.218   3.675   4.500 -0.2816  0.0784 -1.0296
  720MOL0     C94960   6.338   4.164   4.214 -0.8522  0.4500  0.2495
  720MOL0     C94961   6.469   4.192   4.176 -0.1576 -0.3967  0.3948
  720MOL0     C94962   6.911   4.046   4.101  0.3772 -0.8005 -0.7513
  720MOL0     C94963   6.907   4.087   3.964  0.0093  0.1499 -0.6543
  720MOL0     C94964   7.019   4.067   3.883 -0.3393  0.5771 -0.3766
  720MOL0     C94965   7.134   4.012   3.930  1.0765 -0.5619  0.7134
  720MOL0     O94966   7.242   4.003   3.846  0.3761 -0.1379  0.2645
  720MOL0     C94967   7.369   3.978   3.898  0.1682 -0.5189 -0.7260
  720MOL0     C94968   7.459   3.936   3.785  0.6480 -0.4708  0.1598
  720MOL0     C94969   7.603   3.918   3.850 -0.4933 -0.4025 -0.6485
  720MOL0     C94970   7.606   3.812   3.954  0.5943 -0.6558  0.2571
  720MOL0     C94971   7.580   3.864   4.088  0.1760 -0.5113  0.3693
  720MOL0     C94972   7.546   3.919   4.192 -0.3208  0.0309 -0.0951
  720MOL0     C94973   7.140   3.983   4.066 -0.7304  0.8981 -0.4114
  720MOL0     C94974   7.030   3.988   4.150 -0.2899 -0.1495 -0.0100
  720MOL0     H94975   6.605   3.885   4.201  1.1925  0.0908  2.8193
  720MOL0     H94976   6.377   3.830   4.281 -0.9383 -1.5595 -0.4390
  720MOL0     H94977   6.172   3.848   4.385 -3.7581 -0.5033  2.3901
  720MOL0     H94978   6.128   3.826   4.210 -0.7936  0.8977  0.1129
  720MOL0     H94979   5.938   3.775   4.354 -2.0235 -0.1239  0.6222
  720MOL0     H94980   5.915   3.909   4.246 -0.1833 -2.6052 -0.0010
  720MOL0     H94981   5.911   4.058   4.439  0.8208 -1.7936 -3.2536
  720MOL0     H94982   5.988   3.935   4.547  0.2442 -0.4669 -0.1020
  720MOL0     H94983   5.798   3.804   4.552  4.4929 -0.4005 -1.4340
  720MOL0     H94984   5.752   3.966   4.589 -1.1253  2.0352 -3.0221
  720MOL0     H94985   5.698   3.859   4.297 -1.0981  1.2766 -0.5819
  720MOL0     H94986   5.667   4.010   4.355  1.7661 -0.3762 -0.7945
  720MOL0     H94987   5.525   3.870   4.539 -1.4709 -1.6688  1.1437
  720MOL0     H94988   5.553   3.741   4.422  0.0471  0.1771  1.4506
  720MOL0     H94989   5.432   3.992   4.301 -1.7376 -0.9103 -1.0148
  720MOL0     H94990   5.396   3.819   4.273 -0.8901  0.2784 -1.2588
  720MOL0     H94991   5.213   3.893   4.380  2.5430 -0.4082 -2.9927
  720MOL0     H94992   5.282   4.000   4.489 -5.3447  1.2265 -2.1462
  720MOL0     H94993   5.376   3.859   4.721 -1.6397  0.2979  0.0219
  720MOL0     H94994   5.364   3.637   4.889  0.4268 -1.8787  0.6031
  720MOL0     H94995   5.238   3.512   4.862  0.5434 -0.7814 -1.6997
  720MOL0     H94996   5.188   3.806   4.958 -0.1145 -0.7442  5.3118
  720MOL0     H94997   5.150   3.643   5.021  0.3486  0.5998  0.0922
  720MOL0     H94998   5.017   3.789   4.801  1.8033  0.4809  0.5944
  720MOL0     H94999   4.998   3.613   4.805 -1.5469  0.2866 -0.6929
  720MOL0     H95000   4.914   3.651   5.051  1.7088  0.1595 -0.5029
  720MOL0     H95001   4.815   3.738   4.930  0.1229 -3.7116 -1.1809
  720MOL0     H95002   4.976   4.079   5.170 -1.4421  2.6041 -1.8975
  720MOL0     H95003   4.828   4.165   5.332  1.9145  0.0512 -2.0734
  720MOL0     H95004   4.285   4.232   5.388  0.9146  0.3953  0.1274
  720MOL0     H95005   4.126   4.317   5.544  0.8065 -0.7668 -0.5358
  720MOL0     H95006   3.904   4.144   5.700  1.6622 -1.4333  2.0133
  720MOL0     H95007   3.953   4.315   5.706  0.5704 -0.8759 -1.2592
  720MOL0     H95008   3.941   4.292   5.953  1.1496 -1.4390  1.2803
  720MOL0     H95009   3.884   4.134   5.942  0.6789 -0.2019  0.3438
  720MOL0     H95010   3.656   4.241   5.840 -0.7708  0.7504 -1.1267
  720MOL0     H95011   3.725   4.392   5.874  1.0447  0.6747  1.1194
  720MOL0     H95012   3.686   4.185   6.085  2.8847 -0.6187 -1.1556
  720MOL0     H95013   3.749   4.356   6.098 -0.0673 -0.8737  1.6826
  720MOL0     H95014   3.462   4.274   6.005 -1.7036  0.3379  1.8565
  720MOL0     H95015   3.532   4.425   5.995 -2.9361 -0.2677  1.0341
  720MOL0     H95016   3.522   4.263   6.256  0.2286  0.6982  0.7189
  720MOL0     H95017   3.375   4.338   6.192  0.3800  0.8481  0.0446
  720MOL0     H95018   3.646   4.463   6.273  0.4044  0.7942 -1.0772
  720MOL0     H95019   3.527   4.555   6.180  0.1870 -1.1338 -1.5615
  720MOL0     H95020   3.348   4.491   6.345 -0.4145  1.0057 -1.0491
  720MOL0     H95021   3.470   4.589   6.427  0.5126  0.0840 -0.9664
  720MOL0     H95022   4.245   4.014   5.829  0.5049  0.4127  0.8534
  720MOL0     H95023   4.435   3.954   5.690 -0.7752 -1.7814 -2.8404
  720MOL0     H95024   4.524   3.896   5.214  0.0358 -0.7824  0.9390
  720MOL0     H95025   4.679   3.785   5.070  2.7855 -1.4319  1.6983
  720MOL0     H95026   6.272   4.251   4.216  2.2279  2.9318  1.6010
  720MOL0     H95027   6.481   4.292   4.136 -0.6036 -0.8459 -0.9276
  720MOL0     H95028   6.814   4.130   3.927  0.2257 -0.3250 -1.7825
  720MOL0     H95029   7.030   4.093   3.779  2.4889  0.7492 -0.1077
  720MOL0     H95030   7.358   3.892   3.965  0.4520  0.8924  1.2089
  720MOL0     H95031   7.392   4.064   3.962 -3.1101  2.4145 -3.1351
  720MOL0     H95032   7.421   3.848   3.732 -1.2381  1.0742 -1.2045
  720MOL0     H95033   7.465   4.014   3.709  1.3681 -0.5030  0.1854
  720MOL0     H95034   7.624   4.013   3.899 -3.4398  0.2692 -0.4982
  720MOL0     H95035   7.667   3.883   3.769  0.2878  2.8453 -1.5769
  720MOL0     H95036   7.523   3.742   3.939 -0.6168 -0.1960  3.9995
  720MOL0     H95037   7.699   3.755   3.943  0.2702 -0.9010 -1.6058
  720MOL0     H95038   7.552   3.963   4.290  1.2444 -4.2057  1.9939
  720MOL0     H95039   7.232   3.952   4.114 -1.2614  0.9357  0.6665
  720MOL0     H95040   7.039   3.949   4.250  1.7021  1.5229  0.5446
  721MOL0     O95041  11.066   1.635   7.738 -0.4418  0.1326 -0.8959
  721MOL0     C95042  11.127   1.543   7.789 -0.0586  0.0090 -0.3965
  721MOL0     O95043  11.077   1.429   7.839 -0.2628 -0.2667 -0.1648
  721MOL0     C95044  10.943   1.406   7.849 -0.1536 -0.2539  0.3716
  721MOL0     C95045  10.845   1.490   7.908  0.5049  0.5182  0.9429
  721MOL0     C95046  10.717   1.461   7.910 -0.7239  1.5256  0.1749
  721MOL0     C95047  10.675   1.339   7.850  0.0145 -0.0082  0.2398
  721MOL0     O95048  10.539   1.316   7.853  0.2089  0.3985 -0.4171
  721MOL0     C95049  10.513   1.183   7.813  0.0290 -0.3713 -0.4688
  721MOL0     C95050  10.386   1.132   7.887 -1.1198  0.0178 -0.0819
  721MOL0     C95051  10.265   1.135   7.791 -0.4524  1.0969 -0.3301
  721MOL0     C95052  10.143   1.082   7.861 -0.0745  0.0823 -0.2052
  721MOL0     C95053  10.021   1.105   7.774  0.1209 -0.3398 -0.8759
  721MOL0     C95054   9.889   1.073   7.842  0.8265 -0.1948 -0.3806
  721MOL0     C95055   9.770   1.085   7.747  0.4620  1.0222 -0.7718
  721MOL0     C95056   9.640   1.037   7.824  0.1859  0.2096  0.0624
  721MOL0     N95057   9.524   1.054   7.733 -0.3627 -0.7543  0.5372
  721MOL0     C95058   9.449   1.174   7.710 -0.2515  0.1597  0.3851
  721MOL0     C95059   9.336   1.133   7.652 -0.4643 -0.2081 -1.3339
  721MOL0     C95060   9.237   1.212   7.583  0.8543 -0.5754  0.6284
  721MOL0     C95061   9.121   1.253   7.675 -1.0092 -0.5211  0.4743
  721MOL0     C95062   9.024   1.338   7.591  0.7150  0.4248  0.8265
  721MOL0     C95063   8.926   1.240   7.510 -0.4578  0.0965 -0.2966
  721MOL0     O95064   8.859   1.148   7.595 -0.4845  0.4607  0.3451
  721MOL0     C95065   8.750   1.190   7.660 -0.2768  0.4228 -0.8086
  721MOL0     C95066   8.681   1.099   7.749  0.2009  0.4533 -0.2142
  721MOL0     C95067   8.560   1.139   7.815 -0.0555  0.0053 -0.2363
  721MOL0     C95068   8.514   1.272   7.809 -1.9935  0.8829 -0.7485
  721MOL0     C95069   8.400   1.312   7.887  0.7417 -1.3966 -0.2849
  721MOL0     O95070   8.359   1.448   7.870  0.2468 -0.2314 -0.4463
  721MOL0     C95071   8.247   1.483   7.938 -0.6235  0.4886  0.1741
  721MOL0     C95072   8.154   1.548   7.861  0.6049 -0.5412  0.0375
  721MOL0     C95073   8.039   1.593   7.923 -0.5319 -0.1222  0.7328
  721MOL0     C95074   8.008   1.573   8.059  0.9198  0.1230  1.1990
  721MOL0     O95075   7.893   1.617   8.127  0.7595 -0.0841 -0.0560
  721MOL0     C95076   7.803   1.702   8.051  0.8892  0.5202  0.6446
  721MOL0     C95077   7.708   1.760   8.147  0.1914 -0.1256 -0.0488
  721MOL0     C95078   7.774   1.882   8.220 -1.2910  0.0322 -0.9950
  721MOL0     C95079   7.657   1.935   8.309  0.1746 -0.0272  0.6125
  721MOL0     C95080   7.708   2.052   8.398 -0.0161 -0.2613 -0.7350
  721MOL0     C95081   7.743   2.187   8.332  0.3403  0.1651 -0.5854
  721MOL0     C95082   7.606   2.270   8.325 -0.0999 -0.1648  0.3842
  721MOL0     C95083   7.619   2.391   8.219  1.2452  0.1359 -0.3254
  721MOL0    Cl95084   7.765   2.480   8.232 -0.9018  0.1096 -0.0820
  721MOL0     C95085   8.111   1.514   8.131  0.4999 -0.2887  0.0909
  721MOL0     C95086   8.229   1.473   8.079 -0.4430  0.4385 -0.9075
  721MOL0     O95087   8.340   1.222   7.946  0.9641 -0.0237 -0.2541
  721MOL0     C95088   8.590   1.360   7.726 -0.4335 -0.2986 -0.1544
  721MOL0     C95089   8.708   1.322   7.663 -0.2830 -0.0884 -0.3240
  721MOL0     N95090   9.343   0.991   7.644  0.5072  0.1106  0.2316
  721MOL0     N95091   9.458   0.946   7.690 -0.6843 -0.3934 -0.3091
  721MOL0     C95092  10.774   1.262   7.782 -0.1619 -0.2247  1.2395
  721MOL0     C95093  10.906   1.295   7.765  0.4915 -0.8471  0.0540
  721MOL0     C95094  11.276   1.543   7.753  0.5021 -0.0827  0.6619
  721MOL0     C95095  11.348   1.427   7.796  0.0798 -0.7934  0.1650
  721MOL0     C95096  11.479   1.419   7.771 -0.5100  0.0114  0.1213
  721MOL0     C95097  11.548   1.536   7.717 -0.2447 -0.2449  0.1772
  721MOL0     O95098  11.681   1.559   7.696 -0.3340  0.7094 -0.1938
  721MOL0     C95099  11.761   1.438   7.678  0.4689  0.1800  0.4557
  721MOL0     C95100  11.897   1.480   7.604  0.6146 -0.0758  0.7302
  721MOL0     C95101  11.979   1.589   7.683 -0.0404 -0.1051 -0.2255
  721MOL0     C95102  12.007   1.572   7.837 -0.3417  0.1065 -0.7692
  721MOL0     C95103  12.077   1.440   7.856  0.1303 -0.2673 -0.5242
  721MOL0     C95104  12.130   1.331   7.864 -0.4865 -0.3617 -0.6669
  721MOL0     C95105  11.477   1.652   7.685  0.2902 -0.2263  0.3524
  721MOL0     C95106  11.338   1.656   7.704 -0.1482 -0.0820  1.4216
  721MOL0     H95107  10.879   1.584   7.950 -0.9271  0.9275  1.2494
  721MOL0     H95108  10.642   1.526   7.954 -0.3508  1.1665  1.3822
  721MOL0     H95109  10.596   1.124   7.852  2.2753  0.5413 -3.5081
  721MOL0     H95110  10.495   1.169   7.706 -1.3813  2.2368 -0.6460
  721MOL0     H95111  10.368   1.206   7.966 -1.9464  2.9219 -2.7869
  721MOL0     H95112  10.390   1.033   7.933  0.2586  0.1553  0.1303
  721MOL0     H95113  10.280   1.072   7.704  1.3838  0.1905  0.5783
  721MOL0     H95114  10.240   1.237   7.760 -2.5770  0.5352 -0.5970
  721MOL0     H95115  10.152   0.974   7.877  1.3346  0.2132  0.0379
  721MOL0     H95116  10.138   1.128   7.960  0.6996 -0.9823  0.3521
  721MOL0     H95117  10.032   1.038   7.688 -0.0572  0.1256 -1.2623
  721MOL0     H95118  10.038   1.205   7.733  3.8287 -1.1964 -1.8475
  721MOL0     H95119   9.874   1.145   7.923  1.7879  2.2210 -2.2321
  721MOL0     H95120   9.899   0.975   7.890  1.2128 -0.3599 -0.7825
  721MOL0     H95121   9.756   1.190   7.721 -1.5909  0.5642 -1.7376
  721MOL0     H95122   9.784   1.018   7.661 -2.3715 -0.2256 -0.3577
  721MOL0     H95123   9.622   1.094   7.915 -2.2308  0.9971 -0.8443
  721MOL0     H95124   9.649   0.930   7.846 -0.6401 -0.0440 -0.7725
  721MOL0     H95125   9.467   1.280   7.726  1.1972 -0.2285  1.5384
  721MOL0     H95126   9.200   1.148   7.502 -0.9646  0.0345  0.9429
  721MOL0     H95127   9.285   1.300   7.539  0.0281  0.4682  1.7456
  721MOL0     H95128   9.156   1.313   7.760  0.8228  0.6028 -0.9753
  721MOL0     H95129   9.084   1.157   7.711  1.8607 -1.2465  1.7792
  721MOL0     H95130   8.970   1.408   7.655  2.2315  0.8195  1.7273
  721MOL0     H95131   9.082   1.396   7.518  1.5798 -0.2466  0.9649
  721MOL0     H95132   8.988   1.180   7.442 -3.7599 -3.0342 -0.8684
  721MOL0     H95133   8.864   1.299   7.442  0.9880  1.2314 -0.6829
  721MOL0     H95134   8.710   0.995   7.752 -2.0566 -0.2044  1.1543
  721MOL0     H95135   8.501   1.063   7.866 -0.3906 -0.1567 -0.8643
  721MOL0     H95136   8.167   1.569   7.755 -0.9727  0.0496 -0.0684
  721MOL0     H95137   7.959   1.644   7.870  0.3723  0.3114 -0.2522
  721MOL0     H95138   7.735   1.642   7.989  1.6666 -2.4816  2.4993
  721MOL0     H95139   7.851   1.781   7.992  0.0051 -0.7913 -1.9995
  721MOL0     H95140   7.669   1.682   8.212  0.7092 -0.6210 -0.3287
  721MOL0     H95141   7.616   1.792   8.097  0.8373  0.5050 -0.8677
  721MOL0     H95142   7.817   1.955   8.151 -1.0406 -1.0567 -2.0126
  721MOL0     H95143   7.857   1.852   8.284 -1.5293  0.6794 -0.3642
  721MOL0     H95144   7.577   1.964   8.241  1.7138  0.3020 -1.1339
  721MOL0     H95145   7.626   1.852   8.374 -1.0653  1.5582  2.1565
  721MOL0     H95146   7.798   2.019   8.450 -0.5417  0.4411  0.6736
  721MOL0     H95147   7.635   2.077   8.476  2.5437  2.3621  1.0235
  721MOL0     H95148   7.781   2.171   8.230  1.1830  1.4431 -0.5012
  721MOL0     H95149   7.823   2.236   8.388  0.3188 -1.2141  0.6936
  721MOL0     H95150   7.520   2.206   8.303 -0.7852  0.5472  0.9432
  721MOL0     H95151   7.591   2.310   8.425  1.7193  0.4484  0.4574
  721MOL0     H95152   7.540   2.465   8.236  0.0981 -0.7261 -1.6268
  721MOL0     H95153   7.601   2.357   8.116 -2.1267  3.6918 -1.1471
  721MOL0     H95154   8.096   1.507   8.238  0.8403  0.3600  0.1869
  721MOL0     H95155   8.302   1.426   8.144  2.9276  1.0062 -3.9812
  721MOL0     H95156   8.548   1.459   7.715  0.5119  0.0376 -0.8880
  721MOL0     H95157   8.745   1.402   7.599 -4.2243  0.2949 -2.4838
  721MOL0     H95158  10.744   1.181   7.716  1.2964  1.7502 -2.1250
  721MOL0     H95159  10.979   1.246   7.701 -1.1959 -0.0392 -2.6579
  721MOL0     H95160  11.291   1.348   7.844  0.8891 -2.5624 -1.6300
  721MOL0     H95161  11.527   1.326   7.802  2.2648  0.6681 -1.7641
  721MOL0     H95162  11.708   1.356   7.628 -2.0263  1.9533  0.0157
  721MOL0     H95163  11.789   1.399   7.776 -0.1428 -0.3012  0.4470
  721MOL0     H95164  11.959   1.390   7.603 -1.7373 -1.8582  3.1420
  721MOL0     H95165  11.878   1.520   7.504  0.6880  0.8380  1.0647
  721MOL0     H95166  11.934   1.686   7.662  0.7900  0.0839 -1.1712
  721MOL0     H95167  12.081   1.594   7.644 -0.1616  0.4925 -0.4787
  721MOL0     H95168  12.072   1.657   7.860  2.1464 -0.6254 -4.2456
  721MOL0     H95169  11.907   1.566   7.879  0.7692 -0.9863  1.9541
  721MOL0     H95170  12.176   1.235   7.877 -1.6335 -0.9088 -0.5060
  721MOL0     H95171  11.526   1.746   7.663 -0.7803  0.4415  0.7101
  721MOL0     H95172  11.274   1.744   7.696  0.3220  0.0913 -1.3353
  722MOL0     O95173   0.346   7.445   9.311 -0.2095 -0.3981  0.4983
  722MOL0     C95174   0.328   7.447   9.431  0.3159 -1.4762 -0.1721
  722MOL0     O95175   0.216   7.404   9.497 -0.6570  0.7521  0.0119
  722MOL0     C95176   0.123   7.329   9.433 -0.4567  0.2716 -0.0219
  722MOL0     C95177   0.118   7.188   9.432 -0.5355 -0.2894 -0.6352
  722MOL0     C95178   0.008   7.138   9.369  0.9808  0.0065  0.1626
  722MOL0     C95179  -0.084   7.222   9.293  0.7875 -1.2093 -0.5214
  722MOL0     O95180  -0.190   7.181   9.212 -0.4449  0.4733 -1.0386
  722MOL0     C95181  -0.264   7.068   9.246  0.2087 -0.1654  0.2055
  722MOL0     C95182  -0.380   7.035   9.150 -0.2365  0.2288  0.3808
  722MOL0     C95183  -0.498   7.131   9.156  1.2973 -1.1384 -0.0091
  722MOL0     C95184  -0.582   7.106   9.034  0.0422  0.5782  0.3154
  722MOL0     C95185  -0.672   7.232   9.005 -0.5127 -0.1880  0.9365
  722MOL0     C95186  -0.661   7.272   8.848  0.0050 -0.3828  0.8084
  722MOL0     C95187  -0.547   7.377   8.807  0.8709 -1.5414  0.4630
  722MOL0     C95188  -0.581   7.508   8.894 -0.2547  0.2509  0.3052
  722MOL0     N95189  -0.534   7.636   8.843 -0.0259 -0.4478  0.2119
  722MOL0     C95190  -0.441   7.667   8.747  0.1392 -0.8427 -0.1146
  722MOL0     C95191  -0.429   7.801   8.747 -0.3802  0.0292 -0.4375
  722MOL0     C95192  -0.341   7.878   8.650 -0.6641  1.1146  0.0652
  722MOL0     C95193  -0.211   7.923   8.720  0.9870 -0.9683  0.3352
  722MOL0     C95194  -0.162   8.044   8.639 -0.9415  0.0663 -0.7715
  722MOL0     C95195  -0.031   8.080   8.694 -0.5856  0.1786 -0.6435
  722MOL0     O95196  -0.044   8.094   8.840 -0.7481  0.7004  0.1845
  722MOL0     C95197   0.073   8.129   8.916 -0.5348 -1.1316 -0.7483
  722MOL0     C95198   0.208   8.176   8.878  0.6584 -0.4095 -0.6736
  722MOL0     C95199   0.304   8.213   8.972  0.5349  0.3152  0.3490
  722MOL0     C95200   0.272   8.210   9.109  0.6073 -0.1134  0.8504
  722MOL0     C95201   0.378   8.253   9.213 -1.6644 -0.3273 -0.0549
  722MOL0     O95202   0.497   8.295   9.169  0.2070 -0.4211  0.2646
  722MOL0     C95203   0.593   8.349   9.254 -0.6675  0.7379  0.7054
  722MOL0     C95204   0.745   8.464   9.169 -0.4043 -0.6724  0.5068
  722MOL0     C95205   0.883   8.569   9.292  0.5461  1.3142 -0.3516
  722MOL0     C95206   0.873   8.553   9.504 -0.0056  0.9688  0.1602
  722MOL0     O95207   0.948   8.625   9.596  0.2158 -0.0868 -0.0341
  722MOL0     C95208   0.958   8.570   9.728  0.6643 -0.0696  0.5577
  722MOL0     C95209   1.073   8.645   9.795  0.4689 -0.3426  0.7172
  722MOL0     C95210   1.197   8.640   9.709  0.4215  0.9197  0.9396
  722MOL0     C95211   1.308   8.714   9.780  1.0035 -0.2577  0.5001
  722MOL0     C95212   1.426   8.727   9.680  0.8287  0.2884 -0.0187
  722MOL0     C95213   1.554   8.773   9.752  0.1498 -0.0217 -0.4719
  722MOL0     C95214   1.686   8.768   9.673 -0.5718  0.0127 -0.2784
  722MOL0     C95215   1.806   8.804   9.760  0.0170  0.8248  0.0359
  722MOL0    Cl95216   1.840   8.980   9.782 -0.2397  0.1090 -0.1098
  722MOL0     C95217   0.724   8.426   9.588 -0.5314  0.2950 -0.7552
  722MOL0     C95218   0.583   8.327   9.466  0.2804  0.1928 -0.4055
  722MOL0     O95219   0.353   8.243   9.332 -0.2090 -0.0873  0.6557
  722MOL0     C95220   0.143   8.169   9.147  0.1900  0.1685 -0.0943
  722MOL0     C95221   0.052   8.124   9.052  0.2887 -0.9171  0.9522
  722MOL0     N95222  -0.503   7.847   8.847 -0.1674  0.3262 -0.4580
  722MOL0     N95223  -0.569   7.751   8.908 -0.4933 -0.2718  0.0712
  722MOL0     C95224  -0.069   7.362   9.293 -0.7934  0.1908 -0.0749
  722MOL0     C95225   0.033   7.406   9.370  0.1797  0.2586  0.5999
  722MOL0     C95226   0.433   7.518   9.523  0.3457  0.7293 -0.1436
  722MOL0     C95227   0.571   7.539   9.495 -1.0672  0.6612  0.1901
  722MOL0     C95228   0.666   7.584   9.585  0.3514  0.2628  0.3689
  722MOL0     C95229   0.629   7.617   9.717  0.3973 -0.4432  0.1407
  722MOL0     O95230   0.707   7.670   9.817  0.2433  0.6551  0.0358
  722MOL0     C95231   0.846   7.685   9.800 -0.2888  0.5624  0.3711
  722MOL0     C95232   0.904   7.695   9.937 -0.3413  0.0218 -0.5844
  722MOL0     C95233   1.047   7.745   9.952  0.5425 -0.1355 -0.1119
  722MOL0     C95234   1.069   7.898   9.934 -0.1100  0.2621 -1.3902
  722MOL0     C95235   1.183   7.964  10.015 -0.6173 -0.1272 -0.7073
  722MOL0     C95236   1.288   7.988  10.071  0.4647 -0.5369  1.1637
  722MOL0     C95237   0.497   7.585   9.752  0.7961 -0.0062  0.6362
  722MOL0     C95238   0.398   7.537   9.658 -0.1202  0.7690 -0.1052
  722MOL0     H95239   0.201   7.136   9.480  0.4719  1.7244 -0.0647
  722MOL0     H95240  -0.019   7.033   9.368 -0.1494  0.2757  0.5316
  722MOL0     H95241  -0.310   7.092   9.343 -0.1392 -1.8060  0.4765
  722MOL0     H95242  -0.208   6.975   9.262  0.4077 -0.2675 -1.0067
  722MOL0     H95243  -0.419   6.936   9.174  2.9978 -0.5963  2.8890
  722MOL0     H95244  -0.334   7.026   9.050  1.0744 -1.7385  1.0922
  722MOL0     H95245  -0.474   7.237   9.165  1.0664 -1.1543  0.9610
  722MOL0     H95246  -0.562   7.109   9.242  1.4824 -1.1800  0.1182
  722MOL0     H95247  -0.522   7.074   8.948 -0.4491 -3.2750  1.1895
  722MOL0     H95248  -0.651   7.024   9.056 -1.0623  1.1801 -0.8158
  722MOL0     H95249  -0.654   7.322   9.064 -1.1819  0.3415  0.3286
  722MOL0     H95250  -0.774   7.199   9.025 -1.7578  1.8976 -1.4507
  722MOL0     H95251  -0.755   7.309   8.805 -0.1653  0.5517  1.9401
  722MOL0     H95252  -0.645   7.189   8.777  0.4858 -0.4016  0.9397
  722MOL0     H95253  -0.443   7.342   8.816  1.1212 -0.4001  3.4099
  722MOL0     H95254  -0.565   7.395   8.701  1.6372  1.2049  0.7218
  722MOL0     H95255  -0.543   7.496   8.996 -2.0828  1.6118  1.2039
  722MOL0     H95256  -0.689   7.513   8.907 -0.0348  0.7002  2.4158
  722MOL0     H95257  -0.397   7.594   8.679 -2.0223 -1.8084 -0.5650
  722MOL0     H95258  -0.396   7.967   8.618  2.5160  4.0904  2.1411
  722MOL0     H95259  -0.318   7.822   8.559  1.5203  1.1973  0.5074
  722MOL0     H95260  -0.139   7.841   8.715  0.5974 -1.2322 -1.7522
  722MOL0     H95261  -0.226   7.955   8.823  2.1099  3.5781 -0.6825
  722MOL0     H95262  -0.141   8.026   8.534  1.2775  1.9268 -0.7114
  722MOL0     H95263  -0.226   8.132   8.650  0.5084  1.4228 -2.5372
  722MOL0     H95264   0.002   8.166   8.635  0.8942 -1.5025 -2.4243
  722MOL0     H95265   0.047   8.004   8.679  2.0870  2.3280  1.2922
  722MOL0     H95266   0.228   8.194   8.773  0.6004  2.3317 -0.2746
  722MOL0     H95267   0.396   8.255   8.932 -0.7434 -0.0352 -3.3531
  722MOL0     H95268   0.746   8.479   9.062  0.6410 -0.2878  0.5564
  722MOL0     H95269   0.953   8.641   9.251  0.5449 -0.1798 -3.2767
  722MOL0     H95270   0.989   8.466   9.715 -0.9712 -0.3138 -2.1984
  722MOL0     H95271   0.867   8.576   9.790  0.3970 -1.4974  0.3490
  722MOL0     H95272   1.084   8.599   9.894  0.1525 -3.1692 -0.4710
  722MOL0     H95273   1.041   8.750   9.799  0.9716 -0.1455 -0.3685
  722MOL0     H95274   1.180   8.685   9.610  1.0307 -1.3674 -0.2931
  722MOL0     H95275   1.233   8.539   9.686 -0.2669  0.8348  0.1735
  722MOL0     H95276   1.272   8.814   9.809  3.0609  0.5743  0.3674
  722MOL0     H95277   1.347   8.653   9.862  4.2394 -0.9099 -1.3446
  722MOL0     H95278   1.407   8.802   9.602  2.2140 -1.6138 -2.3317
  722MOL0     H95279   1.430   8.630   9.629  1.8082  0.7594 -0.8714
  722MOL0     H95280   1.570   8.717   9.844  0.6658  2.7157  1.2063
  722MOL0     H95281   1.530   8.877   9.774 -1.2980  0.1783 -2.6371
  722MOL0     H95282   1.696   8.665   9.636 -3.0075  0.2798 -1.8864
  722MOL0     H95283   1.688   8.839   9.590 -2.9413 -0.4330 -0.7840
  722MOL0     H95284   1.898   8.765   9.715  1.5804  1.7569  2.2571
  722MOL0     H95285   1.801   8.756   9.858  0.4919 -1.2555 -0.9226
  722MOL0     H95286   0.715   8.408   9.694 -0.7422  0.6922 -0.7033
  722MOL0     H95287   0.507   8.261   9.508  2.0598  0.0860  3.0157
  722MOL0     H95288   0.107   8.183   9.249 -2.0253  1.2102 -0.9506
  722MOL0     H95289  -0.042   8.081   9.084 -0.7242  1.4329  1.3356
  722MOL0     H95290  -0.138   7.427   9.242 -1.9740  1.3240  2.7739
  722MOL0     H95291   0.050   7.512   9.390 -0.9703  0.4853  0.4254
  722MOL0     H95292   0.605   7.524   9.393  2.8375  0.0265  1.4063
  722MOL0     H95293   0.766   7.600   9.547  0.7869  0.2526  1.4924
  722MOL0     H95294   0.861   7.778   9.745 -0.4969  0.3165 -0.1098
  722MOL0     H95295   0.889   7.605   9.739  2.5264  0.6554  2.0851
  722MOL0     H95296   0.846   7.763  10.000  3.2480  1.4456  1.4990
  722MOL0     H95297   0.909   7.595   9.982 -2.8340 -1.3777 -3.0820
  722MOL0     H95298   1.118   7.688   9.892  2.3933 -0.5793  2.3584
  722MOL0     H95299   1.081   7.719  10.052  1.8394  3.9895  0.7386
  722MOL0     H95300   1.089   7.911   9.828  1.0107  1.6855 -1.0342
  722MOL0     H95301   0.973   7.949   9.948 -0.5368 -0.5225 -1.3802
  722MOL0     H95302   1.374   8.024  10.123  0.4739 -0.1729  0.9000
  722MOL0     H95303   0.462   7.594   9.855 -2.4661  1.6557 -0.4947
  722MOL0     H95304   0.305   7.511   9.708  1.9650 -3.2394  2.1957
  723MOL0     O95305   0.953   6.420   9.505 -0.0538 -0.6001 -0.4735
  723MOL0     C95306   1.027   6.489   9.424 -0.2098  0.4129  0.1482
  723MOL0     O95307   1.002   6.509   9.291  0.8459  0.2896 -0.1552
  723MOL0     C95308   0.862   6.509   9.254  0.3271 -0.7507  0.6068
  723MOL0     C95309   0.754   6.531   9.339  0.7151  0.0622 -0.4111
  723MOL0     C95310   0.622   6.547   9.293 -0.1445 -0.5222 -0.5579
  723MOL0     C95311   0.609   6.535   9.152 -0.1653  0.2272  0.1224
  723MOL0     O95312   0.482   6.544   9.109 -0.0113 -0.0390 -0.2977
  723MOL0     C95313   0.425   6.435   9.035  0.0661  0.7658 -0.3675
  723MOL0     C95314   0.304   6.480   8.955  0.3215  0.1989  0.0544
  723MOL0     C95315   0.258   6.364   8.867  0.0433  0.7520  0.7257
  723MOL0     C95316   0.124   6.383   8.793  0.6198  0.5905  0.8267
  723MOL0     C95317   0.069   6.261   8.715  0.8861 -0.2592 -0.3927
  723MOL0     C95318  -0.084   6.255   8.704  0.8620 -1.2353  0.8987
  723MOL0     C95319  -0.137   6.372   8.619  0.1417  0.3338  0.1440
  723MOL0     C95320  -0.254   6.437   8.701 -1.0678  0.5353  0.0018
  723MOL0     N95321  -0.356   6.337   8.727  0.2849  0.0146  0.3179
  723MOL0     C95322  -0.443   6.281   8.636  0.2851 -0.7442  0.5834
  723MOL0     C95323  -0.527   6.205   8.707  0.1257 -0.5971  0.3174
  723MOL0     C95324  -0.643   6.132   8.644  0.0328  0.1122  0.0389
  723MOL0     C95325  -0.700   6.024   8.739  0.7620 -0.6611  0.3626
  723MOL0     C95326  -0.783   6.100   8.845 -0.6136 -0.1620  0.3103
  723MOL0     C95327  -0.856   6.005   8.947 -0.2037  0.4795  0.7829
  723MOL0     O95328  -0.978   5.938   8.894 -0.3372 -1.2479 -0.7131
  723MOL0     C95329  -1.088   6.010   8.864 -0.1109  0.1008  0.5226
  723MOL0     C95330  -1.185   5.950   8.781  0.3065  0.4040 -0.4015
  723MOL0     C95331  -1.302   6.015   8.747  0.1723  0.7448  0.2143
  723MOL0     C95332  -1.341   6.133   8.803  0.5247 -0.1901  0.4141
  723MOL0     C95333  -1.470   6.200   8.771  0.2633 -1.4941  0.4056
  723MOL0     O95334  -1.562   6.138   8.692 -0.0205  0.1303  0.1239
  723MOL0     C95335  -1.691   6.198   8.682 -0.4008 -0.0647 -0.1976
  723MOL0     C95336  -1.741   6.324   8.721  0.4141  0.3040 -0.2159
  723MOL0     C95337  -1.875   6.368   8.713 -0.2671  0.7581  0.2567
  723MOL0     C95338  -1.971   6.271   8.672  0.3379  0.3360 -0.0661
  723MOL0     O95339  -2.105   6.303   8.689 -0.7384  0.0795 -0.3569
  723MOL0     C95340  -2.194   6.248   8.592 -0.4055 -0.8894  0.2224
  723MOL0     C95341  -2.325   6.320   8.605 -0.9021  0.4304  0.0003
  723MOL0     C95342  -2.436   6.271   8.508 -0.8051  0.2873 -0.3884
  723MOL0     C95343  -2.568   6.346   8.507 -0.3397 -0.0455 -0.4994
  723MOL0     C95344  -2.666   6.264   8.418 -0.3827  0.5283  0.0832
  723MOL0     C95345  -2.806   6.318   8.444  0.3694  0.1291  1.1274
  723MOL0     C95346  -2.914   6.242   8.364  1.0430  0.6941  0.1487
  723MOL0     C95347  -3.038   6.326   8.352 -0.7640  0.5254 -0.6829
  723MOL0    Cl95348  -3.139   6.250   8.229  0.3584 -0.2051  0.2252
  723MOL0     C95349  -1.927   6.146   8.632  0.7963 -0.1746 -0.4269
  723MOL0     C95350  -1.792   6.110   8.640  0.3837 -0.0246 -0.6014
  723MOL0     O95351  -1.485   6.299   8.838  0.2018  0.5454 -0.2548
  723MOL0     C95352  -1.252   6.188   8.900 -0.3525 -0.6018  0.4761
  723MOL0     C95353  -1.128   6.122   8.935  0.2232  0.5748 -0.0054
  723MOL0     N95354  -0.485   6.211   8.839  0.3434 -0.6246 -0.4614
  723MOL0     N95355  -0.384   6.290   8.845  0.4288  0.5538 -0.4792
  723MOL0     C95356   0.720   6.535   9.067  0.5276  0.2271  0.3945
  723MOL0     C95357   0.842   6.505   9.116 -0.7032 -0.0888 -0.3500
  723MOL0     C95358   1.150   6.536   9.487  0.4858 -0.6391 -0.2988
  723MOL0     C95359   1.168   6.527   9.628  0.1323  0.1549 -0.7086
  723MOL0     C95360   1.286   6.567   9.687  0.2350 -0.0826  0.4930
  723MOL0     C95361   1.393   6.628   9.613  0.5590 -0.0028  0.3558
  723MOL0     O95362   1.508   6.670   9.674 -0.5333 -0.5836 -0.2410
  723MOL0     C95363   1.599   6.737   9.591  0.1217  0.1524  0.5347
  723MOL0     C95364   1.724   6.763   9.680  0.2649  0.8487  0.6170
  723MOL0     C95365   1.838   6.814   9.582  0.0260 -0.1145  0.2166
  723MOL0     C95366   1.887   6.698   9.506 -0.2218 -1.4941  0.7799
  723MOL0     C95367   2.010   6.731   9.439  0.7748 -0.0147 -0.4129
  723MOL0     C95368   2.116   6.720   9.385 -0.5546 -0.1888 -0.4520
  723MOL0     C95369   1.370   6.637   9.473  0.0500 -0.2840  0.1513
  723MOL0     C95370   1.260   6.580   9.413 -0.2839  0.1322  0.6787
  723MOL0     H95371   0.770   6.552   9.444 -1.0953  1.8861 -0.4284
  723MOL0     H95372   0.530   6.566   9.347 -0.5545  0.1158 -1.4681
  723MOL0     H95373   0.389   6.369   9.114  1.2568  1.4126  0.7501
  723MOL0     H95374   0.503   6.402   8.965 -0.8382  0.4982 -1.2728
  723MOL0     H95375   0.320   6.561   8.884  0.8004 -2.0545 -2.5394
  723MOL0     H95376   0.224   6.503   9.027 -0.2941  0.9194 -0.8389
  723MOL0     H95377   0.253   6.280   8.937  0.1928  0.4793  0.4081
  723MOL0     H95378   0.341   6.335   8.802 -3.2503 -1.9182 -2.7629
  723MOL0     H95379   0.051   6.404   8.871  0.0200 -0.1948  0.4960
  723MOL0     H95380   0.129   6.461   8.716  0.2165  0.6308  0.8412
  723MOL0     H95381   0.099   6.175   8.777  1.7730 -0.9239 -1.7020
  723MOL0     H95382   0.110   6.259   8.614 -0.3362 -0.8385 -0.8945
  723MOL0     H95383  -0.130   6.262   8.803 -2.4891  0.0302 -0.6113
  723MOL0     H95384  -0.098   6.155   8.661  3.3978 -1.3419  0.1657
  723MOL0     H95385  -0.062   6.449   8.600  1.6642 -0.7758  1.4067
  723MOL0     H95386  -0.176   6.351   8.519  1.6455 -0.6681 -0.2672
  723MOL0     H95387  -0.302   6.519   8.647  0.7242  3.1498  2.1437
  723MOL0     H95388  -0.216   6.477   8.795 -0.9576 -2.2996  1.2813
  723MOL0     H95389  -0.456   6.296   8.530 -4.5104 -1.4820  0.8721
  723MOL0     H95390  -0.602   6.083   8.556 -0.5939  3.1334 -2.0758
  723MOL0     H95391  -0.720   6.198   8.604 -0.8111  0.3880  1.9830
  723MOL0     H95392  -0.623   5.972   8.797 -2.4148 -2.1068  3.6957
  723MOL0     H95393  -0.755   5.954   8.676  0.8855  0.4063 -0.9669
  723MOL0     H95394  -0.719   6.171   8.899 -0.1507 -2.4266  2.9738
  723MOL0     H95395  -0.859   6.156   8.791 -0.0649 -1.0307 -1.4332
  723MOL0     H95396  -0.890   6.058   9.037 -0.4706 -1.4638  1.8915
  723MOL0     H95397  -0.790   5.925   8.982 -0.9811  0.1857  1.6122
  723MOL0     H95398  -1.159   5.853   8.740  2.7824  1.3303 -1.1625
  723MOL0     H95399  -1.362   5.961   8.674 -0.7130  0.1574  1.3493
  723MOL0     H95400  -1.684   6.407   8.763 -0.3153  0.0108  1.4187
  723MOL0     H95401  -1.898   6.471   8.740  1.6515  1.3273 -0.1755
  723MOL0     H95402  -2.216   6.144   8.618 -2.3891 -0.8744 -1.2057
  723MOL0     H95403  -2.155   6.257   8.490  1.7754  1.2384  1.1307
  723MOL0     H95404  -2.308   6.427   8.589  0.2110  0.2380 -0.1916
  723MOL0     H95405  -2.357   6.310   8.709  3.4658  3.1036  1.8698
  723MOL0     H95406  -2.451   6.169   8.544  1.5195 -1.1907 -3.1009
  723MOL0     H95407  -2.393   6.251   8.409  2.5183 -4.2502  1.5957
  723MOL0     H95408  -2.611   6.347   8.607 -0.5864  0.9606 -0.6042
  723MOL0     H95409  -2.539   6.449   8.485 -0.1870 -0.5221 -2.7843
  723MOL0     H95410  -2.661   6.159   8.447 -0.0210  0.8822  1.3607
  723MOL0     H95411  -2.650   6.259   8.310 -2.9327 -0.1351 -0.3332
  723MOL0     H95412  -2.815   6.424   8.419  1.4678 -0.3233 -1.5903
  723MOL0     H95413  -2.830   6.300   8.549  1.7554 -2.8861  1.0210
  723MOL0     H95414  -2.874   6.208   8.268 -2.1555 -0.7499 -0.8167
  723MOL0     H95415  -2.942   6.157   8.426 -0.0061 -0.6067 -1.9846
  723MOL0     H95416  -3.017   6.429   8.324  0.8919  0.3492 -0.1811
  723MOL0     H95417  -3.099   6.329   8.443  0.4095  2.4031  0.0921
  723MOL0     H95418  -2.000   6.068   8.610 -0.1239  0.0213  1.6369
  723MOL0     H95419  -1.770   6.009   8.607 -1.7574 -0.4978 -0.6889
  723MOL0     H95420  -1.269   6.280   8.955  3.0992 -1.0945  2.6394
  723MOL0     H95421  -1.071   6.165   9.017  2.6406 -2.0076 -0.1709
  723MOL0     H95422   0.716   6.535   8.958  0.5583  1.3300  0.3880
  723MOL0     H95423   0.924   6.497   9.046  0.9386 -0.0165  1.4743
  723MOL0     H95424   1.097   6.482   9.696 -2.5065  0.4696 -3.0696
  723MOL0     H95425   1.305   6.554   9.793  2.2596  0.7006  0.2569
  723MOL0     H95426   1.556   6.835   9.568 -1.0342 -0.0249  1.7733
  723MOL0     H95427   1.618   6.680   9.499 -3.5628 -1.3604  0.5347
  723MOL0     H95428   1.695   6.839   9.753 -0.3713  0.9425  0.2710
  723MOL0     H95429   1.757   6.671   9.729 -0.6768 -1.7298 -3.1566
  723MOL0     H95430   1.927   6.845   9.637  0.7693 -2.6806  0.5815
  723MOL0     H95431   1.810   6.897   9.516  0.1571 -1.9001 -2.2121
  723MOL0     H95432   1.910   6.609   9.565  0.8029 -2.3703 -0.8611
  723MOL0     H95433   1.820   6.674   9.423  1.0852  4.9918 -2.9076
  723MOL0     H95434   2.214   6.733   9.344 -0.9729  1.0899 -1.0839
  723MOL0     H95435   1.450   6.664   9.405  2.0928 -3.8307  0.9161
  723MOL0     H95436   1.265   6.575   9.304  0.2935 -2.1352  0.7663
  724MOL0     O95437  10.521  10.795   4.682  0.5914  0.1819  0.3788
  724MOL0     C95438  10.491  10.886   4.601  0.4997 -0.9790  0.2052
  724MOL0     O95439  10.556  11.009   4.595  0.1345 -0.8634 -0.0492
  724MOL0     C95440  10.679  11.029   4.653  0.0678  0.1602 -0.1415
  724MOL0     C95441  10.695  11.111   4.765 -0.0531 -0.0918 -0.2545
  724MOL0     C95442  10.823  11.137   4.817 -0.5034  1.0890 -0.7431
  724MOL0     C95443  10.937  11.075   4.760 -0.0137 -0.1074  1.3746
  724MOL0     O95444  11.050  11.097   4.824 -0.2175  0.2427  0.4008
  724MOL0     C95445  11.175  11.058   4.773  0.1211  0.1787 -0.7310
  724MOL0     C95446  11.287  11.128   4.863 -0.0400 -0.4634 -0.6920
  724MOL0     C95447  11.335  11.031   4.971 -0.4139  0.3577 -0.5141
  724MOL0     C95448  11.458  11.079   5.041  0.2823  0.7993 -0.5806
  724MOL0     C95449  11.546  10.962   5.085 -0.6955  1.2097 -0.0992
  724MOL0     C95450  11.671  11.006   5.178 -0.1043 -0.3689 -0.4228
  724MOL0     C95451  11.765  10.881   5.195 -0.4692 -0.2372 -0.5404
  724MOL0     C95452  11.861  10.880   5.319 -0.2579  0.6372 -0.4692
  724MOL0     N95453  11.993  10.951   5.278  0.1071 -0.3914  0.4597
  724MOL0     C95454  11.999  11.088   5.260  0.3875  0.6712  0.9158
  724MOL0     C95455  12.122  11.097   5.205  0.2954 -0.6432  0.7447
  724MOL0     C95456  12.198  11.227   5.157  0.1512 -0.1912 -0.0391
  724MOL0     C95457  12.114  11.340   5.129 -0.2336  0.9560 -0.5183
  724MOL0     C95458  12.078  11.420   5.259 -0.9644  0.3142 -0.2756
  724MOL0     C95459  11.958  11.507   5.240 -0.6366  0.7237 -0.3659
  724MOL0     O95460  11.844  11.426   5.253  0.1741 -0.0948 -0.5077
  724MOL0     C95461  11.720  11.471   5.224  0.4226 -0.1196  0.0726
  724MOL0     C95462  11.685  11.595   5.173  0.8387  0.1271 -0.2172
  724MOL0     C95463  11.547  11.618   5.138 -0.1493 -0.3900  0.7769
  724MOL0     C95464  11.441  11.528   5.160  0.6700 -0.4143 -0.2967
  724MOL0     C95465  11.299  11.557   5.117  0.1685  0.1518 -1.0824
  724MOL0     O95466  11.194  11.469   5.126 -0.2322 -0.0459 -1.2405
  724MOL0     C95467  11.062  11.500   5.099  1.6101 -0.5625 -0.0423
  724MOL0     C95468  10.985  11.587   5.170  0.0555  0.5974 -0.6029
  724MOL0     C95469  10.844  11.602   5.151 -0.1539 -0.9623  0.3069
  724MOL0     C95470  10.787  11.541   5.041  0.0749  0.3483 -0.4098
  724MOL0     O95471  10.661  11.563   4.996  0.0073 -0.1345 -0.1454
  724MOL0     C95472  10.576  11.627   5.083 -0.3803 -0.4756  0.2004
  724MOL0     C95473  10.454  11.649   4.998 -0.7610 -0.3579 -0.2952
  724MOL0     C95474  10.341  11.717   5.068  0.3274  1.0881  0.3626
  724MOL0     C95475  10.215  11.740   4.979 -0.8286 -0.3818 -0.1229
  724MOL0     C95476  10.121  11.823   5.063 -0.2548  0.6204  0.1823
  724MOL0     C95477  10.001  11.888   4.992  0.4707  0.0866 -0.7466
  724MOL0     C95478   9.902  11.936   5.102 -0.5937  0.4732 -0.7199
  724MOL0     C95479   9.784  12.019   5.043 -0.1248  0.4617 -0.0298
  724MOL0    Cl95480   9.668  12.049   5.182  0.0121  0.8387 -0.6842
  724MOL0     C95481  10.860  11.457   4.961 -0.1438  0.9300 -0.5291
  724MOL0     C95482  10.995  11.427   4.998 -1.0560 -0.1698  0.1213
  724MOL0     O95483  11.282  11.678   5.102 -0.7363 -0.4516  0.3413
  724MOL0     C95484  11.476  11.413   5.224  0.0187 -0.1127  0.5410
  724MOL0     C95485  11.612  11.385   5.253  1.0187 -0.5006  1.1785
  724MOL0     N95486  12.183  10.976   5.190  0.4297  0.2517 -0.4290
  724MOL0     N95487  12.103  10.890   5.239 -0.0269  0.3843 -0.3927
  724MOL0     C95488  10.922  10.995   4.639  0.3481 -0.3226 -0.8741
  724MOL0     C95489  10.790  10.970   4.592  0.2002 -0.3029 -0.1621
  724MOL0     C95490  10.376  10.871   4.509 -0.3230 -0.4002 -0.2763
  724MOL0     C95491  10.275  10.776   4.528  0.3673  0.5755  0.1148
  724MOL0     C95492  10.165  10.773   4.435 -0.0385  1.3797 -0.0942
  724MOL0     C95493  10.147  10.865   4.331 -0.5056  0.9142 -0.2661
  724MOL0     O95494  10.030  10.861   4.249 -0.0814 -0.8246 -0.4008
  724MOL0     C95495  10.003  10.966   4.155 -1.2395  0.1949  0.2728
  724MOL0     C95496   9.875  10.951   4.060 -0.2953  0.2348  0.1868
  724MOL0     C95497   9.746  10.992   4.127  0.3151  0.0840 -0.4657
  724MOL0     C95498   9.723  10.920   4.262  0.4498 -0.3268  0.0855
  724MOL0     C95499   9.578  10.880   4.256 -0.2366  0.3821 -0.8210
  724MOL0     C95500   9.461  10.856   4.243  0.4223  0.0533 -0.0889
  724MOL0     C95501  10.248  10.962   4.321  0.6335  0.5399  0.4429
  724MOL0     C95502  10.362  10.955   4.396  0.5459  0.3618  0.6416
  724MOL0     H95503  10.606  11.159   4.804 -1.7939 -1.4953 -2.2761
  724MOL0     H95504  10.840  11.200   4.903  1.6346 -1.9121  1.2147
  724MOL0     H95505  11.191  11.072   4.666 -0.8939  0.4361 -0.8561
  724MOL0     H95506  11.186  10.949   4.780  0.2166  0.2888  1.3120
  724MOL0     H95507  11.257  11.219   4.916  2.5168  0.3115 -0.4569
  724MOL0     H95508  11.361  11.148   4.786  0.5569  2.1028  0.4447
  724MOL0     H95509  11.346  10.936   4.918 -2.1219 -0.5143  0.6004
  724MOL0     H95510  11.249  11.023   5.039 -2.0756 -4.4289 -2.6824
  724MOL0     H95511  11.515  11.140   4.970  0.6236 -0.7081 -1.6529
  724MOL0     H95512  11.433  11.124   5.138  1.4818 -1.9244  1.1166
  724MOL0     H95513  11.588  10.918   4.994 -0.4454  0.4653  0.3648
  724MOL0     H95514  11.491  10.882   5.135  1.3005 -0.6722 -0.7658
  724MOL0     H95515  11.634  11.040   5.275  0.4779 -0.7681 -0.0521
  724MOL0     H95516  11.723  11.087   5.128  0.6093 -2.5888 -3.6048
  724MOL0     H95517  11.707  10.788   5.200  0.9894 -1.1976 -0.8881
  724MOL0     H95518  11.835  10.878   5.110  0.0072  0.6683 -0.1926
  724MOL0     H95519  11.881  10.778   5.350 -3.8149 -0.2942 -0.8667
  724MOL0     H95520  11.822  10.932   5.407 -1.7094 -1.0339 -0.0971
  724MOL0     H95521  11.939  11.178   5.275 -0.7572  0.1924 -0.5709
  724MOL0     H95522  12.246  11.216   5.059 -2.0199  1.2212 -1.3436
  724MOL0     H95523  12.269  11.252   5.236 -1.5945 -2.9927  2.6338
  724MOL0     H95524  12.019  11.303   5.090 -0.4128  1.2207 -0.3336
  724MOL0     H95525  12.168  11.401   5.056  1.0450 -0.0386 -0.4309
  724MOL0     H95526  12.047  11.347   5.335  0.4461  2.9567  3.1272
  724MOL0     H95527  12.163  11.477   5.296 -1.1896  0.7828 -0.4683
  724MOL0     H95528  11.980  11.553   5.143  2.5428  0.0371 -0.0885
  724MOL0     H95529  11.963  11.589   5.312 -2.3187 -0.3749  1.1037
  724MOL0     H95530  11.760  11.672   5.158  0.2510  1.0002  1.2095
  724MOL0     H95531  11.515  11.712   5.094 -2.1958 -1.1786  0.4511
  724MOL0     H95532  11.033  11.642   5.250  1.1635 -1.8330  0.5001
  724MOL0     H95533  10.792  11.666   5.222 -1.4094 -1.7869  0.1573
  724MOL0     H95534  10.609  11.722   5.125  1.7997 -1.1687  0.1647
  724MOL0     H95535  10.546  11.574   5.174 -3.2897 -0.8985 -0.8842
  724MOL0     H95536  10.415  11.555   4.959 -1.0700  0.3306 -1.7117
  724MOL0     H95537  10.492  11.707   4.913  1.1835 -0.5093  0.4154
  724MOL0     H95538  10.383  11.811   5.103 -0.5546  2.7553 -2.6954
  724MOL0     H95539  10.319  11.656   5.156 -1.1239  2.0140  0.6757
  724MOL0     H95540  10.246  11.798   4.892  2.9798 -2.3353 -0.2743
  724MOL0     H95541  10.168  11.646   4.950 -3.8293 -0.0768  3.0032
  724MOL0     H95542  10.178  11.905   5.107  0.4433 -0.3955  1.2301
  724MOL0     H95543  10.076  11.764   5.144 -1.8438  0.1379 -1.0080
  724MOL0     H95544   9.946  11.813   4.935 -2.0683  1.9180 -0.9008
  724MOL0     H95545  10.033  11.968   4.925 -2.4627  1.2191 -0.9390
  724MOL0     H95546   9.877  11.847   5.160  0.1110  0.2069 -0.8135
  724MOL0     H95547   9.961  11.998   5.169  1.4991 -1.3503 -0.7660
  724MOL0     H95548   9.729  11.964   4.966 -0.5007 -0.1898  0.6859
  724MOL0     H95549   9.832  12.111   5.011  2.5687 -1.4685 -2.0015
  724MOL0     H95550  10.823  11.403   4.875  3.5809 -5.4176  1.1323
  724MOL0     H95551  11.044  11.349   4.940 -0.9163 -1.1302  1.4819
  724MOL0     H95552  11.404  11.337   5.253  1.9248 -2.9059 -1.4578
  724MOL0     H95553  11.633  11.285   5.291  0.1667 -1.2641 -0.2961
  724MOL0     H95554  11.005  10.951   4.586 -0.0188 -2.2540  0.0799
  724MOL0     H95555  10.765  10.908   4.506 -1.4759  0.6160 -0.3826
  724MOL0     H95556  10.293  10.702   4.605 -0.0971  0.7791  0.4157
  724MOL0     H95557  10.088  10.697   4.442  1.3396  0.0697  1.6230
  724MOL0     H95558  10.082  10.971   4.079 -0.7211  0.0517  0.7876
  724MOL0     H95559  10.005  11.057   4.215  2.8883 -0.7000  1.8284
  724MOL0     H95560   9.890  11.025   3.980  0.7330  1.6753  1.6444
  724MOL0     H95561   9.864  10.861   4.000  0.8606  2.4700 -3.7648
  724MOL0     H95562   9.665  10.975   4.055  0.9923  3.8017 -2.3642
  724MOL0     H95563   9.753  11.101   4.137  2.2083  0.1702 -2.0748
  724MOL0     H95564   9.801  10.844   4.275  1.9222  0.5744 -2.6429
  724MOL0     H95565   9.731  10.983   4.352 -0.3823  0.3009 -0.2598
  724MOL0     H95566   9.356  10.831   4.237 -0.0634  2.2944 -3.6438
  724MOL0     H95567  10.235  11.030   4.237 -1.2842 -1.2067 -0.7710
  724MOL0     H95568  10.436  11.029   4.368  0.0931 -0.0905 -2.0943
  725MOL0     O95569   4.067   3.846   6.722 -0.7165  0.9730 -0.4751
  725MOL0     C95570   4.035   3.963   6.717  0.4213 -0.0797  0.5487
  725MOL0     O95571   3.909   4.021   6.726 -1.0484 -0.3253 -0.4950
  725MOL0     C95572   3.812   3.951   6.783 -0.0545 -0.1220  0.2942
  725MOL0     C95573   3.841   3.856   6.879 -0.2046 -0.4493  0.1610
  725MOL0     C95574   3.737   3.768   6.917 -0.0899 -0.5458 -0.3612
  725MOL0     C95575   3.609   3.779   6.852 -0.2855  0.1762  0.2138
  725MOL0     O95576   3.509   3.690   6.892 -0.8633  0.2296  0.7661
  725MOL0     C95577   3.381   3.688   6.818  0.9835 -0.2954 -0.0744
  725MOL0     C95578   3.286   3.580   6.848  0.2044 -0.7462  1.0206
  725MOL0     C95579   3.210   3.585   6.979 -0.9143 -0.3043 -0.0189
  725MOL0     C95580   3.116   3.457   6.993  0.1362 -1.0921 -0.0139
  725MOL0     C95581   3.042   3.436   7.131 -0.5522 -0.8912  0.0877
  725MOL0     C95582   2.946   3.551   7.175 -0.0926 -0.1175 -0.4731
  725MOL0     C95583   2.913   3.565   7.326 -0.0146  0.5582 -0.2732
  725MOL0     C95584   2.832   3.444   7.383  0.4513  0.4642  0.6221
  725MOL0     N95585   2.698   3.442   7.321  0.3446 -0.4843  0.5053
  725MOL0     C95586   2.612   3.338   7.319 -0.3911  0.3082  0.1035
  725MOL0     C95587   2.496   3.381   7.276  0.5307  0.2409  0.3402
  725MOL0     C95588   2.381   3.280   7.262  0.5934  0.1822  0.7369
  725MOL0     C95589   2.240   3.336   7.215  0.1660 -0.7425 -0.0803
  725MOL0     C95590   2.122   3.231   7.189  0.3914 -1.0254 -1.1996
  725MOL0     C95591   2.079   3.151   7.307  0.0109 -0.6564 -0.2416
  725MOL0     O95592   2.005   3.232   7.396 -0.3101  0.1374  0.0198
  725MOL0     C95593   1.871   3.214   7.399 -0.3134  0.4450 -0.0249
  725MOL0     C95594   1.798   3.189   7.285 -0.3433  0.5573 -0.2264
  725MOL0     C95595   1.666   3.163   7.296 -0.5745  1.0389 -0.5571
  725MOL0     C95596   1.592   3.170   7.417 -0.5020 -0.3944  0.3050
  725MOL0     C95597   1.455   3.138   7.410  0.4675  0.1373 -0.8308
  725MOL0     O95598   1.380   3.120   7.298  0.5871  0.7819  0.4606
  725MOL0     C95599   1.246   3.087   7.303  0.5656 -0.4748  0.0554
  725MOL0     C95600   1.190   2.993   7.214 -0.3671  0.6160 -0.4003
  725MOL0     C95601   1.047   2.966   7.219 -0.0863 -0.1129 -0.2045
  725MOL0     C95602   0.956   3.032   7.298  0.4735  0.6536 -0.1273
  725MOL0     O95603   0.828   2.990   7.299 -0.2021  0.0487  0.0409
  725MOL0     C95604   0.738   3.048   7.403 -1.3199  0.5628  0.5443
  725MOL0     C95605   0.651   3.161   7.339 -1.0176 -0.2645  0.4758
  725MOL0     C95606   0.518   3.177   7.430  0.2349 -0.9120 -0.0678
  725MOL0     C95607   0.412   3.253   7.345 -0.3384  0.3226 -0.2994
  725MOL0     C95608   0.294   3.295   7.421  0.3663 -1.2730 -0.0297
  725MOL0     C95609   0.200   3.175   7.466  0.9862  0.8555  0.2152
  725MOL0     C95610   0.161   3.095   7.350 -0.8977  0.1072 -0.0994
  725MOL0     C95611   0.063   2.987   7.381  0.6613 -0.3009 -0.1050
  725MOL0    Cl95612  -0.091   3.056   7.434 -0.1216  0.4183  0.5636
  725MOL0     C95613   1.008   3.132   7.373 -0.1468 -0.0185  0.5828
  725MOL0     C95614   1.145   3.157   7.379 -0.1969  1.5943  0.5484
  725MOL0     O95615   1.409   3.125   7.527  0.1777 -0.2008 -0.0114
  725MOL0     C95616   1.666   3.200   7.534  0.1331 -0.7209  0.5206
  725MOL0     C95617   1.800   3.224   7.519 -0.1758  0.0218 -0.2057
  725MOL0     N95618   2.504   3.514   7.260 -0.0420  0.2222 -0.7137
  725MOL0     N95619   2.621   3.553   7.292 -0.3929 -0.2690 -0.5044
  725MOL0     C95620   3.588   3.874   6.757  0.3120 -0.2008 -0.7366
  725MOL0     C95621   3.691   3.965   6.724  0.6760 -0.3982 -0.2392
  725MOL0     C95622   4.142   4.056   6.677  1.0234  0.4401 -0.2900
  725MOL0     C95623   4.272   4.017   6.648 -0.8793  0.3646 -0.9914
  725MOL0     C95624   4.362   4.120   6.609 -0.0258 -0.4103 -0.3643
  725MOL0     C95625   4.325   4.250   6.572  0.0136 -0.5707 -0.1770
  725MOL0     O95626   4.403   4.356   6.527  0.0743 -0.2512 -0.1917
  725MOL0     C95627   4.551   4.338   6.520  0.5943  0.4157 -0.3970
  725MOL0     C95628   4.599   4.256   6.397  0.1737 -0.0199 -0.0224
  725MOL0     C95629   4.754   4.236   6.398 -0.0290 -0.7695 -1.0180
  725MOL0     C95630   4.830   4.151   6.289 -0.3206 -0.0237 -0.1846
  725MOL0     C95631   4.976   4.193   6.300 -0.9434 -0.5974 -0.4724
  725MOL0     C95632   5.091   4.232   6.313  0.6416 -0.1418 -0.2377
  725MOL0     C95633   4.194   4.287   6.605  0.6723  0.6535 -0.2262
  725MOL0     C95634   4.102   4.193   6.659  0.1742 -0.1693 -0.1182
  725MOL0     H95635   3.940   3.853   6.924  0.5437  1.0244 -1.2753
  725MOL0     H95636   3.750   3.693   6.994  1.7371  0.2215  0.1417
  725MOL0     H95637   3.389   3.680   6.709 -2.3507 -1.4900 -0.3219
  725MOL0     H95638   3.325   3.782   6.828 -3.1178 -2.7254  2.7151
  725MOL0     H95639   3.351   3.492   6.847  2.1065  0.5806 -0.7902
  725MOL0     H95640   3.223   3.568   6.760 -0.0605 -1.3748  1.2948
  725MOL0     H95641   3.160   3.682   6.980  1.7197  1.2297 -2.7357
  725MOL0     H95642   3.273   3.574   7.068  0.7297 -3.3098 -1.4214
  725MOL0     H95643   3.054   3.455   6.903  0.9913 -1.2247 -0.6164
  725MOL0     H95644   3.181   3.372   6.971  1.7621  0.0850  0.0518
  725MOL0     H95645   3.113   3.421   7.212 -1.7732 -0.3312  1.2874
  725MOL0     H95646   2.980   3.346   7.120 -2.7972  0.6340 -0.3888
  725MOL0     H95647   2.845   3.546   7.133 -0.7312  0.7948  0.8495
  725MOL0     H95648   2.978   3.650   7.142 -3.5228  0.5749 -2.1546
  725MOL0     H95649   3.010   3.562   7.377  0.2157  2.5925 -0.5301
  725MOL0     H95650   2.861   3.659   7.344 -1.9216 -0.7327  1.4302
  725MOL0     H95651   2.814   3.455   7.490  2.5613  1.2937  0.9398
  725MOL0     H95652   2.884   3.351   7.357  0.4704  1.3259 -3.0282
  725MOL0     H95653   2.640   3.234   7.328 -2.1840 -0.1849  0.2161
  725MOL0     H95654   2.354   3.228   7.355 -1.2979  0.3977  0.3543
  725MOL0     H95655   2.401   3.196   7.194 -1.7909  0.1768 -0.0728
  725MOL0     H95656   2.254   3.387   7.120 -2.2644  0.9030  0.3662
  725MOL0     H95657   2.216   3.408   7.294  2.9059 -0.8423  0.9707
  725MOL0     H95658   2.035   3.288   7.155  0.2641  0.3575  1.2313
  725MOL0     H95659   2.151   3.163   7.109  2.8514 -0.1040 -1.1981
  725MOL0     H95660   2.172   3.112   7.350  1.1232  0.4145 -1.5805
  725MOL0     H95661   2.033   3.057   7.276  3.4443 -3.7588  3.0554
  725MOL0     H95662   1.847   3.182   7.188 -2.0445 -0.1002 -1.0933
  725MOL0     H95663   1.622   3.132   7.202 -0.0379 -5.2356  0.8038
  725MOL0     H95664   1.258   2.932   7.156 -0.0237  0.0408  0.5992
  725MOL0     H95665   1.019   2.877   7.162  0.3807 -1.7261  1.9557
  725MOL0     H95666   0.791   3.077   7.493  0.1635 -4.1879  1.5193
  725MOL0     H95667   0.676   2.962   7.429  0.3071 -0.3023  1.7326
  725MOL0     H95668   0.620   3.150   7.235 -3.8800 -3.0398  1.4745
  725MOL0     H95669   0.716   3.249   7.341 -1.5038  0.0904  1.4903
  725MOL0     H95670   0.544   3.235   7.519 -1.9268 -0.8156  0.5633
  725MOL0     H95671   0.477   3.079   7.455 -1.1285 -0.8983 -2.0130
  725MOL0     H95672   0.463   3.338   7.297 -1.3843  0.4870 -1.1544
  725MOL0     H95673   0.373   3.194   7.262 -1.2970  1.0652 -0.3916
  725MOL0     H95674   0.240   3.373   7.366  0.2874  1.0775  3.1200
  725MOL0     H95675   0.328   3.351   7.508  1.4719 -1.3474 -0.3947
  725MOL0     H95676   0.110   3.225   7.504 -0.4326 -0.5263 -1.1387
  725MOL0     H95677   0.250   3.110   7.538  2.6265  1.5645 -0.2540
  725MOL0     H95678   0.129   3.161   7.269  1.7151  2.7193  0.8307
  725MOL0     H95679   0.249   3.038   7.322 -0.2977 -0.8668  3.2716
  725MOL0     H95680   0.093   2.918   7.460 -1.2344 -0.6867  0.3205
  725MOL0     H95681   0.044   2.929   7.290  2.1907  0.5224 -0.9953
  725MOL0     H95682   0.951   3.195   7.441 -0.0428 -0.3464  0.9831
  725MOL0     H95683   1.184   3.240   7.438  2.7634  0.8753 -0.2269
  725MOL0     H95684   1.635   3.192   7.638  0.3262 -0.1173  0.6285
  725MOL0     H95685   1.855   3.239   7.612 -0.8919 -0.5794  0.3305
  725MOL0     H95686   3.486   3.895   6.726 -0.0076 -0.3397  0.1644
  725MOL0     H95687   3.651   4.037   6.653  1.0639  2.5368  2.3105
  725MOL0     H95688   4.293   3.911   6.658 -0.3513  0.2821 -2.6670
  725MOL0     H95689   4.464   4.082   6.612 -0.4128 -1.4703  2.1597
  725MOL0     H95690   4.587   4.273   6.601  0.8371 -0.9521 -1.5675
  725MOL0     H95691   4.603   4.434   6.520  0.3816  0.6186  2.3949
  725MOL0     H95692   4.551   4.158   6.383  2.5036 -0.9633 -2.0920
  725MOL0     H95693   4.568   4.311   6.308  1.8852  0.0833 -0.5915
  725MOL0     H95694   4.779   4.191   6.495  2.5457  0.6843 -0.9141
  725MOL0     H95695   4.802   4.334   6.400 -0.1980 -0.5823  3.4175
  725MOL0     H95696   4.826   4.047   6.323  1.8002  0.6936  2.7348
  725MOL0     H95697   4.786   4.166   6.190 -1.1493 -0.9625  0.0338
  725MOL0     H95698   5.189   4.275   6.302  0.6904  0.1891  1.2847
  725MOL0     H95699   4.160   4.389   6.587 -1.0589  0.1145 -0.1829
  725MOL0     H95700   4.001   4.222   6.685  0.4689 -0.3403  1.2779
  726MOL0     O95701   0.740   6.785   8.605 -0.0086 -0.0838  0.5952
  726MOL0     C95702   0.698   6.770   8.721  0.4479  0.3919  0.1794
  726MOL0     O95703   0.611   6.681   8.752  0.3473 -1.1917  0.0511
  726MOL0     C95704   0.498   6.663   8.684  0.4152 -0.0779 -0.5466
  726MOL0     C95705   0.468   6.549   8.623  0.2954  0.5244  0.5225
  726MOL0     C95706   0.346   6.524   8.545 -0.0807  1.0955  0.0642
  726MOL0     C95707   0.263   6.632   8.522 -0.2329  0.1047 -0.7933
  726MOL0     O95708   0.138   6.604   8.470  0.1389  0.5832 -0.0315
  726MOL0     C95709   0.075   6.705   8.391  0.6678  0.1513 -0.2333
  726MOL0     C95710  -0.052   6.641   8.333 -0.2290 -0.3386  0.3175
  726MOL0     C95711  -0.179   6.669   8.408 -0.2783  0.5208  0.1414
  726MOL0     C95712  -0.320   6.601   8.356  0.2982  0.6981 -0.1561
  726MOL0     C95713  -0.447   6.645   8.427 -0.9765 -0.5306  0.4981
  726MOL0     C95714  -0.563   6.558   8.392  0.8302  1.0475 -0.0445
  726MOL0     C95715  -0.698   6.612   8.449  1.0041  0.2497  0.5693
  726MOL0     C95716  -0.826   6.578   8.364  0.0579 -0.8262 -0.5477
  726MOL0     N95717  -0.853   6.437   8.327 -0.5857  0.7476 -0.0478
  726MOL0     C95718  -0.905   6.339   8.412 -0.0084  0.0729 -0.6441
  726MOL0     C95719  -0.909   6.226   8.340  1.1568 -0.4055 -0.2834
  726MOL0     C95720  -0.969   6.092   8.384  0.3475  0.2657 -0.2673
  726MOL0     C95721  -1.113   6.087   8.434  0.0668  0.5364  0.0452
  726MOL0     C95722  -1.198   6.137   8.319  0.7212 -0.3870 -0.3658
  726MOL0     C95723  -1.344   6.111   8.354  1.0323  0.0631  0.7179
  726MOL0     O95724  -1.382   5.973   8.348  0.7427 -0.0403 -0.1834
  726MOL0     C95725  -1.518   5.940   8.364  0.4182  0.0565  0.5710
  726MOL0     C95726  -1.556   5.803   8.348 -0.4046 -0.2080 -0.0857
  726MOL0     C95727  -1.691   5.770   8.334 -0.1131  0.0065  0.8023
  726MOL0     C95728  -1.798   5.867   8.315  0.1011 -0.4885  0.5281
  726MOL0     C95729  -1.943   5.815   8.307 -0.5430  0.2332 -0.7280
  726MOL0     O95730  -2.042   5.909   8.312 -0.1567 -0.7333  0.9602
  726MOL0     C95731  -2.177   5.889   8.278 -0.0607 -0.3061  0.4289
  726MOL0     C95732  -2.242   5.772   8.238  0.5134 -0.2698  0.0235
  726MOL0     C95733  -2.378   5.762   8.214  0.4375 -0.5220 -1.0012
  726MOL0     C95734  -2.453   5.878   8.214  0.6911  0.1597 -0.5496
  726MOL0     O95735  -2.581   5.860   8.162 -0.2482  0.1846  0.2028
  726MOL0     C95736  -2.671   5.972   8.130 -0.1033  0.5792 -0.7321
  726MOL0     C95737  -2.819   5.919   8.115  1.3528  0.6893 -0.1595
  726MOL0     C95738  -2.843   5.822   8.005  0.9628 -0.2186  0.3853
  726MOL0     C95739  -2.987   5.778   8.003  0.4813  0.8694 -0.1863
  726MOL0     C95740  -3.080   5.880   7.937  0.3240  0.0996  0.4600
  726MOL0     C95741  -3.178   5.825   7.836  0.9296  0.8564 -0.0666
  726MOL0     C95742  -3.293   5.733   7.891 -0.0604 -0.7901  0.3397
  726MOL0     C95743  -3.378   5.666   7.792 -1.4124 -0.4686 -0.0788
  726MOL0    Cl95744  -3.514   5.586   7.875 -0.3980  0.2365 -0.5414
  726MOL0     C95745  -2.400   6.001   8.256  0.8483  0.9386 -0.5531
  726MOL0     C95746  -2.260   6.000   8.284 -0.3500 -0.0648 -1.0898
  726MOL0     O95747  -1.971   5.693   8.307 -0.4962 -0.0539  0.7667
  726MOL0     C95748  -1.759   6.005   8.317 -0.5239  0.9818  0.6519
  726MOL0     C95749  -1.618   6.042   8.351  0.1970  0.0953  0.0618
  726MOL0     N95750  -0.878   6.268   8.214 -0.1534  0.3439  0.8658
  726MOL0     N95751  -0.827   6.384   8.203 -0.5217 -0.2593  0.4421
  726MOL0     C95752   0.294   6.754   8.582 -0.6240 -0.8334 -0.2871
  726MOL0     C95753   0.416   6.771   8.654  0.9371 -0.0377 -0.4718
  726MOL0     C95754   0.773   6.844   8.832 -0.1659  0.2219  0.3055
  726MOL0     C95755   0.886   6.930   8.807  0.6963  0.6928  0.1791
  726MOL0     C95756   0.957   6.996   8.917  0.3538  0.2466  0.3869
  726MOL0     C95757   0.923   6.971   9.048  0.4199 -0.2211 -0.1629
  726MOL0     O95758   0.981   7.011   9.166  0.1601 -0.0513 -0.5257
  726MOL0     C95759   1.062   7.126   9.164  0.7127  0.4388 -0.0892
  726MOL0     C95760   0.985   7.258   9.158  0.7788  0.4837  0.4371
  726MOL0     C95761   1.070   7.370   9.092 -0.4820  0.6636  0.3103
  726MOL0     C95762   1.161   7.443   9.195 -0.6802 -0.0064  0.4865
  726MOL0     C95763   1.289   7.381   9.221 -0.6298 -0.0617 -0.2926
  726MOL0     C95764   1.398   7.330   9.252 -0.4319  0.4274  0.6266
  726MOL0     C95765   0.812   6.890   9.067  0.8946  0.3271 -0.7123
  726MOL0     C95766   0.728   6.830   8.969  0.5734 -1.0306  0.6788
  726MOL0     H95767   0.530   6.463   8.648  0.6927  1.0972  1.6355
  726MOL0     H95768   0.316   6.424   8.518  1.0163  0.5909  0.6345
  726MOL0     H95769   0.145   6.744   8.317 -0.5154  2.6575 -0.1330
  726MOL0     H95770   0.048   6.786   8.460 -1.0394  1.7191 -2.5893
  726MOL0     H95771  -0.036   6.534   8.322  1.9097 -0.2549  1.9083
  726MOL0     H95772  -0.065   6.686   8.234  0.0451  1.6289  1.1306
  726MOL0     H95773  -0.191   6.778   8.401 -0.0891  0.6548  1.5048
  726MOL0     H95774  -0.163   6.642   8.513  0.9145 -1.1708 -0.4395
  726MOL0     H95775  -0.315   6.609   8.247  0.8056 -3.5294 -0.6274
  726MOL0     H95776  -0.308   6.492   8.362  2.3762  0.9554  1.3455
  726MOL0     H95777  -0.461   6.751   8.400  2.5432  0.1947  1.0086
  726MOL0     H95778  -0.431   6.655   8.534  0.2453  1.8436  0.1738
  726MOL0     H95779  -0.551   6.451   8.411 -1.8402  0.7949  0.6816
  726MOL0     H95780  -0.585   6.567   8.286 -1.7888  1.1851  0.4321
  726MOL0     H95781  -0.707   6.578   8.552  0.4260 -1.2500  0.0644
  726MOL0     H95782  -0.696   6.721   8.447  2.2586  0.2331 -0.8410
  726MOL0     H95783  -0.819   6.639   8.273 -0.7098  1.7624  1.0323
  726MOL0     H95784  -0.909   6.631   8.411  1.7953  0.8604  0.7450
  726MOL0     H95785  -0.930   6.352   8.517 -0.1678  0.7341 -0.7570
  726MOL0     H95786  -0.899   6.050   8.457 -2.0790 -1.9288  0.9748
  726MOL0     H95787  -0.962   6.028   8.296 -1.0855 -2.1752  1.2768
  726MOL0     H95788  -1.138   6.141   8.526 -1.9953 -0.6618  0.2337
  726MOL0     H95789  -1.133   5.980   8.443  1.2556  0.0015 -2.5739
  726MOL0     H95790  -1.180   6.244   8.307 -2.0761  0.0386 -1.4320
  726MOL0     H95791  -1.177   6.084   8.226 -0.4527 -2.3375  0.4266
  726MOL0     H95792  -1.400   6.174   8.285 -0.0887  0.0462  1.5880
  726MOL0     H95793  -1.368   6.148   8.454  0.3996 -2.2304  1.4755
  726MOL0     H95794  -1.470   5.737   8.357 -0.3691 -0.4086 -1.6849
  726MOL0     H95795  -1.724   5.666   8.335 -1.1994  0.3321  0.2178
  726MOL0     H95796  -2.191   5.676   8.234  3.5131  1.1928  0.3688
  726MOL0     H95797  -2.412   5.667   8.174 -1.4969  0.1857 -1.1327
  726MOL0     H95798  -2.641   6.020   8.036  0.2572  1.6981 -0.0490
  726MOL0     H95799  -2.665   6.043   8.212  2.4173  0.1523 -0.4727
  726MOL0     H95800  -2.887   6.002   8.096  3.4652  2.4048 -0.7360
  726MOL0     H95801  -2.844   5.872   8.210  3.6609  0.9485  0.6390
  726MOL0     H95802  -2.774   5.738   8.000  0.3350 -0.7115 -0.0493
  726MOL0     H95803  -2.821   5.878   7.913 -2.1110 -1.4535 -1.2558
  726MOL0     H95804  -2.989   5.691   7.937  2.4950 -0.6702  1.6531
  726MOL0     H95805  -3.024   5.740   8.098  2.5364  4.4147  2.2644
  726MOL0     H95806  -3.027   5.962   7.888 -2.7629  1.7559 -0.3269
  726MOL0     H95807  -3.133   5.933   8.016  1.6120  0.8945  0.8230
  726MOL0     H95808  -3.121   5.772   7.759  1.1910  2.4126 -0.9952
  726MOL0     H95809  -3.237   5.905   7.789 -0.4268 -0.1786 -0.2127
  726MOL0     H95810  -3.242   5.656   7.950  3.5703 -1.9638 -3.7462
  726MOL0     H95811  -3.358   5.794   7.954  0.8701  2.3466 -1.5197
  726MOL0     H95812  -3.322   5.592   7.734  2.4044  0.5232  1.9545
  726MOL0     H95813  -3.413   5.737   7.716  1.4965 -0.7924 -1.8755
  726MOL0     H95814  -2.457   6.093   8.265  0.8127  0.7202  2.4084
  726MOL0     H95815  -2.212   6.094   8.308 -1.4395  0.3126 -0.3343
  726MOL0     H95816  -1.831   6.086   8.312 -0.4728  1.0174  0.4949
  726MOL0     H95817  -1.602   6.150   8.345  1.7497 -0.0885  0.5577
  726MOL0     H95818   0.226   6.839   8.577  0.3157 -0.1488 -2.6993
  726MOL0     H95819   0.441   6.864   8.705  0.5087  1.1416 -2.3328
  726MOL0     H95820   0.921   6.959   8.708  1.5382  0.0799  0.2886
  726MOL0     H95821   1.052   7.047   8.908  1.2917 -1.6419 -0.9890
  726MOL0     H95822   1.139   7.123   9.086  0.5431 -0.4810 -0.2261
  726MOL0     H95823   1.117   7.132   9.258 -2.3016  1.6824  1.7181
  726MOL0     H95824   0.894   7.238   9.100 -0.1500  2.1928  1.2481
  726MOL0     H95825   0.939   7.292   9.251  1.1812  5.2292 -0.8192
  726MOL0     H95826   1.001   7.449   9.058 -0.9918 -0.4575 -1.3697
  726MOL0     H95827   1.123   7.336   9.003  1.2801  1.1575  1.1393
  726MOL0     H95828   1.176   7.547   9.166  3.6074  0.3331  3.0236
  726MOL0     H95829   1.108   7.451   9.290  1.3600  0.7340  1.6290
  726MOL0     H95830   1.482   7.290   9.305 -0.1276  1.0884  0.6448
  726MOL0     H95831   0.778   6.863   9.166 -1.8523  3.0807 -0.7282
  726MOL0     H95832   0.633   6.790   9.002  0.6656 -1.0105  0.9686
  727MOL0     O95833   0.063   2.842   0.967 -0.0645  0.2696 -0.4833
  727MOL0     C95834   0.102   2.738   1.015 -0.0722  0.3871 -0.6583
  727MOL0     O95835   0.030   2.626   1.056  0.7316 -0.1571  0.1303
  727MOL0     C95836  -0.104   2.638   1.064 -0.2837 -0.2621 -0.1729
  727MOL0     C95837  -0.188   2.571   0.975 -0.1207 -0.0532  0.4013
  727MOL0     C95838  -0.326   2.575   0.997  0.9793 -0.7183 -0.0589
  727MOL0     C95839  -0.381   2.648   1.107 -0.8009 -0.1965  1.0803
  727MOL0     O95840  -0.515   2.642   1.117  0.9971  0.0939  0.1354
  727MOL0     C95841  -0.576   2.738   1.213  0.1763 -0.6679 -0.0100
  727MOL0     C95842  -0.722   2.708   1.187  0.4169 -0.0597 -0.8106
  727MOL0     C95843  -0.811   2.789   1.292  0.0174 -0.5925 -0.1951
  727MOL0     C95844  -0.961   2.810   1.266 -0.0411 -0.9330  0.7877
  727MOL0     C95845  -1.042   2.672   1.254 -0.3853  0.1143 -0.2516
  727MOL0     C95846  -1.188   2.704   1.211  0.0678 -0.7372  0.2163
  727MOL0     C95847  -1.283   2.741   1.323  0.3029 -0.0577  0.0311
  727MOL0     C95848  -1.324   2.615   1.395 -0.1813 -0.5578  0.4801
  727MOL0     N95849  -1.444   2.619   1.479 -0.4030 -0.7401  0.4702
  727MOL0     C95850  -1.448   2.699   1.592 -0.2763  0.1038 -0.4027
  727MOL0     C95851  -1.569   2.670   1.645 -1.1522  0.6252  0.0961
  727MOL0     C95852  -1.634   2.722   1.770  0.0056 -0.0482 -0.2617
  727MOL0     C95853  -1.727   2.837   1.731 -0.2572 -0.9389  0.0412
  727MOL0     C95854  -1.776   2.929   1.847 -0.6991 -0.1631 -0.1626
  727MOL0     C95855  -1.915   2.976   1.833  0.4874 -0.4227 -0.9951
  727MOL0     O95856  -2.001   2.863   1.867  0.0758 -0.3484  0.5076
  727MOL0     C95857  -2.114   2.839   1.789 -0.1929 -0.6127  0.0168
  727MOL0     C95858  -2.143   2.706   1.749  0.0978 -0.0448  0.8154
  727MOL0     C95859  -2.249   2.693   1.654 -0.9626 -0.1083  0.1336
  727MOL0     C95860  -2.318   2.804   1.604 -0.0948  0.0656 -1.1219
  727MOL0     C95861  -2.441   2.783   1.522 -0.3328 -0.3645 -0.1074
  727MOL0     O95862  -2.500   2.662   1.527  0.0457  0.6986 -0.1509
  727MOL0     C95863  -2.606   2.646   1.440  0.8113 -0.0367  0.1519
  727MOL0     C95864  -2.593   2.636   1.298 -0.8208 -0.7390  0.2374
  727MOL0     C95865  -2.706   2.609   1.219  0.3049 -0.3694  0.2328
  727MOL0     C95866  -2.835   2.600   1.275 -0.0034 -0.2023  0.3537
  727MOL0     O95867  -2.956   2.596   1.215  0.9716 -0.0398 -0.0716
  727MOL0     C95868  -2.962   2.623   1.074 -0.1876 -1.1271  0.3614
  727MOL0     C95869  -3.097   2.685   1.051  0.0351  0.1815 -0.4161
  727MOL0     C95870  -3.210   2.584   1.090  0.9844 -0.4332  0.4651
  727MOL0     C95871  -3.343   2.661   1.066  0.5745  0.0477 -0.2190
  727MOL0     C95872  -3.467   2.582   1.101  0.2168 -0.1031  0.4587
  727MOL0     C95873  -3.612   2.634   1.060  0.1031 -0.6973  0.1473
  727MOL0     C95874  -3.644   2.621   0.910 -0.1296 -0.0523  0.4740
  727MOL0     C95875  -3.794   2.662   0.900 -0.3504 -0.4204 -0.1072
  727MOL0    Cl95876  -3.844   2.655   0.733  0.2266 -0.4532 -0.0422
  727MOL0     C95877  -2.847   2.620   1.416 -0.0546 -0.1346  0.9035
  727MOL0     C95878  -2.733   2.632   1.497 -0.3692 -0.8641  0.6666
  727MOL0     O95879  -2.479   2.881   1.465 -0.0285 -1.3347  0.6546
  727MOL0     C95880  -2.287   2.931   1.655  0.0714 -0.0942 -0.8403
  727MOL0     C95881  -2.188   2.952   1.751  0.5485  0.2895  1.2285
  727MOL0     N95882  -1.636   2.580   1.557 -0.5397 -0.6931 -0.4385
  727MOL0     N95883  -1.558   2.544   1.464 -0.5891 -0.1684 -0.2906
  727MOL0     C95884  -0.292   2.705   1.198  0.3998 -0.4018  0.2600
  727MOL0     C95885  -0.155   2.710   1.165  0.8837  0.8500  0.5962
  727MOL0     C95886   0.249   2.723   1.028 -0.3494 -0.2310 -0.2208
  727MOL0     C95887   0.304   2.638   1.120  0.9015  0.0624 -0.0751
  727MOL0     C95888   0.439   2.614   1.119  0.1103 -0.9596 -0.9224
  727MOL0     C95889   0.518   2.679   1.027  0.4042 -0.6781 -0.5264
  727MOL0     O95890   0.652   2.664   1.034 -0.1344 -0.2854 -0.1865
  727MOL0     C95891   0.721   2.612   0.916  1.5927  0.1600  0.2774
  727MOL0     C95892   0.818   2.715   0.854  0.4145 -0.3753 -0.1895
  727MOL0     C95893   0.932   2.754   0.956 -0.1332 -0.1821  0.6399
  727MOL0     C95894   1.011   2.884   0.920 -0.1675 -1.3319 -0.6701
  727MOL0     C95895   1.063   2.905   0.782  0.7523 -0.3610  0.1580
  727MOL0     C95896   1.091   2.945   0.668  0.3378  0.0144 -0.4354
  727MOL0     C95897   0.466   2.769   0.941 -0.9793  0.6014 -0.0785
  727MOL0     C95898   0.333   2.794   0.943  0.4899 -0.0873 -0.5620
  727MOL0     H95899  -0.145   2.512   0.895 -1.4193 -3.6818  2.1533
  727MOL0     H95900  -0.393   2.527   0.926  3.5586 -0.9482 -2.5093
  727MOL0     H95901  -0.540   2.838   1.189  0.7548 -1.0327 -0.6957
  727MOL0     H95902  -0.556   2.709   1.317  0.5164 -0.5437 -0.0413
  727MOL0     H95903  -0.742   2.601   1.199  1.1655 -0.0665  0.4558
  727MOL0     H95904  -0.740   2.746   1.086  1.1847 -0.5895 -1.1566
  727MOL0     H95905  -0.773   2.892   1.296 -0.1332 -0.5421 -0.0540
  727MOL0     H95906  -0.795   2.743   1.390 -0.9037 -0.5653 -0.0289
  727MOL0     H95907  -0.992   2.872   1.350 -0.4682 -4.0355  3.0843
  727MOL0     H95908  -0.976   2.861   1.171 -1.7881 -1.1713  0.9023
  727MOL0     H95909  -1.044   2.630   1.356  1.3263 -1.2455 -0.7244
  727MOL0     H95910  -0.984   2.607   1.188 -0.0860  1.3543 -1.2456
  727MOL0     H95911  -1.228   2.617   1.157 -2.9357  2.3533 -3.1231
  727MOL0     H95912  -1.166   2.785   1.140 -0.5294 -0.1294  0.7090
  727MOL0     H95913  -1.239   2.813   1.392 -0.4128  0.4989 -0.0827
  727MOL0     H95914  -1.369   2.790   1.275  1.1517  0.7237 -0.7334
  727MOL0     H95915  -1.238   2.573   1.450 -1.0693 -3.5154 -0.2080
  727MOL0     H95916  -1.352   2.551   1.311 -3.3248  1.5118 -0.2156
  727MOL0     H95917  -1.373   2.770   1.625  2.6873 -2.3537 -1.3576
  727MOL0     H95918  -1.569   2.761   1.849 -2.0954  2.3727  0.4125
  727MOL0     H95919  -1.690   2.639   1.812 -0.5162  1.2596  1.7512
  727MOL0     H95920  -1.820   2.790   1.697 -1.3378  0.9703  0.2247
  727MOL0     H95921  -1.688   2.893   1.644 -0.6430 -0.2511  0.3027
  727MOL0     H95922  -1.771   2.869   1.939 -2.7225 -0.4859 -0.2063
  727MOL0     H95923  -1.714   3.019   1.839  0.5176 -0.9364  0.2397
  727MOL0     H95924  -1.927   3.022   1.734 -1.1901  2.4454  0.4450
  727MOL0     H95925  -1.927   3.052   1.910 -3.3715 -0.7711 -1.0749
  727MOL0     H95926  -2.082   2.618   1.769  1.0641  0.2672 -0.5909
  727MOL0     H95927  -2.279   2.602   1.603 -1.0495  1.3969 -2.7172
  727MOL0     H95928  -2.498   2.640   1.246 -1.0410 -2.2838 -0.3475
  727MOL0     H95929  -2.687   2.591   1.114 -0.7963  2.5212 -0.5706
  727MOL0     H95930  -2.948   2.536   1.010  1.6242  1.7181 -3.4733
  727MOL0     H95931  -2.885   2.694   1.043  1.8150 -3.3894 -0.1529
  727MOL0     H95932  -3.113   2.710   0.946 -0.4201  2.3930  0.1188
  727MOL0     H95933  -3.101   2.778   1.108 -0.6185  0.3113 -0.6636
  727MOL0     H95934  -3.198   2.540   1.189  2.9103  1.2725  1.0470
  727MOL0     H95935  -3.200   2.503   1.016  0.4149  1.4673 -1.8141
  727MOL0     H95936  -3.351   2.750   1.128 -2.2075 -0.6937  0.6104
  727MOL0     H95937  -3.354   2.692   0.962 -0.7653 -1.5123 -0.5892
  727MOL0     H95938  -3.454   2.558   1.207  1.9864 -3.7149 -0.4061
  727MOL0     H95939  -3.453   2.486   1.050  0.0427 -0.5440  1.2264
  727MOL0     H95940  -3.606   2.739   1.089  0.5853 -1.0641  1.4277
  727MOL0     H95941  -3.676   2.577   1.127  0.2001  2.6137  3.4158
  727MOL0     H95942  -3.586   2.696   0.857  2.1883 -1.6134  0.6726
  727MOL0     H95943  -3.626   2.524   0.864  2.9943 -0.4749  2.2666
  727MOL0     H95944  -3.793   2.766   0.934 -0.6826 -0.7506  0.9518
  727MOL0     H95945  -3.857   2.593   0.957  1.6691 -4.5395 -2.4126
  727MOL0     H95946  -2.937   2.627   1.476  1.1055  0.9885  2.5926
  727MOL0     H95947  -2.746   2.652   1.603  1.7500  1.8783  0.5459
  727MOL0     H95948  -2.350   3.012   1.621 -0.9467 -1.3396 -2.0509
  727MOL0     H95949  -2.155   3.050   1.783 -1.2277  2.0288 -1.7550
  727MOL0     H95950  -0.322   2.755   1.289 -1.1187  0.2812 -0.5801
  727MOL0     H95951  -0.081   2.758   1.229  0.8687  3.2202 -1.0063
  727MOL0     H95952   0.232   2.581   1.178  0.5113 -1.0392 -1.5796
  727MOL0     H95953   0.473   2.538   1.188  0.4965  0.6867  0.7890
  727MOL0     H95954   0.655   2.582   0.835  1.1681  2.0944 -0.1443
  727MOL0     H95955   0.775   2.524   0.952  2.5439  1.0851  1.1728
  727MOL0     H95956   0.866   2.669   0.767  1.9258  0.7102  0.0311
  727MOL0     H95957   0.765   2.808   0.835  0.2132 -0.9120 -2.5898
  727MOL0     H95958   1.004   2.671   0.960 -1.0567 -1.3467 -3.0489
  727MOL0     H95959   0.882   2.769   1.052  1.4612  3.5278  1.0572
  727MOL0     H95960   0.949   2.971   0.941  1.5358 -0.0599 -0.6597
  727MOL0     H95961   1.095   2.894   0.990 -0.3823  4.5961 -0.7376
  727MOL0     H95962   1.106   2.982   0.569  0.6263  1.9240  0.2786
  727MOL0     H95963   0.525   2.827   0.870 -0.2250  1.1050  0.9350
  727MOL0     H95964   0.284   2.871   0.885 -1.5419  1.5443  2.9953
  728MOL0     O95965   0.296   7.377  10.235 -0.0329 -0.0959  0.2246
  728MOL0     C95966   0.391   7.423  10.169  0.7754  0.1829  0.0673
  728MOL0     O95967   0.378   7.445  10.035  0.1192  0.7240  0.1501
  728MOL0     C95968   0.273   7.402   9.964 -0.1796 -1.2252 -0.6255
  728MOL0     C95969   0.165   7.497   9.961 -0.1061  0.5670 -0.4719
  728MOL0     C95970   0.051   7.471   9.886 -0.4207  0.0770 -0.2229
  728MOL0     C95971   0.044   7.346   9.814 -0.1894 -0.1854 -0.0059
  728MOL0     O95972  -0.063   7.297   9.740 -0.0022 -0.3027 -0.5405
  728MOL0     C95973  -0.179   7.377   9.728 -0.4765  0.3694  0.2196
  728MOL0     C95974  -0.274   7.285   9.629 -1.1203 -0.8356 -0.3347
  728MOL0     C95975  -0.418   7.311   9.652 -0.0799 -0.0002  0.1512
  728MOL0     C95976  -0.504   7.256   9.532 -0.2092 -0.0030 -0.0621
  728MOL0     C95977  -0.650   7.237   9.583  0.0737 -0.4127  0.5202
  728MOL0     C95978  -0.746   7.186   9.479  0.0077  0.1269 -0.1841
  728MOL0     C95979  -0.780   7.294   9.379  0.2321 -0.2258 -0.1291
  728MOL0     C95980  -0.910   7.281   9.298 -0.4483  0.3595  0.1736
  728MOL0     N95981  -1.041   7.278   9.373 -0.1448 -0.2613  1.0429
  728MOL0     C95982  -1.113   7.383   9.426  0.1506  0.0115  1.1621
  728MOL0     C95983  -1.221   7.315   9.474 -0.0009  0.0437  0.1365
  728MOL0     C95984  -1.319   7.382   9.550  0.2538 -0.9591 -0.0171
  728MOL0     C95985  -1.427   7.433   9.454 -0.1840  0.0211  0.4126
  728MOL0     C95986  -1.386   7.558   9.362  1.0034  0.6355 -0.3654
  728MOL0     C95987  -1.509   7.639   9.317 -0.5531 -0.0038  0.0514
  728MOL0     O95988  -1.540   7.589   9.184  0.3155 -1.1023  0.4355
  728MOL0     C95989  -1.667   7.626   9.140  0.4623 -0.2281 -0.5188
  728MOL0     C95990  -1.746   7.736   9.181 -0.2784 -0.5105  0.0751
  728MOL0     C95991  -1.858   7.774   9.117  1.1942 -0.2585  0.0980
  728MOL0     C95992  -1.906   7.694   9.010 -1.0925  0.9777  0.1443
  728MOL0     C95993  -2.028   7.725   8.934 -1.3742  0.1859  0.8800
  728MOL0     O95994  -2.101   7.816   9.002  0.2566 -0.1615 -0.0111
  728MOL0     C95995  -2.202   7.884   8.944 -0.8286 -0.2266  0.4737
  728MOL0     C95996  -2.315   7.912   9.029  0.1300  0.0773  0.0807
  728MOL0     C95997  -2.422   7.987   8.974 -0.5482 -0.8256  0.1060
  728MOL0     C95998  -2.419   8.069   8.862  0.0105  1.0318  0.3030
  728MOL0     O95999  -2.523   8.155   8.851  0.1939 -0.9908  0.1291
  728MOL0     C96000  -2.580   8.147   8.723  0.9292  0.3963  0.9462
  728MOL0     C96001  -2.696   8.245   8.738 -0.1631  0.5094 -0.3764
  728MOL0     C96002  -2.798   8.227   8.847 -0.6824 -0.3694 -0.6414
  728MOL0     C96003  -2.903   8.339   8.865  0.6250  0.1687 -0.6317
  728MOL0     C96004  -3.015   8.306   8.964  0.3835  0.0065  0.9369
  728MOL0     C96005  -3.142   8.409   8.981  0.0789 -0.1891  0.1785
  728MOL0     C96006  -3.178   8.412   9.132  0.5601 -0.2316 -0.1115
  728MOL0     C96007  -3.303   8.493   9.149 -0.3182  0.3617  0.0600
  728MOL0    Cl96008  -3.268   8.667   9.114  0.3336 -0.2207 -0.0768
  728MOL0     C96009  -2.304   8.039   8.783  0.3277 -0.3892 -0.4262
  728MOL0     C96010  -2.198   7.952   8.825 -0.1562 -0.5654 -0.0310
  728MOL0     O96011  -2.048   7.675   8.823 -0.0255  0.6118  0.0588
  728MOL0     C96012  -1.824   7.589   8.966  0.3617  0.6464  0.1741
  728MOL0     C96013  -1.704   7.555   9.024  0.2962 -0.1400  1.0930
  728MOL0     N96014  -1.223   7.187   9.438 -0.2916  0.8960 -0.0388
  728MOL0     N96015  -1.104   7.162   9.387  0.9765  0.0395 -0.7017
  728MOL0     C96016   0.152   7.257   9.810 -0.1519  0.1525  0.0689
  728MOL0     C96017   0.268   7.290   9.880  0.0907 -0.4094 -0.4936
  728MOL0     C96018   0.505   7.477  10.243  0.7321 -0.5290 -0.3151
  728MOL0     C96019   0.605   7.557  10.176 -0.4318  0.1478 -0.4259
  728MOL0     C96020   0.704   7.629  10.248 -0.0129  0.8521 -0.5856
  728MOL0     C96021   0.724   7.591  10.382 -0.2515  0.7683  0.4941
  728MOL0     O96022   0.814   7.642  10.470 -0.7393 -0.5314 -0.2383
  728MOL0     C96023   0.926   7.729  10.427 -1.1651 -0.7263 -0.0115
  728MOL0     C96024   1.048   7.685  10.505 -1.3572  0.2753 -0.2761
  728MOL0     C96025   1.178   7.762  10.463 -0.6044  0.0718  0.3510
  728MOL0     C96026   1.310   7.721  10.533 -0.0023  0.0713 -0.8758
  728MOL0     C96027   1.328   7.785  10.665  0.4651  0.4747  0.9552
  728MOL0     C96028   1.363   7.857  10.757 -0.1442  0.3291  1.0370
  728MOL0     C96029   0.637   7.491  10.439 -0.4906 -0.5717 -0.1749
  728MOL0     C96030   0.527   7.441  10.373 -0.6420 -0.0556 -0.5059
  728MOL0     H96031   0.171   7.591  10.014  0.3391 -0.5515  1.5514
  728MOL0     H96032  -0.025   7.548   9.896  1.0260  1.3186  2.2590
  728MOL0     H96033  -0.165   7.475   9.682 -1.7440 -0.8798 -3.1406
  728MOL0     H96034  -0.224   7.389   9.827 -0.0116  4.3195  0.1101
  728MOL0     H96035  -0.249   7.179   9.636 -0.7548 -0.6616  1.8138
  728MOL0     H96036  -0.249   7.315   9.527 -0.1838  1.4549  0.4822
  728MOL0     H96037  -0.429   7.418   9.673  0.8617  0.1767 -0.2283
  728MOL0     H96038  -0.444   7.258   9.744  2.5159  0.2874  1.1348
  728MOL0     H96039  -0.498   7.336   9.458 -0.2894 -0.6031 -0.7242
  728MOL0     H96040  -0.467   7.159   9.497 -0.3952 -0.5076  1.1083
  728MOL0     H96041  -0.677   7.330   9.633  1.3424  0.0690  0.3285
  728MOL0     H96042  -0.628   7.166   9.663  2.5070  2.4049  2.5213
  728MOL0     H96043  -0.834   7.163   9.540  0.2202  2.1532  0.9633
  728MOL0     H96044  -0.718   7.096   9.424 -2.5689  0.3512 -2.0458
  728MOL0     H96045  -0.794   7.389   9.431  2.5413  0.9839 -1.5675
  728MOL0     H96046  -0.699   7.291   9.306  2.5058  0.0689  2.2488
  728MOL0     H96047  -0.909   7.202   9.223  1.3932  2.7165 -2.4965
  728MOL0     H96048  -0.919   7.369   9.234  1.7655 -0.8329 -1.9264
  728MOL0     H96049  -1.100   7.489   9.440 -3.3698  0.4912  1.6376
  728MOL0     H96050  -1.276   7.470   9.597 -1.8397 -0.4996  1.1647
  728MOL0     H96051  -1.360   7.322   9.631 -1.5474  0.0665 -0.1224
  728MOL0     H96052  -1.505   7.473   9.519  0.0724  1.7233 -0.2627
  728MOL0     H96053  -1.479   7.360   9.391  1.8833  0.2665 -1.7278
  728MOL0     H96054  -1.323   7.627   9.419  0.1110  0.2605  1.1425
  728MOL0     H96055  -1.340   7.523   9.270 -1.1741 -0.9672 -0.9358
  728MOL0     H96056  -1.472   7.742   9.310  1.7612 -0.8839 -1.8067
  728MOL0     H96057  -1.597   7.631   9.382 -0.6374  1.1037  0.0978
  728MOL0     H96058  -1.712   7.806   9.257  1.7654 -2.6224  1.2395
  728MOL0     H96059  -1.918   7.861   9.141  1.3233  0.0773 -0.7473
  728MOL0     H96060  -2.326   7.855   9.121 -2.1642  0.9228  0.4013
  728MOL0     H96061  -2.503   7.994   9.045 -1.2482  0.6882 -0.7935
  728MOL0     H96062  -2.618   8.045   8.713 -0.6157  0.6612  3.3561
  728MOL0     H96063  -2.530   8.178   8.631 -2.0997  2.9235 -0.0198
  728MOL0     H96064  -2.746   8.257   8.641  1.0534 -1.2787 -1.2956
  728MOL0     H96065  -2.658   8.346   8.750 -0.9222  0.5885  1.6729
  728MOL0     H96066  -2.753   8.224   8.947 -3.0436  0.3184  0.5220
  728MOL0     H96067  -2.846   8.131   8.824 -1.4962 -0.7776  2.3279
  728MOL0     H96068  -2.860   8.438   8.884  0.3961  1.1284 -4.3650
  728MOL0     H96069  -2.955   8.351   8.769 -0.9557  2.0097  0.3754
  728MOL0     H96070  -2.968   8.294   9.062  0.4300 -1.1093  0.7817
  728MOL0     H96071  -3.059   8.214   8.925  1.3206  0.3587 -1.1193
  728MOL0     H96072  -3.229   8.378   8.923  1.0108 -1.0269 -0.8172
  728MOL0     H96073  -3.103   8.502   8.939 -2.8380  1.7889  1.5707
  728MOL0     H96074  -3.201   8.307   9.150 -3.0918  1.0004  4.2725
  728MOL0     H96075  -3.091   8.454   9.183  1.4358  0.9757 -2.4198
  728MOL0     H96076  -3.335   8.489   9.254  0.7613  1.4008  0.4488
  728MOL0     H96077  -3.383   8.448   9.090 -1.1229 -0.5375  1.7604
  728MOL0     H96078  -2.297   8.092   8.688  1.0070 -2.0472 -1.3568
  728MOL0     H96079  -2.101   7.957   8.778  0.4371 -1.7585  0.9994
  728MOL0     H96080  -1.852   7.540   8.873 -3.1263 -1.1000  1.9826
  728MOL0     H96081  -1.645   7.475   8.981 -0.9504 -0.6482  0.2904
  728MOL0     H96082   0.148   7.159   9.763 -0.4582 -2.0025  4.1018
  728MOL0     H96083   0.347   7.216   9.872 -2.3469 -3.2813  0.5196
  728MOL0     H96084   0.596   7.581  10.070  1.0380  2.5483 -0.0992
  728MOL0     H96085   0.772   7.700  10.202 -1.6649  1.9022 -1.4979
  728MOL0     H96086   0.899   7.833  10.443 -2.9588 -0.6849 -2.7294
  728MOL0     H96087   0.940   7.719  10.319  3.0188 -0.5989  0.3759
  728MOL0     H96088   1.038   7.685  10.614 -0.5150 -0.2696 -0.1919
  728MOL0     H96089   1.053   7.577  10.490  2.7598  0.2987 -0.2607
  728MOL0     H96090   1.162   7.869  10.480  0.4636  0.1940  0.6299
  728MOL0     H96091   1.189   7.763  10.354 -0.2789  0.1069  0.3842
  728MOL0     H96092   1.324   7.614  10.547 -2.8426  0.0198  3.8115
  728MOL0     H96093   1.388   7.768  10.473  0.2769  1.8474  0.7691
  728MOL0     H96094   1.396   7.935  10.822  1.8901  1.1967 -0.9303
  728MOL0     H96095   0.648   7.474  10.546 -0.7617 -2.1591 -0.3786
  728MOL0     H96096   0.459   7.371  10.422 -1.1922  1.2439  0.6913
  729MOL0     O96097   3.323   5.552   9.009 -0.2715 -0.1001  0.0594
  729MOL0     C96098   3.330   5.484   8.903  0.6463 -0.1076 -0.5637
  729MOL0     O96099   3.231   5.398   8.853 -0.0878  0.1521 -0.4769
  729MOL0     C96100   3.120   5.383   8.936 -0.8697 -0.0685 -0.9337
  729MOL0     C96101   2.993   5.404   8.879  0.7779  0.4841  0.4008
  729MOL0     C96102   2.874   5.356   8.945  0.1775  0.1487 -0.1377
  729MOL0     C96103   2.882   5.290   9.066  0.5769 -0.3491 -0.2957
  729MOL0     O96104   2.765   5.250   9.129  0.5485  0.7214  0.8675
  729MOL0     C96105   2.766   5.211   9.261  0.6657  0.4671 -1.2614
  729MOL0     C96106   2.621   5.228   9.324  0.4742  0.7340  0.2383
  729MOL0     C96107   2.616   5.161   9.460  0.1340  0.3684 -0.4413
  729MOL0     C96108   2.480   5.166   9.522  0.4104  0.4758 -0.0395
  729MOL0     C96109   2.480   5.104   9.660  0.4909  0.9827 -0.9408
  729MOL0     C96110   2.368   5.165   9.741  0.2658  0.1712 -0.4038
  729MOL0     C96111   2.347   5.104   9.886  0.8084  0.5484 -0.2075
  729MOL0     C96112   2.224   5.158   9.956  0.0665  0.5362 -0.5403
  729MOL0     N96113   2.177   5.072  10.065 -1.0867  0.1595  0.9102
  729MOL0     C96114   2.161   4.931  10.070 -1.1726  0.0170 -0.5794
  729MOL0     C96115   2.181   4.895  10.202 -0.5409 -0.0151  0.4787
  729MOL0     C96116   2.171   4.756  10.250  0.7240 -0.6767  0.2278
  729MOL0     C96117   2.026   4.724  10.276  0.4378  0.2670  0.4402
  729MOL0     C96118   1.987   4.579  10.246  0.5818  0.8989 -0.4598
  729MOL0     C96119   1.877   4.520  10.340  0.3592  0.1524 -0.6267
  729MOL0     O96120   1.761   4.599  10.311  0.0736 -0.4329  0.1297
  729MOL0     C96121   1.639   4.549  10.350  0.2011  0.1773  0.0031
  729MOL0     C96122   1.525   4.608  10.298 -0.3806 -0.3073  0.9401
  729MOL0     C96123   1.394   4.562  10.328 -0.3207  0.5376  0.3327
  729MOL0     C96124   1.379   4.447  10.416  0.3221  0.3122  0.4111
  729MOL0     C96125   1.246   4.403  10.457 -1.3695 -0.5494 -0.2382
  729MOL0     O96126   1.139   4.491  10.443 -0.2862  0.1402  0.2380
  729MOL0     C96127   1.011   4.452  10.448  1.3198 -0.0217  0.1912
  729MOL0     C96128   0.974   4.320  10.416  0.6088  0.9289 -0.5032
  729MOL0     C96129   0.834   4.287  10.425 -0.2297  1.0025 -0.1463
  729MOL0     C96130   0.732   4.374  10.447 -0.4962  0.1497 -1.3618
  729MOL0     O96131   0.603   4.324  10.446  0.3840  0.0088  0.4189
  729MOL0     C96132   0.510   4.429  10.442  1.3007 -0.3763  0.2588
  729MOL0     C96133   0.383   4.357  10.399 -0.4729  0.2020 -0.5698
  729MOL0     C96134   0.318   4.279  10.519  0.2362 -0.5002 -0.2196
  729MOL0     C96135   0.190   4.214  10.479  0.1083  0.0798  1.0368
  729MOL0     C96136   0.134   4.124  10.586  0.2536 -0.8813 -0.3982
  729MOL0     C96137  -0.017   4.090  10.556  0.4800 -0.7515 -0.9415
  729MOL0     C96138  -0.026   4.004  10.432 -0.8346 -0.6986  0.2178
  729MOL0     C96139  -0.166   3.944  10.411 -0.2020  0.0124  0.2387
  729MOL0    Cl96140  -0.228   3.840  10.528  0.1289  0.4306  0.1505
  729MOL0     C96141   0.774   4.503  10.482 -0.4118  0.2579 -0.3519
  729MOL0     C96142   0.905   4.542  10.485 -0.2561 -0.4760 -1.2340
  729MOL0     O96143   1.244   4.309  10.530 -0.2176  0.8033 -0.1422
  729MOL0     C96144   1.492   4.390  10.469  0.1172 -0.7881  0.3371
  729MOL0     C96145   1.616   4.436  10.429  0.4212  0.2514  0.1805
  729MOL0     N96146   2.204   5.008  10.276  0.1965 -0.0814  0.8001
  729MOL0     N96147   2.193   5.112  10.197 -0.2468  0.1531  0.0828
  729MOL0     C96148   3.015   5.267   9.123 -0.2064  0.0475 -0.5195
  729MOL0     C96149   3.128   5.313   9.062 -0.5620 -0.8681  0.3109
  729MOL0     C96150   3.450   5.499   8.832 -0.2701 -0.1094 -0.0849
  729MOL0     C96151   3.542   5.605   8.871 -0.5077 -0.0525  1.1288
  729MOL0     C96152   3.653   5.619   8.793 -0.2167  0.4021 -0.3576
  729MOL0     C96153   3.704   5.514   8.712 -0.6635  0.1535 -0.4167
  729MOL0     O96154   3.823   5.536   8.639 -1.0282  0.0971 -0.2522
  729MOL0     C96155   3.922   5.627   8.677 -0.2310 -0.9598  0.9828
  729MOL0     C96156   4.043   5.631   8.576 -0.3429  1.3123  0.1852
  729MOL0     C96157   4.135   5.746   8.583  0.6988 -0.1388 -0.5271
  729MOL0     C96158   4.255   5.727   8.510 -0.4203  0.6129  0.4588
  729MOL0     C96159   4.343   5.841   8.530  1.0100 -0.1861 -0.2377
  729MOL0     C96160   4.411   5.944   8.547 -0.0006  1.0496 -0.8379
  729MOL0     C96161   3.621   5.405   8.681 -0.5012 -0.3847  0.1442
  729MOL0     C96162   3.488   5.402   8.728  0.9728 -0.7973  0.0930
  729MOL0     H96163   2.971   5.451   8.783  0.2542  1.8603  1.1738
  729MOL0     H96164   2.784   5.396   8.900  0.0104  0.6059  0.5862
  729MOL0     H96165   2.830   5.268   9.329 -0.9524  0.3047  0.4831
  729MOL0     H96166   2.796   5.107   9.270  0.9243  0.6685  0.5963
  729MOL0     H96167   2.544   5.186   9.258 -2.2326  4.8838  0.3939
  729MOL0     H96168   2.600   5.335   9.331  3.0612  1.2293  2.0051
  729MOL0     H96169   2.687   5.203   9.531  3.8941 -0.6895 -3.2181
  729MOL0     H96170   2.652   5.058   9.460  3.3790  1.2457  3.2585
  729MOL0     H96171   2.456   5.272   9.530  0.2766  0.5971 -1.6989
  729MOL0     H96172   2.406   5.114   9.460 -3.1460  1.0037  3.3314
  729MOL0     H96173   2.570   5.109   9.722 -0.4526  0.2820  0.5517
  729MOL0     H96174   2.451   4.999   9.647 -0.6697  1.4235 -2.1826
  729MOL0     H96175   2.280   5.157   9.677  0.0127  0.8338 -0.1592
  729MOL0     H96176   2.384   5.273   9.751 -0.4645  0.0821  4.3599
  729MOL0     H96177   2.353   4.995   9.887 -0.8243  0.4303  0.4076
  729MOL0     H96178   2.431   5.137   9.948  1.2989  1.1258 -1.1655
  729MOL0     H96179   2.138   5.177   9.891 -0.2379  3.3983  0.5369
  729MOL0     H96180   2.250   5.252  10.007  5.2581 -2.0881  2.5374
  729MOL0     H96181   2.155   4.861   9.988  1.0621  1.3941 -2.0187
  729MOL0     H96182   2.222   4.753  10.346  2.0302 -0.2431 -0.4261
  729MOL0     H96183   2.225   4.688  10.184  0.7600 -2.9459  2.4693
  729MOL0     H96184   1.952   4.776  10.214 -1.8375  1.2495  3.6990
  729MOL0     H96185   2.013   4.747  10.382  0.6982 -1.5598  0.9081
  729MOL0     H96186   1.955   4.565  10.142  1.3013 -3.4310 -0.3005
  729MOL0     H96187   2.069   4.506  10.253 -2.3467 -2.8305 -1.4440
  729MOL0     H96188   1.909   4.540  10.442  2.7524  1.6325 -1.5739
  729MOL0     H96189   1.863   4.415  10.314  2.4130 -0.8659  1.9405
  729MOL0     H96190   1.523   4.702  10.244  0.4745 -0.6313  0.3272
  729MOL0     H96191   1.308   4.616  10.293  2.2137  1.8657 -4.7217
  729MOL0     H96192   1.042   4.246  10.374  1.1175  0.1267  1.6188
  729MOL0     H96193   0.828   4.179  10.411  0.7156  0.7776  1.0181
  729MOL0     H96194   0.528   4.512  10.373 -2.4111  2.9860  2.8438
  729MOL0     H96195   0.496   4.470  10.542  1.8296 -0.4438  0.3625
  729MOL0     H96196   0.399   4.294  10.311 -1.7136 -0.9638 -0.0115
  729MOL0     H96197   0.315   4.437  10.367 -0.2515  1.4108  1.7325
  729MOL0     H96198   0.291   4.348  10.599  1.6428  0.3735 -0.4783
  729MOL0     H96199   0.381   4.201  10.563 -1.9885 -1.5557  1.2406
  729MOL0     H96200   0.114   4.286  10.447 -0.3568  0.8255  3.6182
  729MOL0     H96201   0.211   4.147  10.395 -1.9957 -3.0114  2.7942
  729MOL0     H96202   0.129   4.178  10.681 -0.9759 -0.9816 -0.3879
  729MOL0     H96203   0.197   4.036  10.599  0.4450 -0.8786 -1.2440
  729MOL0     H96204  -0.073   4.184  10.562 -0.4899 -1.3778  2.7113
  729MOL0     H96205  -0.055   4.028  10.638 -1.3312 -0.6664 -1.6626
  729MOL0     H96206  -0.004   4.061  10.341 -0.9555  3.8878  2.7407
  729MOL0     H96207   0.040   3.919  10.453  1.3580  0.7147 -0.5127
  729MOL0     H96208  -0.167   3.889  10.316 -2.0575 -0.4182  0.4669
  729MOL0     H96209  -0.227   4.031  10.386  2.5332  1.8765 -0.2812
  729MOL0     H96210   0.695   4.577  10.496 -1.5067 -0.7615 -0.9555
  729MOL0     H96211   0.912   4.647  10.511 -1.6918  0.7963 -5.2121
  729MOL0     H96212   1.477   4.317  10.548 -0.2228  0.2233  1.2394
  729MOL0     H96213   1.699   4.386  10.477  2.3081  0.2696 -2.8057
  729MOL0     H96214   3.034   5.203   9.209 -3.2936 -0.1647  0.1220
  729MOL0     H96215   3.224   5.271   9.090 -0.1497 -3.0125 -3.5063
  729MOL0     H96216   3.522   5.682   8.944 -0.6183 -0.3804  1.4474
  729MOL0     H96217   3.718   5.706   8.804  1.0677 -0.4153 -1.2732
  729MOL0     H96218   3.955   5.606   8.779 -3.5917  0.2254  2.4553
  729MOL0     H96219   3.886   5.730   8.671  0.4487 -0.4957  3.7187
  729MOL0     H96220   4.104   5.549   8.614 -1.1866  0.2842 -0.6106
  729MOL0     H96221   4.016   5.604   8.473 -0.3390 -0.4597  0.6224
  729MOL0     H96222   4.150   5.780   8.685 -0.2232 -4.7108  1.3831
  729MOL0     H96223   4.083   5.830   8.537  0.8090  1.1888  1.6529
  729MOL0     H96224   4.295   5.635   8.554 -0.8637 -2.0204 -4.0078
  729MOL0     H96225   4.231   5.711   8.404 -1.1698 -0.7638  0.8185
  729MOL0     H96226   4.471   6.032   8.559  2.0287 -0.0412 -2.4685
  729MOL0     H96227   3.653   5.332   8.607  3.5189 -1.0412  2.2846
  729MOL0     H96228   3.429   5.314   8.702  0.4108 -0.3612 -0.1142
  730MOL0     O96229   8.360   8.107   6.436 -0.6757 -0.1426  0.0000
  730MOL0     C96230   8.313   8.180   6.518  0.3074 -0.2074  0.0152
  730MOL0     O96231   8.375   8.219   6.629 -0.3653 -0.0467 -0.6944
  730MOL0     C96232   8.497   8.163   6.669  0.0542  0.5579  0.0416
  730MOL0     C96233   8.604   8.252   6.694  0.3016 -0.5675 -0.1076
  730MOL0     C96234   8.724   8.195   6.743  0.0368 -0.0762  0.2181
  730MOL0     C96235   8.748   8.062   6.747  0.1032 -0.2632 -0.8174
  730MOL0     O96236   8.868   8.013   6.781 -0.4772 -0.2536  0.2977
  730MOL0     C96237   8.960   8.070   6.694  1.0338 -0.0798  0.0042
  730MOL0     C96238   9.103   8.035   6.714  0.3869  0.0859 -0.1087
  730MOL0     C96239   9.128   7.890   6.671 -0.1296  0.2700 -0.3761
  730MOL0     C96240   9.269   7.864   6.702 -0.5923 -0.2436  0.9293
  730MOL0     C96241   9.299   7.715   6.675 -0.4552  0.1116 -0.4015
  730MOL0     C96242   9.447   7.666   6.661  0.2803 -0.7460  0.1132
  730MOL0     C96243   9.497   7.656   6.805 -0.4877  0.7477 -0.2878
  730MOL0     C96244   9.646   7.624   6.805  0.4384 -1.0723  0.3756
  730MOL0     N96245   9.667   7.490   6.822 -0.4488 -0.3986 -0.2721
  730MOL0     C96246   9.672   7.423   6.943 -0.2016  0.1268  0.7095
  730MOL0     C96247   9.659   7.293   6.904  0.1806 -0.1942 -0.7396
  730MOL0     C96248   9.639   7.172   6.998  0.3409  0.0549 -0.5827
  730MOL0     C96249   9.502   7.195   7.081 -0.3439 -0.4721  0.3871
  730MOL0     C96250   9.483   7.084   7.184 -0.6237 -0.1134  1.6261
  730MOL0     C96251   9.337   7.055   7.206  0.1472  1.1068 -0.4930
  730MOL0     O96252   9.268   7.019   7.090 -0.3544  0.5405  0.4356
  730MOL0     C96253   9.136   7.037   7.090 -0.7575 -0.2900  0.4125
  730MOL0     C96254   9.065   7.069   6.964 -0.2843 -0.3537  0.2976
  730MOL0     C96255   8.931   7.105   6.952  0.1627 -0.1527 -0.3132
  730MOL0     C96256   8.848   7.080   7.065 -0.5377 -0.9565 -0.5699
  730MOL0     C96257   8.704   7.090   7.060  0.9419 -0.0582  0.7800
  730MOL0     O96258   8.641   6.993   6.983  0.1006 -0.5022  0.5688
  730MOL0     C96259   8.496   6.978   6.989  0.2033 -0.2093  0.4785
  730MOL0     C96260   8.440   6.865   7.044 -0.2151  0.9021  1.0626
  730MOL0     C96261   8.304   6.843   7.043 -0.0120 -0.2769  0.3345
  730MOL0     C96262   8.219   6.951   6.999 -0.1285  1.2176 -0.6051
  730MOL0     O96263   8.083   6.928   7.007  0.0201 -0.3342  0.6619
  730MOL0     C96264   8.020   6.800   7.007  0.7108  0.6339 -0.4149
  730MOL0     C96265   8.049   6.747   6.873  0.0615  0.1279  0.0073
  730MOL0     C96266   7.951   6.632   6.818 -0.2444  1.0045  0.2492
  730MOL0     C96267   7.932   6.629   6.670 -0.2634 -0.3444  0.8380
  730MOL0     C96268   8.077   6.639   6.613 -0.3493 -0.0898  0.1304
  730MOL0     C96269   8.079   6.580   6.467  0.2975  0.5891  0.7457
  730MOL0     C96270   8.208   6.616   6.404 -0.6779  0.4560 -0.0857
  730MOL0     C96271   8.225   6.762   6.369 -0.5381 -0.6051  0.1801
  730MOL0    Cl96272   8.372   6.787   6.267  0.1559  0.3898  0.0005
  730MOL0     C96273   8.277   7.064   6.955  0.1578  0.1359  0.8174
  730MOL0     C96274   8.414   7.085   6.944 -0.4215  0.3870 -0.7594
  730MOL0     O96275   8.642   7.178   7.113 -0.1779  0.0138  0.1114
  730MOL0     C96276   8.908   7.044   7.184 -1.0814 -0.1507  0.2040
  730MOL0     C96277   9.050   7.030   7.203 -0.4595  0.6724  0.0552
  730MOL0     N96278   9.644   7.279   6.771 -0.1283 -0.4080 -0.0536
  730MOL0     N96279   9.648   7.400   6.721 -0.0797  0.1200  0.2627
  730MOL0     C96280   8.646   7.974   6.720 -0.2158  0.3501  0.0567
  730MOL0     C96281   8.520   8.026   6.674 -0.5756  0.0201 -0.2462
  730MOL0     C96282   8.177   8.233   6.504  0.3976  0.3450  0.3832
  730MOL0     C96283   8.085   8.238   6.609 -0.0805  1.1798 -0.2472
  730MOL0     C96284   7.959   8.288   6.585  0.3520 -0.3393  0.3372
  730MOL0     C96285   7.926   8.349   6.466 -0.3672 -0.0130 -0.4315
  730MOL0     O96286   7.815   8.421   6.435 -0.2305 -0.7095 -0.3741
  730MOL0     C96287   7.701   8.402   6.521 -0.3425  0.2228  0.2202
  730MOL0     C96288   7.588   8.441   6.422  0.7880  0.6912 -0.0001
  730MOL0     C96289   7.515   8.581   6.438 -0.4077 -0.0211  0.1883
  730MOL0     C96290   7.605   8.680   6.368  0.2082 -0.3190 -0.1097
  730MOL0     C96291   7.558   8.815   6.403 -0.3669 -0.5338 -0.0749
  730MOL0     C96292   7.539   8.936   6.430 -1.1841 -0.3006 -0.0403
  730MOL0     C96293   8.017   8.342   6.363 -0.3623  0.1865  0.5744
  730MOL0     C96294   8.139   8.287   6.377 -0.1299 -0.4098 -0.1634
  730MOL0     H96295   8.618   8.360   6.684  0.7106 -0.6996 -1.1146
  730MOL0     H96296   8.795   8.269   6.780  0.6445 -1.3660  1.7189
  730MOL0     H96297   8.956   8.179   6.678  0.4253 -0.4489 -2.9310
  730MOL0     H96298   8.941   8.028   6.595  1.8994  0.8646 -0.5861
  730MOL0     H96299   9.122   8.048   6.821  0.4210  1.6972 -0.2880
  730MOL0     H96300   9.171   8.110   6.673  0.6979  1.1470  2.1929
  730MOL0     H96301   9.114   7.884   6.563  0.7876 -0.0720 -0.4883
  730MOL0     H96302   9.056   7.830   6.727 -0.8421  1.5270  0.0903
  730MOL0     H96303   9.337   7.925   6.642 -0.5504  0.2487  1.4775
  730MOL0     H96304   9.289   7.890   6.806 -1.7525  0.3979  1.0053
  730MOL0     H96305   9.242   7.678   6.589 -0.2665 -2.4506  0.4889
  730MOL0     H96306   9.251   7.666   6.760 -1.7692  0.3370 -0.9799
  730MOL0     H96307   9.518   7.734   6.614  2.1884 -2.1750  0.7926
  730MOL0     H96308   9.459   7.571   6.609  0.9431 -0.9968  0.7174
  730MOL0     H96309   9.472   7.737   6.874  0.3051  1.5631 -0.9275
  730MOL0     H96310   9.447   7.571   6.850  1.9467 -0.1382  0.9369
  730MOL0     H96311   9.704   7.671   6.886  2.4912  1.0947 -2.1500
  730MOL0     H96312   9.692   7.653   6.710  1.9211 -3.1723  0.3812
  730MOL0     H96313   9.709   7.463   7.037 -0.5036  1.0490  0.4529
  730MOL0     H96314   9.723   7.167   7.068 -0.1257  0.4690  0.0240
  730MOL0     H96315   9.620   7.081   6.941  0.7146 -1.8928  2.1905
  730MOL0     H96316   9.427   7.191   7.002  1.6979 -0.9151 -1.6682
  730MOL0     H96317   9.492   7.291   7.132 -2.4344  1.0639 -2.6061
  730MOL0     H96318   9.531   6.993   7.147 -2.9542  0.4977 -3.7598
  730MOL0     H96319   9.528   7.124   7.276  2.1729  0.4515  0.1116
  730MOL0     H96320   9.304   7.152   7.244  0.4375  1.5567 -1.3947
  730MOL0     H96321   9.339   6.983   7.289 -0.2394  1.1603 -0.4310
  730MOL0     H96322   9.127   7.066   6.875 -0.2638 -1.1189  0.3296
  730MOL0     H96323   8.877   7.138   6.863 -2.5867 -2.4113  0.3728
  730MOL0     H96324   8.502   6.799   7.104 -0.3440  0.5324  0.7926
  730MOL0     H96325   8.277   6.744   7.077  1.4210 -0.7170  0.2744
  730MOL0     H96326   7.911   6.808   7.021  0.7960 -2.2401  3.9401
  730MOL0     H96327   8.050   6.742   7.095 -0.1228  1.6400  0.5629
  730MOL0     H96328   8.154   6.717   6.866  0.3695  1.2183 -0.2733
  730MOL0     H96329   8.041   6.834   6.807 -3.5530  0.5437  0.7913
  730MOL0     H96330   7.847   6.650   6.849 -0.4163  0.2505  0.1516
  730MOL0     H96331   7.988   6.534   6.848  0.4475  1.0645 -0.3929
  730MOL0     H96332   7.876   6.543   6.633  2.4344 -1.9963  0.3095
  730MOL0     H96333   7.882   6.721   6.636  1.4966  0.3226 -0.1025
  730MOL0     H96334   8.153   6.593   6.677 -1.0780 -0.6343  0.6247
  730MOL0     H96335   8.110   6.743   6.607  5.2265 -1.4559  1.3923
  730MOL0     H96336   7.990   6.608   6.410 -0.0844  0.7782  1.4250
  730MOL0     H96337   8.063   6.472   6.473 -2.4901  0.7426 -1.9038
  730MOL0     H96338   8.287   6.581   6.471 -1.4576  2.8013  2.1987
  730MOL0     H96339   8.213   6.561   6.309  1.3657 -1.8075  1.1962
  730MOL0     H96340   8.233   6.802   6.470 -0.5097 -4.3447  1.8430
  730MOL0     H96341   8.141   6.802   6.311 -0.1897 -0.3553 -0.1489
  730MOL0     H96342   8.230   7.158   6.927  4.3762  1.3437 -3.6571
  730MOL0     H96343   8.460   7.180   6.917  1.0107  0.1828  0.7756
  730MOL0     H96344   8.834   7.032   7.263 -0.8410  0.2842  0.4969
  730MOL0     H96345   9.089   7.004   7.301 -2.9063  0.7054  1.1015
  730MOL0     H96346   8.653   7.871   6.752 -0.6520  0.4407  0.4588
  730MOL0     H96347   8.435   7.960   6.669  0.2727 -1.0396 -1.5395
  730MOL0     H96348   8.116   8.185   6.698 -2.4825  1.8783  1.0976
  730MOL0     H96349   7.902   8.297   6.677  0.5363  0.3712  0.3921
  730MOL0     H96350   7.710   8.479   6.598 -1.9717 -0.5007  1.2047
  730MOL0     H96351   7.695   8.303   6.566 -0.3635 -0.0803 -0.4437
  730MOL0     H96352   7.616   8.418   6.319 -0.6737 -3.5318  0.3405
  730MOL0     H96353   7.502   8.376   6.441  0.1645  0.7309 -2.3240
  730MOL0     H96354   7.499   8.605   6.544 -0.4263 -0.7637  0.3562
  730MOL0     H96355   7.422   8.573   6.381 -1.0280  0.5275  1.0906
  730MOL0     H96356   7.708   8.659   6.399 -0.0250 -2.1262 -0.4347
  730MOL0     H96357   7.595   8.678   6.259  0.6787 -1.6937 -0.1444
  730MOL0     H96358   7.544   9.036   6.467  2.0737  0.8726 -3.0888
  730MOL0     H96359   7.988   8.384   6.268  0.2048  0.2790  0.4364
  730MOL0     H96360   8.214   8.297   6.299 -0.4504  0.3062 -0.3863
  731MOL0     O96361   4.074  10.307   1.488  0.1117 -0.0504 -0.4920
  731MOL0     C96362   4.038  10.422   1.514  0.0912 -0.7834 -0.1911
  731MOL0     O96363   4.119  10.534   1.534  0.3000 -0.7316  0.1680
  731MOL0     C96364   4.248  10.502   1.554 -1.1627  0.2400  0.4503
  731MOL0     C96365   4.342  10.498   1.446  0.1276 -0.3044 -0.4829
  731MOL0     C96366   4.476  10.462   1.471  0.8208 -0.0290  0.6637
  731MOL0     C96367   4.516  10.432   1.604 -0.8821 -0.0976  0.9520
  731MOL0     O96368   4.648  10.415   1.628 -1.3790  0.1014  0.2695
  731MOL0     C96369   4.718  10.310   1.553 -0.2660 -0.1882 -0.4554
  731MOL0     C96370   4.828  10.372   1.461  0.1930 -0.1071  0.8486
  731MOL0     C96371   4.940  10.439   1.550  0.6849  0.0661 -0.0861
  731MOL0     C96372   5.083  10.436   1.491  0.7766 -0.2616 -0.5645
  731MOL0     C96373   5.184  10.492   1.597 -0.6987 -0.4738 -0.1188
  731MOL0     C96374   5.326  10.532   1.546  0.7476 -0.1547  0.4900
  731MOL0     C96375   5.428  10.584   1.648 -0.0768  1.4203  0.5536
  731MOL0     C96376   5.454  10.474   1.761  0.6047  0.0265  0.5565
  731MOL0     N96377   5.567  10.522   1.835 -0.2411  0.9487  0.5701
  731MOL0     C96378   5.564  10.565   1.970  0.1898 -0.6895  0.0350
  731MOL0     C96379   5.696  10.584   1.992 -0.2829 -0.1806 -0.7035
  731MOL0     C96380   5.762  10.617   2.122 -0.9575 -0.7011 -0.4161
  731MOL0     C96381   5.891  10.702   2.091  0.1348  0.3155  0.4947
  731MOL0     C96382   5.877  10.853   2.061 -0.4153  0.3500 -0.1749
  731MOL0     C96383   5.845  10.890   1.916  0.7654 -0.5684  0.1084
  731MOL0     O96384   5.707  10.916   1.911  0.0178 -0.2196 -0.4000
  731MOL0     C96385   5.644  10.896   1.790  0.4909  0.0301  0.9164
  731MOL0     C96386   5.691  10.828   1.672 -0.0767  0.8902  0.1759
  731MOL0     C96387   5.625  10.828   1.552  0.9649  0.2308  0.4085
  731MOL0     C96388   5.505  10.896   1.544 -0.8386  0.5469  0.8716
  731MOL0     C96389   5.426  10.900   1.415 -0.0999  0.3681 -0.2104
  731MOL0     O96390   5.300  10.959   1.424  0.1015  0.9230 -0.1370
  731MOL0     C96391   5.216  10.939   1.322  0.1398 -0.5640 -0.0889
  731MOL0     C96392   5.103  10.846   1.345 -0.3284 -0.6676 -0.1005
  731MOL0     C96393   5.029  10.801   1.229 -0.2102 -0.0392 -0.8531
  731MOL0     C96394   5.052  10.854   1.107 -0.1977 -0.2355  0.3892
  731MOL0     O96395   4.975  10.816   0.996 -0.8673 -0.2778  0.5379
  731MOL0     C96396   5.002  10.854   0.857  0.3579 -0.3001  0.6370
  731MOL0     C96397   4.943  10.997   0.826 -0.5239  0.4980 -0.2553
  731MOL0     C96398   4.797  10.997   0.845  0.8306  0.7156 -0.7063
  731MOL0     C96399   4.749  11.137   0.834  0.2221  0.1757  0.4176
  731MOL0     C96400   4.606  11.161   0.875 -0.6452  0.0278  0.4876
  731MOL0     C96401   4.519  11.089   0.770  0.4098  0.5418  0.0469
  731MOL0     C96402   4.377  11.101   0.816 -0.2262  0.0408 -0.1435
  731MOL0     C96403   4.283  11.017   0.733 -0.0922 -0.1669 -0.0432
  731MOL0    Cl96404   4.124  11.084   0.758 -0.0391  0.1949  0.3889
  731MOL0     C96405   5.149  10.957   1.092 -0.5724 -0.1352 -0.2673
  731MOL0     C96406   5.229  10.994   1.200 -0.0270  0.5902  0.6268
  731MOL0     O96407   5.461  10.838   1.316  0.2120 -0.5763  0.2490
  731MOL0     C96408   5.453  10.961   1.659 -0.4768 -0.3578  0.4923
  731MOL0     C96409   5.517  10.957   1.783 -1.0333 -0.3790  0.6895
  731MOL0     N96410   5.770  10.552   1.874  0.1802 -0.2322 -0.5281
  731MOL0     N96411   5.693  10.502   1.790  0.1863 -0.4841 -0.1822
  731MOL0     C96412   4.426  10.440   1.706 -0.9297 -0.8557  0.1561
  731MOL0     C96413   4.299  10.490   1.687 -0.2758  0.8235  0.4670
  731MOL0     C96414   3.896  10.461   1.500  0.2614  0.5168  1.0120
  731MOL0     C96415   3.851  10.581   1.560  1.1226 -0.2483  0.4675
  731MOL0     C96416   3.715  10.612   1.555  0.5479  0.3476  0.7270
  731MOL0     C96417   3.625  10.528   1.498 -0.1022  1.3349  0.5203
  731MOL0     O96418   3.494  10.564   1.509  0.3174 -0.3913  0.0738
  731MOL0     C96419   3.382  10.490   1.439  0.0797  0.0934  0.1310
  731MOL0     C96420   3.260  10.578   1.445  0.4462 -0.0718  0.1622
  731MOL0     C96421   3.212  10.608   1.588  0.1748 -0.6848 -0.8045
  731MOL0     C96422   3.199  10.480   1.676 -0.2190 -0.7652  0.5564
  731MOL0     C96423   3.144  10.533   1.806 -0.3573 -1.1248 -0.2193
  731MOL0     C96424   3.094  10.568   1.911  0.2014 -0.6756  0.6192
  731MOL0     C96425   3.670  10.409   1.432 -0.4475 -0.2064  1.1130
  731MOL0     C96426   3.810  10.377   1.442 -0.0083 -0.3022  0.3841
  731MOL0     H96427   4.318  10.527   1.344  3.0082  1.3746 -0.8253
  731MOL0     H96428   4.544  10.451   1.387 -2.3550  2.6298 -2.5607
  731MOL0     H96429   4.647  10.245   1.500  0.3772 -0.4022 -1.0788
  731MOL0     H96430   4.773  10.242   1.619  2.0126  1.2091 -0.8015
  731MOL0     H96431   4.788  10.446   1.391  2.8136  2.6792  2.0949
  731MOL0     H96432   4.863  10.288   1.400 -1.8034  0.5609 -1.3978
  731MOL0     H96433   4.953  10.372   1.635  1.9727  2.8361  2.0372
  731MOL0     H96434   4.908  10.538   1.584  0.3780  0.9481 -2.6735
  731MOL0     H96435   5.112  10.335   1.461  1.2744 -0.1418 -0.4976
  731MOL0     H96436   5.083  10.499   1.401 -2.9192 -0.7314 -1.0167
  731MOL0     H96437   5.190  10.416   1.675  0.3424 -0.1771  0.1141
  731MOL0     H96438   5.143  10.582   1.645  0.9495  0.3570 -0.1694
  731MOL0     H96439   5.315  10.608   1.468  0.2789  0.1788  0.8719
  731MOL0     H96440   5.363  10.445   1.490  0.8256  0.2239 -0.0562
  731MOL0     H96441   5.522  10.593   1.592 -2.0631 -0.2914 -3.4610
  731MOL0     H96442   5.404  10.678   1.699 -0.3369  2.4272 -1.3385
  731MOL0     H96443   5.480  10.379   1.713 -0.7063  0.9229 -2.1167
  731MOL0     H96444   5.377  10.454   1.837  1.0533 -2.2154  0.4991
  731MOL0     H96445   5.480  10.583   2.036  1.6632 -0.8706  2.0738
  731MOL0     H96446   5.792  10.532   2.183 -0.3636  1.7126  2.8971
  731MOL0     H96447   5.681  10.671   2.173 -2.3411 -1.7178 -1.4505
  731MOL0     H96448   5.949  10.662   2.008 -1.6338  4.5130 -3.2341
  731MOL0     H96449   5.952  10.694   2.181  0.9125 -0.2602 -0.0697
  731MOL0     H96450   5.804  10.905   2.125 -0.3828  2.2370 -1.5874
  731MOL0     H96451   5.973  10.904   2.078 -0.5256  0.3882  0.3527
  731MOL0     H96452   5.864  10.802   1.854 -0.3592 -1.5659  1.1407
  731MOL0     H96453   5.894  10.976   1.870 -1.6362  0.4652 -0.7145
  731MOL0     H96454   5.787  10.778   1.679 -0.0707  1.1547  3.0715
  731MOL0     H96455   5.655  10.770   1.466 -2.0778 -1.3821  0.2907
  731MOL0     H96456   5.078  10.800   1.440  0.9995  1.6950  1.5088
  731MOL0     H96457   4.957  10.720   1.240 -0.9238  0.8973  2.6669
  731MOL0     H96458   4.957  10.778   0.793 -2.3120  1.4468  0.2470
  731MOL0     H96459   5.109  10.847   0.838  0.1176 -0.5186 -0.7062
  731MOL0     H96460   4.981  11.033   0.730 -0.7676  2.2700  0.2849
  731MOL0     H96461   4.971  11.059   0.911 -3.6528  0.5292  0.8845
  731MOL0     H96462   4.766  10.948   0.938 -0.6344 -2.1676 -2.5955
  731MOL0     H96463   4.749  10.947   0.761 -1.1019  2.0860 -0.4999
  731MOL0     H96464   4.812  11.198   0.899  0.7045  2.6415 -2.1772
  731MOL0     H96465   4.778  11.177   0.737  1.2514 -0.2953  0.5192
  731MOL0     H96466   4.587  11.269   0.874  3.5564  0.9563 -1.9238
  731MOL0     H96467   4.578  11.100   0.961 -2.6714  0.3203  0.0754
  731MOL0     H96468   4.539  10.982   0.769  0.1564  0.4296  2.1396
  731MOL0     H96469   4.515  11.120   0.665 -1.2010 -0.8682 -0.3400
  731MOL0     H96470   4.363  11.067   0.919  1.7781  1.6413  0.7273
  731MOL0     H96471   4.339  11.203   0.808  0.0974 -0.0039 -4.0490
  731MOL0     H96472   4.286  10.914   0.772 -0.9735  0.4032  1.6287
  731MOL0     H96473   4.307  11.013   0.627  0.6735  0.2251  0.1103
  731MOL0     H96474   5.166  11.010   0.999 -0.1183  1.1650  0.5348
  731MOL0     H96475   5.299  11.073   1.178 -3.4454  2.7453 -4.5419
  731MOL0     H96476   5.352  11.000   1.665 -0.4822 -0.1942 -0.5014
  731MOL0     H96477   5.477  11.022   1.861 -0.9182  1.9070 -1.0272
  731MOL0     H96478   4.458  10.422   1.808  0.6047 -1.7268 -0.4432
  731MOL0     H96479   4.244  10.497   1.780  2.7404 -2.3278  2.7651
  731MOL0     H96480   3.924  10.650   1.600  1.0760 -0.1352  0.3570
  731MOL0     H96481   3.673  10.711   1.572 -2.4621 -0.0606 -2.8883
  731MOL0     H96482   3.382  10.397   1.496 -0.1521 -0.6415 -1.0269
  731MOL0     H96483   3.404  10.474   1.333 -0.2325  1.3629 -0.1488
  731MOL0     H96484   3.262  10.664   1.378 -4.2699 -2.4519 -3.6646
  731MOL0     H96485   3.184  10.522   1.390  0.7231  1.8034 -2.3073
  731MOL0     H96486   3.114  10.657   1.594 -0.3122 -1.7991  0.8987
  731MOL0     H96487   3.288  10.668   1.640  0.0666 -2.0674  1.0243
  731MOL0     H96488   3.141  10.399   1.629  1.4939 -0.1902 -2.8479
  731MOL0     H96489   3.294  10.426   1.684 -0.4196 -1.3093 -0.5052
  731MOL0     H96490   3.056  10.616   1.998 -0.9908 -1.3359  0.4744
  731MOL0     H96491   3.606  10.337   1.382  0.6940  0.6820 -1.8490
  731MOL0     H96492   3.845  10.288   1.392  2.3811  0.8079 -0.0723
  732MOL0     O96493   1.563   8.663   8.075  0.3365  0.1243  0.9260
  732MOL0     C96494   1.559   8.564   8.000 -0.3343  0.9044 -0.8368
  732MOL0     O96495   1.628   8.544   7.886  0.2249  0.2274 -0.1880
  732MOL0     C96496   1.702   8.650   7.839 -0.3850  1.2252 -0.1862
  732MOL0     C96497   1.831   8.611   7.775 -0.5045 -0.1404  0.6041
  732MOL0     C96498   1.920   8.720   7.731  0.9439  0.6712 -0.2294
  732MOL0     C96499   1.877   8.852   7.739  0.8773 -0.5453 -0.2365
  732MOL0     O96500   1.952   8.959   7.691  0.5275  0.1535 -0.3114
  732MOL0     C96501   1.936   9.093   7.738 -0.1839  0.0595 -0.6518
  732MOL0     C96502   2.047   9.185   7.686  0.7138 -0.6310  0.8674
  732MOL0     C96503   2.186   9.144   7.734 -0.0297 -0.3524 -0.8987
  732MOL0     C96504   2.293   9.248   7.686  0.8906 -0.1715 -0.4927
  732MOL0     C96505   2.425   9.243   7.762  0.3352  0.3604  0.2402
  732MOL0     C96506   2.522   9.355   7.723  0.0063  0.5822  0.0963
  732MOL0     C96507   2.661   9.348   7.802 -0.5164  0.2247  0.2094
  732MOL0     C96508   2.751   9.469   7.770  0.1516 -0.4154  0.0789
  732MOL0     N96509   2.883   9.449   7.834 -0.5768  0.3938  0.2976
  732MOL0     C96510   2.919   9.360   7.936  0.0512 -0.4612  0.2293
  732MOL0     C96511   3.054   9.363   7.932 -0.2770 -0.1653  0.3986
  732MOL0     C96512   3.153   9.286   8.014  0.4173 -0.4373 -0.1103
  732MOL0     C96513   3.204   9.360   8.140 -0.1109 -0.6270  0.6877
  732MOL0     C96514   3.251   9.266   8.246 -0.4703 -0.7161 -0.2878
  732MOL0     C96515   3.151   9.213   8.344 -0.3957 -1.2552  1.0890
  732MOL0     O96516   3.031   9.166   8.277 -0.5622 -0.4026 -0.4929
  732MOL0     C96517   2.953   9.074   8.339 -0.3528  0.1236 -0.1937
  732MOL0     C96518   2.973   9.007   8.465  0.7238 -0.5645  0.3171
  732MOL0     C96519   2.874   8.929   8.522  0.7443  0.3618 -0.2132
  732MOL0     C96520   2.758   8.896   8.452  0.1492 -0.7065 -0.4358
  732MOL0     C96521   2.657   8.799   8.502 -0.1191 -0.8435  0.3328
  732MOL0     O96522   2.540   8.799   8.432 -0.3279 -0.0746  0.3984
  732MOL0     C96523   2.466   8.685   8.451 -0.1581 -1.1486 -0.2430
  732MOL0     C96524   2.357   8.701   8.531 -0.4065  0.7356  0.2243
  732MOL0     C96525   2.263   8.589   8.534  0.4879 -0.5108  0.5348
  732MOL0     C96526   2.284   8.474   8.453 -0.0176  0.4985 -0.8897
  732MOL0     O96527   2.203   8.360   8.453  0.1899 -0.3907 -0.4305
  732MOL0     C96528   2.087   8.356   8.535  0.4467  0.3662 -0.3450
  732MOL0     C96529   2.036   8.216   8.561  0.2763 -0.2033 -0.7869
  732MOL0     C96530   1.911   8.234   8.641  0.3347  0.1388  0.1651
  732MOL0     C96531   1.838   8.105   8.670  0.0943  0.2784  0.5540
  732MOL0     C96532   1.721   8.120   8.763  0.1505  0.0806  0.3951
  732MOL0     C96533   1.664   7.985   8.795  0.2336 -0.5931 -0.1468
  732MOL0     C96534   1.552   8.001   8.907 -0.0525 -0.2184 -0.2716
  732MOL0     C96535   1.472   7.876   8.932 -0.0572 -1.5701  1.0403
  732MOL0    Cl96536   1.551   7.723   8.984 -0.6133 -0.0225  0.3933
  732MOL0     C96537   2.402   8.464   8.382 -0.0087 -0.5131  0.4577
  732MOL0     C96538   2.496   8.568   8.371 -0.5014 -0.1620  0.0314
  732MOL0     O96539   2.700   8.729   8.595 -0.4781  0.0527  0.4463
  732MOL0     C96540   2.739   8.958   8.327 -0.6190  0.3023 -0.4814
  732MOL0     C96541   2.834   9.047   8.272 -0.0379 -0.2098  0.4241
  732MOL0     N96542   3.105   9.445   7.834  0.0541 -0.3198  0.7093
  732MOL0     N96543   3.000   9.487   7.775 -0.2396  0.6142  0.1420
  732MOL0     C96544   1.752   8.880   7.797 -0.3517 -1.0843 -0.1722
  732MOL0     C96545   1.669   8.786   7.850 -0.5723 -1.0927  0.2179
  732MOL0     C96546   1.454   8.462   8.035  0.2993 -0.0675 -0.2566
  732MOL0     C96547   1.397   8.455   8.164  0.3047 -0.0736  0.3831
  732MOL0     C96548   1.298   8.362   8.190  0.5023  0.6009  0.5463
  732MOL0     C96549   1.250   8.276   8.093  0.3619 -0.7197  0.5761
  732MOL0     O96550   1.150   8.190   8.128 -0.1159 -0.4525  0.0148
  732MOL0     C96551   1.158   8.060   8.056 -0.4450  0.0026 -0.1075
  732MOL0     C96552   1.054   7.968   8.128 -0.2792 -0.2709  0.1048
  732MOL0     C96553   1.014   7.834   8.053 -0.0118 -0.8070 -0.9166
  732MOL0     C96554   0.931   7.754   8.151 -0.1500 -0.1364  0.4638
  732MOL0     C96555   0.796   7.811   8.145 -0.6320  0.5324 -0.5003
  732MOL0     C96556   0.686   7.857   8.145 -0.3803 -0.1182 -0.3120
  732MOL0     C96557   1.317   8.275   7.974  0.0851  0.2996  1.2471
  732MOL0     C96558   1.418   8.363   7.939  0.4293  0.4769  0.1971
  732MOL0     H96559   1.847   8.504   7.777 -3.9850 -0.7758  1.8305
  732MOL0     H96560   2.010   8.694   7.677  1.4419 -2.1048  1.7026
  732MOL0     H96561   1.932   9.119   7.845 -1.9919  0.6060 -0.8231
  732MOL0     H96562   1.841   9.127   7.696 -0.4528 -0.9940 -0.9067
  732MOL0     H96563   2.035   9.288   7.721  1.8762  0.2132 -1.0535
  732MOL0     H96564   2.049   9.182   7.577  2.5891  0.9247  0.8210
  732MOL0     H96565   2.224   9.045   7.707  1.0485 -0.0904 -0.3891
  732MOL0     H96566   2.185   9.147   7.843 -2.6250 -1.9809 -0.7829
  732MOL0     H96567   2.315   9.237   7.580 -1.7644 -2.2703 -0.9208
  732MOL0     H96568   2.252   9.349   7.696 -1.9488 -0.9564 -2.7245
  732MOL0     H96569   2.465   9.141   7.753  1.1467  0.6480  0.5344
  732MOL0     H96570   2.406   9.273   7.866  0.2487  2.2800 -0.2911
  732MOL0     H96571   2.492   9.458   7.744  3.5459  1.7875 -0.1964
  732MOL0     H96572   2.538   9.344   7.615 -0.5101  1.7516 -0.1185
  732MOL0     H96573   2.629   9.360   7.906  1.0013  2.8682  0.4620
  732MOL0     H96574   2.716   9.255   7.787 -1.0219 -0.1172  0.4593
  732MOL0     H96575   2.704   9.561   7.808  0.5061 -0.7931  1.4650
  732MOL0     H96576   2.776   9.476   7.663  4.5389  0.5235  0.9942
  732MOL0     H96577   2.856   9.299   8.000 -0.3123 -1.8012 -1.3633
  732MOL0     H96578   3.242   9.249   7.961  1.1656 -1.3026  1.6883
  732MOL0     H96579   3.087   9.202   8.039 -0.1384  0.2061  0.5960
  732MOL0     H96580   3.126   9.426   8.181 -0.6919  0.0293 -1.3683
  732MOL0     H96581   3.290   9.413   8.097 -1.0574 -0.1952 -0.7278
  732MOL0     H96582   3.317   9.187   8.207 -0.2490  0.2757 -2.0441
  732MOL0     H96583   3.320   9.329   8.302  1.5464 -2.7314 -0.3532
  732MOL0     H96584   3.134   9.289   8.421 -1.8220  1.0315 -1.3078
  732MOL0     H96585   3.205   9.127   8.386 -0.1723 -1.3169  0.6837
  732MOL0     H96586   3.068   9.027   8.513 -0.2588  0.9440  1.7459
  732MOL0     H96587   2.892   8.891   8.622  0.6720  4.1051  1.3847
  732MOL0     H96588   2.329   8.785   8.595 -2.2012  1.4570 -1.4041
  732MOL0     H96589   2.177   8.595   8.600 -1.1802  0.1192 -1.5909
  732MOL0     H96590   2.008   8.417   8.490 -1.3063 -0.9754  0.8210
  732MOL0     H96591   2.108   8.393   8.636 -1.4438  2.0872 -0.5232
  732MOL0     H96592   2.109   8.155   8.616 -0.9038  0.0459  1.1355
  732MOL0     H96593   2.026   8.176   8.460  1.2128  0.2314 -1.0624
  732MOL0     H96594   1.853   8.312   8.592 -0.1416 -0.8843 -0.9551
  732MOL0     H96595   1.927   8.269   8.744  0.1411 -0.5283  0.4277
  732MOL0     H96596   1.801   8.051   8.582  0.9303  1.0996 -0.3231
  732MOL0     H96597   1.910   8.041   8.722  3.1637  1.2276 -2.1687
  732MOL0     H96598   1.651   8.193   8.721  0.3157 -0.1354 -0.2706
  732MOL0     H96599   1.750   8.158   8.862 -2.6457  2.3515  0.4436
  732MOL0     H96600   1.745   7.916   8.823  1.1014  0.6893  0.5992
  732MOL0     H96601   1.608   7.943   8.711  0.0935 -4.2736  1.5633
  732MOL0     H96602   1.592   8.059   8.990  1.5697 -1.3874 -0.2128
  732MOL0     H96603   1.489   8.080   8.864  0.0451  0.4982  0.8609
  732MOL0     H96604   1.430   7.848   8.835  0.6099 -2.7931  1.0777
  732MOL0     H96605   1.395   7.902   9.006 -1.7699  0.3693 -1.2819
  732MOL0     H96606   2.418   8.377   8.320  0.5952  0.4154 -0.7334
  732MOL0     H96607   2.579   8.563   8.301 -0.6267  2.8229 -0.4644
  732MOL0     H96608   2.644   8.935   8.279  0.4150 -0.6551 -2.1633
  732MOL0     H96609   2.801   9.091   8.179  1.0748 -2.1727 -0.9749
  732MOL0     H96610   1.713   8.981   7.805 -0.3340 -1.1977  1.9770
  732MOL0     H96611   1.578   8.818   7.900 -1.2430 -1.7401 -0.5448
  732MOL0     H96612   1.425   8.522   8.245 -0.4889  2.7328 -1.5315
  732MOL0     H96613   1.265   8.351   8.293  0.1528 -0.4918  0.3346
  732MOL0     H96614   1.253   8.007   8.058 -1.2834 -1.6118  2.4366
  732MOL0     H96615   1.123   8.055   7.952  2.1732 -2.9143 -0.9849
  732MOL0     H96616   1.092   7.951   8.229  0.8175 -0.3119 -0.3038
  732MOL0     H96617   0.962   8.024   8.149 -0.5015 -0.3822 -0.5471
  732MOL0     H96618   1.104   7.789   8.010  1.1865 -0.4845  1.1383
  732MOL0     H96619   0.960   7.862   7.962  0.3665  1.9117 -0.3869
  732MOL0     H96620   0.919   7.652   8.112  1.8970 -0.0940 -0.4273
  732MOL0     H96621   0.956   7.764   8.258 -1.0925  6.2412  0.4774
  732MOL0     H96622   0.592   7.909   8.143  0.8222  2.3838  1.7980
  732MOL0     H96623   1.293   8.206   7.894  0.4458  0.2008  1.2238
  732MOL0     H96624   1.462   8.367   7.839 -1.8420 -1.3270 -0.9941
  733MOL0     O96625   3.722   2.197   4.358 -0.4486  0.1710  0.1369
  733MOL0     C96626   3.817   2.186   4.434  0.0477  0.1733  0.2020
  733MOL0     O96627   3.813   2.205   4.566 -0.5229 -0.0168  0.0232
  733MOL0     C96628   3.697   2.238   4.633  0.0937 -0.6257 -0.8551
  733MOL0     C96629   3.629   2.151   4.709 -0.5721  0.1085 -1.0478
  733MOL0     C96630   3.506   2.173   4.764 -0.1483  0.1223 -0.7130
  733MOL0     C96631   3.448   2.300   4.746  0.3532  0.1929 -0.4449
  733MOL0     O96632   3.325   2.341   4.790 -0.8858  0.2630 -0.0733
  733MOL0     C96633   3.230   2.254   4.847 -1.2212  0.2273  0.2007
  733MOL0     C96634   3.101   2.324   4.856 -0.4617 -0.7312  1.1585
  733MOL0     C96635   2.989   2.248   4.927 -0.1028  0.4188 -0.5457
  733MOL0     C96636   2.865   2.346   4.943  0.1644  0.4138  0.5306
  733MOL0     C96637   2.742   2.264   4.999  0.2376 -0.6769 -0.8443
  733MOL0     C96638   2.624   2.367   5.004 -0.1499  0.2852  0.1013
  733MOL0     C96639   2.493   2.304   5.053 -0.4474 -0.5515 -0.8006
  733MOL0     C96640   2.497   2.233   5.186  0.3366 -0.5258  1.1103
  733MOL0     N96641   2.375   2.160   5.218  0.6123  0.3224 -0.0050
  733MOL0     C96642   2.309   2.058   5.140  1.0677 -0.0210 -0.0228
  733MOL0     C96643   2.197   2.037   5.218 -0.3928 -0.7541 -0.1655
  733MOL0     C96644   2.102   1.930   5.186 -0.0247 -0.5018  0.0663
  733MOL0     C96645   2.074   1.834   5.312 -0.7352  0.2061  0.2719
  733MOL0     C96646   1.987   1.887   5.422  0.3768 -0.0392 -0.3304
  733MOL0     C96647   1.950   1.781   5.524 -0.1566  0.0531 -0.9235
  733MOL0     O96648   1.844   1.685   5.496  0.1024  0.1406  0.4812
  733MOL0     C96649   1.715   1.711   5.538 -0.9109 -0.5588  0.3006
  733MOL0     C96650   1.628   1.600   5.533 -0.7561 -0.3458  0.1725
  733MOL0     C96651   1.499   1.614   5.575  0.3054 -0.2281 -0.0358
  733MOL0     C96652   1.453   1.736   5.630  0.0894  0.0636 -0.6570
  733MOL0     C96653   1.314   1.748   5.679 -0.0926  0.6328 -0.4169
  733MOL0     O96654   1.224   1.649   5.644  0.4793  0.2562 -0.1750
  733MOL0     C96655   1.084   1.666   5.659 -0.1010  1.1336  0.4002
  733MOL0     C96656   1.006   1.775   5.699  1.2579 -0.8034  0.1967
  733MOL0     C96657   0.865   1.754   5.713 -1.0059  0.0232  0.2794
  733MOL0     C96658   0.796   1.638   5.684 -0.6269  0.9564  0.5248
  733MOL0     O96659   0.663   1.606   5.675 -0.0683 -0.2895 -0.1493
  733MOL0     C96660   0.595   1.665   5.782 -0.6021  0.3731 -0.0482
  733MOL0     C96661   0.455   1.624   5.788  0.0540 -0.2727  0.4342
  733MOL0     C96662   0.379   1.718   5.875  0.6095  0.0420 -0.0287
  733MOL0     C96663   0.230   1.682   5.881  0.0928 -0.5063  0.5432
  733MOL0     C96664   0.161   1.781   5.961  0.9885  0.5011 -0.8806
  733MOL0     C96665   0.013   1.743   5.989  0.0287  0.3703  0.7647
  733MOL0     C96666  -0.057   1.851   6.076  0.3651 -0.2297 -0.2323
  733MOL0     C96667  -0.198   1.818   6.106 -0.4844  0.0866  0.3881
  733MOL0    Cl96668  -0.218   1.665   6.197  0.0300  0.3061  0.1420
  733MOL0     C96669   0.875   1.537   5.638  0.1526  0.8149  0.2101
  733MOL0     C96670   1.013   1.542   5.626  0.1672  0.4308 -0.8792
  733MOL0     O96671   1.294   1.839   5.757  0.4489  0.4650  0.3173
  733MOL0     C96672   1.538   1.841   5.637 -0.7439 -0.5100 -0.1661
  733MOL0     C96673   1.672   1.830   5.595 -1.0314  0.5214  0.5237
  733MOL0     N96674   2.191   2.128   5.319  0.4541 -0.4494 -0.2547
  733MOL0     N96675   2.297   2.192   5.321 -0.4230  0.5745  0.7744
  733MOL0     C96676   3.522   2.399   4.680 -0.5892 -0.9268 -0.1792
  733MOL0     C96677   3.646   2.369   4.623  0.7625 -0.1645  0.8165
  733MOL0     C96678   3.946   2.158   4.372  0.4241 -0.1724  0.3204
  733MOL0     C96679   4.064   2.182   4.447 -0.6677  0.8722  0.7581
  733MOL0     C96680   4.189   2.146   4.383 -0.8669 -1.0889  0.0797
  733MOL0     C96681   4.192   2.099   4.247 -0.0414  0.1740  0.3579
  733MOL0     O96682   4.318   2.056   4.198  0.4569 -0.0710 -0.2375
  733MOL0     C96683   4.331   2.021   4.061  0.3513  0.6616 -0.3299
  733MOL0     C96684   4.357   2.153   3.981 -0.8844 -0.6674 -0.0249
  733MOL0     C96685   4.497   2.207   3.996  0.4709 -0.2110  0.0833
  733MOL0     C96686   4.517   2.307   3.884 -0.4613  0.0728  1.2686
  733MOL0     C96687   4.660   2.367   3.885  0.3518  0.4722 -0.6106
  733MOL0     C96688   4.773   2.393   3.887 -0.5615 -0.1693  0.4248
  733MOL0     C96689   4.070   2.094   4.178  0.7233  0.0752 -0.2828
  733MOL0     C96690   3.950   2.112   4.238  0.0031 -0.0336  0.0860
  733MOL0     H96691   3.661   2.048   4.720 -1.7828 -0.2042 -0.2233
  733MOL0     H96692   3.448   2.092   4.810 -1.4623  1.2268 -0.3487
  733MOL0     H96693   3.266   2.217   4.944 -1.8963 -4.2758 -1.0259
  733MOL0     H96694   3.212   2.164   4.788  1.2542 -0.5692  0.5148
  733MOL0     H96695   3.055   2.337   4.757 -2.5931 -4.3135  1.5084
  733MOL0     H96696   3.107   2.418   4.912 -3.1025 -0.3481  0.9530
  733MOL0     H96697   3.011   2.212   5.028  0.4635 -1.7013 -1.3859
  733MOL0     H96698   2.961   2.162   4.867 -0.1344 -0.0914  0.1833
  733MOL0     H96699   2.894   2.420   5.017  2.4168  1.4225 -1.2439
  733MOL0     H96700   2.849   2.401   4.849  1.7227  0.8950  0.5312
  733MOL0     H96701   2.762   2.236   5.103 -4.0002  0.4930  0.5079
  733MOL0     H96702   2.716   2.177   4.939  0.1707 -1.7320  0.6562
  733MOL0     H96703   2.620   2.394   4.898  0.7583 -1.2111 -0.3434
  733MOL0     H96704   2.662   2.444   5.072  2.8086  0.8371 -1.9657
  733MOL0     H96705   2.421   2.386   5.057  0.2685  0.0376  1.2486
  733MOL0     H96706   2.468   2.224   4.983  0.7155  0.8500 -2.9375
  733MOL0     H96707   2.520   2.304   5.266  1.5755  0.1505  0.1955
  733MOL0     H96708   2.570   2.152   5.186 -1.2603 -2.3665 -4.4990
  733MOL0     H96709   2.359   1.999   5.064  0.1644  0.3059 -0.8942
  733MOL0     H96710   2.147   1.871   5.106 -1.4535 -2.8145  0.8766
  733MOL0     H96711   2.013   1.978   5.143  0.1687 -0.8391 -0.7277
  733MOL0     H96712   2.170   1.798   5.348  1.8434  3.0243 -3.0586
  733MOL0     H96713   2.022   1.747   5.270  1.3797 -0.5180 -0.9900
  733MOL0     H96714   2.046   1.960   5.477  0.9073 -0.5397 -0.2208
  733MOL0     H96715   1.904   1.946   5.382 -0.6559 -1.0921  0.1915
  733MOL0     H96716   1.944   1.820   5.626 -0.4363  0.6427 -1.1616
  733MOL0     H96717   2.037   1.715   5.531 -1.1397 -1.1868  0.2780
  733MOL0     H96718   1.674   1.517   5.479  2.2806  0.8623  0.6844
  733MOL0     H96719   1.430   1.532   5.558 -0.0497 -0.3255  1.6522
  733MOL0     H96720   1.048   1.870   5.729 -0.7520  0.2311 -0.1275
  733MOL0     H96721   0.809   1.843   5.741 -0.0630  0.9929 -0.8274
  733MOL0     H96722   0.595   1.771   5.756  0.8417  0.3017 -0.4462
  733MOL0     H96723   0.642   1.654   5.881 -2.1950  1.8541  0.9239
  733MOL0     H96724   0.456   1.521   5.826  1.9851 -0.5981 -0.3809
  733MOL0     H96725   0.392   1.622   5.699 -0.6146  1.2924  0.8358
  733MOL0     H96726   0.386   1.821   5.838  2.2699  1.0407  2.8085
  733MOL0     H96727   0.416   1.722   5.977  0.0804 -0.9306  0.2105
  733MOL0     H96728   0.180   1.669   5.785  1.3491 -0.3938 -0.1451
  733MOL0     H96729   0.223   1.583   5.927 -2.3790 -1.5739 -1.8651
  733MOL0     H96730   0.152   1.879   5.912 -0.5950  0.8623  0.0607
  733MOL0     H96731   0.214   1.801   6.054 -1.1977  0.4682  0.4242
  733MOL0     H96732   0.009   1.641   6.027  2.3998 -0.4271 -0.8869
  733MOL0     H96733  -0.046   1.759   5.898  1.2613  4.2415  0.4329
  733MOL0     H96734   0.001   1.864   6.168 -3.3365 -0.8135  2.4104
  733MOL0     H96735  -0.051   1.952   6.034 -0.2669 -0.9683 -2.1444
  733MOL0     H96736  -0.257   1.818   6.014  2.7827 -0.8572 -1.8923
  733MOL0     H96737  -0.234   1.901   6.167 -2.3409  2.3427 -3.3670
  733MOL0     H96738   0.833   1.454   5.583  1.9399  0.7476 -1.1384
  733MOL0     H96739   1.068   1.461   5.579  0.0148  0.0795 -0.4563
  733MOL0     H96740   1.498   1.933   5.678  1.8932  1.4885 -1.7457
  733MOL0     H96741   1.739   1.914   5.609  1.3907 -0.6716 -2.4609
  733MOL0     H96742   3.495   2.505   4.683 -1.2534 -1.1059  0.3319
  733MOL0     H96743   3.698   2.452   4.577  0.6161 -1.1508 -1.2422
  733MOL0     H96744   4.070   2.196   4.554  1.0985 -4.0326  1.5588
  733MOL0     H96745   4.270   2.144   4.454 -0.8689  0.2502  0.1515
  733MOL0     H96746   4.247   1.964   4.021  3.3891 -2.7085 -2.4962
  733MOL0     H96747   4.419   1.957   4.053 -0.4135 -0.4024 -0.4238
  733MOL0     H96748   4.342   2.140   3.873  0.5550  2.5609 -0.7463
  733MOL0     H96749   4.290   2.235   4.011 -1.6951 -1.1050 -0.5888
  733MOL0     H96750   4.585   2.143   3.996 -0.0883 -1.0514  2.3258
  733MOL0     H96751   4.496   2.263   4.090 -0.1916 -0.9139  0.5058
  733MOL0     H96752   4.499   2.258   3.788  1.3872 -2.3785  2.0768
  733MOL0     H96753   4.439   2.381   3.904 -0.9374  0.2144 -0.8169
  733MOL0     H96754   4.877   2.417   3.886 -0.9707  2.4955  3.3704
  733MOL0     H96755   4.074   2.068   4.073 -2.8334  0.7203 -0.7149
  733MOL0     H96756   3.859   2.104   4.179 -0.8628  0.5368  1.3304
  734MOL0     O96757   9.372   7.144   8.852  0.3620 -0.5237 -0.0973
  734MOL0     C96758   9.370   7.096   8.740  0.6543 -0.3083  0.1583
  734MOL0     O96759   9.253   7.090   8.670 -0.4450  0.2513 -0.5094
  734MOL0     C96760   9.160   7.180   8.706 -1.1188  0.0646 -0.5507
  734MOL0     C96761   9.029   7.148   8.679 -0.1829  0.5384 -0.8107
  734MOL0     C96762   8.926   7.235   8.706  0.1045  0.2090  1.0230
  734MOL0     C96763   8.945   7.358   8.761  0.0184 -0.3479  0.2500
  734MOL0     O96764   8.838   7.439   8.796  0.4370  0.3367  0.3644
  734MOL0     C96765   8.798   7.442   8.932 -0.6130  0.7963  1.0090
  734MOL0     C96766   8.722   7.314   8.977 -0.0810  0.8348 -0.1197
  734MOL0     C96767   8.583   7.309   8.920  0.8601  1.2184  0.3059
  734MOL0     C96768   8.509   7.175   8.952  0.6964  0.0763  0.5243
  734MOL0     C96769   8.363   7.179   8.890 -0.5700  0.2151 -0.1302
  734MOL0     C96770   8.363   7.157   8.744  1.2312 -0.5850  0.1191
  734MOL0     C96771   8.227   7.175   8.680  0.3915 -0.8614 -0.2602
  734MOL0     C96772   8.128   7.071   8.725 -0.0893  0.7081  0.3826
  734MOL0     N96773   7.986   7.094   8.675  0.3933  0.7134  0.0550
  734MOL0     C96774   7.944   7.089   8.545 -0.2099  0.4125  0.0718
  734MOL0     C96775   7.809   7.113   8.554  0.6256 -0.5156  0.1011
  734MOL0     C96776   7.712   7.121   8.444  0.5349  0.5959  0.2365
  734MOL0     C96777   7.636   7.252   8.447  0.6102 -0.0496 -0.8167
  734MOL0     C96778   7.495   7.240   8.519  0.3536 -0.4390 -0.2847
  734MOL0     C96779   7.416   7.375   8.522 -0.1311 -1.0252  0.0872
  734MOL0     O96780   7.388   7.410   8.385  0.2441 -0.6265  0.3378
  734MOL0     C96781   7.299   7.510   8.374 -0.4845  0.4958  0.6243
  734MOL0     C96782   7.350   7.641   8.349  0.9732  0.3960 -0.6245
  734MOL0     C96783   7.256   7.741   8.324  0.0707 -0.7028 -0.9736
  734MOL0     C96784   7.125   7.709   8.296  0.5580  0.1996 -0.5772
  734MOL0     C96785   7.028   7.813   8.253 -0.3156 -0.5510 -0.8321
  734MOL0     O96786   6.898   7.792   8.290  0.3622  0.3943 -0.1571
  734MOL0     C96787   6.795   7.891   8.260 -0.5452  1.0438  0.8605
  734MOL0     C96788   6.795   8.017   8.315 -0.5879 -0.5653  0.4134
  734MOL0     C96789   6.698   8.112   8.277  0.2641 -0.7541 -0.2862
  734MOL0     C96790   6.583   8.065   8.198  0.2039 -0.3315 -0.7763
  734MOL0     O96791   6.475   8.137   8.161 -0.6028  0.1168  0.7401
  734MOL0     C96792   6.422   8.239   8.243 -0.5437 -0.1123 -0.4894
  734MOL0     C96793   6.413   8.202   8.392  0.5272  0.2129  0.7577
  734MOL0     C96794   6.317   8.311   8.462 -0.0074  0.4809  0.3020
  734MOL0     C96795   6.348   8.316   8.615 -0.1534 -0.3384 -0.6915
  734MOL0     C96796   6.260   8.415   8.689 -0.4313 -0.2286  0.4766
  734MOL0     C96797   6.271   8.556   8.639  0.1640 -0.2877 -0.4850
  734MOL0     C96798   6.217   8.660   8.743 -0.5943 -0.3935 -0.1803
  734MOL0     C96799   6.320   8.776   8.768 -0.1246  0.1917 -0.2591
  734MOL0    Cl96800   6.362   8.861   8.612  0.4448 -0.0650 -0.0634
  734MOL0     C96801   6.579   7.934   8.157 -0.5337 -0.1793 -0.1584
  734MOL0     C96802   6.685   7.849   8.178 -0.7448  0.1390 -1.5342
  734MOL0     O96803   7.079   7.906   8.200 -0.1438 -0.3623 -0.4698
  734MOL0     C96804   7.078   7.578   8.308  0.4457 -0.5509  0.7666
  734MOL0     C96805   7.162   7.480   8.357 -0.5970  0.6313 -0.4579
  734MOL0     N96806   7.781   7.141   8.684 -0.1464  0.1812 -0.7156
  734MOL0     N96807   7.890   7.138   8.757 -1.2242  0.4394 -0.4827
  734MOL0     C96808   9.075   7.396   8.785  0.2677 -0.1320  1.0663
  734MOL0     C96809   9.183   7.309   8.754  0.7426  0.4372  0.7706
  734MOL0     C96810   9.497   7.065   8.677 -0.9185 -0.0040  0.5004
  734MOL0     C96811   9.512   7.012   8.547  0.3918 -0.3598 -0.2165
  734MOL0     C96812   9.637   6.960   8.516 -0.4488 -0.8605  0.5610
  734MOL0     C96813   9.756   6.991   8.584  0.1019  0.9250  0.2036
  734MOL0     O96814   9.890   6.958   8.541  0.2478  0.1561  0.8015
  734MOL0     C96815   9.908   6.905   8.409  0.6291 -0.6894  0.0248
  734MOL0     C96816   9.888   6.996   8.290  0.0008 -0.4031  0.0580
  734MOL0     C96817  10.013   7.084   8.259 -0.4318  0.5028  0.1156
  734MOL0     C96818   9.983   7.211   8.181 -0.0157 -0.5448 -0.0402
  734MOL0     C96819  10.102   7.292   8.172  0.4064  0.7420 -0.2888
  734MOL0     C96820  10.186   7.374   8.134  0.7919  0.1172 -0.2946
  734MOL0     C96821   9.750   7.058   8.700  0.1911 -0.7406 -0.4363
  734MOL0     C96822   9.622   7.088   8.746 -0.1754 -0.2697  0.1930
  734MOL0     H96823   9.013   7.058   8.622 -0.2674 -0.7687  1.1980
  734MOL0     H96824   8.824   7.201   8.689 -0.0488  0.6005  1.1428
  734MOL0     H96825   8.720   7.518   8.943 -0.6905  0.8134  0.4019
  734MOL0     H96826   8.885   7.459   8.996 -1.2323 -1.4764  2.5703
  734MOL0     H96827   8.709   7.312   9.085  0.0786 -0.5973 -0.1161
  734MOL0     H96828   8.783   7.231   8.941 -1.5650  1.3211 -4.4026
  734MOL0     H96829   8.587   7.329   8.813  1.0386 -1.6410 -0.2989
  734MOL0     H96830   8.515   7.389   8.954 -0.5966 -0.5509  1.7520
  734MOL0     H96831   8.570   7.091   8.917  2.0204  0.6633  1.3263
  734MOL0     H96832   8.495   7.148   9.057 -1.3481 -2.7241 -0.3622
  734MOL0     H96833   8.311   7.271   8.919  1.8518  1.0275  1.9655
  734MOL0     H96834   8.311   7.091   8.929  1.9448 -1.1088  0.4393
  734MOL0     H96835   8.393   7.053   8.728 -2.7836 -1.9714  0.2854
  734MOL0     H96836   8.430   7.222   8.689  0.2271  0.8957  0.5776
  734MOL0     H96837   8.189   7.275   8.703  0.3620 -1.0428  0.5068
  734MOL0     H96838   8.236   7.168   8.572 -0.6314 -0.9756 -0.3473
  734MOL0     H96839   8.130   7.066   8.835 -1.1524 -3.5164  0.3997
  734MOL0     H96840   8.167   6.980   8.678  3.4157  2.0495  0.4000
  734MOL0     H96841   7.993   7.071   8.450  0.9088  0.1565  0.6800
  734MOL0     H96842   7.639   7.040   8.448 -0.7126  1.5564 -1.3023
  734MOL0     H96843   7.773   7.114   8.354  2.8807 -2.6514  1.9081
  734MOL0     H96844   7.617   7.275   8.342 -2.5002  2.5316  0.1587
  734MOL0     H96845   7.691   7.328   8.503 -0.7346 -0.4677  1.1534
  734MOL0     H96846   7.429   7.169   8.470 -0.1387  0.9920 -1.7796
  734MOL0     H96847   7.525   7.206   8.619  1.9007 -1.7264 -1.1411
  734MOL0     H96848   7.480   7.457   8.556  2.0808 -2.4908 -0.3183
  734MOL0     H96849   7.326   7.356   8.582 -1.1107  4.0162  0.6641
  734MOL0     H96850   7.455   7.669   8.356  1.0362  0.2431 -0.9495
  734MOL0     H96851   7.298   7.840   8.310  5.0034 -2.4318 -0.5481
  734MOL0     H96852   6.873   8.055   8.381 -1.8167  1.1080  0.9792
  734MOL0     H96853   6.696   8.214   8.313  1.2016 -1.1745  1.0183
  734MOL0     H96854   6.327   8.275   8.202  0.7650  1.2589 -2.5581
  734MOL0     H96855   6.491   8.324   8.240  2.7762 -2.5450  0.9117
  734MOL0     H96856   6.513   8.212   8.436 -0.1021  2.3806  1.8486
  734MOL0     H96857   6.381   8.098   8.399  0.0046  0.4013  1.2165
  734MOL0     H96858   6.210   8.305   8.439  0.1875 -1.0456 -0.3223
  734MOL0     H96859   6.353   8.406   8.420 -2.5036  0.6334 -1.7560
  734MOL0     H96860   6.349   8.218   8.664 -0.1330  1.2222  2.7859
  734MOL0     H96861   6.449   8.354   8.637 -1.3374  3.0238 -0.4062
  734MOL0     H96862   6.290   8.397   8.793 -1.2078 -0.9579  0.5885
  734MOL0     H96863   6.156   8.380   8.689 -1.1208  1.5712 -1.7730
  734MOL0     H96864   6.197   8.570   8.560 -0.6170  0.1665  0.3116
  734MOL0     H96865   6.375   8.576   8.611 -0.5983  1.9049 -2.0019
  734MOL0     H96866   6.132   8.715   8.702 -2.2463 -1.8570  1.1168
  734MOL0     H96867   6.186   8.602   8.830 -1.6507  0.2594 -0.1113
  734MOL0     H96868   6.408   8.733   8.817 -0.2193  0.0191 -0.2409
  734MOL0     H96869   6.266   8.839   8.840 -1.1020 -0.7912 -0.1089
  734MOL0     H96870   6.490   7.902   8.104 -1.3620  1.1532  0.3660
  734MOL0     H96871   6.688   7.753   8.127 -0.9613 -1.5818  1.4374
  734MOL0     H96872   6.975   7.555   8.282  1.0556 -3.4210  0.5376
  734MOL0     H96873   7.132   7.376   8.370  0.9089  0.1421 -0.6268
  734MOL0     H96874   9.107   7.488   8.834 -0.6004 -1.0799  3.5572
  734MOL0     H96875   9.282   7.341   8.786  0.7419 -1.1488  2.5525
  734MOL0     H96876   9.429   6.988   8.480 -0.2970  3.1500 -0.8500
  734MOL0     H96877   9.643   6.898   8.427 -1.2678  1.0186 -0.8674
  734MOL0     H96878   9.829   6.830   8.400 -0.0134 -0.3687  2.3102
  734MOL0     H96879  10.008   6.863   8.399  1.6446  1.3893  0.7521
  734MOL0     H96880   9.865   6.933   8.204  2.0840 -0.6021 -0.4018
  734MOL0     H96881   9.806   7.067   8.309  2.3615  3.0756 -1.5510
  734MOL0     H96882  10.080   7.019   8.202  1.1608  0.9369  1.4068
  734MOL0     H96883  10.064   7.120   8.349 -1.2040 -0.2239  0.8531
  734MOL0     H96884   9.948   7.191   8.079  1.1561  1.3237 -0.8691
  734MOL0     H96885   9.912   7.269   8.240  6.0251  5.0359  3.0779
  734MOL0     H96886  10.259   7.450   8.114 -1.1811  1.3469 -3.6100
  734MOL0     H96887   9.843   7.083   8.751 -0.2324  0.0007 -0.0100
  734MOL0     H96888   9.616   7.128   8.847 -0.5768  2.1042 -0.6936
  735MOL0     O96889  10.542   0.437   9.204  0.1263  0.1163  0.2189
  735MOL0     C96890  10.572   0.537   9.141  0.3133 -0.1506  0.1635
  735MOL0     O96891  10.488   0.646   9.112 -0.0563  0.3746  0.2639
  735MOL0     C96892  10.356   0.635   9.171  0.0932  0.3731  0.9134
  735MOL0     C96893  10.324   0.700   9.287 -0.4008  0.8297 -0.0260
  735MOL0     C96894  10.203   0.675   9.352  0.9032  0.1390 -0.6140
  735MOL0     C96895  10.104   0.599   9.286 -0.2233 -0.5192  0.2314
  735MOL0     O96896   9.988   0.555   9.362  0.3594  0.0930  0.0258
  735MOL0     C96897   9.891   0.654   9.412  0.0400 -0.2270  0.2861
  735MOL0     C96898   9.779   0.667   9.308 -0.2163 -0.0847  0.1893
  735MOL0     C96899   9.648   0.705   9.387 -0.5938  0.0229  0.4089
  735MOL0     C96900   9.536   0.781   9.313 -0.1750  0.8479  0.5864
  735MOL0     C96901   9.425   0.801   9.403  0.3201  0.1946 -0.0435
  735MOL0     C96902   9.308   0.865   9.326  0.0135 -1.0202 -0.8995
  735MOL0     C96903   9.200   0.904   9.427 -0.0926  0.5677  0.2174
  735MOL0     C96904   9.076   0.929   9.349  0.3427 -0.1194 -0.3192
  735MOL0     N96905   8.950   0.920   9.431 -0.5381 -0.0155 -0.2718
  735MOL0     C96906   8.843   1.007   9.422  0.7579 -0.0156  0.6062
  735MOL0     C96907   8.752   0.966   9.517 -0.0388  1.1154  0.4004
  735MOL0     C96908   8.614   1.019   9.543 -0.0643 -0.9059 -0.2522
  735MOL0     C96909   8.582   1.023   9.689 -0.7740  0.5355  0.2213
  735MOL0     C96910   8.445   1.093   9.710 -0.1325  0.0568 -0.7641
  735MOL0     C96911   8.406   1.085   9.852  0.2436 -0.1591 -0.4592
  735MOL0     O96912   8.264   1.078   9.883  0.4276 -0.0240 -0.0007
  735MOL0     C96913   8.185   1.191   9.870  0.2139  1.0662 -0.8744
  735MOL0     C96914   8.072   1.183   9.956 -0.2573 -0.0329  0.1028
  735MOL0     C96915   7.977   1.292   9.962  0.3437  0.0485 -1.3214
  735MOL0     C96916   8.011   1.418   9.910  0.1672  1.0943 -0.4533
  735MOL0     C96917   7.932   1.541   9.929  0.1937  0.1374  0.1359
  735MOL0     O96918   7.832   1.540  10.010 -0.6910 -0.5038 -1.2569
  735MOL0     C96919   7.726   1.625  10.018 -0.0064 -0.0247 -0.4847
  735MOL0     C96920   7.678   1.718   9.932  0.1091 -0.6670  0.0866
  735MOL0     C96921   7.582   1.815   9.965 -0.4375 -0.1484 -0.5790
  735MOL0     C96922   7.528   1.822  10.101 -0.2730  0.1813 -0.3710
  735MOL0     O96923   7.443   1.919  10.146  0.3372  0.2572  0.1302
  735MOL0     C96924   7.303   1.880  10.139  0.2497 -0.4040  0.3982
  735MOL0     C96925   7.215   2.002  10.119  0.3917  0.3944  0.4512
  735MOL0     C96926   7.243   2.084   9.986 -0.3076  0.3598  0.2460
  735MOL0     C96927   7.255   2.000   9.855 -0.5225 -0.0220 -0.4881
  735MOL0     C96928   7.142   2.052   9.753  0.8265 -0.0424 -0.2524
  735MOL0     C96929   6.995   1.998   9.786 -0.1078  0.1399 -0.1288
  735MOL0     C96930   6.885   2.048   9.681 -0.6835  0.5236 -0.8399
  735MOL0     C96931   6.764   1.940   9.680  0.3583  0.2397 -0.1904
  735MOL0    Cl96932   6.648   1.957   9.543  0.2047  0.0092 -0.3542
  735MOL0     C96933   7.573   1.719  10.189  0.4984 -0.6000 -0.2871
  735MOL0     C96934   7.670   1.631  10.150 -0.3140  0.5692 -0.3804
  735MOL0     O96935   7.963   1.638   9.856  0.1245  0.0454 -0.1188
  735MOL0     C96936   8.128   1.420   9.830  1.0259 -0.0304  0.9439
  735MOL0     C96937   8.211   1.309   9.805  0.0628 -0.0868  0.5144
  735MOL0     N96938   8.798   0.838   9.559 -0.1984 -0.9314  0.6869
  735MOL0     N96939   8.919   0.818   9.518  0.4549 -0.3888  0.1142
  735MOL0     C96940  10.134   0.525   9.178  0.4124 -0.2225  0.3349
  735MOL0     C96941  10.260   0.549   9.119 -0.0245 -0.0980 -0.0267
  735MOL0     C96942  10.686   0.535   9.054 -0.6766  0.8249 -0.1786
  735MOL0     C96943  10.704   0.408   8.979  0.2038  0.4258  0.3061
  735MOL0     C96944  10.827   0.398   8.908  1.2787  0.7229  0.2764
  735MOL0     C96945  10.922   0.507   8.899 -0.7597  0.7527  0.9363
  735MOL0     O96946  11.043   0.510   8.829  0.4488 -0.4192  1.0910
  735MOL0     C96947  11.042   0.436   8.704 -0.5065 -0.9216 -0.2350
  735MOL0     C96948  11.165   0.461   8.625  0.5427  0.5398 -0.0753
  735MOL0     C96949  11.173   0.383   8.491 -0.1536  0.3507 -0.7877
  735MOL0     C96950  11.266   0.456   8.404  0.1805 -1.0949  0.3742
  735MOL0     C96951  11.408   0.429   8.434  0.6342 -0.1626 -0.3587
  735MOL0     C96952  11.527   0.406   8.465  0.0877  0.7689  0.6872
  735MOL0     C96953  10.892   0.622   8.974 -0.2460 -0.0700  0.3903
  735MOL0     C96954  10.787   0.630   9.058  0.5164 -0.2441  0.8046
  735MOL0     H96955  10.397   0.770   9.327  1.8162 -0.5295 -1.5002
  735MOL0     H96956  10.197   0.723   9.450  1.5144  2.0889 -1.4905
  735MOL0     H96957   9.947   0.747   9.424  1.8122 -0.5455 -3.8398
  735MOL0     H96958   9.837   0.627   9.503 -2.2270  2.7340 -0.0515
  735MOL0     H96959   9.774   0.577   9.247  1.3935  1.1122 -1.8361
  735MOL0     H96960   9.801   0.748   9.238  4.3565 -0.8258  0.4811
  735MOL0     H96961   9.666   0.766   9.476 -2.7768  0.2728  0.7436
  735MOL0     H96962   9.608   0.609   9.422 -0.5878  0.2726  1.1111
  735MOL0     H96963   9.576   0.872   9.268  1.5523 -0.6753 -1.1476
  735MOL0     H96964   9.507   0.714   9.231  1.9104 -2.0009  2.0111
  735MOL0     H96965   9.461   0.870   9.480  0.2904 -0.0953  0.2315
  735MOL0     H96966   9.396   0.707   9.450 -2.1664  0.7917 -0.2379
  735MOL0     H96967   9.268   0.783   9.264 -3.0594  0.3955 -0.9705
  735MOL0     H96968   9.344   0.940   9.255 -2.3713  0.1250 -1.0053
  735MOL0     H96969   9.185   0.832   9.508 -0.4116 -1.9539 -1.9435
  735MOL0     H96970   9.228   0.995   9.481 -1.2355  0.9361  0.1967
  735MOL0     H96971   9.072   0.860   9.264  3.2833 -2.6782  1.3686
  735MOL0     H96972   9.084   1.030   9.309 -0.3470  0.3401  0.6635
  735MOL0     H96973   8.835   1.093   9.355 -2.6872  0.8336  1.9082
  735MOL0     H96974   8.539   0.959   9.490 -1.4328  0.7315 -0.2576
  735MOL0     H96975   8.590   1.119   9.506 -3.5010 -0.4229  2.7249
  735MOL0     H96976   8.664   1.076   9.738  1.4334 -0.6012 -1.9978
  735MOL0     H96977   8.579   0.920   9.726  0.1461  0.6148  0.5326
  735MOL0     H96978   8.469   1.196   9.682 -1.7649  0.3358 -1.2736
  735MOL0     H96979   8.368   1.058   9.641 -1.5478  0.2209  0.6800
  735MOL0     H96980   8.449   1.171   9.905 -0.9409 -0.2034  0.6274
  735MOL0     H96981   8.456   1.001   9.901 -0.5808  0.6093  1.8419
  735MOL0     H96982   8.057   1.085  10.003  2.0659  0.5511  2.3087
  735MOL0     H96983   7.880   1.277  10.010  0.8820  1.2657  0.2359
  735MOL0     H96984   7.730   1.726   9.837  0.4206  1.4661  0.3874
  735MOL0     H96985   7.556   1.898   9.899 -1.8186  0.3810  0.5865
  735MOL0     H96986   7.278   1.854  10.242  1.4924  1.9014  1.3667
  735MOL0     H96987   7.281   1.793  10.076  0.2106 -1.6747  2.1118
  735MOL0     H96988   7.234   2.066  10.206  1.6958 -0.0414  0.5022
  735MOL0     H96989   7.109   1.975  10.124  0.5453  0.0276  2.2473
  735MOL0     H96990   7.347   2.117   9.996  0.0780 -0.7109 -0.0917
  735MOL0     H96991   7.193   2.181   9.977  1.1439  1.0704 -0.5306
  735MOL0     H96992   7.355   2.003   9.812 -1.0767  1.6759 -1.7861
  735MOL0     H96993   7.240   1.894   9.876  1.0418 -0.5538 -1.8178
  735MOL0     H96994   7.169   2.014   9.654  1.7819 -0.6726  0.2350
  735MOL0     H96995   7.157   2.160   9.757 -1.3463  0.2541  1.7540
  735MOL0     H96996   6.969   2.017   9.891  1.8394  0.8153  0.2798
  735MOL0     H96997   7.009   1.890   9.779 -0.4451 -0.2257  3.1631
  735MOL0     H96998   6.838   2.142   9.713 -0.4359  0.7707 -1.1974
  735MOL0     H96999   6.928   2.057   9.581 -0.6974  3.1243 -0.6841
  735MOL0     H97000   6.712   1.931   9.775  1.1127 -2.9538  0.0366
  735MOL0     H97001   6.804   1.839   9.684  0.0528  0.0860 -0.8293
  735MOL0     H97002   7.537   1.701  10.290  0.2962  0.6311 -0.1231
  735MOL0     H97003   7.724   1.563  10.216  2.7752  2.2688 -0.9766
  735MOL0     H97004   8.141   1.506   9.765  0.4212 -1.9542 -1.9678
  735MOL0     H97005   8.293   1.336   9.739 -0.8174  1.4919  0.0425
  735MOL0     H97006  10.060   0.457   9.137 -0.4604 -0.1310  1.7042
  735MOL0     H97007  10.281   0.493   9.028 -0.1679 -0.8733  0.4084
  735MOL0     H97008  10.630   0.329   8.972  1.1943 -0.3534 -3.1752
  735MOL0     H97009  10.861   0.304   8.866 -0.7808  0.6272 -1.3664
  735MOL0     H97010  10.955   0.475   8.650 -1.1591  0.8121  1.9372
  735MOL0     H97011  11.034   0.327   8.710 -0.9980 -0.8944 -0.3386
  735MOL0     H97012  11.176   0.568   8.607 -1.7546  0.9086  0.3359
  735MOL0     H97013  11.244   0.421   8.689  0.0820  1.3500  1.0466
  735MOL0     H97014  11.078   0.373   8.437  1.1216 -4.5256 -2.7743
  735MOL0     H97015  11.209   0.280   8.506 -2.4226 -0.1987  1.5693
  735MOL0     H97016  11.247   0.435   8.298 -0.4274  1.1555 -0.0181
  735MOL0     H97017  11.258   0.564   8.420 -2.3120 -1.6872  4.3448
  735MOL0     H97018  11.625   0.376   8.497 -0.7879  0.5143  3.3862
  735MOL0     H97019  10.959   0.706   8.960  0.3837 -0.2869  1.9171
  735MOL0     H97020  10.775   0.714   9.126  1.9197  0.0064  0.7653
  736MOL0     O97021   2.148   8.589   7.001  0.1040 -0.0476  0.3708
  736MOL0     C97022   2.234   8.523   7.050  0.3894 -0.0697  0.3368
  736MOL0     O97023   2.228   8.391   7.086 -0.2196  0.2400 -0.0351
  736MOL0     C97024   2.104   8.327   7.062  0.9025 -0.2703 -0.3975
  736MOL0     C97025   2.045   8.294   6.939  0.1483 -0.3953  0.5349
  736MOL0     C97026   1.916   8.226   6.926 -0.0654  0.1224 -0.4564
  736MOL0     C97027   1.846   8.194   7.043  0.5633 -0.6471  0.2572
  736MOL0     O97028   1.727   8.126   7.022 -0.0799 -0.4961  0.5427
  736MOL0     C97029   1.632   8.118   7.124  0.2499  0.0044 -0.1739
  736MOL0     C97030   1.489   8.128   7.062  0.5303 -0.2868 -0.8281
  736MOL0     C97031   1.463   8.034   6.943  1.6205  0.2332  0.1705
  736MOL0     C97032   1.318   8.041   6.889 -0.0565  0.0415  0.1952
  736MOL0     C97033   1.274   7.916   6.819  0.0754  0.3703 -0.1081
  736MOL0     C97034   1.157   7.925   6.727  0.0685 -0.0308 -0.3244
  736MOL0     C97035   1.131   7.795   6.637 -0.6472  0.0733 -0.4952
  736MOL0     C97036   1.053   7.678   6.717 -0.0066 -0.3054  0.6188
  736MOL0     N97037   1.130   7.644   6.838  0.4807 -0.4265  0.4501
  736MOL0     C97038   1.223   7.547   6.829  0.1599  0.3544 -0.9652
  736MOL0     C97039   1.251   7.508   6.963 -0.0372 -0.7318 -0.6452
  736MOL0     C97040   1.347   7.405   7.013 -0.2389  0.0253 -0.6380
  736MOL0     C97041   1.483   7.467   7.038 -0.0249  0.3464  0.4799
  736MOL0     C97042   1.581   7.346   7.047  0.5038  0.5740 -0.9060
  736MOL0     C97043   1.726   7.384   7.051 -0.7794  0.2524  0.4658
  736MOL0     O97044   1.740   7.505   7.117 -0.0968  0.2506  0.3160
  736MOL0     C97045   1.868   7.529   7.170 -0.0054  0.7692 -0.2637
  736MOL0     C97046   1.982   7.448   7.145  0.1715 -0.3077  0.3160
  736MOL0     C97047   2.104   7.472   7.205  0.6241 -1.0888 -0.5765
  736MOL0     C97048   2.113   7.589   7.286  0.6864  1.1169  0.4119
  736MOL0     C97049   2.240   7.608   7.356 -0.0630  0.7193 -0.3109
  736MOL0     O97050   2.239   7.668   7.478 -0.1528 -0.0425 -0.4289
  736MOL0     C97051   2.358   7.721   7.527 -0.1754 -0.1299  0.8397
  736MOL0     C97052   2.352   7.738   7.662 -0.4932 -0.0264 -0.2413
  736MOL0     C97053   2.456   7.797   7.733  0.1616 -0.8525 -0.2596
  736MOL0     C97054   2.573   7.833   7.671 -0.1739 -0.3563 -0.2787
  736MOL0     O97055   2.685   7.894   7.739  0.6731 -0.2819  0.3504
  736MOL0     C97056   2.674   7.946   7.872 -0.3498 -0.7373  0.3305
  736MOL0     C97057   2.809   7.990   7.927 -0.0102 -0.0403  0.4295
  736MOL0     C97058   2.858   8.107   7.847  0.6973  0.5896  0.3531
  736MOL0     C97059   2.980   8.171   7.913 -0.4429 -0.5241 -0.0489
  736MOL0     C97060   2.997   8.325   7.895  0.5679  1.1169  0.6018
  736MOL0     C97061   2.994   8.337   7.744  0.4114 -0.1439  0.6322
  736MOL0     C97062   2.995   8.491   7.715 -0.4886 -1.1305 -0.6144
  736MOL0     C97063   3.001   8.528   7.560 -0.0607  0.4257  0.2911
  736MOL0    Cl97064   2.861   8.447   7.470 -0.3253  0.1112 -0.1691
  736MOL0     C97065   2.589   7.812   7.526 -0.2112  0.6978  0.7187
  736MOL0     C97066   2.475   7.763   7.459 -0.3008 -0.7390  0.4321
  736MOL0     O97067   2.336   7.567   7.292 -0.3619 -0.1220 -0.9825
  736MOL0     C97068   2.010   7.673   7.308 -0.1366 -0.3724  0.2397
  736MOL0     C97069   1.884   7.646   7.252  0.7393 -0.4153 -0.1409
  736MOL0     N97070   1.170   7.579   7.046  0.7171 -0.2437  0.4897
  736MOL0     N97071   1.097   7.665   6.973  0.7133  0.3639  0.8573
  736MOL0     C97072   1.907   8.212   7.172  0.2348  0.4341 -0.3961
  736MOL0     C97073   2.033   8.266   7.177 -0.3887 -0.3528  0.7159
  736MOL0     C97074   2.359   8.593   7.107 -0.2603  0.6306  0.0408
  736MOL0     C97075   2.484   8.527   7.114 -0.3150 -0.0873 -0.0309
  736MOL0     C97076   2.600   8.603   7.151 -0.0907 -0.7870 -0.3243
  736MOL0     C97077   2.592   8.740   7.170 -0.5875 -0.6047 -0.4242
  736MOL0     O97078   2.700   8.820   7.212  0.5325  0.1513  0.7011
  736MOL0     C97079   2.835   8.770   7.203 -0.0270 -0.4936  0.2156
  736MOL0     C97080   2.934   8.879   7.250  1.6046  0.8361 -0.4744
  736MOL0     C97081   2.914   9.005   7.177 -0.2143 -0.1527  0.8093
  736MOL0     C97082   2.933   8.995   7.022 -0.3963 -0.5582  0.8303
  736MOL0     C97083   2.944   9.136   6.966 -0.7902 -0.3498  0.1186
  736MOL0     C97084   2.972   9.243   6.924  0.9838  0.6249 -0.4593
  736MOL0     C97085   2.468   8.801   7.172 -0.1621 -1.0157 -0.0786
  736MOL0     C97086   2.358   8.730   7.134 -0.0454 -0.5501 -0.6030
  736MOL0     H97087   2.097   8.320   6.848  1.7918  0.3111  1.6311
  736MOL0     H97088   1.877   8.205   6.827  0.4063 -0.8990 -0.4404
  736MOL0     H97089   1.634   8.210   7.183 -1.6441 -0.0817  0.1182
  736MOL0     H97090   1.652   8.030   7.186  0.0125 -2.0355 -2.8120
  736MOL0     H97091   1.471   8.231   7.027  0.8356  0.0400 -0.0331
  736MOL0     H97092   1.416   8.102   7.139 -0.4620  0.8152 -1.3540
  736MOL0     H97093   1.485   7.937   6.990 -0.7838 -0.4473  0.0415
  736MOL0     H97094   1.541   8.043   6.867  3.0636  1.2862  1.7134
  736MOL0     H97095   1.256   8.069   6.975 -0.2414 -2.1287  0.8207
  736MOL0     H97096   1.323   8.130   6.826  2.3192 -0.1818 -0.0403
  736MOL0     H97097   1.274   7.834   6.892  2.6356  0.4399  0.0380
  736MOL0     H97098   1.358   7.898   6.751 -0.2320 -0.1870 -0.3503
  736MOL0     H97099   1.175   8.006   6.655 -0.0427  1.0202  0.8125
  736MOL0     H97100   1.063   7.948   6.777  0.5470 -0.4883  0.8179
  736MOL0     H97101   1.075   7.819   6.546 -2.6639  1.2285  0.9875
  736MOL0     H97102   1.228   7.762   6.597 -0.7290  0.4054 -0.9801
  736MOL0     H97103   1.028   7.593   6.654  0.8696 -0.4725  0.4761
  736MOL0     H97104   0.955   7.719   6.741  0.2574 -0.0400  1.2825
  736MOL0     H97105   1.255   7.506   6.734 -2.0649 -2.0901 -0.7737
  736MOL0     H97106   1.350   7.327   6.938 -2.4316 -1.4596  0.7061
  736MOL0     H97107   1.315   7.367   7.111  1.5048  2.2422  0.9245
  736MOL0     H97108   1.483   7.520   7.134 -1.2711  0.6625  0.3253
  736MOL0     H97109   1.502   7.529   6.950 -1.1070  2.3581  1.5982
  736MOL0     H97110   1.557   7.301   7.144  1.5746 -2.1252 -1.7840
  736MOL0     H97111   1.569   7.277   6.963 -1.3451 -1.7394  1.1078
  736MOL0     H97112   1.756   7.400   6.947  2.4362  0.2184  1.2908
  736MOL0     H97113   1.786   7.307   7.100  3.4352  1.2297 -2.6082
  736MOL0     H97114   1.991   7.368   7.071  0.8910  0.5971 -0.5959
  736MOL0     H97115   2.196   7.415   7.196 -0.1793 -2.3716 -1.0136
  736MOL0     H97116   2.258   7.707   7.706 -1.4614  1.5522 -1.1452
  736MOL0     H97117   2.438   7.838   7.832 -0.0919  0.0363 -0.6649
  736MOL0     H97118   2.638   7.867   7.937  1.1057 -1.3078  0.4861
  736MOL0     H97119   2.603   8.029   7.868  0.7069  0.2275  0.7915
  736MOL0     H97120   2.875   7.903   7.925 -3.4965 -2.9175 -0.6970
  736MOL0     H97121   2.799   8.026   8.030  3.2805  2.5260  0.0274
  736MOL0     H97122   2.775   8.174   7.825  0.5918  0.3839  0.1261
  736MOL0     H97123   2.893   8.069   7.751  1.1705 -3.1734  1.8463
  736MOL0     H97124   2.948   8.161   8.017 -0.7291 -1.7009 -0.2374
  736MOL0     H97125   3.077   8.120   7.904  0.7057  1.6842 -0.9743
  736MOL0     H97126   3.095   8.335   7.943  0.0728 -3.0440  2.8588
  736MOL0     H97127   2.913   8.374   7.946 -0.6148  0.0740 -0.2878
  736MOL0     H97128   2.904   8.296   7.699  0.4352  0.9526 -0.4633
  736MOL0     H97129   3.089   8.298   7.706  0.5075 -1.7301  2.3668
  736MOL0     H97130   2.905   8.533   7.761  1.5956  0.3584  2.4854
  736MOL0     H97131   3.088   8.533   7.755  0.1964 -2.2929 -0.9231
  736MOL0     H97132   3.099   8.487   7.533  0.5788  0.5912  2.2125
  736MOL0     H97133   2.998   8.636   7.545  0.5890  0.4625  0.3973
  736MOL0     H97134   2.689   7.809   7.483 -1.2279 -3.4845 -1.8711
  736MOL0     H97135   2.467   7.763   7.351 -0.5293  1.4075  0.4126
  736MOL0     H97136   2.019   7.762   7.369  0.0181  0.7442 -1.3547
  736MOL0     H97137   1.807   7.722   7.244  0.2564 -0.7315  1.1634
  736MOL0     H97138   1.882   8.154   7.260  1.8688 -0.7372 -0.6543
  736MOL0     H97139   2.077   8.291   7.273 -1.5088 -0.1594  1.1949
  736MOL0     H97140   2.495   8.421   7.097 -1.0036 -0.1487 -0.1196
  736MOL0     H97141   2.692   8.547   7.159 -1.4967 -3.5631 -2.0324
  736MOL0     H97142   2.850   8.741   7.099 -2.5964 -2.1244  0.2277
  736MOL0     H97143   2.851   8.676   7.257  0.8806  1.2594  3.2828
  736MOL0     H97144   2.912   8.896   7.356  2.4562 -0.8994  0.0270
  736MOL0     H97145   3.036   8.841   7.256  0.6709 -1.6253  2.5892
  736MOL0     H97146   2.991   9.070   7.219  1.2003  1.0876 -3.1975
  736MOL0     H97147   2.814   9.050   7.184  0.4869  1.9203 -1.2486
  736MOL0     H97148   3.023   8.938   6.997 -0.3128  0.4561 -1.3051
  736MOL0     H97149   2.845   8.943   6.983 -4.7316  3.9643  3.4622
  736MOL0     H97150   2.992   9.342   6.887  0.1699 -0.0289 -2.8691
  736MOL0     H97151   2.465   8.905   7.204 -0.9819 -0.9617 -0.3091
  736MOL0     H97152   2.260   8.778   7.143 -0.5729 -1.9415  5.1913
  737MOL0     O97153   9.718   3.333   4.934 -0.0021  0.8388 -0.3236
  737MOL0     C97154   9.758   3.275   5.035 -0.0387 -0.1476 -0.5366
  737MOL0     O97155   9.682   3.205   5.132  0.9072  0.2733  0.2103
  737MOL0     C97156   9.547   3.208   5.100  0.2053  0.1484 -0.1177
  737MOL0     C97157   9.493   3.109   5.026 -0.5396 -0.5183 -0.2908
  737MOL0     C97158   9.356   3.104   5.005 -0.3653 -0.3533 -0.0834
  737MOL0     C97159   9.273   3.208   5.034  0.5761 -0.3275 -0.5295
  737MOL0     O97160   9.138   3.195   4.998 -0.1916 -0.2531 -0.5408
  737MOL0     C97161   9.054   3.310   5.018  0.2111 -0.1971 -0.3375
  737MOL0     C97162   8.916   3.252   5.022 -0.7607 -0.2068 -0.2029
  737MOL0     C97163   8.798   3.352   5.024  0.3124 -0.1965  0.0173
  737MOL0     C97164   8.676   3.257   5.051  1.0323  0.1662  0.3046
  737MOL0     C97165   8.531   3.323   5.040  0.0375 -0.2007  0.2116
  737MOL0     C97166   8.417   3.225   5.037  0.1192  0.2437 -0.0371
  737MOL0     C97167   8.402   3.117   5.147  1.1029 -0.0746  0.2985
  737MOL0     C97168   8.402   3.184   5.291  0.0882 -0.2535  0.5786
  737MOL0     N97169   8.363   3.078   5.377  0.0283  0.3036 -0.6779
  737MOL0     C97170   8.443   2.992   5.450 -0.1542  0.5333  0.4704
  737MOL0     C97171   8.346   2.908   5.506 -0.6850 -0.0679 -0.1178
  737MOL0     C97172   8.373   2.780   5.577  0.0005  0.2369 -1.0025
  737MOL0     C97173   8.497   2.782   5.682  0.6641 -0.2511  0.6063
  737MOL0     C97174   8.459   2.727   5.812  0.2061 -0.3124  0.1945
  737MOL0     C97175   8.576   2.741   5.901 -0.3015 -0.0208 -0.6095
  737MOL0     O97176   8.554   2.845   5.996 -0.4546  0.1098  0.0015
  737MOL0     C97177   8.636   2.851   6.107 -0.3254  0.0835  0.6267
  737MOL0     C97178   8.588   2.940   6.206 -0.4892  0.6586  0.5331
  737MOL0     C97179   8.668   2.970   6.320  0.1002  0.7599  0.4795
  737MOL0     C97180   8.795   2.911   6.338 -0.5774 -0.6976  0.4955
  737MOL0     C97181   8.889   2.943   6.452  0.0240 -0.2301  0.3125
  737MOL0     O97182   8.885   3.062   6.517  0.4351 -0.2919 -0.0776
  737MOL0     C97183   8.968   3.085   6.623  0.1564 -0.1289 -0.2203
  737MOL0     C97184   8.919   3.098   6.757  0.0239 -0.5752 -0.1371
  737MOL0     C97185   9.004   3.142   6.866  0.6287 -0.4774  0.2910
  737MOL0     C97186   9.135   3.158   6.851 -0.0167 -0.3770 -0.5179
  737MOL0     O97187   9.200   3.193   6.965  0.4703  0.4729  0.7474
  737MOL0     C97188   9.341   3.160   6.959  0.8983 -0.4325  0.4387
  737MOL0     C97189   9.391   3.126   7.099  0.1399 -0.3793 -0.1509
  737MOL0     C97190   9.547   3.138   7.112  0.5578 -0.5083 -0.2110
  737MOL0     C97191   9.597   3.051   7.228 -0.2330 -0.0148 -0.0622
  737MOL0     C97192   9.747   3.056   7.251  0.5849  0.0931  0.0632
  737MOL0     C97193   9.794   3.204   7.291  0.2050  0.3059 -0.1667
  737MOL0     C97194   9.944   3.227   7.307  0.9573 -0.2008  0.4371
  737MOL0     C97195   9.984   3.360   7.370  0.1042  0.8750 -0.4066
  737MOL0    Cl97196   9.895   3.380   7.518 -0.1344 -0.0520 -0.0140
  737MOL0     C97197   9.183   3.134   6.723 -0.4776 -0.6051  0.2075
  737MOL0     C97198   9.104   3.110   6.611 -0.3672 -0.1970  0.5795
  737MOL0     O97199   8.977   2.859   6.458  0.0823 -0.1915  0.0030
  737MOL0     C97200   8.840   2.824   6.238  0.2554  1.7009 -0.2306
  737MOL0     C97201   8.760   2.795   6.119 -1.1315  0.6531 -0.1797
  737MOL0     N97202   8.217   2.943   5.459 -0.0031  0.8722  0.4274
  737MOL0     N97203   8.232   3.046   5.391 -0.5734  0.0781 -0.1997
  737MOL0     C97204   9.329   3.321   5.097 -0.3293 -0.3770  0.6029
  737MOL0     C97205   9.463   3.323   5.132  0.2370  0.2773  0.4242
  737MOL0     C97206   9.904   3.286   5.059 -1.0271  0.4193 -0.2293
  737MOL0     C97207   9.987   3.369   4.977 -0.6258  0.0635 -0.1049
  737MOL0     C97208  10.129   3.363   4.969 -0.4657 -0.0443 -0.2875
  737MOL0     C97209  10.194   3.263   5.051 -0.3363 -0.4504 -0.4366
  737MOL0     O97210  10.332   3.247   5.039  0.0747 -0.9060 -0.5714
  737MOL0     C97211  10.412   3.148   5.111  0.6124  1.0299  0.9544
  737MOL0     C97212  10.559   3.157   5.067 -0.4103  0.0085 -0.0498
  737MOL0     C97213  10.617   3.284   5.133  0.0409  0.2747  0.1178
  737MOL0     C97214  10.765   3.295   5.094  0.2674  0.0619  0.8216
  737MOL0     C97215  10.844   3.185   5.164  0.4153  0.2156  0.3891
  737MOL0     C97216  10.911   3.098   5.208 -1.0062  0.1097 -0.3049
  737MOL0     C97217  10.113   3.188   5.135 -0.0073  0.3059  0.1106
  737MOL0     C97218   9.971   3.204   5.146  0.0360 -0.4972 -0.7578
  737MOL0     H97219   9.565   3.030   5.007 -0.6296 -0.7106  0.1557
  737MOL0     H97220   9.333   3.012   4.952  4.5863 -2.4984  0.9031
  737MOL0     H97221   9.060   3.375   4.931  1.9089 -1.2936 -1.0790
  737MOL0     H97222   9.066   3.364   5.113 -0.7676 -0.3339 -0.1205
  737MOL0     H97223   8.932   3.196   5.115  1.9240 -0.0704 -0.4852
  737MOL0     H97224   8.905   3.174   4.946 -1.4086 -0.6671  0.3539
  737MOL0     H97225   8.799   3.388   4.921 -1.6501  0.8710  0.3308
  737MOL0     H97226   8.804   3.437   5.093 -0.0623 -0.0343 -0.1480
  737MOL0     H97227   8.682   3.176   4.977  0.3567  2.0390 -1.9427
  737MOL0     H97228   8.695   3.224   5.153  2.0159  2.0017  0.7633
  737MOL0     H97229   8.529   3.367   4.940  0.4283 -0.8851 -0.1088
  737MOL0     H97230   8.521   3.395   5.122  1.8553 -0.7121  0.9374
  737MOL0     H97231   8.421   3.168   4.943 -1.9329 -1.3312  0.7398
  737MOL0     H97232   8.322   3.277   5.019  0.0686 -0.5406 -2.5545
  737MOL0     H97233   8.310   3.059   5.137 -0.4418  1.9385  2.0828
  737MOL0     H97234   8.488   3.049   5.141  0.4011 -1.0387  0.9821
  737MOL0     H97235   8.329   3.265   5.299  0.6562  0.3946 -0.5254
  737MOL0     H97236   8.495   3.230   5.324 -0.3108 -0.4718  2.0844
  737MOL0     H97237   8.551   2.991   5.463  0.3093 -3.7309 -2.0303
  737MOL0     H97238   8.398   2.706   5.500  1.4297  1.9970 -2.2941
  737MOL0     H97239   8.274   2.768   5.622  0.9371  3.2563  2.2570
  737MOL0     H97240   8.531   2.886   5.684 -0.3550  0.0821  1.7101
  737MOL0     H97241   8.583   2.731   5.637  1.9321  3.4020 -1.5010
  737MOL0     H97242   8.383   2.789   5.861  1.4551  1.5113 -0.0776
  737MOL0     H97243   8.432   2.622   5.795  0.4627 -0.9042  3.0019
  737MOL0     H97244   8.662   2.762   5.836 -2.5303  4.7187 -2.4986
  737MOL0     H97245   8.573   2.649   5.960 -0.1449  0.8644  0.8411
  737MOL0     H97246   8.488   2.975   6.181  0.0826  1.2688 -0.9999
  737MOL0     H97247   8.621   3.035   6.392  0.2432  1.0802  0.2837
  737MOL0     H97248   8.816   3.080   6.784 -0.1967 -1.4598 -1.4980
  737MOL0     H97249   8.961   3.166   6.963  0.4875  0.1261  0.0864
  737MOL0     H97250   9.389   3.253   6.926 -0.3347 -0.0398 -0.3242
  737MOL0     H97251   9.363   3.094   6.875 -0.9959  1.5569 -1.7615
  737MOL0     H97252   9.351   3.028   7.126  0.0240 -0.0177  1.0761
  737MOL0     H97253   9.340   3.197   7.165 -0.1498  0.1375 -0.9182
  737MOL0     H97254   9.564   3.245   7.128  0.2908 -0.8806  3.5408
  737MOL0     H97255   9.585   3.109   7.013 -3.1673  1.9786 -2.6337
  737MOL0     H97256   9.545   3.071   7.323 -3.4018 -2.9624 -0.9873
  737MOL0     H97257   9.567   2.951   7.196 -1.4751  0.0849  0.7092
  737MOL0     H97258   9.806   3.035   7.161 -0.7256  1.3119 -1.1194
  737MOL0     H97259   9.785   2.986   7.327  0.8580  1.7950  1.5665
  737MOL0     H97260   9.751   3.222   7.390  0.4790  0.0646  0.0016
  737MOL0     H97261   9.757   3.280   7.222 -1.6198 -0.4867 -0.1035
  737MOL0     H97262   9.988   3.141   7.359  0.9558 -1.2936 -1.2561
  737MOL0     H97263  10.000   3.228   7.213  1.8218  0.2358  0.9423
  737MOL0     H97264   9.963   3.442   7.301 -1.4395  2.0816  1.4259
  737MOL0     H97265  10.091   3.363   7.393  0.2698 -1.0807 -0.7386
  737MOL0     H97266   9.288   3.146   6.696 -0.0650 -4.0553 -0.1272
  737MOL0     H97267   9.154   3.113   6.515  0.6170 -1.2843  1.0350
  737MOL0     H97268   8.941   2.786   6.231 -0.0844 -0.1995  3.2804
  737MOL0     H97269   8.789   2.734   6.035  0.1836  0.9869  0.0194
  737MOL0     H97270   9.280   3.417   5.112 -0.5732 -0.6200  1.4644
  737MOL0     H97271   9.514   3.408   5.176 -0.6762 -0.3339  2.8160
  737MOL0     H97272   9.950   3.451   4.916  2.1108  1.4420 -0.0533
  737MOL0     H97273  10.185   3.423   4.898 -0.3694 -1.0235 -1.0617
  737MOL0     H97274  10.371   3.047   5.101 -0.8367  1.7806 -1.4767
  737MOL0     H97275  10.401   3.160   5.219 -1.9665  2.5808  0.5967
  737MOL0     H97276  10.622   3.070   5.086 -3.9908 -2.1398  3.3518
  737MOL0     H97277  10.559   3.178   4.959 -0.7828  0.7813  0.0920
  737MOL0     H97278  10.619   3.271   5.241  2.4843 -0.5652  0.0364
  737MOL0     H97279  10.572   3.375   5.092  0.7250  0.1552 -0.9607
  737MOL0     H97280  10.770   3.292   4.984  1.4580  1.9084  0.7781
  737MOL0     H97281  10.804   3.389   5.132  0.8133  0.1383  0.0975
  737MOL0     H97282  10.961   3.040   5.283 -1.8856 -0.5903 -0.2446
  737MOL0     H97283  10.163   3.111   5.193  0.9989 -0.6645 -1.9677
  737MOL0     H97284   9.911   3.153   5.220  3.8391 -1.6810  1.7962
  738MOL0     O97285   8.420   6.345   3.554  0.9962  0.2276 -0.5063
  738MOL0     C97286   8.482   6.396   3.648 -1.8754 -0.7867  0.3207
  738MOL0     O97287   8.619   6.370   3.677  0.0623 -0.3354 -0.1781
  738MOL0     C97288   8.674   6.261   3.608 -0.6635 -0.3217  0.5930
  738MOL0     C97289   8.739   6.282   3.484  0.0418 -0.2610  0.3123
  738MOL0     C97290   8.804   6.176   3.424  0.0406 -0.3603  0.0450
  738MOL0     C97291   8.828   6.057   3.490 -0.3398 -0.0594  0.9562
  738MOL0     O97292   8.900   5.960   3.426  0.5554 -0.0889  0.3636
  738MOL0     C97293   9.017   5.920   3.502  0.4878 -0.6367 -0.8354
  738MOL0     C97294   9.129   5.868   3.402 -0.1811 -0.0859 -0.3527
  738MOL0     C97295   9.268   5.911   3.458 -0.1717 -0.4031  0.2934
  738MOL0     C97296   9.383   5.881   3.363 -0.7351  0.9433  0.0311
  738MOL0     C97297   9.515   5.935   3.431 -0.7712  1.0049  0.8213
  738MOL0     C97298   9.639   5.899   3.328  0.3394 -0.1072 -0.7367
  738MOL0     C97299   9.638   5.995   3.215  0.8642 -0.6077  0.5205
  738MOL0     C97300   9.764   5.992   3.132 -0.0415  0.1247  0.1216
  738MOL0     N97301   9.759   6.081   3.015  0.3981 -0.3835 -0.3395
  738MOL0     C97302   9.718   6.210   3.021  0.0537  0.2269  0.0821
  738MOL0     C97303   9.742   6.252   2.891 -0.3701 -0.1919 -0.1814
  738MOL0     C97304   9.729   6.396   2.830  0.5605  0.6179 -0.2777
  738MOL0     C97305   9.585   6.402   2.763 -0.2509  0.1139  0.5288
  738MOL0     C97306   9.555   6.536   2.695 -0.2268 -0.8379  0.2279
  738MOL0     C97307   9.526   6.654   2.797  0.1160  0.0220 -0.0830
  738MOL0     O97308   9.511   6.770   2.717 -0.5451 -0.2276  0.1240
  738MOL0     C97309   9.386   6.825   2.721  0.0188 -0.7259 -0.6916
  738MOL0     C97310   9.385   6.966   2.733  0.6705 -0.5201  0.4403
  738MOL0     C97311   9.267   7.037   2.728 -0.0917 -0.9182 -0.1207
  738MOL0     C97312   9.144   6.970   2.705  0.7912 -0.4216 -0.9055
  738MOL0     C97313   9.016   7.049   2.697 -0.0927  0.6619 -0.6381
  738MOL0     O97314   8.945   7.046   2.579 -0.5739  0.2279  0.2063
  738MOL0     C97315   8.837   7.120   2.578 -0.0337  0.1388 -0.3443
  738MOL0     C97316   8.717   7.079   2.638 -0.6283  0.2946 -0.2267
  738MOL0     C97317   8.606   7.156   2.634  0.2134 -0.4953 -0.3370
  738MOL0     C97318   8.614   7.274   2.563  0.2721  0.2236  0.0959
  738MOL0     O97319   8.499   7.348   2.562  0.1470  0.3969  0.0726
  738MOL0     C97320   8.518   7.490   2.555 -0.1789  0.3033  0.3604
  738MOL0     C97321   8.401   7.554   2.634 -0.3261  0.5539  0.2659
  738MOL0     C97322   8.420   7.543   2.786  0.5367 -0.0748  0.4030
  738MOL0     C97323   8.302   7.628   2.833  0.6884  0.9126  0.3013
  738MOL0     C97324   8.302   7.660   2.988  0.5815  0.3616  1.1879
  738MOL0     C97325   8.157   7.701   3.035 -0.4029 -0.1057 -0.0921
  738MOL0     C97326   8.152   7.714   3.193 -0.4933  0.3849 -0.4949
  738MOL0     C97327   8.017   7.744   3.255 -0.8385  0.3059 -0.7543
  738MOL0    Cl97328   8.037   7.780   3.432  0.1565 -0.1602  0.3989
  738MOL0     C97329   8.726   7.317   2.498  0.1554  0.1964 -0.2418
  738MOL0     C97330   8.848   7.247   2.513  0.0823 -0.6678  0.1620
  738MOL0     O97331   8.986   7.111   2.798  0.3538 -0.0445 -0.5804
  738MOL0     C97332   9.143   6.837   2.708 -0.2322 -1.0571  1.2869
  738MOL0     C97333   9.262   6.759   2.712  0.3896 -0.9604 -0.2931
  738MOL0     N97334   9.788   6.154   2.810  0.0527 -0.3463 -0.0835
  738MOL0     N97335   9.796   6.050   2.883  0.0417  0.2733  0.9780
  738MOL0     C97336   8.775   6.037   3.621 -0.4876  1.2449 -0.3504
  738MOL0     C97337   8.693   6.140   3.675  0.3940  0.7717 -0.5168
  738MOL0     C97338   8.403   6.498   3.719  0.2598  0.0241  0.9076
  738MOL0     C97339   8.298   6.572   3.655  0.6284  0.2442  0.7362
  738MOL0     C97340   8.223   6.663   3.721 -0.5904 -0.3004  0.1470
  738MOL0     C97341   8.263   6.695   3.853 -0.1002 -1.0017 -0.0389
  738MOL0     O97342   8.201   6.794   3.929  0.3761  0.2539 -0.3417
  738MOL0     C97343   8.073   6.842   3.889 -0.0741 -0.5506  0.0009
  738MOL0     C97344   8.038   6.943   4.001 -0.2711  0.0478 -0.5867
  738MOL0     C97345   7.900   6.995   4.007  0.5151  0.6599  0.2378
  738MOL0     C97346   7.876   7.078   4.132  0.4401  0.0957  0.1064
  738MOL0     C97347   7.740   7.085   4.167  0.4767  0.3608  0.4738
  738MOL0     C97348   7.624   7.088   4.193  0.5262  0.0344 -0.8806
  738MOL0     C97349   8.369   6.634   3.912  0.1987 -0.2919  0.5076
  738MOL0     C97350   8.441   6.531   3.850  0.1610  0.4129  0.5444
  738MOL0     H97351   8.729   6.367   3.417 -0.7018  0.8667  1.7960
  738MOL0     H97352   8.846   6.194   3.325  1.0516  3.9894  1.0330
  738MOL0     H97353   8.994   5.847   3.580 -1.1225 -1.0210 -1.6340
  738MOL0     H97354   9.054   6.004   3.563 -1.8462 -0.1183 -0.0406
  738MOL0     H97355   9.115   5.925   3.309  3.2943 -1.5471 -1.9359
  738MOL0     H97356   9.127   5.764   3.368  0.9305 -0.1825 -0.1503
  738MOL0     H97357   9.283   5.844   3.543  1.1997  0.1934  0.5500
  738MOL0     H97358   9.281   6.014   3.492  1.1529  0.2530 -1.9240
  738MOL0     H97359   9.391   5.774   3.341 -1.0150  0.1711  3.2348
  738MOL0     H97360   9.366   5.943   3.274 -1.9882 -0.2267 -0.5918
  738MOL0     H97361   9.530   5.880   3.524 -2.4145  0.0762  0.5742
  738MOL0     H97362   9.504   6.039   3.465  0.8425  0.8172  2.0256
  738MOL0     H97363   9.625   5.802   3.279  0.2320  1.7704 -4.8800
  738MOL0     H97364   9.731   5.916   3.385 -0.9742 -0.3773  1.5830
  738MOL0     H97365   9.559   5.977   3.141  0.9849  2.4716 -0.5012
  738MOL0     H97366   9.630   6.099   3.249 -3.0173 -0.2553 -0.9916
  738MOL0     H97367   9.762   5.890   3.092  3.6479  0.3256 -0.9421
  738MOL0     H97368   9.852   5.996   3.196 -0.5771 -1.7921  1.0672
  738MOL0     H97369   9.677   6.271   3.101 -1.2072 -0.7576  0.2081
  738MOL0     H97370   9.804   6.424   2.755  0.1556  1.1443 -0.4935
  738MOL0     H97371   9.743   6.471   2.909 -4.3464 -1.0424  2.6055
  738MOL0     H97372   9.509   6.381   2.839  0.6902 -1.7589  1.0167
  738MOL0     H97373   9.585   6.331   2.679 -3.1479 -1.2080  1.5256
  738MOL0     H97374   9.638   6.569   2.633 -2.2988  1.3137 -1.5894
  738MOL0     H97375   9.469   6.526   2.629 -0.4723 -3.5402  0.8506
  738MOL0     H97376   9.600   6.674   2.876  0.7513  1.0319 -0.9137
  738MOL0     H97377   9.434   6.648   2.856  0.9575  2.7288  1.7078
  738MOL0     H97378   9.476   7.022   2.750  1.1600 -0.7410 -1.2959
  738MOL0     H97379   9.262   7.145   2.739 -3.2361 -1.0597  0.8152
  738MOL0     H97380   8.715   6.984   2.689  0.7414 -0.5245 -1.6002
  738MOL0     H97381   8.514   7.123   2.681  0.3615 -2.3812 -1.2899
  738MOL0     H97382   8.502   7.532   2.455 -1.8889 -0.5555  0.2364
  738MOL0     H97383   8.613   7.523   2.597 -0.0173  2.6732 -1.6427
  738MOL0     H97384   8.305   7.507   2.611 -0.9378  0.1816  3.1426
  738MOL0     H97385   8.396   7.660   2.609  0.8608  0.4353 -0.5645
  738MOL0     H97386   8.519   7.581   2.810  0.9114 -0.7760 -0.0155
  738MOL0     H97387   8.410   7.443   2.830 -2.0348 -0.2469 -0.3605
  738MOL0     H97388   8.304   7.724   2.782  0.3415  0.6751 -0.1619
  738MOL0     H97389   8.217   7.569   2.798  0.9427  1.4139 -1.2061
  738MOL0     H97390   8.379   7.735   3.008  1.3478 -0.1433  0.2718
  738MOL0     H97391   8.326   7.572   3.048  0.7119 -3.5610 -3.9392
  738MOL0     H97392   8.083   7.627   3.005 -1.0687  0.1938  0.7852
  738MOL0     H97393   8.140   7.800   2.990  1.0379 -0.0736 -0.6439
  738MOL0     H97394   8.188   7.615   3.225 -3.1786 -1.2751 -2.1527
  738MOL0     H97395   8.231   7.781   3.226  2.1646 -3.4287  1.7747
  738MOL0     H97396   7.968   7.646   3.245  2.5264 -1.5040 -1.1788
  738MOL0     H97397   7.972   7.823   3.194 -2.4629 -0.2439 -0.3281
  738MOL0     H97398   8.724   7.415   2.452 -0.3533  0.2441 -0.1298
  738MOL0     H97399   8.943   7.281   2.472 -0.7663  1.1672 -0.3772
  738MOL0     H97400   9.048   6.786   2.695 -0.4545 -0.5107  0.6636
  738MOL0     H97401   9.244   6.652   2.715  1.3124 -1.1074  0.8880
  738MOL0     H97402   8.793   5.951   3.685  2.4027  1.1690 -1.1079
  738MOL0     H97403   8.644   6.128   3.771 -0.5094 -1.7633 -1.2131
  738MOL0     H97404   8.263   6.554   3.554 -1.9000  0.1735  1.5566
  738MOL0     H97405   8.144   6.715   3.667 -2.6481 -2.9143  0.4511
  738MOL0     H97406   8.007   6.755   3.881 -0.4543 -0.4157  1.3911
  738MOL0     H97407   8.095   6.899   3.799  0.5544  1.1832  1.2048
  738MOL0     H97408   8.072   6.890   4.090  2.9508  0.6994 -1.3012
  738MOL0     H97409   8.107   7.028   3.997  2.5093 -1.9303  1.4549
  738MOL0     H97410   7.831   6.911   4.000  0.6435  0.6932 -2.9451
  738MOL0     H97411   7.874   7.068   3.929  0.9898 -0.0353 -0.5908
  738MOL0     H97412   7.931   7.040   4.219  1.3968 -2.6017 -1.5191
  738MOL0     H97413   7.900   7.183   4.118  2.1728 -0.1984  0.6051
  738MOL0     H97414   7.519   7.088   4.211  0.5337  2.1904 -0.5887
  738MOL0     H97415   8.403   6.645   4.015 -1.2910  1.0286  0.8945
  738MOL0     H97416   8.522   6.488   3.907 -0.6217  1.8769  2.9177
  739MOL0     O97417   1.769   0.128   2.003 -0.1724 -0.3456  0.1781
  739MOL0     C97418   1.825   0.082   1.904 -0.7189  0.8780 -0.3427
  739MOL0     O97419   1.778   0.083   1.774 -0.8739 -0.3121 -0.5318
  739MOL0     C97420   1.643   0.111   1.765 -0.5892 -0.5267 -0.2829
  739MOL0     C97421   1.601   0.239   1.777  0.0160  0.0196  1.2386
  739MOL0     C97422   1.467   0.270   1.798 -0.4594  0.1885 -0.4068
  739MOL0     C97423   1.368   0.176   1.789 -0.7836 -0.2110 -0.3693
  739MOL0     O97424   1.239   0.203   1.816 -0.1791  0.3749  0.0134
  739MOL0     C97425   1.159   0.225   1.708  0.7564  0.0134  1.1924
  739MOL0     C97426   1.014   0.226   1.771 -0.1875 -0.0698  0.8754
  739MOL0     C97427   0.940   0.096   1.803 -0.8007  0.1785 -0.0407
  739MOL0     C97428   0.907   0.021   1.680 -0.1584 -0.2895  0.3650
  739MOL0     C97429   0.779   0.079   1.615  0.1426 -0.0321 -0.5103
  739MOL0     C97430   0.649   0.025   1.686  0.7516 -0.4467  0.3361
  739MOL0     C97431   0.522   0.066   1.607 -0.1925 -0.3666  0.0515
  739MOL0     C97432   0.396   0.017   1.689  0.0486  0.1448  0.6076
  739MOL0     N97433   0.281   0.019   1.599  0.6664  0.0507  0.0192
  739MOL0     C97434   0.225  -0.089   1.524 -0.1211 -0.5589 -0.0348
  739MOL0     C97435   0.124  -0.035   1.450  0.3801 -0.8989 -0.3287
  739MOL0     C97436   0.026  -0.101   1.360 -0.1113  0.9467  0.4066
  739MOL0     C97437  -0.042  -0.010   1.254 -0.3771 -0.0337  0.0136
  739MOL0     C97438  -0.145  -0.078   1.159  0.3108  0.1460 -0.0378
  739MOL0     C97439  -0.203   0.042   1.078 -0.8782  1.1333  0.2444
  739MOL0     O97440  -0.348   0.026   1.053 -0.1312  0.0478 -0.3592
  739MOL0     C97441  -0.377  -0.012   0.927 -0.3761 -0.0435  0.5910
  739MOL0     C97442  -0.452  -0.124   0.909 -0.7264  0.2991 -0.3333
  739MOL0     C97443  -0.506  -0.161   0.786 -0.0071  0.1520 -0.3207
  739MOL0     C97444  -0.505  -0.067   0.682 -0.3995 -0.2149 -0.0122
  739MOL0     C97445  -0.582  -0.076   0.551  0.0833 -1.0357 -0.3042
  739MOL0     O97446  -0.565   0.009   0.445  0.3051 -0.6063  0.0660
  739MOL0     C97447  -0.654   0.007   0.343 -0.2665  0.2309  0.0892
  739MOL0     C97448  -0.700  -0.098   0.269  0.5331  0.8187  0.4939
  739MOL0     C97449  -0.780  -0.078   0.159 -0.6602  0.6360 -0.9063
  739MOL0     C97450  -0.808   0.050   0.115  0.4267 -0.0455 -0.5373
  739MOL0     O97451  -0.894   0.070   0.008 -1.0780  0.5585 -0.6065
  739MOL0     C97452  -1.030   0.117   0.008 -0.4618 -0.2464 -0.6664
  739MOL0     C97453  -1.136   0.033   0.066  0.5548 -0.4143 -0.3518
  739MOL0     C97454  -1.102  -0.035   0.199  0.8877  0.8405  0.5481
  739MOL0     C97455  -1.220  -0.091   0.278 -0.9199  0.0659 -0.3565
  739MOL0     C97456  -1.324   0.004   0.318 -0.1610 -0.6870 -0.7760
  739MOL0     C97457  -1.276   0.131   0.381 -0.2889  0.6459 -0.3894
  739MOL0     C97458  -1.391   0.225   0.438  0.7434 -1.0133 -0.3652
  739MOL0     C97459  -1.340   0.297   0.561  1.1650 -0.2269 -0.1332
  739MOL0    Cl97460  -1.470   0.401   0.637  0.0213 -0.0163  0.4482
  739MOL0     C97461  -0.758   0.165   0.188 -0.3471  0.7770  0.2600
  739MOL0     C97462  -0.678   0.140   0.298  0.6512 -0.7497  0.3541
  739MOL0     O97463  -0.673  -0.157   0.551 -0.2746  0.2172 -0.1242
  739MOL0     C97464  -0.428   0.055   0.702 -0.3830  0.0410 -0.7518
  739MOL0     C97465  -0.368   0.080   0.823  0.1097  0.5339  0.4532
  739MOL0     N97466   0.125   0.110   1.474 -0.0045  1.0347  0.4725
  739MOL0     N97467   0.215   0.135   1.566  0.3061  0.6370  0.0389
  739MOL0     C97468   1.400   0.046   1.758  0.0149  0.6987 -0.2868
  739MOL0     C97469   1.537   0.009   1.757 -0.3637 -0.5613  0.2172
  739MOL0     C97470   1.969   0.034   1.919 -0.1965 -0.5001 -0.8329
  739MOL0     C97471   2.051   0.083   2.022 -0.5663  0.7448 -0.4939
  739MOL0     C97472   2.184   0.047   2.033 -0.5100 -0.1838  1.1429
  739MOL0     C97473   2.241  -0.038   1.944 -0.9088  0.2505  1.2899
  739MOL0     O97474   2.376  -0.065   1.949 -0.8116  0.4010 -0.1268
  739MOL0     C97475   2.450  -0.037   2.069 -0.5966  0.0664 -0.6952
  739MOL0     C97476   2.585  -0.105   2.055 -1.1976  0.0642  0.8550
  739MOL0     C97477   2.687  -0.016   2.124  0.6644 -0.5659 -0.9541
  739MOL0     C97478   2.822  -0.051   2.091  0.3901  1.3568 -0.5564
  739MOL0     C97479   2.929   0.004   2.179  0.6290  1.0339  0.2343
  739MOL0     C97480   3.016   0.037   2.253 -0.3534  0.0007  0.1003
  739MOL0     C97481   2.166  -0.095   1.843  0.0835  0.0922 -0.0153
  739MOL0     C97482   2.025  -0.071   1.833  0.5859  0.1886  0.4513
  739MOL0     H97483   1.676   0.318   1.774  1.7734 -1.5788  1.2566
  739MOL0     H97484   1.429   0.368   1.827  0.7840  0.6829 -0.4157
  739MOL0     H97485   1.161   0.151   1.628 -2.8052  2.4726 -1.5301
  739MOL0     H97486   1.179   0.321   1.659  2.6417 -1.1888 -0.5591
  739MOL0     H97487   0.952   0.286   1.704 -2.4842 -1.7400  1.3951
  739MOL0     H97488   1.024   0.280   1.866  0.4167  1.4670 -0.0118
  739MOL0     H97489   0.855   0.124   1.866 -2.1095 -1.4633 -0.9555
  739MOL0     H97490   1.011   0.040   1.864 -3.0225 -1.4385  1.2286
  739MOL0     H97491   0.988   0.032   1.607  1.4683  2.3064  2.3825
  739MOL0     H97492   0.892  -0.083   1.709 -2.5329  0.5753  2.6730
  739MOL0     H97493   0.768   0.042   1.513 -0.4472  2.7478 -1.5330
  739MOL0     H97494   0.779   0.188   1.606 -1.6942  0.1507  0.9702
  739MOL0     H97495   0.644   0.050   1.792  3.3189 -1.7304  0.8362
  739MOL0     H97496   0.652  -0.085   1.681  0.0576 -0.4686  0.2490
  739MOL0     H97497   0.524   0.175   1.599 -0.1893 -0.3565  0.1826
  739MOL0     H97498   0.522   0.024   1.506 -0.2098 -1.4515  0.4801
  739MOL0     H97499   0.376   0.085   1.773 -2.1593  0.3453 -0.0276
  739MOL0     H97500   0.416  -0.087   1.716  0.3583  0.9930  4.1101
  739MOL0     H97501   0.248  -0.193   1.544  1.9177 -0.2001 -0.3097
  739MOL0     H97502  -0.053  -0.134   1.428  1.9922 -2.7526  1.3321
  739MOL0     H97503   0.077  -0.182   1.307  4.2468  1.7582  2.9223
  739MOL0     H97504   0.038   0.035   1.195 -0.6565 -0.4546 -0.7114
  739MOL0     H97505  -0.093   0.073   1.304 -0.9298  0.4914 -1.3640
  739MOL0     H97506  -0.101  -0.153   1.093  2.5293  0.8874  0.5364
  739MOL0     H97507  -0.230  -0.120   1.214 -0.4101  3.6208  1.7704
  739MOL0     H97508  -0.146   0.067   0.988 -0.0838  0.9957  0.7059
  739MOL0     H97509  -0.199   0.136   1.134 -0.3020  0.8684  0.6571
  739MOL0     H97510  -0.459  -0.193   0.993 -1.9017 -2.0569 -2.2374
  739MOL0     H97511  -0.550  -0.259   0.770  2.0284 -0.9689  0.5793
  739MOL0     H97512  -0.656  -0.196   0.281 -1.2286 -0.0070  0.3868
  739MOL0     H97513  -0.821  -0.159   0.099  0.0345 -0.7831  0.4443
  739MOL0     H97514  -1.074   0.137  -0.090 -0.9767 -2.8995 -1.0418
  739MOL0     H97515  -1.036   0.212   0.063 -1.5868 -0.7811  0.1544
  739MOL0     H97516  -1.148  -0.048  -0.007  0.5212 -1.3201  0.6277
  739MOL0     H97517  -1.232   0.086   0.070 -1.0454 -2.9485 -1.7952
  739MOL0     H97518  -1.039   0.034   0.256  0.0973 -0.0643  2.6445
  739MOL0     H97519  -1.034  -0.118   0.180  0.8027  0.4225  1.9374
  739MOL0     H97520  -1.266  -0.175   0.225  1.4946 -0.1570 -2.3187
  739MOL0     H97521  -1.182  -0.127   0.374  0.3415 -0.8937 -1.1789
  739MOL0     H97522  -1.392  -0.037   0.393 -2.8906  2.4522 -1.3559
  739MOL0     H97523  -1.391   0.023   0.234 -1.2047 -2.3927 -0.3812
  739MOL0     H97524  -1.208   0.181   0.311 -2.5320  3.3358 -0.8179
  739MOL0     H97525  -1.209   0.099   0.461  0.6656  4.0895  0.3679
  739MOL0     H97526  -1.435   0.295   0.366  0.4330 -0.1663  0.6309
  739MOL0     H97527  -1.474   0.166   0.477 -0.5085  1.3162  0.6818
  739MOL0     H97528  -1.260   0.367   0.536  0.4473  0.6352 -0.0904
  739MOL0     H97529  -1.303   0.209   0.614  2.0582  0.1322 -0.1505
  739MOL0     H97530  -0.764   0.270   0.161 -3.2331  1.3999  2.8151
  739MOL0     H97531  -0.636   0.222   0.355  1.9980 -1.7162  0.8143
  739MOL0     H97532  -0.434   0.134   0.628  2.4631  1.6298  0.5451
  739MOL0     H97533  -0.334   0.182   0.840 -0.2476  0.2776  3.3237
  739MOL0     H97534   1.315  -0.021   1.747 -0.0765  0.7532  0.0653
  739MOL0     H97535   1.549  -0.092   1.720  0.2968 -0.1793 -0.6844
  739MOL0     H97536   2.015   0.146   2.103 -0.4259 -0.4661  0.5352
  739MOL0     H97537   2.232   0.068   2.128  1.7032 -0.6828  0.1923
  739MOL0     H97538   2.384  -0.063   2.153 -0.2870  3.0047  0.5714
  739MOL0     H97539   2.469   0.069   2.084  1.9572 -0.5578  1.0744
  739MOL0     H97540   2.572  -0.201   2.106 -1.6297  1.0724  2.7645
  739MOL0     H97541   2.621  -0.116   1.953 -0.9339 -0.2060  0.9768
  739MOL0     H97542   2.676  -0.034   2.232 -2.6494  3.7406 -0.2922
  739MOL0     H97543   2.668   0.091   2.116 -3.9708 -1.1973 -1.4152
  739MOL0     H97544   2.832  -0.159   2.108  1.5390  1.8644  2.6120
  739MOL0     H97545   2.831  -0.033   1.984 -1.8554  1.6871 -0.7361
  739MOL0     H97546   3.096   0.069   2.317 -1.2448  0.6997  0.8846
  739MOL0     H97547   2.211  -0.168   1.777 -2.9636 -1.2628 -0.7505
  739MOL0     H97548   1.960  -0.115   1.759 -1.1202 -0.9660  2.5306
  740MOL0     O97549   4.853  10.408   4.808  0.2586  0.1818 -0.2124
  740MOL0     C97550   4.842  10.371   4.694  0.0217  0.2646  0.3400
  740MOL0     O97551   4.764  10.278   4.636  1.0922 -0.3748 -0.2243
  740MOL0     C97552   4.663  10.229   4.716 -0.6031  0.0590 -0.5012
  740MOL0     C97553   4.672  10.115   4.790 -0.2127 -0.6230  0.2160
  740MOL0     C97554   4.563  10.067   4.859 -0.7269 -0.3724  0.1851
  740MOL0     C97555   4.444  10.143   4.859  0.4624  0.0171 -0.3792
  740MOL0     O97556   4.345  10.099   4.937  0.3556 -0.1687  0.7722
  740MOL0     C97557   4.236  10.192   4.974  0.3712 -0.5316 -0.4031
  740MOL0     C97558   4.121  10.100   5.032  0.1249  0.5815  0.5597
  740MOL0     C97559   4.181  10.037   5.161 -0.9067 -0.6615 -0.6078
  740MOL0     C97560   4.073   9.958   5.246 -0.1850  0.3164  0.4450
  740MOL0     C97561   4.137   9.937   5.387 -0.2343 -1.1589  0.5364
  740MOL0     C97562   4.043   9.846   5.463 -0.6831 -0.6981 -0.3744
  740MOL0     C97563   4.132   9.737   5.533 -0.0772 -0.5052  0.7739
  740MOL0     C97564   4.215   9.778   5.656 -0.9906  0.2813  0.1118
  740MOL0     N97565   4.285   9.647   5.696 -0.8774 -0.5663 -0.2075
  740MOL0     C97566   4.411   9.627   5.665  0.3011  0.3497  1.1897
  740MOL0     C97567   4.427   9.500   5.699 -0.0980 -0.0305  0.4046
  740MOL0     C97568   4.555   9.420   5.668  0.2081  0.4166 -0.3529
  740MOL0     C97569   4.617   9.343   5.788 -0.5732  0.6779  0.3599
  740MOL0     C97570   4.633   9.436   5.910  0.0803 -0.5626 -0.4616
  740MOL0     C97571   4.718   9.391   6.023 -0.3200  0.0172  0.6719
  740MOL0     O97572   4.701   9.250   6.061 -1.0722  0.8457 -0.0709
  740MOL0     C97573   4.628   9.198   6.163  0.2419 -1.1079  0.1035
  740MOL0     C97574   4.626   9.051   6.193  0.7032 -0.0440 -0.3271
  740MOL0     C97575   4.534   9.009   6.289  0.1891  0.3869  0.2728
  740MOL0     C97576   4.452   9.102   6.360  1.0154  0.6910 -0.1592
  740MOL0     C97577   4.354   9.042   6.460 -1.0943 -0.7492 -0.1173
  740MOL0     O97578   4.298   9.140   6.537  0.5905 -0.7325  0.3480
  740MOL0     C97579   4.168   9.128   6.585 -1.1997 -0.3441  0.1126
  740MOL0     C97580   4.139   9.113   6.720 -0.6262 -0.6417 -0.0295
  740MOL0     C97581   4.011   9.110   6.763 -0.2100  0.9229  0.1235
  740MOL0     C97582   3.905   9.118   6.667 -0.3330  0.1456  0.2890
  740MOL0     O97583   3.772   9.121   6.698 -0.2075  0.6766  0.4072
  740MOL0     C97584   3.744   9.092   6.835 -0.2974  0.1454 -0.0050
  740MOL0     C97585   3.599   9.109   6.866 -0.3416 -1.4508 -0.3646
  740MOL0     C97586   3.525   9.005   6.786  0.6383 -0.5702  0.4018
  740MOL0     C97587   3.379   9.006   6.807  0.1774 -0.0153  0.3231
  740MOL0     C97588   3.323   8.884   6.735 -0.1770  0.0477 -0.5770
  740MOL0     C97589   3.181   8.833   6.794 -0.2775  0.7647  0.7150
  740MOL0     C97590   3.151   8.699   6.732  0.4602 -0.6662 -0.0456
  740MOL0     C97591   3.022   8.640   6.783  0.2133 -0.9419  0.2667
  740MOL0    Cl97592   2.886   8.754   6.763  0.0376 -0.1208  0.2760
  740MOL0     C97593   3.939   9.139   6.530 -0.5374 -0.0683 -0.4015
  740MOL0     C97594   4.071   9.144   6.491 -0.8978  0.0505  0.3825
  740MOL0     O97595   4.323   8.920   6.463  0.0117  0.5128  0.9297
  740MOL0     C97596   4.461   9.236   6.333 -0.4456 -0.6746 -0.4609
  740MOL0     C97597   4.550   9.287   6.242 -0.3532 -0.6094 -0.2515
  740MOL0     N97598   4.312   9.443   5.750  0.0149 -0.3186  0.3172
  740MOL0     N97599   4.223   9.545   5.750  0.8476  0.3697  0.2261
  740MOL0     C97600   4.443  10.265   4.792 -0.4586  0.1068  0.1868
  740MOL0     C97601   4.548  10.304   4.711 -1.3023  0.5726 -0.1555
  740MOL0     C97602   4.935  10.432   4.598  0.2196  0.2857 -0.1085
  740MOL0     C97603   4.912  10.418   4.462  0.0112 -0.1477  1.2114
  740MOL0     C97604   5.013  10.466   4.380  0.3396  0.6100  0.2824
  740MOL0     C97605   5.130  10.531   4.422 -0.0170  0.4674 -0.0454
  740MOL0     O97606   5.219  10.570   4.324  0.5889 -0.5666 -0.5272
  740MOL0     C97607   5.363  10.554   4.333  0.0533  0.0665 -0.8530
  740MOL0     C97608   5.407  10.410   4.323  0.3817 -0.2071 -0.5330
  740MOL0     C97609   5.400  10.345   4.190 -0.3225 -0.3841 -0.0137
  740MOL0     C97610   5.272  10.279   4.158 -0.6149 -0.7968 -0.3127
  740MOL0     C97611   5.287  10.210   4.033 -0.2352  0.0556  0.9849
  740MOL0     C97612   5.293  10.178   3.920 -0.0908 -0.5017  1.0319
  740MOL0     C97613   5.147  10.554   4.560  0.9267 -0.2041  0.2993
  740MOL0     C97614   5.048  10.499   4.646  0.1261 -0.3538  0.2178
  740MOL0     H97615   4.767  10.063   4.788 -0.0186 -0.2552 -1.8047
  740MOL0     H97616   4.577   9.972   4.910  1.0084 -0.1098  0.2482
  740MOL0     H97617   4.193  10.249   4.891 -0.2692 -0.4984 -0.0607
  740MOL0     H97618   4.273  10.256   5.054 -0.6809  1.1628 -1.2132
  740MOL0     H97619   4.082  10.026   4.962 -1.6865  1.9586  0.0178
  740MOL0     H97620   4.035  10.166   5.050  0.4424  1.7136 -1.7721
  740MOL0     H97621   4.224  10.119   5.219  0.2734 -1.3806 -0.4538
  740MOL0     H97622   4.255   9.961   5.137 -0.8426 -0.8359  0.1420
  740MOL0     H97623   3.976  10.007   5.243 -0.3791 -0.1051 -1.0317
  740MOL0     H97624   4.060   9.861   5.197  2.0915  0.2125 -0.0741
  740MOL0     H97625   4.143  10.036   5.432 -0.0536 -0.4954 -0.8715
  740MOL0     H97626   4.229   9.883   5.362 -0.9563 -1.5064 -1.6254
  740MOL0     H97627   3.984   9.790   5.390 -0.3905  0.3190 -1.4178
  740MOL0     H97628   3.986   9.906   5.534  0.8618 -0.6546  0.9074
  740MOL0     H97629   4.061   9.657   5.554 -0.7993  0.0591  0.5041
  740MOL0     H97630   4.204   9.689   5.466  0.6853  1.3773  0.1696
  740MOL0     H97631   4.147   9.802   5.738 -2.4129  0.0977 -0.9593
  740MOL0     H97632   4.289   9.857   5.646  1.3125 -1.7849 -0.1585
  740MOL0     H97633   4.475   9.701   5.617 -0.0889  0.0899  0.2499
  740MOL0     H97634   4.629   9.482   5.617  2.1500 -0.1088  1.6721
  740MOL0     H97635   4.529   9.350   5.588 -1.6362  1.1710 -0.4742
  740MOL0     H97636   4.720   9.312   5.771  0.1669  1.5439  2.8123
  740MOL0     H97637   4.561   9.254   5.818 -1.7829  2.3364  3.4226
  740MOL0     H97638   4.676   9.536   5.896  0.4245 -0.1952  2.6473
  740MOL0     H97639   4.532   9.458   5.947  0.1989 -0.2954 -0.2922
  740MOL0     H97640   4.693   9.458   6.106 -0.3489  2.5168 -1.2513
  740MOL0     H97641   4.823   9.404   5.996 -0.5101 -1.2809 -0.8357
  740MOL0     H97642   4.682   8.983   6.130  1.5452 -1.3280  1.6735
  740MOL0     H97643   4.530   8.901   6.298  1.3982 -0.0096 -2.6498
  740MOL0     H97644   4.221   9.104   6.791 -0.3647 -2.3688 -0.5276
  740MOL0     H97645   3.997   9.091   6.869  1.8761 -0.5083  0.1957
  740MOL0     H97646   3.805   9.154   6.901  0.8857 -1.9238  0.9591
  740MOL0     H97647   3.772   8.991   6.866  0.8060  0.4255 -0.0633
  740MOL0     H97648   3.572   9.208   6.827  1.7282 -0.7865 -0.2330
  740MOL0     H97649   3.579   9.102   6.973  2.5542 -1.6788  0.2190
  740MOL0     H97650   3.564   8.906   6.809  0.5319 -0.7113 -0.0203
  740MOL0     H97651   3.556   9.019   6.682  0.9432  1.3707  0.7218
  740MOL0     H97652   3.345   9.007   6.911 -1.9346 -2.9996 -0.2013
  740MOL0     H97653   3.334   9.096   6.764  0.1068 -0.2084 -0.0166
  740MOL0     H97654   3.404   8.810   6.741  0.5653  0.8185 -0.9137
  740MOL0     H97655   3.330   8.902   6.628 -1.1183  1.8668 -0.3680
  740MOL0     H97656   3.095   8.899   6.778 -2.4606 -2.3309 -1.4566
  740MOL0     H97657   3.185   8.821   6.902  1.8189  1.7715  0.7999
  740MOL0     H97658   3.148   8.713   6.624 -0.5243  1.6598  0.2274
  740MOL0     H97659   3.239   8.635   6.749 -2.5611 -4.8287  1.5703
  740MOL0     H97660   3.026   8.612   6.889 -0.2305  0.4129  0.6627
  740MOL0     H97661   2.992   8.549   6.731 -3.4457 -0.1239  0.6562
  740MOL0     H97662   3.856   9.146   6.461  0.6240  0.9557 -1.7478
  740MOL0     H97663   4.104   9.155   6.389  0.8555  1.0682  1.0347
  740MOL0     H97664   4.403   9.315   6.379  1.7646  0.6361  0.2712
  740MOL0     H97665   4.549   9.395   6.237 -1.1540 -0.6665 -2.3224
  740MOL0     H97666   4.360  10.333   4.809 -1.6862 -1.4006  0.5350
  740MOL0     H97667   4.552  10.400   4.660 -0.1619  0.9104  0.5310
  740MOL0     H97668   4.824  10.367   4.424 -0.9612 -0.4377  3.6808
  740MOL0     H97669   4.999  10.461   4.273  0.3498 -0.1616  0.3134
  740MOL0     H97670   5.397  10.588   4.432  0.4034  0.8835 -1.2487
  740MOL0     H97671   5.408  10.612   4.252 -1.2270  0.8413 -1.0366
  740MOL0     H97672   5.509  10.404   4.362  0.8435  3.2039 -0.9165
  740MOL0     H97673   5.347  10.348   4.390 -3.5133 -0.0370 -3.4778
  740MOL0     H97674   5.468  10.259   4.197 -2.2809 -2.0460 -0.6388
  740MOL0     H97675   5.442  10.408   4.110 -1.9193 -1.8394 -2.1114
  740MOL0     H97676   5.228  10.211   4.232 -0.3769  0.4392  1.0089
  740MOL0     H97677   5.192  10.353   4.149 -1.5159 -1.7833 -0.6421
  740MOL0     H97678   5.306  10.152   3.817 -2.1118 -1.8751  1.0764
  740MOL0     H97679   5.233  10.607   4.600  0.5842  1.3335 -0.8761
  740MOL0     H97680   5.073  10.510   4.751 -1.3911 -3.3690  1.0067
  741MOL0     O97681   7.564  10.422   9.058 -0.6539  0.0914 -0.7044
  741MOL0     C97682   7.633  10.525   9.086  0.6300  1.0918  0.3753
  741MOL0     O97683   7.605  10.621   9.175  0.3019 -0.3894  0.5041
  741MOL0     C97684   7.469  10.641   9.203 -0.1453  0.2547 -0.5066
  741MOL0     C97685   7.362  10.634   9.103 -0.1552  0.0239  0.1304
  741MOL0     C97686   7.236  10.674   9.140  0.5427 -0.0628  0.0028
  741MOL0     C97687   7.210  10.725   9.268  0.0965 -0.1894 -0.5975
  741MOL0     O97688   7.080  10.759   9.316  0.2036  0.0573  0.2213
  741MOL0     C97689   6.974  10.753   9.216  0.3699  0.6689  0.0433
  741MOL0     C97690   6.832  10.745   9.295  0.2516  0.3081  0.2464
  741MOL0     C97691   6.711  10.793   9.212  0.2120 -0.0652 -1.1247
  741MOL0     C97692   6.583  10.776   9.298 -0.4377  0.2680  0.8265
  741MOL0     C97693   6.453  10.812   9.222 -0.4133  0.0605  0.6756
  741MOL0     C97694   6.345  10.816   9.328 -0.6309  0.4456 -0.7131
  741MOL0     C97695   6.203  10.818   9.266 -0.2762 -0.6390 -0.4675
  741MOL0     C97696   6.095  10.810   9.378 -0.4255 -0.3155 -0.7307
  741MOL0     N97697   5.961  10.865   9.333  0.3935  0.7319  0.5592
  741MOL0     C97698   5.853  10.898   9.415 -0.2734  0.6717  0.8390
  741MOL0     C97699   5.763  10.943   9.330  0.4581 -0.1070  0.3034
  741MOL0     C97700   5.627  11.002   9.368 -0.3102 -0.0119 -0.4500
  741MOL0     C97701   5.522  11.030   9.255 -0.2222  0.1534  0.8299
  741MOL0     C97702   5.483  10.897   9.181 -1.2889 -0.2008  0.2693
  741MOL0     C97703   5.348  10.901   9.098  0.1946 -0.3865 -0.5555
  741MOL0     O97704   5.243  10.924   9.199 -0.1244 -0.3206 -0.1099
  741MOL0     C97705   5.117  10.927   9.150 -0.1345  0.0488  0.4671
  741MOL0     C97706   5.022  10.859   9.223  0.3767 -0.1356 -0.1955
  741MOL0     C97707   4.890  10.854   9.179  0.4036 -0.0981 -0.0762
  741MOL0     C97708   4.850  10.920   9.062 -0.3701  0.3899 -0.2102
  741MOL0     C97709   4.705  10.894   9.018  0.1648 -1.4519 -0.4724
  741MOL0     O97710   4.623  10.803   9.085  0.1154  0.0534 -0.0349
  741MOL0     C97711   4.539  10.726   9.013 -0.2767  0.0492  0.1028
  741MOL0     C97712   4.589  10.640   8.906  0.1273 -0.1732 -0.4099
  741MOL0     C97713   4.497  10.560   8.843 -0.6982  0.0911  0.0790
  741MOL0     C97714   4.360  10.565   8.867 -0.0099  0.9696  0.3717
  741MOL0     O97715   4.275  10.506   8.776  0.1202  0.3151 -0.9093
  741MOL0     C97716   4.150  10.569   8.744  0.2319  0.5963 -0.2537
  741MOL0     C97717   4.044  10.455   8.767  0.0364 -0.9118  0.0494
  741MOL0     C97718   3.905  10.504   8.721  0.3333  0.3873 -0.6522
  741MOL0     C97719   3.803  10.396   8.754 -0.1375  0.4268 -0.0864
  741MOL0     C97720   3.673  10.429   8.672  0.1730 -0.6055 -0.8229
  741MOL0     C97721   3.570  10.314   8.690 -0.5154 -0.3596 -0.6037
  741MOL0     C97722   3.424  10.360   8.663 -0.0945 -0.0207  0.3246
  741MOL0     C97723   3.312  10.263   8.688  0.5108  0.0791 -0.7843
  741MOL0    Cl97724   3.265  10.287   8.858 -0.0004 -0.0100  0.3694
  741MOL0     C97725   4.312  10.644   8.970 -0.5748  0.9853 -0.3751
  741MOL0     C97726   4.403  10.716   9.056 -0.1190  0.2174 -0.2842
  741MOL0     O97727   4.668  10.960   8.921 -0.0341 -0.7309  0.2217
  741MOL0     C97728   4.949  10.998   8.990  0.3108 -0.6932  0.0153
  741MOL0     C97729   5.083  11.000   9.035 -0.0551 -0.3967  0.4205
  741MOL0     N97730   5.797  10.915   9.197 -0.1778 -0.7161 -0.0068
  741MOL0     N97731   5.917  10.865   9.204  0.1143  0.4038 -0.2439
  741MOL0     C97732   7.315  10.737   9.360 -0.2218 -0.8428  0.6546
  741MOL0     C97733   7.443  10.697   9.325 -0.7404  0.9416 -0.4366
  741MOL0     C97734   7.762  10.540   9.009 -0.7271  0.0058  0.4839
  741MOL0     C97735   7.873  10.617   9.066 -0.7784 -0.0246  0.5606
  741MOL0     C97736   7.990  10.624   8.992 -0.3317 -0.7652 -0.0901
  741MOL0     C97737   8.002  10.550   8.873 -0.1084  1.0960 -0.1575
  741MOL0     O97738   8.128  10.560   8.817  0.0046 -0.5648 -0.1219
  741MOL0     C97739   8.155  10.488   8.697  0.1628  0.0247  0.8543
  741MOL0     C97740   8.285  10.515   8.642  0.9889 -0.5636  0.2198
  741MOL0     C97741   8.313  10.443   8.510 -0.9574 -0.3194 -0.1938
  741MOL0     C97742   8.431  10.526   8.435 -0.4169  0.8765  0.1946
  741MOL0     C97743   8.417  10.499   8.291  0.7305 -0.5323  0.4697
  741MOL0     C97744   8.386  10.472   8.180 -0.4388 -0.2200 -0.0405
  741MOL0     C97745   7.909  10.460   8.832  1.3547 -0.0358  0.1621
  741MOL0     C97746   7.783  10.459   8.898  0.8851  0.2875 -0.5456
  741MOL0     H97747   7.381  10.596   9.003  1.0724  1.3555 -0.1724
  741MOL0     H97748   7.160  10.666   9.063  0.3317 -1.6750  0.3458
  741MOL0     H97749   6.978  10.660   9.160  0.1212 -0.8374  2.3993
  741MOL0     H97750   6.972  10.836   9.145 -0.0066 -0.5580 -1.4327
  741MOL0     H97751   6.840  10.808   9.385  1.1100  1.3281 -0.5163
  741MOL0     H97752   6.816  10.647   9.341 -0.0287  0.8840  1.4176
  741MOL0     H97753   6.715  10.746   9.113  0.1662  0.3526 -1.3246
  741MOL0     H97754   6.721  10.901   9.204 -0.9446  0.2283  0.7197
  741MOL0     H97755   6.582  10.675   9.339 -0.4616  1.2534  3.4483
  741MOL0     H97756   6.589  10.847   9.381  1.1583 -1.4340  2.2590
  741MOL0     H97757   6.432  10.743   9.139  0.0794  2.0483 -1.1820
  741MOL0     H97758   6.459  10.907   9.169  0.1539 -1.2795 -1.8007
  741MOL0     H97759   6.370  10.903   9.390 -2.2241 -0.8033  1.8183
  741MOL0     H97760   6.352  10.727   9.391 -0.6225  0.3014 -0.9156
  741MOL0     H97761   6.184  10.902   9.199 -0.9834 -0.7055 -0.3584
  741MOL0     H97762   6.180  10.730   9.204 -0.8904  0.2167 -1.4755
  741MOL0     H97763   6.125  10.869   9.465 -1.0769 -0.9096 -0.0902
  741MOL0     H97764   6.097  10.708   9.419 -1.3471 -0.2289 -0.4524
  741MOL0     H97765   5.835  10.900   9.522 -2.4014  1.4352  0.5139
  741MOL0     H97766   5.624  11.096   9.425 -2.9286  0.4191 -1.1433
  741MOL0     H97767   5.583  10.930   9.436  2.8676 -3.5366 -1.7914
  741MOL0     H97768   5.550  11.104   9.179 -0.4252  0.0833  0.6821
  741MOL0     H97769   5.426  11.065   9.295 -2.1544  0.3809 -3.4851
  741MOL0     H97770   5.566  10.870   9.115  0.4357 -1.0352  2.6488
  741MOL0     H97771   5.471  10.820   9.258  1.9837 -0.6798  0.4285
  741MOL0     H97772   5.331  10.799   9.062 -0.0527 -1.3311  2.0236
  741MOL0     H97773   5.363  10.971   9.016  1.7306  0.8407  0.7060
  741MOL0     H97774   5.033  10.805   9.316 -2.7182  1.0960  1.0292
  741MOL0     H97775   4.810  10.814   9.241 -1.2543 -0.6944 -2.4628
  741MOL0     H97776   4.695  10.639   8.883  0.6209 -2.6692  1.5348
  741MOL0     H97777   4.519  10.504   8.753  0.1383  2.6960 -1.4421
  741MOL0     H97778   4.132  10.605   8.642 -0.5613  0.1482 -0.2871
  741MOL0     H97779   4.124  10.644   8.819 -0.4568  0.5482 -0.4369
  741MOL0     H97780   4.058  10.437   8.874 -0.3321  2.6674  0.8529
  741MOL0     H97781   4.078  10.365   8.716 -2.2621 -2.8139  1.6805
  741MOL0     H97782   3.906  10.518   8.612  0.7265 -1.3968 -0.9034
  741MOL0     H97783   3.884  10.601   8.767  2.2177 -0.0606  1.2996
  741MOL0     H97784   3.831  10.295   8.722 -3.3593 -0.2527 -1.1152
  741MOL0     H97785   3.779  10.397   8.861  0.1924 -0.9112  0.0171
  741MOL0     H97786   3.692  10.448   8.566 -0.4448  2.3064 -0.5186
  741MOL0     H97787   3.633  10.523   8.711 -1.7388 -1.3304 -0.9502
  741MOL0     H97788   3.581  10.286   8.796 -2.6782  0.9952  0.0389
  741MOL0     H97789   3.602  10.227   8.632 -1.2130  0.3368 -2.0847
  741MOL0     H97790   3.404  10.446   8.728 -0.3399 -1.2662  1.9659
  741MOL0     H97791   3.420  10.397   8.560  0.3444  1.5360  0.8308
  741MOL0     H97792   3.348  10.163   8.663 -2.5959 -0.7241 -2.5417
  741MOL0     H97793   3.229  10.286   8.621  0.5538  1.2594 -0.4637
  741MOL0     H97794   4.215  10.616   9.009  0.0880 -1.4625 -0.2821
  741MOL0     H97795   4.366  10.779   9.136 -0.5547  0.3213 -0.5667
  741MOL0     H97796   4.931  11.066   8.907 -0.4522 -0.0838  0.6626
  741MOL0     H97797   5.163  11.047   8.979  0.3733 -3.5494 -1.9421
  741MOL0     H97798   7.293  10.785   9.454 -0.8645 -1.7764  0.9953
  741MOL0     H97799   7.533  10.705   9.384  0.2006 -0.6894 -1.5784
  741MOL0     H97800   7.861  10.685   9.149 -0.1509 -1.3689  1.8105
  741MOL0     H97801   8.076  10.680   9.029  0.9825 -2.1850 -0.8749
  741MOL0     H97802   8.085  10.524   8.621  0.5587 -0.3591  0.3008
  741MOL0     H97803   8.134  10.382   8.717 -1.2433  0.0083 -0.5382
  741MOL0     H97804   8.277  10.624   8.641 -0.3522 -0.5922  1.9233
  741MOL0     H97805   8.358  10.484   8.718  1.8972 -1.6666 -1.0514
  741MOL0     H97806   8.225  10.434   8.446  0.0125 -2.9192 -1.3036
  741MOL0     H97807   8.348  10.349   8.554 -0.3014 -0.8539 -1.8044
  741MOL0     H97808   8.431  10.632   8.464  3.2749 -0.0184  4.6024
  741MOL0     H97809   8.518  10.477   8.479 -1.1999 -0.5504  0.2082
  741MOL0     H97810   8.373  10.461   8.075 -0.0015 -3.2540  0.1265
  741MOL0     H97811   7.917  10.420   8.731  0.0204  3.3912 -1.4349
  741MOL0     H97812   7.703  10.397   8.859 -0.4975  1.4263  0.4104
  742MOL0     O97813   1.301  10.151   6.490 -0.6068  0.3400 -0.5760
  742MOL0     C97814   1.350  10.218   6.579  0.0769 -0.7272  0.6435
  742MOL0     O97815   1.282  10.288   6.667 -0.4708 -0.3709  0.4202
  742MOL0     C97816   1.145  10.280   6.670 -1.0028  0.4059  0.2107
  742MOL0     C97817   1.064  10.381   6.621  0.0883 -0.5592  0.1590
  742MOL0     C97818   0.924  10.365   6.613  0.0750  0.1166  0.0008
  742MOL0     C97819   0.865  10.243   6.648  0.2047 -1.0295  0.4739
  742MOL0     O97820   0.728  10.235   6.658  0.0253  0.5008  0.7397
  742MOL0     C97821   0.664  10.111   6.676 -0.9172  0.3404 -0.9049
  742MOL0     C97822   0.516  10.127   6.667 -0.0268 -0.3256  0.0537
  742MOL0     C97823   0.475  10.155   6.519  0.6951 -0.0076 -0.3493
  742MOL0     C97824   0.325  10.115   6.492  0.5887  0.9615  0.5375
  742MOL0     C97825   0.286  10.152   6.352  0.5670 -1.0872 -0.9471
  742MOL0     C97826   0.154  10.090   6.294 -0.2213 -0.2429  0.2542
  742MOL0     C97827   0.033  10.169   6.360  0.2030 -0.2331  0.4079
  742MOL0     C97828  -0.090  10.125   6.293 -0.3758 -0.6475 -0.2454
  742MOL0     N97829  -0.196  10.211   6.343  0.2055 -0.3301 -0.1931
  742MOL0     C97830  -0.237  10.343   6.316 -0.6420  0.9993 -0.2550
  742MOL0     C97831  -0.345  10.364   6.395 -0.9802  0.1979  0.2390
  742MOL0     C97832  -0.427  10.489   6.398 -0.7894 -0.0677  1.0758
  742MOL0     C97833  -0.338  10.613   6.431 -0.4347  0.2078 -0.0772
  742MOL0     C97834  -0.417  10.745   6.418 -0.2856 -0.5122  0.1906
  742MOL0     C97835  -0.380  10.798   6.283  0.0107  0.5742  0.8347
  742MOL0     O97836  -0.426  10.934   6.266 -0.2878 -0.2493 -0.2746
  742MOL0     C97837  -0.561  10.952   6.259 -0.2482  0.0364  0.5513
  742MOL0     C97838  -0.600  11.078   6.301 -0.3040 -0.2988  0.7771
  742MOL0     C97839  -0.735  11.129   6.310 -0.5766 -0.0664 -0.5432
  742MOL0     C97840  -0.833  11.029   6.274 -0.4978 -0.7549  0.2035
  742MOL0     C97841  -0.970  11.086   6.234 -0.1425  0.6434  0.2005
  742MOL0     O97842  -1.072  11.002   6.253 -0.2065  0.4582 -0.2484
  742MOL0     C97843  -1.204  11.038   6.255 -0.0621  0.0892 -0.6282
  742MOL0     C97844  -1.280  10.944   6.321 -0.5164 -0.0880  0.9959
  742MOL0     C97845  -1.420  10.962   6.334  1.2847  0.1653 -0.2770
  742MOL0     C97846  -1.487  11.078   6.291 -1.0990 -0.1342 -0.2309
  742MOL0     O97847  -1.624  11.091   6.315 -0.3414 -0.1913  0.7936
  742MOL0     C97848  -1.683  11.202   6.257 -0.4207 -0.0103 -0.8160
  742MOL0     C97849  -1.835  11.200   6.292 -0.1751  0.4163  0.4800
  742MOL0     C97850  -1.888  11.327   6.237 -0.2728 -0.1461  0.0440
  742MOL0     C97851  -2.030  11.346   6.289  1.2107 -0.4196  0.3219
  742MOL0     C97852  -2.083  11.489   6.271  0.4180  0.0048  0.5808
  742MOL0     C97853  -2.230  11.529   6.328  0.3476 -0.2713 -0.6298
  742MOL0     C97854  -2.314  11.642   6.264 -0.0984  0.1996 -0.1411
  742MOL0     C97855  -2.458  11.635   6.308  0.5412 -0.4127 -0.0140
  742MOL0    Cl97856  -2.470  11.647   6.483  0.1348 -0.0619 -0.4381
  742MOL0     C97857  -1.410  11.171   6.212 -0.3516  0.9620  0.3511
  742MOL0     C97858  -1.270  11.147   6.194  0.3310 -0.8644  0.2398
  742MOL0     O97859  -0.976  11.200   6.188 -0.1835 -0.3278  0.5063
  742MOL0     C97860  -0.791  10.893   6.247 -0.6589  0.2222  1.1704
  742MOL0     C97861  -0.660  10.854   6.233  0.3273 -0.1015 -0.4171
  742MOL0     N97862  -0.373  10.248   6.459 -0.2795  0.0653 -0.1605
  742MOL0     N97863  -0.275  10.162   6.438 -0.4193  0.0855 -0.4298
  742MOL0     C97864   0.953  10.142   6.685 -1.2400 -0.0965 -0.2385
  742MOL0     C97865   1.090  10.158   6.705  0.8347 -0.0014 -0.5257
  742MOL0     C97866   1.502  10.226   6.584 -0.5049  0.2933 -0.1419
  742MOL0     C97867   1.569  10.267   6.698 -0.8140  0.1066  0.1202
  742MOL0     C97868   1.709  10.264   6.707  0.6047 -0.3374 -0.2605
  742MOL0     C97869   1.785  10.235   6.588 -0.8238  0.0715 -0.3781
  742MOL0     O97870   1.918  10.222   6.570 -0.0609 -0.9943 -0.6387
  742MOL0     C97871   2.006  10.274   6.677 -0.9242 -0.2591  0.7306
  742MOL0     C97872   2.141  10.328   6.627  0.3470  0.3243  0.0014
  742MOL0     C97873   2.117  10.434   6.518  0.3841  0.2568  0.8825
  742MOL0     C97874   2.248  10.496   6.468  0.2334 -0.7949  0.0332
  742MOL0     C97875   2.330  10.394   6.401 -1.0557 -0.3045  0.0847
  742MOL0     C97876   2.392  10.318   6.327 -0.0700 -0.3558 -0.8697
  742MOL0     C97877   1.708  10.201   6.477 -0.2047  0.4001  0.8575
  742MOL0     C97878   1.574  10.202   6.471  0.2956  0.3053 -0.1347
  742MOL0     H97879   1.113  10.475   6.600 -0.1953 -0.5187 -0.3533
  742MOL0     H97880   0.866  10.448   6.575  0.3413  1.1090  1.6495
  742MOL0     H97881   0.695  10.053   6.764  1.9001  0.2511 -1.8533
  742MOL0     H97882   0.701  10.034   6.607  3.3413  1.0302  0.2674
  742MOL0     H97883   0.475  10.208   6.727  0.6083 -0.3590  0.5331
  742MOL0     H97884   0.473  10.036   6.711  0.7210 -0.4302  0.5760
  742MOL0     H97885   0.535  10.100   6.446 -0.9404  1.1408 -2.7112
  742MOL0     H97886   0.493  10.259   6.491  0.6995 -0.1246 -0.7847
  742MOL0     H97887   0.317  10.007   6.513  2.7853  0.1480 -2.1611
  742MOL0     H97888   0.258  10.171   6.558 -0.1131 -0.0387  0.7050
  742MOL0     H97889   0.372  10.116   6.296 -0.6351 -0.0110 -3.7290
  742MOL0     H97890   0.286  10.261   6.339  0.9061 -1.1538 -1.5398
  742MOL0     H97891   0.151   9.983   6.314  0.0935 -0.1224  0.9783
  742MOL0     H97892   0.161  10.114   6.187  2.4476 -1.4296  0.0946
  742MOL0     H97893   0.032  10.149   6.467 -1.0902  0.6251  0.5831
  742MOL0     H97894   0.027  10.276   6.338 -1.1366 -0.6471 -1.4534
  742MOL0     H97895  -0.110  10.022   6.323 -1.0036 -0.7597 -1.0047
  742MOL0     H97896  -0.076  10.137   6.185  0.3247  2.1497  0.0643
  742MOL0     H97897  -0.173  10.410   6.260  1.2781  0.4199  1.1582
  742MOL0     H97898  -0.511  10.475   6.467 -2.7557 -0.0552 -1.1901
  742MOL0     H97899  -0.451  10.508   6.293  0.8497  0.6817  0.8005
  742MOL0     H97900  -0.245  10.602   6.373  0.1158 -0.3935  0.8872
  742MOL0     H97901  -0.306  10.602   6.535 -1.6579 -3.5022  0.0495
  742MOL0     H97902  -0.522  10.721   6.437 -0.6688  2.7799  3.2403
  742MOL0     H97903  -0.391  10.806   6.505 -0.4066 -0.8648  0.4767
  742MOL0     H97904  -0.419  10.739   6.199  4.2796  2.5581 -2.9217
  742MOL0     H97905  -0.271  10.802   6.280  0.4896 -4.0404  3.1735
  742MOL0     H97906  -0.522  11.152   6.316 -1.7163  1.0408  1.8046
  742MOL0     H97907  -0.745  11.234   6.332 -1.4027 -0.6496  2.2990
  742MOL0     H97908  -1.245  10.851   6.364 -1.2478  0.0199  1.8603
  742MOL0     H97909  -1.469  10.884   6.393  1.4889  1.4531  1.6942
  742MOL0     H97910  -1.666  11.214   6.150  1.6970 -0.4403 -0.5656
  742MOL0     H97911  -1.640  11.290   6.305  1.0623 -0.7809 -0.6769
  742MOL0     H97912  -1.843  11.191   6.401  0.7902  0.3387  0.5544
  742MOL0     H97913  -1.872  11.111   6.241  2.4216 -0.5613  0.1477
  742MOL0     H97914  -1.887  11.331   6.128 -1.8657  2.6556  0.0126
  742MOL0     H97915  -1.816  11.403   6.269 -1.6557  1.2386  0.0190
  742MOL0     H97916  -2.093  11.270   6.240 -0.0912 -0.4112  1.9146
  742MOL0     H97917  -2.041  11.322   6.395 -2.7979  3.1161  0.9623
  742MOL0     H97918  -2.102  11.503   6.165 -3.9418 -0.0699  1.1690
  742MOL0     H97919  -2.002  11.553   6.307 -0.1247  1.9584 -1.4732
  742MOL0     H97920  -2.216  11.552   6.434 -2.3051 -1.6473  0.1148
  742MOL0     H97921  -2.286  11.435   6.323  1.0042 -0.6319 -1.3108
  742MOL0     H97922  -2.279  11.743   6.289 -1.0668  1.4546 -3.3633
  742MOL0     H97923  -2.299  11.642   6.156  1.8428  1.2673  0.0917
  742MOL0     H97924  -2.503  11.541   6.276  0.9668 -0.9603  0.9557
  742MOL0     H97925  -2.521  11.694   6.241  2.0751 -1.2499 -2.3065
  742MOL0     H97926  -1.465  11.254   6.168 -0.0706  0.7331 -0.4493
  742MOL0     H97927  -1.212  11.215   6.133  0.0406  0.0024  0.8994
  742MOL0     H97928  -0.865  10.815   6.232  0.8021 -0.8743 -0.8181
  742MOL0     H97929  -0.643  10.749   6.216  2.7472  0.2293 -0.4318
  742MOL0     H97930   0.919  10.040   6.704 -0.5562 -0.0537  1.4768
  742MOL0     H97931   1.141  10.067   6.735  1.1444 -1.2817 -4.4367
  742MOL0     H97932   1.499  10.285   6.779 -1.5804 -2.7133  0.1848
  742MOL0     H97933   1.759  10.279   6.802  2.9769  1.3719 -1.6734
  742MOL0     H97934   2.025  10.188   6.742 -0.7269 -1.6003 -1.0360
  742MOL0     H97935   1.965  10.349   6.746  0.3056  0.7768  0.3694
  742MOL0     H97936   2.204  10.374   6.704  1.4492  0.5358 -1.0022
  742MOL0     H97937   2.195  10.245   6.581 -1.8316  0.4714 -3.1819
  742MOL0     H97938   2.040  10.504   6.554  0.9171  1.5138 -0.3107
  742MOL0     H97939   2.069  10.391   6.430 -1.3930  1.7196  1.0738
  742MOL0     H97940   2.210  10.581   6.410  1.3263 -1.8884 -2.4090
  742MOL0     H97941   2.300  10.546   6.551 -0.7996  1.9093 -0.8447
  742MOL0     H97942   2.436  10.247   6.260 -0.0625 -2.0281  0.7944
  742MOL0     H97943   1.768  10.170   6.393  1.2934  0.4275  1.8850
  742MOL0     H97944   1.522  10.165   6.383  1.8681 -2.9796  0.1322
  743MOL0     O97945   9.066   5.643   3.889  0.3529  0.0121 -0.3411
  743MOL0     C97946   8.997   5.578   3.961 -0.1393  0.3150  0.3042
  743MOL0     O97947   9.043   5.466   4.026  0.0863  0.0840 -0.7978
  743MOL0     C97948   9.139   5.386   3.963 -0.1143 -0.1119  0.2708
  743MOL0     C97949   9.261   5.361   4.030 -0.3586 -0.6201  0.4308
  743MOL0     C97950   9.341   5.257   3.986 -0.7937  0.1355  0.1523
  743MOL0     C97951   9.316   5.195   3.868  0.8858  0.5424  0.5844
  743MOL0     O97952   9.386   5.091   3.820  0.4404 -0.9523 -0.2455
  743MOL0     C97953   9.516   5.054   3.874 -0.4770  0.1788 -0.5658
  743MOL0     C97954   9.632   5.137   3.826  0.1480  0.5118  0.1196
  743MOL0     C97955   9.774   5.105   3.886 -0.2914  1.1836 -0.2132
  743MOL0     C97956   9.873   5.192   3.813  0.4999  0.0502  0.4077
  743MOL0     C97957  10.013   5.147   3.869  0.6336 -0.3334  0.2543
  743MOL0     C97958  10.117   5.250   3.843  0.3935  0.1080 -0.1819
  743MOL0     C97959  10.119   5.306   3.698  0.5230  0.0438  0.5180
  743MOL0     C97960  10.235   5.406   3.671  0.2627  0.5045 -0.7342
  743MOL0     N97961  10.178   5.544   3.687  0.2333  0.1897 -0.0549
  743MOL0     C97962  10.065   5.598   3.755 -0.1514  0.0775 -0.1825
  743MOL0     C97963  10.090   5.734   3.753 -0.5430  0.9128  0.0392
  743MOL0     C97964  10.032   5.834   3.854 -0.1532 -0.5957 -0.0084
  743MOL0     C97965   9.985   5.973   3.802 -0.6022 -0.3231  0.3143
  743MOL0     C97966   9.852   5.989   3.726  0.0125  0.0658 -0.1449
  743MOL0     C97967   9.810   6.134   3.704 -0.9757 -0.7740 -0.5694
  743MOL0     O97968   9.684   6.136   3.652 -0.5228 -0.4365  0.3918
  743MOL0     C97969   9.615   6.248   3.686 -0.5779 -0.5511  0.3494
  743MOL0     C97970   9.672   6.378   3.706 -0.4548 -0.0543 -0.5044
  743MOL0     C97971   9.592   6.466   3.771 -0.8882 -0.2309  0.1021
  743MOL0     C97972   9.457   6.445   3.795  0.1465  0.2415  0.8816
  743MOL0     C97973   9.373   6.548   3.863 -0.2556 -1.0065 -0.1295
  743MOL0     O97974   9.241   6.512   3.885  0.1074  0.1984  0.0713
  743MOL0     C97975   9.143   6.605   3.896 -0.7765 -0.0936 -0.7057
  743MOL0     C97976   9.138   6.736   3.838  0.9678  0.1825  0.1116
  743MOL0     C97977   9.035   6.824   3.856  0.1578 -0.1711 -0.2313
  743MOL0     C97978   8.932   6.781   3.944  0.0731  0.1897  0.4997
  743MOL0     O97979   8.840   6.878   3.967  0.3255  0.5728  0.3232
  743MOL0     C97980   8.721   6.837   4.038 -0.0522 -0.8861  1.3104
  743MOL0     C97981   8.730   6.824   4.187  0.1562 -0.3180 -0.3035
  743MOL0     C97982   8.586   6.806   4.258 -0.0758  0.3831 -0.3433
  743MOL0     C97983   8.580   6.819   4.415  0.7825 -0.2827  0.1978
  743MOL0     C97984   8.678   6.730   4.494 -0.3703  0.7779 -0.5130
  743MOL0     C97985   8.677   6.735   4.646  0.6410  0.1119  0.2839
  743MOL0     C97986   8.810   6.683   4.710  0.9905 -0.9472  0.2721
  743MOL0     C97987   8.803   6.701   4.861 -0.5420 -0.7426 -0.1416
  743MOL0    Cl97988   8.809   6.871   4.911  0.4555  0.4637  0.1544
  743MOL0     C97989   8.936   6.655   3.990  0.9684 -0.5057  0.2409
  743MOL0     C97990   9.032   6.561   3.962 -0.0359  0.1352 -0.1548
  743MOL0     O97991   9.425   6.663   3.885 -0.0657  0.1140 -0.5963
  743MOL0     C97992   9.396   6.323   3.755 -0.1758  0.0465 -0.4537
  743MOL0     C97993   9.477   6.236   3.692  0.1094  0.2709  0.0811
  743MOL0     N97994  10.204   5.752   3.682 -0.2623  0.0541 -0.0890
  743MOL0     N97995  10.255   5.639   3.640  0.4263 -0.2340  0.5746
  743MOL0     C97996   9.194   5.215   3.807  0.3759 -0.4829  0.1669
  743MOL0     C97997   9.099   5.303   3.853  0.5871 -1.2878 -0.1778
  743MOL0     C97998   8.852   5.616   3.980  0.1117  0.5642  0.6032
  743MOL0     C97999   8.770   5.541   4.068 -0.5445 -0.3004  0.6926
  743MOL0     C98000   8.645   5.587   4.104  0.0334  0.7884 -0.7073
  743MOL0     C98001   8.585   5.696   4.037  0.6344  0.2605  0.7090
  743MOL0     O98002   8.458   5.746   4.055 -0.6026  0.0381  0.5462
  743MOL0     C98003   8.363   5.643   4.036  0.3855  0.1314 -0.6557
  743MOL0     C98004   8.230   5.692   4.095  0.0943 -0.5623 -0.2026
  743MOL0     C98005   8.164   5.807   4.025  0.7906  0.8069 -0.9999
  743MOL0     C98006   8.092   5.900   4.125  0.0837  0.6392 -0.4457
  743MOL0     C98007   8.050   6.020   4.050  0.1353  0.6137  0.7855
  743MOL0     C98008   7.991   6.106   3.991 -0.0856 -0.4416  0.6899
  743MOL0     C98009   8.667   5.773   3.955 -0.2937  0.0221 -0.0584
  743MOL0     C98010   8.801   5.735   3.920 -0.0792 -0.3041 -0.6331
  743MOL0     H98011   9.278   5.419   4.119  0.5240  0.6318 -0.5149
  743MOL0     H98012   9.434   5.236   4.036 -0.8505 -0.9627 -0.1856
  743MOL0     H98013   9.535   4.953   3.838  0.7681  0.7163 -1.4747
  743MOL0     H98014   9.525   5.042   3.983  3.0508 -4.2859 -1.0579
  743MOL0     H98015   9.617   5.243   3.850  1.2058  0.6472  0.2291
  743MOL0     H98016   9.638   5.120   3.718  1.6864 -1.0780  0.4113
  743MOL0     H98017   9.793   4.999   3.871 -5.3250  0.1333 -0.8682
  743MOL0     H98018   9.770   5.124   3.994 -3.7195  1.9583 -0.3595
  743MOL0     H98019   9.864   5.176   3.706 -0.6492 -2.5112  0.8163
  743MOL0     H98020   9.847   5.296   3.834 -0.8461  0.7109 -3.7364
  743MOL0     H98021  10.031   5.049   3.824  0.1847  0.7006 -2.3445
  743MOL0     H98022   9.998   5.144   3.978 -0.0731  0.4710  0.1920
  743MOL0     H98023  10.218   5.211   3.861 -0.0167 -1.6256 -1.3530
  743MOL0     H98024  10.111   5.333   3.913 -1.9221 -0.4157  0.3234
  743MOL0     H98025  10.132   5.224   3.627  1.3356  1.1499 -0.6469
  743MOL0     H98026  10.025   5.358   3.676  0.2754 -0.7406 -0.3327
  743MOL0     H98027  10.282   5.389   3.573  1.9527 -3.6958  0.6076
  743MOL0     H98028  10.322   5.391   3.735  2.8379 -1.6304 -4.3063
  743MOL0     H98029   9.982   5.557   3.811 -1.9908  1.7738 -1.5286
  743MOL0     H98030  10.119   5.851   3.918  0.6924 -2.4096 -0.5968
  743MOL0     H98031   9.953   5.786   3.913  0.8873 -2.8967 -0.3903
  743MOL0     H98032  10.062   6.003   3.731 -2.0392 -0.4189 -1.3413
  743MOL0     H98033   9.987   6.048   3.882  1.6159  1.4183 -1.2562
  743MOL0     H98034   9.850   5.942   3.627 -2.9609 -1.0724  0.3598
  743MOL0     H98035   9.769   5.938   3.775 -0.6752  1.4875  0.2264
  743MOL0     H98036   9.884   6.184   3.641 -1.3060  3.0441  1.7821
  743MOL0     H98037   9.813   6.186   3.800 -4.0722 -4.5914  1.9027
  743MOL0     H98038   9.781   6.386   3.707 -0.4308 -0.2145  1.3007
  743MOL0     H98039   9.630   6.567   3.785 -0.4080 -0.1550 -1.5814
  743MOL0     H98040   9.221   6.776   3.780  1.0921  0.7353  0.6609
  743MOL0     H98041   9.041   6.929   3.829  1.1357 -0.3219 -0.6426
  743MOL0     H98042   8.664   6.758   3.989 -1.4578  0.2644  1.0276
  743MOL0     H98043   8.658   6.926   4.029  1.8770  0.6906  2.5746
  743MOL0     H98044   8.773   6.916   4.228 -0.4855 -0.4279  0.6447
  743MOL0     H98045   8.799   6.748   4.226  0.0937  1.2488  3.2131
  743MOL0     H98046   8.563   6.706   4.219 -0.2307 -0.1390  1.0387
  743MOL0     H98047   8.514   6.877   4.217  0.7734  1.7128  0.4128
  743MOL0     H98048   8.607   6.921   4.442  3.9181 -1.4230  1.7807
  743MOL0     H98049   8.473   6.803   4.435  0.8786 -2.6821 -0.8110
  743MOL0     H98050   8.781   6.754   4.466 -1.0404  2.7890 -1.4125
  743MOL0     H98051   8.660   6.627   4.463 -2.6846  1.1245 -0.4763
  743MOL0     H98052   8.589   6.680   4.680  0.3475 -0.4616 -1.3251
  743MOL0     H98053   8.668   6.839   4.677  3.5430  0.8289 -0.9975
  743MOL0     H98054   8.803   6.576   4.687  0.4010 -1.4103  2.4125
  743MOL0     H98055   8.899   6.726   4.663  1.1254 -0.2229  1.1650
  743MOL0     H98056   8.900   6.670   4.901  0.9785  1.8101 -1.5819
  743MOL0     H98057   8.710   6.656   4.899 -0.7208 -1.8075 -1.7720
  743MOL0     H98058   8.854   6.623   4.053  0.6670  0.2680  0.2599
  743MOL0     H98059   9.021   6.461   4.003 -1.6098 -0.2352 -1.3880
  743MOL0     H98060   9.293   6.297   3.775  0.5475 -0.8808  2.6071
  743MOL0     H98061   9.434   6.143   3.656  1.1602  0.6834 -2.4703
  743MOL0     H98062   9.177   5.166   3.712 -1.5067  0.4273 -0.0215
  743MOL0     H98063   9.008   5.340   3.807  1.1991  1.2210  0.4590
  743MOL0     H98064   8.820   5.452   4.105 -0.5438 -1.4306 -1.8470
  743MOL0     H98065   8.584   5.528   4.172  1.5364 -2.5149 -2.0272
  743MOL0     H98066   8.394   5.545   4.073  1.7363 -0.1341 -2.3912
  743MOL0     H98067   8.352   5.624   3.929 -0.0455 -3.2211 -0.1273
  743MOL0     H98068   8.157   5.611   4.090 -1.6400  1.0066 -2.4371
  743MOL0     H98069   8.248   5.712   4.201 -0.3109 -0.7294 -0.0978
  743MOL0     H98070   8.091   5.762   3.957 -2.4150  1.0789  1.9653
  743MOL0     H98071   8.238   5.859   3.965  2.3940 -1.4904 -1.1428
  743MOL0     H98072   8.008   5.843   4.166 -0.3588 -0.4446 -2.7001
  743MOL0     H98073   8.159   5.930   4.206  0.5734 -1.4847 -0.0076
  743MOL0     H98074   7.928   6.167   3.928 -0.1630  0.4549  1.6069
  743MOL0     H98075   8.624   5.866   3.918 -0.1198 -0.3318 -1.1778
  743MOL0     H98076   8.867   5.792   3.855  0.6260  2.9340  2.5928
  744MOL0     O98077  11.334  10.161   0.068 -1.1096  0.2562  0.2675
  744MOL0     C98078  11.343  10.283   0.062 -0.9086 -0.5857  0.6534
  744MOL0     O98079  11.250  10.377   0.099 -0.2899 -0.5640 -0.0683
  744MOL0     C98080  11.126  10.345   0.155  0.1131 -0.3866 -0.4008
  744MOL0     C98081  11.086  10.231   0.226  0.1638  0.5531  0.3271
  744MOL0     C98082  10.950  10.222   0.262 -0.3814  0.7758 -0.5795
  744MOL0     C98083  10.861  10.329   0.265  0.0186  1.2260 -0.6677
  744MOL0     O98084  10.730  10.307   0.307  0.0965 -0.5376 -0.3258
  744MOL0     C98085  10.630  10.392   0.256  0.3305  0.0856 -0.0972
  744MOL0     C98086  10.493  10.338   0.301 -0.1402  0.4912  0.5456
  744MOL0     C98087  10.475  10.336   0.453  0.1381 -0.1817  0.7758
  744MOL0     C98088  10.341  10.258   0.487 -0.3525 -0.1853  0.5246
  744MOL0     C98089  10.220  10.354   0.474 -0.3634 -0.1385 -0.9644
  744MOL0     C98090  10.229  10.452   0.586  0.2065 -0.1922  2.0269
  744MOL0     C98091  10.091  10.505   0.630  0.1048 -0.4644 -0.2999
  744MOL0     C98092  10.030  10.601   0.521  1.2272 -1.0282 -1.2559
  744MOL0     N98093   9.933  10.682   0.596 -0.4574 -1.2503 -0.4416
  744MOL0     C98094   9.808  10.650   0.628  0.1633 -0.2919  0.1688
  744MOL0     C98095   9.762  10.746   0.711  0.3470 -0.3609 -0.7186
  744MOL0     C98096   9.626  10.753   0.788  0.3248 -0.4519  0.0182
  744MOL0     C98097   9.541  10.864   0.722  0.0944 -0.0873 -0.3538
  744MOL0     C98098   9.411  10.890   0.797  0.7708  0.2958 -0.0278
  744MOL0     C98099   9.326  10.985   0.714  0.1322  0.1502 -0.1255
  744MOL0     O98100   9.221  11.057   0.788 -0.5162 -0.1870  0.4731
  744MOL0     C98101   9.096  11.011   0.810  1.3173  0.2098 -0.4671
  744MOL0     C98102   9.068  10.875   0.845 -0.5510  0.1373  0.1743
  744MOL0     C98103   8.934  10.834   0.861  0.5470  0.8067 -0.1887
  744MOL0     C98104   8.824  10.924   0.839 -0.1748 -0.3234 -0.5013
  744MOL0     C98105   8.680  10.885   0.851  1.2071 -0.3463 -0.6115
  744MOL0     O98106   8.572  10.969   0.830 -0.3543 -0.1059 -0.3592
  744MOL0     C98107   8.447  10.942   0.777  0.9743 -0.2706  0.4794
  744MOL0     C98108   8.406  10.810   0.735 -0.0708  0.2752 -0.0155
  744MOL0     C98109   8.278  10.786   0.686  0.0501  0.2729  0.2572
  744MOL0     C98110   8.188  10.890   0.668 -0.3729  0.3205 -0.4231
  744MOL0     O98111   8.056  10.874   0.619 -0.0763 -0.3064 -0.3874
  744MOL0     C98112   8.036  10.758   0.545  0.5230  0.4741 -0.9899
  744MOL0     C98113   7.896  10.752   0.496 -0.1626  0.5156 -0.3243
  744MOL0     C98114   7.887  10.847   0.374  0.2242  0.0278 -1.0495
  744MOL0     C98115   7.749  10.868   0.334  0.1285 -0.8414 -0.4507
  744MOL0     C98116   7.660  10.946   0.437  0.1625  0.5647  0.3709
  744MOL0     C98117   7.517  10.953   0.385  0.4891  0.3761  0.0837
  744MOL0     C98118   7.419  11.024   0.486 -0.4419 -0.1951 -0.3784
  744MOL0     C98119   7.270  11.000   0.451 -0.4441 -0.5150 -0.2296
  744MOL0    Cl98120   7.238  11.019   0.275 -0.1864 -0.2454 -0.2636
  744MOL0     C98121   8.224  11.018   0.710 -0.1538 -0.0376 -0.4546
  744MOL0     C98122   8.351  11.043   0.763 -0.1905 -0.5930  0.5810
  744MOL0     O98123   8.673  10.770   0.891 -0.5871 -0.1948  0.0877
  744MOL0     C98124   8.862  11.050   0.798  0.0809  0.3514  0.3374
  744MOL0     C98125   8.985  11.101   0.791 -0.2500  0.3577 -0.1405
  744MOL0     N98126   9.866  10.830   0.734  0.0138 -0.1271 -0.1439
  744MOL0     N98127   9.963  10.805   0.654  0.8657  0.8848 -0.7061
  744MOL0     C98128  10.911  10.445   0.210 -0.0264  0.2342 -1.3654
  744MOL0     C98129  11.034  10.450   0.155  1.1053  0.0403  1.0835
  744MOL0     C98130  11.475  10.343   0.029 -0.3973  0.6035 -0.2536
  744MOL0     C98131  11.494  10.485   0.021 -0.2031  0.0426  0.2142
  744MOL0     C98132  11.622  10.537  -0.004 -1.2550  0.1543 -0.3865
  744MOL0     C98133  11.731  10.457  -0.024 -0.4329 -0.8850 -0.3137
  744MOL0     O98134  11.852  10.523  -0.034 -0.1167 -0.9774  0.2037
  744MOL0     C98135  11.968  10.451   0.008 -0.7123 -0.3892  0.2175
  744MOL0     C98136  12.089  10.533   0.020  0.5295 -0.2400  0.7803
  744MOL0     C98137  12.156  10.587  -0.111 -0.2799  0.0946  0.2565
  744MOL0     C98138  12.266  10.694  -0.096  0.5096  0.6193  0.3354
  744MOL0     C98139  12.408  10.657  -0.082 -1.1794  0.1952  0.0792
  744MOL0     C98140  12.521  10.626  -0.054  0.2159  0.0008 -0.2969
  744MOL0     C98141  11.711  10.319  -0.018  0.3505 -0.1246 -0.2616
  744MOL0     C98142  11.585  10.265   0.002  0.8184  1.0038 -0.2557
  744MOL0     H98143  11.152  10.145   0.239 -0.9914 -0.5924 -1.0267
  744MOL0     H98144  10.917  10.124   0.297  0.8795  1.1188  1.8203
  744MOL0     H98145  10.634  10.371   0.148 -2.0214 -2.6326  0.2366
  744MOL0     H98146  10.665  10.492   0.284  6.1470 -1.3047 -0.9426
  744MOL0     H98147  10.484  10.239   0.254  4.1330 -0.0884  0.5838
  744MOL0     H98148  10.416  10.407   0.265 -0.9603 -0.8062 -0.2661
  744MOL0     H98149  10.461  10.440   0.484  1.2425 -0.3182  1.8176
  744MOL0     H98150  10.563  10.289   0.499  1.5240 -0.2281 -1.7604
  744MOL0     H98151  10.324  10.171   0.424  1.4493 -1.0026  1.0888
  744MOL0     H98152  10.367  10.227   0.589  2.0866  0.8880  0.3056
  744MOL0     H98153  10.124  10.301   0.481  0.3522 -1.2345  3.0095
  744MOL0     H98154  10.223  10.419   0.386 -1.2270  0.6124 -0.4639
  744MOL0     H98155  10.286  10.541   0.560 -0.6581 -0.1563  0.1003
  744MOL0     H98156  10.278  10.407   0.674  0.0294 -1.7747  1.3551
  744MOL0     H98157  10.027  10.427   0.671  0.9876 -1.2917 -0.4540
  744MOL0     H98158  10.109  10.564   0.720  0.8731  0.7147 -1.1945
  744MOL0     H98159   9.980  10.554   0.436 -0.7913 -0.1458 -0.6179
  744MOL0     H98160  10.108  10.666   0.478 -0.8894  0.2603 -3.3950
  744MOL0     H98161   9.750  10.568   0.587 -0.2596  0.6249 -1.1115
  744MOL0     H98162   9.645  10.761   0.896  2.3413 -2.6831 -0.0714
  744MOL0     H98163   9.569  10.661   0.770  0.3024 -0.4165 -0.0830
  744MOL0     H98164   9.515  10.832   0.620 -1.2536  0.4537 -0.1964
  744MOL0     H98165   9.582  10.965   0.711 -1.7165  0.5599 -1.9224
  744MOL0     H98166   9.352  10.802   0.825  1.1255 -0.9580 -2.8206
  744MOL0     H98167   9.421  10.951   0.887 -2.0806  1.4991 -0.4269
  744MOL0     H98168   9.278  10.921   0.639  2.0368  0.6825 -1.8844
  744MOL0     H98169   9.382  11.063   0.662 -2.3129  1.2767 -1.2673
  744MOL0     H98170   9.142  10.797   0.859  1.0377  1.3211 -1.1206
  744MOL0     H98171   8.916  10.730   0.883 -0.2844  1.0158  0.1408
  744MOL0     H98172   8.474  10.726   0.749  2.0455  1.8134 -0.5400
  744MOL0     H98173   8.254  10.682   0.665 -3.0998  0.6779  1.3298
  744MOL0     H98174   8.045  10.678   0.619 -4.1784 -0.9805 -1.6437
  744MOL0     H98175   8.108  10.752   0.464 -0.9180  0.2570 -2.2982
  744MOL0     H98176   7.817  10.773   0.569 -1.3541 -2.1328 -0.7311
  744MOL0     H98177   7.874  10.647   0.474 -0.1659  0.5886 -0.6827
  744MOL0     H98178   7.944  10.813   0.287 -1.0706 -0.1147 -1.8560
  744MOL0     H98179   7.915  10.946   0.412  2.4341 -0.6696 -0.7063
  744MOL0     H98180   7.749  10.934   0.246 -0.8269  0.3252  0.3897
  744MOL0     H98181   7.700  10.774   0.309  0.8045 -0.8962 -1.6400
  744MOL0     H98182   7.713  11.042   0.449  1.9385 -0.5768  2.6470
  744MOL0     H98183   7.668  10.907   0.539 -3.5329  1.5288  1.1862
  744MOL0     H98184   7.488  10.850   0.366 -1.5386  0.9952 -0.4490
  744MOL0     H98185   7.506  11.012   0.293 -1.1936  0.1528  0.1139
  744MOL0     H98186   7.430  10.966   0.578  2.3681  0.1899 -0.3789
  744MOL0     H98187   7.446  11.130   0.493  0.9401 -0.4628 -1.1892
  744MOL0     H98188   7.191  11.055   0.503 -1.2959 -4.0135  2.5557
  744MOL0     H98189   7.249  10.898   0.482 -5.6509 -0.0844 -1.2948
  744MOL0     H98190   8.155  11.101   0.704  1.4137  1.2442 -1.3572
  744MOL0     H98191   8.390  11.142   0.784 -0.8767 -0.3776  0.8931
  744MOL0     H98192   8.775  11.110   0.774 -2.8862 -3.9424 -0.7281
  744MOL0     H98193   9.021  11.198   0.759  1.6603  0.3630  1.8206
  744MOL0     H98194  10.843  10.530   0.208  0.6891  0.8356 -0.8763
  744MOL0     H98195  11.062  10.545   0.112  0.3286 -0.5454 -0.7844
  744MOL0     H98196  11.411  10.555   0.033  1.1100  1.5328  1.0057
  744MOL0     H98197  11.632  10.641  -0.034  1.4386 -0.2128 -1.0602
  744MOL0     H98198  11.983  10.370  -0.063 -3.4044 -3.4054  2.7413
  744MOL0     H98199  11.955  10.401   0.105 -0.4457  1.1426  1.0836
  744MOL0     H98200  12.054  10.615   0.083 -1.6266  1.3253 -2.2212
  744MOL0     H98201  12.163  10.466   0.065 -0.0491 -3.0750 -2.0831
  744MOL0     H98202  12.068  10.623  -0.165  0.1822  2.4292  0.9368
  744MOL0     H98203  12.189  10.505  -0.176 -1.6848 -0.6440  0.4398
  744MOL0     H98204  12.242  10.756  -0.183 -1.6780 -1.8858 -1.0084
  744MOL0     H98205  12.258  10.744   0.001  1.9101 -1.7558  1.7881
  744MOL0     H98206  12.625  10.613  -0.033 -0.4655 -2.8337  1.7924
  744MOL0     H98207  11.790  10.246  -0.027  1.5180  1.1647 -1.0185
  744MOL0     H98208  11.582  10.156  -0.001 -0.3341  1.0241 -2.7321
  745MOL0     O98209   2.375  10.433   8.757  0.6071  0.2745  0.4868
  745MOL0     C98210   2.428  10.463   8.857 -0.3179  0.2538 -0.0465
  745MOL0     O98211   2.376  10.473   8.985  0.4832  0.0685  0.3252
  745MOL0     C98212   2.253  10.427   8.996 -0.5180  0.2821 -0.2915
  745MOL0     C98213   2.246  10.293   9.040 -0.0218  0.4079  0.1761
  745MOL0     C98214   2.131  10.232   9.063  0.5652  1.1884 -0.6602
  745MOL0     C98215   2.005  10.304   9.055 -0.0873 -0.3932 -0.2442
  745MOL0     O98216   1.888  10.236   9.086 -1.2724  1.0960 -0.6347
  745MOL0     C98217   1.763  10.311   9.111 -0.2147  0.4224 -0.1798
  745MOL0     C98218   1.648  10.215   9.138  0.7529 -0.2168 -0.8493
  745MOL0     C98219   1.507  10.287   9.124 -0.0228  0.5153 -0.9657
  745MOL0     C98220   1.393  10.180   9.129  0.2358  0.5547  0.1273
  745MOL0     C98221   1.242  10.221   9.163  0.3262 -0.3203 -0.4808
  745MOL0     C98222   1.235  10.281   9.303  1.0980 -0.9829 -1.1158
  745MOL0     C98223   1.091  10.345   9.328 -0.0974 -0.8410 -0.1224
  745MOL0     C98224   1.076  10.385   9.484  0.1913  0.2888 -0.8992
  745MOL0     N98225   1.064  10.272   9.574 -0.2777 -0.3265  0.0685
  745MOL0     C98226   0.965  10.177   9.573  0.2207  0.2125  0.7489
  745MOL0     C98227   1.014  10.081   9.658 -0.3155 -0.4225  0.9321
  745MOL0     C98228   0.927   9.966   9.697 -0.3396  0.8474  0.1659
  745MOL0     C98229   0.847  10.006   9.820  0.3485  0.2378 -0.0596
  745MOL0     C98230   0.719   9.919   9.832  0.5020 -0.3195 -0.2476
  745MOL0     C98231   0.597   9.955   9.734 -0.0699  0.6196 -0.6516
  745MOL0     O98232   0.484   9.898   9.785 -0.1866 -0.0038  0.0819
  745MOL0     C98233   0.372   9.864   9.709  0.4212  0.6673 -0.6490
  745MOL0     C98234   0.367   9.867   9.569 -0.2970  0.3704 -0.3764
  745MOL0     C98235   0.250   9.837   9.509 -0.4132  0.4270  0.6290
  745MOL0     C98236   0.132   9.807   9.572 -0.6165 -0.0719  0.4505
  745MOL0     C98237   0.008   9.786   9.495  0.1740  0.4732 -0.4305
  745MOL0     O98238  -0.091   9.743   9.577  0.1540 -0.1391  0.1697
  745MOL0     C98239  -0.207   9.697   9.526 -0.6587 -1.1156 -0.0340
  745MOL0     C98240  -0.276   9.612   9.614  0.4979 -0.2721 -0.4768
  745MOL0     C98241  -0.393   9.547   9.583 -0.4657  0.1746  0.3467
  745MOL0     C98242  -0.453   9.580   9.460 -0.5541  0.6646 -0.4190
  745MOL0     O98243  -0.576   9.522   9.442  0.4427  0.5569  0.3164
  745MOL0     C98244  -0.648   9.564   9.317 -0.2577  0.3360 -0.1717
  745MOL0     C98245  -0.791   9.510   9.330 -0.2209  1.0523  0.4866
  745MOL0     C98246  -0.887   9.577   9.225  0.1769 -0.5176 -0.3066
  745MOL0     C98247  -0.846   9.551   9.080 -0.7260 -0.2225  0.0081
  745MOL0     C98248  -0.954   9.588   8.985 -0.6875  0.3694  0.1815
  745MOL0     C98249  -0.921   9.533   8.849  0.4241  0.2113  1.0812
  745MOL0     C98250  -0.826   9.625   8.775  0.0056 -0.7305 -0.2258
  745MOL0     C98251  -0.809   9.592   8.627  0.2131  0.4057  0.7069
  745MOL0    Cl98252  -0.959   9.552   8.533  0.0282 -0.0081  0.1319
  745MOL0     C98253  -0.381   9.651   9.366  0.1642 -0.3309 -0.6751
  745MOL0     C98254  -0.266   9.723   9.402  1.2136 -0.2232  0.7255
  745MOL0     O98255   0.004   9.806   9.375 -0.1970  0.7322 -0.0031
  745MOL0     C98256   0.142   9.800   9.715  0.4570 -0.7274  0.5951
  745MOL0     C98257   0.260   9.829   9.784 -0.7006 -0.8438  0.1614
  745MOL0     N98258   1.137  10.118   9.717 -0.5092  0.6006  0.2084
  745MOL0     N98259   1.162  10.234   9.663 -0.4257  0.3950 -0.1362
  745MOL0     C98260   2.000  10.444   9.014 -0.7211 -0.9197 -0.2535
  745MOL0     C98261   2.133  10.498   8.975  0.2846  0.7961 -0.5479
  745MOL0     C98262   2.576  10.493   8.853  0.0995  0.3232  0.0010
  745MOL0     C98263   2.664  10.478   8.960  0.2316 -0.3148  0.1872
  745MOL0     C98264   2.795  10.512   8.948 -0.4036 -0.5646  0.0272
  745MOL0     C98265   2.845  10.573   8.838 -0.0155 -0.0408 -0.2280
  745MOL0     O98266   2.978  10.615   8.822  0.4746 -0.5092  0.8017
  745MOL0     C98267   3.077  10.575   8.923  0.3960  1.1135  0.5434
  745MOL0     C98268   3.067  10.660   9.046  0.8822 -0.3248  0.1685
  745MOL0     C98269   3.073  10.809   9.009 -0.2737  0.7800  0.9781
  745MOL0     C98270   3.126  10.888   9.128  0.8273  0.7325 -0.2454
  745MOL0     C98271   3.261  10.862   9.151  0.3139 -0.5207  0.4121
  745MOL0     C98272   3.381  10.835   9.158  1.0603 -0.4952  0.1655
  745MOL0     C98273   2.756  10.599   8.731  0.6544 -0.4550  0.2301
  745MOL0     C98274   2.624  10.561   8.738 -0.3900 -0.8792  0.3535
  745MOL0     H98275   2.339  10.245   9.068  0.5955  1.4059 -0.1303
  745MOL0     H98276   2.135  10.131   9.102  1.9083  1.0707 -1.0771
  745MOL0     H98277   1.740  10.374   9.024 -1.6259 -0.6770 -0.6563
  745MOL0     H98278   1.771  10.381   9.194  1.3581 -0.3255  0.3206
  745MOL0     H98279   1.652  10.165   9.235 -0.0656  1.3922  0.0483
  745MOL0     H98280   1.652  10.142   9.056 -2.2869  1.0957 -2.3484
  745MOL0     H98281   1.510  10.334   9.026 -1.9436  2.9657  0.0658
  745MOL0     H98282   1.494  10.348   9.214  0.8761 -0.9079  0.1938
  745MOL0     H98283   1.393  10.133   9.030  3.0835 -3.3233  1.7032
  745MOL0     H98284   1.414  10.099   9.199 -0.6687  0.3639  0.1849
  745MOL0     H98285   1.162  10.151   9.140 -0.7057  0.6718  0.0072
  745MOL0     H98286   1.215  10.291   9.083  0.4530 -0.5554 -0.7355
  745MOL0     H98287   1.303  10.362   9.330  0.1800 -1.1154  2.0058
  745MOL0     H98288   1.249  10.200   9.375  1.4820 -1.6395 -1.9203
  745MOL0     H98289   1.091  10.441   9.275 -3.0307  1.0641  2.9259
  745MOL0     H98290   1.005  10.284   9.300 -1.2490 -0.2564  1.9116
  745MOL0     H98291   0.991  10.454   9.485  1.2184  1.6924 -2.8441
  745MOL0     H98292   1.164  10.444   9.510  0.5720 -0.7114  0.1753
  745MOL0     H98293   0.864  10.175   9.532  0.3863  1.0743  0.2749
  745MOL0     H98294   0.985   9.877   9.719  0.7343  1.0435 -1.6647
  745MOL0     H98295   0.858   9.941   9.616 -0.2862  1.2722 -0.0146
  745MOL0     H98296   0.816  10.109   9.801 -1.3491 -0.3878 -0.8471
  745MOL0     H98297   0.914  10.003   9.906  1.4171  4.4575 -0.5297
  745MOL0     H98298   0.754   9.815   9.828 -0.3091 -0.6941  1.3510
  745MOL0     H98299   0.693   9.939   9.937  2.7515  0.6359  0.2080
  745MOL0     H98300   0.623   9.914   9.636 -0.7525 -1.9844  0.1940
  745MOL0     H98301   0.589  10.064   9.725  2.4331  0.8046 -1.4251
  745MOL0     H98302   0.447   9.879   9.497 -0.5669  0.6753 -0.6297
  745MOL0     H98303   0.247   9.828   9.401 -2.0037  1.1276  0.5866
  745MOL0     H98304  -0.227   9.600   9.710 -0.6798  3.2860  0.7339
  745MOL0     H98305  -0.438   9.479   9.655  1.4819 -2.7925 -0.9886
  745MOL0     H98306  -0.614   9.518   9.224  1.8908  0.2186  0.5961
  745MOL0     H98307  -0.652   9.672   9.300 -0.5370 -0.0034 -2.5051
  745MOL0     H98308  -0.830   9.519   9.432 -0.2162 -0.3219  0.6301
  745MOL0     H98309  -0.792   9.404   9.306 -0.6694  1.2029 -0.1672
  745MOL0     H98310  -0.882   9.686   9.234 -1.8946 -0.1787 -2.3887
  745MOL0     H98311  -0.994   9.557   9.242 -0.8284  4.5290  0.8122
  745MOL0     H98312  -0.756   9.612   9.063 -1.1229  0.3224 -0.1473
  745MOL0     H98313  -0.825   9.444   9.073 -3.6003 -0.9317  1.0802
  745MOL0     H98314  -0.964   9.697   8.983 -2.1677  0.2443 -0.6141
  745MOL0     H98315  -1.048   9.544   9.022 -1.4946  2.2227  0.4610
  745MOL0     H98316  -1.012   9.537   8.788  0.1391  0.0645  1.4951
  745MOL0     H98317  -0.895   9.427   8.843 -0.3785 -0.0193  1.5372
  745MOL0     H98318  -0.880   9.720   8.777 -0.4685 -1.0061  0.6413
  745MOL0     H98319  -0.725   9.631   8.818  0.4632  2.6356 -1.4894
  745MOL0     H98320  -0.747   9.502   8.628 -2.6732 -1.8139 -1.9886
  745MOL0     H98321  -0.760   9.676   8.576 -1.2787  1.0393  0.2775
  745MOL0     H98322  -0.419   9.649   9.264 -0.8981 -2.0305 -0.2864
  745MOL0     H98323  -0.237   9.798   9.329 -0.1600 -0.4333 -0.0591
  745MOL0     H98324   0.048   9.774   9.763 -0.0476  1.2626  0.7918
  745MOL0     H98325   0.281   9.825   9.891  0.3096 -1.3402 -0.0484
  745MOL0     H98326   1.913  10.509   9.014  0.9184  1.4213 -1.6918
  745MOL0     H98327   2.150  10.601   8.945 -1.0101  1.5763  1.1912
  745MOL0     H98328   2.626  10.441   9.055 -0.0617 -3.1549 -0.9323
  745MOL0     H98329   2.850  10.501   9.040  2.2074 -0.5039 -1.4200
  745MOL0     H98330   3.171  10.599   8.873  0.3929  0.8202  0.3971
  745MOL0     H98331   3.066  10.467   8.937 -3.0959  1.3780  0.6735
  745MOL0     H98332   2.980  10.636   9.107  2.1273 -2.0408  1.3495
  745MOL0     H98333   3.140  10.624   9.118 -1.5961 -3.3160  1.3781
  745MOL0     H98334   2.974  10.841   8.975 -0.2377  0.5640  0.6639
  745MOL0     H98335   3.124  10.822   8.913 -1.4936 -2.8177 -0.3209
  745MOL0     H98336   3.114  10.993   9.102  0.8639  0.3792 -1.7480
  745MOL0     H98337   3.068  10.873   9.220 -0.8865 -0.2915 -1.4362
  745MOL0     H98338   3.485  10.813   9.172  1.1858 -0.5591 -0.7956
  745MOL0     H98339   2.783  10.661   8.646  2.1336  0.3277  1.2278
  745MOL0     H98340   2.567  10.590   8.651 -1.9858 -0.0640  1.6191
  746MOL0     O98341   9.016   5.149   9.796 -0.1680 -0.2019  0.3285
  746MOL0     C98342   9.121   5.085   9.802  0.8717 -0.2045  0.2801
  746MOL0     O98343   9.137   4.976   9.883  0.2790 -0.1656  0.2081
  746MOL0     C98344   9.033   4.923   9.964  0.4497  0.3179 -0.1191
  746MOL0     C98345   8.901   4.889   9.911 -0.2243 -0.1241 -0.2861
  746MOL0     C98346   8.807   4.828   9.991 -0.1066 -0.2385 -0.4325
  746MOL0     C98347   8.847   4.770  10.111 -0.0221 -0.0368  0.2614
  746MOL0     O98348   8.761   4.692  10.186 -0.5708  0.4741 -0.3365
  746MOL0     C98349   8.734   4.717  10.325 -0.2218  0.4687 -0.1305
  746MOL0     C98350   8.630   4.825  10.332  0.8309  0.9358  0.5261
  746MOL0     C98351   8.593   4.865  10.467 -0.3220 -0.0927 -0.7582
  746MOL0     C98352   8.481   4.966  10.460 -0.2401  0.6444  0.5852
  746MOL0     C98353   8.450   5.049  10.588 -0.4494  0.5488  0.3961
  746MOL0     C98354   8.350   5.161  10.558  0.0479  0.0264  0.0565
  746MOL0     C98355   8.415   5.284  10.487  0.4307  0.3269 -0.4732
  746MOL0     C98356   8.470   5.376  10.589  0.2188 -0.2887 -0.5204
  746MOL0     N98357   8.493   5.513  10.544 -0.6641  0.1433  0.5753
  746MOL0     C98358   8.600   5.547  10.457 -0.0248 -0.4189  0.2394
  746MOL0     C98359   8.578   5.684  10.444 -0.3002  0.1069  0.4815
  746MOL0     C98360   8.674   5.774  10.361  0.5335 -0.0654  0.9382
  746MOL0     C98361   8.773   5.853  10.459  0.2546  0.6702  0.0651
  746MOL0     C98362   8.697   5.961  10.545  0.1479  0.1698  0.0524
  746MOL0     C98363   8.598   6.052  10.476 -0.5394 -0.4045 -0.8061
  746MOL0     O98364   8.674   6.113  10.379 -0.0640 -0.1069  0.0122
  746MOL0     C98365   8.616   6.212  10.298 -0.4715  0.2257 -0.5133
  746MOL0     C98366   8.474   6.247  10.308 -0.4498 -0.0533 -0.3759
  746MOL0     C98367   8.428   6.348  10.231 -0.3527  0.4713 -0.3278
  746MOL0     C98368   8.509   6.416  10.134 -0.4167 -0.5409 -0.9946
  746MOL0     C98369   8.459   6.521  10.049 -0.3755 -0.5523 -0.2318
  746MOL0     O98370   8.546   6.556   9.942 -0.3327 -0.5704  0.8105
  746MOL0     C98371   8.499   6.594   9.812 -0.9949 -0.2111 -0.9817
  746MOL0     C98372   8.605   6.621   9.728 -0.3470  0.2011 -0.2095
  746MOL0     C98373   8.587   6.659   9.595  0.3827 -0.7632  0.2215
  746MOL0     C98374   8.459   6.666   9.536 -0.0725 -0.6956 -0.1783
  746MOL0     O98375   8.434   6.682   9.399 -0.1327  0.5390 -0.5315
  746MOL0     C98376   8.533   6.755   9.324  0.1953  0.4681 -0.3038
  746MOL0     C98377   8.606   6.643   9.247  0.3558 -0.0106  0.3070
  746MOL0     C98378   8.755   6.685   9.219 -0.2301 -0.3290 -0.5093
  746MOL0     C98379   8.832   6.566   9.153  0.0997 -0.6443 -0.7673
  746MOL0     C98380   8.981   6.584   9.147  0.5503  0.6017 -0.0441
  746MOL0     C98381   9.044   6.574   9.281  0.1443  0.3603 -0.1087
  746MOL0     C98382   9.191   6.607   9.282  0.0857  0.3172 -0.0717
  746MOL0     C98383   9.268   6.492   9.218  0.5213 -0.1093  0.2288
  746MOL0    Cl98384   9.439   6.480   9.266 -0.1410  0.4749 -0.0423
  746MOL0     C98385   8.350   6.639   9.624 -0.2020  0.8545 -0.0681
  746MOL0     C98386   8.371   6.602   9.763  0.0460  0.2785 -0.0954
  746MOL0     O98387   8.340   6.537  10.051  0.8742  0.2698  0.2775
  746MOL0     C98388   8.653   6.375  10.129 -0.5908 -0.4422  0.9901
  746MOL0     C98389   8.701   6.275  10.210  0.4737 -0.2318  0.0327
  746MOL0     N98390   8.464   5.725  10.508 -0.4373 -0.4180  0.0187
  746MOL0     N98391   8.431   5.624  10.585  0.1031  0.1440  1.4294
  746MOL0     C98392   8.972   4.797  10.162 -0.4406  0.1622 -0.5752
  746MOL0     C98393   9.060   4.870  10.085 -0.8102 -0.3556 -0.3683
  746MOL0     C98394   9.215   5.093   9.687  0.5083 -0.5644  0.2484
  746MOL0     C98395   9.203   5.193   9.585 -0.0289  0.5201  0.5350
  746MOL0     C98396   9.281   5.190   9.471 -0.2835  0.0684  0.3979
  746MOL0     C98397   9.382   5.095   9.462  0.2637  0.2816  0.0823
  746MOL0     O98398   9.458   5.096   9.350  0.4654  1.1040  0.1047
  746MOL0     C98399   9.544   5.204   9.332  0.0482 -0.7429 -0.0488
  746MOL0     C98400   9.658   5.167   9.236  0.1018 -0.0013 -0.3065
  746MOL0     C98401   9.766   5.272   9.237 -0.6371 -0.1402 -0.2609
  746MOL0     C98402   9.883   5.216   9.148 -0.4841 -0.0176  0.1771
  746MOL0     C98403  10.013   5.282   9.189 -0.6387 -0.2617  0.1780
  746MOL0     C98404  10.110   5.340   9.229  0.0117  0.7748 -0.0567
  746MOL0     C98405   9.397   5.003   9.568  0.7823 -0.3934  0.7589
  746MOL0     C98406   9.321   5.002   9.677  0.3856  0.4350 -0.0323
  746MOL0     H98407   8.880   4.933   9.814 -3.5332  0.3228  0.4951
  746MOL0     H98408   8.708   4.805   9.951 -1.5248  1.4599  1.8228
  746MOL0     H98409   8.822   4.751  10.381 -0.6733 -0.3202  1.1076
  746MOL0     H98410   8.705   4.622  10.371  0.8935  0.8620  1.4535
  746MOL0     H98411   8.541   4.795  10.276  1.9026  1.9938 -1.8785
  746MOL0     H98412   8.666   4.909  10.272  1.0723 -0.4270 -1.3087
  746MOL0     H98413   8.675   4.926  10.506 -1.0561  1.2019 -1.1752
  746MOL0     H98414   8.565   4.782  10.532 -0.8245  0.1360 -0.6807
  746MOL0     H98415   8.510   5.035  10.380  2.0904 -3.2785 -2.3129
  746MOL0     H98416   8.395   4.909  10.425  2.7613 -2.2722 -2.9181
  746MOL0     H98417   8.538   5.098  10.630  0.0984  0.2281 -0.3513
  746MOL0     H98418   8.416   4.990  10.674 -0.0583  2.8347  2.2444
  746MOL0     H98419   8.313   5.187  10.657  1.2891 -0.7645  0.7496
  746MOL0     H98420   8.273   5.119  10.493  0.7173 -0.3057 -0.5323
  746MOL0     H98421   8.496   5.255  10.420  0.1762 -3.5529  0.6794
  746MOL0     H98422   8.338   5.348  10.443  0.0298  0.6693  0.6917
  746MOL0     H98423   8.556   5.333  10.641  0.2972 -0.7035 -0.9901
  746MOL0     H98424   8.389   5.387  10.662  1.0177  0.5598  0.2519
  746MOL0     H98425   8.688   5.490  10.427 -1.6312 -2.4537 -0.8807
  746MOL0     H98426   8.607   5.830  10.296  0.1907 -0.1911  1.1781
  746MOL0     H98427   8.731   5.715  10.289  0.1181  1.7922 -0.9911
  746MOL0     H98428   8.844   5.908  10.397  1.4843  0.9763  1.6955
  746MOL0     H98429   8.834   5.787  10.521 -0.4703 -1.3649 -1.2609
  746MOL0     H98430   8.644   5.896  10.616 -2.3915  1.6899 -0.3123
  746MOL0     H98431   8.767   6.022  10.603 -0.0617 -0.0182  0.5149
  746MOL0     H98432   8.553   6.126  10.544  1.3032 -0.1025  0.1645
  746MOL0     H98433   8.516   6.005  10.422 -0.5861  0.3038 -1.3543
  746MOL0     H98434   8.404   6.188  10.367  1.2683 -0.8025  0.9891
  746MOL0     H98435   8.322   6.370  10.234 -0.3700  0.3320  0.1951
  746MOL0     H98436   8.709   6.620   9.758  0.9215 -1.5638 -4.0502
  746MOL0     H98437   8.676   6.689   9.541 -1.2656 -0.4164 -2.5242
  746MOL0     H98438   8.589   6.827   9.385  1.4105  0.9435 -1.9138
  746MOL0     H98439   8.473   6.817   9.257 -0.7595  1.0718  1.0649
  746MOL0     H98440   8.542   6.621   9.161 -1.1983  0.6779  1.2324
  746MOL0     H98441   8.618   6.555   9.311 -0.8988  0.4545  1.2298
  746MOL0     H98442   8.796   6.699   9.320 -1.2724 -0.7263 -0.0156
  746MOL0     H98443   8.765   6.780   9.165 -0.0848  1.1472  1.9089
  746MOL0     H98444   8.806   6.482   9.219 -1.3184  1.0851  0.9856
  746MOL0     H98445   8.794   6.549   9.052  1.5087  0.8795 -1.6128
  746MOL0     H98446   9.006   6.682   9.105 -2.1430  1.1184 -0.5970
  746MOL0     H98447   9.032   6.509   9.085  3.1135  0.8834  1.5660
  746MOL0     H98448   9.015   6.475   9.314 -1.5285  0.4347 -1.2288
  746MOL0     H98449   9.010   6.651   9.350  4.1969  0.5137  2.0385
  746MOL0     H98450   9.212   6.698   9.226  0.3823  1.4436  1.7647
  746MOL0     H98451   9.223   6.624   9.386 -0.5735 -2.6040  0.7077
  746MOL0     H98452   9.250   6.509   9.111  0.7027 -0.2932  0.1682
  746MOL0     H98453   9.221   6.398   9.249  0.1866 -0.2504 -0.6705
  746MOL0     H98454   8.259   6.606   9.575  1.7297 -0.8706 -2.8151
  746MOL0     H98455   8.291   6.578   9.832  1.6873  2.3427  2.7223
  746MOL0     H98456   8.727   6.431  10.072 -0.4350 -1.7057 -0.0978
  746MOL0     H98457   8.804   6.243  10.201  1.0220  1.0285  1.4892
  746MOL0     H98458   9.007   4.754  10.255 -1.7846 -2.9073 -1.3510
  746MOL0     H98459   9.165   4.881  10.112 -0.7204 -2.6725  0.5308
  746MOL0     H98460   9.120   5.262   9.596 -2.0838 -1.4670 -1.2746
  746MOL0     H98461   9.280   5.270   9.398  1.2004 -0.5173 -0.3131
  746MOL0     H98462   9.587   5.245   9.424  2.3274 -0.6327 -1.1018
  746MOL0     H98463   9.490   5.289   9.290  3.5113  2.4204  1.3835
  746MOL0     H98464   9.700   5.079   9.286  2.3441  0.2114 -1.7131
  746MOL0     H98465   9.619   5.143   9.137 -0.9353  2.3198 -0.5262
  746MOL0     H98466   9.801   5.308   9.334 -1.7631  1.5092 -0.4257
  746MOL0     H98467   9.724   5.361   9.189 -1.1440 -0.3281 -0.1646
  746MOL0     H98468   9.905   5.110   9.159  2.2047  0.2866 -1.1753
  746MOL0     H98469   9.853   5.233   9.044 -1.2110  0.6774  0.4866
  746MOL0     H98470  10.185   5.400   9.277 -2.9827  3.3543  1.7983
  746MOL0     H98471   9.466   4.923   9.544 -0.2812 -1.4714  1.1636
  746MOL0     H98472   9.339   4.937   9.762 -1.1216 -1.0599 -0.7910
  747MOL0     O98473   0.051   0.558   8.029 -0.4366  0.7486  0.0847
  747MOL0     C98474   0.014   0.503   7.920 -0.3915  0.2958 -1.4584
  747MOL0     O98475  -0.107   0.433   7.904 -0.8646 -0.3918  0.1627
  747MOL0     C98476  -0.194   0.428   8.010  0.3578  0.5394  0.0365
  747MOL0     C98477  -0.241   0.524   8.101  0.2026 -0.3878 -1.0210
  747MOL0     C98478  -0.354   0.505   8.185  0.1391  0.3106 -0.6745
  747MOL0     C98479  -0.406   0.371   8.195  0.5771  0.2944 -0.0985
  747MOL0     O98480  -0.518   0.341   8.270 -0.3558  0.6049  0.7750
  747MOL0     C98481  -0.615   0.444   8.307 -0.1926  0.6276 -0.2753
  747MOL0     C98482  -0.551   0.529   8.423  0.0637 -0.3848 -0.3227
  747MOL0     C98483  -0.588   0.687   8.421 -0.1608  0.4140  0.3281
  747MOL0     C98484  -0.737   0.720   8.392  0.0776  0.4794 -0.6751
  747MOL0     C98485  -0.808   0.675   8.527  0.5831  0.2657 -0.4183
  747MOL0     C98486  -0.962   0.673   8.505  0.0009  0.2286  0.4933
  747MOL0     C98487  -1.030   0.799   8.455 -0.5286 -0.2085  0.5862
  747MOL0     C98488  -1.024   0.904   8.559  0.0340 -0.7793  0.2434
  747MOL0     N98489  -1.086   0.876   8.686  0.1760 -1.3850  0.1938
  747MOL0     C98490  -1.219   0.849   8.700 -0.2821 -0.4272 -0.5083
  747MOL0     C98491  -1.227   0.780   8.823  0.7038 -0.6845  0.4038
  747MOL0     C98492  -1.351   0.733   8.885  1.1646  0.3811 -0.1983
  747MOL0     C98493  -1.433   0.833   8.967 -0.3792 -0.7702  0.3861
  747MOL0     C98494  -1.505   0.936   8.873  0.1076 -0.4807 -0.0961
  747MOL0     C98495  -1.626   1.006   8.941  0.2152  0.6300 -0.3855
  747MOL0     O98496  -1.739   0.913   8.945  0.4330 -0.2889  0.6255
  747MOL0     C98497  -1.868   0.966   8.960 -0.7378  1.0275  0.7710
  747MOL0     C98498  -1.898   1.105   8.963  0.8450 -1.5590  0.2508
  747MOL0     C98499  -2.025   1.161   8.981  0.5184 -0.6662 -0.2933
  747MOL0     C98500  -2.132   1.073   8.996 -0.0728  0.4245 -1.0188
  747MOL0     C98501  -2.276   1.124   9.034 -0.5615  0.2101  0.1036
  747MOL0     O98502  -2.377   1.052   8.994 -0.6670 -0.4411 -0.0624
  747MOL0     C98503  -2.500   1.079   9.041  0.2467  0.4811 -0.1465
  747MOL0     C98504  -2.562   1.205   9.031 -0.8502 -0.0526  0.7811
  747MOL0     C98505  -2.686   1.226   9.084 -0.4769 -0.2111 -0.9259
  747MOL0     C98506  -2.753   1.130   9.166  0.1243  1.0393  0.5326
  747MOL0     O98507  -2.886   1.155   9.192 -0.1571 -0.1149 -0.5421
  747MOL0     C98508  -2.967   1.037   9.225  0.3630 -0.7644 -0.8562
  747MOL0     C98509  -3.114   1.079   9.222 -0.5348 -0.0031  0.2638
  747MOL0     C98510  -3.146   1.160   9.357  0.0796 -0.4405 -0.9626
  747MOL0     C98511  -3.281   1.223   9.338  0.1310  0.5941 -0.1257
  747MOL0     C98512  -3.328   1.302   9.459  0.6081 -0.1996  0.0074
  747MOL0     C98513  -3.466   1.359   9.422 -0.0097 -0.0719 -0.1811
  747MOL0     C98514  -3.542   1.400   9.549 -0.2972 -0.3871 -0.9409
  747MOL0     C98515  -3.684   1.435   9.504 -0.6292 -0.8943  0.1398
  747MOL0    Cl98516  -3.783   1.441   9.645 -0.1240  0.3081  0.5644
  747MOL0     C98517  -2.685   1.008   9.179  0.4163 -0.2094  0.4006
  747MOL0     C98518  -2.563   0.984   9.119 -0.1721  0.5113 -0.5507
  747MOL0     O98519  -2.279   1.237   9.089 -0.3540  0.0639 -0.3800
  747MOL0     C98520  -2.105   0.936   8.984 -0.7966  0.1540  0.3040
  747MOL0     C98521  -1.977   0.883   8.974 -0.0229  0.6454  0.4930
  747MOL0     N98522  -1.102   0.775   8.874  0.2076 -0.2802 -0.1769
  747MOL0     N98523  -1.018   0.826   8.794 -0.2219  0.5654  0.4693
  747MOL0     C98524  -0.358   0.281   8.106 -0.1142 -1.0384 -0.4362
  747MOL0     C98525  -0.261   0.309   8.015 -0.0084 -0.0280 -0.8248
  747MOL0     C98526   0.111   0.500   7.811  0.6500  0.2961 -0.8044
  747MOL0     C98527   0.086   0.422   7.700  0.2029  0.1407 -0.5775
  747MOL0     C98528   0.169   0.430   7.593 -0.0001  0.0722  0.0944
  747MOL0     C98529   0.269   0.523   7.585  0.0461  0.0732  0.6190
  747MOL0     O98530   0.357   0.523   7.479  0.4782 -0.2753 -0.1187
  747MOL0     C98531   0.316   0.503   7.345 -0.1389  0.0779  0.6233
  747MOL0     C98532   0.336   0.636   7.272  0.1223  0.7007 -0.1019
  747MOL0     C98533   0.238   0.737   7.315  0.1224  0.6732 -0.1573
  747MOL0     C98534   0.272   0.874   7.255 -0.0212 -0.3282 -0.9855
  747MOL0     C98535   0.284   0.870   7.115  0.4663  0.1028 -0.0337
  747MOL0     C98536   0.300   0.883   6.995 -0.2545 -0.3465  0.5099
  747MOL0     C98537   0.299   0.596   7.695  0.5895 -0.3879  0.7465
  747MOL0     C98538   0.221   0.579   7.811  0.4619 -0.5505 -0.4354
  747MOL0     H98539  -0.194   0.621   8.094 -1.5144  0.4462 -1.5326
  747MOL0     H98540  -0.397   0.593   8.231  0.0960 -0.3654  0.6052
  747MOL0     H98541  -0.706   0.393   8.339 -0.3276  0.7406 -0.4756
  747MOL0     H98542  -0.647   0.497   8.217 -0.5507 -3.4379 -2.7722
  747MOL0     H98543  -0.443   0.519   8.433  0.0468 -0.5133 -0.2671
  747MOL0     H98544  -0.598   0.494   8.515 -0.3797 -0.6154 -0.6361
  747MOL0     H98545  -0.534   0.736   8.340 -0.0977 -2.3410 -1.4600
  747MOL0     H98546  -0.559   0.744   8.509  2.1297  1.0621 -0.7648
  747MOL0     H98547  -0.765   0.823   8.364 -2.8336 -0.1632 -0.5176
  747MOL0     H98548  -0.757   0.664   8.300  0.3549 -1.1609  0.2321
  747MOL0     H98549  -0.788   0.742   8.611  0.5186 -0.4598  0.1742
  747MOL0     H98550  -0.779   0.577   8.564 -1.5429 -0.8782 -1.5449
  747MOL0     H98551  -1.011   0.646   8.599  0.8185 -1.3882  0.4876
  747MOL0     H98552  -0.991   0.586   8.445  0.4129 -1.1240  2.1937
  747MOL0     H98553  -0.977   0.834   8.366  0.2284  1.4756  1.6493
  747MOL0     H98554  -1.133   0.771   8.435 -0.6106  1.5791 -2.0299
  747MOL0     H98555  -1.068   0.992   8.513  1.5935  0.6019  1.2847
  747MOL0     H98556  -0.920   0.938   8.566 -0.5959  1.3840 -0.4019
  747MOL0     H98557  -1.299   0.873   8.630 -1.3815 -0.2212  0.7687
  747MOL0     H98558  -1.343   0.648   8.954  1.3031  1.6688  1.4169
  747MOL0     H98559  -1.421   0.698   8.808 -0.5131 -0.9092  1.7863
  747MOL0     H98560  -1.360   0.890   9.025  0.7592 -1.8510  0.0528
  747MOL0     H98561  -1.516   0.791   9.025 -0.3241  0.6095  1.5133
  747MOL0     H98562  -1.443   1.022   8.847 -2.1361  1.7201  1.3660
  747MOL0     H98563  -1.545   0.892   8.781 -0.8579  4.2658 -2.2340
  747MOL0     H98564  -1.653   1.094   8.880 -0.2938  0.5923 -0.2230
  747MOL0     H98565  -1.599   1.038   9.042 -0.8755 -0.9613  0.4560
  747MOL0     H98566  -1.818   1.178   8.971 -2.6451  2.5907  0.5798
  747MOL0     H98567  -2.050   1.265   8.998 -1.1995 -0.6400 -2.5842
  747MOL0     H98568  -2.513   1.287   8.981 -1.5144  1.5554  2.6605
  747MOL0     H98569  -2.731   1.322   9.060  1.2092  0.6157 -0.8661
  747MOL0     H98570  -2.946   1.005   9.328 -1.7450  1.5330  0.3865
  747MOL0     H98571  -2.959   0.960   9.148 -1.0548 -1.1013 -0.7014
  747MOL0     H98572  -3.185   0.998   9.204 -0.6648  0.3263 -0.7671
  747MOL0     H98573  -3.130   1.149   9.141 -1.9916 -1.7552 -1.0467
  747MOL0     H98574  -3.074   1.237   9.387 -1.2427  0.5009 -0.1306
  747MOL0     H98575  -3.146   1.093   9.444 -0.2448 -1.5342 -1.7823
  747MOL0     H98576  -3.278   1.288   9.250 -3.2176  0.7543 -0.2659
  747MOL0     H98577  -3.366   1.156   9.319  0.0969  0.2912  1.0058
  747MOL0     H98578  -3.262   1.387   9.478 -0.9440  1.0889 -0.1709
  747MOL0     H98579  -3.338   1.238   9.547 -5.5415  1.0185  0.6778
  747MOL0     H98580  -3.516   1.271   9.381  3.1899 -2.9304  1.4972
  747MOL0     H98581  -3.465   1.442   9.351  0.0155 -1.8375 -2.3669
  747MOL0     H98582  -3.545   1.314   9.616 -1.0410  0.5172  0.2205
  747MOL0     H98583  -3.495   1.482   9.604  1.2010 -2.2616  0.7177
  747MOL0     H98584  -3.716   1.358   9.433  2.4394 -0.4017 -1.9590
  747MOL0     H98585  -3.681   1.525   9.442 -1.3391 -1.1797 -0.3301
  747MOL0     H98586  -2.722   0.928   9.243  2.8068 -1.4763  0.3244
  747MOL0     H98587  -2.527   0.887   9.152 -2.4431 -0.3901 -0.5908
  747MOL0     H98588  -2.188   0.867   8.979  1.1754 -2.8483  3.9693
  747MOL0     H98589  -1.960   0.776   8.978 -3.3101  0.0549  1.2630
  747MOL0     H98590  -0.408   0.185   8.094  1.8007 -1.8606 -2.5501
  747MOL0     H98591  -0.231   0.233   7.943  0.5362  0.9930 -1.7112
  747MOL0     H98592  -0.005   0.362   7.696 -0.5502  1.2778 -1.4196
  747MOL0     H98593   0.152   0.358   7.514  1.7638  1.8868 -2.0765
  747MOL0     H98594   0.211   0.472   7.342  1.0400 -4.8764  1.3497
  747MOL0     H98595   0.373   0.418   7.305  0.6650  1.6843 -1.8619
  747MOL0     H98596   0.432   0.674   7.306  0.2916 -1.6964  2.4514
  747MOL0     H98597   0.330   0.625   7.163 -3.1394  2.1247 -0.1875
  747MOL0     H98598   0.248   0.733   7.424  2.0587  0.2959 -0.3026
  747MOL0     H98599   0.136   0.712   7.286  0.3323  0.2422 -0.5405
  747MOL0     H98600   0.206   0.955   7.288  2.2817  2.0964 -1.9871
  747MOL0     H98601   0.367   0.914   7.290 -0.7313 -0.1386  0.8441
  747MOL0     H98602   0.321   0.890   6.890  0.8367 -1.1010  0.6674
  747MOL0     H98603   0.388   0.658   7.698 -0.7518  1.5896  2.0507
  747MOL0     H98604   0.247   0.629   7.904 -2.1678  1.0853 -0.4509
  748MOL0     O98605   7.033  10.153  11.085 -1.2667  0.2311 -0.5199
  748MOL0     C98606   6.962  10.095  11.009 -0.3043 -0.1430  0.0338
  748MOL0     O98607   6.980   9.962  10.989  0.2732 -0.2096 -0.3740
  748MOL0     C98608   7.077   9.894  11.068  0.2988 -0.2393  0.5952
  748MOL0     C98609   7.080   9.890  11.207 -0.1415 -0.3344  0.3367
  748MOL0     C98610   7.181   9.823  11.277 -0.1914  0.5996  0.5742
  748MOL0     C98611   7.288   9.769  11.208  0.4370  1.1332 -0.7710
  748MOL0     O98612   7.395   9.708  11.285 -0.1334  0.3767 -0.1358
  748MOL0     C98613   7.528   9.715  11.224  0.2036 -0.0054  0.4157
  748MOL0     C98614   7.626   9.673  11.334  0.2382  0.9709 -0.1582
  748MOL0     C98615   7.621   9.520  11.382 -0.0249 -0.0697 -0.2314
  748MOL0     C98616   7.733   9.498  11.488 -0.2714 -0.1849 -0.4213
  748MOL0     C98617   7.683   9.415  11.614 -0.3228  0.2931  1.1108
  748MOL0     C98618   7.579   9.480  11.702 -0.0174 -0.6167  0.5516
  748MOL0     C98619   7.509   9.381  11.787 -0.0441  0.1467 -0.3759
  748MOL0     C98620   7.577   9.291  11.889 -0.1155 -0.0116  0.0850
  748MOL0     N98621   7.679   9.357  11.970 -0.3560 -0.2005 -0.2033
  748MOL0     C98622   7.669   9.470  12.055  0.4060 -0.1372  0.7404
  748MOL0     C98623   7.799   9.512  12.056 -0.2964  0.5666  0.4405
  748MOL0     C98624   7.849   9.636  12.136  0.7563  0.2775  0.2583
  748MOL0     C98625   7.741   9.688  12.234 -0.3176  0.4144  0.0874
  748MOL0     C98626   7.775   9.822  12.288  0.3164 -0.2830 -0.8442
  748MOL0     C98627   7.677   9.873  12.405  0.1428 -0.2830 -0.0428
  748MOL0     O98628   7.550   9.897  12.348 -0.3899 -0.1428  0.0202
  748MOL0     C98629   7.448   9.938  12.434  0.3912  0.6720 -0.5300
  748MOL0     C98630   7.333   9.976  12.367  0.6520  0.7093 -0.2959
  748MOL0     C98631   7.216  10.025  12.434 -0.4161 -0.1919 -0.4578
  748MOL0     C98632   7.216  10.047  12.569  0.3228  0.3523  0.0807
  748MOL0     C98633   7.108  10.124  12.641  0.2025  0.2851  0.4393
  748MOL0     O98634   7.140  10.143  12.773  0.8352  0.4788  0.4948
  748MOL0     C98635   7.067  10.234  12.853  0.3961  0.9990  0.4358
  748MOL0     C98636   6.930  10.271  12.841 -0.6580 -0.6029 -0.0398
  748MOL0     C98637   6.884  10.380  12.909 -0.0496 -0.1256 -0.8594
  748MOL0     C98638   6.972  10.443  13.002  0.2742 -0.0805  0.4370
  748MOL0     O98639   6.925  10.554  13.059 -0.0432 -0.2550  1.2093
  748MOL0     C98640   6.842  10.535  13.177  0.5443 -0.4511  0.5383
  748MOL0     C98641   6.919  10.465  13.296 -0.0131  0.0631  1.3266
  748MOL0     C98642   6.851  10.507  13.417  0.9046  1.1086 -0.8327
  748MOL0     C98643   6.890  10.428  13.546 -0.7162  0.0500  0.5474
  748MOL0     C98644   6.787  10.443  13.654 -0.6100 -0.0415  0.5196
  748MOL0     C98645   6.772  10.591  13.701 -0.0563 -0.1386  0.6111
  748MOL0     C98646   6.889  10.644  13.795 -0.0319  0.3855  0.4011
  748MOL0     C98647   6.861  10.773  13.880 -0.1101 -0.1521  0.7369
  748MOL0    Cl98648   6.745  10.904  13.810 -0.0340 -0.1100 -0.2476
  748MOL0     C98649   7.102  10.409  13.010 -0.5707  0.7197 -0.1752
  748MOL0     C98650   7.147  10.302  12.936  0.4102  0.0556  0.0357
  748MOL0     O98651   7.004  10.169  12.582 -0.1754  0.1210  0.5568
  748MOL0     C98652   7.339  10.008  12.644  0.7998 -0.9219 -0.0239
  748MOL0     C98653   7.451   9.955  12.578 -0.4169 -0.2814 -0.4877
  748MOL0     N98654   7.880   9.429  11.983 -0.4413 -0.6640  0.6293
  748MOL0     N98655   7.806   9.343  11.928 -0.1298 -0.2506 -0.9872
  748MOL0     C98656   7.285   9.757  11.069 -0.1099 -0.3691 -1.0496
  748MOL0     C98657   7.186   9.823  11.001  0.1634  0.1516 -0.2660
  748MOL0     C98658   6.861  10.161  10.935 -0.6946  0.3484 -0.4792
  748MOL0     C98659   6.795  10.105  10.826 -0.5351  0.2829  0.6074
  748MOL0     C98660   6.693  10.159  10.756 -0.1019  0.2608 -0.0715
  748MOL0     C98661   6.651  10.291  10.795 -0.0744  0.8615  0.5915
  748MOL0     O98662   6.563  10.367  10.714 -0.5351  0.2823 -0.0119
  748MOL0     C98663   6.425  10.319  10.702  0.0906 -0.2271 -0.2914
  748MOL0     C98664   6.388  10.283  10.565  0.3707  0.5709  0.1853
  748MOL0     C98665   6.384  10.397  10.464  1.1126 -0.1269  0.6756
  748MOL0     C98666   6.328  10.365  10.326 -0.3447  0.2790 -0.3725
  748MOL0     C98667   6.185  10.338  10.309  0.5812 -0.5245 -0.2900
  748MOL0     C98668   6.069  10.297  10.306  0.0083  2.0115  0.1197
  748MOL0     C98669   6.709  10.351  10.903 -0.4382  0.4013 -0.1724
  748MOL0     C98670   6.816  10.291  10.972 -0.5444 -0.1511 -0.3262
  748MOL0     H98671   6.992   9.924  11.262  0.1990 -1.2749  1.5337
  748MOL0     H98672   7.164   9.818  11.384 -0.9440 -5.2966  0.4758
  748MOL0     H98673   7.554   9.814  11.186 -1.5912  0.3037 -0.0798
  748MOL0     H98674   7.533   9.642  11.143 -1.4390 -1.0635  1.1935
  748MOL0     H98675   7.598   9.734  11.420 -3.2650  0.7619 -1.0046
  748MOL0     H98676   7.730   9.690  11.303  2.4281 -2.3904  4.2327
  748MOL0     H98677   7.646   9.452  11.301 -3.2022  1.6662 -2.8917
  748MOL0     H98678   7.521   9.486  11.412 -0.6724  0.2665 -1.9208
  748MOL0     H98679   7.829   9.468  11.444  0.1664 -0.9706  1.0140
  748MOL0     H98680   7.758   9.600  11.520 -0.3935 -0.0024 -0.9021
  748MOL0     H98681   7.777   9.401  11.668  2.1559 -0.8692 -3.0595
  748MOL0     H98682   7.660   9.313  11.584 -1.5906  0.9862 -0.4467
  748MOL0     H98683   7.505   9.520  11.632 -0.1245  0.9819  1.5214
  748MOL0     H98684   7.613   9.560  11.769 -3.1595 -1.6817  3.7696
  748MOL0     H98685   7.429   9.426  11.846  0.7448 -1.8303  2.3680
  748MOL0     H98686   7.451   9.318  11.719 -2.1429  2.9069 -1.3388
  748MOL0     H98687   7.628   9.212  11.835  0.1570 -1.4486  2.3212
  748MOL0     H98688   7.504   9.241  11.953 -0.5198 -0.0025 -0.3571
  748MOL0     H98689   7.577   9.524  12.075 -2.8058 -2.3135 -5.4240
  748MOL0     H98690   7.877   9.713  12.062  1.2589  0.5702  0.7435
  748MOL0     H98691   7.941   9.607  12.187  2.2237  1.8082 -1.3340
  748MOL0     H98692   7.747   9.613  12.314 -1.0879  0.2953  0.0353
  748MOL0     H98693   7.636   9.691  12.206 -1.0098  0.2584  2.4134
  748MOL0     H98694   7.878   9.831  12.322  0.0810 -1.2924  0.2417
  748MOL0     H98695   7.765   9.887  12.201  1.8368  0.9969 -0.1116
  748MOL0     H98696   7.719   9.966  12.445  1.3197 -1.4316  1.5144
  748MOL0     H98697   7.669   9.798  12.484 -0.6988  0.3017  0.4412
  748MOL0     H98698   7.331   9.996  12.261 -0.6291  1.9674 -0.0678
  748MOL0     H98699   7.129  10.062  12.381 -0.1996 -1.8036 -2.0390
  748MOL0     H98700   6.870  10.237  12.757 -0.6771  1.3452 -0.8846
  748MOL0     H98701   6.782  10.414  12.894  0.2384 -0.0897 -3.0215
  748MOL0     H98702   6.753  10.475  13.154  0.5439  0.2387 -1.4429
  748MOL0     H98703   6.799  10.623  13.226  0.3478 -1.1705  1.7084
  748MOL0     H98704   7.025  10.492  13.300  0.9789 -3.3381  1.8384
  748MOL0     H98705   6.922  10.358  13.270 -1.1877 -0.1729  2.1131
  748MOL0     H98706   6.744  10.486  13.410  1.5329 -2.5052 -1.8293
  748MOL0     H98707   6.883  10.611  13.432  0.9673  1.0100 -0.2694
  748MOL0     H98708   6.888  10.320  13.528  0.8595 -0.0300  0.7649
  748MOL0     H98709   6.995  10.443  13.573  0.1514 -1.9039 -1.4884
  748MOL0     H98710   6.814  10.377  13.736  0.0207 -0.1170  0.2561
  748MOL0     H98711   6.694  10.408  13.609  0.5012  0.5608 -2.4662
  748MOL0     H98712   6.674  10.598  13.750  0.1909  1.4991  0.9268
  748MOL0     H98713   6.753  10.646  13.608  0.4811 -0.6540  0.1879
  748MOL0     H98714   6.921  10.577  13.876 -1.2597 -0.7705 -0.0475
  748MOL0     H98715   6.973  10.677  13.733 -0.4219  0.3726 -0.1403
  748MOL0     H98716   6.954  10.816  13.918  1.0282 -0.4037 -1.5565
  748MOL0     H98717   6.811  10.738  13.971 -0.9562  0.4892  0.5312
  748MOL0     H98718   7.167  10.456  13.083  0.2698 -0.3368 -0.2329
  748MOL0     H98719   7.254  10.284  12.928  0.4442  0.1951  0.1779
  748MOL0     H98720   7.334  10.013  12.752 -3.2500  0.8190 -0.1147
  748MOL0     H98721   7.536   9.920  12.636  0.5586 -0.9059 -2.2306
  748MOL0     H98722   7.355   9.688  11.022  0.2705 -0.2510 -0.6649
  748MOL0     H98723   7.162   9.823  10.895  0.5174  0.7609 -0.3513
  748MOL0     H98724   6.823  10.005  10.795  0.2267  1.1242 -1.6121
  748MOL0     H98725   6.648  10.101  10.676 -1.0837  0.4540  0.3137
  748MOL0     H98726   6.362  10.393  10.753 -1.2056 -1.4631 -0.0422
  748MOL0     H98727   6.415  10.228  10.762 -0.9154  0.7507  1.0966
  748MOL0     H98728   6.467  10.215  10.531 -0.1183 -0.0922  0.3507
  748MOL0     H98729   6.294  10.227  10.562  2.6453 -3.8412  1.8253
  748MOL0     H98730   6.485  10.436  10.447  0.3649  1.5424 -0.2136
  748MOL0     H98731   6.318  10.474  10.504  1.3075  0.2574  0.2649
  748MOL0     H98732   6.355  10.454  10.268  1.0210 -0.3308 -0.7163
  748MOL0     H98733   6.381  10.275  10.293  0.9928  0.9512 -0.1287
  748MOL0     H98734   5.969  10.260  10.298 -0.0046 -0.2039  5.5358
  748MOL0     H98735   6.680  10.452  10.931 -3.2434 -0.0953 -0.9186
  748MOL0     H98736   6.834  10.344  11.065 -1.9093  1.1894 -0.7895
  749MOL0     O98737  10.367   8.842  11.020  0.5143  0.1059 -0.3251
  749MOL0     C98738  10.391   8.967  11.007 -0.0398  0.1131 -0.1842
  749MOL0     O98739  10.297   9.064  10.976  0.2871  0.4167  0.0111
  749MOL0     C98740  10.162   9.025  10.974  0.3614  0.4330 -0.2557
  749MOL0     C98741  10.078   9.086  11.074 -0.2300  0.7910 -0.1360
  749MOL0     C98742   9.941   9.056  11.085  0.3951  0.9661  0.5835
  749MOL0     C98743   9.884   8.978  10.984 -0.5034 -0.2997  0.5971
  749MOL0     O98744   9.751   8.957  10.957 -0.6812  0.1216 -0.3327
  749MOL0     C98745   9.658   9.041  11.018  0.2242  0.1068 -0.0474
  749MOL0     C98746   9.627   9.002  11.173 -0.9067  0.1794 -0.9360
  749MOL0     C98747   9.486   9.042  11.212  0.8748  1.2592  0.2589
  749MOL0     C98748   9.457   8.962  11.339  0.0208  0.6821  0.2548
  749MOL0     C98749   9.312   8.986  11.402  0.4413 -0.4833  0.8453
  749MOL0     C98750   9.197   8.985  11.296 -0.6764 -0.8939  0.2509
  749MOL0     C98751   9.058   9.005  11.348 -0.1889  0.8081 -0.6630
  749MOL0     C98752   8.961   9.057  11.244 -0.4587 -0.8418  0.2001
  749MOL0     N98753   8.839   9.112  11.306  0.2419  0.4005  0.7651
  749MOL0     C98754   8.793   9.236  11.287 -0.4746 -0.5255  0.0871
  749MOL0     C98755   8.683   9.245  11.365 -0.5092 -0.6832 -0.3294
  749MOL0     C98756   8.617   9.384  11.397  1.0394  0.2317  0.4594
  749MOL0     C98757   8.523   9.410  11.281  0.1255 -0.5782  1.0438
  749MOL0     C98758   8.448   9.546  11.290  0.2099 -0.3405 -0.3948
  749MOL0     C98759   8.351   9.581  11.177  0.0944 -0.3116 -1.4698
  749MOL0     O98760   8.434   9.571  11.064  0.4690 -0.5303  0.7660
  749MOL0     C98761   8.398   9.650  10.960  0.4816  0.2522  0.8234
  749MOL0     C98762   8.428   9.784  10.968  0.4425  0.0910  1.0837
  749MOL0     C98763   8.379   9.869  10.865  0.0565  0.1214 -0.3608
  749MOL0     C98764   8.298   9.823  10.761 -1.0380 -0.0462  0.7635
  749MOL0     C98765   8.237   9.920  10.671  0.4106  0.5481 -0.6741
  749MOL0     O98766   8.226  10.059  10.709 -0.7547 -0.1918  0.2445
  749MOL0     C98767   8.121  10.128  10.665  0.2202  0.9666 -0.5724
  749MOL0     C98768   7.992  10.078  10.668  0.0343 -0.5520  0.6464
  749MOL0     C98769   7.876  10.143  10.624 -0.7002 -0.6320  0.2214
  749MOL0     C98770   7.894  10.263  10.560 -1.1515  0.0357 -0.7365
  749MOL0     O98771   7.797  10.350  10.515  0.5883 -1.0725 -0.1986
  749MOL0     C98772   7.663  10.361  10.578 -0.4479  0.0527  0.3133
  749MOL0     C98773   7.590  10.489  10.528 -0.2782 -0.7448  0.1261
  749MOL0     C98774   7.661  10.612  10.585  0.5275 -0.9106 -0.1458
  749MOL0     C98775   7.578  10.738  10.560  0.3289 -0.1607  0.4777
  749MOL0     C98776   7.643  10.851  10.633  0.0446 -0.6853 -0.3317
  749MOL0     C98777   7.724  10.943  10.547  0.3243  0.3371  0.5521
  749MOL0     C98778   7.638  11.021  10.455  0.3520 -0.0376 -0.2779
  749MOL0     C98779   7.706  11.136  10.389 -1.3019 -0.6302 -0.3516
  749MOL0    Cl98780   7.780  11.091  10.229  0.0519 -0.1856 -0.6593
  749MOL0     C98781   8.020  10.320  10.558  0.0143 -1.0881  0.2691
  749MOL0     C98782   8.131  10.258  10.610  0.2664 -0.0329 -0.8154
  749MOL0     O98783   8.190   9.877  10.567 -0.4161 -0.1174  0.0941
  749MOL0     C98784   8.273   9.683  10.753 -0.3904 -0.6055  0.1133
  749MOL0     C98785   8.330   9.602  10.848 -0.2350  1.5095 -0.1185
  749MOL0     N98786   8.652   9.124  11.414  0.2808  0.1803  0.8200
  749MOL0     N98787   8.740   9.039  11.369  0.4116 -0.5898 -0.3313
  749MOL0     C98788   9.967   8.915  10.888 -0.9323 -0.3087 -0.0339
  749MOL0     C98789  10.107   8.932  10.887 -0.0583 -0.6261  0.0509
  749MOL0     C98790  10.532   9.016  11.024  0.2104 -1.1971  0.3330
  749MOL0     C98791  10.554   9.148  10.985  0.2535  0.1383  0.1686
  749MOL0     C98792  10.673   9.206  10.988 -0.8376 -0.1908  0.6555
  749MOL0     C98793  10.784   9.132  11.029 -0.0223 -0.1122  0.3423
  749MOL0     O98794  10.911   9.180  11.019  0.3486  0.4060 -0.0448
  749MOL0     C98795  10.934   9.283  11.117 -0.6126 -0.4862  0.4196
  749MOL0     C98796  11.080   9.333  11.129  0.2976  0.5294  0.4796
  749MOL0     C98797  11.112   9.401  10.992 -1.4916  0.0442 -0.9723
  749MOL0     C98798  11.033   9.530  10.959 -0.0908 -0.5333 -0.0132
  749MOL0     C98799  11.100   9.613  10.850  0.2663 -0.0564 -0.6316
  749MOL0     C98800  11.129   9.706  10.779  0.2454 -0.0814  1.0230
  749MOL0     C98801  10.768   9.004  11.075  0.3577 -0.2883 -0.1277
  749MOL0     C98802  10.645   8.941  11.066 -1.1972 -0.1103 -0.0846
  749MOL0     H98803  10.119   9.159  11.143 -2.8995  2.3318 -0.0770
  749MOL0     H98804   9.879   9.101  11.162 -1.1702  0.6162 -0.4232
  749MOL0     H98805   9.563   9.019  10.968 -0.0863 -0.1534  0.6393
  749MOL0     H98806   9.679   9.149  11.016  2.1232 -0.1697  1.6906
  749MOL0     H98807   9.697   9.047  11.243  1.2977 -1.8316 -1.7218
  749MOL0     H98808   9.649   8.895  11.175  1.5171  0.5634  2.8448
  749MOL0     H98809   9.417   9.026  11.128  1.6904  0.3126 -0.2481
  749MOL0     H98810   9.477   9.146  11.244 -0.7537  0.4515  2.7049
  749MOL0     H98811   9.472   8.854  11.325 -0.8425  0.4496  1.0060
  749MOL0     H98812   9.542   8.983  11.405  0.5710 -0.3411 -0.0993
  749MOL0     H98813   9.308   9.082  11.454  0.7207 -0.5785  1.0419
  749MOL0     H98814   9.287   8.905  11.471 -1.8369 -1.5387 -1.0759
  749MOL0     H98815   9.220   8.890  11.246  0.2935 -0.1715 -0.7188
  749MOL0     H98816   9.223   9.066  11.227 -0.0459  2.0127  3.6250
  749MOL0     H98817   9.004   8.921  11.391 -2.0677  2.3944  0.2194
  749MOL0     H98818   9.057   9.079  11.429  0.6551  2.0630 -1.7475
  749MOL0     H98819   8.936   8.967  11.188 -0.1758 -2.3263  2.3454
  749MOL0     H98820   9.001   9.135  11.178 -3.6360  0.0756 -0.8230
  749MOL0     H98821   8.851   9.308  11.230  3.7722 -0.1945  4.2111
  749MOL0     H98822   8.680   9.471  11.417 -2.5736  2.7257  2.0830
  749MOL0     H98823   8.552   9.378  11.485 -2.3460 -1.5302 -1.9156
  749MOL0     H98824   8.446   9.334  11.271  0.3129 -0.4868 -1.7664
  749MOL0     H98825   8.577   9.404  11.186  0.3615 -1.0181  1.2024
  749MOL0     H98826   8.389   9.550  11.382  0.3812  2.5315 -0.3034
  749MOL0     H98827   8.512   9.634  11.295  0.3781 -0.3480 -1.9141
  749MOL0     H98828   8.303   9.679  11.185  1.6724  0.4544 -0.9767
  749MOL0     H98829   8.274   9.504  11.187  2.2119 -2.3336 -0.1283
  749MOL0     H98830   8.493   9.824  11.045  2.0983  4.0488 -1.9906
  749MOL0     H98831   8.414   9.971  10.871  2.4388 -0.3781 -3.1500
  749MOL0     H98832   7.980   9.983  10.719 -1.2998 -1.4855 -1.2776
  749MOL0     H98833   7.778  10.098  10.633  0.0973 -3.1486 -2.0847
  749MOL0     H98834   7.687  10.359  10.685  5.5439  1.0007 -0.6169
  749MOL0     H98835   7.624  10.263  10.549  3.2705 -1.7897  0.8373
  749MOL0     H98836   7.483  10.473  10.546 -0.3049  0.7064  1.4808
  749MOL0     H98837   7.593  10.496  10.419 -4.6491 -0.4045 -0.1609
  749MOL0     H98838   7.758  10.638  10.543  1.0058 -2.6330 -0.1879
  749MOL0     H98839   7.675  10.597  10.693  0.7581  0.0548 -0.0359
  749MOL0     H98840   7.573  10.760  10.453 -1.0008  4.5122  1.2687
  749MOL0     H98841   7.477  10.721  10.598  1.7188 -2.8153  3.5336
  749MOL0     H98842   7.711  10.818  10.711 -0.7481 -3.1725 -0.5884
  749MOL0     H98843   7.561  10.900  10.686 -0.9274 -1.4752 -1.0653
  749MOL0     H98844   7.801  10.895  10.485 -1.4496 -1.0172 -0.6853
  749MOL0     H98845   7.775  11.007  10.620  0.0122 -1.2993  2.2721
  749MOL0     H98846   7.594  10.957  10.377  0.6266 -0.3887 -0.1505
  749MOL0     H98847   7.553  11.055  10.515 -0.3707 -1.5458 -0.3957
  749MOL0     H98848   7.789  11.167  10.453  0.9960 -0.4903 -3.1982
  749MOL0     H98849   7.641  11.224  10.381 -0.0026  0.1960 -3.2867
  749MOL0     H98850   8.022  10.407  10.493 -1.5304 -2.3126 -1.4960
  749MOL0     H98851   8.227  10.305  10.594 -0.1312  0.1161 -3.0315
  749MOL0     H98852   8.221   9.655  10.662  0.2313 -1.5745  0.0528
  749MOL0     H98853   8.308   9.496  10.840 -0.7474  1.4433  1.6657
  749MOL0     H98854   9.917   8.861  10.808  1.6653 -2.3403 -0.4114
  749MOL0     H98855  10.174   8.886  10.815 -1.4955 -0.0072 -1.7553
  749MOL0     H98856  10.484   9.217  10.938 -0.7198 -1.4850 -0.8467
  749MOL0     H98857  10.680   9.304  10.943 -2.0898 -1.8458 -3.6044
  749MOL0     H98858  10.897   9.248  11.214  1.2599 -2.2659  0.5586
  749MOL0     H98859  10.869   9.369  11.095 -1.4738 -1.2346 -0.0214
  749MOL0     H98860  11.087   9.395  11.219 -1.4723 -0.1705  1.1685
  749MOL0     H98861  11.140   9.243  11.149 -0.6699 -0.3690 -0.5217
  749MOL0     H98862  11.096   9.335  10.906  2.0748  0.7966 -2.3768
  749MOL0     H98863  11.219   9.425  10.996 -1.7784  1.4081  2.8610
  749MOL0     H98864  10.942   9.499  10.906 -1.0322 -0.9761  1.7533
  749MOL0     H98865  10.995   9.578  11.050  0.9140 -0.8569  0.5851
  749MOL0     H98866  11.155   9.787  10.714  0.4564  2.0175  3.5547
  749MOL0     H98867  10.853   8.943  11.105 -0.8038 -2.2050 -0.5604
  749MOL0     H98868  10.625   8.844  11.109  2.0832 -0.6320  0.4917
  750MOL0     O98869   7.074   2.869   5.789  0.0308  0.5798  0.6541
  750MOL0     C98870   7.093   2.760   5.731 -0.9934 -0.2737  0.0469
  750MOL0     O98871   7.000   2.659   5.717 -0.1941  0.1513  0.3369
  750MOL0     C98872   6.870   2.677   5.767  0.2012  0.4345 -0.4481
  750MOL0     C98873   6.826   2.604   5.884 -0.0542  0.8253 -0.1286
  750MOL0     C98874   6.702   2.622   5.938 -0.5637  0.8777 -0.5107
  750MOL0     C98875   6.608   2.702   5.883 -0.1814 -0.6975  0.7053
  750MOL0     O98876   6.489   2.709   5.942  0.2015  0.0522 -0.6359
  750MOL0     C98877   6.385   2.795   5.889 -0.1186  0.2033  0.0215
  750MOL0     C98878   6.253   2.782   5.969  0.3882 -0.6172 -0.5554
  750MOL0     C98879   6.188   2.643   5.961  0.6396 -0.2334 -0.1379
  750MOL0     C98880   6.136   2.608   5.819  0.0088 -0.1465 -0.4259
  750MOL0     C98881   6.040   2.488   5.836 -0.3579  0.1578 -0.4295
  750MOL0     C98882   6.004   2.423   5.697  0.1877 -0.1898  0.2579
  750MOL0     C98883   5.965   2.514   5.577 -0.2441  0.2305 -0.1603
  750MOL0     C98884   5.945   2.424   5.447  0.8693 -0.2854  0.1153
  750MOL0     N98885   5.799   2.433   5.424 -0.0353 -0.7611 -0.4311
  750MOL0     C98886   5.712   2.352   5.489  0.0622 -0.0044  1.0450
  750MOL0     C98887   5.598   2.383   5.443 -0.5417 -0.3728  0.1282
  750MOL0     C98888   5.473   2.312   5.482  0.3156  0.3625  0.4257
  750MOL0     C98889   5.450   2.177   5.415  0.1112 -0.2925  0.0173
  750MOL0     C98890   5.426   2.193   5.264 -0.4103  0.0396  0.3890
  750MOL0     C98891   5.369   2.071   5.196 -0.8259 -0.7645  0.4013
  750MOL0     O98892   5.447   1.955   5.200 -1.0326 -0.4966 -0.0793
  750MOL0     C98893   5.543   1.943   5.106 -0.2034  0.5257 -0.0980
  750MOL0     C98894   5.581   2.039   5.005  0.0123 -0.4467  0.2351
  750MOL0     C98895   5.677   2.013   4.913 -0.4745  0.1573 -0.4714
  750MOL0     C98896   5.744   1.892   4.916 -1.3873  0.1158  1.1937
  750MOL0     C98897   5.829   1.851   4.803  0.0410  0.0230 -0.6490
  750MOL0     O98898   5.886   1.956   4.727  0.8193  0.1991  0.2644
  750MOL0     C98899   5.931   1.922   4.598 -0.4690  0.0013  0.2398
  750MOL0     C98900   6.065   1.964   4.563 -0.2124  0.9557 -0.3944
  750MOL0     C98901   6.117   1.940   4.439  0.1474  0.5025 -0.1527
  750MOL0     C98902   6.042   1.879   4.342  0.3508 -0.7133  0.3437
  750MOL0     O98903   6.096   1.879   4.215  0.2367 -0.1077 -0.2099
  750MOL0     C98904   6.053   1.766   4.129  0.4311  0.2362  0.4187
  750MOL0     C98905   6.164   1.741   4.031  0.2391  0.9047  0.6643
  750MOL0     C98906   6.299   1.705   4.105  0.1577 -0.3547 -0.3208
  750MOL0     C98907   6.387   1.650   3.995 -0.8732 -0.0614 -0.5328
  750MOL0     C98908   6.540   1.647   4.038  0.0022  0.4569 -0.6902
  750MOL0     C98909   6.634   1.626   3.918  0.4951 -0.0950  0.2776
  750MOL0     C98910   6.762   1.562   3.974  0.4935  0.5659 -0.9014
  750MOL0     C98911   6.866   1.582   3.861  0.9040  0.5823 -0.6311
  750MOL0    Cl98912   7.016   1.499   3.924  0.1913  0.3866  0.2797
  750MOL0     C98913   5.907   1.833   4.375 -0.0574  0.0316  0.7330
  750MOL0     C98914   5.854   1.856   4.501 -0.0208  0.3190  0.4199
  750MOL0     O98915   5.837   1.732   4.782 -0.0684  0.8524 -0.7348
  750MOL0     C98916   5.710   1.799   5.027 -0.4001  0.1344  0.8787
  750MOL0     C98917   5.610   1.824   5.117 -0.3215 -0.6969 -0.2254
  750MOL0     N98918   5.610   2.491   5.359 -0.1666  0.2714  0.1263
  750MOL0     N98919   5.732   2.530   5.360 -0.4845 -0.4040  0.3113
  750MOL0     C98920   6.645   2.773   5.764  0.8487 -0.3967 -0.6146
  750MOL0     C98921   6.773   2.758   5.704 -0.2718 -1.0394 -0.2530
  750MOL0     C98922   7.237   2.739   5.687  0.7401  0.2583  0.8897
  750MOL0     C98923   7.344   2.814   5.718 -0.6598 -0.4093  0.1629
  750MOL0     C98924   7.484   2.783   5.681  0.0689  0.0561 -0.3781
  750MOL0     C98925   7.505   2.661   5.620  0.2239  0.6861  0.5374
  750MOL0     O98926   7.629   2.624   5.588  0.1010  0.3703 -0.1468
  750MOL0     C98927   7.654   2.495   5.533  0.5813  0.6982 -0.1075
  750MOL0     C98928   7.805   2.476   5.503  0.1225  0.4224  0.0087
  750MOL0     C98929   7.838   2.453   5.356 -0.5029  0.1986 -0.4728
  750MOL0     C98930   7.795   2.572   5.269 -0.0749 -0.1948 -0.0922
  750MOL0     C98931   7.801   2.516   5.135 -0.0867  0.7909 -0.5504
  750MOL0     C98932   7.813   2.468   5.024 -0.1944  0.7454 -0.0176
  750MOL0     C98933   7.397   2.575   5.594  0.4767 -0.0912  0.6569
  750MOL0     C98934   7.264   2.613   5.627 -0.0964  0.1081  0.1021
  750MOL0     H98935   6.892   2.527   5.922  1.1431  1.4339 -0.9230
  750MOL0     H98936   6.675   2.569   6.029  2.9092 -1.5935 -0.7652
  750MOL0     H98937   6.363   2.767   5.785  0.6703 -3.1451  0.6523
  750MOL0     H98938   6.401   2.903   5.898 -2.4154  0.6039  0.0018
  750MOL0     H98939   6.189   2.866   5.938 -0.2355 -0.8732  0.0020
  750MOL0     H98940   6.270   2.788   6.076  1.8946  0.6894 -0.8399
  750MOL0     H98941   6.103   2.634   6.028 -0.5471 -1.1151 -1.6806
  750MOL0     H98942   6.267   2.575   5.992  1.4694  1.5947  1.9933
  750MOL0     H98943   6.087   2.690   5.765  1.9382 -1.1489 -3.9369
  750MOL0     H98944   6.220   2.587   5.752 -0.3739 -2.0160 -0.3809
  750MOL0     H98945   5.947   2.493   5.892  1.5886 -2.6437  3.5495
  750MOL0     H98946   6.095   2.413   5.894 -1.4028 -1.4667 -1.4494
  750MOL0     H98947   5.915   2.359   5.705  0.1426  0.0276  1.8287
  750MOL0     H98948   6.097   2.375   5.664  0.1586  2.2020 -3.9896
  750MOL0     H98949   5.879   2.575   5.602  0.8313  1.6197  0.2485
  750MOL0     H98950   6.042   2.586   5.550 -2.4792  2.1392 -1.8106
  750MOL0     H98951   5.970   2.320   5.468  1.4261 -0.9448 -3.2465
  750MOL0     H98952   6.004   2.458   5.362  1.5615 -0.9240  0.3317
  750MOL0     H98953   5.727   2.261   5.546  0.0801 -0.4028  0.4094
  750MOL0     H98954   5.397   2.390   5.480 -1.1324 -0.8886  2.7968
  750MOL0     H98955   5.482   2.295   5.589 -2.2792 -1.0246  0.5012
  750MOL0     H98956   5.357   2.135   5.454 -0.1927 -0.1163 -0.5096
  750MOL0     H98957   5.530   2.106   5.439 -0.1046  0.0457  1.8409
  750MOL0     H98958   5.347   2.264   5.240 -1.6348 -0.9254  1.4217
  750MOL0     H98959   5.520   2.230   5.223  0.5236 -0.8691  1.6256
  750MOL0     H98960   5.327   2.094   5.097 -0.7541  3.1969  1.1442
  750MOL0     H98961   5.277   2.038   5.244 -1.1020 -1.3289 -0.4812
  750MOL0     H98962   5.538   2.138   5.004  2.2020  0.5999 -2.1600
  750MOL0     H98963   5.716   2.087   4.844 -0.2907 -0.5236 -1.1115
  750MOL0     H98964   6.116   2.016   4.643 -3.3511  4.0013 -0.1413
  750MOL0     H98965   6.218   1.973   4.418  0.6595 -2.2478 -2.6269
  750MOL0     H98966   5.967   1.808   4.077  0.1724  2.1309  2.2373
  750MOL0     H98967   6.022   1.682   4.191 -0.9267  1.0135  0.8266
  750MOL0     H98968   6.182   1.839   3.985 -1.9839  3.3265  4.4132
  750MOL0     H98969   6.124   1.663   3.966  0.6837 -1.7175  3.3396
  750MOL0     H98970   6.271   1.621   4.169 -3.4289  0.7248 -0.2627
  750MOL0     H98971   6.347   1.788   4.158  2.1412 -0.9954 -1.0182
  750MOL0     H98972   6.359   1.561   3.938  0.1499  0.1309 -1.3608
  750MOL0     H98973   6.376   1.730   3.921  2.9772 -1.7496 -3.2266
  750MOL0     H98974   6.556   1.563   4.107  2.8737  3.4495  2.6942
  750MOL0     H98975   6.570   1.739   4.089 -0.3901  0.0162  0.3642
  750MOL0     H98976   6.660   1.720   3.870 -1.5648 -0.1223 -1.0172
  750MOL0     H98977   6.584   1.558   3.848 -2.0759  3.8283 -2.0415
  750MOL0     H98978   6.780   1.614   4.069 -2.7764  1.3478 -0.6088
  750MOL0     H98979   6.756   1.457   4.005  0.2557  1.0314  0.7066
  750MOL0     H98980   6.877   1.691   3.854 -1.6638  1.0364  1.0509
  750MOL0     H98981   6.837   1.542   3.763  1.3945 -0.6574 -0.2934
  750MOL0     H98982   5.857   1.779   4.296  1.0331  2.1910 -1.5828
  750MOL0     H98983   5.755   1.827   4.537 -1.2728  0.2166 -2.7532
  750MOL0     H98984   5.764   1.705   5.020  0.6534  0.7301  0.8081
  750MOL0     H98985   5.596   1.767   5.209 -1.8978 -2.3434 -1.4210
  750MOL0     H98986   6.576   2.831   5.705  0.8529 -1.2878 -1.5205
  750MOL0     H98987   6.790   2.817   5.614  0.7169 -0.8566  0.0460
  750MOL0     H98988   7.329   2.896   5.787 -1.0273 -0.1458 -0.2282
  750MOL0     H98989   7.571   2.845   5.697 -1.2612  1.6720  1.0812
  750MOL0     H98990   7.598   2.473   5.442 -5.2711 -0.8505  3.3087
  750MOL0     H98991   7.628   2.429   5.617 -0.2671  2.7289  1.3186
  750MOL0     H98992   7.859   2.568   5.528  0.3943 -0.1623  1.7467
  750MOL0     H98993   7.834   2.393   5.567 -3.2979 -2.2622 -1.5906
  750MOL0     H98994   7.795   2.357   5.328 -1.1488 -0.0546  1.2676
  750MOL0     H98995   7.945   2.432   5.349 -0.1655  2.1011 -1.8029
  750MOL0     H98996   7.695   2.616   5.278 -0.8389 -1.8609 -0.0715
  750MOL0     H98997   7.866   2.654   5.283 -1.0507  0.6617 -0.0764
  750MOL0     H98998   7.830   2.412   4.934  0.1887 -3.3553  2.3403
  750MOL0     H98999   7.405   2.478   5.545  1.8333  0.1673  0.3270
  750MOL0     H99000   7.200   2.526   5.612  0.9757 -0.6114 -0.4576
  751MOL0     O99001   9.949   1.274   8.931 -0.6201 -1.2122 -0.9907
  751MOL0     C99002  10.020   1.325   9.027  0.1847 -0.3719 -0.5752
  751MOL0     O99003   9.979   1.423   9.102  0.2215 -0.1376  0.7150
  751MOL0     C99004   9.860   1.475   9.067 -0.1324 -0.1140 -1.0767
  751MOL0     C99005   9.838   1.565   8.962  0.4759 -0.3524 -0.3042
  751MOL0     C99006   9.709   1.609   8.917  0.8327 -0.6976  0.1563
  751MOL0     C99007   9.593   1.555   8.977 -0.1310  0.5610 -0.0293
  751MOL0     O99008   9.460   1.575   8.946  0.3799 -0.5161  0.0210
  751MOL0     C99009   9.445   1.659   8.826 -0.4621  0.6622  0.4126
  751MOL0     C99010   9.302   1.681   8.779 -0.4154 -0.3280 -0.4401
  751MOL0     C99011   9.217   1.762   8.883 -0.5024  0.2793  0.6091
  751MOL0     C99012   9.144   1.670   8.968  0.1532 -0.0238  0.2935
  751MOL0     C99013   9.043   1.729   9.064 -0.1221  0.8415  0.1057
  751MOL0     C99014   8.978   1.618   9.157  0.7113 -1.0696 -0.1379
  751MOL0     C99015   8.848   1.662   9.217  0.4361 -0.5787  0.7181
  751MOL0     C99016   8.794   1.570   9.321 -0.9048 -0.0193  0.3920
  751MOL0     N99017   8.659   1.595   9.352 -0.0953 -0.4442 -0.1492
  751MOL0     C99018   8.547   1.525   9.317  0.1394  0.5182  0.5036
  751MOL0     C99019   8.450   1.583   9.390 -0.1579 -0.5197  1.3086
  751MOL0     C99020   8.303   1.533   9.390 -0.0926 -0.6529 -0.3800
  751MOL0     C99021   8.194   1.636   9.395 -0.5100  1.1354  0.3392
  751MOL0     C99022   8.177   1.696   9.533  0.7104  0.5657 -0.6759
  751MOL0     C99023   8.040   1.764   9.546 -0.9307 -0.7445  0.5005
  751MOL0     O99024   8.027   1.867   9.447  0.5907  0.1628 -0.3743
  751MOL0     C99025   7.911   1.942   9.442 -0.1905  0.4525  0.2461
  751MOL0     C99026   7.796   1.910   9.508  0.0590 -0.3850 -0.0862
  751MOL0     C99027   7.675   1.979   9.486 -0.0440 -1.0065 -0.2632
  751MOL0     C99028   7.685   2.104   9.408 -0.6713 -0.2189 -0.0700
  751MOL0     C99029   7.568   2.194   9.382  0.6162 -0.2429  0.4815
  751MOL0     O99030   7.574   2.302   9.288  0.3822 -0.2630 -0.6267
  751MOL0     C99031   7.463   2.379   9.270  0.7431  0.7346  0.3020
  751MOL0     C99032   7.402   2.439   9.379 -0.4591  0.1337  0.6331
  751MOL0     C99033   7.287   2.519   9.362 -0.6898  0.3292 -0.1179
  751MOL0     C99034   7.231   2.536   9.243  0.4170 -0.1278 -0.2977
  751MOL0     O99035   7.107   2.590   9.219  0.0411 -0.1963 -0.2469
  751MOL0     C99036   7.084   2.712   9.289 -0.6999 -0.2393 -0.5178
  751MOL0     C99037   6.962   2.768   9.236  0.1077 -1.2631  0.3540
  751MOL0     C99038   6.829   2.708   9.283  0.5181  0.1934  0.3190
  751MOL0     C99039   6.719   2.775   9.193 -0.6001  0.6345  0.0417
  751MOL0     C99040   6.586   2.702   9.204 -0.1343  0.1458 -0.3899
  751MOL0     C99041   6.552   2.575   9.118  0.1833 -0.2696 -0.6939
  751MOL0     C99042   6.437   2.504   9.176  0.4175 -0.0625  0.5001
  751MOL0     C99043   6.402   2.358   9.156  0.9296 -0.1041  0.2635
  751MOL0    Cl99044   6.546   2.254   9.203  0.3245 -0.1259  0.4729
  751MOL0     C99045   7.298   2.485   9.134 -0.8359 -0.4659 -0.1821
  751MOL0     C99046   7.410   2.408   9.146  0.9413 -0.1283  0.7021
  751MOL0     O99047   7.456   2.155   9.427 -0.6722 -0.2718 -0.3290
  751MOL0     C99048   7.805   2.137   9.347 -0.4837  0.9378  0.5277
  751MOL0     C99049   7.920   2.060   9.369  0.2541  0.3680 -0.5461
  751MOL0     N99050   8.500   1.684   9.460 -0.1504 -0.0905 -0.0661
  751MOL0     N99051   8.625   1.701   9.433 -0.1058 -0.5351 -0.1936
  751MOL0     C99052   9.612   1.465   9.075  1.1630 -0.0663  0.4593
  751MOL0     C99053   9.743   1.424   9.127 -0.9188 -0.4776  0.7768
  751MOL0     C99054  10.149   1.260   9.057 -0.4183 -1.5187 -0.7021
  751MOL0     C99055  10.171   1.130   9.016  0.5279 -1.4436 -0.3890
  751MOL0     C99056  10.300   1.070   9.036  0.6688 -0.1331 -1.0234
  751MOL0     C99057  10.401   1.141   9.095 -0.7971 -0.2040 -0.7831
  751MOL0     O99058  10.522   1.091   9.132 -0.1808  0.5132  0.2914
  751MOL0     C99059  10.577   0.969   9.071  0.5993  0.2009  0.1488
  751MOL0     C99060  10.634   1.009   8.931  0.0653 -0.0144  0.0657
  751MOL0     C99061  10.753   1.097   8.912  0.7500  0.0264 -0.2038
  751MOL0     C99062  10.765   1.226   8.996  0.4549  0.1541  0.2336
  751MOL0     C99063  10.867   1.318   8.937  0.0125 -0.2146  0.9212
  751MOL0     C99064  10.952   1.398   8.905  0.5361 -0.3472 -0.3156
  751MOL0     C99065  10.376   1.276   9.139  0.0660  1.3808  0.3303
  751MOL0     C99066  10.246   1.331   9.129  0.0065 -0.1873  0.2670
  751MOL0     H99067   9.925   1.604   8.909  0.5401 -1.4218 -1.0099
  751MOL0     H99068   9.706   1.685   8.840 -1.0682 -3.4352 -2.7019
  751MOL0     H99069   9.500   1.612   8.744 -4.9175 -1.9679 -1.3806
  751MOL0     H99070   9.489   1.759   8.826  0.8277  0.1654 -1.8454
  751MOL0     H99071   9.267   1.579   8.763  0.3476 -0.8399  0.9422
  751MOL0     H99072   9.319   1.736   8.686  3.6193  1.8100  1.2839
  751MOL0     H99073   9.136   1.806   8.824  2.0356  3.1793 -1.0063
  751MOL0     H99074   9.273   1.845   8.928  0.4426 -0.3990  0.7307
  751MOL0     H99075   9.098   1.595   8.903  1.8521  1.3436 -2.6877
  751MOL0     H99076   9.222   1.616   9.023 -0.7241 -1.6393  0.0250
  751MOL0     H99077   8.965   1.781   9.009  0.0765 -0.2646 -1.2571
  751MOL0     H99078   9.101   1.803   9.121  3.0257 -1.5868  0.3293
  751MOL0     H99079   9.032   1.588   9.247 -0.0708 -1.2235  0.2950
  751MOL0     H99080   8.955   1.527   9.102  0.0109 -0.9976  0.0275
  751MOL0     H99081   8.863   1.757   9.269 -0.0742 -0.9151  1.4993
  751MOL0     H99082   8.772   1.663   9.139 -1.4981 -2.2049  2.4931
  751MOL0     H99083   8.856   1.581   9.410 -0.5336  2.3247 -0.0854
  751MOL0     H99084   8.809   1.468   9.284 -1.7833 -0.0711  0.1577
  751MOL0     H99085   8.533   1.434   9.259  0.0688  1.6619 -1.3526
  751MOL0     H99086   8.284   1.463   9.472  1.5572 -0.5969  0.0865
  751MOL0     H99087   8.287   1.481   9.295  0.2830  0.2002 -0.9284
  751MOL0     H99088   8.096   1.595   9.368 -1.4418  3.0854  0.5678
  751MOL0     H99089   8.222   1.701   9.311  0.2914  2.1736  1.3800
  751MOL0     H99090   8.174   1.613   9.604 -0.2185  1.3636  0.2458
  751MOL0     H99091   8.250   1.774   9.554 -0.2396  0.5435  3.7746
  751MOL0     H99092   8.016   1.781   9.651  1.9420 -0.4697  1.2021
  751MOL0     H99093   7.966   1.687   9.523 -0.9442 -0.5414 -0.1673
  751MOL0     H99094   7.791   1.825   9.574  2.4513 -0.2825  0.3195
  751MOL0     H99095   7.576   1.965   9.528  0.2568  2.1013  1.7999
  751MOL0     H99096   7.455   2.428   9.474  0.7031  1.0924  0.1177
  751MOL0     H99097   7.232   2.561   9.446  2.4750  2.5268  1.0235
  751MOL0     H99098   7.161   2.789   9.274 -1.2140  0.0504 -1.8379
  751MOL0     H99099   7.075   2.704   9.398 -0.5930  1.2263 -0.3774
  751MOL0     H99100   6.963   2.778   9.127 -2.4919  1.9436  0.4711
  751MOL0     H99101   6.948   2.871   9.270  1.7837  0.1917 -2.8971
  751MOL0     H99102   6.817   2.705   9.392 -0.5857 -2.4483  0.2017
  751MOL0     H99103   6.833   2.602   9.259  0.0478  0.6657 -2.0686
  751MOL0     H99104   6.716   2.879   9.225  2.8132  0.6350  0.7303
  751MOL0     H99105   6.746   2.783   9.087 -0.1645 -2.5837 -0.2057
  751MOL0     H99106   6.509   2.771   9.167  0.0555  0.8404  0.4686
  751MOL0     H99107   6.579   2.687   9.312  3.4408 -0.3890 -0.1133
  751MOL0     H99108   6.632   2.501   9.117 -0.3079 -0.8446  0.7373
  751MOL0     H99109   6.526   2.603   9.015  1.2300 -0.4257 -1.0149
  751MOL0     H99110   6.441   2.530   9.282  1.7190 -2.9328  1.2610
  751MOL0     H99111   6.353   2.552   9.126 -0.8434 -1.8751  0.7685
  751MOL0     H99112   6.400   2.350   9.047 -2.7328 -0.5194  0.2549
  751MOL0     H99113   6.311   2.331   9.210  0.8961  0.8271  0.6979
  751MOL0     H99114   7.245   2.488   9.039 -2.9883  1.4324  0.9870
  751MOL0     H99115   7.449   2.363   9.056 -3.5435  1.4553 -2.3944
  751MOL0     H99116   7.812   2.210   9.267  0.4773 -1.5611 -1.8375
  751MOL0     H99117   8.008   2.089   9.313  0.3036  2.2200  0.3818
  751MOL0     H99118   9.524   1.414   9.114  0.9184 -0.2561 -0.3013
  751MOL0     H99119   9.745   1.353   9.208 -2.9026 -3.0371 -1.2516
  751MOL0     H99120  10.101   1.071   8.958  2.5433 -0.9988 -3.4815
  751MOL0     H99121  10.315   0.964   9.016  0.0205 -0.2306 -1.0296
  751MOL0     H99122  10.502   0.892   9.056  1.5714 -0.5031 -1.2703
  751MOL0     H99123  10.646   0.920   9.140 -0.8649 -1.9709  0.1823
  751MOL0     H99124  10.665   0.921   8.873  3.4671  1.7917 -1.1566
  751MOL0     H99125  10.550   1.064   8.888  0.1143  1.2065  1.4810
  751MOL0     H99126  10.745   1.132   8.809  2.3777 -1.3548 -0.8473
  751MOL0     H99127  10.843   1.036   8.901  0.1863 -1.3127  2.0984
  751MOL0     H99128  10.664   1.261   8.973 -0.8434 -2.6889  1.1903
  751MOL0     H99129  10.778   1.213   9.103  0.4863 -4.2393 -0.1347
  751MOL0     H99130  11.034   1.448   8.856 -1.9732  1.9741 -2.5059
  751MOL0     H99131  10.456   1.331   9.188  2.5840 -2.6478  1.2128
  751MOL0     H99132  10.234   1.438   9.144 -2.6366  0.0322 -2.3544
  752MOL0     O99133   2.338   4.517   8.567 -0.9401  0.8223 -0.3536
  752MOL0     C99134   2.404   4.545   8.463  0.4233 -0.3472 -0.9929
  752MOL0     O99135   2.360   4.624   8.361 -0.4095  1.1957 -0.2276
  752MOL0     C99136   2.226   4.651   8.346 -0.2085  0.3639 -1.2894
  752MOL0     C99137   2.178   4.781   8.335 -0.1555 -0.0931 -0.2494
  752MOL0     C99138   2.043   4.813   8.319 -0.2777 -0.3300  0.4522
  752MOL0     C99139   1.952   4.706   8.302 -0.6424  0.3948  0.6660
  752MOL0     O99140   1.818   4.722   8.284  0.0314 -0.0448  0.1992
  752MOL0     C99141   1.763   4.846   8.263 -0.3009 -0.7205  0.0538
  752MOL0     C99142   1.644   4.811   8.168 -0.4147 -0.6426  0.7963
  752MOL0     C99143   1.529   4.735   8.246  0.2265 -1.0748  0.3140
  752MOL0     C99144   1.406   4.716   8.162  0.3987  0.9318  0.4684
  752MOL0     C99145   1.315   4.610   8.222  0.5040 -0.3092  0.4741
  752MOL0     C99146   1.172   4.618   8.157  0.2995  0.7622 -0.5839
  752MOL0     C99147   1.080   4.498   8.184  0.4628  0.1873  0.4660
  752MOL0     C99148   1.086   4.426   8.314  0.7031 -0.2339 -0.4694
  752MOL0     N99149   1.013   4.507   8.412  0.5471 -0.5889  0.2040
  752MOL0     C99150   0.880   4.493   8.441 -0.5612  0.3567 -0.1461
  752MOL0     C99151   0.847   4.598   8.522  0.1518  0.3237 -0.1328
  752MOL0     C99152   0.707   4.642   8.567 -0.5184 -0.1681 -0.7344
  752MOL0     C99153   0.666   4.571   8.697  0.0370 -1.0097  0.2357
  752MOL0     C99154   0.533   4.605   8.750  0.3267 -0.4366  0.4243
  752MOL0     C99155   0.499   4.527   8.882  0.7426 -0.2302  0.4653
  752MOL0     O99156   0.371   4.579   8.940 -0.3159 -0.3071  0.2702
  752MOL0     C99157   0.332   4.535   9.066  0.3419 -0.9477 -0.3691
  752MOL0     C99158   0.238   4.616   9.137  0.3820  0.7246  0.1239
  752MOL0     C99159   0.181   4.559   9.254  1.2829 -0.8455 -0.5509
  752MOL0     C99160   0.230   4.441   9.311 -0.3111  1.1860 -0.1809
  752MOL0     C99161   0.187   4.388   9.448  0.1909 -0.3823 -0.1746
  752MOL0     O99162   0.059   4.423   9.491 -0.3737 -0.1424  0.8165
  752MOL0     C99163   0.013   4.370   9.609  0.8512 -0.5969 -0.4510
  752MOL0     C99164  -0.032   4.237   9.612  0.8797  0.0153  0.1418
  752MOL0     C99165  -0.089   4.187   9.732  0.1045  0.2434 -0.3444
  752MOL0     C99166  -0.092   4.268   9.849 -0.4882  0.4823  0.1436
  752MOL0     O99167  -0.146   4.227   9.966 -0.2713 -0.2927  0.6879
  752MOL0     C99168  -0.116   4.091  10.012  0.9647  0.0973 -0.8508
  752MOL0     C99169  -0.243   4.004  10.041  0.3523  0.3128  0.1034
  752MOL0     C99170  -0.364   4.083  10.093  0.0344  0.6557  0.3918
  752MOL0     C99171  -0.488   3.992  10.125 -0.3028  0.1200 -0.2182
  752MOL0     C99172  -0.624   4.061  10.143 -0.5364 -0.2645 -0.4660
  752MOL0     C99173  -0.739   3.962  10.150 -0.0128 -0.2220  0.3872
  752MOL0     C99174  -0.880   4.029  10.156 -0.6584  0.1800  0.8484
  752MOL0     C99175  -0.925   4.062  10.018  0.5522 -0.0738  0.8116
  752MOL0    Cl99176  -0.846   4.185   9.907 -0.1438  0.4084  0.1930
  752MOL0     C99177  -0.044   4.398   9.844  0.8332  1.0048 -0.5421
  752MOL0     C99178   0.011   4.453   9.725  1.0702  0.2599 -0.8957
  752MOL0     O99179   0.256   4.296   9.501  0.4759 -0.4665  0.1055
  752MOL0     C99180   0.328   4.370   9.248  0.0409  0.0180 -0.3449
  752MOL0     C99181   0.380   4.413   9.124 -0.5193  0.4618 -0.6697
  752MOL0     N99182   0.958   4.678   8.539  0.1612 -1.5522 -0.5971
  752MOL0     N99183   1.049   4.630   8.464  0.6841  0.3507 -1.1174
  752MOL0     C99184   1.995   4.576   8.322  0.7664  0.3709  0.8267
  752MOL0     C99185   2.126   4.548   8.334 -0.2774 -0.0593 -1.1345
  752MOL0     C99186   2.538   4.488   8.448 -0.1801  0.4517  0.0564
  752MOL0     C99187   2.595   4.475   8.322  0.0963 -0.4274  0.9135
  752MOL0     C99188   2.714   4.401   8.311 -0.1410 -0.1683  0.1575
  752MOL0     C99189   2.796   4.356   8.423 -0.1097  0.5596  1.0428
  752MOL0     O99190   2.907   4.287   8.435  0.3780  0.7171  0.5969
  752MOL0     C99191   2.966   4.245   8.311 -0.7047 -0.2843 -0.5068
  752MOL0     C99192   3.055   4.361   8.259 -0.5190 -0.7038  0.2942
  752MOL0     C99193   3.146   4.429   8.372 -0.1902 -0.7100  0.0454
  752MOL0     C99194   3.244   4.535   8.322 -0.3233 -1.0203 -0.4663
  752MOL0     C99195   3.299   4.607   8.439  1.2140  0.9788 -0.3328
  752MOL0     C99196   3.317   4.665   8.537 -0.9918  0.0328  0.1883
  752MOL0     C99197   2.725   4.377   8.550 -0.2299  0.2322  0.6403
  752MOL0     C99198   2.595   4.427   8.556  0.1022  0.0479 -0.2030
  752MOL0     H99199   2.256   4.856   8.351  3.2504 -3.6695  1.5496
  752MOL0     H99200   2.010   4.915   8.302 -1.2371 -0.2726  2.3079
  752MOL0     H99201   1.830   4.916   8.211 -1.0718 -0.3851 -0.5080
  752MOL0     H99202   1.730   4.882   8.360 -0.6666  0.1405 -0.3812
  752MOL0     H99203   1.687   4.761   8.080 -1.6608  0.0127 -0.2292
  752MOL0     H99204   1.598   4.908   8.146  1.1751  0.7423  3.0990
  752MOL0     H99205   1.490   4.810   8.315  1.8156 -0.0979  0.1986
  752MOL0     H99206   1.557   4.647   8.305 -0.3197 -1.0443  0.6221
  752MOL0     H99207   1.351   4.811   8.159  0.2361  0.8204 -0.2021
  752MOL0     H99208   1.428   4.691   8.058 -1.3315  2.0838 -0.2206
  752MOL0     H99209   1.329   4.620   8.330  0.9521 -0.3817  0.4248
  752MOL0     H99210   1.358   4.514   8.191  0.2457  0.5680 -3.1165
  752MOL0     H99211   1.178   4.630   8.048  0.4443 -4.0198 -1.3156
  752MOL0     H99212   1.126   4.707   8.202  1.2454 -0.2281  2.5971
  752MOL0     H99213   0.975   4.527   8.175 -0.2556 -2.5393 -1.0303
  752MOL0     H99214   1.102   4.426   8.104 -2.3268 -0.0701 -0.1742
  752MOL0     H99215   1.190   4.410   8.345  1.4529  1.3913 -1.9993
  752MOL0     H99216   1.042   4.326   8.326 -0.8347  0.7683  5.0079
  752MOL0     H99217   0.806   4.427   8.398 -1.0659  1.2523 -0.6795
  752MOL0     H99218   0.647   4.617   8.479  0.4682  0.3911 -1.5855
  752MOL0     H99219   0.701   4.751   8.568 -0.7730 -0.1795 -0.8614
  752MOL0     H99220   0.743   4.592   8.772 -0.6559  0.8249  0.4914
  752MOL0     H99221   0.673   4.465   8.672  1.6576 -0.7316 -0.6180
  752MOL0     H99222   0.523   4.710   8.777  0.5853  0.2530 -1.9634
  752MOL0     H99223   0.457   4.583   8.674 -0.8918  4.3112 -0.0615
  752MOL0     H99224   0.580   4.551   8.952  1.2095  3.5764 -1.1155
  752MOL0     H99225   0.480   4.420   8.867  1.0352 -1.0441  4.6649
  752MOL0     H99226   0.182   4.705   9.112 -0.0021  1.4641  3.2227
  752MOL0     H99227   0.101   4.619   9.296  0.2699 -2.3629 -0.2105
  752MOL0     H99228  -0.021   4.177   9.523  0.5418  1.1772 -0.6958
  752MOL0     H99229  -0.130   4.086   9.739 -1.3173  0.8835  1.0795
  752MOL0     H99230  -0.047   4.106  10.096  0.6057  0.6156 -0.6478
  752MOL0     H99231  -0.049   4.050   9.936  0.8160  2.8748 -2.6156
  752MOL0     H99232  -0.218   3.930  10.118  0.9845  1.2333  0.8018
  752MOL0     H99233  -0.271   3.963   9.943  1.1475 -0.9941  0.3984
  752MOL0     H99234  -0.403   4.139  10.007  1.2436  2.8732  1.2027
  752MOL0     H99235  -0.333   4.151  10.172  3.7257 -0.5260  0.1121
  752MOL0     H99236  -0.500   3.924  10.041 -0.1491  3.3699 -3.0869
  752MOL0     H99237  -0.467   3.938  10.218 -1.0939 -0.7700 -0.5429
  752MOL0     H99238  -0.646   4.133  10.064 -0.3805 -0.1131 -0.3723
  752MOL0     H99239  -0.620   4.108  10.241 -1.2317  0.6751 -0.8705
  752MOL0     H99240  -0.739   3.909  10.246 -2.7319  0.1341  0.6371
  752MOL0     H99241  -0.733   3.901  10.059  0.2079  4.8248 -3.4112
  752MOL0     H99242  -0.950   3.949  10.186 -0.5559 -1.2242 -2.3003
  752MOL0     H99243  -0.889   4.119  10.217 -0.1755  0.1505  0.9673
  752MOL0     H99244  -1.031   4.079  10.038  0.6974  0.7053  0.9210
  752MOL0     H99245  -0.933   3.969   9.960 -3.1233  0.6739 -0.1578
  752MOL0     H99246  -0.049   4.471   9.924 -2.6209  1.0320 -0.6516
  752MOL0     H99247   0.040   4.557   9.722 -0.0037  0.5517 -3.4963
  752MOL0     H99248   0.361   4.267   9.260  2.1500  0.5195 -1.3235
  752MOL0     H99249   0.450   4.353   9.067 -0.5154 -0.9980  0.8002
  752MOL0     H99250   1.923   4.498   8.303 -1.1237  2.1533  0.3563
  752MOL0     H99251   2.135   4.440   8.341 -3.5658 -0.3733 -0.3013
  752MOL0     H99252   2.535   4.515   8.241  1.4143  5.2087  2.2624
  752MOL0     H99253   2.748   4.388   8.209 -0.7163  2.4607 -0.4161
  752MOL0     H99254   2.904   4.212   8.228  0.5918 -4.3214 -0.0640
  752MOL0     H99255   3.040   4.165   8.317  0.9197  1.2598  1.5575
  752MOL0     H99256   3.118   4.316   8.181 -0.1016  0.3530  0.0001
  752MOL0     H99257   2.999   4.436   8.203  0.2179  1.5727  2.4257
  752MOL0     H99258   3.199   4.349   8.424 -1.8333 -2.0261 -0.2219
  752MOL0     H99259   3.087   4.487   8.443 -0.0866 -1.7369  0.9994
  752MOL0     H99260   3.326   4.485   8.271  1.8485  1.7750  0.0284
  752MOL0     H99261   3.194   4.614   8.264 -0.0781 -1.5268 -1.3915
  752MOL0     H99262   3.355   4.730   8.613  0.1859 -0.8786  0.3996
  752MOL0     H99263   2.774   4.342   8.640 -0.8586 -2.8232 -0.0786
  752MOL0     H99264   2.558   4.432   8.657  1.4971 -2.9892  0.5965
  753MOL0     O99265   8.598   8.050  10.101 -0.2401 -0.5181  0.5845
  753MOL0     C99266   8.643   8.152  10.040  0.2627 -0.1036 -0.7697
  753MOL0     O99267   8.774   8.183  10.016 -1.1463 -0.0029  1.0352
  753MOL0     C99268   8.877   8.090  10.015  0.2364 -0.3534  1.1809
  753MOL0     C99269   8.998   8.125  10.077  0.5140 -0.2386 -0.2905
  753MOL0     C99270   9.108   8.046  10.077 -0.6383 -0.0967 -0.1717
  753MOL0     C99271   9.099   7.912  10.032 -0.8765  0.4190 -0.3636
  753MOL0     O99272   9.201   7.812  10.035  0.5131  0.5807  0.4485
  753MOL0     C99273   9.325   7.840  10.097 -0.1456 -0.4539 -0.2025
  753MOL0     C99274   9.427   7.726  10.093 -0.3628  0.0875 -0.3201
  753MOL0     C99275   9.542   7.745  10.191  0.2351  0.0548 -1.1512
  753MOL0     C99276   9.657   7.845  10.160 -0.7858 -0.0676 -0.0143
  753MOL0     C99277   9.681   7.953  10.261  1.5278  0.1659  0.8270
  753MOL0     C99278   9.564   8.060  10.262 -0.9667 -0.4097  0.4482
  753MOL0     C99279   9.607   8.190  10.330  0.6498 -0.2879  0.0719
  753MOL0     C99280   9.493   8.271  10.403  0.6229  0.6471  0.1215
  753MOL0     N99281   9.411   8.349  10.305  0.3795  0.4655 -0.1042
  753MOL0     C99282   9.459   8.462  10.241 -0.8688 -0.3832 -0.0366
  753MOL0     C99283   9.356   8.506  10.174 -0.6247 -0.2347  0.5337
  753MOL0     C99284   9.344   8.629  10.093  0.6366  0.2455  0.6781
  753MOL0     C99285   9.223   8.715  10.122  1.0732 -0.2406  0.3604
  753MOL0     C99286   9.125   8.730  10.001  0.2858 -0.1396 -0.1462
  753MOL0     C99287   9.018   8.621   9.992  0.0750  0.2534 -0.6012
  753MOL0     O99288   8.918   8.647   9.893 -0.7661  0.0863  0.3427
  753MOL0     C99289   8.808   8.735   9.918  0.7259  0.2130  0.4592
  753MOL0     C99290   8.799   8.812  10.032 -0.1887 -0.1360 -1.2208
  753MOL0     C99291   8.693   8.904  10.048 -0.5400 -1.1416  0.3526
  753MOL0     C99292   8.583   8.905   9.963  0.2837  0.6672  0.0278
  753MOL0     C99293   8.471   8.996   9.966 -0.0603 -0.0862  0.0966
  753MOL0     O99294   8.382   9.010   9.865  0.3140 -0.0414  0.7359
  753MOL0     C99295   8.302   9.122   9.866 -0.2302 -0.3038  0.0294
  753MOL0     C99296   8.187   9.119   9.943  0.6425 -0.3891  0.4643
  753MOL0     C99297   8.110   9.230   9.973 -0.4245 -0.0761  0.9627
  753MOL0     C99298   8.140   9.353   9.909 -0.6871 -1.2669 -0.0685
  753MOL0     O99299   8.068   9.471   9.916  0.0971  0.5541  0.0635
  753MOL0     C99300   7.947   9.470   9.990 -0.4379 -0.0337 -0.2872
  753MOL0     C99301   7.859   9.585   9.945  0.6743 -0.8196 -0.2813
  753MOL0     C99302   7.748   9.603  10.047 -0.1808  0.5726 -0.4644
  753MOL0     C99303   7.672   9.732  10.015  0.4620  0.9526 -0.5596
  753MOL0     C99304   7.546   9.742  10.114 -0.4407 -0.4034 -0.2661
  753MOL0     C99305   7.443   9.622  10.091  0.0011 -0.4677  0.2223
  753MOL0     C99306   7.299   9.642  10.148 -0.5659  0.9845  0.3910
  753MOL0     C99307   7.221   9.724  10.055 -0.5624 -0.8116  0.3959
  753MOL0    Cl99308   7.070   9.795  10.143 -0.2354  0.3172 -0.3477
  753MOL0     C99309   8.262   9.359   9.835 -0.1781 -0.6551  0.3348
  753MOL0     C99310   8.342   9.247   9.803 -0.0350 -0.3511 -0.0840
  753MOL0     O99311   8.472   9.066  10.069 -0.3818 -0.5142 -0.2304
  753MOL0     C99312   8.584   8.814   9.853  0.1458 -0.2969  0.0075
  753MOL0     C99313   8.703   8.731   9.830 -0.2357  0.3512 -0.3043
  753MOL0     N99314   9.253   8.422  10.180  0.0385  0.1892  0.4739
  753MOL0     N99315   9.286   8.316  10.255 -0.5870 -0.5137 -0.3099
  753MOL0     C99316   8.977   7.875   9.962  0.5002 -0.2198  0.3029
  753MOL0     C99317   8.869   7.956   9.959  0.9494  0.0490  0.1104
  753MOL0     C99318   8.538   8.245   9.986  0.8221  0.6157  0.0665
  753MOL0     C99319   8.397   8.228  10.012  0.0831 -0.4690  0.3656
  753MOL0     C99320   8.303   8.319   9.971 -0.5316 -0.6195  0.5967
  753MOL0     C99321   8.341   8.420   9.881  0.3747  0.6222  0.0373
  753MOL0     O99322   8.240   8.498   9.840 -0.3406 -0.1614 -0.0780
  753MOL0     C99323   8.255   8.602   9.739 -0.6250  0.6939 -0.7021
  753MOL0     C99324   8.144   8.698   9.766  0.4316 -0.1484  0.6934
  753MOL0     C99325   8.163   8.813   9.662  0.7267 -0.2753  0.2495
  753MOL0     C99326   8.094   8.769   9.524 -0.0707 -0.1691  0.7426
  753MOL0     C99327   7.967   8.834   9.492 -0.1274 -0.4196 -0.3904
  753MOL0     C99328   7.867   8.891   9.482  0.0317  0.4003  0.2337
  753MOL0     C99329   8.471   8.429   9.841 -0.3302  0.4703  0.0547
  753MOL0     C99330   8.569   8.350   9.900  0.4996  0.9328 -0.1877
  753MOL0     H99331   9.004   8.224  10.122 -1.4834 -0.5660  0.8138
  753MOL0     H99332   9.194   8.085  10.130  0.9730 -0.6316 -2.2342
  753MOL0     H99333   9.309   7.879  10.198 -2.4876  1.2416 -1.1327
  753MOL0     H99334   9.373   7.919  10.038  0.7196  1.4630  2.8125
  753MOL0     H99335   9.479   7.720   9.997  1.5827 -0.7383  0.7340
  753MOL0     H99336   9.377   7.632  10.120  3.2552 -1.3707  2.0316
  753MOL0     H99337   9.590   7.646  10.198 -0.6759 -0.2942  0.9873
  753MOL0     H99338   9.502   7.765  10.291  0.3897 -0.5108 -0.9712
  753MOL0     H99339   9.753   7.793  10.153 -2.1837 -2.8502 -0.0698
  753MOL0     H99340   9.635   7.891  10.063 -3.3931  0.7560  0.8735
  753MOL0     H99341   9.781   7.993  10.245  1.0219  0.6353 -1.4765
  753MOL0     H99342   9.682   7.920  10.365 -1.4001  0.4813  1.0385
  753MOL0     H99343   9.478   8.019  10.316 -1.4847  1.6574  1.2754
  753MOL0     H99344   9.531   8.084  10.161 -0.9928  0.0877  0.5719
  753MOL0     H99345   9.688   8.169  10.401 -0.3414  0.0016  1.3196
  753MOL0     H99346   9.656   8.256  10.258  0.3386 -0.5138 -0.3504
  753MOL0     H99347   9.531   8.355  10.463  1.1178  1.1681 -0.9078
  753MOL0     H99348   9.431   8.207  10.467  0.3099  0.6063 -0.2201
  753MOL0     H99349   9.554   8.512  10.259 -2.8977  3.4498  1.0273
  753MOL0     H99350   9.365   8.604   9.988 -1.6290  0.2772  0.1647
  753MOL0     H99351   9.424   8.699  10.119  0.6689  1.6947 -2.7333
  753MOL0     H99352   9.260   8.816  10.136  0.7170  0.0099 -0.4210
  753MOL0     H99353   9.158   8.693  10.208  0.9425 -3.3970 -0.3988
  753MOL0     H99354   9.081   8.827  10.025  1.6676  0.5408 -0.2964
  753MOL0     H99355   9.178   8.727   9.905 -2.0557 -2.2287 -1.4887
  753MOL0     H99356   8.978   8.608  10.092  1.1455 -0.2495 -0.2246
  753MOL0     H99357   9.064   8.524   9.969 -0.9772 -1.7392  4.4118
  753MOL0     H99358   8.879   8.806  10.105  3.2821  0.5343 -4.6110
  753MOL0     H99359   8.688   8.962  10.140  0.7428 -1.9712  0.9727
  753MOL0     H99360   8.155   9.025   9.986 -0.4417 -0.6226 -0.7906
  753MOL0     H99361   8.028   9.214  10.041  1.8275 -4.2953  3.0554
  753MOL0     H99362   7.963   9.492  10.096  0.7730  5.5197 -1.3397
  753MOL0     H99363   7.886   9.379   9.979 -1.8100  0.0833  4.3297
  753MOL0     H99364   7.820   9.565   9.845  2.2809 -4.2091 -0.3703
  753MOL0     H99365   7.914   9.679   9.942  0.8909 -0.9650 -2.1781
  753MOL0     H99366   7.797   9.616  10.144  1.0764  4.0931 -1.4179
  753MOL0     H99367   7.682   9.516  10.044 -0.1359  0.5535 -1.7074
  753MOL0     H99368   7.742   9.810  10.046  0.7056  0.0572  1.2550
  753MOL0     H99369   7.636   9.727   9.911 -0.1216  2.0649 -0.4309
  753MOL0     H99370   7.500   9.841  10.106  3.2842  1.5761  0.2581
  753MOL0     H99371   7.574   9.730  10.219  0.7764  2.3193 -0.2055
  753MOL0     H99372   7.499   9.538  10.136 -1.9376 -0.8792  2.0189
  753MOL0     H99373   7.444   9.601   9.984 -0.5387 -1.3442  0.3838
  753MOL0     H99374   7.244   9.547  10.149  2.4045 -0.8749 -0.3337
  753MOL0     H99375   7.295   9.688  10.247 -3.0665  2.4222 -0.2677
  753MOL0     H99376   7.204   9.679   9.956 -0.2113 -0.8619  0.3560
  753MOL0     H99377   7.290   9.808  10.039 -0.5538 -0.4989  1.9855
  753MOL0     H99378   8.303   9.450   9.793  2.7332 -2.2635 -0.6140
  753MOL0     H99379   8.429   9.252   9.739  0.4252 -0.8690  0.4773
  753MOL0     H99380   8.504   8.814   9.779 -1.3156 -0.4322  1.5091
  753MOL0     H99381   8.710   8.683   9.733 -0.8984 -0.9013  0.2528
  753MOL0     H99382   8.961   7.772   9.934 -1.0459  0.3537 -1.0904
  753MOL0     H99383   8.779   7.928   9.904  1.0172 -0.4000  0.2249
  753MOL0     H99384   8.361   8.152  10.080  0.6292  1.6242  3.1961
  753MOL0     H99385   8.198   8.313   9.997 -0.4216 -0.2658  1.1214
  753MOL0     H99386   8.266   8.562   9.638 -0.7111 -2.7773  0.5111
  753MOL0     H99387   8.349   8.653   9.764  0.3484  1.8232 -5.6258
  753MOL0     H99388   8.049   8.644   9.771 -1.5813  3.1324  0.7859
  753MOL0     H99389   8.148   8.733   9.869 -1.8845 -0.5356  0.9757
  753MOL0     H99390   8.270   8.829   9.643  0.9792 -1.4952  0.5226
  753MOL0     H99391   8.121   8.907   9.699 -0.2376 -1.0438  1.1736
  753MOL0     H99392   8.161   8.793   9.441 -0.3287  0.3114  0.6679
  753MOL0     H99393   8.066   8.663   9.525 -2.9435  0.4469 -1.9114
  753MOL0     H99394   7.776   8.946   9.467 -0.3243  0.0299  0.9781
  753MOL0     H99395   8.504   8.512   9.780 -1.8110 -0.5199 -2.2062
  753MOL0     H99396   8.670   8.374   9.869  0.6509  0.4864 -0.0439
  754MOL0     O99397   6.908   6.428   6.470  0.4287  0.2764 -0.0388
  754MOL0     C99398   6.868   6.438   6.353 -0.4132 -0.2120 -0.8079
  754MOL0     O99399   6.737   6.448   6.313 -0.8064 -0.0794  0.0644
  754MOL0     C99400   6.653   6.429   6.415  0.3797 -0.3839 -0.3673
  754MOL0     C99401   6.559   6.331   6.395  0.7712  0.7416 -0.0557
  754MOL0     C99402   6.442   6.318   6.483 -0.0238 -0.1691 -0.1532
  754MOL0     C99403   6.422   6.402   6.587  0.0779 -0.1429  0.1880
  754MOL0     O99404   6.313   6.390   6.670 -1.3027  0.8937  0.1560
  754MOL0     C99405   6.334   6.394   6.811 -0.1297  0.3733 -0.3678
  754MOL0     C99406   6.205   6.430   6.881 -0.0707 -0.0903 -0.8816
  754MOL0     C99407   6.212   6.414   7.028 -0.3258 -0.8455 -0.1868
  754MOL0     C99408   6.091   6.487   7.083 -0.0747  0.3162  1.0670
  754MOL0     C99409   6.100   6.522   7.230  1.3584  0.0054 -0.1365
  754MOL0     C99410   5.993   6.636   7.261  0.0649 -0.5133  0.2908
  754MOL0     C99411   5.992   6.684   7.410 -0.3157 -0.2319 -0.4299
  754MOL0     C99412   6.090   6.798   7.437 -0.3301  0.6423  1.1210
  754MOL0     N99413   6.062   6.878   7.560 -0.0333  0.5082  0.3308
  754MOL0     C99414   6.108   6.843   7.685  0.4227  0.5133 -0.7932
  754MOL0     C99415   6.034   6.922   7.766 -0.0904 -0.5093 -0.1844
  754MOL0     C99416   6.047   6.940   7.910 -0.4100  0.2421 -0.2116
  754MOL0     C99417   6.194   6.984   7.964  0.3343 -1.2191  0.8436
  754MOL0     C99418   6.188   7.005   8.111  0.1711  0.2873 -0.1526
  754MOL0     C99419   6.330   7.039   8.162  1.1574 -0.2571 -0.6874
  754MOL0     O99420   6.400   6.912   8.177 -0.1354 -0.1592  0.4429
  754MOL0     C99421   6.489   6.891   8.277 -0.4887  0.0921  0.0543
  754MOL0     C99422   6.525   6.755   8.308 -0.9269 -0.0515 -0.6350
  754MOL0     C99423   6.615   6.726   8.413 -0.4430  0.2480 -0.4202
  754MOL0     C99424   6.674   6.833   8.488 -0.2407 -0.1984 -0.1401
  754MOL0     C99425   6.787   6.822   8.587 -1.1405 -1.0001 -0.0048
  754MOL0     O99426   6.822   6.944   8.646 -0.4833  0.4159 -0.0681
  754MOL0     C99427   6.941   6.934   8.714  0.2417 -0.2667  0.0581
  754MOL0     C99428   7.056   6.972   8.652 -0.0104  0.1780 -0.2677
  754MOL0     C99429   7.176   6.963   8.718 -0.5377  0.2263 -0.4737
  754MOL0     C99430   7.187   6.922   8.852  0.0417 -0.7891 -0.2519
  754MOL0     O99431   7.303   6.924   8.921  0.0006  0.3965  0.7548
  754MOL0     C99432   7.360   7.054   8.925 -0.8086 -0.2338  0.4293
  754MOL0     C99433   7.421   7.082   9.062  0.3706  0.1700  0.2768
  754MOL0     C99434   7.510   7.197   9.049  0.4404 -0.5833 -0.5212
  754MOL0     C99435   7.549   7.239   9.190  0.2549 -0.5369 -0.2457
  754MOL0     C99436   7.629   7.359   9.183  0.3704  0.0709  0.8644
  754MOL0     C99437   7.778   7.352   9.179 -0.0521  0.3108 -0.9514
  754MOL0     C99438   7.841   7.276   9.060 -0.0829  0.7221 -0.3313
  754MOL0     C99439   7.990   7.294   9.068  0.3531 -0.3552 -0.2456
  754MOL0    Cl99440   8.040   7.457   8.997 -0.2447 -0.3999 -0.0053
  754MOL0     C99441   7.074   6.902   8.920  0.1702  0.2462  0.7227
  754MOL0     C99442   6.944   6.914   8.854  0.4576  0.0599  0.8024
  754MOL0     O99443   6.840   6.712   8.597 -0.5348 -0.1571 -1.1309
  754MOL0     C99444   6.638   6.965   8.451  0.1558 -0.0576  1.3406
  754MOL0     C99445   6.547   6.995   8.344 -0.2615 -0.4390 -0.3017
  754MOL0     N99446   5.946   6.992   7.684 -0.2316 -0.2252 -0.7379
  754MOL0     N99447   5.960   6.966   7.566 -0.3547  0.4759 -0.1427
  754MOL0     C99448   6.533   6.494   6.618  0.6924  0.1861  0.1126
  754MOL0     C99449   6.643   6.512   6.525  0.6765  0.3998 -0.8368
  754MOL0     C99450   6.971   6.448   6.244  0.0468  0.2707 -0.9967
  754MOL0     C99451   6.940   6.447   6.108 -0.2938  0.7638 -0.6910
  754MOL0     C99452   7.034   6.471   6.020 -0.7725 -0.8305 -0.3496
  754MOL0     C99453   7.171   6.489   6.053 -0.0260 -0.0306 -0.0611
  754MOL0     O99454   7.272   6.486   5.961 -0.3362 -1.0039  0.7001
  754MOL0     C99455   7.245   6.468   5.816  0.4713 -0.2459 -1.0402
  754MOL0     C99456   7.369   6.421   5.757 -0.0219  0.3936 -0.7512
  754MOL0     C99457   7.484   6.519   5.788  0.3072  0.2805  0.2185
  754MOL0     C99458   7.615   6.454   5.756 -0.0656  0.0206  0.4858
  754MOL0     C99459   7.676   6.501   5.626  0.7022 -0.5266 -0.2697
  754MOL0     C99460   7.743   6.530   5.525  1.0459 -0.3359 -0.1064
  754MOL0     C99461   7.204   6.508   6.194  1.4654 -0.2163  0.0923
  754MOL0     C99462   7.104   6.491   6.288 -0.5963 -0.1756  1.3455
  754MOL0     H99463   6.555   6.275   6.302 -0.2429  1.4808 -0.4771
  754MOL0     H99464   6.358   6.255   6.457 -2.5151  2.4131  1.0311
  754MOL0     H99465   6.411   6.467   6.839 -0.4664 -0.0190  1.7353
  754MOL0     H99466   6.366   6.296   6.847  0.6484  2.0473  4.0867
  754MOL0     H99467   6.129   6.363   6.840 -1.1814  0.4616  0.2311
  754MOL0     H99468   6.180   6.526   6.837  1.2729  0.7708  0.1593
  754MOL0     H99469   6.305   6.461   7.063  0.1037 -2.5424  1.0962
  754MOL0     H99470   6.208   6.307   7.054 -3.2969 -1.0841 -1.3190
  754MOL0     H99471   6.082   6.581   7.028  3.4361  0.4000  0.4034
  754MOL0     H99472   6.001   6.428   7.062 -0.1917  0.9269 -0.1875
  754MOL0     H99473   6.200   6.554   7.257  2.9495 -3.1925 -1.7016
  754MOL0     H99474   6.080   6.437   7.296  2.6757  0.9024  1.5134
  754MOL0     H99475   5.899   6.592   7.227  1.0846 -2.3208 -0.3421
  754MOL0     H99476   5.995   6.724   7.196 -0.9485  2.0100  3.4082
  754MOL0     H99477   5.884   6.704   7.417 -1.0500 -1.2227 -5.1207
  754MOL0     H99478   6.003   6.599   7.478 -2.1973 -1.0795 -1.0920
  754MOL0     H99479   6.080   6.867   7.353  4.6405 -0.6775 -0.8930
  754MOL0     H99480   6.193   6.761   7.433 -0.1038  1.3509  0.0394
  754MOL0     H99481   6.188   6.774   7.710 -1.9536 -2.4462 -0.8918
  754MOL0     H99482   6.003   6.854   7.962 -0.6605 -0.1869 -1.1110
  754MOL0     H99483   5.978   7.022   7.932 -1.1395  0.2028 -2.2010
  754MOL0     H99484   6.230   7.068   7.905 -2.6228 -0.0910  0.4957
  754MOL0     H99485   6.261   6.903   7.937 -0.9709 -0.9933 -3.8293
  754MOL0     H99486   6.120   7.086   8.139 -1.3924 -0.8602 -0.5110
  754MOL0     H99487   6.148   6.914   8.157 -1.2296  0.5639 -0.7517
  754MOL0     H99488   6.307   7.096   8.253  1.3562  1.7185 -1.8222
  754MOL0     H99489   6.380   7.105   8.091  0.1420  2.2701  0.8172
  754MOL0     H99490   6.461   6.681   8.260  0.5779 -0.5011 -2.0421
  754MOL0     H99491   6.640   6.627   8.450 -0.0165 -0.0406 -1.4160
  754MOL0     H99492   7.053   6.995   8.546  0.8805 -1.1720 -0.5995
  754MOL0     H99493   7.269   6.970   8.661 -0.7474 -0.0714 -0.8575
  754MOL0     H99494   7.284   7.121   8.884 -1.9638 -3.7827 -4.0454
  754MOL0     H99495   7.440   7.042   8.851 -1.8887 -3.2596 -0.3990
  754MOL0     H99496   7.470   7.001   9.116 -0.6601  1.6075  3.5960
  754MOL0     H99497   7.333   7.114   9.118  0.8730  0.5184  0.8833
  754MOL0     H99498   7.461   7.280   8.997 -0.7640  0.9826  2.8189
  754MOL0     H99499   7.601   7.162   8.999  0.0409 -0.3573 -1.4231
  754MOL0     H99500   7.458   7.266   9.244  1.5387  0.9288  1.3078
  754MOL0     H99501   7.606   7.162   9.243  1.5283 -0.0388 -0.8374
  754MOL0     H99502   7.598   7.419   9.269  0.9079  1.7855 -0.0832
  754MOL0     H99503   7.604   7.413   9.091  0.5590  0.6026  1.1181
  754MOL0     H99504   7.806   7.304   9.273  0.0092  0.7982 -0.7163
  754MOL0     H99505   7.817   7.454   9.182  4.1524 -1.0845  3.1546
  754MOL0     H99506   7.809   7.171   9.053 -0.4714  0.9516 -2.8098
  754MOL0     H99507   7.804   7.320   8.967  1.0821 -1.2937 -1.8378
  754MOL0     H99508   8.043   7.212   9.017  1.5736  1.6712 -2.4260
  754MOL0     H99509   8.039   7.278   9.164  4.2307  0.1800 -1.9500
  754MOL0     H99510   7.061   6.878   9.025 -1.1777 -1.4281  0.2278
  754MOL0     H99511   6.847   6.903   8.902 -0.6600 -0.0366 -1.3339
  754MOL0     H99512   6.692   7.049   8.493 -0.3561  0.5407  0.8174
  754MOL0     H99513   6.525   7.097   8.315  1.8098 -0.4703 -2.3047
  754MOL0     H99514   6.533   6.556   6.707  1.4305  0.1573  0.1397
  754MOL0     H99515   6.708   6.594   6.554  3.1776 -1.1271 -1.7926
  754MOL0     H99516   6.841   6.412   6.079  0.3470 -1.5185 -0.3289
  754MOL0     H99517   7.014   6.459   5.914 -1.3905  3.7948 -0.9623
  754MOL0     H99518   7.198   6.553   5.767 -0.9018  1.0015  2.1667
  754MOL0     H99519   7.167   6.396   5.791 -1.5571  0.0379  3.4560
  754MOL0     H99520   7.396   6.321   5.793  2.3182  1.3726  0.4038
  754MOL0     H99521   7.359   6.402   5.650  1.5849 -0.7162 -0.7476
  754MOL0     H99522   7.497   6.565   5.886  0.6233  3.0234 -1.0177
  754MOL0     H99523   7.447   6.600   5.724 -2.6904 -1.7711 -0.8534
  754MOL0     H99524   7.681   6.468   5.842  0.4036 -1.2704  0.3633
  754MOL0     H99525   7.608   6.345   5.749  1.0966  0.0179 -1.0652
  754MOL0     H99526   7.791   6.555   5.433 -1.0593 -0.6846 -1.3530
  754MOL0     H99527   7.302   6.541   6.228  0.2714  1.0391  2.6027
  754MOL0     H99528   7.115   6.514   6.394  0.2079  0.5155  1.1220
  755MOL0     O99529   1.146   0.589   8.739  0.6200 -0.4880 -0.3411
  755MOL0     C99530   1.060   0.639   8.816 -0.2835  0.3501  0.6090
  755MOL0     O99531   0.928   0.591   8.821  0.1482  0.6866  0.1618
  755MOL0     C99532   0.866   0.602   8.940 -0.4742  0.1226  0.4561
  755MOL0     C99533   0.739   0.664   8.954  0.3783  0.7337 -0.0934
  755MOL0     C99534   0.670   0.677   9.078  0.4847  0.5288 -0.1449
  755MOL0     C99535   0.736   0.621   9.194  0.1357  0.3168  0.5513
  755MOL0     O99536   0.695   0.628   9.323 -0.2922  0.6024  0.4390
  755MOL0     C99537   0.549   0.657   9.330  0.1691  0.1087 -0.4765
  755MOL0     C99538   0.521   0.806   9.389  0.0841 -0.7442 -0.1887
  755MOL0     C99539   0.375   0.832   9.426 -0.7447  1.1866 -0.5503
  755MOL0     C99540   0.356   0.963   9.504  1.3651  0.3798 -1.4248
  755MOL0     C99541   0.205   1.012   9.508 -0.8291  0.0381  0.2477
  755MOL0     C99542   0.116   0.918   9.591  0.7076 -1.2156  0.4043
  755MOL0     C99543  -0.020   0.987   9.614  0.0273 -0.2560  0.2279
  755MOL0     C99544  -0.109   0.911   9.714 -0.4767  0.8324  0.9739
  755MOL0     N99545  -0.233   0.982   9.716  0.4179  0.7011  0.1350
  755MOL0     C99546  -0.254   1.116   9.739 -0.7431  0.4439 -0.0216
  755MOL0     C99547  -0.388   1.131   9.728 -0.9093  0.3345 -0.1744
  755MOL0     C99548  -0.467   1.253   9.741  0.4817 -0.9565 -0.1567
  755MOL0     C99549  -0.535   1.279   9.869 -0.1241 -0.6201  0.9296
  755MOL0     C99550  -0.673   1.219   9.866  0.2527  0.6129 -0.2436
  755MOL0     C99551  -0.742   1.208   9.998 -0.4379  0.6505 -0.1960
  755MOL0     O99552  -0.730   1.340  10.065  0.3069  0.2187  0.1779
  755MOL0     C99553  -0.861   1.381  10.088  0.0543  0.1016 -0.6687
  755MOL0     C99554  -0.934   1.449   9.991 -0.0176 -0.1962 -0.3970
  755MOL0     C99555  -1.065   1.494  10.019 -0.5353  0.8411  0.5474
  755MOL0     C99556  -1.124   1.465  10.146  1.0376  0.0358 -0.3961
  755MOL0     C99557  -1.260   1.502  10.178 -0.1007  0.2458 -0.7588
  755MOL0     O99558  -1.345   1.539  10.081 -0.0530 -0.1968 -0.7263
  755MOL0     C99559  -1.460   1.581  10.125  0.1324  0.4517 -0.0369
  755MOL0     C99560  -1.476   1.694  10.209  0.0510 -1.0219 -0.5478
  755MOL0     C99561  -1.609   1.728  10.261 -0.5486  0.2882 -0.0292
  755MOL0     C99562  -1.720   1.653  10.224  0.9546  0.3910  0.1779
  755MOL0     O99563  -1.851   1.677  10.252  0.1361 -0.2750  0.1234
  755MOL0     C99564  -1.887   1.797  10.329 -0.1896  0.4347  1.1369
  755MOL0     C99565  -1.943   1.774  10.459 -0.6596 -0.4101 -0.2050
  755MOL0     C99566  -2.072   1.708  10.449 -0.8966 -0.1798  0.8911
  755MOL0     C99567  -2.118   1.683  10.592  0.4286  0.5916 -1.0204
  755MOL0     C99568  -2.262   1.635  10.597 -0.3930 -0.2098 -0.2772
  755MOL0     C99569  -2.297   1.590  10.739  0.1467  0.6398 -0.6350
  755MOL0     C99570  -2.269   1.699  10.851  0.8769  0.3282  0.9108
  755MOL0     C99571  -2.326   1.648  10.985  0.6391  0.9964 -0.0350
  755MOL0    Cl99572  -2.507   1.648  10.996 -0.5082  0.0945 -0.0141
  755MOL0     C99573  -1.702   1.560  10.124  0.7586  0.7773  0.4263
  755MOL0     C99574  -1.574   1.514  10.084  0.2751  0.0529  0.3070
  755MOL0     O99575  -1.300   1.497  10.296 -0.2782  0.1120 -1.0705
  755MOL0     C99576  -1.039   1.404  10.245  0.3213 -0.6988 -0.4464
  755MOL0     C99577  -0.906   1.367  10.215  1.0789  0.3331 -0.2651
  755MOL0     N99578  -0.448   1.003   9.715  0.5710 -0.4379 -0.3386
  755MOL0     N99579  -0.352   0.919   9.718  1.1704  0.1058  0.8637
  755MOL0     C99580   0.861   0.559   9.178  0.2998  0.2804 -0.4280
  755MOL0     C99581   0.922   0.557   9.048 -0.3395 -0.5227 -0.8423
  755MOL0     C99582   1.105   0.751   8.897  1.0919 -0.7100  0.8930
  755MOL0     C99583   1.236   0.762   8.947  0.6234 -0.4358  0.0777
  755MOL0     C99584   1.292   0.865   9.023  0.6761 -0.2996 -0.1543
  755MOL0     C99585   1.201   0.973   9.053 -0.2526  0.3393 -0.5174
  755MOL0     O99586   1.236   1.080   9.130  0.0015 -0.9677  0.4279
  755MOL0     C99587   1.332   1.059   9.238  0.2262 -0.1409  0.5776
  755MOL0     C99588   1.407   1.194   9.247  0.7289  0.6457  1.0300
  755MOL0     C99589   1.483   1.217   9.376 -0.5770  0.0694 -0.7263
  755MOL0     C99590   1.395   1.249   9.504 -0.0067  0.1581  0.4466
  755MOL0     C99591   1.328   1.383   9.478 -0.1848  0.6735  0.2592
  755MOL0     C99592   1.300   1.503   9.455  0.1241  0.0385  0.1368
  755MOL0     C99593   1.064   0.965   9.009  0.2499 -0.1309  0.4132
  755MOL0     C99594   1.022   0.855   8.937 -0.4305  0.9152  0.8275
  755MOL0     H99595   0.686   0.702   8.867  1.5800 -3.0462 -2.7228
  755MOL0     H99596   0.571   0.721   9.091 -0.0506 -0.6517 -0.1129
  755MOL0     H99597   0.516   0.602   9.419  1.4508  0.5206  0.2848
  755MOL0     H99598   0.480   0.627   9.250 -3.4153  2.4290  1.4747
  755MOL0     H99599   0.550   0.883   9.317 -2.0928  1.6639  1.3405
  755MOL0     H99600   0.585   0.829   9.474  0.3956  1.9286 -1.0789
  755MOL0     H99601   0.325   0.757   9.488 -1.3835  0.6396 -1.7122
  755MOL0     H99602   0.324   0.835   9.330 -0.5072 -0.9381 -0.7917
  755MOL0     H99603   0.397   0.944   9.604  3.1496  1.3249 -1.9413
  755MOL0     H99604   0.418   1.033   9.448  3.6909 -1.3198 -1.1336
  755MOL0     H99605   0.173   1.011   9.404  0.2375  3.8340 -0.2857
  755MOL0     H99606   0.198   1.118   9.535 -0.8039  0.6728 -2.0576
  755MOL0     H99607   0.159   0.899   9.690 -1.4005 -0.3269  1.5595
  755MOL0     H99608   0.096   0.821   9.545  0.1781 -0.3672 -1.2367
  755MOL0     H99609   0.009   1.085   9.652 -1.0918 -0.2697  1.1588
  755MOL0     H99610  -0.081   0.999   9.525 -4.3011 -1.0490  2.8095
  755MOL0     H99611  -0.071   0.894   9.816 -5.3144  3.7114  3.6589
  755MOL0     H99612  -0.121   0.815   9.665  2.8708  0.4815  0.6112
  755MOL0     H99613  -0.179   1.195   9.745 -0.0460 -0.0539 -1.7100
  755MOL0     H99614  -0.538   1.265   9.659 -0.2957 -0.6033  0.5628
  755MOL0     H99615  -0.404   1.342   9.728 -0.9474  0.3065  1.2439
  755MOL0     H99616  -0.543   1.388   9.882  1.4555  0.0612 -2.5179
  755MOL0     H99617  -0.475   1.236   9.950 -1.2000 -2.0807  0.9826
  755MOL0     H99618  -0.736   1.266   9.791  0.4421  0.3186 -0.5889
  755MOL0     H99619  -0.667   1.114   9.836 -1.5982  0.1020  1.0467
  755MOL0     H99620  -0.688   1.134  10.057 -0.2322  0.7228 -0.2937
  755MOL0     H99621  -0.841   1.165   9.982 -0.7877  1.9616 -1.8441
  755MOL0     H99622  -0.886   1.473   9.896  0.5047  2.1980  0.4121
  755MOL0     H99623  -1.114   1.546   9.938 -0.2297  0.9246  0.4152
  755MOL0     H99624  -1.399   1.762  10.244 -0.1058 -1.6750  1.1298
  755MOL0     H99625  -1.607   1.790  10.350 -1.2316 -2.9181  2.4050
  755MOL0     H99626  -1.943   1.857  10.257  0.4295  0.5987  0.7789
  755MOL0     H99627  -1.794   1.854  10.343 -1.2185  1.9716  1.9885
  755MOL0     H99628  -1.951   1.869  10.512 -0.4505  0.1254 -1.1167
  755MOL0     H99629  -1.878   1.717  10.527 -0.2850  1.2294  0.8788
  755MOL0     H99630  -2.070   1.610  10.400  2.2335 -1.0588  2.5620
  755MOL0     H99631  -2.140   1.772  10.392  0.8665  0.8402 -0.1541
  755MOL0     H99632  -2.050   1.611  10.638  0.1287  0.5026 -0.7119
  755MOL0     H99633  -2.113   1.783  10.635 -2.4755 -0.1182  1.2653
  755MOL0     H99634  -2.274   1.555  10.522  1.0939  0.5263 -1.3510
  755MOL0     H99635  -2.335   1.711  10.568 -3.1131 -2.2573  0.8206
  755MOL0     H99636  -2.246   1.495  10.760  0.8607  0.5591 -2.5081
  755MOL0     H99637  -2.400   1.555  10.739  0.7161 -1.2245  0.3856
  755MOL0     H99638  -2.160   1.709  10.858  1.0351 -1.6579  2.3913
  755MOL0     H99639  -2.307   1.797  10.823  0.5911 -0.4883 -1.8398
  755MOL0     H99640  -2.281   1.705  11.067 -1.5209  2.2171  0.3771
  755MOL0     H99641  -2.291   1.545  10.993  0.9458  1.0542 -0.5527
  755MOL0     H99642  -1.790   1.506  10.092  1.2816  0.8261 -1.1555
  755MOL0     H99643  -1.547   1.435  10.015  3.8075  2.6456 -1.6009
  755MOL0     H99644  -1.072   1.389  10.347 -0.7581  0.3174 -0.6376
  755MOL0     H99645  -0.855   1.323  10.299  3.7542  1.6577 -1.0705
  755MOL0     H99646   0.918   0.515   9.259 -0.9317 -2.5381 -0.9723
  755MOL0     H99647   1.020   0.512   9.053  0.2929  0.9432  0.7860
  755MOL0     H99648   1.296   0.675   8.921 -0.6548 -0.5703 -2.8023
  755MOL0     H99649   1.399   0.867   9.045  0.1804  1.1713  2.6968
  755MOL0     H99650   1.406   0.980   9.218  2.2615  1.4740  1.3551
  755MOL0     H99651   1.274   1.040   9.329 -1.3931  2.3153  0.1318
  755MOL0     H99652   1.482   1.185   9.167 -1.2955 -0.9872 -0.8257
  755MOL0     H99653   1.342   1.281   9.237 -0.0834  0.1096  1.5547
  755MOL0     H99654   1.555   1.298   9.361 -0.0090  0.9287  4.4869
  755MOL0     H99655   1.530   1.122   9.404 -0.4392  0.1030 -0.8433
  755MOL0     H99656   1.321   1.174   9.536 -1.9006  1.3373 -0.9548
  755MOL0     H99657   1.465   1.261   9.587  0.8050 -1.3006  0.0105
  755MOL0     H99658   1.287   1.605   9.423 -0.4521 -0.6703 -2.0092
  755MOL0     H99659   0.996   1.047   9.031 -0.9323 -1.6491  2.8221
  755MOL0     H99660   0.917   0.852   8.911 -0.1863 -1.0511 -0.1272
  756MOL0     O99661   1.956   0.433   7.117  0.0937 -0.8970  0.4414
  756MOL0     C99662   1.989   0.350   7.033 -0.0345  0.1605 -0.2037
  756MOL0     O99663   1.908   0.261   6.978  0.1515 -0.1855  0.7743
  756MOL0     C99664   1.770   0.277   6.987  0.0671 -0.1055  0.2448
  756MOL0     C99665   1.692   0.403   6.987 -0.2502 -0.4997 -0.1584
  756MOL0     C99666   1.554   0.412   6.981 -0.9600  0.3746  0.3571
  756MOL0     C99667   1.482   0.295   6.960 -0.9160 -0.4588  0.4829
  756MOL0     O99668   1.346   0.289   6.950 -0.4723 -0.6910  1.3551
  756MOL0     C99669   1.282   0.379   6.858 -0.2561 -0.8333  0.4695
  756MOL0     C99670   1.130   0.360   6.868  0.6579 -0.4578 -0.1171
  756MOL0     C99671   1.091   0.287   6.736  0.4031 -0.0170  0.5625
  756MOL0     C99672   0.932   0.261   6.729  0.2456  0.4813  0.7586
  756MOL0     C99673   0.876   0.211   6.588  0.1080  0.7680 -0.6397
  756MOL0     C99674   0.730   0.167   6.601  0.5763  0.7189 -0.0873
  756MOL0     C99675   0.684   0.058   6.505  0.7307 -0.4230  0.1607
  756MOL0     C99676   0.713  -0.087   6.553  0.0971  0.0329  0.3999
  756MOL0     N99677   0.612  -0.142   6.651  0.6124 -0.9265 -0.4244
  756MOL0     C99678   0.638  -0.191   6.777  0.4258 -0.1240  0.1471
  756MOL0     C99679   0.524  -0.264   6.807 -0.9852 -0.8779  0.5044
  756MOL0     C99680   0.509  -0.345   6.927 -0.4669 -0.0434 -0.5299
  756MOL0     C99681   0.501  -0.261   7.056 -0.2247 -0.1932  0.5646
  756MOL0     C99682   0.479  -0.357   7.174 -0.2304 -0.1848  1.2960
  756MOL0     C99683   0.454  -0.283   7.309  0.1732  0.4899  0.0433
  756MOL0     O99684   0.352  -0.179   7.306 -0.2369 -0.2143 -0.0636
  756MOL0     C99685   0.225  -0.215   7.254  0.8048  0.7800  0.2368
  756MOL0     C99686   0.158  -0.110   7.198  0.6765  0.1616  0.2190
  756MOL0     C99687   0.026  -0.117   7.140 -1.0150 -0.6249 -0.0002
  756MOL0     C99688  -0.052  -0.233   7.164 -0.8300  0.8006 -0.1362
  756MOL0     C99689  -0.195  -0.240   7.139  0.3476  0.4789  0.1103
  756MOL0     O99690  -0.255  -0.120   7.104 -0.3564  0.5499  0.1418
  756MOL0     C99691  -0.386  -0.107   7.098  0.1490  0.3067  0.0992
  756MOL0     C99692  -0.426   0.005   7.168  0.6872  0.7480 -0.5234
  756MOL0     C99693  -0.568   0.036   7.160  0.9418 -0.4279  0.2267
  756MOL0     C99694  -0.657  -0.040   7.096 -0.5315  0.1908  0.3932
  756MOL0     O99695  -0.789  -0.006   7.110  0.2865  0.0582 -0.7184
  756MOL0     C99696  -0.897  -0.108   7.078 -0.1617  0.2028  0.6131
  756MOL0     C99697  -1.016  -0.073   7.154 -0.8327  0.7005  0.5553
  756MOL0     C99698  -1.082   0.060   7.120  0.3957  0.5291 -0.0241
  756MOL0     C99699  -1.206   0.093   7.193  0.6568  1.2821 -0.7241
  756MOL0     C99700  -1.201   0.242   7.232  0.2018 -0.5958  0.0956
  756MOL0     C99701  -1.124   0.263   7.366  0.5519 -0.6740  0.2917
  756MOL0     C99702  -1.089   0.413   7.393 -0.9543  0.1778  0.7421
  756MOL0     C99703  -1.072   0.433   7.545  0.1446 -0.1980 -0.5281
  756MOL0    Cl99704  -1.063   0.610   7.565 -0.1843  0.2471  0.5530
  756MOL0     C99705  -0.618  -0.155   7.035  0.4560 -0.2218  0.0739
  756MOL0     C99706  -0.480  -0.186   7.028 -0.2034  0.0153  0.4394
  756MOL0     O99707  -0.248  -0.351   7.137 -0.0227 -0.0961  0.7152
  756MOL0     C99708   0.017  -0.345   7.214 -0.8365 -0.7649  0.4302
  756MOL0     C99709   0.147  -0.337   7.263 -0.2409 -0.8832 -0.1265
  756MOL0     N99710   0.434  -0.252   6.709 -0.5967 -0.1764  0.2599
  756MOL0     N99711   0.481  -0.176   6.618 -0.2971  0.0145 -0.6976
  756MOL0     C99712   1.547   0.168   6.959 -0.6574 -0.2396  0.1291
  756MOL0     C99713   1.688   0.161   6.983 -0.7773  0.2714 -0.9065
  756MOL0     C99714   2.138   0.327   7.019 -0.7194 -0.1164 -1.1138
  756MOL0     C99715   2.229   0.415   7.086 -0.8133 -0.7128  0.3302
  756MOL0     C99716   2.373   0.401   7.076  0.3759 -0.0935  0.2229
  756MOL0     C99717   2.422   0.307   6.988  0.3080  0.4338 -1.0786
  756MOL0     O99718   2.557   0.273   6.962 -0.0792  0.3771  0.0033
  756MOL0     C99719   2.660   0.351   7.034  1.0129  0.2328  0.3055
  756MOL0     C99720   2.787   0.334   6.950  0.2224 -0.5290 -0.4991
  756MOL0     C99721   2.770   0.440   6.841 -0.2052  0.2788 -0.2839
  756MOL0     C99722   2.873   0.433   6.720 -0.1498 -0.7053  0.2317
  756MOL0     C99723   2.876   0.310   6.635 -0.3031  0.0037 -0.6628
  756MOL0     C99724   2.894   0.215   6.568 -0.5177 -0.7338 -0.1050
  756MOL0     C99725   2.327   0.227   6.920 -0.9107  0.9166  0.4970
  756MOL0     C99726   2.194   0.231   6.930  0.6653 -0.0047  0.8094
  756MOL0     H99727   1.745   0.495   6.965 -1.1213 -0.5238 -2.7392
  756MOL0     H99728   1.507   0.509   6.991 -0.2521  0.8967 -1.1660
  756MOL0     H99729   1.298   0.344   6.756 -1.3633 -0.3214  0.1013
  756MOL0     H99730   1.300   0.485   6.875 -2.4591 -0.3332  0.0184
  756MOL0     H99731   1.082   0.458   6.869  1.0060 -0.2819  0.8774
  756MOL0     H99732   1.087   0.314   6.958 -0.0187  3.0676  1.5507
  756MOL0     H99733   1.134   0.187   6.727 -2.8051 -1.5164  0.4471
  756MOL0     H99734   1.121   0.336   6.643 -2.9649 -2.3143 -1.9902
  756MOL0     H99735   0.903   0.193   6.809  1.2573 -0.6027  0.2349
  756MOL0     H99736   0.878   0.354   6.750  1.0559  1.1230  0.0847
  756MOL0     H99737   0.935   0.125   6.556 -0.2272  0.4806 -0.4922
  756MOL0     H99738   0.876   0.292   6.514 -0.9833 -0.6832 -2.2978
  756MOL0     H99739   0.656   0.247   6.589  0.8282  1.0188  0.3844
  756MOL0     H99740   0.708   0.140   6.704  1.5296 -0.4434 -0.1569
  756MOL0     H99741   0.576   0.069   6.490  0.3199 -1.2859  2.1711
  756MOL0     H99742   0.744   0.074   6.415  0.3308  1.8079  0.2393
  756MOL0     H99743   0.811  -0.087   6.603 -0.1375  0.1520  0.8670
  756MOL0     H99744   0.713  -0.162   6.474  0.8615  1.2574 -0.8020
  756MOL0     H99745   0.722  -0.166   6.840 -1.8221  1.3976  2.7870
  756MOL0     H99746   0.605  -0.396   6.926  1.0250  2.5536  0.0052
  756MOL0     H99747   0.428  -0.419   6.928  0.4328 -1.0912  1.7214
  756MOL0     H99748   0.424  -0.187   7.030 -2.3976 -1.7792  2.0651
  756MOL0     H99749   0.591  -0.200   7.063 -0.3121  0.0066  0.0346
  756MOL0     H99750   0.388  -0.416   7.166  1.0836 -2.1103 -0.8603
  756MOL0     H99751   0.567  -0.423   7.173  1.1637  1.4817 -1.6694
  756MOL0     H99752   0.552  -0.249   7.345  0.7878 -2.3873  1.3891
  756MOL0     H99753   0.424  -0.352   7.388 -2.6335  0.9891 -0.4799
  756MOL0     H99754   0.192  -0.007   7.199 -1.2833  0.8393  0.7374
  756MOL0     H99755  -0.023  -0.025   7.109  0.7735  1.0211  1.7467
  756MOL0     H99756  -0.368   0.069   7.233 -0.7024 -0.3599  1.9600
  756MOL0     H99757  -0.599   0.126   7.213  2.5959 -0.0263  0.5617
  756MOL0     H99758  -0.874  -0.212   7.104 -3.1036 -1.3656 -2.3235
  756MOL0     H99759  -0.921  -0.099   6.972 -3.4884  2.1109  1.3971
  756MOL0     H99760  -0.984  -0.078   7.258 -0.5045  0.3712  0.4389
  756MOL0     H99761  -1.103  -0.139   7.147 -0.8670  0.7657  0.3461
  756MOL0     H99762  -1.105   0.077   7.015  1.4925  1.1761 -0.1717
  756MOL0     H99763  -1.006   0.137   7.138  0.8172 -0.4180  2.8897
  756MOL0     H99764  -1.284   0.068   7.120  1.1369  2.4886 -1.6910
  756MOL0     H99765  -1.223   0.028   7.279 -0.1900  2.6805  0.2028
  756MOL0     H99766  -1.302   0.276   7.257 -0.6123 -1.8755 -1.3226
  756MOL0     H99767  -1.157   0.313   7.162 -0.7626  0.7559  0.8138
  756MOL0     H99768  -1.029   0.210   7.363  1.3444  0.6735  0.7693
  756MOL0     H99769  -1.179   0.231   7.455 -0.7384  2.1893  0.6552
  756MOL0     H99770  -1.004   0.442   7.331 -0.1975  1.2210  2.2139
  756MOL0     H99771  -1.174   0.478   7.369 -0.5983  0.6968  0.8593
  756MOL0     H99772  -0.982   0.380   7.580 -0.6867 -0.8791  0.6352
  756MOL0     H99773  -1.157   0.397   7.603 -0.7220  1.9916 -0.3602
  756MOL0     H99774  -0.681  -0.228   6.986  1.7689 -0.9303 -0.6211
  756MOL0     H99775  -0.447  -0.269   6.967 -3.7895 -1.0412 -0.3473
  756MOL0     H99776  -0.031  -0.441   7.229 -2.1765 -0.3156 -0.7782
  756MOL0     H99777   0.191  -0.417   7.323  3.9581  2.8189  2.3433
  756MOL0     H99778   1.494   0.074   6.951 -1.8294  0.5204 -2.0403
  756MOL0     H99779   1.731   0.062   6.976  0.1381  0.5447  0.4605
  756MOL0     H99780   2.201   0.491   7.158 -0.7688 -2.0916  1.8632
  756MOL0     H99781   2.435   0.462   7.141  0.3858  0.2076 -0.0655
  756MOL0     H99782   2.671   0.299   7.129  1.2838 -1.2087 -0.4926
  756MOL0     H99783   2.637   0.456   7.054 -2.7729 -0.5463  0.6706
  756MOL0     H99784   2.872   0.360   7.014  0.8691 -0.6728 -1.2772
  756MOL0     H99785   2.799   0.231   6.915  1.9263  0.5688 -3.5261
  756MOL0     H99786   2.776   0.537   6.891  0.1274 -0.7382  1.7159
  756MOL0     H99787   2.678   0.410   6.790 -1.1473  0.1543  1.4406
  756MOL0     H99788   2.843   0.511   6.650 -1.8189 -0.9251  0.6509
  756MOL0     H99789   2.971   0.470   6.752 -0.9188  2.9440 -1.1472
  756MOL0     H99790   2.908   0.125   6.510 -2.3600 -0.8031 -0.4987
  756MOL0     H99791   2.365   0.149   6.855  3.3096  0.5423  3.0271
  756MOL0     H99792   2.133   0.163   6.871 -0.1902  2.6349 -1.5419
  757MOL0     O99793  10.230   1.424   5.767 -0.4695  0.3783  0.3006
  757MOL0     C99794  10.269   1.401   5.652  0.4070 -0.2916 -0.0415
  757MOL0     O99795  10.201   1.388   5.540 -0.0370  0.0902 -0.2107
  757MOL0     C99796  10.070   1.401   5.561 -0.1809  0.6872 -0.2730
  757MOL0     C99797  10.016   1.523   5.572 -0.1511  0.0220  1.7630
  757MOL0     C99798   9.875   1.541   5.569  0.6336 -0.3242 -0.4387
  757MOL0     C99799   9.785   1.440   5.542  0.2722  0.2341 -0.1816
  757MOL0     O99800   9.656   1.458   5.533  0.7349  0.0951  0.2632
  757MOL0     C99801   9.599   1.573   5.472  0.3182  0.0154  0.0319
  757MOL0     C99802   9.449   1.540   5.483  0.2174 -0.1832  0.9543
  757MOL0     C99803   9.382   1.587   5.609 -1.0102  1.1266  0.2037
  757MOL0     C99804   9.361   1.737   5.604  0.8256  0.0107 -0.4839
  757MOL0     C99805   9.299   1.784   5.737  0.9763 -0.3312 -0.1399
  757MOL0     C99806   9.146   1.746   5.746  0.0438 -0.1456  0.2745
  757MOL0     C99807   9.085   1.809   5.870 -0.6346 -0.4291  0.6298
  757MOL0     C99808   8.949   1.752   5.897  0.2094 -0.3449  0.9488
  757MOL0     N99809   8.853   1.772   5.785  0.6351 -0.5971  0.3196
  757MOL0     C99810   8.756   1.874   5.777  0.2854  0.4009  1.0913
  757MOL0     C99811   8.695   1.837   5.659 -0.5618 -0.0307 -0.1882
  757MOL0     C99812   8.568   1.890   5.602 -0.0845  0.8043 -0.4127
  757MOL0     C99813   8.562   2.039   5.589  0.5026  0.3920 -1.1267
  757MOL0     C99814   8.407   2.076   5.565  0.3284  0.1856 -0.8073
  757MOL0     C99815   8.412   2.223   5.511  0.7443  0.6706  0.4759
  757MOL0     O99816   8.280   2.278   5.488 -0.3177  0.4341  0.2676
  757MOL0     C99817   8.223   2.363   5.580  0.7895 -0.7059 -0.1623
  757MOL0     C99818   8.169   2.480   5.533 -0.3897  0.1492 -0.9390
  757MOL0     C99819   8.101   2.566   5.613 -0.3218 -0.1914 -0.4050
  757MOL0     C99820   8.082   2.538   5.754 -0.3080  0.0967 -0.5104
  757MOL0     C99821   7.996   2.626   5.832 -0.6151  0.7816  0.3142
  757MOL0     O99822   7.943   2.559   5.938  0.0687 -0.2770  0.0949
  757MOL0     C99823   7.844   2.630   5.995  1.0330  0.4714 -0.0514
  757MOL0     C99824   7.710   2.570   5.983 -0.6772  0.9473  0.2250
  757MOL0     C99825   7.598   2.617   6.049 -0.8960 -1.3728 -0.1577
  757MOL0     C99826   7.605   2.738   6.127  0.6164  0.0107 -0.6168
  757MOL0     O99827   7.499   2.818   6.163  0.5902 -0.0511 -0.3199
  757MOL0     C99828   7.363   2.775   6.138 -0.8095  0.4577 -0.5597
  757MOL0     C99829   7.264   2.823   6.241  0.3006  0.5923  0.7576
  757MOL0     C99830   7.119   2.792   6.199 -0.7568  0.3490 -0.4607
  757MOL0     C99831   7.019   2.835   6.311  0.4525 -0.0775  0.5299
  757MOL0     C99832   6.879   2.843   6.241 -0.4281 -0.0801 -0.0933
  757MOL0     C99833   6.768   2.860   6.345  0.2604 -0.4594 -0.5106
  757MOL0     C99834   6.636   2.809   6.297  0.7579 -0.4968  0.0744
  757MOL0     C99835   6.531   2.881   6.384 -0.5267  0.3674 -0.2036
  757MOL0    Cl99836   6.364   2.830   6.327  0.3102  0.4787 -0.5787
  757MOL0     C99837   7.729   2.794   6.149  0.3517 -0.9736  0.3185
  757MOL0     C99838   7.838   2.743   6.075  0.5729  0.5114 -0.0100
  757MOL0     O99839   7.967   2.737   5.796  0.2840 -0.2571  0.3361
  757MOL0     C99840   8.134   2.411   5.795  0.2594  0.3230 -1.1693
  757MOL0     C99841   8.202   2.328   5.710  0.1523  1.0755  0.1001
  757MOL0     N99842   8.761   1.731   5.606 -0.0899  0.1128  0.4602
  757MOL0     N99843   8.852   1.689   5.680 -0.8196 -0.1181  0.3018
  757MOL0     C99844   9.837   1.311   5.541 -0.0395 -0.0966  0.6782
  757MOL0     C99845   9.979   1.294   5.548  0.8609  0.1284  0.0232
  757MOL0     C99846  10.411   1.386   5.649 -0.5812  0.3886  0.3070
  757MOL0     C99847  10.485   1.389   5.767  0.2359 -0.1283 -0.7975
  757MOL0     C99848  10.625   1.383   5.770  0.4681  0.0924 -0.1598
  757MOL0     C99849  10.696   1.385   5.646 -1.3674 -0.3346 -0.6984
  757MOL0     O99850  10.829   1.367   5.632 -0.6337 -0.5627  0.7681
  757MOL0     C99851  10.912   1.326   5.746 -1.1256 -0.7708 -0.0069
  757MOL0     C99852  11.063   1.312   5.706 -0.9730  0.0639 -0.7103
  757MOL0     C99853  11.121   1.446   5.665 -0.2230  0.2988 -0.0970
  757MOL0     C99854  11.255   1.441   5.609 -0.6127  0.8833 -0.1519
  757MOL0     C99855  11.352   1.404   5.722  0.4172 -0.1468 -0.4865
  757MOL0     C99856  11.437   1.374   5.810  0.2971 -0.1046  0.7759
  757MOL0     C99857  10.625   1.375   5.529 -0.3553 -0.7389 -0.6918
  757MOL0     C99858  10.481   1.381   5.528  0.1266 -0.2417  0.3911
  757MOL0     H99859  10.070   1.616   5.584 -0.9437  1.0742 -1.6258
  757MOL0     H99860   9.851   1.645   5.589  0.1903 -0.8737  2.1713
  757MOL0     H99861   9.627   1.566   5.367 -1.6324 -0.8325 -0.4685
  757MOL0     H99862   9.620   1.669   5.522 -1.2932  0.0729  0.6769
  757MOL0     H99863   9.434   1.433   5.466  1.4326 -0.2658  0.2499
  757MOL0     H99864   9.400   1.582   5.395 -2.5454  0.9407  2.8829
  757MOL0     H99865   9.442   1.559   5.696 -0.0425 -0.4927 -0.9280
  757MOL0     H99866   9.284   1.541   5.623 -0.5190 -0.3441 -0.9599
  757MOL0     H99867   9.457   1.789   5.595 -0.8421  3.5501  0.3156
  757MOL0     H99868   9.299   1.768   5.519 -0.7342 -4.2622 -1.1227
  757MOL0     H99869   9.316   1.892   5.741  2.0991 -0.4396 -1.2447
  757MOL0     H99870   9.341   1.738   5.828 -3.0752 -0.8420  1.6705
  757MOL0     H99871   9.131   1.638   5.743  0.1584 -0.1392 -0.6903
  757MOL0     H99872   9.098   1.781   5.654  0.6377 -2.2855 -0.9008
  757MOL0     H99873   9.157   1.786   5.949 -2.4809  2.1994  3.3120
  757MOL0     H99874   9.075   1.916   5.853  1.3614 -0.3835 -0.4664
  757MOL0     H99875   8.906   1.796   5.988  2.1435  2.9868  0.4063
  757MOL0     H99876   8.961   1.646   5.921 -0.3791 -0.2058  1.9159
  757MOL0     H99877   8.736   1.954   5.847  2.1468  1.7006  0.2003
  757MOL0     H99878   8.480   1.850   5.652 -2.1938  3.2409 -1.9108
  757MOL0     H99879   8.564   1.840   5.505 -0.3822 -2.6925  1.2237
  757MOL0     H99880   8.622   2.079   5.507  1.3169  0.9981 -0.2652
  757MOL0     H99881   8.599   2.089   5.679 -0.1885 -1.4627  0.2517
  757MOL0     H99882   8.356   2.022   5.484  0.1913  3.1212 -2.8641
  757MOL0     H99883   8.350   2.074   5.658  1.9540 -0.9739  0.2124
  757MOL0     H99884   8.462   2.231   5.414 -0.1761 -2.7683 -0.3902
  757MOL0     H99885   8.465   2.282   5.586  0.5932 -0.9577  1.9167
  757MOL0     H99886   8.188   2.501   5.428 -3.1383 -1.2358 -1.8109
  757MOL0     H99887   8.051   2.649   5.564 -0.4744 -1.7278 -3.0591
  757MOL0     H99888   7.707   2.477   5.928  1.0392  1.0874 -0.1625
  757MOL0     H99889   7.503   2.566   6.046 -0.1847 -2.8655  1.1739
  757MOL0     H99890   7.354   2.667   6.152 -0.4891  0.4696 -0.2464
  757MOL0     H99891   7.337   2.801   6.035  1.6311  2.7601 -0.7261
  757MOL0     H99892   7.272   2.932   6.241 -0.3963  0.6520  0.9493
  757MOL0     H99893   7.283   2.777   6.339  1.1305 -1.4441 -0.2994
  757MOL0     H99894   7.105   2.686   6.177 -1.9076  0.5824 -0.9015
  757MOL0     H99895   7.091   2.844   6.107 -1.6251 -0.9367 -0.9554
  757MOL0     H99896   7.025   2.763   6.392  2.8141  0.3755  0.8248
  757MOL0     H99897   7.043   2.930   6.360 -1.4861  1.2010 -0.8321
  757MOL0     H99898   6.876   2.760   6.171  0.7190 -0.2529  0.0330
  757MOL0     H99899   6.863   2.929   6.176  1.3918 -0.8536 -1.6602
  757MOL0     H99900   6.757   2.962   6.382 -1.7765 -1.0887  0.8288
  757MOL0     H99901   6.797   2.803   6.433 -0.1117 -2.4867 -1.6303
  757MOL0     H99902   6.618   2.827   6.191  2.6912 -1.4551 -0.4752
  757MOL0     H99903   6.611   2.703   6.307  0.6484 -0.4880 -0.1088
  757MOL0     H99904   6.538   2.990   6.376  1.0770  0.5708  2.6390
  757MOL0     H99905   6.542   2.875   6.493 -1.3570 -1.3612 -0.1793
  757MOL0     H99906   7.737   2.889   6.202 -0.4854 -0.5909 -0.2206
  757MOL0     H99907   7.936   2.788   6.085  1.6439 -1.1072 -2.3118
  757MOL0     H99908   8.117   2.386   5.899  0.2843 -2.5495 -1.7787
  757MOL0     H99909   8.228   2.227   5.739  0.6253  0.8486 -1.0291
  757MOL0     H99910   9.779   1.220   5.534  0.7874 -0.5609 -0.3541
  757MOL0     H99911  10.031   1.200   5.531  1.2484  0.0245  1.5868
  757MOL0     H99912  10.441   1.404   5.865  1.7279  1.0265 -0.2737
  757MOL0     H99913  10.675   1.381   5.867 -1.0619 -0.2357  0.6420
  757MOL0     H99914  10.867   1.237   5.790 -1.8108 -0.1129  0.6585
  757MOL0     H99915  10.896   1.410   5.814  1.1122 -1.7738  1.8778
  757MOL0     H99916  11.116   1.271   5.792 -1.0855  0.3066 -0.5251
  757MOL0     H99917  11.080   1.233   5.633 -0.3227  1.5389 -2.2391
  757MOL0     H99918  11.111   1.519   5.745 -3.9835 -2.1139  1.8993
  757MOL0     H99919  11.053   1.469   5.583 -2.0735 -2.4331  0.5443
  757MOL0     H99920  11.249   1.357   5.539 -0.9334 -0.9257  1.9729
  757MOL0     H99921  11.285   1.526   5.546 -0.9836  0.2490 -1.2056
  757MOL0     H99922  11.504   1.362   5.893  2.8881 -0.5125 -1.2609
  757MOL0     H99923  10.678   1.375   5.434  0.9232  0.1072 -0.0030
  757MOL0     H99924  10.438   1.380   5.428  2.0907  3.3048 -0.6315
  758MOL0     O99925   4.741   3.224   9.602 -0.4028 -0.5257 -0.1728
  758MOL0     C99926   4.833   3.274   9.664 -0.1748 -1.2269 -0.4868
  758MOL0     O99927   4.834   3.400   9.703  0.2293  0.0664 -0.0256
  758MOL0     C99928   4.721   3.470   9.670  0.5957 -0.8347  0.3608
  758MOL0     C99929   4.720   3.512   9.539 -0.2839 -0.1799  1.0834
  758MOL0     C99930   4.605   3.564   9.479 -0.5793 -0.5940 -0.7844
  758MOL0     C99931   4.491   3.574   9.558 -0.8392  0.7469  0.7338
  758MOL0     O99932   4.381   3.608   9.487 -0.7597  0.6204 -0.3410
  758MOL0     C99933   4.265   3.641   9.566  0.2170  0.9716 -0.1620
  758MOL0     C99934   4.150   3.671   9.465 -0.8943 -0.7043 -0.3664
  758MOL0     C99935   4.177   3.795   9.379 -0.3582  1.1213  0.0835
  758MOL0     C99936   4.065   3.819   9.272  0.2556  0.1616 -0.0854
  758MOL0     C99937   3.921   3.852   9.325 -0.2915 -0.3507  0.7113
  758MOL0     C99938   3.908   3.962   9.437  0.0042  1.3778 -0.1469
  758MOL0     C99939   3.774   4.021   9.425  0.4748  0.1713 -0.6225
  758MOL0     C99940   3.662   3.939   9.498  0.4134 -0.2206 -0.1534
  758MOL0     N99941   3.543   4.021   9.494 -0.2569  0.4384 -0.6032
  758MOL0     C99942   3.489   4.094   9.394 -0.0062 -1.1757 -0.1368
  758MOL0     C99943   3.365   4.145   9.434 -1.0545  0.3808  0.1163
  758MOL0     C99944   3.257   4.218   9.367  0.3577  0.3647  0.7151
  758MOL0     C99945   3.262   4.208   9.211 -0.6502 -0.0318 -0.0575
  758MOL0     C99946   3.342   4.331   9.146  0.6930  0.1136 -0.6925
  758MOL0     C99947   3.368   4.304   9.000  0.1636 -0.2004 -0.9703
  758MOL0     O99948   3.465   4.201   8.977  0.1048 -0.8497 -0.0856
  758MOL0     C99949   3.536   4.235   8.859  1.4646 -0.1726 -0.5399
  758MOL0     C99950   3.665   4.221   8.866 -1.5740 -0.1089  0.4136
  758MOL0     C99951   3.743   4.245   8.752 -0.4619  0.2923  0.0586
  758MOL0     C99952   3.693   4.279   8.629  1.1040  0.2382 -0.2903
  758MOL0     C99953   3.786   4.296   8.508 -0.2668  0.0662  0.0206
  758MOL0     O99954   3.915   4.253   8.527  0.5785 -0.0489  0.0829
  758MOL0     C99955   3.992   4.236   8.416  0.4357 -1.1795  0.5418
  758MOL0     C99956   3.996   4.312   8.302 -0.1399 -0.7614  0.2910
  758MOL0     C99957   4.090   4.278   8.205  0.4512  0.2948 -0.0765
  758MOL0     C99958   4.195   4.179   8.216  0.1091 -0.4769 -0.4005
  758MOL0     O99959   4.301   4.166   8.135 -0.3487 -0.1346  0.4037
  758MOL0     C99960   4.342   4.276   8.053 -1.0018 -0.0901 -0.0056
  758MOL0     C99961   4.491   4.271   7.992 -0.5283  0.1683 -0.5243
  758MOL0     C99962   4.593   4.229   8.101  0.7348 -0.6143  0.5385
  758MOL0     C99963   4.738   4.248   8.064 -0.9001  0.7538 -0.4394
  758MOL0     C99964   4.848   4.186   8.167 -0.3011 -0.2958 -0.3375
  758MOL0     C99965   4.990   4.222   8.132 -0.1377 -0.1192  0.2443
  758MOL0     C99966   5.037   4.371   8.139  0.4310  0.6132 -0.3494
  758MOL0     C99967   5.187   4.360   8.163 -0.0743  0.3148  0.4523
  758MOL0    Cl99968   5.271   4.514   8.116 -0.2323 -0.5649 -0.1723
  758MOL0     C99969   4.181   4.098   8.325 -0.4943  0.9459 -0.0784
  758MOL0     C99970   4.084   4.130   8.422 -0.6596  0.4137  0.1519
  758MOL0     O99971   3.733   4.317   8.401  1.0202 -0.0316  1.1352
  758MOL0     C99972   3.555   4.294   8.625  0.3740 -0.6693 -0.0269
  758MOL0     C99973   3.475   4.268   8.730 -0.6324  0.1454 -0.7441
  758MOL0     N99974   3.353   4.097   9.562  0.1198 -0.1801 -0.3930
  758MOL0     N99975   3.456   4.022   9.598  0.0503 -0.1326  0.1768
  758MOL0     C99976   4.487   3.536   9.691  0.3154 -0.8924  0.2558
  758MOL0     C99977   4.604   3.492   9.748 -0.3863 -0.0261 -0.5804
  758MOL0     C99978   4.948   3.196   9.699 -0.8404 -0.3665 -0.1533
  758MOL0     C99979   5.060   3.252   9.766  1.1244  0.1330  0.4170
  758MOL0     C99980   5.159   3.171   9.817 -0.1622 -0.5782 -0.9968
  758MOL0     C99981   5.170   3.039   9.791 -0.4574 -0.6130 -0.0919
  758MOL0     O99982   5.272   2.950   9.834  0.3324 -1.1432  0.1412
  758MOL0     C99983   5.399   3.009   9.877 -0.8377 -0.3463  0.8844
  758MOL0     C99984   5.515   2.915   9.874 -0.7636 -0.2582  0.8934
  758MOL0     C99985   5.650   2.986   9.893  0.1183 -0.4402 -1.0354
  758MOL0     C99986   5.700   3.060   9.772  0.1707  0.5585  0.0814
  758MOL0     C99987   5.733   2.970   9.655 -0.9940  0.5946  0.5169
  758MOL0     C99988   5.730   2.905   9.554 -0.1863 -0.0292  0.0413
  758MOL0     C99989   5.068   2.985   9.719 -0.0473  0.3262 -0.0485
  758MOL0     C99990   4.957   3.059   9.671  0.1417 -0.4656 -0.1556
  758MOL0     H99991   4.816   3.494   9.491 -1.5177  0.5041 -1.8308
  758MOL0     H99992   4.588   3.589   9.374 -4.8495 -0.5160 -0.2653
  758MOL0     H99993   4.288   3.732   9.623  2.1305  0.4791 -0.0701
  758MOL0     H99994   4.221   3.563   9.629 -0.3563  1.2174 -0.2476
  758MOL0     H99995   4.054   3.687   9.515 -0.5003 -1.1423  0.5505
  758MOL0     H99996   4.134   3.585   9.400  0.9675 -2.5592  1.4533
  758MOL0     H99997   4.273   3.790   9.326 -0.6890  0.3898 -0.4683
  758MOL0     H99998   4.183   3.878   9.450 -0.4195 -0.3835  1.8972
  758MOL0     H99999   4.096   3.898   9.204 -0.6927 -1.7711 -2.9664
  758MOL0     H    0   4.061   3.729   9.209  1.2956 -0.9201  1.3008
  758MOL0     H    1   3.869   3.760   9.352 -0.8990  0.6123  3.0898
  758MOL0     H    2   3.857   3.887   9.243  0.0093 -2.3308 -0.4335
  758MOL0     H    3   3.971   4.043   9.401  0.6381  0.5982 -0.8504
  758MOL0     H    4   3.928   3.926   9.539 -1.4721 -0.9280 -0.5939
  758MOL0     H    5   3.768   4.127   9.452 -0.7974 -0.1572  0.5080
  758MOL0     H    6   3.744   4.023   9.320  2.0921  1.4556 -1.1034
  758MOL0     H    7   3.692   3.905   9.598  2.7610 -2.2668 -1.4461
  758MOL0     H    8   3.635   3.854   9.435 -1.4224 -0.5884  1.0655
  758MOL0     H    9   3.529   4.119   9.297 -0.7251  2.1030  0.2936
  758MOL0     H   10   3.261   4.325   9.390 -3.9072  0.7157  0.6929
  758MOL0     H   11   3.163   4.180   9.408 -0.4990 -1.3228 -2.4621
  758MOL0     H   12   3.160   4.214   9.173  0.0607  1.1207 -1.8894
  758MOL0     H   13   3.305   4.118   9.166 -2.7746 -0.0034 -2.3875
  758MOL0     H   14   3.280   4.421   9.148  0.2712 -0.0771 -2.8186
  758MOL0     H   15   3.435   4.352   9.200 -0.7659  0.3778  1.9038
  758MOL0     H   16   3.404   4.401   8.964 -4.1570  1.7066 -0.8282
  758MOL0     H   17   3.277   4.275   8.946  0.2552 -0.8725 -0.7751
  758MOL0     H   18   3.714   4.189   8.957 -1.6615 -0.9950  0.1586
  758MOL0     H   19   3.851   4.233   8.762 -0.2171  1.9727 -0.2279
  758MOL0     H   20   3.923   4.390   8.287  0.1722 -0.3146  1.0540
  758MOL0     H   21   4.092   4.341   8.117  0.8553  2.5913  1.4689
  758MOL0     H   22   4.342   4.371   8.108 -1.1925  0.3328 -0.7305
  758MOL0     H   23   4.281   4.283   7.963  0.6794 -1.0862 -1.2971
  758MOL0     H   24   4.519   4.372   7.958 -3.7229  0.6424 -2.1610
  758MOL0     H   25   4.489   4.206   7.904 -0.7924  1.0417 -1.1871
  758MOL0     H   26   4.578   4.128   8.141  1.4894  0.2845  3.3050
  758MOL0     H   27   4.576   4.296   8.185  0.2841 -1.4266  1.1168
  758MOL0     H   28   4.766   4.215   7.963 -3.6856  0.0174 -1.0644
  758MOL0     H   29   4.746   4.357   8.057 -1.2899  0.7129 -1.8749
  758MOL0     H   30   4.843   4.077   8.163  3.0150 -0.5977  0.8579
  758MOL0     H   31   4.830   4.218   8.270  1.7792 -3.4196  1.1499
  758MOL0     H   32   5.007   4.199   8.026  0.5992  0.2040  0.2904
  758MOL0     H   33   5.048   4.168   8.208 -1.2217 -0.2882  0.9810
  758MOL0     H   34   5.012   4.433   8.052  2.7626  2.8554  0.4404
  758MOL0     H   35   5.000   4.429   8.224  1.6495 -0.9355  1.3178
  758MOL0     H   36   5.234   4.283   8.101 -2.0040 -0.2923 -0.3554
  758MOL0     H   37   5.197   4.336   8.269 -1.6207 -3.5621 -0.1031
  758MOL0     H   38   4.255   4.020   8.333 -1.7635 -0.1631  1.7265
  758MOL0     H   39   4.096   4.074   8.515  3.0358 -0.4051 -0.6324
  758MOL0     H   40   3.511   4.322   8.530 -3.1245 -3.6111  0.5081
  758MOL0     H   41   3.366   4.265   8.724 -0.9151  0.5952  2.4495
  758MOL0     H   42   4.405   3.548   9.761  0.8505  0.8924  0.6263
  758MOL0     H   43   4.628   3.480   9.853  2.4341  0.7183 -1.0737
  758MOL0     H   44   5.055   3.354   9.802 -2.2399 -0.4170  1.9977
  758MOL0     H   45   5.228   3.222   9.883 -0.3136  0.4601 -1.6155
  758MOL0     H   46   5.386   3.062   9.972 -3.3978 -1.5530  1.2841
  758MOL0     H   47   5.420   3.091   9.807 -1.9665 -1.9898 -1.5241
  758MOL0     H   48   5.498   2.843   9.955 -2.9848 -1.6969 -0.7331
  758MOL0     H   49   5.510   2.850   9.786 -2.3902  0.2325  0.6004
  758MOL0     H   50   5.717   2.907   9.927 -1.0360  0.2533  3.5995
  758MOL0     H   51   5.633   3.056   9.975  0.0931 -0.0274 -1.3874
  758MOL0     H   52   5.622   3.133   9.749  1.7563  2.9727  1.8504
  758MOL0     H   53   5.788   3.112   9.811 -0.2745 -2.3328  6.1000
  758MOL0     H   54   5.720   2.837   9.472 -1.0254  1.5489 -1.2299
  758MOL0     H   55   5.074   2.880   9.693  1.7532  0.6518 -1.0866
  758MOL0     H   56   4.876   3.012   9.615 -0.0103 -0.8980  0.4173
  759MOL0     O   57  10.355   1.187   0.712 -0.2600 -1.2064  0.2013
  759MOL0     C   58  10.402   1.092   0.779  0.0206  0.9171 -1.1003
  759MOL0     O   59  10.330   0.980   0.814 -0.4863 -1.1524  0.6923
  759MOL0     C   60  10.202   0.958   0.776 -0.2524  0.0853 -0.1512
  759MOL0     C   61  10.095   1.052   0.778 -0.9704 -0.0052 -0.2227
  759MOL0     C   62   9.967   1.023   0.738 -0.0351  0.3738 -0.3055
  759MOL0     C   63   9.936   0.889   0.701  0.5393 -0.7611 -0.0808
  759MOL0     O   64   9.792   0.867   0.689  0.0209  0.5109 -1.1737
  759MOL0     C   65   9.736   0.743   0.646 -0.8286  0.2126  0.9338
  759MOL0     C   66   9.592   0.755   0.593 -0.1269  0.7654 -0.2939
  759MOL0     C   67   9.531   0.618   0.568  0.5020 -0.3319 -0.1911
  759MOL0     C   68   9.381   0.615   0.531  0.3687  0.3729  0.0690
  759MOL0     C   69   9.355   0.478   0.468  0.6114 -0.2624 -0.1743
  759MOL0     C   70   9.339   0.369   0.569 -0.3055  1.3257  0.5367
  759MOL0     C   71   9.290   0.243   0.511  0.2724  0.0314  0.5791
  759MOL0     C   72   9.238   0.142   0.601  0.4074 -0.2413 -0.6828
  759MOL0     N   73   9.153   0.040   0.526 -0.2665 -0.1665  0.4783
  759MOL0     C   74   9.205  -0.078   0.469  0.1903  0.9158  0.2608
  759MOL0     C   75   9.109  -0.137   0.400 -0.5763  0.6521  0.4659
  759MOL0     C   76   9.102  -0.277   0.323  0.5668 -0.7853 -0.1712
  759MOL0     C   77   9.017  -0.382   0.389  0.4350  0.3616 -0.6170
  759MOL0     C   78   8.865  -0.371   0.344  0.8265  0.5385 -0.4564
  759MOL0     C   79   8.783  -0.447   0.454  0.0568 -0.2763 -0.7698
  759MOL0     O   80   8.707  -0.551   0.389  0.6852 -0.8803  0.4665
  759MOL0     C   81   8.598  -0.511   0.310  0.5284  1.1227 -0.0667
  759MOL0     C   82   8.487  -0.443   0.352  0.3495  0.1019 -0.6178
  759MOL0     C   83   8.371  -0.424   0.272  0.4188  0.0116 -0.5093
  759MOL0     C   84   8.370  -0.464   0.135  0.2296  0.4785  0.7822
  759MOL0     C   85   8.261  -0.428   0.042  0.8031  0.1186 -0.3407
  759MOL0     O   86   8.159  -0.360   0.101  0.1341  0.1489 -0.0053
  759MOL0     C   87   8.034  -0.358   0.049 -0.1236 -0.9922  0.4159
  759MOL0     C   88   7.965  -0.472   0.014  0.1273  0.0769 -0.6688
  759MOL0     C   89   7.833  -0.470  -0.034  0.0312 -0.5151  0.2194
  759MOL0     C   90   7.768  -0.345  -0.063 -0.5293  0.1105  0.6911
  759MOL0     O   91   7.637  -0.331  -0.106 -0.5111  0.6446  0.5831
  759MOL0     C   92   7.613  -0.404  -0.224 -0.1524  0.4402  0.3597
  759MOL0     C   93   7.620  -0.314  -0.354 -0.4881 -0.8053 -0.1532
  759MOL0     C   94   7.756  -0.239  -0.377  0.0006  0.7206  0.3023
  759MOL0     C   95   7.885  -0.325  -0.403  0.5527  0.1441 -0.2125
  759MOL0     C   96   8.006  -0.242  -0.463  1.0729 -0.3747 -0.7191
  759MOL0     C   97   8.096  -0.330  -0.555 -0.2094 -1.2850 -0.4938
  759MOL0     C   98   8.164  -0.447  -0.484 -0.0682  0.0311  0.2583
  759MOL0     C   99   8.206  -0.564  -0.566  0.5906 -0.0228  1.4157
  759MOL0    Cl  100   8.056  -0.630  -0.653 -0.2936  0.5110  0.1073
  759MOL0     C  101   7.842  -0.227  -0.037  0.4692 -0.2271  0.0429
  759MOL0     C  102   7.976  -0.237   0.015  0.6006 -0.6570  0.6031
  759MOL0     O  103   8.263  -0.484  -0.063 -0.2375 -0.8809  0.2976
  759MOL0     C  104   8.482  -0.536   0.087 -0.1954 -0.3012 -0.6348
  759MOL0     C  105   8.593  -0.556   0.173 -0.6435 -0.4952  0.4022
  759MOL0     N  106   9.004  -0.052   0.402  0.7727  0.9480 -0.8857
  759MOL0     N  107   9.026   0.049   0.474  0.6140 -0.0638 -0.0330
  759MOL0     C  108  10.032   0.785   0.703  0.0172 -1.0510  0.0399
  759MOL0     C  109  10.165   0.821   0.745  0.6586 -0.4364  0.5805
  759MOL0     C  110  10.546   1.098   0.804  0.1011 -0.0392 -0.3846
  759MOL0     C  111  10.598   1.020   0.906 -0.2686  0.0115  0.8379
  759MOL0     C  112  10.733   1.026   0.927  0.6421  0.2062 -0.0193
  759MOL0     C  113  10.819   1.104   0.846  0.0571  0.1110  0.5059
  759MOL0     O  114  10.955   1.112   0.858 -0.3423  0.2825  0.2404
  759MOL0     C  115  11.014   1.032   0.962  0.5836  0.0989 -0.4729
  759MOL0     C  116  11.019   1.098   1.098  0.2412 -0.1260 -1.1088
  759MOL0     C  117  11.122   1.214   1.115  0.4150  0.8801 -0.7236
  759MOL0     C  118  11.101   1.286   1.249 -1.2278 -0.1449 -0.3985
  759MOL0     C  119  11.137   1.214   1.376  0.7516  0.7287  0.1622
  759MOL0     C  120  11.154   1.139   1.474 -1.2480  0.3048  0.2153
  759MOL0     C  121  10.770   1.172   0.738  0.5121  0.3989  0.2949
  759MOL0     C  122  10.629   1.169   0.724 -0.6178 -0.3951  0.2561
  759MOL0     H  123  10.116   1.147   0.824 -2.3227  1.0894 -1.7504
  759MOL0     H  124   9.901   1.108   0.723  0.8853  0.9934 -0.9470
  759MOL0     H  125   9.743   0.665   0.722  0.8252 -0.0125  0.5828
  759MOL0     H  126   9.792   0.698   0.563 -0.0181 -1.8495  2.4967
  759MOL0     H  127   9.601   0.812   0.500  3.0407  1.1882  0.1560
  759MOL0     H  128   9.527   0.813   0.659  0.0471  1.7059 -0.9209
  759MOL0     H  129   9.540   0.563   0.663 -3.3026 -2.3662 -0.8131
  759MOL0     H  130   9.591   0.582   0.484 -4.2219  2.0365 -5.1687
  759MOL0     H  131   9.320   0.629   0.620  0.8561 -3.1656  1.0911
  759MOL0     H  132   9.346   0.683   0.452 -0.8824  0.3999  0.6329
  759MOL0     H  133   9.428   0.459   0.389  1.2802  1.5949 -0.0573
  759MOL0     H  134   9.258   0.490   0.418  0.2084 -0.1207  0.6185
  759MOL0     H  135   9.269   0.397   0.648 -1.5327  0.1249 -0.0756
  759MOL0     H  136   9.432   0.355   0.626 -0.1018 -1.7199 -0.3778
  759MOL0     H  137   9.205   0.267   0.447  2.1577  1.0696 -1.6901
  759MOL0     H  138   9.357   0.207   0.432 -2.3533 -3.8574 -0.1861
  759MOL0     H  139   9.177   0.188   0.679  3.3931 -0.9621  2.2818
  759MOL0     H  140   9.327   0.096   0.645 -0.1708  0.7776  1.7115
  759MOL0     H  141   9.297  -0.129   0.497  1.0838  2.1105 -0.4293
  759MOL0     H  142   9.206  -0.309   0.323  0.6986 -0.3668  0.0911
  759MOL0     H  143   9.082  -0.273   0.215  0.0140 -0.5014 -0.0645
  759MOL0     H  144   9.013  -0.375   0.498  0.5168 -0.0283 -0.5893
  759MOL0     H  145   9.061  -0.479   0.365  0.7620  0.9818 -2.7843
  759MOL0     H  146   8.839  -0.265   0.338  1.9558  1.1263  3.0230
  759MOL0     H  147   8.862  -0.421   0.247  4.8425 -1.7990  0.3909
  759MOL0     H  148   8.719  -0.379   0.512  2.0291  1.9778 -1.0607
  759MOL0     H  149   8.845  -0.501   0.525  0.4698  0.3976 -0.6128
  759MOL0     H  150   8.492  -0.402   0.453 -0.7805  0.0549 -0.5324
  759MOL0     H  151   8.283  -0.372   0.308  1.4048  0.9618  0.6512
  759MOL0     H  152   8.008  -0.571   0.023  1.6936  0.7099 -0.8382
  759MOL0     H  153   7.774  -0.556  -0.067  1.3529 -1.0128 -0.9671
  759MOL0     H  154   7.514  -0.452  -0.227 -0.3105  0.7801 -0.0034
  759MOL0     H  155   7.684  -0.485  -0.241 -1.6766 -0.9692  0.4581
  759MOL0     H  156   7.555  -0.227  -0.342  1.1121  0.6255 -1.4127
  759MOL0     H  157   7.611  -0.382  -0.440 -0.3182 -0.8711 -0.1184
  759MOL0     H  158   7.773  -0.175  -0.290  0.4091  1.7832 -0.5298
  759MOL0     H  159   7.736  -0.168  -0.458  0.4206  0.7545  0.2255
  759MOL0     H  160   7.919  -0.380  -0.314  1.3613 -1.4588 -1.4583
  759MOL0     H  161   7.866  -0.398  -0.482  2.0954 -0.4148 -0.1144
  759MOL0     H  162   8.067  -0.201  -0.382  1.3235 -0.1866 -0.9979
  759MOL0     H  163   7.973  -0.158  -0.525 -0.0628 -0.0829  0.2615
  759MOL0     H  164   8.169  -0.265  -0.603 -1.1341  0.4991  0.3953
  759MOL0     H  165   8.041  -0.365  -0.644  2.4329 -1.6500 -2.0725
  759MOL0     H  166   8.248  -0.411  -0.424 -0.1269 -1.9393  1.5939
  759MOL0     H  167   8.102  -0.485  -0.402  0.2781 -1.8862 -0.3232
  759MOL0     H  168   8.236  -0.647  -0.501  1.4610  0.5878  1.8195
  759MOL0     H  169   8.287  -0.535  -0.634 -0.0063  0.6347  0.9718
  759MOL0     H  170   7.803  -0.126  -0.045 -3.2634 -1.5234 -0.1378
  759MOL0     H  171   8.032  -0.145   0.029  1.4523 -1.2468  1.1478
  759MOL0     H  172   8.490  -0.575  -0.013 -0.2701 -0.5238 -0.5548
  759MOL0     H  173   8.669  -0.626   0.140  0.1049 -0.0713  1.2003
  759MOL0     H  174  10.006   0.680   0.697 -0.4438 -0.9628  0.4681
  759MOL0     H  175  10.249   0.752   0.743  0.7899 -0.2608 -0.5901
  759MOL0     H  176  10.537   0.957   0.970  0.3787 -0.3430  1.1257
  759MOL0     H  177  10.766   0.971   1.015 -1.2615  0.0515  0.6359
  759MOL0     H  178  11.117   1.012   0.931 -0.0809 -3.0082 -0.9810
  759MOL0     H  179  10.962   0.937   0.974 -0.0230  0.5012  0.1747
  759MOL0     H  180  10.920   1.130   1.131  0.6258  0.2911 -0.3257
  759MOL0     H  181  11.046   1.013   1.160 -2.1134 -1.0183 -1.2345
  759MOL0     H  182  11.111   1.284   1.032  0.5047  3.3278  1.2296
  759MOL0     H  183  11.225   1.178   1.105  1.3013  3.1156 -0.2364
  759MOL0     H  184  11.159   1.379   1.240 -3.9337  1.6668 -0.2723
  759MOL0     H  185  10.995   1.310   1.266 -1.1045 -0.9041  1.8422
  759MOL0     H  186  11.176   1.085   1.564  0.1716 -0.9725 -0.8503
  759MOL0     H  187  10.834   1.241   0.684  1.4443 -2.7912 -3.0642
  759MOL0     H  188  10.587   1.221   0.639  0.7510  1.1711  0.4939
  760MOL0     O  189   9.413   0.954   5.855 -0.0748  0.1471  0.0726
  760MOL0     C  190   9.443   1.002   5.747 -0.8427 -0.2078 -1.3720
  760MOL0     O  191   9.370   1.091   5.680 -0.6872 -0.1179  0.2937
  760MOL0     C  192   9.238   1.105   5.723  0.5270  0.5208 -1.1950
  760MOL0     C  193   9.205   1.218   5.790 -0.0130  0.7985 -0.1776
  760MOL0     C  194   9.081   1.238   5.847  0.2812  0.8577  0.5783
  760MOL0     C  195   8.979   1.135   5.826 -0.3329  0.1077  0.2209
  760MOL0     O  196   8.852   1.140   5.869  0.1948 -0.5706 -0.0483
  760MOL0     C  197   8.799   1.261   5.927  0.0411  0.4113 -0.8608
  760MOL0     C  198   8.652   1.227   5.955 -0.3211  1.0996 -1.2657
  760MOL0     C  199   8.559   1.338   6.002 -0.1650  0.0809 -0.6818
  760MOL0     C  200   8.435   1.279   6.072 -0.8042  0.4946 -0.0836
  760MOL0     C  201   8.314   1.374   6.080  0.8435 -0.1486 -0.3792
  760MOL0     C  202   8.183   1.292   6.118 -0.0605 -0.8118  0.3083
  760MOL0     C  203   8.052   1.373   6.137  0.3488 -0.0400 -0.6514
  760MOL0     C  204   8.006   1.454   6.008  0.0896  0.1326 -0.2230
  760MOL0     N  205   7.873   1.523   6.037  0.4616 -0.3606 -0.2866
  760MOL0     C  206   7.740   1.477   6.030  0.6255  0.8071  0.5879
  760MOL0     C  207   7.668   1.577   6.089  0.5117 -0.4820 -0.3597
  760MOL0     C  208   7.522   1.588   6.096  0.3271 -0.3123 -0.1186
  760MOL0     C  209   7.461   1.728   6.074  0.0027 -0.4486 -0.4701
  760MOL0     C  210   7.518   1.811   5.954  0.0563  1.0649 -0.1068
  760MOL0     C  211   7.463   1.761   5.817 -0.3062  0.5850  0.1155
  760MOL0     O  212   7.522   1.641   5.767 -0.1924  0.1950 -0.7848
  760MOL0     C  213   7.648   1.633   5.725 -0.1258 -1.0142 -0.1328
  760MOL0     C  214   7.707   1.505   5.721 -0.8310  0.8816 -0.1240
  760MOL0     C  215   7.841   1.495   5.677 -0.0627  0.1716 -1.3391
  760MOL0     C  216   7.926   1.608   5.662  0.2768 -0.4277 -0.3054
  760MOL0     C  217   8.064   1.600   5.616 -0.0711 -0.1212 -0.4962
  760MOL0     O  218   8.119   1.487   5.637  0.1854 -0.4433 -0.1478
  760MOL0     C  219   8.251   1.463   5.616  0.2875 -0.1402 -0.0971
  760MOL0     C  220   8.353   1.547   5.596 -0.5979  0.5900 -0.1080
  760MOL0     C  221   8.484   1.496   5.578 -1.1918  0.0479 -0.6493
  760MOL0     C  222   8.511   1.358   5.577  0.6035  0.7849 -0.5899
  760MOL0     O  223   8.630   1.302   5.553 -1.0512  0.1193  0.2090
  760MOL0     C  224   8.747   1.378   5.514  0.9288 -0.0728  0.4020
  760MOL0     C  225   8.861   1.292   5.544  0.7718  0.3442  0.4528
  760MOL0     C  226   9.011   1.344   5.508  1.0384 -0.1166 -0.0975
  760MOL0     C  227   9.024   1.349   5.363  0.1336  0.1708 -0.0892
  760MOL0     C  228   9.172   1.396   5.321  0.1193 -0.5587  0.6110
  760MOL0     C  229   9.178   1.399   5.165 -0.0536  0.4155  0.6477
  760MOL0     C  230   9.313   1.453   5.113 -0.9828 -0.0646  1.4947
  760MOL0     C  231   9.307   1.491   4.957  0.5006 -0.5403 -0.4286
  760MOL0    Cl  232   9.267   1.342   4.876  0.6549  0.3879 -0.3049
  760MOL0     C  233   8.400   1.264   5.608  0.2689  0.2094 -0.5113
  760MOL0     C  234   8.270   1.318   5.623 -0.1474 -1.1749  0.3753
  760MOL0     O  235   8.113   1.702   5.564 -0.0825 -0.7866 -0.2667
  760MOL0     C  236   7.858   1.731   5.671  0.2411 -0.1546  0.0977
  760MOL0     C  237   7.729   1.751   5.705  0.3078 -0.3860 -0.1746
  760MOL0     N  238   7.758   1.682   6.125 -0.2871  0.7422 -0.0852
  760MOL0     N  239   7.878   1.643   6.100  0.6105  0.0950  0.2072
  760MOL0     C  240   9.009   1.023   5.756 -0.1364 -0.5375 -0.1119
  760MOL0     C  241   9.144   1.003   5.710 -0.0562  0.6157  0.3063
  760MOL0     C  242   9.580   0.984   5.705  0.7639  0.7293 -0.3756
  760MOL0     C  243   9.682   0.954   5.794  0.8291  0.4027 -0.1713
  760MOL0     C  244   9.813   0.932   5.739 -0.3599 -0.4938  0.0487
  760MOL0     C  245   9.843   0.945   5.603  0.3065  0.2131  0.9984
  760MOL0     O  246   9.962   0.887   5.560  0.4733  0.7876 -0.4419
  760MOL0     C  247   9.997   0.903   5.428  0.5381  1.0280  1.0109
  760MOL0     C  248  10.149   0.899   5.383 -0.5138  0.2460 -0.1830
  760MOL0     C  249  10.197   0.759   5.400 -0.0353 -0.1381 -0.6553
  760MOL0     C  250  10.347   0.760   5.373  0.1167  0.0678  0.0469
  760MOL0     C  251  10.362   0.744   5.224 -0.6241 -0.7531 -0.8620
  760MOL0     C  252  10.366   0.742   5.101  0.1211  0.0028 -0.3182
  760MOL0     C  253   9.738   0.977   5.510 -0.2645 -0.1291  0.9194
  760MOL0     C  254   9.608   1.000   5.562 -0.2027  0.2194 -0.2898
  760MOL0     H  255   9.285   1.291   5.800  0.2297  0.6549 -0.9855
  760MOL0     H  256   9.051   1.334   5.888  1.3594  1.8534 -0.8783
  760MOL0     H  257   8.812   1.351   5.867 -0.6001  1.2885  0.2804
  760MOL0     H  258   8.857   1.282   6.018  0.4729 -0.2116 -0.9804
  760MOL0     H  259   8.652   1.141   6.023 -0.7868  0.1145 -2.4725
  760MOL0     H  260   8.604   1.182   5.868 -2.5063 -0.9331  0.8393
  760MOL0     H  261   8.535   1.405   5.919 -1.4542  1.1283  0.4622
  760MOL0     H  262   8.603   1.402   6.080 -2.2496  0.1031  0.5724
  760MOL0     H  263   8.407   1.193   6.010 -0.3475  1.1208 -1.1866
  760MOL0     H  264   8.457   1.249   6.175 -1.4576 -1.9389 -0.6002
  760MOL0     H  265   8.311   1.437   5.990 -0.4905  1.9805  1.0533
  760MOL0     H  266   8.321   1.442   6.166  0.1423 -1.6564  0.9332
  760MOL0     H  267   8.212   1.248   6.214 -5.0258  0.1678  2.5536
  760MOL0     H  268   8.169   1.213   6.044 -1.6557  0.6306 -0.9860
  760MOL0     H  269   7.968   1.312   6.171  0.2146 -0.0941 -1.0748
  760MOL0     H  270   8.064   1.437   6.225  0.5783  0.2498 -0.8923
  760MOL0     H  271   8.001   1.382   5.926 -0.7844  1.4115 -1.3130
  760MOL0     H  272   8.081   1.531   5.989  1.7465 -1.7715 -1.9312
  760MOL0     H  273   7.694   1.391   5.983  1.0308  0.1484  1.3752
  760MOL0     H  274   7.493   1.555   6.197  0.5723  2.2988  0.8795
  760MOL0     H  275   7.471   1.522   6.026 -1.8133 -0.5209  1.5362
  760MOL0     H  276   7.478   1.782   6.167  0.3359 -0.2917 -0.6208
  760MOL0     H  277   7.352   1.742   6.069 -0.3412 -1.3842  2.5837
  760MOL0     H  278   7.493   1.917   5.959 -0.0914  1.1501 -2.0839
  760MOL0     H  279   7.627   1.809   5.963 -0.0893 -1.2111  4.6469
  760MOL0     H  280   7.459   1.842   5.744  2.9458 -0.2417 -1.1220
  760MOL0     H  281   7.356   1.748   5.837 -0.8645  2.3848 -1.4278
  760MOL0     H  282   7.652   1.413   5.735  1.5805 -0.5314  0.6097
  760MOL0     H  283   7.872   1.391   5.669 -0.6668 -0.1945  0.6173
  760MOL0     H  284   8.343   1.655   5.585  0.9969  0.5873 -2.1810
  760MOL0     H  285   8.560   1.572   5.563 -0.9034  0.0043  0.4788
  760MOL0     H  286   8.757   1.467   5.576  0.3822  0.7548 -0.6788
  760MOL0     H  287   8.744   1.387   5.405  1.5970  0.6439  0.4391
  760MOL0     H  288   8.848   1.191   5.503 -1.8810  0.3573  1.1357
  760MOL0     H  289   8.856   1.279   5.652 -0.5306  1.3003  0.5294
  760MOL0     H  290   9.091   1.283   5.550 -0.6300 -2.5755 -0.3346
  760MOL0     H  291   9.020   1.437   5.566 -0.5455 -0.3577  0.5688
  760MOL0     H  292   8.987   1.258   5.314  0.1380 -0.2397  0.6545
  760MOL0     H  293   8.957   1.423   5.319  1.7201  1.7274  0.0208
  760MOL0     H  294   9.246   1.323   5.355  0.5416 -0.2625  0.3377
  760MOL0     H  295   9.204   1.492   5.363  2.3858 -2.1019  2.7059
  760MOL0     H  296   9.090   1.452   5.128  0.1326 -1.2081 -2.5094
  760MOL0     H  297   9.161   1.296   5.131  1.9063  0.6769 -1.3938
  760MOL0     H  298   9.344   1.539   5.173 -0.5564 -0.5956  2.0548
  760MOL0     H  299   9.384   1.370   5.126 -1.8606 -0.5281  3.9547
  760MOL0     H  300   9.397   1.523   4.904  0.8210 -1.2269 -0.3038
  760MOL0     H  301   9.230   1.565   4.933  1.3875  0.0150 -1.6630
  760MOL0     H  302   8.409   1.156   5.616  0.7214  0.0581 -2.6348
  760MOL0     H  303   8.189   1.249   5.643 -1.1353 -0.1234  0.0857
  760MOL0     H  304   7.922   1.814   5.640 -1.1544  0.5255 -1.0499
  760MOL0     H  305   7.684   1.848   5.721  1.1668 -0.3508  2.6916
  760MOL0     H  306   8.933   0.947   5.741 -2.1443  1.4408 -0.4875
  760MOL0     H  307   9.152   0.909   5.656 -4.8910 -0.2727  0.7265
  760MOL0     H  308   9.670   0.919   5.896  1.3979 -2.7906 -1.0774
  760MOL0     H  309   9.883   0.886   5.808 -1.0716 -2.4387 -0.4481
  760MOL0     H  310   9.963   1.003   5.400  3.1528  1.6987 -0.0751
  760MOL0     H  311   9.940   0.837   5.363  1.0551  0.7310  0.8540
  760MOL0     H  312  10.149   0.925   5.277 -0.6256 -0.7282 -0.4381
  760MOL0     H  313  10.208   0.970   5.441 -0.0884 -1.5164  1.6919
  760MOL0     H  314  10.141   0.699   5.329 -1.9571 -1.0438  1.4873
  760MOL0     H  315  10.183   0.721   5.502 -0.5439  1.8629  0.0742
  760MOL0     H  316  10.390   0.851   5.417 -1.3469  0.2193  1.2374
  760MOL0     H  317  10.399   0.674   5.416 -0.5521 -0.9257 -1.0519
  760MOL0     H  318  10.373   0.734   4.995  2.7111 -0.8489 -0.1597
  760MOL0     H  319   9.748   0.985   5.402 -2.7984  1.8042  0.7405
  760MOL0     H  320   9.529   1.032   5.494 -0.3909  0.9833  0.2725
  761MOL0     O  321   2.406  10.336   3.301 -0.1276  0.1327 -0.5588
  761MOL0     C  322   2.436  10.344   3.183  0.3243 -0.4775 -0.3712
  761MOL0     O  323   2.344  10.352   3.077 -0.3538  0.3138  0.2200
  761MOL0     C  324   2.203  10.364   3.095 -0.5948 -1.1512  0.4448
  761MOL0     C  325   2.131  10.311   2.981 -0.0412  0.9593  0.0844
  761MOL0     C  326   1.991  10.306   2.990 -0.3551  0.0391  0.0833
  761MOL0     C  327   1.931  10.366   3.103 -0.0089  0.4334 -0.2508
  761MOL0     O  328   1.800  10.386   3.100  0.2123  0.5295 -0.1395
  761MOL0     C  329   1.724  10.362   3.220  0.0422  0.2699 -0.4405
  761MOL0     C  330   1.575  10.352   3.193 -0.8811  0.5248 -0.2028
  761MOL0     C  331   1.527  10.235   3.103  0.0159  0.7568  0.7786
  761MOL0     C  332   1.387  10.276   3.050 -0.5547 -0.0171 -0.6834
  761MOL0     C  333   1.331  10.166   2.953  0.1824  0.6318  0.2017
  761MOL0     C  334   1.218  10.213   2.871  1.0725 -0.0719 -0.0482
  761MOL0     C  335   1.092  10.251   2.973 -0.5387  0.3505  0.6132
  761MOL0     C  336   0.955  10.274   2.902 -0.0290 -0.6860 -0.1799
  761MOL0     N  337   0.889  10.150   2.866 -0.4071  0.0896  0.3328
  761MOL0     C  338   0.815  10.061   2.942 -0.7614 -0.8947  0.0088
  761MOL0     C  339   0.782   9.958   2.861 -0.3161  0.2454 -0.3307
  761MOL0     C  340   0.728   9.820   2.908  0.7240 -0.1044  0.0838
  761MOL0     C  341   0.843   9.756   2.999 -0.5290  0.0645 -0.1201
  761MOL0     C  342   0.979   9.717   2.931  0.6843 -0.2426  0.4622
  761MOL0     C  343   1.097   9.720   3.025 -0.5452  0.2433 -0.8614
  761MOL0     O  344   1.222   9.711   2.954 -0.8571  0.0620 -0.6725
  761MOL0     C  345   1.334   9.739   3.035  0.1907  0.4712  0.9561
  761MOL0     C  346   1.331   9.722   3.175  0.2702 -0.2901  0.3106
  761MOL0     C  347   1.445   9.749   3.241  0.2964 -0.1957 -0.6708
  761MOL0     C  348   1.564   9.808   3.186  0.2260  0.2898  0.1367
  761MOL0     C  349   1.690   9.840   3.248 -0.1838 -0.2694 -0.0636
  761MOL0     O  350   1.798   9.806   3.176  0.3402  0.8884 -0.3437
  761MOL0     C  351   1.922   9.860   3.200 -0.4671  0.4281  0.4948
  761MOL0     C  352   1.941   9.998   3.206  0.7177 -0.2281  0.2173
  761MOL0     C  353   2.074  10.040   3.220 -0.5340  0.3112  0.6518
  761MOL0     C  354   2.186   9.950   3.224  0.5569  0.4481  0.1668
  761MOL0     O  355   2.315   9.998   3.219 -0.2742 -0.3404  0.4346
  761MOL0     C  356   2.420   9.902   3.179 -0.2143  0.1956  0.2190
  761MOL0     C  357   2.548   9.978   3.166 -0.3134 -0.0883 -0.3033
  761MOL0     C  358   2.673   9.883   3.140 -0.1887  0.4010 -0.3921
  761MOL0     C  359   2.795   9.968   3.109  0.5267 -0.8814 -0.4324
  761MOL0     C  360   2.919   9.881   3.091 -0.4297 -0.0005  0.6372
  761MOL0     C  361   3.027   9.988   3.060 -0.2509 -0.4803  0.1669
  761MOL0     C  362   3.166   9.927   3.025 -0.6578  0.4142 -0.7479
  761MOL0     C  363   3.285  10.019   3.034  0.1225 -0.1373 -0.1669
  761MOL0    Cl  364   3.437   9.928   3.019 -0.0375  0.0971 -0.2894
  761MOL0     C  365   2.156   9.816   3.235 -0.2163  0.7033  0.3237
  761MOL0     C  366   2.025   9.772   3.220 -0.7845  0.1303 -0.2901
  761MOL0     O  367   1.690   9.894   3.357 -0.9911 -0.2765 -0.5466
  761MOL0     C  368   1.560   9.828   3.047  0.0343  0.5748  0.3760
  761MOL0     C  369   1.451   9.794   2.970  0.4028  0.1359 -0.0387
  761MOL0     N  370   0.833   9.996   2.732 -0.2095 -0.9450  0.4611
  761MOL0     N  371   0.896  10.104   2.743  0.3341  0.8903 -0.3148
  761MOL0     C  372   2.004  10.414   3.213 -0.0499 -0.3136  0.3156
  761MOL0     C  373   2.138  10.413   3.208 -0.4197 -0.2232  0.0385
  761MOL0     C  374   2.581  10.332   3.130  0.4906 -0.2103  0.8767
  761MOL0     C  375   2.606  10.336   2.992 -0.8107 -0.1077 -0.1803
  761MOL0     C  376   2.739  10.342   2.947 -0.2680  0.0402 -0.4175
  761MOL0     C  377   2.848  10.335   3.037 -1.4122 -0.8026  0.5976
  761MOL0     O  378   2.980  10.340   3.005  0.3023 -0.3989  0.8255
  761MOL0     C  379   3.009  10.326   2.866  0.8707 -0.0046 -0.4347
  761MOL0     C  380   3.156  10.349   2.841 -0.5159 -0.5610  0.3448
  761MOL0     C  381   3.203  10.493   2.878  0.4238  0.0207 -0.2334
  761MOL0     C  382   3.154  10.608   2.790 -0.0574  0.2282 -0.5428
  761MOL0     C  383   3.020  10.646   2.820 -0.4077  0.2973 -0.2795
  761MOL0     C  384   2.904  10.681   2.849  0.1417 -0.0097 -0.8106
  761MOL0     C  385   2.824  10.321   3.169  0.5743 -0.2641  0.2766
  761MOL0     C  386   2.689  10.314   3.218 -0.6048 -0.2241 -0.6031
  761MOL0     H  387   2.194  10.260   2.909  1.4321  1.9494  0.6029
  761MOL0     H  388   1.941  10.272   2.900 -1.3312  1.2005  0.1555
  761MOL0     H  389   1.733  10.445   3.290  2.4729  0.5755 -1.0103
  761MOL0     H  390   1.756  10.269   3.268 -1.4449 -0.2274 -0.3633
  761MOL0     H  391   1.558  10.449   3.145  2.0874  1.8788  1.2434
  761MOL0     H  392   1.503  10.356   3.276 -2.1938  1.7974 -1.3402
  761MOL0     H  393   1.519  10.138   3.152 -0.0605 -0.7366 -2.0109
  761MOL0     H  394   1.594  10.214   3.020 -2.0541 -4.6444  0.0885
  761MOL0     H  395   1.317  10.313   3.124 -0.3770 -2.1874  0.6587
  761MOL0     H  396   1.406  10.365   2.989 -1.1786 -1.6325 -3.4430
  761MOL0     H  397   1.308  10.080   3.016 -0.2113 -1.0286 -2.1012
  761MOL0     H  398   1.413  10.133   2.888  1.7974  4.0366  0.2800
  761MOL0     H  399   1.183  10.128   2.812 -4.7204 -0.3547  3.0662
  761MOL0     H  400   1.254  10.296   2.809  1.3295 -0.5955 -0.6097
  761MOL0     H  401   1.079  10.169   3.045  1.5317  1.6695  2.6501
  761MOL0     H  402   1.122  10.340   3.029  1.2774 -0.9097  1.7633
  761MOL0     H  403   0.964  10.348   2.822 -1.5312  0.5270  0.7265
  761MOL0     H  404   0.891  10.331   2.970  0.6161  0.5911 -0.6210
  761MOL0     H  405   0.803  10.074   3.049 -1.3064  1.0997 -0.2514
  761MOL0     H  406   0.711   9.753   2.822  1.4356  2.8088 -2.5233
  761MOL0     H  407   0.637   9.835   2.967  1.2741 -0.1010  0.9475
  761MOL0     H  408   0.798   9.665   3.038 -0.5967 -1.5690 -3.5737
  761MOL0     H  409   0.861   9.823   3.083 -1.5445 -1.8474  1.7018
  761MOL0     H  410   0.969   9.621   2.880 -4.3258 -0.0261  0.5562
  761MOL0     H  411   1.006   9.787   2.850 -1.8443 -1.5823 -1.6725
  761MOL0     H  412   1.080   9.638   3.095 -0.2333  0.3430 -0.6702
  761MOL0     H  413   1.099   9.815   3.077 -0.7001 -0.5968  0.7396
  761MOL0     H  414   1.246   9.690   3.234  0.6547 -0.7076  0.6517
  761MOL0     H  415   1.448   9.730   3.348 -0.2462 -1.9879 -0.9373
  761MOL0     H  416   1.862  10.072   3.192  0.7304  0.4061  2.8732
  761MOL0     H  417   2.100  10.146   3.219  3.2061 -0.4516 -1.6633
  761MOL0     H  418   2.395   9.866   3.078 -2.2216 -1.9977  1.3782
  761MOL0     H  419   2.439   9.821   3.250  3.9858  0.3078 -0.5540
  761MOL0     H  420   2.570  10.030   3.260 -1.4016  0.4496 -0.3401
  761MOL0     H  421   2.529  10.054   3.090  1.8820  0.2414 -0.5907
  761MOL0     H  422   2.662   9.803   3.066 -2.6361 -2.2999  2.5884
  761MOL0     H  423   2.682   9.826   3.233  2.0626  0.7941 -0.3196
  761MOL0     H  424   2.788  10.021   3.014 -0.6271 -2.3324 -1.1969
  761MOL0     H  425   2.814  10.048   3.182 -2.9760  3.0691 -3.3692
  761MOL0     H  426   2.906   9.808   3.011  1.3725 -1.7960  1.8876
  761MOL0     H  427   2.938   9.828   3.185  0.8380 -1.3331 -0.3514
  761MOL0     H  428   3.044  10.036   3.156  0.3892 -3.3584  1.6037
  761MOL0     H  429   3.007  10.050   2.972  1.1150  0.5892  0.5884
  761MOL0     H  430   3.184   9.841   3.091 -1.3978  1.3503  0.7236
  761MOL0     H  431   3.174   9.892   2.922  2.4508 -1.7335  0.0630
  761MOL0     H  432   3.285  10.093   3.115 -0.7129 -0.9453  0.6058
  761MOL0     H  433   3.277  10.081   2.945  0.7586 -1.1886 -0.9652
  761MOL0     H  434   2.233   9.742   3.253 -0.6053  0.2167  0.0073
  761MOL0     H  435   2.014   9.665   3.232  1.8452 -0.0759  0.8888
  761MOL0     H  436   1.641   9.865   2.986 -3.1750  2.2465 -3.3637
  761MOL0     H  437   1.448   9.808   2.863  1.5454 -2.9558 -0.5758
  761MOL0     H  438   1.960  10.468   3.296 -1.0544 -0.0822 -0.3637
  761MOL0     H  439   2.184  10.467   3.291 -0.5003  0.0841 -0.1188
  761MOL0     H  440   2.521  10.331   2.926 -1.8069 -1.6459  1.1544
  761MOL0     H  441   2.758  10.343   2.840  2.0695 -0.6420 -0.0617
  761MOL0     H  442   2.957  10.403   2.808  0.1538  0.1805  0.4356
  761MOL0     H  443   2.970  10.230   2.832 -1.3587 -0.3288  2.6747
  761MOL0     H  444   3.229  10.295   2.902 -0.0858  2.2044  2.4675
  761MOL0     H  445   3.166  10.320   2.736 -1.1007 -2.2256  0.7108
  761MOL0     H  446   3.312  10.482   2.873  0.8243  2.4949  1.3469
  761MOL0     H  447   3.171  10.509   2.981 -1.7612 -0.8723 -0.7230
  761MOL0     H  448   3.217  10.697   2.793 -1.8085  1.4991  1.7483
  761MOL0     H  449   3.149  10.565   2.689  2.5460  0.9560 -1.0782
  761MOL0     H  450   2.809  10.722   2.875 -1.2120 -2.2705 -1.8770
  761MOL0     H  451   2.903  10.304   3.242 -0.0227  2.8964  1.8370
  761MOL0     H  452   2.666  10.296   3.323  1.6027 -6.2248 -0.7621
  762MOL0     O  453   0.514   6.706   1.062  0.4426 -0.0324  0.4114
  762MOL0     C  454   0.593   6.635   1.118 -0.0515  0.2133 -0.4461
  762MOL0     O  455   0.557   6.515   1.183  0.2062  0.0975  0.4906
  762MOL0     C  456   0.424   6.483   1.194  0.0306  0.6057  0.5671
  762MOL0     C  457   0.371   6.496   1.325  0.6373 -0.4989  0.5118
  762MOL0     C  458   0.244   6.458   1.362 -0.1375 -0.0660  0.4725
  762MOL0     C  459   0.170   6.395   1.271  0.9119 -0.1418 -0.1239
  762MOL0     O  460   0.042   6.345   1.304  0.0464  0.7089  0.2124
  762MOL0     C  461  -0.019   6.383   1.427  0.7029 -0.2564  0.4165
  762MOL0     C  462  -0.173   6.363   1.423  0.0321  0.0894  0.3896
  762MOL0     C  463  -0.238   6.441   1.307 -0.3321  0.0173 -0.3658
  762MOL0     C  464  -0.388   6.433   1.327  0.5636 -0.2859  0.1824
  762MOL0     C  465  -0.457   6.522   1.211 -0.0152 -0.4936 -0.6349
  762MOL0     C  466  -0.435   6.669   1.241 -0.5276  0.3993  0.5908
  762MOL0     C  467  -0.535   6.749   1.167 -0.2812  0.1570  0.3875
  762MOL0     C  468  -0.505   6.754   1.019  0.2077  0.1032  0.2989
  762MOL0     N  469  -0.608   6.837   0.947  0.0190  0.0371  0.2650
  762MOL0     C  470  -0.580   6.954   0.882  0.0148  0.0951 -0.6907
  762MOL0     C  471  -0.705   6.997   0.842  0.6169 -0.2457  0.6392
  762MOL0     C  472  -0.727   7.126   0.763  0.9380  0.3493 -0.2399
  762MOL0     C  473  -0.612   7.162   0.677 -0.3819 -0.1935  0.6452
  762MOL0     C  474  -0.638   7.294   0.597  0.3286  0.6031 -0.0374
  762MOL0     C  475  -0.510   7.355   0.549 -0.1499 -0.5084  0.2925
  762MOL0     O  476  -0.450   7.419   0.671  1.1270  0.5527  0.2962
  762MOL0     C  477  -0.318   7.416   0.692 -1.3236  0.8688  0.3087
  762MOL0     C  478  -0.288   7.418   0.826 -1.2032  0.2813 -0.2504
  762MOL0     C  479  -0.158   7.398   0.879 -0.2680  0.5641  0.1564
  762MOL0     C  480  -0.049   7.365   0.792 -0.3620 -0.3133 -1.1196
  762MOL0     C  481   0.083   7.314   0.840 -0.5068  0.1780 -0.5227
  762MOL0     O  482   0.107   7.342   0.979 -0.0323 -0.2770 -0.9795
  762MOL0     C  483   0.180   7.268   1.070  0.3110 -0.5231 -0.6642
  762MOL0     C  484   0.231   7.323   1.184 -1.3474 -1.1157 -0.1421
  762MOL0     C  485   0.304   7.250   1.272 -0.3851 -0.0508  0.3739
  762MOL0     C  486   0.331   7.119   1.250  0.3386 -0.3141  0.1424
  762MOL0     O  487   0.402   7.055   1.353 -0.0740  0.1276 -0.3813
  762MOL0     C  488   0.468   6.925   1.329 -0.2782 -0.2301 -1.0704
  762MOL0     C  489   0.522   6.868   1.467  0.3466 -0.3651  0.0305
  762MOL0     C  490   0.655   6.941   1.499  0.9260 -0.0258  0.5689
  762MOL0     C  491   0.703   6.933   1.644  0.1414  1.0524 -0.3768
  762MOL0     C  492   0.835   6.995   1.673 -0.2172 -0.7835  0.4417
  762MOL0     C  493   0.873   6.972   1.817 -0.2873 -0.1792  0.0704
  762MOL0     C  494   1.015   7.020   1.846  0.6803 -0.2753 -0.3568
  762MOL0     C  495   1.042   7.024   1.993  0.0937  0.2126  0.2465
  762MOL0    Cl  496   1.201   7.087   2.021  0.1019 -0.3404 -0.4466
  762MOL0     C  497   0.288   7.054   1.138  0.1073 -0.5595  0.1319
  762MOL0     C  498   0.217   7.133   1.048  0.6486 -0.9994  0.2523
  762MOL0     O  499   0.144   7.243   0.766 -0.1594  0.2869  0.1848
  762MOL0     C  500  -0.077   7.346   0.654  0.9290  1.2722 -0.1393
  762MOL0     C  501  -0.213   7.382   0.607 -0.9645  0.5219  0.2216
  762MOL0     N  502  -0.796   6.905   0.886  0.1753 -0.4133 -0.1383
  762MOL0     N  503  -0.738   6.810   0.947  0.5541  0.5646  0.5960
  762MOL0     C  504   0.225   6.364   1.148  0.5298  0.1925  0.6122
  762MOL0     C  505   0.344   6.418   1.096 -0.3701 -0.0797  0.1291
  762MOL0     C  506   0.730   6.669   1.099  0.0608  0.2839  0.7172
  762MOL0     C  507   0.837   6.611   1.175 -0.9416  0.6013 -0.3404
  762MOL0     C  508   0.969   6.648   1.154 -0.5980 -0.2076  0.7493
  762MOL0     C  509   1.006   6.735   1.055 -0.1607 -0.2475  0.8752
  762MOL0     O  510   1.144   6.754   1.041  0.0451 -0.2759 -0.1715
  762MOL0     C  511   1.203   6.747   0.913 -0.6060 -0.1293  0.0008
  762MOL0     C  512   1.349   6.688   0.915 -0.7757 -0.1013  0.2905
  762MOL0     C  513   1.422   6.775   1.010 -0.4491  0.0864 -0.2772
  762MOL0     C  514   1.572   6.741   1.010 -0.1278  0.0524 -0.6936
  762MOL0     C  515   1.625   6.769   1.146  0.2176 -0.1373 -0.9113
  762MOL0     C  516   1.678   6.789   1.250  1.1781  0.7806  0.2574
  762MOL0     C  517   0.909   6.793   0.980  0.1416 -0.5831  0.4858
  762MOL0     C  518   0.776   6.764   1.001 -0.1731 -0.7905 -0.2893
  762MOL0     H  519   0.429   6.535   1.407 -0.0867  0.3830  0.6162
  762MOL0     H  520   0.213   6.479   1.464  0.3938  0.3794  0.5508
  762MOL0     H  521  -0.005   6.491   1.433 -3.8005  0.5640 -0.3260
  762MOL0     H  522   0.019   6.327   1.513 -1.0355 -3.4884 -0.7268
  762MOL0     H  523  -0.224   6.396   1.513  0.4323  1.1693  0.2360
  762MOL0     H  524  -0.184   6.255   1.412  1.0463 -0.2611  2.4472
  762MOL0     H  525  -0.210   6.390   1.214 -0.1848 -0.5448 -0.0171
  762MOL0     H  526  -0.214   6.547   1.298 -4.7843  1.3950  1.4440
  762MOL0     H  527  -0.429   6.332   1.315 -1.4611  0.5796 -0.7534
  762MOL0     H  528  -0.412   6.463   1.430  0.9035  0.3970  0.0677
  762MOL0     H  529  -0.564   6.501   1.217  0.1604 -1.7908 -1.4760
  762MOL0     H  530  -0.422   6.499   1.110 -0.9593 -1.2110 -0.8134
  762MOL0     H  531  -0.341   6.706   1.198 -1.4324  1.1624 -0.8172
  762MOL0     H  532  -0.423   6.705   1.344  3.0318  2.6779 -0.4106
  762MOL0     H  533  -0.639   6.713   1.173 -0.3375  0.1302 -0.5906
  762MOL0     H  534  -0.526   6.853   1.200 -0.3885  0.6055 -0.9207
  762MOL0     H  535  -0.516   6.657   0.970  0.1119 -1.5142  3.2831
  762MOL0     H  536  -0.400   6.776   0.999  0.8647 -2.0283  1.1389
  762MOL0     H  537  -0.485   7.007   0.875 -1.7351  3.7444  0.5620
  762MOL0     H  538  -0.744   7.202   0.840 -1.8923  0.8359 -1.2201
  762MOL0     H  539  -0.813   7.115   0.697  0.9289 -0.5742 -0.0825
  762MOL0     H  540  -0.586   7.085   0.604  1.4216 -1.4768  2.5563
  762MOL0     H  541  -0.526   7.182   0.741  0.4082  0.5042 -0.5701
  762MOL0     H  542  -0.697   7.278   0.507  0.5401 -0.9934  0.0802
  762MOL0     H  543  -0.697   7.367   0.653  0.6432  1.1382 -0.3922
  762MOL0     H  544  -0.524   7.428   0.469 -0.1141 -2.7646 -1.8833
  762MOL0     H  545  -0.455   7.270   0.507 -0.1076 -0.9012  1.1216
  762MOL0     H  546  -0.365   7.445   0.898 -1.2352 -1.8561  0.6113
  762MOL0     H  547  -0.141   7.401   0.986 -0.3622 -1.2144  0.2544
  762MOL0     H  548   0.220   7.430   1.195 -1.2119 -1.0048 -0.9800
  762MOL0     H  549   0.340   7.294   1.364 -1.5826 -4.8602  3.5306
  762MOL0     H  550   0.555   6.937   1.264  1.0019 -1.5669  0.3012
  762MOL0     H  551   0.392   6.862   1.282 -1.9213  0.0949  0.9977
  762MOL0     H  552   0.550   6.762   1.467  0.4543 -0.3536 -1.3431
  762MOL0     H  553   0.443   6.885   1.541 -2.5093  3.6692 -3.5056
  762MOL0     H  554   0.623   7.043   1.476 -0.8474 -0.0060  2.7755
  762MOL0     H  555   0.733   6.901   1.434  1.5055 -1.2632  1.9751
  762MOL0     H  556   0.634   6.971   1.719  0.2240 -0.6664  0.6364
  762MOL0     H  557   0.705   6.826   1.669  0.8499  1.0742 -0.2944
  762MOL0     H  558   0.824   7.103   1.667 -1.1782 -0.7693  1.9618
  762MOL0     H  559   0.911   6.952   1.607  1.7581 -0.1996  2.2387
  762MOL0     H  560   0.859   6.863   1.822  0.8531 -0.3456  0.0265
  762MOL0     H  561   0.797   7.014   1.883 -0.6438 -2.0608  0.9392
  762MOL0     H  562   1.090   6.969   1.785 -0.3144  1.0210 -2.7892
  762MOL0     H  563   1.020   7.122   1.807 -1.9808  0.4236  0.8729
  762MOL0     H  564   1.027   6.928   2.042 -2.3292 -0.0859 -0.9066
  762MOL0     H  565   0.963   7.082   2.040  0.6564 -1.0572  2.9310
  762MOL0     H  566   0.319   6.952   1.120  1.6787 -0.0950  0.0360
  762MOL0     H  567   0.209   7.085   0.951  0.7394  1.6406 -1.1316
  762MOL0     H  568  -0.010   7.292   0.588  1.6803 -1.4402  2.6592
  762MOL0     H  569  -0.229   7.386   0.500  0.0592  1.0484  0.0767
  762MOL0     H  570   0.162   6.307   1.080  5.0962  0.5772 -4.6579
  762MOL0     H  571   0.393   6.379   1.008 -0.6724  1.8590 -0.9411
  762MOL0     H  572   0.821   6.537   1.254  2.0136 -0.2425 -0.4129
  762MOL0     H  573   1.050   6.603   1.210 -0.1465 -2.0429 -1.2140
  762MOL0     H  574   1.215   6.849   0.876 -0.2593 -1.0624 -2.6229
  762MOL0     H  575   1.131   6.692   0.853 -1.8477  0.9738  0.4273
  762MOL0     H  576   1.353   6.583   0.948 -2.2103  0.3809  2.1962
  762MOL0     H  577   1.388   6.710   0.815  0.6381 -0.9407  0.6283
  762MOL0     H  578   1.380   6.758   1.109  1.9496  2.6132  1.3494
  762MOL0     H  579   1.403   6.879   0.981  2.7730  1.3447  1.5836
  762MOL0     H  580   1.585   6.634   0.988 -3.8696 -0.5291 -0.6590
  762MOL0     H  581   1.633   6.795   0.937  0.2198 -0.0353 -0.4740
  762MOL0     H  582   1.725   6.812   1.343  0.7953 -0.5488  0.7968
  762MOL0     H  583   0.936   6.870   0.909 -1.9758  0.9176  1.1958
  762MOL0     H  584   0.700   6.805   0.936  2.2752  3.5078 -0.8139
  763MOL0     O  585  11.303   7.669  10.177  0.8109 -0.0015  0.6616
  763MOL0     C  586  11.344   7.609  10.270 -0.5911  0.5694 -0.3704
  763MOL0     O  587  11.296   7.488  10.316 -0.2627 -0.7178  0.6846
  763MOL0     C  588  11.222   7.410  10.240 -0.9420  0.2792 -0.6366
  763MOL0     C  589  11.283   7.317  10.153 -0.3870 -0.8144 -0.2437
  763MOL0     C  590  11.206   7.229  10.067  0.0991 -0.3848  0.1147
  763MOL0     C  591  11.065   7.214  10.086 -0.4278  0.5185  0.6473
  763MOL0     O  592  10.985   7.122  10.023 -0.7874  0.1104  0.0285
  763MOL0     C  593  10.894   7.043  10.097  0.5067 -1.0421 -0.0099
  763MOL0     C  594  10.755   7.021  10.035 -0.2026  0.3212 -0.1059
  763MOL0     C  595  10.763   6.922   9.909  1.1914 -0.5878  0.8724
  763MOL0     C  596  10.633   6.915   9.832 -0.3059 -0.4174  0.9277
  763MOL0     C  597  10.653   6.845   9.696  0.0051  0.1177  0.6732
  763MOL0     C  598  10.517   6.842   9.622  0.2770 -0.0240  0.2360
  763MOL0     C  599  10.546   6.818   9.468 -0.1030  0.5109 -0.1264
  763MOL0     C  600  10.603   6.676   9.450  0.5675  1.3809 -0.9419
  763MOL0     N  601  10.632   6.643   9.312  0.8516  0.8705  1.1856
  763MOL0     C  602  10.561   6.582   9.208  1.1175  0.4213  0.4571
  763MOL0     C  603  10.630   6.597   9.094 -0.6435 -0.2255  0.1737
  763MOL0     C  604  10.588   6.541   8.957 -0.8505  0.2814 -1.0594
  763MOL0     C  605  10.456   6.592   8.920  0.5962 -1.0132 -0.3798
  763MOL0     C  606  10.410   6.530   8.788  0.7321  0.2728  0.0141
  763MOL0     C  607  10.254   6.518   8.762 -0.1406 -0.2727 -0.0686
  763MOL0     O  608  10.238   6.502   8.614 -0.2464 -0.9992  0.4069
  763MOL0     C  609  10.111   6.523   8.566  0.3891  0.3972 -0.3240
  763MOL0     C  610   9.991   6.508   8.631 -0.0241 -0.6604  0.3709
  763MOL0     C  611   9.866   6.516   8.574 -0.4373 -0.0974 -0.3406
  763MOL0     C  612   9.854   6.551   8.435  0.4893 -0.3910 -0.3048
  763MOL0     C  613   9.723   6.559   8.366  1.0707  0.1484  0.3204
  763MOL0     O  614   9.612   6.524   8.431 -0.2375 -0.0832 -0.2618
  763MOL0     C  615   9.489   6.499   8.371  0.0011 -0.0007  0.5750
  763MOL0     C  616   9.379   6.557   8.440 -0.2852  0.0358 -0.5281
  763MOL0     C  617   9.257   6.519   8.380 -0.2886  0.0843 -0.4658
  763MOL0     C  618   9.243   6.439   8.261 -0.3322 -0.2490 -0.8641
  763MOL0     O  619   9.119   6.432   8.203 -0.1191 -0.1490 -0.3966
  763MOL0     C  620   9.108   6.404   8.063 -0.0434  0.1676 -0.7749
  763MOL0     C  621   8.988   6.464   7.990  0.1063  0.4746 -1.1090
  763MOL0     C  622   8.867   6.488   8.087  0.5750  0.7689 -0.8066
  763MOL0     C  623   8.770   6.574   8.024 -0.3196  1.1549  0.5967
  763MOL0     C  624   8.628   6.564   8.075 -0.3615  0.0687 -0.4901
  763MOL0     C  625   8.535   6.633   7.976 -0.4679 -0.0015  0.9574
  763MOL0     C  626   8.386   6.627   8.013  0.6599  0.3415  0.9247
  763MOL0     C  627   8.300   6.734   7.950  0.6759 -0.1006  0.6258
  763MOL0    Cl  628   8.291   6.712   7.777  0.2862 -0.3698  0.1085
  763MOL0     C  629   9.359   6.388   8.214  0.0551 -0.0241 -0.3153
  763MOL0     C  630   9.489   6.412   8.267  0.8608  0.2121  0.2896
  763MOL0     O  631   9.720   6.596   8.246  0.3867  0.0606 -0.8863
  763MOL0     C  632   9.968   6.572   8.372 -0.5925 -0.1015 -0.0996
  763MOL0     C  633  10.100   6.564   8.428 -0.1234 -0.2438 -0.4478
  763MOL0     N  634  10.746   6.669   9.122  0.1959 -0.1424  0.3454
  763MOL0     N  635  10.752   6.675   9.250  0.8493 -0.2755  0.1197
  763MOL0     C  636  11.007   7.305  10.182 -0.3561  0.0101 -0.1691
  763MOL0     C  637  11.088   7.393  10.264  0.5916  0.5823  0.1651
  763MOL0     C  638  11.446   7.676  10.358  0.5348  0.4870 -1.1331
  763MOL0     C  639  11.512   7.598  10.458  0.5253  0.0339  0.4962
  763MOL0     C  640  11.604   7.660  10.543  0.0370 -0.1020  0.3446
  763MOL0     C  641  11.632   7.795  10.540  0.2650  0.0415 -0.0140
  763MOL0     O  642  11.729   7.856  10.617  0.2411 -0.5440  0.7169
  763MOL0     C  643  11.860   7.781  10.625  0.4253 -0.2074  0.6648
  763MOL0     C  644  11.977   7.859  10.675 -0.7314 -0.1841 -0.7929
  763MOL0     C  645  11.986   7.997  10.603  0.2542  0.0925  0.6505
  763MOL0     C  646  12.084   8.083  10.680 -0.1419  0.0859 -0.0968
  763MOL0     C  647  12.214   8.027  10.716 -0.3077  0.1020 -0.2901
  763MOL0     C  648  12.319   7.983  10.758 -0.1819 -0.0882  0.8147
  763MOL0     C  649  11.562   7.870  10.446 -0.8724  0.4155  0.0086
  763MOL0     C  650  11.472   7.809  10.358  0.0808 -0.2496  0.0871
  763MOL0     H  651  11.387   7.334  10.130 -0.9379  2.1429 -0.9980
  763MOL0     H  652  11.249   7.160   9.994  1.2797 -0.5942  0.9670
  763MOL0     H  653  10.879   7.090  10.195  1.4670 -1.1414  0.1904
  763MOL0     H  654  10.943   6.947  10.115 -0.9472 -1.6951  0.6324
  763MOL0     H  655  10.705   7.116  10.017 -1.0530  0.8146  3.8392
  763MOL0     H  656  10.703   6.971  10.118  2.7456  1.8057  2.8480
  763MOL0     H  657  10.791   6.820   9.937  1.6832 -1.4869 -2.4924
  763MOL0     H  658  10.830   6.967   9.835 -2.8995  3.5826 -0.7496
  763MOL0     H  659  10.561   6.862   9.895 -1.0863 -0.7988 -0.2621
  763MOL0     H  660  10.585   7.013   9.821  0.4850 -0.0616  0.5033
  763MOL0     H  661  10.685   6.743   9.717 -1.7273 -0.2537  1.5910
  763MOL0     H  662  10.730   6.890   9.632 -1.2345 -0.1579 -1.0726
  763MOL0     H  663  10.472   6.941   9.629  0.4707  0.1947 -1.3480
  763MOL0     H  664  10.452   6.766   9.668  0.5482  0.2542  1.0904
  763MOL0     H  665  10.451   6.832   9.416 -0.3134  1.0886  0.4041
  763MOL0     H  666  10.622   6.884   9.427  0.6160 -0.9440 -1.2405
  763MOL0     H  667  10.542   6.604   9.506  4.4311 -0.8383  0.8579
  763MOL0     H  668  10.703   6.661   9.491  1.3143  0.9025 -2.8308
  763MOL0     H  669  10.462   6.538   9.215  0.4116  1.6131 -1.1407
  763MOL0     H  670  10.584   6.432   8.958 -0.3137  0.1621 -3.9532
  763MOL0     H  671  10.665   6.569   8.884  1.5170 -1.4385  0.5832
  763MOL0     H  672  10.459   6.699   8.902  1.7241 -0.5979  1.9495
  763MOL0     H  673  10.379   6.568   8.995  0.5544 -2.3911 -0.8302
  763MOL0     H  674  10.464   6.582   8.708 -1.3912 -0.1293 -1.7663
  763MOL0     H  675  10.445   6.428   8.804  0.8248 -0.0098 -1.8095
  763MOL0     H  676  10.219   6.617   8.792 -0.3047 -1.3297  3.6580
  763MOL0     H  677  10.204   6.443   8.824 -0.5633 -1.2211 -1.4991
  763MOL0     H  678   9.992   6.504   8.739 -0.4890 -0.8349  0.3707
  763MOL0     H  679   9.780   6.516   8.641  0.3495  0.9413  0.7212
  763MOL0     H  680   9.381   6.609   8.535  2.2032 -2.8276  1.1503
  763MOL0     H  681   9.164   6.557   8.420  0.3132  0.4535  0.6399
  763MOL0     H  682   9.116   6.298   8.037  3.5247  1.0296 -4.2834
  763MOL0     H  683   9.191   6.453   8.011 -0.8191  2.3563 -0.0531
  763MOL0     H  684   8.964   6.385   7.918 -2.4628  0.4141 -0.3177
  763MOL0     H  685   9.028   6.555   7.945  1.0325  0.4216 -0.4111
  763MOL0     H  686   8.908   6.541   8.174  0.6128 -1.6531  0.7423
  763MOL0     H  687   8.820   6.396   8.123  2.0290 -0.0889 -1.0604
  763MOL0     H  688   8.809   6.676   8.029  1.3408  0.5884 -0.2404
  763MOL0     H  689   8.771   6.537   7.922  0.8573 -0.5313  1.1810
  763MOL0     H  690   8.613   6.614   8.171  0.4827 -1.8585  0.6965
  763MOL0     H  691   8.597   6.460   8.083  2.2792 -0.8279 -0.8731
  763MOL0     H  692   8.551   6.589   7.877  2.2787  1.4171  0.6745
  763MOL0     H  693   8.560   6.739   7.966 -1.6439  0.2962  1.0046
  763MOL0     H  694   8.359   6.522   7.994  0.8447  0.2894  0.9486
  763MOL0     H  695   8.368   6.641   8.120  0.2534 -0.0380  0.9105
  763MOL0     H  696   8.340   6.832   7.980 -0.9880  0.9662 -0.4661
  763MOL0     H  697   8.202   6.717   7.994 -0.0730  2.2987  0.0198
  763MOL0     H  698   9.348   6.330   8.123 -1.7490 -2.0279  1.1033
  763MOL0     H  699   9.582   6.365   8.236 -0.2700  0.1713 -3.4711
  763MOL0     H  700   9.962   6.602   8.268  1.4620  0.3045 -0.1463
  763MOL0     H  701  10.188   6.589   8.370 -1.5132  1.7709 -1.8030
  763MOL0     H  702  10.899   7.317  10.196 -0.1864  1.7657 -0.0702
  763MOL0     H  703  11.046   7.464  10.334  0.8631  2.1850 -1.2167
  763MOL0     H  704  11.482   7.495  10.474  0.2683 -0.7505 -3.7206
  763MOL0     H  705  11.649   7.593  10.616 -0.3316  1.0106  1.6234
  763MOL0     H  706  11.874   7.725  10.532 -1.5399 -0.6796  0.6093
  763MOL0     H  707  11.848   7.702  10.700  2.6107 -1.7981 -0.5511
  763MOL0     H  708  11.962   7.869  10.783  0.4332 -0.9670 -0.5425
  763MOL0     H  709  12.072   7.806  10.662 -0.7040 -0.0138 -1.3087
  763MOL0     H  710  11.886   8.043  10.604 -1.0157 -2.3991 -0.6313
  763MOL0     H  711  12.021   7.991  10.500  1.2970 -2.4646  1.0890
  763MOL0     H  712  12.096   8.179  10.629 -2.1738  0.9139  0.8656
  763MOL0     H  713  12.038   8.122  10.772 -0.5290  0.3551 -0.3983
  763MOL0     H  714  12.403   7.935  10.805  1.1883  3.2709  2.1148
  763MOL0     H  715  11.583   7.976  10.446  1.8952 -0.0652  1.1968
  763MOL0     H  716  11.419   7.864  10.281 -2.0288 -0.6781  1.1595
  764MOL0     O  717   5.623  11.294   3.270 -0.1720 -0.7650  0.3759
  764MOL0     C  718   5.527  11.278   3.342  0.9530 -0.7386  0.3878
  764MOL0     O  719   5.392  11.286   3.293 -0.1276 -0.3128 -0.8964
  764MOL0     C  720   5.362  11.301   3.165  1.8449  0.5135  0.1498
  764MOL0     C  721   5.241  11.240   3.116  0.2551  0.3439  0.5471
  764MOL0     C  722   5.201  11.257   2.981  1.3423  0.7193 -0.4903
  764MOL0     C  723   5.268  11.340   2.901  0.6151  0.2914 -0.7284
  764MOL0     O  724   5.210  11.358   2.778 -0.2572 -0.4105  0.7391
  764MOL0     C  725   5.287  11.381   2.656  0.2799  0.2129  0.6397
  764MOL0     C  726   5.242  11.501   2.558  0.3778  0.2865 -0.8265
  764MOL0     C  727   5.302  11.476   2.423 -0.3915  0.0016  0.2618
  764MOL0     C  728   5.275  11.595   2.336 -1.6111  0.8441  0.5698
  764MOL0     C  729   5.322  11.565   2.187 -0.1868 -0.0595  0.5633
  764MOL0     C  730   5.327  11.696   2.097 -0.2522  0.9966 -0.6025
  764MOL0     C  731   5.313  11.686   1.945 -0.1931 -0.3019  0.6669
  764MOL0     C  732   5.297  11.828   1.874 -0.2223  0.1961  0.5681
  764MOL0     N  733   5.310  11.821   1.726  0.1563 -0.1623 -0.2874
  764MOL0     C  734   5.296  11.710   1.648 -0.2960 -0.0549  0.1920
  764MOL0     C  735   5.318  11.760   1.523  0.1245 -0.7653 -0.6463
  764MOL0     C  736   5.309  11.690   1.400 -0.6657  0.6068  0.0372
  764MOL0     C  737   5.264  11.542   1.414  0.5536 -0.2193 -0.3097
  764MOL0     C  738   5.396  11.462   1.429  1.0921 -0.2823  0.1990
  764MOL0     C  739   5.369  11.316   1.460  0.3150  1.0915 -0.0699
  764MOL0     O  740   5.325  11.278   1.596 -0.0635 -0.3829 -0.6031
  764MOL0     C  741   5.419  11.292   1.701  1.0542  0.8297  0.2919
  764MOL0     C  742   5.558  11.296   1.683 -0.2550  0.3548  0.3029
  764MOL0     C  743   5.638  11.315   1.793  0.9663 -0.2468  0.4812
  764MOL0     C  744   5.589  11.331   1.925 -0.9600  0.5613 -0.6572
  764MOL0     C  745   5.694  11.319   2.028  0.0869  0.2837 -0.2320
  764MOL0     O  746   5.650  11.344   2.156 -0.0447  0.3601  0.2384
  764MOL0     C  747   5.745  11.356   2.256 -0.7945  0.4325  0.3215
  764MOL0     C  748   5.876  11.418   2.246 -0.1372  0.1248 -0.2684
  764MOL0     C  749   5.960  11.411   2.350  0.1520 -0.4960  0.8156
  764MOL0     C  750   5.925  11.355   2.470  0.3575 -0.1207 -0.5367
  764MOL0     O  751   6.008  11.372   2.585 -0.5237 -1.0169  0.0253
  764MOL0     C  752   6.113  11.279   2.578  0.3818 -0.8289  0.2280
  764MOL0     C  753   6.217  11.335   2.673 -0.2578 -0.3952  0.2578
  764MOL0     C  754   6.310  11.209   2.686 -0.6363 -0.5941 -0.6281
  764MOL0     C  755   6.409  11.228   2.801 -0.2013  0.0497  0.8011
  764MOL0     C  756   6.504  11.114   2.833  0.0849  0.6005 -0.3199
  764MOL0     C  757   6.597  11.061   2.728 -0.5852 -0.8853  0.2932
  764MOL0     C  758   6.705  11.159   2.671 -0.4889 -0.1739  0.0883
  764MOL0     C  759   6.649  11.257   2.563  0.0428  0.6087  0.8937
  764MOL0    Cl  760   6.791  11.324   2.486 -0.2757 -0.0014  0.4134
  764MOL0     C  761   5.799  11.295   2.477 -0.1756 -0.7457 -0.3218
  764MOL0     C  762   5.721  11.290   2.369  0.5199  0.0019 -0.1940
  764MOL0     O  763   5.800  11.266   2.001 -0.3281 -0.1822  0.2372
  764MOL0     C  764   5.447  11.340   1.946 -0.7162  0.0305  0.1465
  764MOL0     C  765   5.359  11.320   1.834 -0.6288  0.4665  0.4189
  764MOL0     N  766   5.325  11.899   1.525  0.7823  0.4570  0.3039
  764MOL0     N  767   5.344  11.932   1.655  0.5766 -0.0282  1.1691
  764MOL0     C  768   5.372  11.405   2.954 -0.7663  0.3807 -0.0382
  764MOL0     C  769   5.420  11.385   3.077 -0.1994 -0.2315 -0.5521
  764MOL0     C  770   5.552  11.247   3.480 -0.0194 -0.1135 -0.8681
  764MOL0     C  771   5.454  11.264   3.580  0.1209  0.3191  0.1639
  764MOL0     C  772   5.465  11.229   3.718 -0.0184 -0.0132  0.9414
  764MOL0     C  773   5.581  11.168   3.761 -1.2297 -0.0184 -0.1818
  764MOL0     O  774   5.585  11.126   3.894  0.7185  0.2402 -0.2775
  764MOL0     C  775   5.695  11.078   3.965 -0.0059  0.0216  0.7987
  764MOL0     C  776   5.717  10.923   3.939 -0.0189  0.6042  0.0664
  764MOL0     C  777   5.761  10.847   4.059  0.1338  0.6204 -0.8322
  764MOL0     C  778   5.657  10.736   4.101 -0.5205  0.7529  0.0808
  764MOL0     C  779   5.710  10.665   4.221  0.8703  0.3299  0.9142
  764MOL0     C  780   5.746  10.591   4.309  1.3841 -0.2075  0.6907
  764MOL0     C  781   5.689  11.144   3.668  0.8597  0.0681  0.2284
  764MOL0     C  782   5.676  11.198   3.532  0.4881  0.6330  0.4475
  764MOL0     H  783   5.179  11.174   3.176  0.3507 -1.9392 -1.7057
  764MOL0     H  784   5.113  11.202   2.951 -0.2103  0.1668  4.1768
  764MOL0     H  785   5.277  11.289   2.598  4.6569  0.5843 -1.0397
  764MOL0     H  786   5.394  11.370   2.674  1.0753  3.2344 -1.4739
  764MOL0     H  787   5.278  11.594   2.601  1.3567 -1.7863  3.2778
  764MOL0     H  788   5.134  11.515   2.545  0.2708  0.1010 -0.1904
  764MOL0     H  789   5.267  11.386   2.370  1.3840  0.2922 -1.5142
  764MOL0     H  790   5.410  11.458   2.428 -0.9078 -3.5410  2.6044
  764MOL0     H  791   5.170  11.627   2.332 -2.1059 -0.7403 -0.8563
  764MOL0     H  792   5.347  11.666   2.375 -0.1602 -0.2714  0.0125
  764MOL0     H  793   5.265  11.486   2.137 -0.7041  0.3447  0.5105
  764MOL0     H  794   5.422  11.520   2.190 -0.6678 -1.1178  2.6330
  764MOL0     H  795   5.416  11.755   2.120  0.8620 -0.4349 -1.1087
  764MOL0     H  796   5.235  11.749   2.120 -1.0247 -0.2704 -0.6539
  764MOL0     H  797   5.403  11.634   1.911  0.6082  1.1347  0.5001
  764MOL0     H  798   5.220  11.632   1.927  0.3005 -1.7452  2.2535
  764MOL0     H  799   5.376  11.891   1.914  1.1423 -0.9038 -0.2956
  764MOL0     H  800   5.193  11.859   1.891 -0.1212  1.3568 -0.7433
  764MOL0     H  801   5.263  11.612   1.681  1.5261 -0.7597  0.0157
  764MOL0     H  802   5.408  11.690   1.354 -2.3804 -2.8138 -4.4261
  764MOL0     H  803   5.236  11.727   1.327  1.0604 -1.9410 -3.2540
  764MOL0     H  804   5.207  11.511   1.326 -0.3103 -2.2392  0.9087
  764MOL0     H  805   5.194  11.525   1.496 -0.9092 -1.1696 -1.7050
  764MOL0     H  806   5.457  11.474   1.339 -0.5344  2.3942 -0.6595
  764MOL0     H  807   5.449  11.500   1.517 -0.5831  2.6201  0.0766
  764MOL0     H  808   5.460  11.257   1.441 -0.1255  0.2721  0.2995
  764MOL0     H  809   5.294  11.273   1.393  0.9403 -3.3540  1.6964
  764MOL0     H  810   5.608  11.279   1.588 -0.3296  2.0773 -0.0702
  764MOL0     H  811   5.740  11.332   1.761  0.2947  0.6763 -1.3087
  764MOL0     H  812   5.902  11.477   2.159 -0.2592  0.5415 -0.0219
  764MOL0     H  813   6.054  11.462   2.333  0.7813 -1.2846  1.7514
  764MOL0     H  814   6.155  11.262   2.479  3.0802  0.6421  1.0295
  764MOL0     H  815   6.069  11.190   2.622  2.1259 -0.7568  2.2625
  764MOL0     H  816   6.181  11.370   2.771  0.9935  2.3087 -0.1303
  764MOL0     H  817   6.264  11.424   2.629 -0.0248 -0.0081  1.2469
  764MOL0     H  818   6.361  11.203   2.589 -1.8215  2.9142 -1.6345
  764MOL0     H  819   6.261  11.112   2.704 -1.1562  0.2598  3.4680
  764MOL0     H  820   6.461  11.323   2.781 -0.1954  0.4407  2.5235
  764MOL0     H  821   6.338  11.245   2.882 -0.1205 -1.2155  1.1562
  764MOL0     H  822   6.438  11.031   2.859  1.3020 -0.2362  0.1809
  764MOL0     H  823   6.564  11.134   2.922 -3.7788 -0.9881  2.9787
  764MOL0     H  824   6.544  11.027   2.638 -0.7993 -0.5623  0.2968
  764MOL0     H  825   6.657  10.981   2.774 -0.7497 -0.7597  0.7265
  764MOL0     H  826   6.752  11.217   2.752 -2.1356  0.0999  0.8901
  764MOL0     H  827   6.783  11.095   2.629 -1.5333 -1.2593 -0.2371
  764MOL0     H  828   6.594  11.338   2.612  0.2884  0.4819  1.3891
  764MOL0     H  829   6.596  11.199   2.487  0.6725  0.8382  0.2734
  764MOL0     H  830   5.782  11.234   2.565 -0.6711 -1.0656 -0.6372
  764MOL0     H  831   5.628  11.235   2.383 -0.1267  1.0198 -0.3314
  764MOL0     H  832   5.414  11.352   2.048  0.7131 -3.4736  1.1640
  764MOL0     H  833   5.252  11.323   1.851 -0.4089 -0.8376  2.4303
  764MOL0     H  834   5.431  11.482   2.904 -2.9590  3.0420  1.2043
  764MOL0     H  835   5.500  11.442   3.123  0.4072 -0.0094 -1.8298
  764MOL0     H  836   5.359  11.311   3.558 -0.4023 -0.6250  0.3420
  764MOL0     H  837   5.386  11.259   3.786  2.0152 -1.4689  4.1849
  764MOL0     H  838   5.680  11.090   4.073  1.0933 -3.1091  1.3783
  764MOL0     H  839   5.784  11.139   3.946  0.9698 -1.4148  0.6038
  764MOL0     H  840   5.616  10.895   3.908  0.1812  3.0455 -3.4831
  764MOL0     H  841   5.795  10.919   3.863 -1.4172  0.5008 -1.4258
  764MOL0     H  842   5.774  10.922   4.138 -0.5095 -0.0042 -0.1092
  764MOL0     H  843   5.864  10.816   4.038 -0.0162 -1.1638  0.7870
  764MOL0     H  844   5.556  10.776   4.113 -0.1930  2.0536 -1.1882
  764MOL0     H  845   5.642  10.653   4.031  0.9213  0.3042  0.2580
  764MOL0     H  846   5.786  10.518   4.377 -0.5051 -1.1593  0.8240
  764MOL0     H  847   5.780  11.096   3.702 -0.5585 -0.5243  3.6511
  764MOL0     H  848   5.763  11.191   3.467  0.0490 -0.6452 -0.0474
  765MOL0     O  849  10.135   0.724   9.864 -0.0508  0.3568 -0.6672
  765MOL0     C  850  10.216   0.811   9.827 -0.0334  0.6713  0.2831
  765MOL0     O  851  10.215   0.944   9.844  0.1252 -0.0242 -0.5005
  765MOL0     C  852  10.101   0.986   9.907  0.6268 -0.4766 -0.8104
  765MOL0     C  853   9.974   0.979   9.846 -1.0158 -0.4841 -0.3050
  765MOL0     C  854   9.856   1.015   9.902 -0.5245  0.4792 -0.9506
  765MOL0     C  855   9.862   1.088  10.018 -0.4088 -0.5728  0.1900
  765MOL0     O  856   9.741   1.142  10.061  0.2467  0.7912  0.4944
  765MOL0     C  857   9.657   1.048  10.137 -0.2167 -0.2387  0.7838
  765MOL0     C  858   9.694   1.041  10.281  0.2194 -0.0273  0.1745
  765MOL0     C  859   9.682   1.178  10.356 -0.3768  0.0113  0.5435
  765MOL0     C  860   9.729   1.182  10.508  0.6064 -0.2423  0.0759
  765MOL0     C  861   9.697   1.324  10.560 -0.3056  0.9616 -0.6435
  765MOL0     C  862   9.815   1.411  10.537 -0.4974 -1.0220 -0.0041
  765MOL0     C  863   9.800   1.551  10.606 -0.0421 -1.3046  0.1640
  765MOL0     C  864   9.837   1.538  10.759  0.7373  0.5534  0.3657
  765MOL0     N  865   9.841   1.671  10.831  0.0703 -0.2033  0.6636
  765MOL0     C  866   9.922   1.780  10.801  0.1874 -0.2472 -0.2541
  765MOL0     C  867   9.908   1.853  10.915  0.2049  0.2133 -0.1105
  765MOL0     C  868   9.970   1.973  10.973 -0.1608 -0.5965  0.4914
  765MOL0     C  869   9.870   2.091  10.975  0.0617  0.2229 -0.7277
  765MOL0     C  870   9.945   2.210  11.052  0.1908  0.8639  0.6689
  765MOL0     C  871   9.896   2.343  10.987 -0.3499  0.3700  0.4647
  765MOL0     O  872  10.011   2.428  10.968 -0.3852 -0.2080 -0.2690
  765MOL0     C  873   9.994   2.535  10.889  0.2024 -0.7092 -0.0008
  765MOL0     C  874   9.879   2.578  10.813  0.2232 -0.0780 -0.1630
  765MOL0     C  875   9.870   2.706  10.744  0.6051 -0.0257 -0.3788
  765MOL0     C  876   9.973   2.797  10.761 -1.1972 -1.3524  0.3765
  765MOL0     C  877   9.971   2.926  10.698 -0.2010  0.1646 -0.1186
  765MOL0     O  878   9.871   2.935  10.610  0.2926 -0.6356  0.9924
  765MOL0     C  879   9.798   3.056  10.605 -0.1440  0.2847  1.1863
  765MOL0     C  880   9.719   3.077  10.491 -0.8875  0.2294  0.2074
  765MOL0     C  881   9.642   3.184  10.483  0.1701 -0.1432 -0.2202
  765MOL0     C  882   9.624   3.273  10.581  0.0562  0.2982 -0.3646
  765MOL0     O  883   9.521   3.371  10.578  0.1683 -0.2420 -0.2007
  765MOL0     C  884   9.396   3.316  10.627  0.4113  0.6486  0.0182
  765MOL0     C  885   9.334   3.389  10.741 -0.9188  0.2093  0.2954
  765MOL0     C  886   9.194   3.358  10.769 -0.1082 -0.0192 -0.0798
  765MOL0     C  887   9.145   3.448  10.877  0.8185 -0.8392  0.4857
  765MOL0     C  888   8.992   3.415  10.901  0.7938 -0.0851 -0.6227
  765MOL0     C  889   8.919   3.513  10.994 -0.6860 -0.4418  0.0693
  765MOL0     C  890   8.893   3.648  10.924  0.3769  0.3737  0.4215
  765MOL0     C  891   8.828   3.741  11.025 -0.8525 -0.4996  0.2248
  765MOL0    Cl  892   8.695   3.682  11.116 -0.1168 -0.6058 -0.2140
  765MOL0     C  893   9.703   3.265  10.694  0.2328  0.5011  0.4784
  765MOL0     C  894   9.795   3.158  10.705  0.0689  0.8366  0.2455
  765MOL0     O  895  10.051   3.010  10.729  0.3030  0.5468 -0.1783
  765MOL0     C  896  10.087   2.760  10.843  0.4215  0.0482 -1.0838
  765MOL0     C  897  10.094   2.629  10.895 -0.4997 -0.4030 -0.1385
  765MOL0     N  898   9.824   1.794  11.006  0.1600  0.4522  0.1189
  765MOL0     N  899   9.765   1.698  10.945  0.0656  0.3188  0.5143
  765MOL0     C  900   9.985   1.103  10.083  0.6049  0.7416 -0.1769
  765MOL0     C  901  10.102   1.067  10.019 -0.1193  0.1744 -0.2383
  765MOL0     C  902  10.332   0.756   9.752 -0.0983 -0.3738  0.6500
  765MOL0     C  903  10.333   0.626   9.700 -0.0799  1.7118 -0.9133
  765MOL0     C  904  10.432   0.580   9.616  0.0215  0.8060  0.0738
  765MOL0     C  905  10.550   0.657   9.589  0.7098  0.4570 -0.2814
  765MOL0     O  906  10.655   0.610   9.511 -0.0182 -0.1501 -0.2292
  765MOL0     C  907  10.708   0.494   9.567  0.7572  0.2329  0.1776
  765MOL0     C  908  10.853   0.479   9.532  0.6761  0.0490  0.1188
  765MOL0     C  909  10.857   0.453   9.373  0.6331  0.0929  0.6856
  765MOL0     C  910  10.996   0.444   9.314  0.2339 -0.0193  0.7504
  765MOL0     C  911  11.074   0.358   9.403 -0.0996 -0.1429 -0.0003
  765MOL0     C  912  11.138   0.276   9.479  0.7734 -0.5622  0.2407
  765MOL0     C  913  10.565   0.782   9.654  0.2924  0.3272 -0.4027
  765MOL0     C  914  10.448   0.832   9.715  0.0991 -0.5615 -1.3031
  765MOL0     H  915   9.963   0.936   9.747  0.5623 -0.8015 -0.3838
  765MOL0     H  916   9.756   1.001   9.861 -2.0710  2.7801  1.6069
  765MOL0     H  917   9.655   0.947  10.095  1.2175  0.5432 -1.3416
  765MOL0     H  918   9.551   1.073  10.127 -0.3902 -1.3033 -0.1322
  765MOL0     H  919   9.798   1.010  10.298  0.7337  0.6713 -1.5018
  765MOL0     H  920   9.625   0.977  10.336 -0.1667  0.6486  0.4986
  765MOL0     H  921   9.578   1.210  10.344  1.1266  5.0618 -1.8293
  765MOL0     H  922   9.729   1.253  10.293  0.7723 -1.2374 -0.1349
  765MOL0     H  923   9.671   1.106  10.562  1.3833 -1.4909 -0.8001
  765MOL0     H  924   9.831   1.147  10.521  0.7755  0.3905  0.5167
  765MOL0     H  925   9.687   1.323  10.669 -1.4051 -1.1794 -0.7076
  765MOL0     H  926   9.607   1.373  10.522 -1.0120 -0.1116 -0.4013
  765MOL0     H  927   9.818   1.426  10.429 -1.8824 -2.7634 -0.3149
  765MOL0     H  928   9.906   1.365  10.577 -0.1081 -0.6251 -0.4159
  765MOL0     H  929   9.868   1.626  10.565  0.4593 -2.7302 -1.7170
  765MOL0     H  930   9.697   1.584  10.586 -0.4275 -0.7737  2.6252
  765MOL0     H  931   9.939   1.500  10.771  0.5827  0.3445  1.0708
  765MOL0     H  932   9.769   1.471  10.812 -1.1536  1.2421 -1.0639
  765MOL0     H  933   9.978   1.799  10.710 -2.3611 -1.6889 -2.2862
  765MOL0     H  934  10.054   1.996  10.907 -1.0319  0.2700 -0.3497
  765MOL0     H  935  10.007   1.960  11.076 -1.4329 -0.1130  1.0315
  765MOL0     H  936   9.779   2.071  11.033  1.0900 -1.3144  0.4428
  765MOL0     H  937   9.848   2.124  10.873  0.0351 -1.6628 -1.3591
  765MOL0     H  938   9.919   2.208  11.158  0.4372  2.9872  0.8228
  765MOL0     H  939  10.054   2.197  11.046  0.4570  0.8510  3.8007
  765MOL0     H  940   9.830   2.389  11.061  0.7826  1.4733  0.8270
  765MOL0     H  941   9.839   2.327  10.895 -3.8185  1.1884  2.3092
  765MOL0     H  942   9.795   2.510  10.804 -1.0960  1.3474  0.9810
  765MOL0     H  943   9.778   2.712  10.687  0.8130 -0.8166 -0.8072
  765MOL0     H  944   9.725   2.994  10.421 -1.3934 -0.6448  1.1695
  765MOL0     H  945   9.584   3.183  10.391  2.7172 -0.8346 -1.9459
  765MOL0     H  946   9.411   3.213  10.660 -3.5780 -1.6793 -4.2818
  765MOL0     H  947   9.325   3.307  10.544  0.4972 -0.5615  0.0622
  765MOL0     H  948   9.349   3.496  10.724  0.5135 -0.1319 -0.8607
  765MOL0     H  949   9.401   3.366  10.824  0.1776 -1.2997 -0.9400
  765MOL0     H  950   9.188   3.253  10.799 -2.1186 -0.1749 -0.8805
  765MOL0     H  951   9.133   3.359  10.678 -1.1647 -2.5597  0.5087
  765MOL0     H  952   9.197   3.427  10.971 -0.4786 -1.8730  0.9978
  765MOL0     H  953   9.165   3.552  10.851 -0.3168 -0.5123  0.8578
  765MOL0     H  954   8.992   3.319  10.954  1.8664 -0.1870 -0.7719
  765MOL0     H  955   8.940   3.408  10.805  1.0016 -1.0278 -0.6783
  765MOL0     H  956   8.979   3.513  11.086 -0.8507 -3.5049  0.2919
  765MOL0     H  957   8.819   3.473  11.015 -1.2454  1.4317  1.1982
  765MOL0     H  958   8.981   3.684  10.871 -1.2435 -1.4758 -4.0369
  765MOL0     H  959   8.821   3.627  10.844  0.4145 -1.1983  0.7830
  765MOL0     H  960   8.789   3.827  10.969 -0.4007 -1.4879 -1.7116
  765MOL0     H  961   8.907   3.778  11.091  0.2472 -2.2513 -0.0469
  765MOL0     H  962   9.698   3.332  10.780  4.0734  0.8013  0.6289
  765MOL0     H  963   9.862   3.147  10.790  1.1538  2.0067 -0.4187
  765MOL0     H  964  10.170   2.826  10.867 -0.9592  1.2716  0.5378
  765MOL0     H  965  10.184   2.603  10.950  1.0716  1.1026 -1.8469
  765MOL0     H  966   9.972   1.147  10.181 -1.7247  2.2224 -1.0616
  765MOL0     H  967  10.195   1.098  10.065  0.4164  0.1878 -1.3073
  765MOL0     H  968  10.251   0.558   9.721  1.0565  0.4573 -0.3623
  765MOL0     H  969  10.430   0.475   9.588 -3.1871  1.1700 -1.5128
  765MOL0     H  970  10.635   0.421   9.530  1.2046 -0.9409  1.5008
  765MOL0     H  971  10.703   0.496   9.676  0.7812 -1.4495  0.2403
  765MOL0     H  972  10.911   0.572   9.534  2.9898 -1.2635 -1.6265
  765MOL0     H  973  10.911   0.407   9.589  1.4312  0.4864 -0.0852
  765MOL0     H  974  10.809   0.539   9.326  1.6804 -1.1631 -3.0624
  765MOL0     H  975  10.797   0.364   9.354  1.1098 -0.9898  3.7217
  765MOL0     H  976  11.005   0.398   9.215  0.2729  0.2771  0.6163
  765MOL0     H  977  11.034   0.547   9.310 -1.6291  0.6807 -2.2644
  765MOL0     H  978  11.177   0.195   9.537  0.4987 -0.4773  0.5453
  765MOL0     H  979  10.657   0.837   9.640  0.3330  0.4104  0.1847
  765MOL0     H  980  10.452   0.926   9.770  1.5238  0.3605 -2.9010
  766MOL0     O  981   7.928  10.634   9.568 -0.1650  0.1710  0.2159
  766MOL0     C  982   7.979  10.519   9.555 -0.2363 -0.5993  0.3508
  766MOL0     O  983   7.910  10.403   9.521  0.1683 -0.2983 -0.2347
  766MOL0     C  984   7.783  10.411   9.545 -0.2436  0.6089 -0.6100
  766MOL0     C  985   7.738  10.394   9.676 -0.1367  0.2786  0.0271
  766MOL0     C  986   7.602  10.393   9.697 -0.4170 -0.6070 -0.0187
  766MOL0     C  987   7.506  10.375   9.595 -0.4900  0.1268  0.3587
  766MOL0     O  988   7.375  10.363   9.630  0.1943  0.5739 -0.1786
  766MOL0     C  989   7.277  10.398   9.524  0.0594  0.6197  0.4737
  766MOL0     C  990   7.141  10.406   9.578 -0.1141  1.6565  0.1576
  766MOL0     C  991   7.125  10.532   9.654  0.2297 -0.8737  0.6253
  766MOL0     C  992   6.988  10.517   9.728 -0.5661  0.5231 -0.3307
  766MOL0     C  993   6.970  10.646   9.807 -0.0255 -0.5416 -0.5696
  766MOL0     C  994   6.865  10.621   9.929  0.2434 -0.2508 -0.1403
  766MOL0     C  995   6.828  10.742  10.018 -0.2919 -1.0393 -0.2469
  766MOL0     C  996   6.765  10.864   9.945 -0.1699 -0.1888  0.7038
  766MOL0     N  997   6.649  10.826   9.853  0.1013  0.4521 -0.2978
  766MOL0     C  998   6.520  10.832   9.893  0.7559 -0.1730  0.9250
  766MOL0     C  999   6.446  10.804   9.777  0.3301  0.0727 -0.0406
  766MOL0     C 1000   6.302  10.835   9.750  0.3985  0.0777 -0.0563
  766MOL0     C 1001   6.263  10.984   9.746  0.4336 -0.1887  0.0782
  766MOL0     C 1002   6.105  10.998   9.731  1.0301 -0.5093 -0.5768
  766MOL0     C 1003   6.048  11.136   9.704  0.0630  0.0784  0.6730
  766MOL0     O 1004   5.910  11.135   9.682 -0.8196  0.1030  0.6402
  766MOL0     C 1005   5.860  11.253   9.639 -1.0000 -0.4544  0.6100
  766MOL0     C 1006   5.929  11.369   9.589 -0.7830 -0.2520  0.4393
  766MOL0     C 1007   5.863  11.484   9.559  1.0165 -0.0336 -0.2301
  766MOL0     C 1008   5.720  11.480   9.560 -0.2244 -1.2468  0.6917
  766MOL0     C 1009   5.634  11.587   9.501  0.9539  0.6293 -0.2380
  766MOL0     O 1010   5.507  11.598   9.551 -0.0054 -0.1146  0.6048
  766MOL0     C 1011   5.449  11.722   9.531 -0.3197 -0.0937 -0.1117
  766MOL0     C 1012   5.509  11.847   9.562 -0.6593 -0.0397  0.6196
  766MOL0     C 1013   5.451  11.970   9.532  0.4718  1.0683 -0.1554
  766MOL0     C 1014   5.327  11.973   9.476 -0.6560  0.6555 -0.4911
  766MOL0     O 1015   5.277  12.072   9.411 -0.4127 -0.1172  0.3798
  766MOL0     C 1016   5.237  12.185   9.485 -0.1412 -0.4414 -0.6064
  766MOL0     C 1017   5.264  12.319   9.407 -0.2557  0.3525  0.2491
  766MOL0     C 1018   5.413  12.358   9.392 -0.0602 -0.0093  0.4641
  766MOL0     C 1019   5.440  12.470   9.285  0.0797 -0.2427  0.1248
  766MOL0     C 1020   5.586  12.516   9.283 -0.1238  0.2387  0.2586
  766MOL0     C 1021   5.609  12.602   9.160 -0.0708  0.2356  0.5123
  766MOL0     C 1022   5.732  12.695   9.155 -0.3105  0.9049  0.5991
  766MOL0     C 1023   5.852  12.618   9.205 -0.1378  0.0471 -0.0659
  766MOL0    Cl 1024   5.863  12.461   9.124  0.2938 -0.1150 -0.0148
  766MOL0     C 1025   5.265  11.853   9.463 -0.3309 -0.0700  0.8607
  766MOL0     C 1026   5.318  11.727   9.484  0.1229  0.5308 -0.7092
  766MOL0     O 1027   5.683  11.638   9.406  0.3994 -0.4492  0.2637
  766MOL0     C 1028   5.655  11.372   9.614 -0.5943  0.3113  0.5494
  766MOL0     C 1029   5.726  11.264   9.662 -0.6258  0.3782  0.2603
  766MOL0     N 1030   6.532  10.759   9.672  0.0182  0.1687 -0.9574
  766MOL0     N 1031   6.654  10.776   9.724  0.7420 -0.6446  0.2841
  766MOL0     C 1032   7.566  10.378   9.464 -0.6121 -0.1086  0.2162
  766MOL0     C 1033   7.698  10.399   9.444 -0.1023 -0.2669 -0.4669
  766MOL0     C 1034   8.123  10.502   9.570 -0.0580  1.1197 -0.2094
  766MOL0     C 1035   8.205  10.615   9.564  0.4225 -0.4493  0.9608
  766MOL0     C 1036   8.337  10.604   9.591 -0.0511  0.0788 -0.6315
  766MOL0     C 1037   8.381  10.481   9.624  0.2928  0.8037  0.1545
  766MOL0     O 1038   8.511  10.457   9.652 -0.6573  0.3533  0.2382
  766MOL0     C 1039   8.536  10.459   9.792 -0.2009  0.8195  0.2035
  766MOL0     C 1040   8.691  10.457   9.818 -0.8039  0.0039  0.7919
  766MOL0     C 1041   8.739  10.419   9.961  0.0570  0.6673 -1.0039
  766MOL0     C 1042   8.691  10.512  10.068  0.2613 -0.1428 -0.1578
  766MOL0     C 1043   8.778  10.630  10.086 -1.0722  0.1855  0.5821
  766MOL0     C 1044   8.839  10.736  10.105 -0.3190 -0.0762  0.2378
  766MOL0     C 1045   8.309  10.362   9.615 -0.3245  0.1058  0.6506
  766MOL0     C 1046   8.171  10.373   9.584 -0.4220  0.6072  0.5889
  766MOL0     H 1047   7.822  10.389   9.745  1.4483  1.9680 -1.6798
  766MOL0     H 1048   7.566  10.407   9.799  1.0520 -1.3616  0.6196
  766MOL0     H 1049   7.271  10.321   9.447 -1.9849  4.1214 -3.2166
  766MOL0     H 1050   7.298  10.496   9.481  0.3851  2.1636  3.7984
  766MOL0     H 1051   7.125  10.322   9.647 -3.4062  0.5762 -1.6909
  766MOL0     H 1052   7.069  10.405   9.496 -0.3389  1.7581  0.3496
  766MOL0     H 1053   7.134  10.616   9.585  0.5329 -1.5013 -0.1178
  766MOL0     H 1054   7.205  10.544   9.728  1.3028  0.3387 -0.6715
  766MOL0     H 1055   6.906  10.497   9.657 -1.1500 -1.0371  0.7349
  766MOL0     H 1056   6.986  10.441   9.806 -1.6407  2.1427  1.2973
  766MOL0     H 1057   6.921  10.723   9.746  1.6324  1.2225  0.2213
  766MOL0     H 1058   7.067  10.680   9.843  0.1287  0.2432 -1.6780
  766MOL0     H 1059   6.901  10.536   9.988  0.7065 -2.3593 -3.2445
  766MOL0     H 1060   6.768  10.581   9.895  0.1434 -0.4293  0.3414
  766MOL0     H 1061   6.763  10.706  10.098  2.4972 -0.9138  2.2343
  766MOL0     H 1062   6.919  10.777  10.066 -0.5412  2.5708 -2.0881
  766MOL0     H 1063   6.841  10.908   9.880  1.9845 -4.5082 -0.0229
  766MOL0     H 1064   6.728  10.936  10.019 -4.5139  0.5525 -1.8549
  766MOL0     H 1065   6.479  10.859   9.989 -1.0383  1.2765 -0.1703
  766MOL0     H 1066   6.245  10.787   9.831  0.6570  0.2080  0.2026
  766MOL0     H 1067   6.267  10.805   9.651  3.0497  0.8106 -1.2813
  766MOL0     H 1068   6.312  11.036   9.664 -0.8209 -0.8561 -1.1269
  766MOL0     H 1069   6.291  11.028   9.842  0.4869  0.8822 -0.4160
  766MOL0     H 1070   6.067  10.942   9.645 -1.5005  3.4586 -2.3223
  766MOL0     H 1071   6.073  10.962   9.829 -1.4130  0.8287 -0.8212
  766MOL0     H 1072   6.098  11.173   9.614 -2.6372 -0.2091 -1.0590
  766MOL0     H 1073   6.087  11.200   9.784  0.4604  3.2925 -1.9013
  766MOL0     H 1074   6.036  11.361   9.574 -1.0076 -1.2933 -0.7647
  766MOL0     H 1075   5.919  11.570   9.526  0.4817  0.7029  0.7220
  766MOL0     H 1076   5.612  11.849   9.594 -1.0465 -0.3076  1.9405
  766MOL0     H 1077   5.510  12.061   9.530  0.0196  1.3617 -0.3250
  766MOL0     H 1078   5.293  12.196   9.579  1.1203  0.3624 -1.4268
  766MOL0     H 1079   5.132  12.185   9.516 -0.3107  2.9352 -0.8006
  766MOL0     H 1080   5.215  12.406   9.450 -0.6186 -0.0919  0.7531
  766MOL0     H 1081   5.235  12.307   9.302  0.0793  1.1178  0.0659
  766MOL0     H 1082   5.464  12.264   9.372 -2.1458 -0.8338 -1.3769
  766MOL0     H 1083   5.452  12.390   9.489  2.1313  0.6902 -0.5801
  766MOL0     H 1084   5.399  12.422   9.196 -0.4372 -2.1370  1.3380
  766MOL0     H 1085   5.375  12.556   9.303  1.3206  0.9493 -0.8622
  766MOL0     H 1086   5.651  12.428   9.294 -0.3997  0.0529  0.4115
  766MOL0     H 1087   5.593  12.586   9.367 -1.8475  1.1981 -0.3581
  766MOL0     H 1088   5.525  12.669   9.142 -0.2384 -0.4281 -1.3502
  766MOL0     H 1089   5.599  12.535   9.074 -0.2369 -1.6926  1.9676
  766MOL0     H 1090   5.736  12.742   9.056 -0.2525  0.1089  0.2122
  766MOL0     H 1091   5.715  12.779   9.223 -0.0641  0.6786  0.9382
  766MOL0     H 1092   5.843  12.579   9.306  0.4707  2.0010  0.7870
  766MOL0     H 1093   5.942  12.679   9.197 -1.4805  2.4948  1.9851
  766MOL0     H 1094   5.163  11.847   9.424 -0.7004 -1.3640  1.9528
  766MOL0     H 1095   5.270  11.637   9.445 -0.4882  1.4841 -2.2582
  766MOL0     H 1096   5.550  11.367   9.638 -0.9242 -0.0632 -0.8919
  766MOL0     H 1097   5.691  11.179   9.720  3.0532 -1.3520  0.1802
  766MOL0     H 1098   7.504  10.356   9.378  0.8670 -0.0067 -0.9123
  766MOL0     H 1099   7.731  10.403   9.341  0.8918 -4.3416 -0.4882
  766MOL0     H 1100   8.171  10.714   9.536 -0.0960 -0.6669  0.8099
  766MOL0     H 1101   8.396  10.694   9.573  0.9414 -0.4153  0.0458
  766MOL0     H 1102   8.488  10.368   9.828  1.0169 -1.1165 -2.6935
  766MOL0     H 1103   8.490  10.549   9.834  2.9825  2.2984  0.8404
  766MOL0     H 1104   8.735  10.379   9.755 -1.2253  0.4188 -0.0333
  766MOL0     H 1105   8.739  10.551   9.787  0.8963 -0.1830  2.6791
  766MOL0     H 1106   8.845  10.393   9.965 -0.1066 -0.4272 -2.6651
  766MOL0     H 1107   8.703  10.318   9.985  2.8511 -0.4008 -0.8620
  766MOL0     H 1108   8.593  10.556  10.046  1.0758  3.0299  1.8282
  766MOL0     H 1109   8.673  10.452  10.158  0.8020 -1.3870 -0.8471
  766MOL0     H 1110   8.895  10.812  10.157 -0.7138 -1.1998  2.4111
  766MOL0     H 1111   8.355  10.266   9.634 -1.1176 -0.9311 -2.1900
  766MOL0     H 1112   8.110  10.284   9.587  0.7126 -0.3261 -1.5293
  767MOL0     O 1113   4.583   7.665   2.112 -0.2937  0.4071 -0.8040
  767MOL0     C 1114   4.552   7.638   1.993  1.4376  0.1881  0.4310
  767MOL0     O 1115   4.442   7.571   1.948  0.1771 -0.4792 -1.0607
  767MOL0     C 1116   4.348   7.512   2.031  0.0148 -0.5947  0.5847
  767MOL0     C 1117   4.265   7.590   2.106  0.4028 -0.7050  0.0759
  767MOL0     C 1118   4.166   7.534   2.177 -0.2992  0.3097  0.7780
  767MOL0     C 1119   4.158   7.388   2.189  0.4794  0.8365  0.8466
  767MOL0     O 1120   4.048   7.336   2.259 -0.6919 -0.0824 -0.1784
  767MOL0     C 1121   3.949   7.298   2.165  0.2972  0.2349  0.6303
  767MOL0     C 1122   3.839   7.209   2.233  0.8012 -0.3091 -1.3389
  767MOL0     C 1123   3.715   7.181   2.134 -0.1787  0.1319 -0.2809
  767MOL0     C 1124   3.594   7.116   2.204 -0.0566 -0.5252 -0.2935
  767MOL0     C 1125   3.478   7.132   2.124  0.5224 -0.7914 -0.0557
  767MOL0     C 1126   3.371   7.029   2.170  0.3238  0.0259 -1.2439
  767MOL0     C 1127   3.244   7.014   2.087  0.2959 -0.0052 -0.6191
  767MOL0     C 1128   3.164   7.148   2.095  0.5081 -0.2984 -1.1952
  767MOL0     N 1129   3.021   7.123   2.056  0.1042 -0.4548  0.7314
  767MOL0     C 1130   2.982   7.109   1.917  0.1527 -0.6533 -0.3626
  767MOL0     C 1131   2.862   7.048   1.922 -1.1357 -0.6403  0.3527
  767MOL0     C 1132   2.772   6.996   1.812  0.6720 -0.3425 -0.5707
  767MOL0     C 1133   2.632   7.058   1.805  0.3149 -0.2799  0.0104
  767MOL0     C 1134   2.637   7.197   1.738 -0.0872 -0.4801 -0.5739
  767MOL0     C 1135   2.492   7.249   1.715 -0.1122 -0.4508 -1.0515
  767MOL0     O 1136   2.519   7.387   1.675 -0.5190  0.2521  0.0914
  767MOL0     C 1137   2.413   7.463   1.635  0.0138  0.1707  0.3149
  767MOL0     C 1138   2.297   7.414   1.577  0.9965  0.3362 -0.1067
  767MOL0     C 1139   2.197   7.497   1.524 -0.0596  0.8469  0.0450
  767MOL0     C 1140   2.209   7.632   1.543  0.1066 -0.2960 -0.7123
  767MOL0     C 1141   2.094   7.724   1.513 -0.4996  0.5002  0.0013
  767MOL0     O 1142   1.978   7.677   1.453  0.3986  0.0295  0.1263
  767MOL0     C 1143   1.890   7.777   1.411  0.8272  0.0974  1.2392
  767MOL0     C 1144   1.768   7.794   1.477 -0.0200  0.1538  0.0134
  767MOL0     C 1145   1.672   7.895   1.441 -0.4229 -0.0456 -0.4921
  767MOL0     C 1146   1.708   7.983   1.331  0.6394  1.1791  0.4668
  767MOL0     O 1147   1.628   8.079   1.280  0.0503 -0.2331 -0.6249
  767MOL0     C 1148   1.671   8.208   1.322  0.4607 -1.1530 -0.5033
  767MOL0     C 1149   1.582   8.314   1.250  0.0215  1.1574  0.2921
  767MOL0     C 1150   1.446   8.337   1.314  0.1213  0.8327 -0.1991
  767MOL0     C 1151   1.358   8.214   1.350 -0.0031 -0.0522  0.1706
  767MOL0     C 1152   1.212   8.260   1.347  0.3903  0.5686 -0.4287
  767MOL0     C 1153   1.120   8.142   1.359  0.8229 -0.0247  0.5916
  767MOL0     C 1154   0.978   8.187   1.385  0.9420  0.3623 -0.1018
  767MOL0     C 1155   0.864   8.081   1.374 -0.8341 -0.4732 -0.1340
  767MOL0    Cl 1156   0.871   7.958   1.504  0.0805 -0.3419  0.3277
  767MOL0     C 1157   1.831   7.967   1.267  0.2874  0.2883  0.2497
  767MOL0     C 1158   1.922   7.866   1.309  0.0228 -1.0774 -0.1889
  767MOL0     O 1159   2.110   7.841   1.542 -0.0896  0.1024  0.2582
  767MOL0     C 1160   2.315   7.688   1.620 -0.1537  0.6731  0.8713
  767MOL0     C 1161   2.415   7.598   1.667  0.4971 -0.9956 -0.1316
  767MOL0     N 1162   2.839   7.032   2.060  0.1845  0.2809  0.7659
  767MOL0     N 1163   2.930   7.073   2.138 -0.3564  0.1161  0.6929
  767MOL0     C 1164   4.244   7.310   2.125  0.2385  0.0038  0.1003
  767MOL0     C 1165   4.340   7.371   2.044 -0.5802  0.0269  0.2109
  767MOL0     C 1166   4.646   7.665   1.885  0.6029  0.4242  0.7574
  767MOL0     C 1167   4.750   7.757   1.907 -0.0844 -0.3292 -0.6127
  767MOL0     C 1168   4.841   7.784   1.816 -0.4546  0.3411 -0.3310
  767MOL0     C 1169   4.840   7.711   1.692  0.5192  0.5399 -0.9113
  767MOL0     O 1170   4.943   7.735   1.611 -0.1287  0.8439 -0.2578
  767MOL0     C 1171   5.004   7.619   1.550 -0.0766 -0.7548 -0.7631
  767MOL0     C 1172   5.158   7.620   1.556  0.2306  0.0126 -0.2562
  767MOL0     C 1173   5.226   7.750   1.494  0.9536  0.6369  0.1207
  767MOL0     C 1174   5.379   7.727   1.489  0.1137  0.4498 -0.1912
  767MOL0     C 1175   5.431   7.830   1.399  0.2665  0.3563 -0.1838
  767MOL0     C 1176   5.485   7.907   1.319 -0.0301 -0.1633 -0.1107
  767MOL0     C 1177   4.738   7.618   1.664 -0.8657 -0.7994 -0.9178
  767MOL0     C 1178   4.644   7.593   1.760 -0.0824 -0.2340  0.4704
  767MOL0     H 1179   4.260   7.698   2.094 -3.4804 -0.9088 -1.3337
  767MOL0     H 1180   4.103   7.604   2.231  1.8892  3.5209 -0.4759
  767MOL0     H 1181   3.987   7.249   2.075 -0.6820 -1.4962  1.1189
  767MOL0     H 1182   3.900   7.384   2.118  2.2651 -0.3878 -2.9321
  767MOL0     H 1183   3.798   7.261   2.320  2.1270 -0.4609 -0.5915
  767MOL0     H 1184   3.871   7.111   2.270 -4.4017 -3.1130 -3.2589
  767MOL0     H 1185   3.743   7.121   2.047 -0.6743 -0.6215  0.0578
  767MOL0     H 1186   3.685   7.274   2.086  2.3268 -1.0139 -4.6231
  767MOL0     H 1187   3.608   7.010   2.225 -0.2396  0.1288  4.2932
  767MOL0     H 1188   3.577   7.162   2.302  2.1173 -0.6793  0.1993
  767MOL0     H 1189   3.495   7.105   2.019  3.3054 -1.3571  0.4581
  767MOL0     H 1190   3.422   7.226   2.122 -1.4278 -1.8900 -1.5786
  767MOL0     H 1191   3.349   7.056   2.273  0.2699 -1.0494 -0.9549
  767MOL0     H 1192   3.415   6.929   2.164  0.0881 -0.2810  1.3449
  767MOL0     H 1193   3.269   6.995   1.982  0.7005 -1.6514 -0.2520
  767MOL0     H 1194   3.172   6.937   2.116 -2.5545  2.2651 -1.2318
  767MOL0     H 1195   3.194   7.220   2.018 -1.8332  0.1303 -1.7949
  767MOL0     H 1196   3.173   7.186   2.197  2.1520 -1.4691 -0.8700
  767MOL0     H 1197   3.042   7.113   1.827 -0.4979  1.1803 -0.7658
  767MOL0     H 1198   2.757   6.892   1.842 -0.9370  0.3476  1.2780
  767MOL0     H 1199   2.821   6.992   1.715  2.7797 -1.8746  0.4788
  767MOL0     H 1200   2.575   7.067   1.898 -2.0292 -0.7954 -1.2889
  767MOL0     H 1201   2.571   6.996   1.739 -2.7651  1.9861  0.5028
  767MOL0     H 1202   2.708   7.266   1.785 -0.3093 -1.4110  1.2594
  767MOL0     H 1203   2.683   7.181   1.640 -1.5082  0.8050 -1.4929
  767MOL0     H 1204   2.427   7.250   1.803 -1.9948  1.9948 -2.3536
  767MOL0     H 1205   2.447   7.189   1.635 -0.1958 -2.8535  0.6654
  767MOL0     H 1206   2.287   7.307   1.562 -1.8151  0.1262  2.3463
  767MOL0     H 1207   2.106   7.470   1.472 -1.1614  3.1454  0.6645
  767MOL0     H 1208   1.756   7.736   1.568  2.4968  1.4038  1.2433
  767MOL0     H 1209   1.580   7.903   1.498  0.6624  1.4778  1.1604
  767MOL0     H 1210   1.778   8.228   1.313  0.6355 -1.0603  1.3431
  767MOL0     H 1211   1.647   8.232   1.426  1.5353 -0.8856 -0.3048
  767MOL0     H 1212   1.562   8.290   1.145  1.7029 -0.3217  0.2576
  767MOL0     H 1213   1.635   8.409   1.255 -0.5256  1.4309  0.8701
  767MOL0     H 1214   1.400   8.407   1.243 -1.2323 -1.1124 -1.3175
  767MOL0     H 1215   1.446   8.399   1.405  0.3859  0.3372  0.1414
  767MOL0     H 1216   1.365   8.134   1.276  2.5876  1.0037 -0.8356
  767MOL0     H 1217   1.383   8.184   1.452 -0.2215  1.9107  0.8367
  767MOL0     H 1218   1.198   8.327   1.262 -0.9240  2.0287  0.8879
  767MOL0     H 1219   1.204   8.317   1.440 -0.3395 -1.5903  0.9091
  767MOL0     H 1220   1.142   8.079   1.445 -0.0061 -0.9842  0.1259
  767MOL0     H 1221   1.129   8.083   1.267 -0.0515  2.3972 -1.1489
  767MOL0     H 1222   0.964   8.222   1.487  0.5006 -1.5300  0.5255
  767MOL0     H 1223   0.965   8.275   1.322  0.0906  1.2507  1.2714
  767MOL0     H 1224   0.871   8.033   1.276  1.4024  2.5381 -1.6189
  767MOL0     H 1225   0.767   8.132   1.379 -0.6441  0.6153 -4.1897
  767MOL0     H 1226   1.851   8.033   1.183 -0.2507 -1.0321 -0.9583
  767MOL0     H 1227   2.012   7.856   1.249  0.8283  1.5765  0.4402
  767MOL0     H 1228   2.321   7.795   1.634  2.3507  0.9440 -1.4838
  767MOL0     H 1229   2.488   7.648   1.730  3.0997 -1.9256 -2.1926
  767MOL0     H 1230   4.241   7.203   2.142  1.5436 -0.0295  0.2372
  767MOL0     H 1231   4.420   7.326   1.986 -0.5323  1.1004 -0.5976
  767MOL0     H 1232   4.747   7.810   2.001  0.1599 -1.4520  0.0449
  767MOL0     H 1233   4.924   7.854   1.815  1.5860 -1.9285 -0.7372
  767MOL0     H 1234   4.976   7.603   1.446 -2.3591  1.9277 -0.7045
  767MOL0     H 1235   4.975   7.532   1.610 -3.0374  0.4233 -0.3325
  767MOL0     H 1236   5.192   7.598   1.658 -0.8064 -1.3081 -0.1623
  767MOL0     H 1237   5.193   7.539   1.492  0.0055  0.1213 -0.5190
  767MOL0     H 1238   5.213   7.828   1.569  0.3881  0.0100  0.6874
  767MOL0     H 1239   5.176   7.782   1.403 -1.2958  3.7228  2.2621
  767MOL0     H 1240   5.435   7.733   1.583  0.3579  0.7615 -0.3542
  767MOL0     H 1241   5.398   7.622   1.466 -0.5228 -0.3613  2.6377
  767MOL0     H 1242   5.520   7.965   1.236 -1.7077 -2.2869 -2.4554
  767MOL0     H 1243   4.722   7.578   1.564 -1.7680 -2.1206 -0.2798
  767MOL0     H 1244   4.567   7.518   1.744  1.9079 -2.5611  1.0536
  768MOL0     O 1245   8.252   9.567   5.806  0.1550 -0.1679  0.3022
  768MOL0     C 1246   8.239   9.635   5.703  0.6665 -0.1902 -1.0303
  768MOL0     O 1247   8.130   9.708   5.663 -0.5280 -0.0564  0.2056
  768MOL0     C 1248   8.011   9.699   5.730 -0.1964 -0.0923 -0.4138
  768MOL0     C 1249   7.935   9.583   5.719 -0.4465  0.0536 -0.6118
  768MOL0     C 1250   7.826   9.566   5.803  0.3510  0.2357 -0.3777
  768MOL0     C 1251   7.794   9.662   5.903 -0.4514  0.2109 -0.3943
  768MOL0     O 1252   7.673   9.653   5.975 -0.0921  0.1609  1.0098
  768MOL0     C 1253   7.662   9.532   6.056  1.0004 -0.3690  0.7278
  768MOL0     C 1254   7.530   9.553   6.140 -0.7995 -0.1122  0.0144
  768MOL0     C 1255   7.420   9.441   6.105 -0.4149  0.0003  0.0703
  768MOL0     C 1256   7.291   9.442   6.186  0.4872 -0.0010 -0.7461
  768MOL0     C 1257   7.184   9.352   6.113 -0.4781  0.1610 -0.1991
  768MOL0     C 1258   7.071   9.356   6.211 -0.3906 -0.5308 -0.3564
  768MOL0     C 1259   6.949   9.291   6.141 -0.2722  0.2552 -0.0007
  768MOL0     C 1260   6.955   9.143   6.094  0.2439 -0.3396  0.5010
  768MOL0     N 1261   6.827   9.078   6.070  0.3971  0.6623  0.2087
  768MOL0     C 1262   6.737   9.110   5.965 -0.9566 -0.4781 -0.2801
  768MOL0     C 1263   6.636   9.019   5.964 -0.2758 -0.8530  0.1925
  768MOL0     C 1264   6.529   9.003   5.856 -0.1737 -0.0479 -0.2805
  768MOL0     C 1265   6.425   9.110   5.866  0.2978 -0.0555  0.2536
  768MOL0     C 1266   6.290   9.082   5.797 -0.5279 -0.3780  0.1837
  768MOL0     C 1267   6.197   9.196   5.833  1.0017 -0.0586 -0.8806
  768MOL0     O 1268   6.069   9.182   5.759  0.6337 -0.5445  0.1072
  768MOL0     C 1269   6.033   9.256   5.649  0.1236 -0.0184 -0.5722
  768MOL0     C 1270   5.911   9.216   5.605 -0.1246 -0.0813 -0.5832
  768MOL0     C 1271   5.855   9.273   5.491 -0.0776 -0.1531  0.3457
  768MOL0     C 1272   5.921   9.379   5.409  0.6702 -0.2144 -0.1986
  768MOL0     C 1273   5.858   9.449   5.297 -0.5908  0.6815  0.2089
  768MOL0     O 1274   5.918   9.564   5.266  0.1779 -0.6023  0.0244
  768MOL0     C 1275   5.876   9.624   5.147  0.5552  0.7005 -0.9204
  768MOL0     C 1276   5.889   9.556   5.027  0.4049 -0.5226  1.5133
  768MOL0     C 1277   5.838   9.625   4.911 -0.6933  0.1464  0.1648
  768MOL0     C 1278   5.782   9.747   4.924  0.3202  0.5298 -0.7777
  768MOL0     O 1279   5.698   9.803   4.830 -1.0361 -0.8860 -0.6574
  768MOL0     C 1280   5.590   9.728   4.799 -0.8413 -0.7645 -0.4828
  768MOL0     C 1281   5.477   9.792   4.860  0.1905 -1.3924 -0.0063
  768MOL0     C 1282   5.443   9.932   4.813 -0.5183  1.0326 -0.2849
  768MOL0     C 1283   5.374   9.924   4.675 -0.4155  0.4454 -0.1996
  768MOL0     C 1284   5.342  10.073   4.624 -0.1437 -0.7583 -1.1550
  768MOL0     C 1285   5.256  10.160   4.733  0.4399 -0.2599  0.3487
  768MOL0     C 1286   5.131  10.091   4.783 -0.2690 -0.3046  0.6394
  768MOL0     C 1287   5.070  10.155   4.915  0.3351 -0.2006  0.5390
  768MOL0    Cl 1288   5.177  10.147   5.055 -0.1435 -0.0032  0.1540
  768MOL0     C 1289   5.790   9.821   5.047 -0.4148  0.6038  0.8845
  768MOL0     C 1290   5.838   9.760   5.155 -0.0466  0.2134 -1.1388
  768MOL0     O 1291   5.765   9.402   5.232 -0.2957  0.3212  0.2998
  768MOL0     C 1292   6.049   9.410   5.459 -0.3442 -0.5295 -0.1460
  768MOL0     C 1293   6.104   9.352   5.578  0.3129 -0.4267  0.1514
  768MOL0     N 1294   6.666   8.934   6.080  0.1854  0.7564 -0.3028
  768MOL0     N 1295   6.776   8.972   6.143 -0.4239 -0.6771  1.1930
  768MOL0     C 1296   7.874   9.776   5.918 -0.8951  0.1391 -0.4059
  768MOL0     C 1297   7.984   9.800   5.830 -0.1753  0.3523  0.5071
  768MOL0     C 1298   8.347   9.623   5.602 -0.5675  0.3969  0.4488
  768MOL0     C 1299   8.471   9.553   5.633 -0.8856 -0.7375 -0.2581
  768MOL0     C 1300   8.570   9.528   5.534  0.5810  0.4071 -0.0828
  768MOL0     C 1301   8.551   9.561   5.401 -0.5048 -0.0794 -0.4847
  768MOL0     O 1302   8.645   9.527   5.312  0.2491 -0.8841  0.2493
  768MOL0     C 1303   8.624   9.556   5.178  0.7635  0.2047 -0.1854
  768MOL0     C 1304   8.741   9.499   5.095  0.2463  0.3680 -0.5982
  768MOL0     C 1305   8.735   9.353   5.052 -0.2024  0.1702 -0.5891
  768MOL0     C 1306   8.748   9.322   4.896  0.2043  0.0332 -0.7867
  768MOL0     C 1307   8.886   9.360   4.845  0.2811  0.2812 -0.6832
  768MOL0     C 1308   8.986   9.404   4.795 -0.1862  0.2021  1.0952
  768MOL0     C 1309   8.426   9.627   5.367  0.4188 -0.4691  0.2846
  768MOL0     C 1310   8.326   9.656   5.461  0.1662 -0.2736 -0.4053
  768MOL0     H 1311   7.977   9.503   5.658  1.3837 -0.0587  0.6902
  768MOL0     H 1312   7.759   9.483   5.785  0.0808  0.7687 -1.9772
  768MOL0     H 1313   7.747   9.530   6.124 -0.6377 -1.5240  2.8585
  768MOL0     H 1314   7.658   9.450   5.983  0.0438  3.0771 -3.5081
  768MOL0     H 1315   7.491   9.652   6.117 -1.0799 -0.6018 -1.8543
  768MOL0     H 1316   7.545   9.547   6.248 -1.8130 -0.7794  0.1388
  768MOL0     H 1317   7.459   9.340   6.122 -4.4938 -1.7801  0.0381
  768MOL0     H 1318   7.395   9.449   5.999 -1.5066 -2.8236  0.0302
  768MOL0     H 1319   7.313   9.407   6.287 -0.0816 -0.7555 -0.8724
  768MOL0     H 1320   7.255   9.545   6.194 -0.1256 -0.3464  3.9130
  768MOL0     H 1321   7.221   9.250   6.101  0.7335  0.8257 -2.7439
  768MOL0     H 1322   7.151   9.376   6.012 -1.6980 -0.5616  0.0018
  768MOL0     H 1323   7.042   9.461   6.220 -2.6420 -0.8257 -2.7476
  768MOL0     H 1324   7.095   9.313   6.309 -1.3925  0.2526  0.2575
  768MOL0     H 1325   6.872   9.285   6.218 -1.0376 -0.4873 -0.7933
  768MOL0     H 1326   6.919   9.345   6.051 -2.7760 -0.7358  0.1515
  768MOL0     H 1327   7.001   9.081   6.171  1.8856  1.0395  0.7146
  768MOL0     H 1328   7.012   9.134   6.000 -0.3978 -2.1554  0.2546
  768MOL0     H 1329   6.753   9.191   5.895 -0.3939 -0.3076  0.0435
  768MOL0     H 1330   6.479   8.908   5.875  1.5018 -0.6412  1.5142
  768MOL0     H 1331   6.581   9.007   5.760  3.4083  1.9175  1.5153
  768MOL0     H 1332   6.458   9.211   5.841 -0.9332 -0.3427 -2.9671
  768MOL0     H 1333   6.403   9.110   5.973  3.9849 -3.0228  1.2499
  768MOL0     H 1334   6.293   9.082   5.687 -1.0430  1.2251  0.1435
  768MOL0     H 1335   6.246   8.991   5.840  1.3151 -1.5229 -0.2328
  768MOL0     H 1336   6.242   9.296   5.826 -1.0087  1.1046  1.2396
  768MOL0     H 1337   6.171   9.176   5.938  0.5278 -0.2747 -1.0396
  768MOL0     H 1338   5.854   9.135   5.649 -0.8963  0.5556 -0.3961
  768MOL0     H 1339   5.750   9.258   5.468 -0.8130  2.2111  1.8294
  768MOL0     H 1340   5.939   9.460   5.018 -0.3438 -0.8537  0.7118
  768MOL0     H 1341   5.831   9.559   4.825  0.4355 -1.3191  1.1586
  768MOL0     H 1342   5.600   9.627   4.841  2.2915 -0.1710  0.4529
  768MOL0     H 1343   5.595   9.722   4.690  0.4601  0.8661 -0.5544
  768MOL0     H 1344   5.488   9.791   4.969 -2.5472 -0.6853  0.3468
  768MOL0     H 1345   5.385   9.734   4.854  0.4113 -2.1038  2.4388
  768MOL0     H 1346   5.530   9.998   4.806  0.8043 -0.5707  0.3214
  768MOL0     H 1347   5.384   9.981   4.892 -1.1810  1.0843 -0.8081
  768MOL0     H 1348   5.453   9.874   4.618 -0.6991 -2.0072  1.4064
  768MOL0     H 1349   5.286   9.860   4.686  1.7176 -3.0093 -1.5910
  768MOL0     H 1350   5.273  10.072   4.539 -1.5852 -1.7937 -0.0275
  768MOL0     H 1351   5.430  10.130   4.594  0.5593 -2.0283 -1.6102
  768MOL0     H 1352   5.226  10.247   4.674 -3.3803 -2.2320 -0.9839
  768MOL0     H 1353   5.320  10.196   4.814  0.2286  2.0876 -0.4495
  768MOL0     H 1354   5.048  10.092   4.711 -1.4460 -1.4149  1.9116
  768MOL0     H 1355   5.163   9.989   4.802  2.2172  0.0945 -0.9395
  768MOL0     H 1356   4.981  10.100   4.944  0.7292 -1.4094 -0.4945
  768MOL0     H 1357   5.051  10.259   4.887 -1.3125 -0.6566 -0.1239
  768MOL0     H 1358   5.754   9.922   5.055 -1.9131  0.1260  0.4177
  768MOL0     H 1359   5.837   9.804   5.254 -1.5780 -0.5891 -0.7742
  768MOL0     H 1360   6.098   9.488   5.402 -0.9649  1.2432  1.6542
  768MOL0     H 1361   6.208   9.371   5.599  0.2874 -0.3043  0.1652
  768MOL0     H 1362   7.856   9.844   6.000  1.9001  0.7752 -0.2439
  768MOL0     H 1363   8.046   9.888   5.842  3.2598 -2.0028  1.8430
  768MOL0     H 1364   8.493   9.528   5.737 -3.6072 -1.7691  0.1461
  768MOL0     H 1365   8.665   9.486   5.564  0.0264  1.6867  4.1199
  768MOL0     H 1366   8.620   9.665   5.173 -1.0169  0.1498 -0.7856
  768MOL0     H 1367   8.527   9.527   5.136 -0.3867  1.9832  1.1263
  768MOL0     H 1368   8.746   9.557   5.002 -2.5920  1.4283 -0.2004
  768MOL0     H 1369   8.833   9.514   5.152 -0.6492 -0.6978  1.2368
  768MOL0     H 1370   8.645   9.309   5.097  1.1166 -2.6032 -0.4649
  768MOL0     H 1371   8.812   9.289   5.096 -1.9015  0.5305  3.4015
  768MOL0     H 1372   8.740   9.214   4.881 -1.2566 -0.5737  3.0378
  768MOL0     H 1373   8.669   9.377   4.844  1.1868  0.0649 -2.2859
  768MOL0     H 1374   9.082   9.416   4.748 -2.0269 -0.7603 -3.3612
  768MOL0     H 1375   8.407   9.662   5.266 -2.2258  0.3667  0.9941
  768MOL0     H 1376   8.233   9.705   5.433  0.5420  0.5637 -0.2109
  769MOL0     O 1377   7.461   4.467   6.563 -0.2584  0.5191  0.3280
  769MOL0     C 1378   7.504   4.435   6.677 -0.0065 -0.8715 -0.2177
  769MOL0     O 1379   7.434   4.449   6.794  0.2391 -0.0570 -0.3877
  769MOL0     C 1380   7.313   4.527   6.789  0.0415  0.6459  0.4462
  769MOL0     C 1381   7.290   4.639   6.876  0.6397  0.2482  0.6552
  769MOL0     C 1382   7.162   4.703   6.859  0.5158 -0.3628 -0.4444
  769MOL0     C 1383   7.064   4.661   6.777  0.0120  0.3440 -0.3929
  769MOL0     O 1384   6.951   4.738   6.760 -0.3870 -0.2203 -0.2551
  769MOL0     C 1385   6.890   4.783   6.881  0.5706  0.4281  0.6613
  769MOL0     C 1386   6.732   4.818   6.850 -0.4851  0.9772 -0.0171
  769MOL0     C 1387   6.663   4.847   6.977 -0.3617 -0.4808 -0.2879
  769MOL0     C 1388   6.527   4.931   6.970 -0.5570  0.1118 -0.7478
  769MOL0     C 1389   6.396   4.876   6.921 -0.0276  0.0638 -0.5286
  769MOL0     C 1390   6.380   4.736   6.995 -0.1270 -0.2128  0.1119
  769MOL0     C 1391   6.239   4.671   6.944 -1.1657 -0.3272 -0.1688
  769MOL0     C 1392   6.110   4.729   6.996 -0.5648  0.6431  0.6364
  769MOL0     N 1393   6.090   4.729   7.142 -0.0958 -0.7611 -0.0745
  769MOL0     C 1394   6.152   4.642   7.227  0.8728 -0.4132 -0.8487
  769MOL0     C 1395   6.088   4.657   7.348  0.5442  0.6091 -0.7951
  769MOL0     C 1396   6.087   4.562   7.467 -0.0603  0.6626  0.8043
  769MOL0     C 1397   6.125   4.625   7.596  0.4194 -1.2987 -0.6240
  769MOL0     C 1398   6.019   4.728   7.654 -0.1637 -0.1086 -0.4223
  769MOL0     C 1399   6.052   4.773   7.801  0.1416  0.3489 -0.7625
  769MOL0     O 1400   6.031   4.662   7.882 -1.0144  0.1057  0.3461
  769MOL0     C 1401   6.118   4.646   7.981  0.6408 -0.1991 -0.7654
  769MOL0     C 1402   6.146   4.747   8.070 -0.1233  0.1162  0.8031
  769MOL0     C 1403   6.235   4.730   8.178 -0.2421  0.4682  0.2567
  769MOL0     C 1404   6.309   4.604   8.179  1.1023 -0.1337 -0.1827
  769MOL0     C 1405   6.412   4.577   8.283 -0.6318 -0.4875 -0.3248
  769MOL0     O 1406   6.480   4.457   8.287 -0.6042 -0.8708 -0.2548
  769MOL0     C 1407   6.602   4.447   8.357  0.2576  0.0118  0.1297
  769MOL0     C 1408   6.630   4.324   8.415 -0.0042  1.3921  0.3504
  769MOL0     C 1409   6.753   4.273   8.422 -0.1852 -0.2026 -0.5140
  769MOL0     C 1410   6.862   4.354   8.386 -0.8956  0.0086  0.6973
  769MOL0     O 1411   6.999   4.324   8.387 -0.1510 -0.4588  0.4595
  769MOL0     C 1412   7.033   4.199   8.448  0.5741 -0.3525 -0.2189
  769MOL0     C 1413   7.186   4.179   8.460 -0.1534 -0.7213 -0.2689
  769MOL0     C 1414   7.233   4.033   8.434  0.1638  0.1329 -0.0828
  769MOL0     C 1415   7.383   4.022   8.463 -1.0106  0.3036  0.4315
  769MOL0     C 1416   7.449   3.888   8.413  0.5903 -0.1808 -0.5048
  769MOL0     C 1417   7.575   3.923   8.320 -0.9768  0.6027  0.0995
  769MOL0     C 1418   7.680   3.819   8.337  0.6820 -0.2057 -0.5465
  769MOL0     C 1419   7.811   3.847   8.270 -0.4255  0.9729  0.4696
  769MOL0    Cl 1420   7.809   3.866   8.085  0.0765 -0.0342  0.7247
  769MOL0     C 1421   6.837   4.482   8.352 -0.3517 -0.5511 -0.2657
  769MOL0     C 1422   6.709   4.534   8.341 -0.3535 -0.6242  0.6873
  769MOL0     O 1423   6.432   4.669   8.354  0.5584 -0.2949  0.3407
  769MOL0     C 1424   6.280   4.497   8.089 -0.5077 -0.3176  0.7490
  769MOL0     C 1425   6.185   4.522   7.992  0.5290 -0.4741 -0.0268
  769MOL0     N 1426   5.983   4.745   7.324 -0.1120 -0.2192  0.5837
  769MOL0     N 1427   5.978   4.781   7.200  0.2610  0.1261 -0.6367
  769MOL0     C 1428   7.085   4.537   6.707 -0.7336 -0.1422 -0.6069
  769MOL0     C 1429   7.214   4.476   6.712 -0.1789  0.3225 -0.1522
  769MOL0     C 1430   7.642   4.373   6.693  0.7724 -0.5283 -1.3285
  769MOL0     C 1431   7.679   4.329   6.820 -0.5134 -0.0009 -0.0182
  769MOL0     C 1432   7.806   4.260   6.833  0.5577  0.4094 -0.8327
  769MOL0     C 1433   7.892   4.250   6.723 -0.0461  0.4158  0.2921
  769MOL0     O 1434   8.020   4.193   6.723  0.6083  0.4839 -0.1894
  769MOL0     C 1435   8.052   4.092   6.820 -0.5050  0.4858 -0.3198
  769MOL0     C 1436   8.119   3.983   6.745  0.9015 -0.4977 -0.9848
  769MOL0     C 1437   8.246   3.935   6.816 -0.0412  0.0419  0.1057
  769MOL0     C 1438   8.317   3.824   6.740  0.8260  0.0458 -0.9751
  769MOL0     C 1439   8.370   3.864   6.615  1.0252  1.1655  0.7059
  769MOL0     C 1440   8.418   3.909   6.515  0.2970  0.9958 -0.0191
  769MOL0     C 1441   7.863   4.305   6.604  0.4100 -0.2396 -0.0869
  769MOL0     C 1442   7.734   4.362   6.592  0.4228 -0.2060 -0.0610
  769MOL0     H 1443   7.371   4.682   6.935  2.3716 -2.0443  0.1173
  769MOL0     H 1444   7.144   4.795   6.914  0.5412 -1.4069  1.4045
  769MOL0     H 1445   6.928   4.872   6.931 -1.3707  0.7147  1.7429
  769MOL0     H 1446   6.895   4.708   6.961  3.5435 -0.4114 -0.2081
  769MOL0     H 1447   6.692   4.723   6.811 -1.2078  1.3912 -0.2946
  769MOL0     H 1448   6.724   4.892   6.770  0.2672 -1.0929 -2.1252
  769MOL0     H 1449   6.741   4.899   7.034 -1.2200 -0.9471  1.4047
  769MOL0     H 1450   6.661   4.754   7.034 -0.6109  0.0414  0.5905
  769MOL0     H 1451   6.499   4.960   7.072  1.2963 -2.4865  0.6221
  769MOL0     H 1452   6.542   5.025   6.916  2.3316 -0.3517 -0.9382
  769MOL0     H 1453   6.401   4.865   6.812  1.1254  1.4790 -0.6410
  769MOL0     H 1454   6.313   4.945   6.938  0.9801  1.6389 -1.7157
  769MOL0     H 1455   6.387   4.736   7.104  1.2118 -2.4886  0.0855
  769MOL0     H 1456   6.466   4.681   6.954 -0.3721 -0.7596  0.3251
  769MOL0     H 1457   6.225   4.692   6.837 -1.3510  2.8114  0.3586
  769MOL0     H 1458   6.236   4.563   6.960 -0.6682 -0.3853 -0.4484
  769MOL0     H 1459   6.028   4.668   6.959 -0.5981  0.0443  1.6480
  769MOL0     H 1460   6.100   4.829   6.953  0.2537 -0.0621 -1.2806
  769MOL0     H 1461   6.222   4.564   7.201 -0.9567 -2.2737 -0.4306
  769MOL0     H 1462   6.160   4.484   7.449  1.2569  1.1484  3.5046
  769MOL0     H 1463   5.985   4.524   7.476  0.0372  0.7242  2.5673
  769MOL0     H 1464   6.217   4.683   7.583 -1.4871  2.0635 -0.2961
  769MOL0     H 1465   6.134   4.549   7.674 -1.8421 -0.3823  0.6264
  769MOL0     H 1466   6.023   4.818   7.592  0.8066 -2.1084 -3.4418
  769MOL0     H 1467   5.917   4.688   7.659 -0.8221  1.5276  0.4303
  769MOL0     H 1468   5.983   4.853   7.829  0.0131 -0.2416  0.6888
  769MOL0     H 1469   6.151   4.820   7.803 -0.1815  1.0275  1.2102
  769MOL0     H 1470   6.098   4.844   8.063 -3.3568 -1.1774  2.4792
  769MOL0     H 1471   6.250   4.810   8.251  0.9834  2.1359 -1.6873
  769MOL0     H 1472   6.555   4.247   8.428  4.3740 -3.7677 -1.4024
  769MOL0     H 1473   6.767   4.175   8.467 -0.1809  0.3611  0.7644
  769MOL0     H 1474   7.002   4.124   8.375  4.6278 -2.2332 -0.3097
  769MOL0     H 1475   6.982   4.189   8.545  0.9838  0.7630  0.1297
  769MOL0     H 1476   7.217   4.215   8.558 -1.1908 -0.9842  0.1663
  769MOL0     H 1477   7.233   4.239   8.381 -2.0220  0.2030 -0.7160
  769MOL0     H 1478   7.221   4.006   8.329 -0.5483  2.5213 -0.6725
  769MOL0     H 1479   7.175   3.957   8.488 -1.4679 -0.0278 -1.9361
  769MOL0     H 1480   7.427   4.108   8.412 -0.9321  0.5373  0.8821
  769MOL0     H 1481   7.411   4.030   8.569  2.0447  1.7522 -0.3810
  769MOL0     H 1482   7.391   3.827   8.344 -0.1458 -1.0172  0.8256
  769MOL0     H 1483   7.470   3.820   8.496 -2.4490  0.6012  1.0432
  769MOL0     H 1484   7.623   4.020   8.335 -0.7399  0.9710 -2.6399
  769MOL0     H 1485   7.555   3.925   8.213 -0.7961  2.7847  0.0612
  769MOL0     H 1486   7.706   3.801   8.442 -0.2509 -1.0761 -0.4500
  769MOL0     H 1487   7.648   3.721   8.303 -0.7477  0.6295 -1.7382
  769MOL0     H 1488   7.860   3.752   8.291  0.9747  1.5210 -0.1926
  769MOL0     H 1489   7.869   3.930   8.312 -0.3007  1.5878 -0.8541
  769MOL0     H 1490   6.915   4.554   8.332 -0.1293 -0.9424 -0.8252
  769MOL0     H 1491   6.702   4.637   8.307  0.7198 -0.9006 -0.4334
  769MOL0     H 1492   6.322   4.397   8.103 -0.9668 -0.4619  1.1159
  769MOL0     H 1493   6.142   4.452   7.921 -2.4657  0.7774  0.4095
  769MOL0     H 1494   7.027   4.501   6.623 -0.4920 -0.8689 -0.4754
  769MOL0     H 1495   7.232   4.390   6.648  0.6667  0.3703  0.0103
  769MOL0     H 1496   7.621   4.339   6.911  1.2401 -1.9151  1.4137
  769MOL0     H 1497   7.829   4.217   6.930  2.5459  2.4994 -0.2857
  769MOL0     H 1498   7.969   4.059   6.884 -0.2016  2.2023  1.0360
  769MOL0     H 1499   8.116   4.142   6.894 -2.2392  0.5921  1.2008
  769MOL0     H 1500   8.058   3.899   6.711  0.5478 -0.7984  0.3460
  769MOL0     H 1501   8.143   4.026   6.647  0.5881  0.9330 -0.4543
  769MOL0     H 1502   8.212   3.901   6.915 -0.8575  0.1754 -0.1205
  769MOL0     H 1503   8.312   4.022   6.827 -3.8901  3.0016  3.1239
  769MOL0     H 1504   8.397   3.791   6.806  1.3660  2.8460 -0.1099
  769MOL0     H 1505   8.244   3.743   6.725  1.6320 -0.8458 -0.1991
  769MOL0     H 1506   8.452   3.940   6.419 -0.7906  1.7449 -0.1780
  769MOL0     H 1507   7.935   4.288   6.524 -0.2121 -2.6580 -0.1886
  769MOL0     H 1508   7.704   4.400   6.495  0.1807 -0.9405 -0.2829
  770MOL0     O 1509   8.754   9.024   3.712 -0.2539  0.2298 -0.2863
  770MOL0     C 1510   8.788   8.912   3.675 -0.2641  0.3709 -0.6469
  770MOL0     O 1511   8.750   8.793   3.733 -0.3394 -0.2620 -0.0411
  770MOL0     C 1512   8.655   8.785   3.829  0.9811 -0.0266  0.3860
  770MOL0     C 1513   8.537   8.860   3.827 -0.4735 -0.1289  0.3207
  770MOL0     C 1514   8.429   8.821   3.916 -0.6376 -0.4648 -0.6971
  770MOL0     C 1515   8.454   8.721   4.012 -0.4600  0.0818  0.6857
  770MOL0     O 1516   8.354   8.671   4.104 -0.4381  0.1532  0.2248
  770MOL0     C 1517   8.237   8.740   4.137  0.5962  0.7870  0.9053
  770MOL0     C 1518   8.118   8.683   4.045 -0.4688 -0.5789  0.7818
  770MOL0     C 1519   7.990   8.762   4.086  0.3836 -0.3982  0.1607
  770MOL0     C 1520   7.940   8.740   4.224 -0.2662  0.4348 -0.3206
  770MOL0     C 1521   7.806   8.796   4.264  0.2911 -0.1416  0.0772
  770MOL0     C 1522   7.691   8.741   4.181  1.3561 -0.6063 -0.2960
  770MOL0     C 1523   7.561   8.808   4.223  0.3164  0.7771 -0.3751
  770MOL0     C 1524   7.491   8.726   4.324 -0.2943  0.3907  0.8494
  770MOL0     N 1525   7.372   8.795   4.369  0.0887  0.2689  0.2539
  770MOL0     C 1526   7.282   8.855   4.290  0.5252  0.5844  0.5589
  770MOL0     C 1527   7.185   8.906   4.373  0.2054  0.5698 -0.1921
  770MOL0     C 1528   7.064   8.965   4.313  0.6837 -0.5911  0.6765
  770MOL0     C 1529   7.072   9.061   4.199  0.4453  0.3234  0.0195
  770MOL0     C 1530   7.153   9.189   4.236  0.5282 -0.5316  0.0293
  770MOL0     C 1531   7.173   9.277   4.115  0.0662 -0.2363 -0.0964
  770MOL0     O 1532   7.043   9.314   4.087 -0.6704 -0.2385  0.2743
  770MOL0     C 1533   7.025   9.438   4.020  0.4055  0.5507 -0.2138
  770MOL0     C 1534   6.923   9.450   3.922  0.3394  0.1630 -0.2501
  770MOL0     C 1535   6.894   9.562   3.843 -0.8401 -0.4262 -0.6162
  770MOL0     C 1536   6.984   9.675   3.857  0.0102  0.7427  0.2297
  770MOL0     C 1537   6.973   9.788   3.763  0.4987  0.1728  0.3068
  770MOL0     O 1538   6.856   9.790   3.680  0.3999 -0.7872 -0.3322
  770MOL0     C 1539   6.819   9.903   3.623 -0.6594  0.9255 -0.5684
  770MOL0     C 1540   6.699   9.970   3.665 -0.4889  0.6244  0.4955
  770MOL0     C 1541   6.660  10.095   3.620 -0.1450 -0.9058 -0.9684
  770MOL0     C 1542   6.747  10.158   3.530  0.4512  0.1236 -0.3894
  770MOL0     O 1543   6.721  10.290   3.513 -0.7953  0.5465 -0.6530
  770MOL0     C 1544   6.718  10.323   3.371 -0.3150 -0.1215  0.3496
  770MOL0     C 1545   6.614  10.240   3.310 -0.7230 -0.8632  0.6439
  770MOL0     C 1546   6.545  10.324   3.201 -0.7011  0.1696 -0.1772
  770MOL0     C 1547   6.450  10.437   3.259  0.6454 -0.4684  0.2724
  770MOL0     C 1548   6.344  10.493   3.158 -0.5988  0.4878  0.4656
  770MOL0     C 1549   6.397  10.601   3.063 -0.5120 -0.0698  0.3573
  770MOL0     C 1550   6.294  10.615   2.947 -0.0222  0.3631  0.2282
  770MOL0     C 1551   6.333  10.710   2.830  0.4218  0.3118 -0.0184
  770MOL0    Cl 1552   6.498  10.666   2.755 -0.0637 -0.3866 -0.0957
  770MOL0     C 1553   6.864  10.093   3.484  0.1728 -0.6400  0.9371
  770MOL0     C 1554   6.892   9.962   3.519 -0.0883 -0.6228 -0.3855
  770MOL0     O 1555   7.055   9.876   3.767  0.6792  0.0151  0.2568
  770MOL0     C 1556   7.088   9.668   3.963 -1.4150  0.0249 -0.6291
  770MOL0     C 1557   7.096   9.555   4.045 -1.0468  0.2292 -0.7899
  770MOL0     N 1558   7.211   8.876   4.505  0.2982 -1.1337  0.3494
  770MOL0     N 1559   7.322   8.806   4.497  0.0458  0.0550  0.1233
  770MOL0     C 1560   8.569   8.652   4.007 -0.1600 -0.2796  0.9053
  770MOL0     C 1561   8.675   8.689   3.919  0.1278 -0.4600 -1.2605
  770MOL0     C 1562   8.889   8.921   3.569  0.1542  0.0273  0.4573
  770MOL0     C 1563   8.928   9.042   3.500  0.2782 -0.8227  0.2236
  770MOL0     C 1564   9.013   9.054   3.387 -0.8187 -0.4808  0.4719
  770MOL0     C 1565   9.065   8.939   3.326 -0.2896  1.0773  0.3830
  770MOL0     O 1566   9.153   8.959   3.222  0.2322  0.5123  0.5067
  770MOL0     C 1567   9.233   8.857   3.163  1.4480  0.2165 -0.7107
  770MOL0     C 1568   9.362   8.920   3.119  0.5656 -1.3406 -0.1672
  770MOL0     C 1569   9.348   9.019   2.991  0.3638  0.6758 -0.3215
  770MOL0     C 1570   9.249   9.140   3.024  0.4766  0.9770 -0.1400
  770MOL0     C 1571   9.283   9.226   3.140  0.3104 -0.0867  0.2369
  770MOL0     C 1572   9.314   9.299   3.235 -1.0794 -0.1379 -0.1670
  770MOL0     C 1573   9.035   8.811   3.383 -0.3253 -0.5191  0.0790
  770MOL0     C 1574   8.954   8.807   3.504 -0.3982 -0.4952  0.0005
  770MOL0     H 1575   8.531   8.943   3.757  2.4516 -0.8518 -0.9572
  770MOL0     H 1576   8.331   8.866   3.920 -0.2123  0.3849  1.3432
  770MOL0     H 1577   8.232   8.848   4.127 -3.2394  0.7654  1.1123
  770MOL0     H 1578   8.205   8.724   4.240  1.4271 -3.0306  0.7288
  770MOL0     H 1579   8.105   8.577   4.072  2.5204 -1.3821 -0.5576
  770MOL0     H 1580   8.146   8.689   3.940 -2.1292 -1.5580  0.2345
  770MOL0     H 1581   7.902   8.750   4.022 -3.1182  5.0274  3.1237
  770MOL0     H 1582   8.009   8.870   4.082  1.5188 -0.6125 -0.9643
  770MOL0     H 1583   7.930   8.633   4.243 -1.8175  0.3532 -1.3888
  770MOL0     H 1584   8.009   8.779   4.300 -1.7369  0.5443  1.0302
  770MOL0     H 1585   7.802   8.905   4.256  0.4326 -0.1515 -0.1442
  770MOL0     H 1586   7.796   8.775   4.371 -1.4984  1.3622  0.2661
  770MOL0     H 1587   7.670   8.634   4.183 -0.7384 -0.2261  1.1576
  770MOL0     H 1588   7.702   8.765   4.075 -4.1599  1.4781 -0.7662
  770MOL0     H 1589   7.583   8.908   4.261  3.4767 -0.2737  0.9200
  770MOL0     H 1590   7.502   8.806   4.131  1.1223 -2.0304 -0.9040
  770MOL0     H 1591   7.555   8.712   4.411  0.3367 -0.3257  0.2809
  770MOL0     H 1592   7.469   8.628   4.281  0.4280  0.2896  0.7016
  770MOL0     H 1593   7.286   8.860   4.182 -0.0922 -0.0169  0.5009
  770MOL0     H 1594   7.009   9.013   4.395 -2.1349  1.0161 -1.9469
  770MOL0     H 1595   6.995   8.889   4.274 -0.7184  0.4329  1.0776
  770MOL0     H 1596   6.971   9.079   4.160 -0.0458 -0.2317  1.0087
  770MOL0     H 1597   7.117   9.013   4.112 -0.2352  0.7676 -0.5959
  770MOL0     H 1598   7.098   9.236   4.318 -0.8278  1.7129 -2.0497
  770MOL0     H 1599   7.253   9.168   4.275  1.4787  1.6439 -1.0891
  770MOL0     H 1600   7.209   9.221   4.028 -0.3456 -1.3663  0.4309
  770MOL0     H 1601   7.235   9.361   4.148  1.7854 -1.8158  0.9134
  770MOL0     H 1602   6.873   9.354   3.916  1.9412 -0.7278 -0.0034
  770MOL0     H 1603   6.810   9.559   3.774 -2.5902 -1.0991  1.4429
  770MOL0     H 1604   6.653   9.925   3.753 -1.0548 -0.3501 -0.2724
  770MOL0     H 1605   6.579  10.150   3.667 -2.1944 -3.2072 -1.5887
  770MOL0     H 1606   6.811  10.322   3.314 -0.8731  0.1259 -0.5963
  770MOL0     H 1607   6.688  10.428   3.365  0.8810  0.2199  0.2717
  770MOL0     H 1608   6.537  10.202   3.377 -1.3544  0.0381  0.4378
  770MOL0     H 1609   6.657  10.151   3.263 -1.8855  0.1811 -2.7096
  770MOL0     H 1610   6.493  10.256   3.134 -1.8546  1.7626 -0.9638
  770MOL0     H 1611   6.627  10.368   3.144  0.7829 -2.7255 -0.4514
  770MOL0     H 1612   6.386  10.397   3.339  1.1428  1.8466  1.9370
  770MOL0     H 1613   6.509  10.521   3.295  2.1155 -0.2022 -2.5272
  770MOL0     H 1614   6.261  10.534   3.217 -1.0640 -3.0717  2.6225
  770MOL0     H 1615   6.303  10.412   3.096  0.5806  2.1822 -2.7701
  770MOL0     H 1616   6.491  10.570   3.016  0.9497  0.4098  2.8414
  770MOL0     H 1617   6.408  10.702   3.102 -0.7691  0.7578 -1.5896
  770MOL0     H 1618   6.274  10.519   2.899 -1.0411 -0.4494  2.1944
  770MOL0     H 1619   6.196  10.645   2.983 -1.9269  0.3917 -4.2847
  770MOL0     H 1620   6.342  10.805   2.884  1.1876 -0.7472  1.8092
  770MOL0     H 1621   6.256  10.717   2.753  1.5001  1.9452 -1.0119
  770MOL0     H 1622   6.936  10.154   3.430 -0.5751 -1.3996 -1.0339
  770MOL0     H 1623   6.975   9.908   3.476  0.1386 -0.6756  0.1100
  770MOL0     H 1624   7.160   9.748   3.977 -0.2039 -0.5629 -2.9213
  770MOL0     H 1625   7.181   9.543   4.113 -0.4667 -3.2082 -1.9524
  770MOL0     H 1626   8.575   8.572   4.080  0.6802  0.0882  1.2523
  770MOL0     H 1627   8.776   8.651   3.921 -0.3430 -1.7660  0.2737
  770MOL0     H 1628   8.875   9.130   3.536 -0.0619 -1.2130  0.6850
  770MOL0     H 1629   9.052   9.147   3.346 -1.7139  0.4119  1.5792
  770MOL0     H 1630   9.188   8.809   3.076  0.8488 -0.0525 -0.2567
  770MOL0     H 1631   9.248   8.778   3.237  0.0524  1.3544  0.8434
  770MOL0     H 1632   9.391   8.987   3.201 -1.0884 -2.2418  1.2326
  770MOL0     H 1633   9.446   8.852   3.101  2.0193 -0.0784  1.4690
  770MOL0     H 1634   9.301   8.966   2.908  3.0228  2.0694 -2.9458
  770MOL0     H 1635   9.445   9.045   2.947 -0.8820  4.0226 -1.4419
  770MOL0     H 1636   9.246   9.203   2.935  3.1344  1.6383  0.1700
  770MOL0     H 1637   9.150   9.093   3.034  0.9813 -0.4454 -1.4013
  770MOL0     H 1638   9.348   9.346   3.325  0.0902 -0.5217 -0.3867
  770MOL0     H 1639   9.082   8.722   3.343  0.4953  0.1722 -0.5434
  770MOL0     H 1640   8.931   8.709   3.544 -0.4795 -1.8419 -3.0701
  771MOL0     O 1641   6.447   8.195   0.126 -0.9808 -0.2571  0.5464
  771MOL0     C 1642   6.515   8.170   0.028 -0.6494 -0.3651 -0.5005
  771MOL0     O 1643   6.462   8.145  -0.094 -0.2015 -0.7412 -0.1089
  771MOL0     C 1644   6.327   8.138  -0.122  0.5743  0.1296 -0.2140
  771MOL0     C 1645   6.229   8.090  -0.039 -0.3484 -0.1130 -0.8301
  771MOL0     C 1646   6.097   8.087  -0.078  0.0032  0.2655 -0.8170
  771MOL0     C 1647   6.064   8.131  -0.209  1.1410 -0.0687  0.0117
  771MOL0     O 1648   5.932   8.122  -0.248  0.2288  0.6157 -0.4833
  771MOL0     C 1649   5.871   8.231  -0.319 -0.8399  0.0715  0.6664
  771MOL0     C 1650   5.926   8.358  -0.265  0.2562  0.4654 -0.4798
  771MOL0     C 1651   5.823   8.469  -0.296  0.1812 -0.2379  0.7106
  771MOL0     C 1652   5.896   8.604  -0.307  0.4389  0.3451  1.4248
  771MOL0     C 1653   5.800   8.722  -0.318 -0.3894  0.0090  0.6219
  771MOL0     C 1654   5.730   8.720  -0.452  0.8322  0.6278  0.0873
  771MOL0     C 1655   5.651   8.845  -0.484 -0.1620  0.1651  0.4123
  771MOL0     C 1656   5.542   8.870  -0.384 -0.1802 -0.4218 -0.8998
  771MOL0     N 1657   5.438   8.769  -0.366 -0.1496  0.1872  0.2719
  771MOL0     C 1658   5.443   8.675  -0.266 -0.0499 -0.5885 -1.2789
  771MOL0     C 1659   5.324   8.618  -0.272 -1.0104 -0.0262 -0.0845
  771MOL0     C 1660   5.287   8.497  -0.193 -0.7398 -0.6736  0.2409
  771MOL0     C 1661   5.248   8.522  -0.054  0.3664 -0.6548 -1.1591
  771MOL0     C 1662   5.110   8.594  -0.050 -0.0602 -0.6239 -0.3854
  771MOL0     C 1663   5.103   8.709   0.057  0.6278 -0.6474  1.0790
  771MOL0     O 1664   5.154   8.655   0.178  0.1719  0.2721  0.3823
  771MOL0     C 1665   5.081   8.697   0.290  0.3513 -0.4088 -1.1443
  771MOL0     C 1666   5.122   8.641   0.414  0.3907 -0.0810  0.6306
  771MOL0     C 1667   5.073   8.685   0.528  0.3211  0.4952  0.5070
  771MOL0     C 1668   4.989   8.799   0.537  0.1857  0.0529  0.3763
  771MOL0     C 1669   4.938   8.845   0.667 -0.7777  0.6345 -0.1655
  771MOL0     O 1670   4.848   8.950   0.667  0.5620  0.2750 -0.5680
  771MOL0     C 1671   4.785   8.986   0.788 -0.1678  1.0711  0.4849
  771MOL0     C 1672   4.781   9.119   0.823  0.2090  0.3179 -1.2289
  771MOL0     C 1673   4.712   9.159   0.941 -0.6282 -0.7308 -1.2506
  771MOL0     C 1674   4.657   9.064   1.029  0.3860  0.4704  0.9345
  771MOL0     O 1675   4.570   9.079   1.131  0.1471  0.3659 -0.4577
  771MOL0     C 1676   4.476   9.198   1.143 -0.5980  0.6109 -0.7322
  771MOL0     C 1677   4.374   9.137   1.249 -0.5526 -0.0913 -0.2306
  771MOL0     C 1678   4.437   9.122   1.389  0.5077 -1.2674 -0.2569
  771MOL0     C 1679   4.353   9.029   1.477  0.4615 -0.7688 -0.6255
  771MOL0     C 1680   4.204   9.086   1.508 -0.3202  0.5797 -0.2905
  771MOL0     C 1681   4.203   9.222   1.580  0.3557 -0.4768  0.1646
  771MOL0     C 1682   4.065   9.244   1.647 -0.2509  0.1950 -1.1039
  771MOL0     C 1683   4.057   9.364   1.745 -0.2071  0.0926  0.0316
  771MOL0    Cl 1684   3.884   9.372   1.808  0.1007 -0.0901  0.3420
  771MOL0     C 1685   4.663   8.928   0.984 -0.2851 -0.7802  0.0115
  771MOL0     C 1686   4.729   8.887   0.867 -0.1670 -0.1243 -0.0790
  771MOL0     O 1687   4.985   8.791   0.768  0.1329 -0.3949 -0.1874
  771MOL0     C 1688   4.945   8.860   0.422  0.1581  0.3247  0.2961
  771MOL0     C 1689   5.000   8.820   0.300  0.6422  0.9022 -0.6167
  771MOL0     N 1690   5.247   8.677  -0.370 -0.6059  0.2646  0.0585
  771MOL0     N 1691   5.311   8.774  -0.419 -0.0456  0.4189  0.3247
  771MOL0     C 1692   6.160   8.164  -0.298  0.4990  0.3237  0.3322
  771MOL0     C 1693   6.286   8.179  -0.250 -0.3572 -0.2038 -0.7597
  771MOL0     C 1694   6.665   8.178   0.048  1.2078 -0.0545 -0.6308
  771MOL0     C 1695   6.743   8.247  -0.046 -0.1902 -0.3185  0.8099
  771MOL0     C 1696   6.881   8.234  -0.043  0.2977 -0.2159  0.0912
  771MOL0     C 1697   6.947   8.163   0.068 -0.3290  0.0450 -0.4700
  771MOL0     O 1698   7.078   8.147   0.086 -0.5395  1.1838  0.2619
  771MOL0     C 1699   7.169   8.215   0.008 -0.2673 -0.2388 -0.8019
  771MOL0     C 1700   7.304   8.224   0.076 -0.6731  0.4845 -0.3631
  771MOL0     C 1701   7.284   8.275   0.215  0.5739 -0.1481  0.2646
  771MOL0     C 1702   7.402   8.313   0.288 -0.3770 -0.1649 -1.3561
  771MOL0     C 1703   7.434   8.459   0.282  0.2442  1.1350 -0.3250
  771MOL0     C 1704   7.451   8.580   0.275  0.5522 -0.3360 -0.4896
  771MOL0     C 1705   6.857   8.104   0.164  0.0236 -0.3502  0.5120
  771MOL0     C 1706   6.723   8.107   0.151  0.9392  0.1941  0.6943
  771MOL0     H 1707   6.253   8.048   0.058  1.8599 -1.4681 -1.8584
  771MOL0     H 1708   6.016   8.054  -0.014  0.0927  1.3320 -0.1205
  771MOL0     H 1709   5.762   8.231  -0.326 -0.8717 -1.8658  0.7164
  771MOL0     H 1710   5.894   8.223  -0.425 -1.3557 -0.7447  0.6110
  771MOL0     H 1711   6.024   8.391  -0.302  2.4753 -2.8463  1.8517
  771MOL0     H 1712   5.943   8.360  -0.157 -0.1958  0.5803 -0.4100
  771MOL0     H 1713   5.745   8.466  -0.219 -2.4967 -0.9917 -1.8612
  771MOL0     H 1714   5.775   8.451  -0.392 -1.7097  0.6232  1.4532
  771MOL0     H 1715   5.958   8.623  -0.219  0.1557  0.1005  1.6770
  771MOL0     H 1716   5.964   8.603  -0.393 -0.9903  0.0612  0.2748
  771MOL0     H 1717   5.844   8.822  -0.313  0.5945 -0.2516 -1.7740
  771MOL0     H 1718   5.717   8.708  -0.247  0.0157  0.0270  1.1021
  771MOL0     H 1719   5.661   8.635  -0.457  0.3349  0.6527  3.7255
  771MOL0     H 1720   5.806   8.718  -0.530  2.2235  1.7197  1.3539
  771MOL0     H 1721   5.725   8.926  -0.494  0.0598  0.1804  1.9010
  771MOL0     H 1722   5.598   8.835  -0.579 -1.7905 -1.0349  1.3897
  771MOL0     H 1723   5.487   8.961  -0.410 -1.2720 -0.0706  2.1916
  771MOL0     H 1724   5.578   8.886  -0.282 -0.3624 -1.7549 -0.6100
  771MOL0     H 1725   5.525   8.647  -0.201 -2.6011  0.1756  2.6979
  771MOL0     H 1726   5.380   8.440  -0.183 -0.1879  0.0178 -0.7644
  771MOL0     H 1727   5.216   8.434  -0.247 -1.7223 -0.1042  0.8262
  771MOL0     H 1728   5.318   8.593  -0.009  0.0789  1.8878 -4.3175
  771MOL0     H 1729   5.238   8.427  -0.001 -0.8937  0.0938  0.0098
  771MOL0     H 1730   5.075   8.634  -0.145 -0.6617 -2.1179 -0.8285
  771MOL0     H 1731   5.040   8.520  -0.008 -0.9795  0.8765  0.8394
  771MOL0     H 1732   4.996   8.731   0.069  0.3389 -0.1198 -1.8042
  771MOL0     H 1733   5.143   8.807   0.028 -2.2951  0.1696 -0.6511
  771MOL0     H 1734   5.195   8.562   0.407 -0.6640 -0.8787 -3.5241
  771MOL0     H 1735   5.116   8.640   0.616  1.1398  2.2078  1.0179
  771MOL0     H 1736   4.836   9.188   0.760  1.3051  1.0574  0.4746
  771MOL0     H 1737   4.702   9.264   0.965  1.5340 -0.7062 -0.2041
  771MOL0     H 1738   4.426   9.207   1.046  0.6387 -0.2904 -1.4849
  771MOL0     H 1739   4.513   9.296   1.173 -0.8371  1.6748 -3.5632
  771MOL0     H 1740   4.343   9.041   1.207  0.1086 -0.3602 -0.1113
  771MOL0     H 1741   4.293   9.208   1.267  0.5918  1.5348 -1.1172
  771MOL0     H 1742   4.458   9.215   1.442  1.4379 -2.3585  1.3781
  771MOL0     H 1743   4.530   9.064   1.390  0.9561 -0.6271 -1.9027
  771MOL0     H 1744   4.358   8.934   1.423 -0.0316 -0.1501 -1.7828
  771MOL0     H 1745   4.416   9.011   1.565 -0.2303 -0.8094 -0.1248
  771MOL0     H 1746   4.155   9.014   1.574  1.3885  0.2683  0.6951
  771MOL0     H 1747   4.150   9.087   1.413  0.9074 -0.2897 -1.0254
  771MOL0     H 1748   4.238   9.305   1.518  0.7843 -1.7714 -1.3851
  771MOL0     H 1749   4.269   9.211   1.666 -0.0264 -1.2579  0.3623
  771MOL0     H 1750   3.984   9.251   1.574  0.2702  0.1679 -1.6864
  771MOL0     H 1751   4.044   9.149   1.697 -0.1672  0.4501 -0.5808
  771MOL0     H 1752   4.090   9.448   1.685  2.4563 -2.7448 -2.8767
  771MOL0     H 1753   4.128   9.346   1.827 -0.6140 -2.3684 -0.0585
  771MOL0     H 1754   4.621   8.848   1.044 -3.3751  0.5585 -0.1355
  771MOL0     H 1755   4.730   8.782   0.840  2.3027  0.1658 -1.4017
  771MOL0     H 1756   4.886   8.950   0.440  1.4883  1.0655  1.1179
  771MOL0     H 1757   4.968   8.873   0.211  0.7289 -1.0031 -1.8294
  771MOL0     H 1758   6.134   8.188  -0.400  0.3095  0.6340  0.4496
  771MOL0     H 1759   6.359   8.224  -0.315 -2.3804  2.6063 -1.3006
  771MOL0     H 1760   6.694   8.306  -0.122 -1.6556 -2.0331  0.3543
  771MOL0     H 1761   6.939   8.272  -0.127 -1.6515  0.3946 -1.0429
  771MOL0     H 1762   7.136   8.319  -0.003 -2.1354 -0.9928 -3.0772
  771MOL0     H 1763   7.176   8.180  -0.095 -0.4205 -0.4679 -0.7344
  771MOL0     H 1764   7.356   8.128   0.066  1.0983  1.4217 -0.4680
  771MOL0     H 1765   7.369   8.291   0.020  1.6166 -0.4649  1.0232
  771MOL0     H 1766   7.227   8.197   0.267  1.7569 -1.5482 -0.4891
  771MOL0     H 1767   7.215   8.360   0.206  0.6528 -0.2473 -1.7518
  771MOL0     H 1768   7.378   8.291   0.392  3.1804  1.8723  0.0758
  771MOL0     H 1769   7.487   8.246   0.273 -1.9644 -2.5815 -0.1795
  771MOL0     H 1770   7.474   8.676   0.234 -0.3604 -0.7082 -1.9663
  771MOL0     H 1771   6.908   8.052   0.245  1.8986  0.4408 -0.1022
  771MOL0     H 1772   6.651   8.055   0.213 -2.0684  4.6505  1.4176
  772MOL0     O 1773   2.187   2.529   0.405  0.4581  0.9208 -0.0582
  772MOL0     C 1774   2.107   2.604   0.448 -0.4151 -0.2709 -0.6116
  772MOL0     O 1775   2.132   2.723   0.500  0.2696 -0.0287  0.0202
  772MOL0     C 1776   2.260   2.782   0.495 -0.2233  0.3188 -0.6100
  772MOL0     C 1777   2.295   2.875   0.399  0.0925 -0.7388 -0.9739
  772MOL0     C 1778   2.424   2.925   0.399 -0.1894  0.2617  0.8462
  772MOL0     C 1779   2.514   2.894   0.494  0.7547  0.5453 -0.0598
  772MOL0     O 1780   2.645   2.943   0.490  0.4571 -0.5090 -0.4286
  772MOL0     C 1781   2.672   3.052   0.404  0.5939  0.1190  0.5877
  772MOL0     C 1782   2.807   3.120   0.443 -0.1095  1.0895 -0.9719
  772MOL0     C 1783   2.849   3.207   0.324 -0.5083 -1.3289  0.0644
  772MOL0     C 1784   2.978   3.280   0.341 -0.1678 -0.3564  0.2380
  772MOL0     C 1785   3.107   3.207   0.305  0.4206 -0.9749 -1.0147
  772MOL0     C 1786   3.225   3.306   0.309  0.1656 -0.1639  0.2345
  772MOL0     C 1787   3.356   3.227   0.301 -0.6722 -0.2810 -0.3295
  772MOL0     C 1788   3.466   3.320   0.347 -0.5731 -0.9491 -0.5839
  772MOL0     N 1789   3.600   3.264   0.334 -0.3660  0.1788  0.2902
  772MOL0     C 1790   3.629   3.137   0.371 -0.7295 -0.2317 -0.3836
  772MOL0     C 1791   3.758   3.112   0.341 -0.2537  0.0240 -1.5652
  772MOL0     C 1792   3.847   2.990   0.348 -0.1518  0.3813 -0.4652
  772MOL0     C 1793   3.858   2.914   0.478 -0.2073  0.5966 -0.5919
  772MOL0     C 1794   3.884   3.005   0.606 -0.2050  0.3229  0.7439
  772MOL0     C 1795   3.936   2.925   0.727 -0.2493 -0.7313  0.3763
  772MOL0     O 1796   3.842   2.825   0.771  0.1140 -0.0154 -0.1700
  772MOL0     C 1797   3.707   2.861   0.781  0.6842 -0.6354 -0.5025
  772MOL0     C 1798   3.616   2.775   0.723 -0.4980  0.0020 -0.2369
  772MOL0     C 1799   3.481   2.804   0.728 -0.1120 -0.8029  0.2088
  772MOL0     C 1800   3.434   2.931   0.779  0.3906  0.3228  0.4406
  772MOL0     C 1801   3.285   2.946   0.778 -1.3794 -0.7230 -0.0069
  772MOL0     O 1802   3.209   2.873   0.681 -0.6822 -0.3865  0.2238
  772MOL0     C 1803   3.090   2.827   0.730  0.2090 -0.2278  0.1644
  772MOL0     C 1804   2.974   2.906   0.704 -0.0419 -0.7379 -0.3259
  772MOL0     C 1805   2.849   2.866   0.750 -0.0319  0.1502  0.1137
  772MOL0     C 1806   2.837   2.762   0.846 -0.9269  0.3245 -0.6979
  772MOL0     O 1807   2.720   2.732   0.911  0.2616 -0.1188 -0.7278
  772MOL0     C 1808   2.677   2.832   1.009 -0.3953  0.2424  0.3115
  772MOL0     C 1809   2.573   2.779   1.102 -0.3308  0.5302 -0.0261
  772MOL0     C 1810   2.486   2.888   1.165 -0.4126 -0.4638 -0.3502
  772MOL0     C 1811   2.373   2.944   1.078  0.4249 -0.2214  0.1338
  772MOL0     C 1812   2.248   2.856   1.046 -0.6696  0.4474 -0.8262
  772MOL0     C 1813   2.175   2.914   0.927  0.3488  0.0938 -0.4316
  772MOL0     C 1814   2.039   2.854   0.908 -0.3844  0.2408  0.1920
  772MOL0     C 1815   2.033   2.702   0.896 -0.4789  0.8711 -0.4636
  772MOL0    Cl 1816   1.866   2.660   0.857  0.5358  0.0324  0.5543
  772MOL0     C 1817   2.948   2.677   0.871  0.0147  0.1208 -0.3172
  772MOL0     C 1818   3.077   2.713   0.813 -0.3970 -0.1678 -0.0496
  772MOL0     O 1819   3.238   3.011   0.871 -0.3675  0.6621 -0.9136
  772MOL0     C 1820   3.524   3.015   0.845  0.4837 -0.3794  0.5055
  772MOL0     C 1821   3.663   2.981   0.837 -0.0647 -0.2249 -0.2810
  772MOL0     N 1822   3.802   3.231   0.279  0.2895 -0.3606  0.2262
  772MOL0     N 1823   3.703   3.321   0.268  0.1280  1.0375 -1.1893
  772MOL0     C 1824   2.475   2.806   0.595 -0.2606  0.3988 -0.1686
  772MOL0     C 1825   2.348   2.752   0.602 -0.3735  0.3673  1.4539
  772MOL0     C 1826   1.971   2.562   0.475  0.6952  0.4037 -0.4324
  772MOL0     C 1827   1.880   2.641   0.544  0.2057 -0.6514 -0.1328
  772MOL0     C 1828   1.746   2.587   0.559 -0.3806 -0.5830  0.0844
  772MOL0     C 1829   1.702   2.465   0.503 -0.2574 -0.3422  0.1758
  772MOL0     O 1830   1.579   2.417   0.508 -0.4015  0.0265 -0.2442
  772MOL0     C 1831   1.473   2.506   0.550  0.4934  0.1439 -0.7702
  772MOL0     C 1832   1.453   2.472   0.699  0.8268  0.0584  0.5137
  772MOL0     C 1833   1.356   2.562   0.771 -0.1921  0.1176  0.1420
  772MOL0     C 1834   1.210   2.578   0.728 -0.4730  0.3655  0.4670
  772MOL0     C 1835   1.113   2.460   0.732 -0.2053 -1.4089 -0.7971
  772MOL0     C 1836   1.046   2.363   0.715  0.7493  0.1242 -0.7084
  772MOL0     C 1837   1.795   2.382   0.438  0.0285 -0.6869  0.4588
  772MOL0     C 1838   1.929   2.431   0.425  1.3530 -0.2216 -1.0816
  772MOL0     H 1839   2.217   2.906   0.330 -0.4413 -2.1745 -1.0507
  772MOL0     H 1840   2.436   2.999   0.321 -0.8494 -1.3486 -0.8431
  772MOL0     H 1841   2.599   3.130   0.428 -1.1450 -1.2828  0.0627
  772MOL0     H 1842   2.676   3.016   0.301  2.8479  0.4388  0.5090
  772MOL0     H 1843   2.883   3.048   0.475 -0.6977  0.1732 -1.5868
  772MOL0     H 1844   2.779   3.180   0.530 -0.0342  1.7647 -1.4032
  772MOL0     H 1845   2.777   3.289   0.315  2.4334  1.3612 -1.1206
  772MOL0     H 1846   2.845   3.165   0.223  0.0669  0.9617 -0.9897
  772MOL0     H 1847   2.970   3.363   0.270 -0.2707  0.4879  1.2130
  772MOL0     H 1848   2.986   3.321   0.442  0.2720  3.1504 -1.0927
  772MOL0     H 1849   3.105   3.158   0.207 -0.1969 -0.9440 -1.0223
  772MOL0     H 1850   3.126   3.127   0.378 -0.4872 -2.4820 -2.3642
  772MOL0     H 1851   3.218   3.375   0.394  3.0027 -0.7682  1.0798
  772MOL0     H 1852   3.228   3.365   0.217 -0.6239 -2.3564 -1.2671
  772MOL0     H 1853   3.345   3.135   0.359  2.1173 -1.0406 -0.8371
  772MOL0     H 1854   3.384   3.199   0.199  0.5980  0.5372 -0.2259
  772MOL0     H 1855   3.439   3.350   0.448 -2.9933 -1.0024 -1.1549
  772MOL0     H 1856   3.464   3.415   0.294  1.3364 -1.0558 -0.9277
  772MOL0     H 1857   3.562   3.064   0.414 -1.5436  0.3878 -0.5759
  772MOL0     H 1858   3.950   3.020   0.326 -0.3008  1.8038  0.6192
  772MOL0     H 1859   3.819   2.923   0.266 -2.4833 -2.7665  2.6142
  772MOL0     H 1860   3.941   2.845   0.459 -1.4545 -1.8824  2.2099
  772MOL0     H 1861   3.764   2.860   0.497 -1.2004  2.2287 -0.6704
  772MOL0     H 1862   3.962   3.078   0.582  1.0404 -1.5790 -1.4912
  772MOL0     H 1863   3.795   3.062   0.633 -1.4962 -1.0326 -0.4362
  772MOL0     H 1864   3.947   3.006   0.800  1.4666  0.4314 -1.1094
  772MOL0     H 1865   4.025   2.867   0.703  0.4583  0.3737  0.2776
  772MOL0     H 1866   3.644   2.681   0.676 -1.2682 -0.4559  0.1978
  772MOL0     H 1867   3.401   2.736   0.702 -1.4357  0.8945 -0.3402
  772MOL0     H 1868   2.997   2.989   0.638 -1.0233 -0.1042  0.1028
  772MOL0     H 1869   2.766   2.922   0.708  2.2508  4.2238  0.4828
  772MOL0     H 1870   2.640   2.916   0.950  2.3010  1.2950 -0.0222
  772MOL0     H 1871   2.759   2.862   1.074 -0.2850  0.8683 -0.1067
  772MOL0     H 1872   2.628   2.723   1.178  2.3504  1.4348 -1.1717
  772MOL0     H 1873   2.518   2.704   1.044 -1.8444 -1.0826  3.1983
  772MOL0     H 1874   2.557   2.966   1.196  1.0617 -2.3289  1.2463
  772MOL0     H 1875   2.432   2.859   1.255 -2.8742  0.7725 -1.3359
  772MOL0     H 1876   2.338   3.033   1.132  1.7149  0.8109 -0.6840
  772MOL0     H 1877   2.419   2.981   0.986  2.0004  1.4825  1.5115
  772MOL0     H 1878   2.189   2.863   1.138 -0.9701 -0.0107 -0.9774
  772MOL0     H 1879   2.293   2.759   1.020  0.4374  0.8759 -0.5409
  772MOL0     H 1880   2.233   2.884   0.838  0.6292 -0.4687 -0.0644
  772MOL0     H 1881   2.174   3.023   0.936 -2.7441  0.5631 -3.9033
  772MOL0     H 1882   1.992   2.887   1.001  1.1273  0.1111  1.0424
  772MOL0     H 1883   1.988   2.908   0.828 -1.4683 -1.8457 -0.5875
  772MOL0     H 1884   2.070   2.646   0.983 -0.5530 -0.9133 -1.5416
  772MOL0     H 1885   2.106   2.678   0.819  1.3779  2.9580  0.5074
  772MOL0     H 1886   2.952   2.596   0.943 -0.3031  0.6635  0.3138
  772MOL0     H 1887   3.169   2.662   0.839 -0.3867 -1.1691 -1.9279
  772MOL0     H 1888   3.494   3.105   0.897  1.3418  1.6367 -2.2340
  772MOL0     H 1889   3.732   3.052   0.883 -1.7200  2.0488 -1.1208
  772MOL0     H 1890   2.553   2.776   0.665  2.6648 -0.0475 -3.3367
  772MOL0     H 1891   2.325   2.674   0.674 -2.5246 -1.6297 -1.1871
  772MOL0     H 1892   1.910   2.735   0.590 -0.9743 -0.4444  0.2517
  772MOL0     H 1893   1.677   2.659   0.601  1.6469  2.2850 -1.2119
  772MOL0     H 1894   1.379   2.489   0.498 -0.0022  0.2407  0.0713
  772MOL0     H 1895   1.498   2.610   0.529  0.7074  0.2690  0.0648
  772MOL0     H 1896   1.414   2.370   0.709  0.4026  0.4357  3.5566
  772MOL0     H 1897   1.551   2.461   0.746  1.9856  0.1504 -1.7466
  772MOL0     H 1898   1.404   2.660   0.770 -1.3747  0.7250  0.5931
  772MOL0     H 1899   1.357   2.530   0.876  1.3602 -0.0940  0.0865
  772MOL0     H 1900   1.153   2.650   0.788 -0.8133 -1.7580  2.8529
  772MOL0     H 1901   1.208   2.604   0.622 -1.1332 -1.6143 -0.0463
  772MOL0     H 1902   0.995   2.270   0.696 -4.8104  2.6096  0.2430
  772MOL0     H 1903   1.763   2.287   0.396  2.1270 -1.0261 -0.5377
  772MOL0     H 1904   1.997   2.368   0.368  3.0324  0.2338  0.3340
  773MOL0     O 1905  10.770   8.133   3.960 -0.1714 -0.0170  0.9486
  773MOL0     C 1906  10.751   8.226   4.042  1.0554 -0.9587  0.3391
  773MOL0     O 1907  10.842   8.308   4.105  0.2049 -0.2649  0.6140
  773MOL0     C 1908  10.979   8.301   4.079 -0.1961 -0.5156 -0.0591
  773MOL0     C 1909  11.059   8.189   4.051  0.4398  0.2098  0.3174
  773MOL0     C 1910  11.203   8.206   4.057 -1.5210  0.5821 -0.6149
  773MOL0     C 1911  11.262   8.333   4.047 -0.4280  0.3626 -0.6101
  773MOL0     O 1912  11.389   8.339   3.989  0.2475  0.3343  0.1074
  773MOL0     C 1913  11.498   8.380   4.071  0.3568 -1.0518  0.1029
  773MOL0     C 1914  11.595   8.257   4.081  0.2129 -0.2853  0.2263
  773MOL0     C 1915  11.741   8.299   4.125  0.9843  1.0666  1.2269
  773MOL0     C 1916  11.821   8.163   4.141 -0.4695  0.3759 -0.1665
  773MOL0     C 1917  11.968   8.176   4.175 -1.2192 -0.3387 -0.3098
  773MOL0     C 1918  12.051   8.058   4.121  0.0164  0.3490 -0.4485
  773MOL0     C 1919  12.202   8.089   4.139 -0.1422  0.2072  0.4675
  773MOL0     C 1920  12.253   8.094   4.282  0.3841 -0.6620 -0.8523
  773MOL0     N 1921  12.397   8.080   4.293 -0.6010  0.1303  0.0257
  773MOL0     C 1922  12.486   8.169   4.240  0.4914 -0.1218 -0.0717
  773MOL0     C 1923  12.609   8.136   4.289  0.0130  0.1536 -0.1809
  773MOL0     C 1924  12.733   8.212   4.262 -0.0780 -0.1137  0.5201
  773MOL0     C 1925  12.745   8.355   4.306  0.4017 -0.4877  0.2141
  773MOL0     C 1926  12.646   8.449   4.227 -0.0412 -0.7610 -1.2772
  773MOL0     C 1927  12.534   8.496   4.329 -0.1101 -0.0119  0.4092
  773MOL0     O 1928  12.418   8.504   4.246  0.2136 -0.5472 -0.3305
  773MOL0     C 1929  12.299   8.530   4.320 -0.2178 -0.1004 -0.4384
  773MOL0     C 1930  12.172   8.515   4.262 -0.4465 -0.4177 -0.1168
  773MOL0     C 1931  12.063   8.551   4.318  0.6131  0.4959 -0.4776
  773MOL0     C 1932  12.061   8.598   4.444  0.3710 -0.3974  0.1909
  773MOL0     C 1933  11.926   8.648   4.503 -0.2366 -0.0454  0.5839
  773MOL0     O 1934  11.813   8.657   4.424 -0.4237 -0.0886  0.4870
  773MOL0     C 1935  11.691   8.707   4.473  0.0804 -0.3900  1.0267
  773MOL0     C 1936  11.685   8.824   4.549  0.0771  0.5400 -0.3564
  773MOL0     C 1937  11.568   8.879   4.599 -0.1528  0.5545 -0.6421
  773MOL0     C 1938  11.450   8.820   4.573  0.1165 -0.5531 -0.6442
  773MOL0     O 1939  11.341   8.887   4.615  0.5840  0.3973  0.0466
  773MOL0     C 1940  11.224   8.809   4.661  0.2026 -0.3672  0.2531
  773MOL0     C 1941  11.130   8.893   4.746 -0.2407 -0.8153  0.3078
  773MOL0     C 1942  10.990   8.829   4.760 -0.3743 -0.2965  0.2503
  773MOL0     C 1943  10.902   8.888   4.874  0.0022 -0.4111  0.5889
  773MOL0     C 1944  10.876   9.038   4.863 -0.3542  0.1452  0.1440
  773MOL0     C 1945  10.823   9.091   4.995  0.6361 -0.4717 -0.1415
  773MOL0     C 1946  10.941   9.094   5.100  0.7080 -0.4120 -0.0593
  773MOL0     C 1947  10.888   9.147   5.230 -0.3064 -0.1410 -0.0983
  773MOL0    Cl 1948  10.803   9.032   5.339 -0.1023 -0.4420 -0.0533
  773MOL0     C 1949  11.447   8.708   4.497 -0.9187 -0.3471  0.4223
  773MOL0     C 1950  11.569   8.657   4.448 -0.8681 -0.3295  0.0307
  773MOL0     O 1951  11.935   8.683   4.619 -0.0608 -0.1850  0.3329
  773MOL0     C 1952  12.184   8.612   4.517  0.5348  0.1849 -0.4220
  773MOL0     C 1953  12.305   8.577   4.454  0.5586  0.3423 -0.8705
  773MOL0     N 1954  12.595   8.029   4.367 -0.4654  0.2491  0.3477
  773MOL0     N 1955  12.465   7.999   4.380  0.4965  0.3531 -0.0770
  773MOL0     C 1956  11.183   8.447   4.074 -0.6394  0.0207 -0.2149
  773MOL0     C 1957  11.041   8.434   4.090  1.3242  0.3348 -0.0911
  773MOL0     C 1958  10.611   8.267   4.075 -0.3668  0.3542  0.6510
  773MOL0     C 1959  10.576   8.397   4.111  1.2958 -0.0806  0.6907
  773MOL0     C 1960  10.448   8.438   4.152  0.3802 -0.8275  0.0591
  773MOL0     C 1961  10.348   8.348   4.133  0.8244  0.6359  0.7408
  773MOL0     O 1962  10.221   8.387   4.178 -0.6271  0.8638  0.4913
  773MOL0     C 1963  10.103   8.300   4.183 -0.9069  0.2892 -1.0167
  773MOL0     C 1964   9.977   8.376   4.227 -0.2615  0.0316  0.1103
  773MOL0     C 1965   9.953   8.516   4.179  0.1450 -0.5041 -0.4786
  773MOL0     C 1966   9.868   8.595   4.279  0.0960 -0.6815  0.8661
  773MOL0     C 1967   9.855   8.734   4.240  0.3196 -0.6980  0.6207
  773MOL0     C 1968   9.837   8.858   4.231  0.2197 -0.5224  0.3393
  773MOL0     C 1969  10.376   8.221   4.085  0.7523  0.4421 -0.3557
  773MOL0     C 1970  10.507   8.182   4.054  0.8399  0.1602 -0.2291
  773MOL0     H 1971  11.014   8.093   4.025 -1.3724  1.1714 -0.2477
  773MOL0     H 1972  11.273   8.125   4.039 -1.3521 -0.2194  2.9917
  773MOL0     H 1973  11.466   8.405   4.173  1.0663  0.4464 -0.0287
  773MOL0     H 1974  11.540   8.467   4.022 -1.9647 -0.0551 -0.2656
  773MOL0     H 1975  11.602   8.219   3.979  2.7335  1.1260 -0.2054
  773MOL0     H 1976  11.555   8.186   4.154  0.0181  0.2328  0.6338
  773MOL0     H 1977  11.738   8.359   4.216 -1.0203  1.0214  1.2405
  773MOL0     H 1978  11.787   8.364   4.051  0.0963  1.8193  1.3169
  773MOL0     H 1979  11.769   8.088   4.200 -0.3168 -0.5108 -1.1285
  773MOL0     H 1980  11.811   8.118   4.042 -1.3106  0.3158 -0.0533
  773MOL0     H 1981  11.982   8.196   4.282 -1.0117  1.4312 -0.6287
  773MOL0     H 1982  12.005   8.266   4.124  1.9384 -1.5532 -0.3638
  773MOL0     H 1983  12.042   8.060   4.012  3.4550  1.7184 -0.8334
  773MOL0     H 1984  12.025   7.959   4.160 -1.3071 -0.0609 -2.2054
  773MOL0     H 1985  12.261   8.020   4.079  0.4642  1.1744 -0.0748
  773MOL0     H 1986  12.224   8.187   4.095 -0.5530 -0.2020 -0.6742
  773MOL0     H 1987  12.200   8.022   4.346  1.1981 -0.3545  0.1897
  773MOL0     H 1988  12.226   8.193   4.321  2.4747 -0.9073  1.4853
  773MOL0     H 1989  12.467   8.254   4.175  2.5088 -2.0319 -3.3985
  773MOL0     H 1990  12.758   8.211   4.155 -0.0548 -1.6438  0.5244
  773MOL0     H 1991  12.806   8.162   4.326 -0.0752  2.1150  2.4204
  773MOL0     H 1992  12.848   8.384   4.282  0.0867  0.3790 -0.1551
  773MOL0     H 1993  12.728   8.366   4.413 -1.4464  0.2610 -0.1262
  773MOL0     H 1994  12.703   8.537   4.194 -1.5538  1.5746  1.9007
  773MOL0     H 1995  12.598   8.401   4.141 -0.3108 -2.2071 -0.3544
  773MOL0     H 1996  12.565   8.591   4.374  0.2493  0.5456 -0.9474
  773MOL0     H 1997  12.512   8.423   4.408 -4.0512  0.9910  0.4144
  773MOL0     H 1998  12.167   8.466   4.165 -1.7286 -1.4062  0.4230
  773MOL0     H 1999  11.974   8.541   4.257  1.3711 -2.6215 -1.2689
  773MOL0     H 2000  11.777   8.881   4.560  0.0797  1.8931 -5.0684
  773MOL0     H 2001  11.574   8.955   4.676 -3.7390 -2.4792  3.0616
  773MOL0     H 2002  11.251   8.725   4.726  0.9374 -0.4321 -0.1225
  773MOL0     H 2003  11.165   8.772   4.576  0.6669  0.2508 -0.3512
  773MOL0     H 2004  11.120   8.996   4.712 -1.2672 -1.1917 -0.5910
  773MOL0     H 2005  11.168   8.893   4.848 -1.2929  2.3469  0.8087
  773MOL0     H 2006  11.000   8.724   4.790 -1.5887 -0.3126  0.6477
  773MOL0     H 2007  10.946   8.851   4.663 -1.6340  2.7579  1.3603
  773MOL0     H 2008  10.811   8.828   4.874  0.0786 -0.6696 -2.3421
  773MOL0     H 2009  10.959   8.875   4.967 -0.7770 -1.8112  0.8946
  773MOL0     H 2010  10.808   9.046   4.778 -1.7472 -0.2169  1.1758
  773MOL0     H 2011  10.959   9.104   4.836 -1.0001  2.1702  2.7252
  773MOL0     H 2012  10.744   9.017   5.008  0.8646 -0.7652 -0.4017
  773MOL0     H 2013  10.790   9.196   4.995  0.7179 -0.3932  2.1559
  773MOL0     H 2014  10.977   8.993   5.122  0.5086  0.1661  3.4626
  773MOL0     H 2015  11.021   9.154   5.058 -0.3331  1.2679  0.2775
  773MOL0     H 2016  10.821   9.231   5.207  0.1944 -0.2335 -2.0613
  773MOL0     H 2017  10.982   9.176   5.278 -0.6005 -1.6968  1.5177
  773MOL0     H 2018  11.355   8.653   4.480 -1.0187  0.7662 -3.6237
  773MOL0     H 2019  11.575   8.570   4.383 -1.2319 -1.8297  1.9185
  773MOL0     H 2020  12.180   8.649   4.619  1.6206  1.0966 -0.6905
  773MOL0     H 2021  12.395   8.604   4.508 -0.6088  0.4769  1.1028
  773MOL0     H 2022  11.224   8.547   4.076  1.9916 -1.0071  1.4966
  773MOL0     H 2023  10.973   8.516   4.113 -3.0587 -2.3144 -2.3083
  773MOL0     H 2024  10.648   8.479   4.113  0.7613  0.6272  6.3835
  773MOL0     H 2025  10.429   8.532   4.204 -0.2929 -0.1391 -1.3770
  773MOL0     H 2026  10.127   8.218   4.251 -0.1119  0.6831 -0.8125
  773MOL0     H 2027  10.090   8.258   4.083 -2.4617 -0.7739 -0.4084
  773MOL0     H 2028   9.893   8.312   4.200 -0.4448 -0.1995  1.1800
  773MOL0     H 2029   9.991   8.378   4.335  1.4906 -1.3895 -0.0368
  773MOL0     H 2030   9.915   8.515   4.077 -0.1374 -2.3620 -0.3985
  773MOL0     H 2031  10.050   8.567   4.175 -1.1212  2.8146  3.4555
  773MOL0     H 2032   9.771   8.546   4.277  0.0208 -0.5165 -1.2407
  773MOL0     H 2033   9.898   8.577   4.383  0.3645 -3.5141  0.3912
  773MOL0     H 2034   9.845   8.957   4.190 -2.7913 -0.3077  0.0017
  773MOL0     H 2035  10.294   8.151   4.070 -1.3489  2.2412  1.8590
  773MOL0     H 2036  10.533   8.077   4.050  1.0471  0.2248 -0.7001
  774MOL0     O 2037   4.942   0.207   1.981  0.0590  0.1916  0.3539
  774MOL0     C 2038   4.969   0.088   1.950  1.0787  0.2943 -0.7004
  774MOL0     O 2039   5.001  -0.019   2.030 -0.6907 -0.8736 -0.8230
  774MOL0     C 2040   4.973  -0.008   2.161 -0.4370 -0.2820  0.1613
  774MOL0     C 2041   4.859   0.059   2.220 -0.6369 -0.7750  0.4689
  774MOL0     C 2042   4.833   0.055   2.361  0.0155  0.0211  0.3837
  774MOL0     C 2043   4.923  -0.001   2.451 -0.1613  0.4937 -0.3577
  774MOL0     O 2044   4.917   0.003   2.587 -0.1067 -0.5234  0.1338
  774MOL0     C 2045   4.868   0.124   2.646  0.2715  0.1298  0.0088
  774MOL0     C 2046   4.784   0.102   2.774 -0.0014 -0.3102 -0.2214
  774MOL0     C 2047   4.866   0.033   2.890  0.4048 -0.2654  1.1854
  774MOL0     C 2048   4.789   0.045   3.021  0.5578  0.1525  0.7843
  774MOL0     C 2049   4.885   0.008   3.133  0.6569  0.9931 -0.3117
  774MOL0     C 2050   4.798  -0.013   3.259 -0.0878 -0.1156  0.6379
  774MOL0     C 2051   4.881  -0.089   3.365  1.1573  0.6378  0.1253
  774MOL0     C 2052   4.988  -0.006   3.435 -0.3597  0.2471 -0.2552
  774MOL0     N 2053   5.018  -0.045   3.579 -0.8572 -0.1316 -0.4822
  774MOL0     C 2054   5.023  -0.181   3.621  1.0960 -0.0475  0.5949
  774MOL0     C 2055   5.012  -0.172   3.757 -0.5322 -0.6277  0.3488
  774MOL0     C 2056   5.011  -0.273   3.858 -0.3850 -0.2295  0.4722
  774MOL0     C 2057   4.998  -0.216   4.007  0.3993 -1.1310  0.8463
  774MOL0     C 2058   4.847  -0.205   4.026 -0.2091  0.8969  0.1462
  774MOL0     C 2059   4.808  -0.169   4.169 -0.1939  0.6468  0.5099
  774MOL0     O 2060   4.669  -0.145   4.174  0.4726  0.2751 -0.3008
  774MOL0     C 2061   4.586  -0.232   4.244 -0.2355  0.8146  0.4771
  774MOL0     C 2062   4.474  -0.273   4.179  0.4841  0.4519 -0.6043
  774MOL0     C 2063   4.371  -0.347   4.244  0.8572  0.0271 -0.6909
  774MOL0     C 2064   4.392  -0.387   4.379  0.2064  0.0446  0.4144
  774MOL0     C 2065   4.280  -0.450   4.448  0.4171  0.5204 -0.3570
  774MOL0     O 2066   4.164  -0.457   4.377 -0.2380 -0.4879 -0.3211
  774MOL0     C 2067   4.047  -0.492   4.435 -0.4185 -0.2845 -0.9116
  774MOL0     C 2068   3.999  -0.444   4.558 -0.6808  0.6319  0.3095
  774MOL0     C 2069   3.877  -0.495   4.604  0.9330 -0.0940  0.4249
  774MOL0     C 2070   3.807  -0.601   4.541 -0.1024  0.1421  0.2660
  774MOL0     O 2071   3.694  -0.661   4.585  0.9152  0.2437  0.3570
  774MOL0     C 2072   3.585  -0.586   4.631  0.2528 -0.7802 -0.3995
  774MOL0     C 2073   3.606  -0.553   4.774 -0.7050  0.0487 -0.1735
  774MOL0     C 2074   3.522  -0.627   4.883  1.9936  0.1920 -0.7291
  774MOL0     C 2075   3.371  -0.582   4.883  0.7550 -0.2279 -0.8575
  774MOL0     C 2076   3.320  -0.592   5.029  0.1043  0.6414 -0.7353
  774MOL0     C 2077   3.322  -0.728   5.091  0.2621  0.2056 -0.2581
  774MOL0     C 2078   3.257  -0.712   5.234  0.3351 -0.0980 -0.5481
  774MOL0     C 2079   3.246  -0.854   5.300  0.5690  0.1504 -0.2227
  774MOL0    Cl 2080   3.210  -0.851   5.486  0.1595 -0.1527  0.3107
  774MOL0     C 2081   3.871  -0.651   4.426  0.7096  0.3993 -0.0125
  774MOL0     C 2082   3.984  -0.590   4.365  0.3998 -0.7458  0.2414
  774MOL0     O 2083   4.285  -0.491   4.564 -0.0515 -0.0937 -0.3185
  774MOL0     C 2084   4.515  -0.357   4.437  0.6079  0.8981 -0.1686
  774MOL0     C 2085   4.610  -0.283   4.369 -0.4623  0.4642 -0.3474
  774MOL0     N 2086   5.026  -0.043   3.781  0.5766 -0.8542  0.1105
  774MOL0     N 2087   5.049   0.032   3.676  0.2383 -0.2974  0.1105
  774MOL0     C 2088   5.026  -0.077   2.391  0.4374  0.8088 -0.2596
  774MOL0     C 2089   5.054  -0.080   2.248 -0.4404 -0.0772 -0.0413
  774MOL0     C 2090   4.970   0.070   1.802  0.2152 -0.3758 -0.4807
  774MOL0     C 2091   4.923   0.163   1.711  0.5824 -0.2199 -0.3810
  774MOL0     C 2092   4.920   0.140   1.569  1.1481 -0.9547  0.2308
  774MOL0     C 2093   4.966   0.019   1.523 -0.8701 -0.4500 -0.1644
  774MOL0     O 2094   4.966   0.013   1.387 -0.4255 -0.5372 -0.1876
  774MOL0     C 2095   4.998  -0.105   1.316  0.5860 -0.0558  0.3560
  774MOL0     C 2096   4.868  -0.193   1.320  0.2376  0.0465 -1.0467
  774MOL0     C 2097   4.740  -0.131   1.268 -0.6482 -0.5562  0.0460
  774MOL0     C 2098   4.630  -0.231   1.242  0.2467  0.2019  0.4716
  774MOL0     C 2099   4.502  -0.182   1.207 -0.4316 -0.1304 -0.5628
  774MOL0     C 2100   4.389  -0.136   1.177  0.9122 -0.1862  0.7545
  774MOL0     C 2101   5.019  -0.075   1.619  0.4691  0.3834  0.6253
  774MOL0     C 2102   5.009  -0.053   1.757  0.8516 -0.0588  0.1286
  774MOL0     H 2103   4.787   0.100   2.150  0.7176 -1.1357 -1.1993
  774MOL0     H 2104   4.751   0.110   2.406 -0.4550  0.8235 -1.3332
  774MOL0     H 2105   4.807   0.197   2.591 -1.8680 -0.8775  0.9339
  774MOL0     H 2106   4.964   0.169   2.673  2.2010 -3.6757  0.1142
  774MOL0     H 2107   4.696   0.041   2.749  0.8836 -2.1855  0.9803
  774MOL0     H 2108   4.749   0.200   2.807  2.2749  0.7560 -0.7759
  774MOL0     H 2109   4.965   0.076   2.908  0.4293  1.1624 -1.8224
  774MOL0     H 2110   4.876  -0.074   2.868  1.5676 -0.2252  1.4316
  774MOL0     H 2111   4.735   0.140   3.027  3.4026  2.1160 -1.6964
  774MOL0     H 2112   4.707  -0.027   3.010 -0.5449  1.7714 -2.9210
  774MOL0     H 2113   4.965   0.080   3.153  1.2813  0.2088  0.0915
  774MOL0     H 2114   4.932  -0.088   3.108  2.2116  0.6360  3.3462
  774MOL0     H 2115   4.719  -0.085   3.237  1.5504 -0.9221 -3.6420
  774MOL0     H 2116   4.748   0.075   3.300 -0.7162  0.1809 -0.7345
  774MOL0     H 2117   4.806  -0.124   3.436 -0.0916  1.3635 -0.7968
  774MOL0     H 2118   4.928  -0.178   3.321 -1.4513 -0.1587 -1.2884
  774MOL0     H 2119   4.964   0.101   3.436 -1.1171  0.1394 -2.4063
  774MOL0     H 2120   5.079  -0.007   3.374 -0.5214  0.4309 -0.5008
  774MOL0     H 2121   5.048  -0.264   3.556  0.4674  1.0314 -1.1108
  774MOL0     H 2122   5.105  -0.328   3.848  0.6082  1.3651  0.6438
  774MOL0     H 2123   4.936  -0.351   3.839  0.8317 -1.6685  1.3630
  774MOL0     H 2124   5.055  -0.125   4.024  2.4181 -1.7484 -1.8293
  774MOL0     H 2125   5.043  -0.293   4.070  1.5336 -0.6606  0.6303
  774MOL0     H 2126   4.809  -0.127   3.961  0.3626  3.2821  2.4818
  774MOL0     H 2127   4.800  -0.301   4.001  2.4544 -0.9229  1.5725
  774MOL0     H 2128   4.860  -0.086   4.218 -0.4054  0.3326  1.2746
  774MOL0     H 2129   4.841  -0.249   4.235  0.4471  2.8202  3.0146
  774MOL0     H 2130   4.460  -0.252   4.073 -1.5758  1.9591 -0.0907
  774MOL0     H 2131   4.275  -0.353   4.195 -0.4608  0.8641  1.6630
  774MOL0     H 2132   4.042  -0.366   4.619 -1.6119  0.9095  0.6256
  774MOL0     H 2133   3.854  -0.442   4.696  1.7981  0.7575  0.1632
  774MOL0     H 2134   3.490  -0.639   4.620 -0.8194  0.8491  0.5023
  774MOL0     H 2135   3.576  -0.499   4.565  1.5434 -0.5802 -0.3261
  774MOL0     H 2136   3.579  -0.448   4.772  2.1552  0.8739 -1.0974
  774MOL0     H 2137   3.708  -0.569   4.810 -0.4445 -0.0220 -0.9242
  774MOL0     H 2138   3.571  -0.606   4.979 -0.4006 -2.8804  1.3746
  774MOL0     H 2139   3.523  -0.736   4.871 -1.2680 -0.7722  4.4917
  774MOL0     H 2140   3.363  -0.476   4.858 -0.4471  0.1628  0.9562
  774MOL0     H 2141   3.318  -0.640   4.808  0.6852 -0.6947 -0.4556
  774MOL0     H 2142   3.216  -0.557   5.025  0.1169  0.7974  0.1916
  774MOL0     H 2143   3.378  -0.530   5.098  4.1299 -3.5044  0.0249
  774MOL0     H 2144   3.425  -0.762   5.105  0.5627  0.5227 -1.6025
  774MOL0     H 2145   3.258  -0.798   5.036 -2.3240  2.5688 -0.4543
  774MOL0     H 2146   3.326  -0.658   5.300 -0.7480 -2.3263  2.6290
  774MOL0     H 2147   3.159  -0.667   5.217  0.9204  0.4563 -2.6950
  774MOL0     H 2148   3.331  -0.923   5.292 -0.8708 -2.0745  2.0131
  774MOL0     H 2149   3.167  -0.906   5.245  2.4753 -2.3846 -0.7829
  774MOL0     H 2150   3.828  -0.736   4.375  2.4823 -0.0927 -0.7630
  774MOL0     H 2151   4.031  -0.627   4.275 -0.1762  0.4915 -0.6036
  774MOL0     H 2152   4.530  -0.401   4.536 -0.4995 -1.9528 -1.1634
  774MOL0     H 2153   4.712  -0.282   4.407 -0.2174  0.5339 -1.0073
  774MOL0     H 2154   5.088  -0.142   2.452 -0.4017 -1.4203 -1.6617
  774MOL0     H 2155   5.132  -0.150   2.220 -0.4977 -0.6685  1.2316
  774MOL0     H 2156   4.878   0.249   1.759  1.4785 -0.2332  0.5270
  774MOL0     H 2157   4.879   0.210   1.497  0.6909 -1.0623  0.3874
  774MOL0     H 2158   5.066  -0.165   1.377  0.7511  0.4860  0.7131
  774MOL0     H 2159   5.039  -0.090   1.215  0.6564 -1.4566  0.1590
  774MOL0     H 2160   4.880  -0.282   1.258  0.5073 -1.0894  0.5736
  774MOL0     H 2161   4.846  -0.231   1.420 -0.7945  1.0707 -0.8604
  774MOL0     H 2162   4.757  -0.081   1.172 -1.1287 -1.3101 -0.4381
  774MOL0     H 2163   4.708  -0.060   1.345  4.3337 -0.1034  2.0531
  774MOL0     H 2164   4.678  -0.290   1.163  1.8619 -1.0438  2.2728
  774MOL0     H 2165   4.625  -0.299   1.327 -0.1865  0.9746  1.0759
  774MOL0     H 2166   4.293  -0.092   1.160  0.4375 -1.4018  0.1207
  774MOL0     H 2167   5.054  -0.171   1.584  0.6872  0.1658  1.4253
  774MOL0     H 2168   5.044  -0.132   1.822  0.8376  0.9445  1.4025
  775MOL0     O 2169   4.765   0.841   6.665 -0.2264  1.1034  0.0978
  775MOL0     C 2170   4.752   0.884   6.552  0.2769 -0.4069  0.5872
  775MOL0     O 2171   4.634   0.897   6.487 -0.1306 -0.1823  0.2643
  775MOL0     C 2172   4.516   0.869   6.547  1.1477  0.0562 -1.2570
  775MOL0     C 2173   4.500   0.909   6.678  0.1001  0.4405  0.1107
  775MOL0     C 2174   4.384   0.873   6.742 -0.8200 -0.3004  0.1900
  775MOL0     C 2175   4.290   0.788   6.690  0.7693  0.9578  0.2612
  775MOL0     O 2176   4.183   0.744   6.764 -0.0642 -0.9682 -0.6660
  775MOL0     C 2177   4.113   0.853   6.825 -0.2918  0.5109  0.3903
  775MOL0     C 2178   3.967   0.826   6.864  0.6942 -0.8031  0.6131
  775MOL0     C 2179   3.877   0.783   6.745  0.3876 -0.8135 -0.0073
  775MOL0     C 2180   3.727   0.771   6.787 -0.1919 -0.9172 -0.4231
  775MOL0     C 2181   3.639   0.763   6.662  0.2423  0.4180 -0.3190
  775MOL0     C 2182   3.614   0.906   6.596  0.2368 -0.0862 -0.6671
  775MOL0     C 2183   3.503   0.987   6.676 -0.8243 -0.3563 -0.0299
  775MOL0     C 2184   3.571   1.086   6.781  0.5528 -0.4802  0.7153
  775MOL0     N 2185   3.480   1.169   6.856 -0.8451 -0.8347  0.4902
  775MOL0     C 2186   3.399   1.255   6.781 -0.4422  0.3444  0.3921
  775MOL0     C 2187   3.318   1.298   6.879 -0.0232 -0.4037 -0.0762
  775MOL0     C 2188   3.224   1.405   6.849  0.5655 -0.6714  0.3208
  775MOL0     C 2189   3.078   1.366   6.888 -1.2493  0.2034  0.1710
  775MOL0     C 2190   2.973   1.439   6.811  0.3788  0.5305 -0.9967
  775MOL0     C 2191   2.834   1.447   6.873  0.7739 -0.9801  0.4942
  775MOL0     O 2192   2.774   1.334   6.940 -1.0703 -0.4153  0.2089
  775MOL0     C 2193   2.634   1.349   6.967 -0.5834  0.0002 -0.5339
  775MOL0     C 2194   2.568   1.473   6.990  0.1656 -0.2815 -0.4271
  775MOL0     C 2195   2.434   1.485   7.048 -0.2527  1.2995 -0.1011
  775MOL0     C 2196   2.360   1.365   7.063 -0.9731 -0.0706 -0.5114
  775MOL0     C 2197   2.214   1.369   7.090  0.1351  0.4384 -0.0043
  775MOL0     O 2198   2.154   1.240   7.087 -0.8915  0.1430 -0.1003
  775MOL0     C 2199   2.020   1.226   7.091  0.5616 -0.5112 -0.2939
  775MOL0     C 2200   1.970   1.139   7.190 -0.1439 -0.2563  0.4366
  775MOL0     C 2201   1.836   1.127   7.204 -0.3220 -0.6119 -0.3145
  775MOL0     C 2202   1.746   1.210   7.136 -0.6219 -0.2771 -0.3709
  775MOL0     O 2203   1.608   1.184   7.142 -0.0644 -0.0861  0.5346
  775MOL0     C 2204   1.529   1.309   7.160 -0.2353 -0.9039  0.1767
  775MOL0     C 2205   1.386   1.275   7.153  0.8763  0.3973 -0.1945
  775MOL0     C 2206   1.296   1.384   7.213 -0.7410  0.2445 -0.2077
  775MOL0     C 2207   1.146   1.338   7.214 -0.1901  0.2949 -0.6777
  775MOL0     C 2208   1.041   1.441   7.267  0.6827 -0.0137 -0.0607
  775MOL0     C 2209   1.077   1.590   7.244 -0.1645 -0.9502  0.2054
  775MOL0     C 2210   0.993   1.688   7.321  1.0310 -0.9691 -0.5756
  775MOL0     C 2211   0.844   1.661   7.297 -0.0285 -0.5122 -0.8830
  775MOL0    Cl 2212   0.756   1.796   7.386 -0.1036  0.0062  0.3197
  775MOL0     C 2213   1.796   1.308   7.042  0.2916 -0.3302  0.5607
  775MOL0     C 2214   1.932   1.320   7.029  0.0194 -0.2759  0.5306
  775MOL0     O 2215   2.156   1.481   7.093  0.3587 -0.2881  0.1955
  775MOL0     C 2216   2.429   1.244   7.042 -0.3890 -0.0040  0.7804
  775MOL0     C 2217   2.558   1.236   6.990 -0.7441  0.2372  0.0624
  775MOL0     N 2218   3.356   1.257   7.006  0.0135  0.2689 -0.1981
  775MOL0     N 2219   3.456   1.169   6.987  0.1183  0.8572 -0.4781
  775MOL0     C 2220   4.305   0.751   6.555 -0.4688 -0.3281  1.0002
  775MOL0     C 2221   4.412   0.796   6.477  0.0660 -0.1829 -0.4666
  775MOL0     C 2222   4.869   0.924   6.480 -0.2560  0.6080  0.3299
  775MOL0     C 2223   4.969   0.981   6.545  0.7598  0.2467  0.2405
  775MOL0     C 2224   5.093   1.000   6.491 -0.6925  0.1832  0.3382
  775MOL0     C 2225   5.118   0.978   6.355 -0.2325 -0.4008 -0.7787
  775MOL0     O 2226   5.251   0.985   6.298  0.3633  0.1539  0.2898
  775MOL0     C 2227   5.272   1.107   6.222  1.0506  0.5192  0.2250
  775MOL0     C 2228   5.354   1.212   6.301  0.3015  0.1226 -0.3601
  775MOL0     C 2229   5.510   1.192   6.276  0.3400 -0.3760  0.1437
  775MOL0     C 2230   5.558   1.274   6.150  0.6535  0.8367  0.6810
  775MOL0     C 2231   5.553   1.191   6.033  0.8163  0.3210 -0.9313
  775MOL0     C 2232   5.568   1.110   5.946  0.2997  0.2002  0.9492
  775MOL0     C 2233   5.006   0.937   6.286  0.1123 -0.2372 -0.2581
  775MOL0     C 2234   4.886   0.910   6.342  0.5242  0.0913 -1.1750
  775MOL0     H 2235   4.571   0.964   6.738  3.9133 -4.2834  0.5586
  775MOL0     H 2236   4.366   0.922   6.837 -1.5671  1.4613 -0.8066
  775MOL0     H 2237   4.107   0.943   6.763  0.1257  0.5388  0.3934
  775MOL0     H 2238   4.167   0.877   6.917 -5.0676  1.3514  3.3386
  775MOL0     H 2239   3.933   0.920   6.907  0.4859 -0.7457  0.3284
  775MOL0     H 2240   3.949   0.742   6.931  1.5882 -3.4490 -2.2263
  775MOL0     H 2241   3.917   0.688   6.710 -0.0656 -1.3204  0.8334
  775MOL0     H 2242   3.883   0.860   6.668 -1.1743  0.8698  1.4583
  775MOL0     H 2243   3.729   0.675   6.840  1.0551 -0.9269 -0.4567
  775MOL0     H 2244   3.692   0.853   6.850 -0.8959 -0.7306 -1.0417
  775MOL0     H 2245   3.542   0.728   6.699  0.5015 -2.0537 -1.7671
  775MOL0     H 2246   3.690   0.691   6.598 -0.6186  0.1582 -0.7361
  775MOL0     H 2247   3.574   0.884   6.496  0.5314 -0.4206 -0.7119
  775MOL0     H 2248   3.704   0.967   6.580 -0.2686  0.6158 -0.9068
  775MOL0     H 2249   3.444   1.052   6.610 -0.8923  2.6082  2.7500
  775MOL0     H 2250   3.443   0.910   6.725  2.1596 -3.5418 -0.9150
  775MOL0     H 2251   3.645   1.151   6.733  0.9255 -1.1270  0.4017
  775MOL0     H 2252   3.624   1.023   6.852 -1.7445  0.3902  3.3962
  775MOL0     H 2253   3.402   1.287   6.678  0.8987  0.2300  0.3800
  775MOL0     H 2254   3.229   1.437   6.745 -1.6825  1.7344  0.8329
  775MOL0     H 2255   3.249   1.498   6.902  2.4653 -1.2139  0.4533
  775MOL0     H 2256   3.064   1.385   6.995  0.3957  0.6422  0.3347
  775MOL0     H 2257   3.056   1.260   6.873  1.1706 -0.2768 -0.3038
  775MOL0     H 2258   3.015   1.538   6.795  2.3097 -0.0271  0.2419
  775MOL0     H 2259   2.960   1.380   6.720 -0.6013 -3.8684  1.6591
  775MOL0     H 2260   2.768   1.493   6.799  0.6425 -2.2414 -0.1998
  775MOL0     H 2261   2.841   1.526   6.948 -0.2505  0.0898 -0.4929
  775MOL0     H 2262   2.636   1.555   6.969  0.9202 -0.7893  0.0013
  775MOL0     H 2263   2.392   1.585   7.052  1.1500  1.9475 -0.9107
  775MOL0     H 2264   2.050   1.087   7.242  0.7313 -1.3077 -1.8300
  775MOL0     H 2265   1.793   1.066   7.283 -0.5482  0.5916  0.5189
  775MOL0     H 2266   1.552   1.396   7.098 -2.2681  0.0402  0.6596
  775MOL0     H 2267   1.546   1.339   7.263 -0.0158 -1.2200  0.2339
  775MOL0     H 2268   1.367   1.183   7.210  1.7700  0.0587 -0.4282
  775MOL0     H 2269   1.358   1.269   7.047  2.2453  2.3124 -0.7176
  775MOL0     H 2270   1.300   1.475   7.154 -0.1712  1.7159  1.9692
  775MOL0     H 2271   1.340   1.408   7.311  0.2227 -1.9009 -0.0509
  775MOL0     H 2272   1.114   1.325   7.111  1.2629  3.1086 -1.6018
  775MOL0     H 2273   1.133   1.245   7.270  1.1095  1.2565  1.3281
  775MOL0     H 2274   1.039   1.416   7.373 -1.0298 -0.6067 -0.2092
  775MOL0     H 2275   0.945   1.422   7.219  1.2071  1.9882 -2.0995
  775MOL0     H 2276   1.075   1.612   7.136 -1.4589  1.6090  0.6806
  775MOL0     H 2277   1.177   1.599   7.287  0.0477 -1.2543 -0.2109
  775MOL0     H 2278   1.009   1.686   7.429  0.9642 -0.8682 -0.5642
  775MOL0     H 2279   1.024   1.787   7.287 -1.2939 -0.1246 -0.4099
  775MOL0     H 2280   0.812   1.563   7.334  0.8502 -1.1305 -1.7174
  775MOL0     H 2281   0.821   1.681   7.192 -1.1094  6.4109  0.1829
  775MOL0     H 2282   1.723   1.371   6.993  0.0818  1.5952  3.1616
  775MOL0     H 2283   1.964   1.398   6.960 -2.3079  1.3495  1.1629
  775MOL0     H 2284   2.389   1.148   7.071  3.1042 -1.6972  0.4852
  775MOL0     H 2285   2.613   1.143   6.979 -1.5662 -0.1634 -0.8392
  775MOL0     H 2286   4.222   0.690   6.520 -0.7013  0.9382 -0.7576
  775MOL0     H 2287   4.438   0.785   6.372  0.1956 -1.0554 -0.3510
  775MOL0     H 2288   4.950   1.023   6.643 -0.5970  0.9005 -0.2772
  775MOL0     H 2289   5.183   1.033   6.541 -1.7271 -0.0034  2.4441
  775MOL0     H 2290   5.182   1.160   6.188 -0.7914 -2.2735  0.4217
  775MOL0     H 2291   5.317   1.073   6.128 -0.1417 -2.3195  0.5892
  775MOL0     H 2292   5.322   1.311   6.269  2.7188  0.6678 -1.3113
  775MOL0     H 2293   5.326   1.191   6.404  1.4551 -0.6108 -0.1690
  775MOL0     H 2294   5.531   1.085   6.270 -1.3678 -0.7631  0.3209
  775MOL0     H 2295   5.565   1.236   6.359 -1.9454 -1.4426  2.3711
  775MOL0     H 2296   5.504   1.368   6.137  0.6673  0.6701 -0.6907
  775MOL0     H 2297   5.661   1.305   6.171 -0.1241  2.2570  2.6944
  775MOL0     H 2298   5.577   1.032   5.872  0.5931 -0.2079  1.4097
  775MOL0     H 2299   5.019   0.928   6.179  2.4224  4.6914 -0.7030
  775MOL0     H 2300   4.803   0.864   6.288 -0.1070  1.3264 -1.3001
  776MOL0     O 2301   3.510   4.503  11.222 -0.5262 -0.3397 -0.5039
  776MOL0     C 2302   3.511   4.594  11.310 -0.2494 -0.2840  0.0392
  776MOL0     O 2303   3.623   4.642  11.375  0.5623  0.0354  0.4170
  776MOL0     C 2304   3.749   4.583  11.352  1.1305  0.0723  0.3997
  776MOL0     C 2305   3.844   4.634  11.435  0.2551  0.7608 -0.7072
  776MOL0     C 2306   3.976   4.586  11.446  0.2412 -0.5881 -0.4056
  776MOL0     C 2307   4.017   4.495  11.358  0.1965 -0.1005  0.7605
  776MOL0     O 2308   4.150   4.469  11.349  0.1713 -0.3543  0.1428
  776MOL0     C 2309   4.222   4.546  11.253 -0.1361 -1.1039 -0.8064
  776MOL0     C 2310   4.371   4.530  11.277 -0.1027  0.0604  0.4254
  776MOL0     C 2311   4.431   4.387  11.255  0.6015 -0.1999 -0.1351
  776MOL0     C 2312   4.438   4.356  11.106  0.3183  0.2141 -1.4421
  776MOL0     C 2313   4.514   4.223  11.093 -0.4533 -0.1032  0.2060
  776MOL0     C 2314   4.497   4.173  10.959 -0.4055  0.5850  0.0957
  776MOL0     C 2315   4.543   4.025  10.939 -0.3447  1.0809  0.9015
  776MOL0     C 2316   4.680   3.998  11.005 -0.2804  0.5083  0.2929
  776MOL0     N 2317   4.715   3.852  10.987  0.9337 -0.2710 -0.3463
  776MOL0     C 2318   4.754   3.761  11.083 -0.4580 -0.1480  0.1155
  776MOL0     C 2319   4.783   3.645  11.022 -0.3958 -0.3067  0.3255
  776MOL0     C 2320   4.837   3.524  11.082  0.9464 -0.5666  0.4065
  776MOL0     C 2321   4.958   3.465  11.009  0.1057 -1.0853  0.1164
  776MOL0     C 2322   5.081   3.559  10.990  0.3416  0.2175 -0.5651
  776MOL0     C 2323   5.128   3.630  11.110  0.3978 -0.4722 -0.4298
  776MOL0     O 2324   5.225   3.728  11.062 -0.0894 -0.4507 -0.3387
  776MOL0     C 2325   5.181   3.842  10.996 -0.3904 -0.1180  0.0648
  776MOL0     C 2326   5.252   3.884  10.886  0.0923 -0.3098 -0.7484
  776MOL0     C 2327   5.217   4.000  10.820 -0.1193 -1.1409  0.6198
  776MOL0     C 2328   5.105   4.075  10.862 -0.4203  0.0556 -0.4907
  776MOL0     C 2329   5.066   4.198  10.798  0.1124 -0.4199  0.2037
  776MOL0     O 2330   4.950   4.265  10.839  0.1054  0.6209 -0.2150
  776MOL0     C 2331   4.887   4.357  10.759  1.0318 -0.0404 -0.6209
  776MOL0     C 2332   4.911   4.496  10.778 -1.1760 -0.9576 -0.9423
  776MOL0     C 2333   4.836   4.590  10.707 -0.9308 -0.0159  0.9180
  776MOL0     C 2334   4.746   4.550  10.615 -0.2092  1.4464 -0.6904
  776MOL0     O 2335   4.645   4.630  10.559 -0.2711  0.2028 -0.0621
  776MOL0     C 2336   4.668   4.768  10.530 -0.2198 -0.1513 -0.4539
  776MOL0     C 2337   4.544   4.811  10.447 -0.3602  0.4299 -0.1005
  776MOL0     C 2338   4.546   4.958  10.405 -0.0928 -0.0259 -0.1671
  776MOL0     C 2339   4.432   4.985  10.309  1.1362  0.1425 -0.1669
  776MOL0     C 2340   4.402   5.122  10.273 -0.2462  0.8712  0.4852
  776MOL0     C 2341   4.493   5.183  10.170 -0.5324  0.1600 -0.2571
  776MOL0     C 2342   4.482   5.337  10.159 -0.8279  0.2622 -1.2045
  776MOL0     C 2343   4.595   5.398  10.067  1.2265 -1.5983  0.4193
  776MOL0    Cl 2344   4.755   5.374  10.131 -0.0457  0.0259  0.2586
  776MOL0     C 2345   4.729   4.414  10.582 -0.6880  0.2653  1.0585
  776MOL0     C 2346   4.791   4.314  10.664 -0.2205 -0.4305  0.8230
  776MOL0     O 2347   5.126   4.226  10.695 -0.1595  0.1344 -0.1214
  776MOL0     C 2348   5.036   4.039  10.975  0.4494 -0.2344 -1.0364
  776MOL0     C 2349   5.076   3.921  11.040 -0.6774  0.5373 -0.0557
  776MOL0     N 2350   4.761   3.661  10.888 -0.6741  0.6401  0.0182
  776MOL0     N 2351   4.724   3.784  10.866 -0.5899  0.2817 -0.1935
  776MOL0     C 2352   3.926   4.441  11.265  0.7206  0.0056  0.5596
  776MOL0     C 2353   3.789   4.475  11.258 -0.1458  0.5384 -0.1213
  776MOL0     C 2354   3.384   4.666  11.350  0.0902 -0.5891 -0.5457
  776MOL0     C 2355   3.256   4.628  11.311 -0.1465 -0.1856 -0.5501
  776MOL0     C 2356   3.148   4.680  11.374  0.3171 -0.9878 -0.5528
  776MOL0     C 2357   3.158   4.781  11.469 -0.1049 -0.8769  0.2560
  776MOL0     O 2358   3.042   4.832  11.522 -0.0229  0.2612  0.3309
  776MOL0     C 2359   2.998   4.954  11.465 -0.4170 -0.2168  0.5557
  776MOL0     C 2360   2.924   4.939  11.333 -0.2993  0.0175 -0.3661
  776MOL0     C 2361   2.789   4.871  11.340 -0.8755  0.7202 -0.1358
  776MOL0     C 2362   2.704   4.899  11.467  0.5971 -0.6788 -0.5354
  776MOL0     C 2363   2.594   4.809  11.437  0.5916  0.4901 -1.1040
  776MOL0     C 2364   2.496   4.739  11.404 -0.0749  0.5549 -1.1067
  776MOL0     C 2365   3.284   4.833  11.502  0.4274 -0.2407  0.1229
  776MOL0     C 2366   3.393   4.769  11.439  0.1034 -0.3441  0.3852
  776MOL0     H 2367   3.827   4.721  11.498 -0.1664 -1.6479  2.8436
  776MOL0     H 2368   4.054   4.638  11.500  0.4511  0.4248 -1.6532
  776MOL0     H 2369   4.194   4.652  11.248  1.2224 -0.4535  2.7497
  776MOL0     H 2370   4.203   4.503  11.154  0.8909 -1.6154 -0.7971
  776MOL0     H 2371   4.393   4.551  11.382 -0.2143  2.2677  0.0544
  776MOL0     H 2372   4.421   4.601  11.210 -0.9815  1.3768  1.1087
  776MOL0     H 2373   4.374   4.310  11.306 -0.0936  0.5888  0.3005
  776MOL0     H 2374   4.535   4.389  11.289  1.0243 -0.8562 -1.3327
  776MOL0     H 2375   4.334   4.354  11.071  0.1649 -3.3492 -1.1995
  776MOL0     H 2376   4.485   4.437  11.050  2.0814  1.8720  2.1296
  776MOL0     H 2377   4.482   4.151  11.168  2.2799 -1.8745 -0.1900
  776MOL0     H 2378   4.622   4.239  11.106  0.2628 -0.6499 -3.7898
  776MOL0     H 2379   4.548   4.225  10.877 -0.7812  1.5022  0.4284
  776MOL0     H 2380   4.388   4.178  10.948 -0.4950  0.5887  0.9586
  776MOL0     H 2381   4.471   3.959  10.988  0.3192  1.9536  3.1666
  776MOL0     H 2382   4.552   4.002  10.832 -1.4161  0.5671  0.9057
  776MOL0     H 2383   4.666   4.019  11.112  0.7095  2.9696  0.0034
  776MOL0     H 2384   4.741   4.064  10.942 -0.8688 -1.7519 -2.8647
  776MOL0     H 2385   4.767   3.773  11.190  0.5913 -1.2184  0.1251
  776MOL0     H 2386   4.749   3.459  11.079  1.6301 -1.4774 -1.7253
  776MOL0     H 2387   4.855   3.549  11.187  0.3784  3.7416 -0.3184
  776MOL0     H 2388   4.922   3.437  10.911 -1.8771 -0.6646  0.6873
  776MOL0     H 2389   4.986   3.375  11.064  1.5320 -0.2852  0.7603
  776MOL0     H 2390   5.167   3.497  10.964  2.7924  2.5723  1.2619
  776MOL0     H 2391   5.060   3.629  10.908 -1.4081 -0.7950 -1.0419
  776MOL0     H 2392   5.185   3.562  11.173  1.3679  0.7397  0.0424
  776MOL0     H 2393   5.044   3.682  11.157  0.4025  2.5847 -3.4057
  776MOL0     H 2394   5.326   3.811  10.854 -0.3872 -1.6897  1.0766
  776MOL0     H 2395   5.285   4.033  10.742 -0.8045 -2.3084 -0.5052
  776MOL0     H 2396   4.989   4.518  10.850 -1.7923 -1.1850 -0.1837
  776MOL0     H 2397   4.844   4.697  10.727 -0.8902  0.2595 -0.4484
  776MOL0     H 2398   4.758   4.777  10.470  0.4399 -2.6162  0.0600
  776MOL0     H 2399   4.669   4.838  10.614 -1.0722  1.8837 -2.0453
  776MOL0     H 2400   4.467   4.788  10.521  2.7629 -0.4414  3.1468
  776MOL0     H 2401   4.522   4.745  10.362 -1.1739  0.8309 -0.2174
  776MOL0     H 2402   4.646   4.989  10.374  0.3788 -0.6230  0.6945
  776MOL0     H 2403   4.519   5.014  10.495 -2.1936 -1.8646  0.4668
  776MOL0     H 2404   4.440   4.922  10.220 -3.4603 -3.1922  1.3855
  776MOL0     H 2405   4.337   4.950  10.352  0.0921  2.0769 -0.7954
  776MOL0     H 2406   4.405   5.181  10.365 -1.2749  1.0170  0.4404
  776MOL0     H 2407   4.300   5.133  10.236 -0.1020  3.5074  0.6421
  776MOL0     H 2408   4.466   5.137  10.074 -0.0595 -2.4168  0.7653
  776MOL0     H 2409   4.595   5.147  10.188 -0.6849  1.2807  3.6805
  776MOL0     H 2410   4.387   5.344  10.106 -0.6880 -1.1351 -1.6727
  776MOL0     H 2411   4.476   5.392  10.253  2.4912  2.3625 -2.0413
  776MOL0     H 2412   4.562   5.500  10.047 -3.1931 -2.9366 -0.1001
  776MOL0     H 2413   4.592   5.346   9.970  1.1465  1.7554 -1.5328
  776MOL0     H 2414   4.665   4.384  10.500  1.0044  1.0548 -0.6244
  776MOL0     H 2415   4.783   4.210  10.633 -2.1343  0.3534 -1.6876
  776MOL0     H 2416   4.954   4.101  11.012 -2.0143 -3.5829 -0.4548
  776MOL0     H 2417   5.020   3.885  11.126  0.0644  0.7023  0.5080
  776MOL0     H 2418   3.956   4.368  11.192  1.5750  0.8210  0.0661
  776MOL0     H 2419   3.734   4.437  11.173  2.2087 -1.1820 -0.9940
  776MOL0     H 2420   3.241   4.558  11.230 -2.6837  1.1568 -1.3684
  776MOL0     H 2421   3.047   4.649  11.350 -0.4331  1.6403 -1.1151
  776MOL0     H 2422   3.084   5.013  11.432 -1.4369 -0.3725 -2.7073
  776MOL0     H 2423   2.946   5.013  11.542 -3.0883 -0.6583 -0.8026
  776MOL0     H 2424   2.902   5.039  11.295  0.5562 -0.4012 -2.0400
  776MOL0     H 2425   2.984   4.887  11.259  0.2257 -0.4545  0.3853
  776MOL0     H 2426   2.805   4.763  11.326 -0.7546  0.4601  1.7367
  776MOL0     H 2427   2.740   4.905  11.248 -1.1977  0.4029 -0.0859
  776MOL0     H 2428   2.760   4.881  11.559  2.9899 -2.1089 -2.1634
  776MOL0     H 2429   2.675   5.004  11.467  0.4403 -0.6556  2.2394
  776MOL0     H 2430   2.415   4.671  11.387  0.8423 -1.2011  1.0329
  776MOL0     H 2431   3.301   4.916  11.570 -1.9681  0.6401 -0.2636
  776MOL0     H 2432   3.491   4.792  11.480  0.0563 -0.7444  0.7343
  777MOL0     O 2433   7.388   4.311   9.486  0.7543 -0.1455  0.8434
  777MOL0     C 2434   7.412   4.306   9.359 -0.3109  0.6728 -0.6565
  777MOL0     O 2435   7.336   4.381   9.260  0.0444  0.0596  0.0766
  777MOL0     C 2436   7.228   4.459   9.294  0.1550  0.8763 -0.0946
  777MOL0     C 2437   7.216   4.574   9.221  0.8875 -0.0680 -0.1582
  777MOL0     C 2438   7.100   4.652   9.233  0.3846  0.3494 -0.1883
  777MOL0     C 2439   6.999   4.610   9.317  0.4324 -1.0130  0.2800
  777MOL0     O 2440   6.876   4.677   9.325 -0.3967  0.1411  0.6081
  777MOL0     C 2441   6.852   4.819   9.350 -0.2469  0.3232  0.7242
  777MOL0     C 2442   6.882   4.866   9.498  0.3820  0.4917 -0.4668
  777MOL0     C 2443   6.763   4.961   9.547 -0.0841  0.3750  0.1939
  777MOL0     C 2444   6.787   4.995   9.689  1.2698 -0.1816 -0.1818
  777MOL0     C 2445   6.679   5.090   9.734 -0.1680 -0.9521 -0.5015
  777MOL0     C 2446   6.537   5.041   9.745  0.7844  0.3437  0.2821
  777MOL0     C 2447   6.446   5.125   9.829 -0.5471 -0.3500 -0.1886
  777MOL0     C 2448   6.289   5.091   9.808 -0.0831 -0.2074 -0.4257
  777MOL0     N 2449   6.250   4.954   9.847 -0.2589 -0.0091  0.1276
  777MOL0     C 2450   6.300   4.881   9.954  0.1885  0.1286  0.8808
  777MOL0     C 2451   6.239   4.759   9.950 -0.0787  0.2252 -0.0858
  777MOL0     C 2452   6.267   4.641  10.043  0.1123  0.5617 -0.2425
  777MOL0     C 2453   6.411   4.576  10.035 -0.2284 -0.3545  0.2683
  777MOL0     C 2454   6.429   4.477  10.141  0.1344  0.6223 -0.7702
  777MOL0     C 2455   6.570   4.422  10.154  0.1826 -0.0075  0.3513
  777MOL0     O 2456   6.573   4.318  10.262  0.1691 -0.0622 -0.8643
  777MOL0     C 2457   6.701   4.287  10.306 -0.1508 -0.0202  0.2588
  777MOL0     C 2458   6.811   4.309  10.237 -1.0570  0.1556 -0.8853
  777MOL0     C 2459   6.940   4.276  10.284  0.3459  0.3259 -1.8063
  777MOL0     C 2460   6.950   4.223  10.413  0.6840  0.6224  0.2678
  777MOL0     C 2461   7.077   4.186  10.469 -0.2804 -0.6996  0.0758
  777MOL0     O 2462   7.088   4.168  10.606 -0.5809  0.9891 -0.4509
  777MOL0     C 2463   7.220   4.151  10.655  0.1733  0.4677  0.8359
  777MOL0     C 2464   7.262   4.232  10.761 -0.0974 -1.0022  0.0724
  777MOL0     C 2465   7.383   4.209  10.824 -0.2055  0.2978 -0.5367
  777MOL0     C 2466   7.475   4.113  10.782  0.1004 -0.4198 -0.6835
  777MOL0     O 2467   7.593   4.101  10.857  1.0314 -0.5678  0.1631
  777MOL0     C 2468   7.664   3.982  10.847  0.1856 -0.1292 -0.4781
  777MOL0     C 2469   7.759   3.984  10.966  0.8886  0.4464 -0.0885
  777MOL0     C 2470   7.820   3.850  10.980 -1.5476  0.7665  0.4843
  777MOL0     C 2471   7.876   3.824  11.126  0.4535 -0.0058 -0.4468
  777MOL0     C 2472   7.953   3.691  11.137 -0.3174 -0.0119 -1.3494
  777MOL0     C 2473   8.095   3.710  11.072  1.1574  1.0066  0.3109
  777MOL0     C 2474   8.206   3.708  11.181  0.6720 -0.7625  0.0468
  777MOL0     C 2475   8.243   3.860  11.227  0.3864  1.4349  0.9123
  777MOL0    Cl 2476   8.324   3.941  11.094  0.0443 -0.2596  0.1736
  777MOL0     C 2477   7.434   4.035  10.677  1.2653  1.6501 -0.2217
  777MOL0     C 2478   7.307   4.046  10.621  0.3990 -0.6386 -0.1098
  777MOL0     O 2479   7.167   4.161  10.386  0.6804 -0.0517 -0.5757
  777MOL0     C 2480   6.834   4.188  10.488  0.6560  0.1347  0.6118
  777MOL0     C 2481   6.711   4.218  10.435 -0.3312 -0.1900 -0.1239
  777MOL0     N 2482   6.162   4.766   9.828 -0.0089  0.4575  0.5356
  777MOL0     N 2483   6.161   4.882   9.777 -0.4404 -0.0474  0.0964
  777MOL0     C 2484   7.004   4.496   9.383 -0.6880  0.1147 -0.5859
  777MOL0     C 2485   7.125   4.418   9.385  0.5435  0.2908 -0.6862
  777MOL0     C 2486   7.518   4.218   9.299  0.4615 -0.2504 -0.7169
  777MOL0     C 2487   7.537   4.213   9.160 -0.4280 -0.0282 -0.0298
  777MOL0     C 2488   7.649   4.143   9.115 -0.3919 -0.4091 -0.3221
  777MOL0     C 2489   7.726   4.061   9.201 -0.0559 -0.3372  0.2972
  777MOL0     O 2490   7.834   3.987   9.139 -0.3924  0.1561 -0.4389
  777MOL0     C 2491   7.790   3.871   9.065 -0.1901 -0.7435  0.2269
  777MOL0     C 2492   7.781   3.750   9.168 -0.4310 -0.3018 -0.6561
  777MOL0     C 2493   7.916   3.739   9.244  0.0663 -0.3189  0.0202
  777MOL0     C 2494   8.043   3.722   9.157  0.2214 -0.4789 -1.3442
  777MOL0     C 2495   8.060   3.598   9.080  0.0786 -0.4342 -0.0403
  777MOL0     C 2496   8.071   3.494   9.014  0.5763 -0.1113  0.2321
  777MOL0     C 2497   7.694   4.060   9.341 -0.3661 -0.2974  0.0093
  777MOL0     C 2498   7.593   4.143   9.391  0.0197 -0.0091 -0.0209
  777MOL0     H 2499   7.293   4.604   9.150 -0.2778  0.0125 -1.4336
  777MOL0     H 2500   7.087   4.745   9.179  0.9744  0.1469 -0.6920
  777MOL0     H 2501   6.755   4.837   9.303  1.5460 -0.5332 -3.8631
  777MOL0     H 2502   6.926   4.877   9.294 -0.1607  1.2121  1.7490
  777MOL0     H 2503   6.984   4.905   9.506  0.2058  0.7493  0.9103
  777MOL0     H 2504   6.869   4.778   9.563  0.3103  3.2486  3.6314
  777MOL0     H 2505   6.668   4.909   9.535  0.2379 -0.2024  0.1161
  777MOL0     H 2506   6.758   5.051   9.486 -1.0535  0.7553  0.8190
  777MOL0     H 2507   6.799   4.901   9.744  2.6387  0.4595  0.6758
  777MOL0     H 2508   6.884   5.043   9.706  1.1629 -0.4547  1.3677
  777MOL0     H 2509   6.679   5.173   9.663 -0.5084  0.2910  0.9029
  777MOL0     H 2510   6.709   5.118   9.835 -3.4523  3.3761 -0.4594
  777MOL0     H 2511   6.527   4.940   9.788  1.6872  0.9779  2.0817
  777MOL0     H 2512   6.496   5.044   9.644 -2.4456  1.8862  1.5198
  777MOL0     H 2513   6.475   5.107   9.933 -0.0567  1.3770  0.0079
  777MOL0     H 2514   6.465   5.229   9.802 -2.0354 -0.7444 -3.1334
  777MOL0     H 2515   6.261   5.110   9.704 -2.6815  2.0569  0.5823
  777MOL0     H 2516   6.240   5.156   9.881  0.8320  1.0825 -0.9098
  777MOL0     H 2517   6.372   4.932  10.017  0.7680  2.8966 -1.7970
  777MOL0     H 2518   6.195   4.560  10.030 -1.6828  1.6929  1.9610
  777MOL0     H 2519   6.252   4.661  10.150 -1.2902  1.6836 -0.6288
  777MOL0     H 2520   6.496   4.643  10.051 -1.1871  0.9636 -0.0182
  777MOL0     H 2521   6.425   4.529   9.937  1.0907  0.2780  0.1270
  777MOL0     H 2522   6.410   4.517  10.241 -0.2398 -1.0550 -0.1273
  777MOL0     H 2523   6.361   4.392  10.126 -1.5225  1.2641  2.1572
  777MOL0     H 2524   6.647   4.499  10.157  1.0515 -0.7244 -1.7780
  777MOL0     H 2525   6.593   4.377  10.057  0.5536  2.0165 -0.5360
  777MOL0     H 2526   6.812   4.363  10.144  0.7275  1.1873 -0.3245
  777MOL0     H 2527   7.029   4.291  10.224  3.2968  0.7790  2.2745
  777MOL0     H 2528   7.199   4.314  10.791 -2.1969 -2.5944  0.2827
  777MOL0     H 2529   7.389   4.254  10.923 -1.6368  1.3417 -0.8796
  777MOL0     H 2530   7.725   3.976  10.756 -0.2061  0.2840 -0.7706
  777MOL0     H 2531   7.603   3.892  10.850  1.9936 -1.4160  2.2574
  777MOL0     H 2532   7.693   3.997  11.052  1.8897  0.2701  0.7378
  777MOL0     H 2533   7.837   4.062  10.962  0.8269  0.6906  2.0534
  777MOL0     H 2534   7.907   3.854  10.914 -0.2445  1.6743  2.1704
  777MOL0     H 2535   7.764   3.762  10.948  2.9289 -1.5023 -2.0555
  777MOL0     H 2536   7.927   3.914  11.160 -4.9365  3.7408 -0.8832
  777MOL0     H 2537   7.794   3.825  11.199  2.2101 -0.7940  1.6573
  777MOL0     H 2538   7.907   3.601  11.094  1.7925 -1.3575 -0.9353
  777MOL0     H 2539   7.973   3.664  11.242  1.7905 -1.4127 -2.0360
  777MOL0     H 2540   8.091   3.807  11.023  1.0905  0.2390 -1.2596
  777MOL0     H 2541   8.105   3.627  11.001 -2.8682  0.0066  0.6498
  777MOL0     H 2542   8.170   3.651  11.266 -0.3766 -0.0137  0.1207
  777MOL0     H 2543   8.296   3.649  11.161  0.9390 -0.9978  1.8499
  777MOL0     H 2544   8.303   3.864  11.318 -0.7863  1.7648  1.7033
  777MOL0     H 2545   8.155   3.917  11.258 -1.1407 -1.0723  1.5291
  777MOL0     H 2546   7.509   3.971  10.633 -2.4026 -0.2373 -4.4835
  777MOL0     H 2547   7.281   3.974  10.544 -3.2106 -0.6434  0.9395
  777MOL0     H 2548   6.839   4.130  10.580 -1.3222 -1.5279 -0.2656
  777MOL0     H 2549   6.618   4.177  10.473  0.0089 -0.3748  0.5120
  777MOL0     H 2550   6.920   4.458   9.441  1.5905 -3.1789  0.8508
  777MOL0     H 2551   7.134   4.327   9.442  0.0998  0.6214 -0.0802
  777MOL0     H 2552   7.477   4.274   9.092  1.7308  1.8587 -0.3852
  777MOL0     H 2553   7.661   4.164   9.009  1.3261 -1.1752 -0.3050
  777MOL0     H 2554   7.858   3.856   8.981 -0.3326  0.6624 -0.1687
  777MOL0     H 2555   7.687   3.879   9.027  0.7392  1.2020 -2.1165
  777MOL0     H 2556   7.699   3.756   9.240  0.9541 -3.4939  1.4372
  777MOL0     H 2557   7.756   3.661   9.110 -2.2694 -0.1277 -0.2102
  777MOL0     H 2558   7.917   3.651   9.308  0.2864 -1.2159 -1.1760
  777MOL0     H 2559   7.922   3.830   9.304  4.9592  1.3283 -2.3917
  777MOL0     H 2560   8.033   3.802   9.084  1.1651  1.5544  0.6180
  777MOL0     H 2561   8.124   3.744   9.229 -1.9026  1.5248  0.6184
  777MOL0     H 2562   8.084   3.405   8.956  3.9483  0.5377 -0.2248
  777MOL0     H 2563   7.757   4.004   9.409  2.4796 -4.2385 -5.0761
  777MOL0     H 2564   7.577   4.135   9.498  0.0342 -3.2051 -0.1771
  778MOL0     O 2565   5.255   2.593  10.067 -0.7415  0.3250  0.0774
  778MOL0     C 2566   5.236   2.585   9.946 -1.9922  0.0005 -0.4371
  778MOL0     O 2567   5.112   2.574   9.879 -0.1002 -0.4755  0.1220
  778MOL0     C 2568   4.996   2.608   9.937  0.2893  0.0642  0.3369
  778MOL0     C 2569   4.964   2.731   9.998 -0.5427  0.1057 -0.2852
  778MOL0     C 2570   4.829   2.747  10.049 -0.3462 -0.2766 -0.1702
  778MOL0     C 2571   4.735   2.646  10.050 -0.5817  0.4657 -0.7053
  778MOL0     O 2572   4.619   2.663  10.124 -0.3208 -0.5082  0.6668
  778MOL0     C 2573   4.549   2.549  10.179 -0.8439 -0.3096  0.2299
  778MOL0     C 2574   4.494   2.590  10.316 -0.4328 -0.0466 -0.0679
  778MOL0     C 2575   4.356   2.671  10.292 -1.1990  0.7514  0.2043
  778MOL0     C 2576   4.290   2.730  10.418 -0.5994  0.4233 -0.3875
  778MOL0     C 2577   4.149   2.799  10.389 -0.2396  0.3959 -0.1743
  778MOL0     C 2578   4.087   2.873  10.521 -1.3377 -0.1811  0.5350
  778MOL0     C 2579   4.125   2.802  10.653 -0.2115 -0.3507 -0.0682
  778MOL0     C 2580   4.028   2.836  10.775  0.5272 -0.9622  0.0015
  778MOL0     N 2581   3.918   2.749  10.790  0.0426  0.2906  0.2236
  778MOL0     C 2582   3.803   2.733  10.715 -0.1405 -0.4202 -0.6810
  778MOL0     C 2583   3.746   2.612  10.756 -0.1341 -0.3458  0.9197
  778MOL0     C 2584   3.621   2.542  10.707  0.0349 -1.2522  0.0978
  778MOL0     C 2585   3.532   2.490  10.824 -0.4326 -0.4274  0.0728
  778MOL0     C 2586   3.403   2.416  10.775 -0.1183 -0.8304  0.4416
  778MOL0     C 2587   3.345   2.310  10.869  0.5135  0.3462  0.8416
  778MOL0     O 2588   3.253   2.221  10.801 -0.0149  0.2543 -0.3744
  778MOL0     C 2589   3.136   2.194  10.859  0.5470 -0.9156  0.5663
  778MOL0     C 2590   3.054   2.301  10.895  0.2733  0.1341  0.0110
  778MOL0     C 2591   2.925   2.282  10.936 -0.2240 -0.1763  0.0670
  778MOL0     C 2592   2.878   2.160  10.956 -0.1081 -0.2563  0.7324
  778MOL0     C 2593   2.732   2.148  10.986 -0.2470  0.6364  0.1815
  778MOL0     O 2594   2.674   2.247  11.063  1.0140 -0.0501 -0.3836
  778MOL0     C 2595   2.537   2.245  11.068  0.0442 -0.1239  0.5748
  778MOL0     C 2596   2.458   2.168  11.153  0.6185 -0.4603 -0.0171
  778MOL0     C 2597   2.319   2.178  11.157 -0.1653 -0.9263 -0.6567
  778MOL0     C 2598   2.256   2.271  11.073 -0.8120  0.5907 -0.4739
  778MOL0     O 2599   2.117   2.276  11.091  0.2437 -0.0429 -0.6970
  778MOL0     C 2600   2.042   2.363  10.998  0.5954 -0.6882 -0.5809
  778MOL0     C 2601   1.898   2.380  11.050 -0.4587 -0.3222  0.6602
  778MOL0     C 2602   1.820   2.260  11.016 -0.2711  0.2150  0.4922
  778MOL0     C 2603   1.684   2.282  11.071  0.3634 -0.2953 -0.7045
  778MOL0     C 2604   1.664   2.244  11.215  0.4087 -0.2372 -0.0890
  778MOL0     C 2605   1.535   2.291  11.281 -0.4010  0.0109 -0.2718
  778MOL0     C 2606   1.524   2.225  11.421 -0.5237  0.0074  0.5413
  778MOL0     C 2607   1.418   2.276  11.509 -0.6753 -0.3026  0.4798
  778MOL0    Cl 2608   1.262   2.259  11.437 -0.3253 -0.0130  0.5144
  778MOL0     C 2609   2.340   2.347  10.992 -0.7186 -0.0372 -0.1746
  778MOL0     C 2610   2.479   2.337  10.982  0.4182  0.1582  0.2557
  778MOL0     O 2611   2.674   2.040  10.962  0.5533  1.0264 -0.9045
  778MOL0     C 2612   2.951   2.049  10.919 -0.0078  0.1852 -0.1348
  778MOL0     C 2613   3.092   2.064  10.872  0.2639 -0.3481 -0.4132
  778MOL0     N 2614   3.823   2.573  10.863 -0.0055  0.9182 -0.0696
  778MOL0     N 2615   3.916   2.657  10.886 -0.3304 -0.0258 -1.0717
  778MOL0     C 2616   4.763   2.532   9.977  0.1946  0.7672 -0.2653
  778MOL0     C 2617   4.893   2.511   9.927 -0.2715 -0.3337 -0.4953
  778MOL0     C 2618   5.354   2.567   9.867  0.2373 -0.1008 -0.1442
  778MOL0     C 2619   5.356   2.568   9.721 -0.1334 -0.2159 -0.6498
  778MOL0     C 2620   5.481   2.567   9.649 -0.0734 -0.0720 -0.7203
  778MOL0     C 2621   5.603   2.550   9.711  0.0509  0.6130  0.7891
  778MOL0     O 2622   5.713   2.550   9.639  0.4607 -0.3118 -0.1728
  778MOL0     C 2623   5.718   2.455   9.533  0.5169  0.2693 -0.1264
  778MOL0     C 2624   5.867   2.426   9.508  0.3013 -0.8604  0.6392
  778MOL0     C 2625   5.920   2.551   9.445 -0.4542  0.8996 -0.4418
  778MOL0     C 2626   6.073   2.532   9.424  0.3013 -0.3046 -0.0777
  778MOL0     C 2627   6.128   2.621   9.318  0.9650 -0.5924  0.0045
  778MOL0     C 2628   6.172   2.699   9.229 -0.7899  0.2251 -0.4619
  778MOL0     C 2629   5.602   2.545   9.854 -0.6507  1.1777 -0.0061
  778MOL0     C 2630   5.484   2.558   9.933  0.2572 -0.0000 -0.4515
  778MOL0     H 2631   5.036   2.812  10.010 -2.8440  2.0081  1.6093
  778MOL0     H 2632   4.804   2.831  10.112  1.2341 -1.8459  2.7423
  778MOL0     H 2633   4.618   2.465  10.190 -1.5390 -0.8415  0.6935
  778MOL0     H 2634   4.470   2.512  10.113 -0.5877 -1.5208  0.5599
  778MOL0     H 2635   4.569   2.649  10.371  1.5210 -1.6955 -0.8242
  778MOL0     H 2636   4.477   2.498  10.372  1.7644  0.8229  2.2753
  778MOL0     H 2637   4.288   2.609  10.232  1.6543 -0.1202 -2.4291
  778MOL0     H 2638   4.389   2.754  10.228  0.8888 -1.1802 -1.3792
  778MOL0     H 2639   4.272   2.651  10.491 -1.1602  0.8550 -0.0511
  778MOL0     H 2640   4.357   2.805  10.461 -0.5931  0.4608 -0.4622
  778MOL0     H 2641   4.091   2.716  10.347 -0.5983  0.5624 -0.0042
  778MOL0     H 2642   4.151   2.873  10.308 -1.6667 -0.1043 -0.6951
  778MOL0     H 2643   3.977   2.878  10.521 -1.3142  3.0573  1.0065
  778MOL0     H 2644   4.132   2.973  10.532  2.6784 -1.4457 -2.3352
  778MOL0     H 2645   4.130   2.693  10.644 -0.0380 -0.3865  0.4637
  778MOL0     H 2646   4.224   2.837  10.682  0.1404 -2.3599  1.3994
  778MOL0     H 2647   3.995   2.940  10.765  2.1633 -0.3134  0.9591
  778MOL0     H 2648   4.089   2.832  10.866 -0.2250 -0.9647  0.5203
  778MOL0     H 2649   3.785   2.788  10.624 -1.6718 -0.8167 -0.6439
  778MOL0     H 2650   3.637   2.459  10.638 -2.0679 -2.1498  0.6084
  778MOL0     H 2651   3.561   2.621  10.659 -2.0021 -1.6933  1.7787
  778MOL0     H 2652   3.519   2.578  10.888 -0.2586 -0.4562  0.1496
  778MOL0     H 2653   3.589   2.421  10.887  0.4925  1.9877  2.0749
  778MOL0     H 2654   3.324   2.487  10.748 -1.4457 -0.8352  3.8902
  778MOL0     H 2655   3.430   2.363  10.684  0.0905 -1.4415  0.8590
  778MOL0     H 2656   3.306   2.361  10.957 -1.2855  0.0653  0.2470
  778MOL0     H 2657   3.424   2.237  10.891 -0.3103 -1.2509 -1.1777
  778MOL0     H 2658   3.095   2.399  10.874 -0.1545  0.3684  0.2615
  778MOL0     H 2659   2.863   2.371  10.942 -1.3607 -0.8856 -0.5723
  778MOL0     H 2660   2.512   2.097  11.215 -1.4233 -0.1166  2.2849
  778MOL0     H 2661   2.251   2.125  11.223  1.1970 -1.1677  0.6088
  778MOL0     H 2662   2.040   2.315  10.900 -0.6606 -2.8114  0.4178
  778MOL0     H 2663   2.093   2.459  11.005  0.1411 -0.5717  3.3222
  778MOL0     H 2664   1.841   2.458  10.998  0.5472  0.3161  0.4968
  778MOL0     H 2665   1.894   2.412  11.154  0.8687  0.3379  0.5302
  778MOL0     H 2666   1.874   2.172  11.049  1.3555  0.1365 -2.1383
  778MOL0     H 2667   1.809   2.256  10.907  0.7872  0.0440  0.3840
  778MOL0     H 2668   1.656   2.388  11.070 -0.0090 -0.3897 -0.5371
  778MOL0     H 2669   1.614   2.220  11.014  0.7266 -2.6968  1.2787
  778MOL0     H 2670   1.749   2.286  11.269 -0.2189  4.2938 -2.1254
  778MOL0     H 2671   1.677   2.136  11.229  0.9724  0.1425  3.1215
  778MOL0     H 2672   1.442   2.282  11.223 -1.2970 -3.4119  1.4482
  778MOL0     H 2673   1.544   2.395  11.315 -1.5869  0.9014 -2.4728
  778MOL0     H 2674   1.508   2.118  11.407 -0.0736 -0.0202  0.2446
  778MOL0     H 2675   1.622   2.240  11.466  0.4279  3.2964 -2.2002
  778MOL0     H 2676   1.448   2.379  11.531 -0.1134 -0.5979  1.1564
  778MOL0     H 2677   1.420   2.211  11.597  1.3711 -2.0406 -0.7402
  778MOL0     H 2678   2.288   2.405  10.917 -0.7656 -0.3521 -0.3905
  778MOL0     H 2679   2.537   2.406  10.922 -1.5170  1.4548 -0.2055
  778MOL0     H 2680   2.898   1.955  10.936 -1.1172  1.3196  3.3347
  778MOL0     H 2681   3.148   1.975  10.845 -1.2332 -2.2165  2.1555
  778MOL0     H 2682   4.689   2.453   9.985 -0.9551  1.9324  1.3234
  778MOL0     H 2683   4.916   2.411   9.892  2.7141  0.2796 -0.4977
  778MOL0     H 2684   5.268   2.572   9.658  0.5719  0.4243 -1.6163
  778MOL0     H 2685   5.475   2.590   9.543  1.5818  0.4080 -0.7315
  778MOL0     H 2686   5.662   2.483   9.444 -2.2476 -0.2746  1.3490
  778MOL0     H 2687   5.672   2.360   9.561 -0.7427  0.7533 -0.4811
  778MOL0     H 2688   5.915   2.415   9.606  0.2961 -1.7659  0.5503
  778MOL0     H 2689   5.882   2.331   9.456 -1.5419 -1.8151  1.7235
  778MOL0     H 2690   5.900   2.646   9.494  1.7344  1.2258 -0.0654
  778MOL0     H 2691   5.878   2.574   9.347 -0.1583  3.8535  0.0544
  778MOL0     H 2692   6.132   2.554   9.513  1.3526 -0.9796 -0.5824
  778MOL0     H 2693   6.088   2.428   9.393  0.4826  0.7386 -4.1162
  778MOL0     H 2694   6.212   2.767   9.157  3.1374 -1.1594  0.1881
  778MOL0     H 2695   5.695   2.537   9.909 -0.0708  0.0376 -1.0893
  778MOL0     H 2696   5.491   2.542  10.040  0.8373  1.4766 -0.2498
  779MOL0     O 2697   3.575   2.702   5.315 -0.4149  0.1309  0.5487
  779MOL0     C 2698   3.629   2.696   5.420 -0.3589 -1.4593  0.4685
  779MOL0     O 2699   3.586   2.752   5.537  0.4154  0.3006  0.0438
  779MOL0     C 2700   3.487   2.848   5.545 -0.0095  0.1487  0.7049
  779MOL0     C 2701   3.441   2.936   5.445  0.8218  0.1636  0.0672
  779MOL0     C 2702   3.317   3.010   5.463 -0.0779 -1.0849  0.4982
  779MOL0     C 2703   3.261   3.011   5.589  0.2816 -0.0854 -0.8634
  779MOL0     O 2704   3.138   3.064   5.613  0.5591 -0.4974  0.2784
  779MOL0     C 2705   3.138   3.201   5.608 -0.0950 -0.7210 -0.2800
  779MOL0     C 2706   3.025   3.263   5.692  0.2229 -0.5968 -0.9458
  779MOL0     C 2707   3.068   3.279   5.837 -0.1565  0.0860 -0.9040
  779MOL0     C 2708   2.968   3.360   5.915 -0.0252 -1.2943 -0.3468
  779MOL0     C 2709   3.056   3.453   6.000 -0.2020 -0.4880  0.0286
  779MOL0     C 2710   2.987   3.566   6.067  0.1106 -1.3577 -0.0423
  779MOL0     C 2711   3.076   3.635   6.179 -0.6377  0.1815  0.1171
  779MOL0     C 2712   2.976   3.732   6.250 -1.4380 -0.3509  0.5269
  779MOL0     N 2713   2.893   3.671   6.352  0.4221 -0.5870 -0.0586
  779MOL0     C 2714   2.940   3.637   6.474  0.0334  0.9571  0.3217
  779MOL0     C 2715   2.826   3.608   6.538  0.7745 -0.5634  0.7772
  779MOL0     C 2716   2.815   3.550   6.683 -0.3721 -0.1431 -0.6670
  779MOL0     C 2717   2.675   3.545   6.752 -0.9783  0.3049 -1.0872
  779MOL0     C 2718   2.625   3.687   6.780  0.2088  0.4227  0.1002
  779MOL0     C 2719   2.505   3.684   6.875 -0.0867  1.3644  0.1165
  779MOL0     O 2720   2.410   3.589   6.831  0.0583  0.3112 -0.4233
  779MOL0     C 2721   2.288   3.591   6.892  0.1451 -0.6957  0.1758
  779MOL0     C 2722   2.242   3.684   6.990  0.0637  0.7862  0.4614
  779MOL0     C 2723   2.120   3.672   7.054 -0.8631  0.2838 -0.1953
  779MOL0     C 2724   2.023   3.584   7.012  0.6249 -0.3706 -0.9096
  779MOL0     C 2725   1.885   3.583   7.077 -0.4696 -0.0498  0.6657
  779MOL0     O 2726   1.887   3.655   7.190 -0.6897 -0.1167  0.1565
  779MOL0     C 2727   1.799   3.639   7.291 -0.2172  1.1711  0.8706
  779MOL0     C 2728   1.707   3.535   7.305  0.5710 -1.0539 -0.2608
  779MOL0     C 2729   1.615   3.550   7.419  0.3451  0.5294  0.7947
  779MOL0     C 2730   1.610   3.657   7.509 -0.0285 -0.5283  0.0856
  779MOL0     O 2731   1.513   3.677   7.604  0.4439 -0.0590  0.3185
  779MOL0     C 2732   1.409   3.578   7.611 -0.3766  0.5733  0.0374
  779MOL0     C 2733   1.290   3.660   7.648  0.7922 -0.3410  0.2260
  779MOL0     C 2734   1.170   3.560   7.633 -0.1430  0.0114 -0.2018
  779MOL0     C 2735   1.050   3.621   7.693 -0.3108 -0.3127  0.1054
  779MOL0     C 2736   0.932   3.526   7.677 -0.3335  0.3061 -0.6539
  779MOL0     C 2737   0.794   3.563   7.745  0.2605 -0.5529 -0.2401
  779MOL0     C 2738   0.736   3.699   7.701  0.1726 -0.4300 -0.0126
  779MOL0     C 2739   0.645   3.686   7.580  0.4334 -0.0397 -0.7481
  779MOL0    Cl 2740   0.729   3.667   7.422  0.0709  0.3902 -0.2674
  779MOL0     C 2741   1.708   3.761   7.482  0.2973  0.9283 -0.3349
  779MOL0     C 2742   1.795   3.744   7.376 -1.0408 -0.3951 -0.1220
  779MOL0     O 2743   1.792   3.511   7.039 -0.6684  0.6050  0.1191
  779MOL0     C 2744   2.062   3.492   6.911 -0.2848  0.5649 -1.6850
  779MOL0     C 2745   2.192   3.498   6.858 -0.1748  0.4378 -0.1898
  779MOL0     N 2746   2.716   3.626   6.464 -0.0257 -0.7505  0.9137
  779MOL0     N 2747   2.756   3.670   6.354 -1.1136 -0.2566 -0.1744
  779MOL0     C 2748   3.303   2.929   5.689 -0.6211 -0.4708 -0.0182
  779MOL0     C 2749   3.415   2.847   5.663 -0.1359  0.2994  0.1383
  779MOL0     C 2750   3.753   2.614   5.420  0.6182  1.0738  0.5640
  779MOL0     C 2751   3.794   2.549   5.538  0.1389 -1.0361  0.6364
  779MOL0     C 2752   3.908   2.469   5.538  0.6792  0.0573 -0.4172
  779MOL0     C 2753   3.982   2.436   5.421  0.2693 -0.3320  0.1077
  779MOL0     O 2754   4.084   2.346   5.438 -0.2056  0.3809  0.0792
  779MOL0     C 2755   4.209   2.398   5.382 -0.1957 -0.3413  0.6789
  779MOL0     C 2756   4.329   2.313   5.415 -0.8368 -0.2704 -0.2763
  779MOL0     C 2757   4.337   2.171   5.362  0.3319  0.7908  0.6590
  779MOL0     C 2758   4.476   2.109   5.371  0.1193 -0.7290 -0.4386
  779MOL0     C 2759   4.468   1.975   5.313 -0.1884 -1.1050  0.5640
  779MOL0     C 2760   4.456   1.866   5.262 -0.2265  0.2216 -0.3235
  779MOL0     C 2761   3.944   2.510   5.297 -0.2964 -0.9866  0.1682
  779MOL0     C 2762   3.832   2.593   5.302 -0.1148  0.0708  0.3365
  779MOL0     H 2763   3.496   2.949   5.352  0.3946 -0.4788 -0.2803
  779MOL0     H 2764   3.277   3.084   5.395 -0.4350  0.5891  2.4327
  779MOL0     H 2765   3.118   3.240   5.507 -1.7759 -0.9668 -0.0664
  779MOL0     H 2766   3.233   3.248   5.634  0.1680 -0.9890 -0.7474
  779MOL0     H 2767   2.939   3.196   5.684  0.5702 -0.9323 -2.1672
  779MOL0     H 2768   2.999   3.358   5.644 -0.0928  0.0130  0.3831
  779MOL0     H 2769   3.166   3.327   5.830  0.2386 -0.7255 -1.0652
  779MOL0     H 2770   3.076   3.182   5.887 -1.3221  0.2781 -0.3025
  779MOL0     H 2771   2.903   3.417   5.849  2.4442  2.9117  0.4644
  779MOL0     H 2772   2.905   3.296   5.977  0.7068 -0.3090  1.4960
  779MOL0     H 2773   3.131   3.504   5.939  0.2832  0.2534  1.2141
  779MOL0     H 2774   3.110   3.402   6.080  0.6568 -1.0058 -0.8497
  779MOL0     H 2775   2.898   3.526   6.117  1.8406 -0.9643  3.6908
  779MOL0     H 2776   2.948   3.641   5.998 -1.9411  0.5227  2.9194
  779MOL0     H 2777   3.123   3.562   6.245 -0.6237  0.4204  0.3721
  779MOL0     H 2778   3.159   3.690   6.133  3.2831 -2.5185  3.2962
  779MOL0     H 2779   2.919   3.788   6.175 -0.7789  1.6971  1.4895
  779MOL0     H 2780   3.034   3.809   6.301 -2.9498  0.7173  0.6866
  779MOL0     H 2781   3.043   3.634   6.506  0.8548 -2.5210 -2.0458
  779MOL0     H 2782   2.886   3.604   6.746 -0.5370 -1.2659  0.5305
  779MOL0     H 2783   2.850   3.447   6.676  1.4529 -0.0519  3.6568
  779MOL0     H 2784   2.685   3.490   6.846 -0.8278  0.1015 -1.2209
  779MOL0     H 2785   2.607   3.489   6.687  0.0737 -2.3890 -0.0083
  779MOL0     H 2786   2.703   3.752   6.822 -1.5203  2.5906  0.1605
  779MOL0     H 2787   2.595   3.734   6.686  2.4143  0.8183 -0.4711
  779MOL0     H 2788   2.474   3.788   6.890  1.8137  2.1827 -1.2224
  779MOL0     H 2789   2.545   3.649   6.971 -0.4232  2.3986  0.6419
  779MOL0     H 2790   2.316   3.751   7.032  0.0411  1.4593 -0.5414
  779MOL0     H 2791   2.107   3.738   7.139 -2.3821  0.1407 -0.2801
  779MOL0     H 2792   1.705   3.444   7.246 -1.4942 -1.9348  1.0409
  779MOL0     H 2793   1.542   3.469   7.415 -1.2666  1.9712 -1.9450
  779MOL0     H 2794   1.418   3.494   7.681  1.0855 -1.3239 -2.2501
  779MOL0     H 2795   1.390   3.541   7.510  2.5138 -1.0322 -0.0415
  779MOL0     H 2796   1.279   3.744   7.579  1.8725  1.4679  2.1388
  779MOL0     H 2797   1.303   3.691   7.752 -0.9215 -0.5887  0.5542
  779MOL0     H 2798   1.194   3.464   7.681  2.5372  2.3060  3.5324
  779MOL0     H 2799   1.146   3.536   7.528  2.2486  1.7519 -1.2345
  779MOL0     H 2800   1.069   3.643   7.798 -0.5282 -2.0757  0.5410
  779MOL0     H 2801   1.034   3.714   7.638 -1.8756 -2.1357 -2.7841
  779MOL0     H 2802   0.964   3.433   7.726 -0.9630  0.6979  0.5449
  779MOL0     H 2803   0.917   3.500   7.572 -3.1290  0.3085 -0.3293
  779MOL0     H 2804   0.809   3.566   7.853 -1.4505 -2.5208  0.0978
  779MOL0     H 2805   0.719   3.488   7.719 -0.4229  0.5830 -1.7139
  779MOL0     H 2806   0.676   3.724   7.788  1.2705 -0.5665  0.8008
  779MOL0     H 2807   0.813   3.776   7.692 -1.2795  0.8847 -1.8164
  779MOL0     H 2808   0.587   3.778   7.567  0.4817 -0.0699 -1.1975
  779MOL0     H 2809   0.565   3.613   7.594  0.2208  0.6021  2.0540
  779MOL0     H 2810   1.722   3.848   7.545 -0.5443  2.4160 -2.1106
  779MOL0     H 2811   1.867   3.821   7.352  2.1399 -3.3602 -0.8371
  779MOL0     H 2812   1.989   3.418   6.880  1.2501 -1.1544 -1.3450
  779MOL0     H 2813   2.207   3.420   6.784  2.1487 -0.3254  0.9638
  779MOL0     H 2814   3.246   2.933   5.782 -2.5802  2.1524 -1.2042
  779MOL0     H 2815   3.448   2.791   5.751 -1.2935  2.3357  1.9560
  779MOL0     H 2816   3.746   2.564   5.634  0.8387  0.0936  0.8322
  779MOL0     H 2817   3.949   2.429   5.630  0.9602 -1.2103 -1.0748
  779MOL0     H 2818   4.219   2.502   5.416  1.2124 -1.1307  2.9434
  779MOL0     H 2819   4.211   2.415   5.274  1.2982  1.7576  0.9699
  779MOL0     H 2820   4.415   2.370   5.377  0.3650 -0.5371  1.8757
  779MOL0     H 2821   4.349   2.313   5.522  0.5962  0.5279 -0.5225
  779MOL0     H 2822   4.308   2.180   5.256 -1.4433 -2.2040  0.7727
  779MOL0     H 2823   4.272   2.113   5.427 -1.3447 -0.1755 -1.7058
  779MOL0     H 2824   4.539   2.169   5.305  0.3774  0.0362  0.4837
  779MOL0     H 2825   4.508   2.114   5.475  1.2796 -0.7672 -0.7782
  779MOL0     H 2826   4.437   1.767   5.227  2.8782  0.0725 -1.9703
  779MOL0     H 2827   4.008   2.509   5.210 -0.2081  0.9093  0.1776
  779MOL0     H 2828   3.804   2.626   5.203 -0.6858 -1.9228 -0.2052
  780MOL0     O 2829   8.267   6.226   6.026  0.2734  0.3901  0.2454
  780MOL0     C 2830   8.247   6.237   6.142 -0.3216  0.3639 -0.0061
  780MOL0     O 2831   8.130   6.215   6.209 -0.3089  0.1706 -0.5444
  780MOL0     C 2832   8.007   6.198   6.152 -0.4428  0.1537  0.1721
  780MOL0     C 2833   7.903   6.165   6.239 -0.4466  0.1411 -0.0183
  780MOL0     C 2834   7.775   6.149   6.186  0.6207 -0.2855  0.5019
  780MOL0     C 2835   7.745   6.162   6.043 -0.8038  0.0143  0.0426
  780MOL0     O 2836   7.623   6.158   5.980  0.2445  0.3029 -0.5973
  780MOL0     C 2837   7.512   6.132   6.069 -0.1282 -0.1779  0.0692
  780MOL0     C 2838   7.378   6.136   5.993  0.3720 -0.0542 -0.0424
  780MOL0     C 2839   7.265   6.096   6.084 -0.0806 -0.3125 -0.1827
  780MOL0     C 2840   7.141   6.064   6.007  0.0794 -0.6115  0.4488
  780MOL0     C 2841   7.021   6.046   6.095 -0.1077 -0.0598 -0.0413
  780MOL0     C 2842   6.894   6.002   6.028  0.0612  0.3256 -0.4719
  780MOL0     C 2843   6.771   6.021   6.121  0.1348 -0.6922 -0.5601
  780MOL0     C 2844   6.628   6.010   6.054 -0.1001 -0.7774 -0.1029
  780MOL0     N 2845   6.511   6.002   6.147 -0.1600  0.6380 -0.5658
  780MOL0     C 2846   6.509   5.909   6.248  0.3075  0.0853  0.2380
  780MOL0     C 2847   6.392   5.931   6.315 -0.5712  0.1040  0.2660
  780MOL0     C 2848   6.341   5.840   6.428 -0.6013  0.2034  0.4112
  780MOL0     C 2849   6.200   5.872   6.468  0.3022 -0.6375  0.2069
  780MOL0     C 2850   6.182   6.013   6.514 -0.0246 -0.0714  0.3092
  780MOL0     C 2851   6.076   6.009   6.630 -0.5693 -0.0780  0.4088
  780MOL0     O 2852   5.951   5.972   6.572 -0.3544  0.2757  0.1470
  780MOL0     C 2853   5.836   5.981   6.653 -0.2336  0.7532  0.5223
  780MOL0     C 2854   5.845   6.009   6.795 -0.3719  0.5754  0.4669
  780MOL0     C 2855   5.734   5.999   6.873  0.0202 -0.1750 -0.6121
  780MOL0     C 2856   5.608   5.944   6.826 -0.5448 -0.2949  0.7600
  780MOL0     C 2857   5.495   5.921   6.922  0.5873  0.4199 -1.0537
  780MOL0     O 2858   5.514   5.943   7.059 -0.4129 -0.0295  0.0272
  780MOL0     C 2859   5.403   5.927   7.137  0.5224 -0.1369  0.7111
  780MOL0     C 2860   5.363   5.798   7.176 -0.4015  0.0156  0.0620
  780MOL0     C 2861   5.237   5.782   7.246 -0.3986 -0.0331  0.3770
  780MOL0     C 2862   5.166   5.894   7.301 -0.8699  0.6285  0.4433
  780MOL0     O 2863   5.056   5.890   7.378  0.1117 -0.7914 -0.6682
  780MOL0     C 2864   4.991   5.767   7.392  0.4751  0.2843  0.7706
  780MOL0     C 2865   4.857   5.796   7.469  0.2724  0.2166 -0.0483
  780MOL0     C 2866   4.766   5.666   7.493  1.1339 -0.2619  0.3692
  780MOL0     C 2867   4.704   5.633   7.355 -0.6618 -0.0749  0.6236
  780MOL0     C 2868   4.581   5.544   7.351 -0.3193  0.0071 -0.1459
  780MOL0     C 2869   4.452   5.589   7.420  1.1189 -0.3438 -0.7510
  780MOL0     C 2870   4.341   5.487   7.397  0.6800  0.6820  0.7318
  780MOL0     C 2871   4.205   5.522   7.466 -0.2773  0.8145  0.5659
  780MOL0    Cl 2872   4.219   5.526   7.642 -0.6231 -0.0659 -0.1432
  780MOL0     C 2873   5.221   6.019   7.270 -0.1650 -0.8453 -0.3015
  780MOL0     C 2874   5.332   6.037   7.182  0.1591 -0.4008 -1.4100
  780MOL0     O 2875   5.381   5.895   6.877 -0.6746  0.4112  0.1437
  780MOL0     C 2876   5.604   5.937   6.682  0.6163  0.0326  0.4970
  780MOL0     C 2877   5.714   5.957   6.596  0.3718 -0.8683 -0.5517
  780MOL0     N 2878   6.340   6.039   6.253  0.4957 -0.7797 -0.5988
  780MOL0     N 2879   6.409   6.083   6.149  0.1152 -0.5745  0.1242
  780MOL0     C 2880   7.850   6.200   5.962 -0.6251 -0.2955  0.5910
  780MOL0     C 2881   7.980   6.218   6.012 -0.5690 -0.6179 -0.2331
  780MOL0     C 2882   8.370   6.271   6.223  0.5586 -0.2899 -0.5645
  780MOL0     C 2883   8.360   6.296   6.363  0.6938  0.6043  0.1485
  780MOL0     C 2884   8.464   6.342   6.439  0.3202  0.0099 -0.9428
  780MOL0     C 2885   8.584   6.384   6.377 -0.5201 -0.0076 -0.1694
  780MOL0     O 2886   8.685   6.425   6.464  0.2179  0.3994 -0.3657
  780MOL0     C 2887   8.772   6.528   6.427  0.4521  0.4048 -0.2366
  780MOL0     C 2888   8.712   6.650   6.360 -0.6210  0.0391 -0.3560
  780MOL0     C 2889   8.810   6.731   6.297 -0.6259 -0.8259  0.3475
  780MOL0     C 2890   8.755   6.827   6.181  0.0279 -0.9265 -0.1895
  780MOL0     C 2891   8.851   6.932   6.144 -0.6250 -0.0193 -0.3788
  780MOL0     C 2892   8.910   7.016   6.083 -0.0814 -0.2025  0.8288
  780MOL0     C 2893   8.603   6.355   6.238  0.9329 -0.5054 -0.4468
  780MOL0     C 2894   8.493   6.297   6.166  0.0255 -0.0922  0.4413
  780MOL0     H 2895   7.922   6.163   6.346  3.3142  2.6690 -0.4463
  780MOL0     H 2896   7.693   6.117   6.250  1.7680 -1.7620  1.3097
  780MOL0     H 2897   7.518   6.195   6.157  0.9398 -0.1846  0.0186
  780MOL0     H 2898   7.541   6.029   6.093  0.2801 -0.1053 -0.1022
  780MOL0     H 2899   7.392   6.068   5.908 -1.6122 -2.2525  1.2495
  780MOL0     H 2900   7.357   6.239   5.963  0.0644 -0.3636 -0.9333
  780MOL0     H 2901   7.249   6.169   6.164 -0.3951 -3.6449  3.0635
  780MOL0     H 2902   7.286   6.002   6.136 -0.0962  1.0245  2.3624
  780MOL0     H 2903   7.110   6.147   5.943  3.0248  2.5394  2.7385
  780MOL0     H 2904   7.157   5.969   5.956 -4.8483 -1.3137 -0.3239
  780MOL0     H 2905   7.000   6.143   6.140  1.4029  0.4684 -0.4178
  780MOL0     H 2906   7.053   5.972   6.170 -0.2929 -0.8225 -0.6967
  780MOL0     H 2907   6.910   5.896   6.007  0.8980  0.3012  0.2170
  780MOL0     H 2908   6.870   6.060   5.938 -2.6294  4.1396  2.3598
  780MOL0     H 2909   6.773   5.956   6.209  2.3098  0.2996  0.1882
  780MOL0     H 2910   6.776   6.120   6.167 -1.6080 -1.4414  1.4353
  780MOL0     H 2911   6.620   5.913   6.005  1.9590 -1.2149  0.3098
  780MOL0     H 2912   6.616   6.096   5.987  1.4092 -0.3660  0.1061
  780MOL0     H 2913   6.576   5.826   6.266 -0.7748 -0.7724  0.3715
  780MOL0     H 2914   6.402   5.860   6.516 -0.6560 -0.6456  0.6513
  780MOL0     H 2915   6.355   5.734   6.403  1.9054  1.2449 -3.3637
  780MOL0     H 2916   6.176   5.792   6.539 -2.8428  1.0517  1.2360
  780MOL0     H 2917   6.145   5.857   6.374 -0.7754 -1.2494  0.9058
  780MOL0     H 2918   6.276   6.058   6.548  1.7203 -0.8015 -3.0688
  780MOL0     H 2919   6.144   6.070   6.428 -1.3581 -0.2780  0.7358
  780MOL0     H 2920   6.060   6.112   6.663 -1.1449  0.2502 -0.8680
  780MOL0     H 2921   6.097   5.937   6.710 -0.0742  0.8979  1.1831
  780MOL0     H 2922   5.944   6.040   6.829  0.4986  2.9946 -3.5355
  780MOL0     H 2923   5.763   6.018   6.976  0.7808 -2.9504 -0.2365
  780MOL0     H 2924   5.418   5.711   7.139 -1.2686 -0.4431 -0.1682
  780MOL0     H 2925   5.206   5.688   7.290 -0.7800 -0.2743 -0.3812
  780MOL0     H 2926   5.051   5.690   7.440 -0.9204  0.0875  2.2893
  780MOL0     H 2927   4.960   5.738   7.291 -0.7084  1.5173  0.7428
  780MOL0     H 2928   4.795   5.855   7.400  0.8811  1.4346  0.4241
  780MOL0     H 2929   4.864   5.847   7.565 -2.7346 -0.7694  0.8299
  780MOL0     H 2930   4.677   5.684   7.554  0.8850  0.7679 -0.2853
  780MOL0     H 2931   4.817   5.577   7.531  2.1835  0.3062  0.3317
  780MOL0     H 2932   4.678   5.716   7.289  0.6723  0.7707  1.1195
  780MOL0     H 2933   4.786   5.583   7.302 -0.2990 -0.0437  1.1441
  780MOL0     H 2934   4.607   5.448   7.396  0.4470 -1.4993 -3.4928
  780MOL0     H 2935   4.551   5.515   7.249 -1.0159 -4.6612  1.1713
  780MOL0     H 2936   4.428   5.689   7.385 -1.6912 -1.7565 -3.2698
  780MOL0     H 2937   4.453   5.594   7.529 -1.0706  0.7407 -0.7310
  780MOL0     H 2938   4.317   5.494   7.290  0.5516  1.1405  0.7864
  780MOL0     H 2939   4.380   5.388   7.419  0.7709  0.6444  0.4049
  780MOL0     H 2940   4.132   5.449   7.431 -0.4506  1.8604 -1.4210
  780MOL0     H 2941   4.174   5.619   7.425  1.0211  1.1023  0.2007
  780MOL0     H 2942   5.175   6.110   7.307  1.5667  0.2047 -0.6135
  780MOL0     H 2943   5.372   6.136   7.159 -1.9564  0.0244 -3.6781
  780MOL0     H 2944   5.508   5.918   6.636  0.8768 -0.2555  0.0698
  780MOL0     H 2945   5.702   5.936   6.491  2.3563 -1.0253 -0.7824
  780MOL0     H 2946   7.830   6.227   5.859 -2.3956 -0.5353  0.8357
  780MOL0     H 2947   8.050   6.263   5.942 -0.3761  3.2691  2.1766
  780MOL0     H 2948   8.269   6.263   6.412  0.0146  1.5250 -0.4437
  780MOL0     H 2949   8.460   6.363   6.545  2.3920  0.4252 -0.9181
  780MOL0     H 2950   8.851   6.470   6.377  4.0490  0.5625  4.4749
  780MOL0     H 2951   8.828   6.569   6.512  0.0069  1.2630 -0.3528
  780MOL0     H 2952   8.639   6.635   6.279 -0.0010 -0.5816 -0.8162
  780MOL0     H 2953   8.671   6.716   6.436 -1.2972  3.6116 -3.5147
  780MOL0     H 2954   8.877   6.664   6.242 -1.3554 -0.5875 -0.8601
  780MOL0     H 2955   8.869   6.784   6.372 -0.1458  1.6810 -1.6995
  780MOL0     H 2956   8.733   6.775   6.087  4.1161  0.6028 -2.2226
  780MOL0     H 2957   8.659   6.870   6.212  0.6331  2.1277 -2.1880
  780MOL0     H 2958   8.969   7.093   6.038 -1.5000 -0.2485 -1.2258
  780MOL0     H 2959   8.685   6.396   6.181 -0.1508  0.7637 -1.1626
  780MOL0     H 2960   8.509   6.296   6.059 -2.2962  0.4721  0.0302
  781MOL0     O 2961   3.659   3.655  10.681  0.3337  0.2988 -0.1355
  781MOL0     C 2962   3.695   3.648  10.801 -0.2209  0.9368  0.3532
  781MOL0     O 2963   3.608   3.633  10.905  0.0379  0.3660  0.0661
  781MOL0     C 2964   3.469   3.653  10.896 -0.1353  0.2297 -0.4776
  781MOL0     C 2965   3.421   3.773  10.840 -0.4420  0.4632  0.1044
  781MOL0     C 2966   3.283   3.809  10.862 -0.1353 -0.2710  0.4679
  781MOL0     C 2967   3.193   3.722  10.929 -0.9191  1.1850  0.2052
  781MOL0     O 2968   3.062   3.754  10.931  0.2102 -0.0653  0.2416
  781MOL0     C 2969   2.973   3.701  11.035  0.0212  0.3462 -0.3984
  781MOL0     C 2970   2.846   3.790  11.030  0.6623 -0.3796  0.2472
  781MOL0     C 2971   2.762   3.781  11.155 -0.1923 -0.0560  0.3350
  781MOL0     C 2972   2.712   3.650  11.215 -0.0555 -0.7005 -0.0183
  781MOL0     C 2973   2.617   3.575  11.120  0.7103 -1.4001  0.0060
  781MOL0     C 2974   2.500   3.659  11.066 -0.8330  0.0995  0.2251
  781MOL0     C 2975   2.392   3.564  11.013  0.3870 -0.6364 -0.0718
  781MOL0     C 2976   2.293   3.494  11.117 -0.2566 -0.4048  0.2656
  781MOL0     N 2977   2.232   3.607  11.198  0.0155  0.6884  0.1496
  781MOL0     C 2978   2.108   3.655  11.183  0.9078  0.0674  0.3237
  781MOL0     C 2979   2.103   3.758  11.262  0.5800 -0.8146  0.0367
  781MOL0     C 2980   1.984   3.856  11.277 -0.6142  0.1953 -0.1703
  781MOL0     C 2981   1.974   3.956  11.167 -0.0761 -0.3400 -0.3318
  781MOL0     C 2982   2.069   4.075  11.169 -0.6420 -0.3137 -0.1160
  781MOL0     C 2983   2.062   4.167  11.048 -0.3137  0.0848  0.4414
  781MOL0     O 2984   2.109   4.094  10.938 -0.6218  0.4786 -0.1898
  781MOL0     C 2985   2.247   4.091  10.918 -0.5632  0.1477 -0.1251
  781MOL0     C 2986   2.324   4.200  10.902 -0.5435 -0.2122 -0.4214
  781MOL0     C 2987   2.466   4.192  10.877 -0.5043 -0.8067  0.0605
  781MOL0     C 2988   2.526   4.064  10.856  0.5339  0.5618  0.4896
  781MOL0     C 2989   2.670   4.049  10.813  0.4521  0.3057 -0.7807
  781MOL0     O 2990   2.735   4.166  10.804  0.5315  0.4793 -0.8149
  781MOL0     C 2991   2.875   4.179  10.795 -0.3634  0.4015  0.5691
  781MOL0     C 2992   2.924   4.298  10.855 -0.4570  0.9175  0.4750
  781MOL0     C 2993   3.068   4.322  10.849 -1.1557  0.1839  0.1524
  781MOL0     C 2994   3.153   4.231  10.788 -0.5024  0.3425 -0.1137
  781MOL0     O 2995   3.290   4.250  10.776 -0.1960 -0.1078 -0.5492
  781MOL0     C 2996   3.358   4.358  10.845 -0.6403 -0.8355 -0.8130
  781MOL0     C 2997   3.499   4.307  10.881 -0.4119  0.5699 -0.0002
  781MOL0     C 2998   3.594   4.429  10.874  0.6251 -0.0481  0.6203
  781MOL0     C 2999   3.728   4.365  10.874  0.3408 -0.2184  0.2228
  781MOL0     C 3000   3.832   4.475  10.830 -0.6087 -0.0746  0.3336
  781MOL0     C 3001   3.979   4.437  10.830  0.1456 -0.6502 -0.6964
  781MOL0     C 3002   4.063   4.558  10.795  0.1695 -0.7438  0.4984
  781MOL0     C 3003   4.206   4.513  10.788  0.2565 -0.1865  0.0324
  781MOL0    Cl 3004   4.281   4.635  10.682  0.1016 -0.2081 -0.3700
  781MOL0     C 3005   3.103   4.117  10.733  0.0524  0.7460  0.1556
  781MOL0     C 3006   2.960   4.085  10.732 -1.3557  0.8255  1.1200
  781MOL0     O 3007   2.725   3.941  10.804 -0.3922 -0.0194  0.2924
  781MOL0     C 3008   2.437   3.949  10.854  0.6819 -0.3317 -0.5327
  781MOL0     C 3009   2.305   3.965  10.890  0.2038  0.1782 -0.5676
  781MOL0     N 3010   2.220   3.761  11.332 -0.5276  0.1679 -0.0993
  781MOL0     N 3011   2.291   3.656  11.304  0.6451 -0.1045  0.4907
  781MOL0     C 3012   3.237   3.603  10.978  0.0473  0.3167  0.2694
  781MOL0     C 3013   3.377   3.576  10.969 -0.2068  0.2176  0.3925
  781MOL0     C 3014   3.841   3.662  10.835  0.0012 -0.4916 -0.0899
  781MOL0     C 3015   3.902   3.638  10.963 -0.2612 -0.3345 -0.1176
  781MOL0     C 3016   4.039   3.655  10.972 -0.6027 -0.9224  0.0111
  781MOL0     C 3017   4.124   3.693  10.863  0.1576  0.2712  0.4579
  781MOL0     O 3018   4.258   3.696  10.894  0.8638 -0.2233  0.2133
  781MOL0     C 3019   4.365   3.685  10.797  0.3201 -0.2662  0.9609
  781MOL0     C 3020   4.394   3.550  10.749 -0.3254  0.3171  0.5358
  781MOL0     C 3021   4.520   3.543  10.654 -0.1391 -0.4307 -0.2959
  781MOL0     C 3022   4.562   3.397  10.600  0.0803  0.3535 -0.3819
  781MOL0     C 3023   4.679   3.393  10.513  1.1198  0.5939 -0.2498
  781MOL0     C 3024   4.780   3.411  10.447  0.4252  0.9824  0.6994
  781MOL0     C 3025   4.065   3.719  10.741  0.3203 -0.3329  0.1462
  781MOL0     C 3026   3.930   3.708  10.731 -0.1860 -0.0016 -0.4807
  781MOL0     H 3027   3.488   3.842  10.789  0.4921 -0.6200 -0.1730
  781MOL0     H 3028   3.234   3.891  10.810  1.3213 -0.5768 -1.4973
  781MOL0     H 3029   3.020   3.720  11.132 -0.8179 -2.2141  0.5733
  781MOL0     H 3030   2.939   3.598  11.025 -1.8964  0.4832  3.1672
  781MOL0     H 3031   2.786   3.744  10.951 -0.4897 -0.4572  1.1295
  781MOL0     H 3032   2.868   3.894  11.003  3.1891 -0.9354 -0.0504
  781MOL0     H 3033   2.674   3.843  11.137  0.4218  0.1247 -2.7407
  781MOL0     H 3034   2.825   3.827  11.231  0.0047  1.5686 -0.7591
  781MOL0     H 3035   2.791   3.577  11.232 -0.4999 -1.1080  0.3202
  781MOL0     H 3036   2.652   3.669  11.305  2.0697 -2.3894  1.8614
  781MOL0     H 3037   2.584   3.480  11.162  4.1199 -4.2752 -3.1811
  781MOL0     H 3038   2.678   3.538  11.037 -0.0140  1.8591 -2.1853
  781MOL0     H 3039   2.539   3.718  10.982 -2.5484  0.8855 -0.0479
  781MOL0     H 3040   2.460   3.731  11.137 -0.8755  1.0722 -0.7462
  781MOL0     H 3041   2.327   3.637  10.963  0.0587 -1.5102 -0.9552
  781MOL0     H 3042   2.430   3.489  10.944  1.9874  1.3278 -1.4381
  781MOL0     H 3043   2.351   3.418  11.172 -1.0969 -1.6760 -0.5501
  781MOL0     H 3044   2.205   3.441  11.082 -1.1861  0.3617  1.3709
  781MOL0     H 3045   2.044   3.641  11.097  2.0195  0.3486 -0.5645
  781MOL0     H 3046   1.999   3.902  11.375  1.8704 -0.8313 -0.0083
  781MOL0     H 3047   1.900   3.787  11.265 -1.0726  0.7484 -0.2098
  781MOL0     H 3048   1.875   4.003  11.168 -0.0216 -0.1412  2.0345
  781MOL0     H 3049   1.989   3.897  11.076 -2.0748 -1.2160 -0.1485
  781MOL0     H 3050   2.041   4.145  11.249  1.2319  0.7727 -0.3450
  781MOL0     H 3051   2.173   4.042  11.176 -0.2472  0.1980 -2.7412
  781MOL0     H 3052   2.126   4.251  11.075 -1.4410  1.5345 -1.2099
  781MOL0     H 3053   1.964   4.201  11.014  0.1293 -0.0896 -1.0755
  781MOL0     H 3054   2.278   4.298  10.910 -1.0783 -0.3949 -1.1646
  781MOL0     H 3055   2.525   4.282  10.871 -0.9298 -0.1712  3.3648
  781MOL0     H 3056   2.853   4.368  10.897  0.5094  0.8127  2.4192
  781MOL0     H 3057   3.110   4.403  10.907 -0.0067 -0.1501 -0.1976
  781MOL0     H 3058   3.306   4.392  10.935 -0.8088  0.5770 -1.4103
  781MOL0     H 3059   3.379   4.443  10.780  1.2367 -1.1110 -0.6352
  781MOL0     H 3060   3.531   4.244  10.798 -0.7597  2.8941 -2.0362
  781MOL0     H 3061   3.509   4.260  10.979  0.2416  0.5393 -0.0805
  781MOL0     H 3062   3.574   4.505  10.950 -0.4100 -0.3867  0.7057
  781MOL0     H 3063   3.575   4.477  10.778 -2.2644 -0.6042  0.8182
  781MOL0     H 3064   3.754   4.312  10.966  0.1896 -1.0760 -0.2148
  781MOL0     H 3065   3.733   4.291  10.794  0.5049  0.5229 -0.4637
  781MOL0     H 3066   3.829   4.551  10.908  1.0276  0.7048 -0.3065
  781MOL0     H 3067   3.798   4.516  10.735 -1.0866  2.1197  1.3935
  781MOL0     H 3068   3.977   4.365  10.747  0.3275 -0.6327 -0.7164
  781MOL0     H 3069   4.009   4.395  10.926 -0.3940  1.8375  0.6200
  781MOL0     H 3070   4.024   4.600  10.701  1.9199 -0.0682  0.0339
  781MOL0     H 3071   4.051   4.635  10.872 -2.1780  0.7008 -1.1485
  781MOL0     H 3072   4.223   4.415  10.744  2.2216 -1.4141  3.1751
  781MOL0     H 3073   4.242   4.508  10.891 -3.2706 -1.0626  1.3787
  781MOL0     H 3074   3.171   4.039  10.700 -0.3516  0.4079  0.1025
  781MOL0     H 3075   2.929   3.988  10.695  1.5144  0.4041 -0.5058
  781MOL0     H 3076   2.483   3.852  10.841  2.8963  0.6527 -0.4867
  781MOL0     H 3077   2.254   3.869  10.886 -0.0120  0.2678 -0.0788
  781MOL0     H 3078   3.178   3.524  11.024  3.1114 -2.3271  0.0198
  781MOL0     H 3079   3.420   3.484  11.007 -1.0728 -0.3627 -0.0078
  781MOL0     H 3080   3.840   3.591  11.039  0.1069 -0.4405  0.1228
  781MOL0     H 3081   4.084   3.654  11.071 -0.9838 -0.5785  0.1942
  781MOL0     H 3082   4.457   3.725  10.841  0.4398 -0.1699  0.6219
  781MOL0     H 3083   4.344   3.750  10.711 -2.1391 -1.2706  0.7078
  781MOL0     H 3084   4.415   3.487  10.836  0.8557  0.8435  0.6431
  781MOL0     H 3085   4.309   3.505  10.696 -0.8844  1.5257  0.3761
  781MOL0     H 3086   4.606   3.588  10.705 -2.0843 -0.3007  3.2209
  781MOL0     H 3087   4.511   3.607  10.565  3.0355 -2.9944 -2.6966
  781MOL0     H 3088   4.594   3.340  10.688  0.7109 -3.3301 -2.7793
  781MOL0     H 3089   4.476   3.347  10.554  1.2729 -1.1069 -1.1288
  781MOL0     H 3090   4.866   3.440  10.389  0.6898  1.8154  1.4791
  781MOL0     H 3091   4.124   3.757  10.658 -0.7566 -2.0425 -1.4899
  781MOL0     H 3092   3.899   3.737  10.631  0.9688  1.6663 -0.3950
  782MOL0     O 3093   1.104   7.324   1.692 -1.0060 -0.4786 -0.2186
  782MOL0     C 3094   1.142   7.440   1.672 -0.7013 -0.7213  0.1722
  782MOL0     O 3095   1.069   7.548   1.640 -0.3435  0.4284 -0.6547
  782MOL0     C 3096   0.935   7.532   1.598 -0.1222  0.0894  0.1323
  782MOL0     C 3097   0.891   7.428   1.519  0.3364  0.1278 -0.6681
  782MOL0     C 3098   0.751   7.415   1.495  0.7773  0.1961  0.3736
  782MOL0     C 3099   0.657   7.509   1.538 -0.7126  0.7822  0.4089
  782MOL0     O 3100   0.530   7.494   1.502  0.1262  0.8073  0.8196
  782MOL0     C 3101   0.437   7.578   1.569 -0.2759 -1.0032 -0.1318
  782MOL0     C 3102   0.302   7.535   1.541 -0.7641  0.1637  0.2453
  782MOL0     C 3103   0.186   7.595   1.619 -0.3252 -0.3028  0.3863
  782MOL0     C 3104   0.066   7.499   1.612 -1.2120 -0.3850 -0.4704
  782MOL0     C 3105   0.015   7.466   1.468  0.3562 -0.2555  0.1055
  782MOL0     C 3106  -0.042   7.605   1.407 -0.0113 -0.4269 -0.7766
  782MOL0     C 3107  -0.102   7.594   1.273 -0.0369  0.0852 -0.7457
  782MOL0     C 3108  -0.161   7.731   1.228 -0.2774  0.6668  0.3671
  782MOL0     N 3109  -0.306   7.753   1.260  0.8500  0.5055  1.3127
  782MOL0     C 3110  -0.371   7.726   1.381  0.2413  1.1103 -0.4720
  782MOL0     C 3111  -0.479   7.809   1.385  0.0710  0.2667  0.5602
  782MOL0     C 3112  -0.579   7.806   1.497 -0.3240 -0.4435  0.5809
  782MOL0     C 3113  -0.690   7.707   1.454  0.6901 -0.6059  0.0643
  782MOL0     C 3114  -0.812   7.729   1.553  0.5620 -0.2176 -0.5338
  782MOL0     C 3115  -0.904   7.847   1.519  0.3926 -0.3987  0.1188
  782MOL0     O 3116  -1.005   7.806   1.425 -0.2160 -0.0253  0.1754
  782MOL0     C 3117  -1.135   7.835   1.450  0.6883 -0.3975  0.0433
  782MOL0     C 3118  -1.215   7.746   1.530 -0.1037  0.8457  0.2486
  782MOL0     C 3119  -1.343   7.790   1.558 -0.3101  0.2125 -0.0607
  782MOL0     C 3120  -1.392   7.916   1.521  0.4460  0.6487 -0.3748
  782MOL0     C 3121  -1.525   7.964   1.561  0.7135  0.1788 -0.1879
  782MOL0     O 3122  -1.559   8.100   1.543 -0.0084 -0.4402  0.1484
  782MOL0     C 3123  -1.679   8.133   1.481  0.4110 -0.0220  0.0523
  782MOL0     C 3124  -1.753   8.054   1.386 -0.4743  0.0053  0.2618
  782MOL0     C 3125  -1.871   8.088   1.322  0.2371 -1.0402  0.2700
  782MOL0     C 3126  -1.925   8.217   1.342  0.0425 -0.6433  0.2800
  782MOL0     O 3127  -2.050   8.253   1.305  0.4803 -0.4034 -0.0914
  782MOL0     C 3128  -2.070   8.250   1.157 -0.7533 -0.5292 -0.5664
  782MOL0     C 3129  -2.218   8.290   1.142 -0.2358  0.2366  0.2818
  782MOL0     C 3130  -2.277   8.253   1.010  0.4686 -0.3812 -0.2859
  782MOL0     C 3131  -2.417   8.303   0.994  0.1884  0.6713  0.1845
  782MOL0     C 3132  -2.434   8.446   0.941 -0.5300  0.0073 -0.3190
  782MOL0     C 3133  -2.581   8.478   0.943 -0.8513  0.5713 -0.1572
  782MOL0     C 3134  -2.620   8.596   0.849  0.7417 -0.1230  0.4168
  782MOL0     C 3135  -2.559   8.730   0.900  0.4853 -1.2724  0.3079
  782MOL0    Cl 3136  -2.611   8.758   1.060 -0.1598 -0.1894  0.2337
  782MOL0     C 3137  -1.858   8.293   1.437  0.6160 -0.2978  0.2348
  782MOL0     C 3138  -1.733   8.265   1.497 -0.1423  0.5507  0.1219
  782MOL0     O 3139  -1.604   7.880   1.590  0.5433  0.1391 -0.5024
  782MOL0     C 3140  -1.308   7.997   1.453  0.2632 -0.0059 -1.3807
  782MOL0     C 3141  -1.183   7.965   1.419 -0.0279  0.5483 -0.6824
  782MOL0     N 3142  -0.471   7.887   1.264 -0.2025  0.5138 -0.3850
  782MOL0     N 3143  -0.376   7.853   1.192 -0.0463  0.3830  0.4509
  782MOL0     C 3144   0.703   7.622   1.608  0.3405  0.0748  1.2341
  782MOL0     C 3145   0.844   7.642   1.625  0.2450  0.3324 -0.3666
  782MOL0     C 3146   1.287   7.464   1.698 -0.7271 -0.8692  0.6608
  782MOL0     C 3147   1.344   7.591   1.675  0.0950  0.0578 -0.0592
  782MOL0     C 3148   1.484   7.608   1.679 -0.0090  0.4662 -0.2627
  782MOL0     C 3149   1.569   7.507   1.730  0.5321 -0.6217 -0.6871
  782MOL0     O 3150   1.703   7.526   1.733  0.5000 -0.4268 -0.2720
  782MOL0     C 3151   1.765   7.529   1.869 -1.2205 -0.2463  0.5854
  782MOL0     C 3152   1.918   7.565   1.884 -0.0599 -0.1036 -0.1393
  782MOL0     C 3153   2.006   7.445   1.867  0.1550  0.7317  0.5448
  782MOL0     C 3154   2.136   7.442   1.952 -0.6461  0.1551  1.5746
  782MOL0     C 3155   2.122   7.390   2.091  0.5825  0.1839  0.0379
  782MOL0     C 3156   2.122   7.342   2.202  0.2670 -0.1381  0.5922
  782MOL0     C 3157   1.513   7.383   1.752  0.6924  0.4346  0.3024
  782MOL0     C 3158   1.370   7.363   1.728 -0.5946  0.0924  0.4433
  782MOL0     H 3159   0.962   7.355   1.482  1.1516 -1.0809  2.9349
  782MOL0     H 3160   0.709   7.343   1.425 -2.4086  0.2365  2.0552
  782MOL0     H 3161   0.458   7.678   1.530  0.4161 -2.1963 -3.1220
  782MOL0     H 3162   0.434   7.570   1.678 -1.6068  0.5880 -0.0142
  782MOL0     H 3163   0.305   7.427   1.561  4.1315  0.1696  0.7071
  782MOL0     H 3164   0.286   7.541   1.433  0.0460 -0.5530  0.0739
  782MOL0     H 3165   0.173   7.698   1.585  1.8623 -0.1811 -0.1776
  782MOL0     H 3166   0.216   7.619   1.722 -0.8121 -0.0801  0.4805
  782MOL0     H 3167   0.097   7.404   1.657 -0.8626  0.7607  1.7966
  782MOL0     H 3168  -0.015   7.544   1.669 -2.1219 -1.1285 -1.1495
  782MOL0     H 3169  -0.073   7.400   1.474 -1.2507  1.7715 -0.0085
  782MOL0     H 3170   0.084   7.417   1.399  0.5297  0.4219 -0.2136
  782MOL0     H 3171   0.036   7.680   1.420  0.9171 -1.3939 -0.6184
  782MOL0     H 3172  -0.113   7.649   1.478  0.3508 -0.3136 -0.4821
  782MOL0     H 3173  -0.019   7.560   1.210 -0.6958 -1.8084 -0.6492
  782MOL0     H 3174  -0.170   7.510   1.262  2.0942 -1.6341 -1.6218
  782MOL0     H 3175  -0.142   7.740   1.121  0.6355 -0.4591  0.4179
  782MOL0     H 3176  -0.098   7.809   1.274  0.5153  0.6676 -0.6959
  782MOL0     H 3177  -0.343   7.645   1.448  0.5239  0.8586 -0.8867
  782MOL0     H 3178  -0.618   7.907   1.506 -1.6230 -0.7272 -1.2123
  782MOL0     H 3179  -0.526   7.777   1.588 -0.0006 -0.4875  0.3805
  782MOL0     H 3180  -0.647   7.608   1.474  1.0340 -0.1996  1.4664
  782MOL0     H 3181  -0.719   7.716   1.349  3.4353 -0.2640 -0.7281
  782MOL0     H 3182  -0.878   7.642   1.552 -1.4863  1.0848  3.1322
  782MOL0     H 3183  -0.775   7.729   1.656  0.0592 -1.8086 -0.3261
  782MOL0     H 3184  -0.838   7.924   1.480 -1.0966  0.7891 -0.1531
  782MOL0     H 3185  -0.941   7.892   1.612 -0.8315  1.1871 -1.0906
  782MOL0     H 3186  -1.176   7.648   1.554  2.4102  1.1193 -2.2958
  782MOL0     H 3187  -1.413   7.729   1.613 -0.1342  1.2486  1.3914
  782MOL0     H 3188  -1.719   7.953   1.363 -0.3386  0.1995 -0.4027
  782MOL0     H 3189  -1.911   8.026   1.243 -0.0326 -1.0593  0.4190
  782MOL0     H 3190  -2.051   8.148   1.121  0.5017 -1.2523  1.9166
  782MOL0     H 3191  -1.997   8.310   1.103 -0.0189 -0.7614  0.1315
  782MOL0     H 3192  -2.233   8.398   1.146 -0.4110  0.2657 -0.7931
  782MOL0     H 3193  -2.279   8.258   1.227 -1.4247 -0.3903 -0.7649
  782MOL0     H 3194  -2.280   8.144   1.018  0.2048 -0.4559 -1.2832
  782MOL0     H 3195  -2.211   8.284   0.928 -0.7089 -0.0720 -1.1409
  782MOL0     H 3196  -2.467   8.246   0.915  2.3418 -0.2843 -0.5496
  782MOL0     H 3197  -2.480   8.269   1.077 -1.3923  0.0867 -1.2017
  782MOL0     H 3198  -2.378   8.470   0.851 -0.7443 -0.4439 -0.5780
  782MOL0     H 3199  -2.390   8.517   1.012  0.9843  0.4557 -1.6516
  782MOL0     H 3200  -2.610   8.497   1.046  1.9078  1.0072  0.6138
  782MOL0     H 3201  -2.649   8.398   0.914 -1.5479  0.7537  0.9383
  782MOL0     H 3202  -2.593   8.569   0.747 -0.1177 -3.8600  1.0291
  782MOL0     H 3203  -2.729   8.605   0.850  0.2652 -4.0204  3.1007
  782MOL0     H 3204  -2.599   8.809   0.836 -0.5935 -0.3211  2.0908
  782MOL0     H 3205  -2.449   8.730   0.893  0.5418  1.5383 -0.0250
  782MOL0     H 3206  -1.887   8.391   1.472 -0.3927 -1.1479  1.9339
  782MOL0     H 3207  -1.699   8.348   1.557  0.2497  1.3010 -1.0989
  782MOL0     H 3208  -1.346   8.098   1.443 -1.1941  0.1343  3.1806
  782MOL0     H 3209  -1.116   8.030   1.363 -0.4492  0.0198 -1.8521
  782MOL0     H 3210   0.637   7.705   1.632 -1.9332 -0.5535 -2.0829
  782MOL0     H 3211   0.887   7.725   1.681 -1.0360  0.8822 -0.1671
  782MOL0     H 3212   1.281   7.673   1.640  0.1505  1.8724  3.5723
  782MOL0     H 3213   1.522   7.707   1.658  2.2785 -0.3937 -0.4317
  782MOL0     H 3214   1.744   7.426   1.902  2.4170 -1.4107 -0.2963
  782MOL0     H 3215   1.717   7.604   1.933  0.5136  1.0321  0.4594
  782MOL0     H 3216   1.944   7.654   1.827 -1.7391 -0.1266 -0.9925
  782MOL0     H 3217   1.921   7.593   1.990 -0.0683  1.6312 -0.5730
  782MOL0     H 3218   2.025   7.433   1.760 -1.0944  0.9343  0.2817
  782MOL0     H 3219   1.944   7.359   1.894  1.1705 -0.1424  0.1484
  782MOL0     H 3220   2.214   7.381   1.906  0.0566  1.8163  0.4476
  782MOL0     H 3221   2.174   7.543   1.970 -0.3210  0.3137  0.1087
  782MOL0     H 3222   2.113   7.290   2.295 -2.4006  2.8503  2.1786
  782MOL0     H 3223   1.575   7.300   1.785  1.8145  1.9306  2.0952
  782MOL0     H 3224   1.327   7.269   1.759 -1.0197 -0.8807 -2.7954
  783MOL0     O 3225   6.737   6.464   6.924  0.6839 -0.2546 -0.1606
  783MOL0     C 3226   6.817   6.381   6.972 -0.5238 -0.4496 -0.5301
  783MOL0     O 3227   6.785   6.291   7.065 -0.1530  0.1663  0.7930
  783MOL0     C 3228   6.668   6.295   7.136 -0.5853  0.2319  0.8793
  783MOL0     C 3229   6.595   6.176   7.153  0.3239 -0.6247  0.5549
  783MOL0     C 3230   6.477   6.178   7.238 -0.6790 -0.4811 -0.1586
  783MOL0     C 3231   6.447   6.289   7.319  0.3722 -0.3511  0.2992
  783MOL0     O 3232   6.348   6.288   7.414  0.3891  0.2659 -0.5352
  783MOL0     C 3233   6.286   6.165   7.464  0.2848 -0.0806  0.7373
  783MOL0     C 3234   6.152   6.197   7.544  0.3791 -0.3453 -0.4293
  783MOL0     C 3235   6.157   6.310   7.658 -0.8326 -0.4167 -0.0569
  783MOL0     C 3236   6.011   6.342   7.693  0.0187  0.5724  0.3905
  783MOL0     C 3237   6.004   6.446   7.801 -0.3735  0.2953  0.0153
  783MOL0     C 3238   5.865   6.492   7.831 -0.9335  0.9141 -1.1780
  783MOL0     C 3239   5.795   6.568   7.717  0.0265 -0.1266 -0.5010
  783MOL0     C 3240   5.660   6.630   7.755 -0.2725 -0.6800  0.6353
  783MOL0     N 3241   5.602   6.698   7.633 -0.9522  0.4094  1.7300
  783MOL0     C 3242   5.654   6.812   7.573  0.1890  0.0186 -0.3576
  783MOL0     C 3243   5.600   6.820   7.450  0.3330  0.3118  0.2397
  783MOL0     C 3244   5.641   6.924   7.352  1.3040 -0.5970 -0.6427
  783MOL0     C 3245   5.547   7.050   7.360  0.1926  0.0990 -0.1929
  783MOL0     C 3246   5.403   7.027   7.376 -0.5255  0.7644 -0.6117
  783MOL0     C 3247   5.337   6.912   7.295 -0.2948 -0.2426  0.9354
  783MOL0     O 3248   5.213   6.970   7.254 -0.3064 -1.0247 -0.2005
  783MOL0     C 3249   5.098   6.987   7.331 -0.7326  0.3422  1.0442
  783MOL0     C 3250   4.998   7.061   7.283 -0.0432  0.2293 -0.2305
  783MOL0     C 3251   4.884   7.088   7.358  0.1512 -0.2952  0.2013
  783MOL0     C 3252   4.865   7.033   7.490 -0.3733 -0.0712  0.2211
  783MOL0     C 3253   4.753   7.059   7.572  0.6716 -0.5684 -1.4249
  783MOL0     O 3254   4.771   7.028   7.700 -0.1178 -0.5727 -0.3405
  783MOL0     C 3255   4.682   7.024   7.806 -0.9699  0.0092  0.7639
  783MOL0     C 3256   4.724   6.994   7.931  0.1002 -0.5711  0.3510
  783MOL0     C 3257   4.633   6.986   8.036 -0.3949  0.6825  0.8037
  783MOL0     C 3258   4.499   7.013   8.021 -0.5781 -0.2037  0.1216
  783MOL0     O 3259   4.411   7.016   8.129 -0.6795 -0.0715  0.5526
  783MOL0     C 3260   4.472   7.031   8.258 -0.1980  1.0275 -0.5064
  783MOL0     C 3261   4.500   6.889   8.318 -0.4638  0.0020  0.1816
  783MOL0     C 3262   4.381   6.810   8.349  0.2897  0.6477  0.1714
  783MOL0     C 3263   4.424   6.654   8.358 -0.1487 -0.3498  0.0189
  783MOL0     C 3264   4.326   6.576   8.444  0.5985  0.6604 -0.3111
  783MOL0     C 3265   4.355   6.422   8.425  0.0792  0.4668 -0.8214
  783MOL0     C 3266   4.279   6.329   8.524 -0.4610  0.4349 -0.1436
  783MOL0     C 3267   4.130   6.331   8.528 -1.3808  0.3499  0.0680
  783MOL0    Cl 3268   4.081   6.208   8.638  0.4918  0.2029  0.0779
  783MOL0     C 3269   4.456   7.028   7.896  0.1844  0.9490  0.0959
  783MOL0     C 3270   4.543   7.048   7.789  0.3416  1.0208 -0.6294
  783MOL0     O 3271   4.646   7.085   7.518  0.1140  0.2855  0.3501
  783MOL0     C 3272   4.974   6.969   7.546  0.1983 -0.4989  0.5615
  783MOL0     C 3273   5.087   6.939   7.466 -0.5372  0.1982  0.0465
  783MOL0     N 3274   5.536   6.701   7.426 -0.3704 -0.5184 -0.1996
  783MOL0     N 3275   5.538   6.631   7.537 -0.7441  0.4829 -0.0718
  783MOL0     C 3276   6.523   6.409   7.300  0.9602 -0.2086  0.3133
  783MOL0     C 3277   6.632   6.413   7.214 -0.2523  0.6843 -0.8591
  783MOL0     C 3278   6.964   6.381   6.938 -0.1149 -0.5402  0.3409
  783MOL0     C 3279   7.004   6.438   6.817 -0.6936 -0.9864  0.3540
  783MOL0     C 3280   7.135   6.424   6.775  0.1956  0.2041  0.5234
  783MOL0     C 3281   7.228   6.344   6.840  0.7795 -0.1502 -0.5143
  783MOL0     O 3282   7.352   6.334   6.786 -0.9684 -0.5746  0.1337
  783MOL0     C 3283   7.447   6.245   6.845  0.0108  0.4200  0.1342
  783MOL0     C 3284   7.552   6.323   6.921 -0.0121  0.3246 -0.2223
  783MOL0     C 3285   7.640   6.224   6.996  0.5769  0.4548  0.2158
  783MOL0     C 3286   7.766   6.300   7.033 -0.9367  0.0706 -0.0820
  783MOL0     C 3287   7.878   6.210   7.058  0.3921 -0.2172 -0.6029
  783MOL0     C 3288   7.966   6.143   7.098  0.0226  0.1062  1.0294
  783MOL0     C 3289   7.180   6.292   6.968  0.1498 -1.2178  0.1583
  783MOL0     C 3290   7.051   6.307   7.013  0.2195 -0.7756 -0.1790
  783MOL0     H 3291   6.629   6.078   7.119 -0.6253  0.3226 -3.7119
  783MOL0     H 3292   6.424   6.084   7.245  0.1686 -0.8735  1.6267
  783MOL0     H 3293   6.362   6.112   7.522 -0.1957  0.2452  1.6868
  783MOL0     H 3294   6.262   6.104   7.377 -3.6071  0.4454  1.2508
  783MOL0     H 3295   6.116   6.103   7.586  0.8040 -1.1696 -1.8280
  783MOL0     H 3296   6.086   6.228   7.464  0.3127 -0.0218 -0.2502
  783MOL0     H 3297   6.208   6.402   7.627 -2.9135  1.5084  1.8852
  783MOL0     H 3298   6.204   6.266   7.745 -0.2577  0.6310  0.1823
  783MOL0     H 3299   5.962   6.377   7.602 -2.1284  4.0911  2.6547
  783MOL0     H 3300   5.961   6.247   7.716  0.8218 -0.3952 -1.6771
  783MOL0     H 3301   6.057   6.530   7.755 -0.4232  0.5213  0.3752
  783MOL0     H 3302   6.038   6.410   7.898 -1.1077  2.1289  1.0097
  783MOL0     H 3303   5.877   6.552   7.922 -1.1205 -1.0458  0.1891
  783MOL0     H 3304   5.808   6.402   7.857  0.7581 -0.5583 -2.3598
  783MOL0     H 3305   5.853   6.653   7.678 -3.1233  3.6966  2.4004
  783MOL0     H 3306   5.779   6.498   7.634 -1.0784  0.8918 -1.1767
  783MOL0     H 3307   5.667   6.699   7.839 -1.8015  2.5440 -1.6612
  783MOL0     H 3308   5.588   6.556   7.791 -0.7744  1.4329  4.4481
  783MOL0     H 3309   5.723   6.883   7.617  0.4508  1.6294 -3.1490
  783MOL0     H 3310   5.626   6.886   7.250 -2.4202 -3.2648  0.6670
  783MOL0     H 3311   5.743   6.960   7.370  0.0895  2.7399  0.1443
  783MOL0     H 3312   5.570   7.110   7.272  2.7859 -1.1619 -0.5006
  783MOL0     H 3313   5.580   7.112   7.444  0.4232 -0.1805 -0.0755
  783MOL0     H 3314   5.384   7.014   7.484  4.0883 -1.9714  0.1474
  783MOL0     H 3315   5.355   7.118   7.339 -1.5948  0.0585 -1.0178
  783MOL0     H 3316   5.334   6.820   7.354  3.7085 -1.1182  0.0435
  783MOL0     H 3317   5.391   6.891   7.202 -1.9219  2.0975 -0.6813
  783MOL0     H 3318   5.008   7.097   7.182  1.4808  1.2855  0.2521
  783MOL0     H 3319   4.792   7.126   7.316  0.0299 -3.3440 -2.7178
  783MOL0     H 3320   4.831   6.985   7.949  0.7464  1.1245 -2.0268
  783MOL0     H 3321   4.676   6.960   8.132  0.6611  1.2124  0.4872
  783MOL0     H 3322   4.403   7.089   8.319  1.0963  0.6159  1.4467
  783MOL0     H 3323   4.562   7.092   8.250 -0.7904  1.8006 -1.7985
  783MOL0     H 3324   4.557   6.912   8.408  1.5022 -0.7256 -0.8304
  783MOL0     H 3325   4.562   6.827   8.253 -0.2476  1.5893 -1.2035
  783MOL0     H 3326   4.304   6.822   8.272 -0.7682  2.9517  1.4703
  783MOL0     H 3327   4.350   6.849   8.447 -0.8251  0.7398 -0.2018
  783MOL0     H 3328   4.423   6.612   8.257  0.8619  0.3390 -0.2974
  783MOL0     H 3329   4.524   6.653   8.402  0.2106  1.7351 -0.6125
  783MOL0     H 3330   4.227   6.602   8.406  0.1050  2.0325  1.7271
  783MOL0     H 3331   4.335   6.596   8.552 -0.0653 -1.4891  0.1888
  783MOL0     H 3332   4.463   6.409   8.438 -0.1061 -2.3972 -1.3313
  783MOL0     H 3333   4.343   6.385   8.323  0.1691 -1.6760 -0.1061
  783MOL0     H 3334   4.310   6.230   8.489 -0.7429  1.1088 -2.4707
  783MOL0     H 3335   4.332   6.332   8.620  1.4335 -2.4909 -0.9453
  783MOL0     H 3336   4.102   6.314   8.424  1.1594 -0.0442 -0.6168
  783MOL0     H 3337   4.103   6.430   8.568  2.4847  0.9854  1.5492
  783MOL0     H 3338   4.347   7.032   7.894  0.0392  0.0411  2.7819
  783MOL0     H 3339   4.493   7.061   7.694  1.4331 -0.0931 -1.3825
  783MOL0     H 3340   4.982   6.938   7.649  0.8098  1.0214  0.9968
  783MOL0     H 3341   5.169   6.883   7.511  0.1957  0.2576 -1.1680
  783MOL0     H 3342   6.518   6.499   7.361  3.6289  0.4256 -0.2980
  783MOL0     H 3343   6.701   6.495   7.199 -0.4615  0.5998 -2.3978
  783MOL0     H 3344   6.931   6.482   6.750 -0.9926  0.9094  1.8356
  783MOL0     H 3345   7.164   6.458   6.677  1.4517 -0.8723  0.4907
  783MOL0     H 3346   7.503   6.191   6.768  2.9982  0.0092  2.4324
  783MOL0     H 3347   7.386   6.175   6.902 -0.2033  0.1188 -0.4511
  783MOL0     H 3348   7.606   6.379   6.843  0.7430  1.3946  1.0242
  783MOL0     H 3349   7.512   6.398   6.989 -0.5775  0.9356 -1.2019
  783MOL0     H 3350   7.666   6.139   6.933  0.6478  0.1592  0.6373
  783MOL0     H 3351   7.592   6.180   7.084 -2.1011 -0.6875 -1.7124
  783MOL0     H 3352   7.790   6.366   6.949  0.6124  1.9099  1.7115
  783MOL0     H 3353   7.745   6.370   7.115 -1.1050  2.7621 -2.2915
  783MOL0     H 3354   8.038   6.068   7.123 -1.9707 -2.4392 -0.4886
  783MOL0     H 3355   7.240   6.237   7.040  1.9359  0.5418  0.1303
  783MOL0     H 3356   7.032   6.266   7.112 -1.7958  0.5922  0.0640
  784MOL0     O 3357   6.779   5.779   5.813  0.3844 -0.5149 -0.1506
  784MOL0     C 3358   6.765   5.860   5.714 -0.7134  0.3613 -0.0188
  784MOL0     O 3359   6.651   5.901   5.646 -0.3485  0.0725  0.6008
  784MOL0     C 3360   6.539   5.871   5.713 -0.0376 -0.3872 -0.9011
  784MOL0     C 3361   6.456   5.977   5.751  0.7342  0.1020 -0.2843
  784MOL0     C 3362   6.330   5.951   5.817  0.0678 -0.3590  0.1388
  784MOL0     C 3363   6.280   5.816   5.833 -0.3109 -0.1794 -0.2249
  784MOL0     O 3364   6.164   5.783   5.894  0.2237 -0.1237 -0.1396
  784MOL0     C 3365   6.114   5.864   5.998 -0.0415  0.0757  0.2993
  784MOL0     C 3366   6.030   5.774   6.082 -0.1232  0.4826 -0.4608
  784MOL0     C 3367   5.903   5.729   6.006  0.1464  0.2802 -0.4501
  784MOL0     C 3368   5.805   5.680   6.107  0.1766 -0.0381 -1.1996
  784MOL0     C 3369   5.678   5.623   6.050  0.1893  0.1723 -0.0367
  784MOL0     C 3370   5.577   5.722   5.987  0.9182 -0.3330 -0.2920
  784MOL0     C 3371   5.445   5.654   5.933  1.2909 -0.4373  0.8059
  784MOL0     C 3372   5.346   5.753   5.878  0.2542  0.3815 -0.0368
  784MOL0     N 3373   5.248   5.800   5.982 -0.6143 -0.2119  0.7122
  784MOL0     C 3374   5.271   5.897   6.074 -0.1723  0.0355  0.4231
  784MOL0     C 3375   5.162   5.889   6.156 -0.8053 -0.5709 -0.5792
  784MOL0     C 3376   5.144   5.979   6.284 -0.1949  0.1978 -0.1705
  784MOL0     C 3377   5.012   5.993   6.346  0.3096 -0.0759  0.5303
  784MOL0     C 3378   4.980   5.878   6.445  0.9868  0.3903  0.8298
  784MOL0     C 3379   4.844   5.897   6.514 -0.8934 -0.3590  0.5816
  784MOL0     O 3380   4.837   6.006   6.608 -0.3366  0.0093  0.8396
  784MOL0     C 3381   4.717   6.027   6.671 -0.4881  0.1194 -0.2776
  784MOL0     C 3382   4.712   6.124   6.762 -0.2438  0.7673  0.2846
  784MOL0     C 3383   4.592   6.158   6.824 -0.6599  0.2664 -0.3640
  784MOL0     C 3384   4.475   6.082   6.803  0.1171 -0.3526  0.1746
  784MOL0     C 3385   4.357   6.128   6.875 -0.6054  0.1148 -0.1372
  784MOL0     O 3386   4.247   6.151   6.807  0.0295 -0.7881 -0.5196
  784MOL0     C 3387   4.130   6.190   6.874  0.4002 -0.6099 -0.3578
  784MOL0     C 3388   4.083   6.327   6.889  0.2012  0.2515 -1.0310
  784MOL0     C 3389   3.968   6.356   6.965 -0.5277  0.4453 -0.0012
  784MOL0     C 3390   3.894   6.249   7.023  0.9607 -0.3828  0.6246
  784MOL0     O 3391   3.773   6.267   7.085  0.1000  0.3816  0.2021
  784MOL0     C 3392   3.699   6.383   7.049 -0.3263  0.3159 -0.4590
  784MOL0     C 3393   3.572   6.386   7.131  0.4421  0.6354  0.3644
  784MOL0     C 3394   3.488   6.271   7.063 -0.5878 -0.2623 -0.8386
  784MOL0     C 3395   3.363   6.215   7.142 -0.2657  0.7808  0.4037
  784MOL0     C 3396   3.259   6.333   7.151 -0.5471  0.1154  0.1222
  784MOL0     C 3397   3.164   6.355   7.040  0.4657 -0.2915  0.4258
  784MOL0     C 3398   3.093   6.492   7.054 -0.3206  0.5209 -0.2579
  784MOL0     C 3399   2.989   6.516   6.947  1.0388 -1.4240  0.8673
  784MOL0    Cl 3400   2.925   6.676   6.971  0.0804 -0.3030 -0.0118
  784MOL0     C 3401   3.949   6.118   7.015  0.9472  0.0522 -0.3846
  784MOL0     C 3402   4.063   6.084   6.939  0.6838 -0.5163 -0.7573
  784MOL0     O 3403   4.371   6.154   6.997  0.3204  0.3999 -0.4373
  784MOL0     C 3404   4.468   5.977   6.714 -0.7591 -0.4528 -0.2776
  784MOL0     C 3405   4.595   5.950   6.647  0.2132  0.0403 -0.7469
  784MOL0     N 3406   5.082   5.790   6.114  0.2467  0.4994 -0.0977
  784MOL0     N 3407   5.139   5.729   6.012 -0.3527 -0.2202 -0.9606
  784MOL0     C 3408   6.365   5.709   5.777 -1.1253 -0.2873 -0.2678
  784MOL0     C 3409   6.492   5.739   5.719  0.4017  0.6654 -0.2399
  784MOL0     C 3410   6.888   5.901   5.652 -0.7388 -0.2997 -0.4151
  784MOL0     C 3411   6.892   5.949   5.522 -0.5979  0.4446  0.5233
  784MOL0     C 3412   6.999   5.997   5.450  0.4884  0.1634 -0.6849
  784MOL0     C 3413   7.124   5.985   5.511 -0.5709  0.9551 -0.1136
  784MOL0     O 3414   7.230   6.035   5.438  0.5450  0.0379 -0.5014
  784MOL0     C 3415   7.363   6.042   5.492 -0.4257  0.1161  0.0451
  784MOL0     C 3416   7.442   5.912   5.469 -0.1486 -0.5253 -0.3283
  784MOL0     C 3417   7.590   5.927   5.517 -0.9230 -0.0916 -0.0948
  784MOL0     C 3418   7.616   5.903   5.668 -1.7656  0.5046 -0.9660
  784MOL0     C 3419   7.759   5.904   5.679 -0.7109  0.6920  0.3762
  784MOL0     C 3420   7.882   5.923   5.701  1.0968  0.5202 -0.2154
  784MOL0     C 3421   7.129   5.926   5.641 -0.1958  0.4898 -0.2406
  784MOL0     C 3422   7.016   5.882   5.711  0.4991 -0.1187  0.3049
  784MOL0     H 3423   6.479   6.080   5.727  0.1360  0.6621  1.3969
  784MOL0     H 3424   6.260   6.028   5.849 -1.2469 -1.7439  0.7536
  784MOL0     H 3425   6.057   5.948   5.956 -2.0592 -0.8749  1.0450
  784MOL0     H 3426   6.189   5.906   6.065 -0.9029  2.1033  0.0591
  784MOL0     H 3427   6.004   5.840   6.165  0.2485 -1.1614  1.0024
  784MOL0     H 3428   6.098   5.693   6.111  0.3745 -0.1002 -3.0153
  784MOL0     H 3429   5.934   5.650   5.937 -1.5783 -0.2194 -0.7073
  784MOL0     H 3430   5.854   5.808   5.947  0.0617 -0.2842 -1.1487
  784MOL0     H 3431   5.854   5.590   6.145  1.6069  0.5863 -1.4770
  784MOL0     H 3432   5.778   5.760   6.177  1.6114 -1.2245  0.8213
  784MOL0     H 3433   5.623   5.588   6.137  2.7847 -0.1026  1.5903
  784MOL0     H 3434   5.698   5.538   5.983 -1.1615 -1.0276  1.0224
  784MOL0     H 3435   5.632   5.775   5.909 -1.8876  2.3958 -0.6059
  784MOL0     H 3436   5.552   5.784   6.074 -3.1572 -2.5369  0.3939
  784MOL0     H 3437   5.473   5.599   5.843 -0.3145  1.5869 -1.0431
  784MOL0     H 3438   5.413   5.574   6.001  1.1156 -2.4705 -1.4903
  784MOL0     H 3439   5.288   5.703   5.800  1.0059 -1.5281  0.5692
  784MOL0     H 3440   5.395   5.839   5.830  0.1867  0.1333 -0.5606
  784MOL0     H 3441   5.354   5.967   6.077 -0.6386  0.6491 -0.6792
  784MOL0     H 3442   5.165   6.081   6.251 -2.0828  1.6650  2.7197
  784MOL0     H 3443   5.226   5.959   6.354  0.2935  1.9044 -0.1934
  784MOL0     H 3444   4.934   6.008   6.271 -1.2496 -0.5317  2.0037
  784MOL0     H 3445   5.008   6.084   6.407 -1.2541  0.8866 -0.9235
  784MOL0     H 3446   4.970   5.779   6.399  0.5172  1.1247 -0.7309
  784MOL0     H 3447   5.053   5.866   6.525 -0.3359  0.7655  2.1400
  784MOL0     H 3448   4.818   5.808   6.571 -1.4129 -0.2639  0.4976
  784MOL0     H 3449   4.769   5.916   6.436  0.1933  2.0837  0.0196
  784MOL0     H 3450   4.809   6.174   6.765 -1.1721  2.6682  0.5146
  784MOL0     H 3451   4.587   6.238   6.897 -1.1840  0.9829 -1.1647
  784MOL0     H 3452   4.153   6.402   6.854  0.6241  1.1745  1.5816
  784MOL0     H 3453   3.947   6.462   6.971  0.6464  0.6097  2.9837
  784MOL0     H 3454   3.685   6.387   6.940  0.3922  0.4492 -0.5503
  784MOL0     H 3455   3.754   6.475   7.072  1.0749 -0.8088  0.8496
  784MOL0     H 3456   3.523   6.482   7.118  0.2402  0.4597 -0.2324
  784MOL0     H 3457   3.600   6.376   7.236 -0.9682 -1.8379  0.6023
  784MOL0     H 3458   3.553   6.188   7.036 -0.5315 -0.5456  0.1120
  784MOL0     H 3459   3.459   6.323   6.971 -2.7491  0.8754  0.4024
  784MOL0     H 3460   3.317   6.130   7.091 -0.5112  0.5437  1.0111
  784MOL0     H 3461   3.394   6.188   7.244 -1.6256 -1.6400  0.2388
  784MOL0     H 3462   3.301   6.432   7.172 -2.3514  0.8081  0.7319
  784MOL0     H 3463   3.199   6.323   7.242  0.0645  0.9287  0.6350
  784MOL0     H 3464   3.093   6.271   7.043  1.5949 -1.3244 -0.6343
  784MOL0     H 3465   3.211   6.353   6.942 -1.1806  3.6844 -0.6322
  784MOL0     H 3466   3.045   6.509   7.151  1.8587  1.9637  0.6316
  784MOL0     H 3467   3.173   6.565   7.041 -0.1507  0.4683  0.4432
  784MOL0     H 3468   2.914   6.436   6.946 -1.0903  0.4783  0.2436
  784MOL0     H 3469   3.027   6.523   6.845 -1.0506 -3.2941 -0.1317
  784MOL0     H 3470   3.891   6.036   7.055 -1.3681  1.3942 -0.8300
  784MOL0     H 3471   4.099   5.981   6.940  1.2014 -0.3418 -0.7971
  784MOL0     H 3472   4.373   5.925   6.708 -0.6145 -0.5484 -3.1020
  784MOL0     H 3473   4.603   5.868   6.576  4.0403  0.1415 -0.6335
  784MOL0     H 3474   6.337   5.607   5.800  0.9610 -0.2380  3.2495
  784MOL0     H 3475   6.547   5.650   5.691 -0.1728 -0.0624  0.8710
  784MOL0     H 3476   6.796   5.976   5.478 -1.0598  0.6181  1.5915
  784MOL0     H 3477   6.997   6.034   5.348  1.2062  1.4428 -0.2588
  784MOL0     H 3478   7.365   6.051   5.601  1.3456 -2.4495  0.3170
  784MOL0     H 3479   7.410   6.130   5.449 -0.3185  0.4630  0.8603
  784MOL0     H 3480   7.380   5.835   5.516 -4.3559  0.8212 -3.0250
  784MOL0     H 3481   7.438   5.883   5.363 -0.4814 -0.7205 -0.2638
  784MOL0     H 3482   7.630   6.024   5.489 -0.7653  0.6269  2.3601
  784MOL0     H 3483   7.652   5.859   5.458  1.3945  1.3898  0.5128
  784MOL0     H 3484   7.588   5.995   5.721  0.1606  1.4623 -1.5092
  784MOL0     H 3485   7.568   5.815   5.711 -2.7222  2.3423  1.9890
  784MOL0     H 3486   7.985   5.941   5.722  1.0925  1.3394 -0.8196
  784MOL0     H 3487   7.216   5.902   5.700 -0.1206  0.7256 -0.2524
  784MOL0     H 3488   7.028   5.847   5.813 -1.3228 -0.2418  0.5097
  785MOL0     O 3489   5.173   6.076   2.232  0.0939  1.0293  0.6821
  785MOL0     C 3490   5.111   6.056   2.125 -0.2776 -0.6076 -1.0806
  785MOL0     O 3491   5.163   6.071   1.997  0.2200 -0.4283  0.2158
  785MOL0     C 3492   5.299   6.095   1.968 -0.0713  0.2982  0.4569
  785MOL0     C 3493   5.402   6.040   2.047 -0.1614 -0.2186  0.4499
  785MOL0     C 3494   5.544   6.079   2.028 -0.2913  0.3335 -0.3615
  785MOL0     C 3495   5.575   6.165   1.923 -0.2835  0.4921 -0.7897
  785MOL0     O 3496   5.710   6.190   1.900  0.6285 -0.1337 -0.6930
  785MOL0     C 3497   5.747   6.239   1.765  0.0981  1.9720 -0.6837
  785MOL0     C 3498   5.905   6.238   1.756 -1.2030 -0.5461  0.7129
  785MOL0     C 3499   5.966   6.302   1.624 -0.5050  0.7946 -0.3123
  785MOL0     C 3500   6.121   6.299   1.625 -0.3439  0.3808  0.1106
  785MOL0     C 3501   6.197   6.381   1.517  0.3290 -0.0457 -0.0639
  785MOL0     C 3502   6.159   6.530   1.510  0.4022  0.5888 -0.3933
  785MOL0     C 3503   6.167   6.605   1.642  0.1778  0.1773 -0.1524
  785MOL0     C 3504   6.207   6.753   1.617 -0.6843  0.4011 -0.4133
  785MOL0     N 3505   6.095   6.816   1.540  0.4929  0.3226  0.2253
  785MOL0     C 3506   5.958   6.824   1.570  0.1911  0.6762 -0.2892
  785MOL0     C 3507   5.904   6.918   1.489 -0.6741 -0.6754  0.5496
  785MOL0     C 3508   5.766   6.963   1.488  0.7780  0.2462  0.1394
  785MOL0     C 3509   5.695   6.944   1.628  0.5846  0.0633 -0.5155
  785MOL0     C 3510   5.552   7.000   1.636  0.3364 -0.6430  0.3874
  785MOL0     C 3511   5.455   6.892   1.578  0.0249 -0.5533  0.4196
  785MOL0     O 3512   5.322   6.924   1.631  0.0190 -0.4165  1.2090
  785MOL0     C 3513   5.229   6.820   1.642  0.5438 -1.5671 -0.5844
  785MOL0     C 3514   5.096   6.874   1.659  0.2542  0.8371  0.3882
  785MOL0     C 3515   4.985   6.786   1.669  0.3766  1.0545 -0.6723
  785MOL0     C 3516   5.010   6.646   1.659  0.1118 -0.2166  0.0038
  785MOL0     C 3517   4.895   6.552   1.674 -0.4960  0.0541  1.0429
  785MOL0     O 3518   4.777   6.599   1.643 -0.4000 -0.3364  0.0374
  785MOL0     C 3519   4.658   6.529   1.665  0.4125 -0.0781  0.2078
  785MOL0     C 3520   4.636   6.391   1.665  0.4712  0.2537 -0.2759
  785MOL0     C 3521   4.504   6.339   1.669 -0.2580  0.1702  0.2626
  785MOL0     C 3522   4.392   6.428   1.684 -0.1236  0.3610  0.1055
  785MOL0     O 3523   4.267   6.370   1.692 -0.5285  0.0336  0.5664
  785MOL0     C 3524   4.169   6.417   1.608 -0.9885 -0.3559 -0.1670
  785MOL0     C 3525   4.053   6.315   1.615  0.4401 -0.4398  0.5074
  785MOL0     C 3526   3.964   6.316   1.736 -0.2621  0.2085  0.2091
  785MOL0     C 3527   3.853   6.215   1.717  0.0238  0.0174 -0.2793
  785MOL0     C 3528   3.744   6.261   1.626 -0.2023  1.0532 -0.8884
  785MOL0     C 3529   3.653   6.141   1.602  0.4759 -0.5869 -0.3191
  785MOL0     C 3530   3.530   6.181   1.515  0.5393  1.2127  0.3252
  785MOL0     C 3531   3.404   6.234   1.588  0.4235  0.0118  0.4337
  785MOL0    Cl 3532   3.255   6.207   1.487  0.3405 -0.3942 -0.1944
  785MOL0     C 3533   4.407   6.565   1.694 -0.3900  0.2121 -0.9912
  785MOL0     C 3534   4.545   6.614   1.693 -0.2187  0.3012 -0.5109
  785MOL0     O 3535   4.917   6.441   1.709  0.5719  0.0760  1.1361
  785MOL0     C 3536   5.140   6.601   1.648  1.9735  0.1605 -0.2682
  785MOL0     C 3537   5.251   6.688   1.642  0.6434  0.2705 -0.3606
  785MOL0     N 3538   6.014   6.957   1.404  0.3769  0.1710  0.3518
  785MOL0     N 3539   6.120   6.885   1.428  0.0956 -0.1729 -0.8073
  785MOL0     C 3540   5.475   6.217   1.839  0.1524  0.7670  0.4325
  785MOL0     C 3541   5.336   6.168   1.855  0.2054 -0.1552  1.2642
  785MOL0     C 3542   4.970   6.010   2.129  0.0509 -0.2439 -0.3570
  785MOL0     C 3543   4.891   5.997   2.016 -0.9284 -0.0170 -0.1748
  785MOL0     C 3544   4.759   5.946   2.013  1.1262 -0.1577 -1.3380
  785MOL0     C 3545   4.709   5.908   2.134  0.0424  0.0105  0.7925
  785MOL0     O 3546   4.584   5.848   2.133 -0.0880  0.0385  0.3104
  785MOL0     C 3547   4.527   5.803   2.254  0.6346 -0.8718 -0.3552
  785MOL0     C 3548   4.410   5.708   2.212 -0.2020 -0.3086 -0.1142
  785MOL0     C 3549   4.283   5.775   2.151  1.0551 -0.9506 -0.5512
  785MOL0     C 3550   4.190   5.666   2.108  1.1035 -0.3468 -0.0637
  785MOL0     C 3551   4.109   5.609   2.220 -0.3925 -0.0668 -0.1437
  785MOL0     C 3552   4.056   5.567   2.319 -0.0856 -0.0882 -1.3395
  785MOL0     C 3553   4.782   5.937   2.251 -1.3416 -0.6119  0.0196
  785MOL0     C 3554   4.910   5.990   2.252 -0.0900  0.1873  0.8839
  785MOL0     H 3555   5.375   5.973   2.129  2.3213 -0.4481  1.1468
  785MOL0     H 3556   5.625   6.037   2.086  0.7559  1.7409 -0.7680
  785MOL0     H 3557   5.697   6.332   1.735  1.8670  2.7452 -1.3349
  785MOL0     H 3558   5.710   6.168   1.690 -0.9127  0.3778  1.2406
  785MOL0     H 3559   5.936   6.134   1.772  1.8657 -0.7275 -4.2892
  785MOL0     H 3560   5.948   6.294   1.840 -0.6072  0.8761 -0.5139
  785MOL0     H 3561   5.922   6.402   1.622  3.5003  3.0231  3.5004
  785MOL0     H 3562   5.943   6.254   1.528  1.4553  0.0856 -0.4959
  785MOL0     H 3563   6.149   6.338   1.723 -3.0027  1.1615  0.6466
  785MOL0     H 3564   6.157   6.196   1.626 -1.7295 -0.1243  0.4732
  785MOL0     H 3565   6.174   6.347   1.415  2.9245  0.2206 -0.8086
  785MOL0     H 3566   6.304   6.379   1.538 -0.1268 -0.1674  2.5416
  785MOL0     H 3567   6.059   6.540   1.467  0.1033 -3.6396 -1.0891
  785MOL0     H 3568   6.216   6.572   1.427 -2.5657 -1.6954 -3.8735
  785MOL0     H 3569   6.082   6.584   1.707  0.2376 -1.1657 -0.4773
  785MOL0     H 3570   6.248   6.568   1.705  0.5665 -0.8500 -1.2147
  785MOL0     H 3571   6.296   6.754   1.552 -0.8116  0.9754 -0.5876
  785MOL0     H 3572   6.236   6.804   1.709  0.5692 -1.3786  0.2289
  785MOL0     H 3573   5.917   6.770   1.655  0.5500  1.7367  0.5764
  785MOL0     H 3574   5.713   6.907   1.411 -0.0468  1.5290 -0.2612
  785MOL0     H 3575   5.765   7.066   1.450 -0.4590  0.3930  0.5094
  785MOL0     H 3576   5.738   7.004   1.710  2.4727 -1.4978 -0.2910
  785MOL0     H 3577   5.698   6.839   1.657 -3.2896 -0.4446 -1.4409
  785MOL0     H 3578   5.524   7.026   1.739 -2.8008  1.1312 -0.7669
  785MOL0     H 3579   5.530   7.093   1.581 -0.1440 -1.1872 -0.3568
  785MOL0     H 3580   5.496   6.794   1.603  2.3936  0.5967  1.4023
  785MOL0     H 3581   5.452   6.890   1.468 -0.4751 -4.7913  0.3586
  785MOL0     H 3582   5.084   6.982   1.653 -0.8908  0.9048  2.7730
  785MOL0     H 3583   4.892   6.833   1.699  1.3951  2.3225  0.6419
  785MOL0     H 3584   4.718   6.322   1.648  0.4219 -0.7156  2.7759
  785MOL0     H 3585   4.492   6.231   1.668 -1.0929  0.2236  1.7020
  785MOL0     H 3586   4.218   6.431   1.511  0.5652  0.6377  0.7096
  785MOL0     H 3587   4.138   6.519   1.630  1.5221  0.6637 -0.9984
  785MOL0     H 3588   4.102   6.220   1.592  1.5509 -0.6034  3.1455
  785MOL0     H 3589   3.993   6.343   1.528 -2.8221 -0.3764  2.5943
  785MOL0     H 3590   3.935   6.421   1.744  3.0087  1.5014 -2.4779
  785MOL0     H 3591   4.021   6.274   1.819 -0.0582 -1.9981 -0.9553
  785MOL0     H 3592   3.887   6.115   1.688 -0.0399 -0.2177  0.4283
  785MOL0     H 3593   3.816   6.198   1.819 -0.8663  2.5343 -0.1300
  785MOL0     H 3594   3.795   6.293   1.535  4.4497  0.4576  1.2374
  785MOL0     H 3595   3.703   6.346   1.682  4.1371  2.0731  1.1750
  785MOL0     H 3596   3.620   6.112   1.702  1.6571 -1.1862 -0.0844
  785MOL0     H 3597   3.716   6.065   1.555  0.9022  0.2392 -1.1211
  785MOL0     H 3598   3.571   6.256   1.446  0.1089 -0.1231 -1.4396
  785MOL0     H 3599   3.495   6.092   1.463  0.4731  0.3007  1.8644
  785MOL0     H 3600   3.425   6.331   1.633  0.5238 -0.2067  0.8624
  785MOL0     H 3601   3.371   6.175   1.674 -0.0934 -3.3425 -1.8535
  785MOL0     H 3602   4.317   6.620   1.722 -0.3516 -2.1550  5.6028
  785MOL0     H 3603   4.554   6.721   1.706 -1.2449  0.5216 -1.4463
  785MOL0     H 3604   5.155   6.493   1.654 -0.0230 -0.2944 -2.2613
  785MOL0     H 3605   5.346   6.638   1.629  0.5364  0.2923 -1.3505
  785MOL0     H 3606   5.484   6.290   1.759 -3.8839  1.7364  0.6632
  785MOL0     H 3607   5.265   6.214   1.787 -2.2803  0.7281  4.1904
  785MOL0     H 3608   4.932   6.012   1.917  1.5122  0.9538  0.9127
  785MOL0     H 3609   4.700   5.949   1.922  1.4181  1.2237 -1.5111
  785MOL0     H 3610   4.506   5.887   2.320 -0.2176 -1.9838  0.8554
  785MOL0     H 3611   4.594   5.727   2.297 -1.3622 -3.2085 -1.1301
  785MOL0     H 3612   4.442   5.630   2.142 -0.9613 -1.4333  0.7600
  785MOL0     H 3613   4.379   5.650   2.299  0.6674 -2.1686 -0.9934
  785MOL0     H 3614   4.316   5.848   2.076 -0.2496  1.3116  0.9241
  785MOL0     H 3615   4.227   5.841   2.219  1.9222  0.9288 -1.5694
  785MOL0     H 3616   4.124   5.704   2.030 -1.3319  0.4264  2.2076
  785MOL0     H 3617   4.238   5.575   2.071 -0.9261 -0.9945 -1.3068
  785MOL0     H 3618   4.003   5.532   2.405  2.5166  0.5602  0.6554
  785MOL0     H 3619   4.743   5.913   2.350 -3.2190 -1.7600 -0.9596
  785MOL0     H 3620   4.966   5.998   2.345 -1.4808 -2.6402  2.0841
  786MOL0     O 3621   8.952   5.664   0.667  0.5383 -0.7595  0.1317
  786MOL0     C 3622   8.910   5.571   0.602  0.1887  0.2458 -0.0541
  786MOL0     O 3623   8.821   5.481   0.648 -0.9205  0.2908 -0.1036
  786MOL0     C 3624   8.778   5.479   0.777  1.2741 -1.3247 -0.2260
  786MOL0     C 3625   8.843   5.424   0.890  0.1333  0.2319 -0.2687
  786MOL0     C 3626   8.781   5.423   1.017  0.4986  0.3713  0.2716
  786MOL0     C 3627   8.655   5.474   1.034 -0.1954 -0.4713  0.8791
  786MOL0     O 3628   8.602   5.466   1.160 -0.2541  0.3561  0.1476
  786MOL0     C 3629   8.471   5.423   1.174  0.5859  0.2606 -0.6911
  786MOL0     C 3630   8.424   5.508   1.300 -0.0916 -0.5230  0.3692
  786MOL0     C 3631   8.275   5.465   1.296  0.2615  0.2025  0.6302
  786MOL0     C 3632   8.199   5.549   1.396  0.3545 -0.8869  0.5937
  786MOL0     C 3633   8.144   5.686   1.347 -0.6815 -1.0896  0.1499
  786MOL0     C 3634   8.223   5.813   1.406  0.1738 -0.5388  0.3783
  786MOL0     C 3635   8.145   5.932   1.354 -0.1843 -0.1539  0.6904
  786MOL0     C 3636   8.052   5.992   1.466 -0.1536  0.5106 -0.1752
  786MOL0     N 3637   7.973   6.103   1.416 -0.0273  0.3351 -0.5355
  786MOL0     C 3638   7.988   6.239   1.420  0.4412  0.4504 -1.2966
  786MOL0     C 3639   7.866   6.295   1.383 -0.4070 -0.1674  1.4358
  786MOL0     C 3640   7.843   6.439   1.354 -0.1579 -0.3372  0.4571
  786MOL0     C 3641   7.807   6.458   1.204 -0.7145 -0.8305 -1.2052
  786MOL0     C 3642   7.809   6.609   1.159  0.6114  0.1066 -0.0056
  786MOL0     C 3643   7.935   6.687   1.201 -0.3135  0.0395  0.6498
  786MOL0     O 3644   8.054   6.617   1.195 -0.5653  0.1378 -0.2691
  786MOL0     C 3645   8.159   6.669   1.261 -0.0306  0.5958  1.1081
  786MOL0     C 3646   8.270   6.593   1.273 -0.3848  0.7055 -1.4085
  786MOL0     C 3647   8.389   6.652   1.330  0.7849 -0.2811 -0.0501
  786MOL0     C 3648   8.394   6.787   1.371  0.0109 -0.0454  0.4395
  786MOL0     C 3649   8.529   6.840   1.398  0.7816 -0.5139 -0.1177
  786MOL0     O 3650   8.534   6.982   1.403  0.0865  0.5849  0.3594
  786MOL0     C 3651   8.647   7.024   1.463  0.6517 -0.7130 -0.3689
  786MOL0     C 3652   8.647   7.069   1.598  0.4543  0.8857  0.0212
  786MOL0     C 3653   8.771   7.079   1.664 -0.0418 -0.4382  0.6163
  786MOL0     C 3654   8.892   7.065   1.595 -0.8422 -0.1428  0.4239
  786MOL0     O 3655   9.012   7.078   1.668  1.0323 -0.2802 -0.4256
  786MOL0     C 3656   9.135   7.054   1.607  0.0009  1.0192  0.5891
  786MOL0     C 3657   9.239   7.061   1.715 -0.7280 -0.8805  0.0589
  786MOL0     C 3658   9.212   6.944   1.814  0.0351  0.0954  0.6102
  786MOL0     C 3659   9.332   6.892   1.903  1.0615 -0.1542 -0.6114
  786MOL0     C 3660   9.430   7.005   1.944 -0.6960 -0.1415  0.8249
  786MOL0     C 3661   9.544   6.950   2.033 -0.4652  0.5111  0.7324
  786MOL0     C 3662   9.663   7.038   2.044  0.1350 -0.3006  0.1256
  786MOL0     C 3663   9.761   6.988   2.154 -0.5127 -0.1386  0.1014
  786MOL0    Cl 3664   9.879   6.877   2.084  0.2709  0.1509  0.1671
  786MOL0     C 3665   8.888   7.045   1.454 -0.4050 -1.0938 -0.6803
  786MOL0     C 3666   8.764   7.025   1.392  0.0545  1.0715  0.7197
  786MOL0     O 3667   8.611   6.764   1.435 -0.1860  0.3768 -0.2209
  786MOL0     C 3668   8.285   6.867   1.368  0.1153  0.5661  0.5980
  786MOL0     C 3669   8.169   6.803   1.323  0.8553 -0.8588  1.0475
  786MOL0     N 3670   7.790   6.184   1.344 -0.5990 -0.5659 -0.4622
  786MOL0     N 3671   7.841   6.078   1.383  0.5168  0.3859 -0.0770
  786MOL0     C 3672   8.594   5.541   0.931  0.8278  0.3630 -0.0395
  786MOL0     C 3673   8.653   5.546   0.804 -0.3251  0.4670  0.6240
  786MOL0     C 3674   8.973   5.530   0.476 -0.6994  0.1389 -0.5826
  786MOL0     C 3675   9.069   5.615   0.426  0.7389 -0.6161  0.5652
  786MOL0     C 3676   9.117   5.593   0.300  0.1168 -0.0878  0.8205
  786MOL0     C 3677   9.085   5.475   0.227 -0.1951  0.2641  1.0929
  786MOL0     O 3678   9.137   5.468   0.104  0.5160  0.4688  0.5318
  786MOL0     C 3679   9.136   5.336   0.039 -0.4292 -0.7686  0.6328
  786MOL0     C 3680   9.267   5.260   0.075  0.3884 -0.6592  0.7232
  786MOL0     C 3681   9.398   5.347   0.056  0.8854 -0.4673  0.0076
  786MOL0     C 3682   9.451   5.436   0.168  0.6596 -0.3409 -0.8156
  786MOL0     C 3683   9.570   5.516   0.130 -0.2837 -0.7730  0.3646
  786MOL0     C 3684   9.662   5.574   0.090 -1.3809 -0.1817  0.1204
  786MOL0     C 3685   8.995   5.382   0.278 -0.1047 -0.3886  0.6872
  786MOL0     C 3686   8.944   5.411   0.405  0.4893 -0.1343  0.1892
  786MOL0     H 3687   8.940   5.377   0.876  0.6343  1.4380 -0.9943
  786MOL0     H 3688   8.829   5.363   1.095 -1.7203 -3.4147 -0.9965
  786MOL0     H 3689   8.484   5.318   1.201  1.5332  0.1236 -1.6289
  786MOL0     H 3690   8.411   5.429   1.083 -1.9904  1.2392  0.9466
  786MOL0     H 3691   8.443   5.614   1.279 -0.0206 -0.3987  1.0217
  786MOL0     H 3692   8.468   5.476   1.395  2.2407  0.9526 -0.1372
  786MOL0     H 3693   8.266   5.360   1.322  1.0014 -0.0110  0.0761
  786MOL0     H 3694   8.218   5.490   1.206 -0.0562 -0.3784  0.6692
  786MOL0     H 3695   8.111   5.489   1.417  0.2122 -0.6114  0.7859
  786MOL0     H 3696   8.257   5.564   1.487  1.9080 -1.6088 -0.2265
  786MOL0     H 3697   8.036   5.693   1.363 -0.9073  1.1072 -1.8212
  786MOL0     H 3698   8.170   5.698   1.241 -0.0096 -2.2193  0.1589
  786MOL0     H 3699   8.323   5.812   1.363  0.8263  3.2065  1.3907
  786MOL0     H 3700   8.229   5.811   1.515  0.2351 -1.6480  0.3573
  786MOL0     H 3701   8.220   6.003   1.319  0.3354 -1.0754 -0.1227
  786MOL0     H 3702   8.085   5.917   1.264  0.0172  0.8332  0.3861
  786MOL0     H 3703   8.116   6.031   1.546  0.0752  0.1441 -0.1756
  786MOL0     H 3704   7.994   5.918   1.521  1.2270  1.2919  2.4813
  786MOL0     H 3705   8.087   6.285   1.417  0.5235  0.5393  0.8943
  786MOL0     H 3706   7.920   6.506   1.392 -1.7474  1.1388  1.2148
  786MOL0     H 3707   7.760   6.483   1.409 -1.7709  0.3914 -2.3534
  786MOL0     H 3708   7.709   6.419   1.175 -0.7395 -1.5555 -0.1833
  786MOL0     H 3709   7.879   6.397   1.148  2.0884  1.3710 -0.2897
  786MOL0     H 3710   7.810   6.617   1.050  0.8234 -0.0096 -0.0130
  786MOL0     H 3711   7.720   6.664   1.192 -0.3332  0.3665 -2.7085
  786MOL0     H 3712   7.909   6.725   1.300 -2.8431 -1.2692  0.5732
  786MOL0     H 3713   7.970   6.764   1.131 -1.5696  0.5515  0.5549
  786MOL0     H 3714   8.255   6.492   1.236 -1.4826 -0.3381  1.5453
  786MOL0     H 3715   8.478   6.590   1.327  2.0515  1.3908  1.1816
  786MOL0     H 3716   8.560   7.076   1.663 -0.2678 -1.9916 -0.5116
  786MOL0     H 3717   8.778   7.095   1.771 -1.2420 -0.7765  0.7664
  786MOL0     H 3718   9.152   7.124   1.524 -1.0526 -0.4099 -0.8899
  786MOL0     H 3719   9.150   6.957   1.559  0.5553  1.1027  0.5884
  786MOL0     H 3720   9.233   7.157   1.768 -0.4335  0.9133 -2.9764
  786MOL0     H 3721   9.336   7.055   1.665 -2.0228  0.2984 -2.7993
  786MOL0     H 3722   9.174   6.861   1.754  2.3756  1.4265 -3.0396
  786MOL0     H 3723   9.133   6.968   1.886  2.9400 -0.5468  4.3011
  786MOL0     H 3724   9.286   6.836   1.985 -0.1448  0.2710 -0.9838
  786MOL0     H 3725   9.383   6.821   1.837  0.2631 -0.5865 -0.7809
  786MOL0     H 3726   9.377   7.091   1.985 -0.4246 -0.1933  1.2864
  786MOL0     H 3727   9.470   7.041   1.848  1.1678 -0.4090  1.4594
  786MOL0     H 3728   9.581   6.848   2.015  0.6530  1.2438 -1.5124
  786MOL0     H 3729   9.505   6.950   2.135 -0.1231  2.4833  0.8880
  786MOL0     H 3730   9.716   7.040   1.948 -0.3020  1.8001 -0.1168
  786MOL0     H 3731   9.624   7.137   2.066 -2.2698 -1.1413 -0.0553
  786MOL0     H 3732   9.704   6.933   2.229 -2.9403 -0.9628 -2.1878
  786MOL0     H 3733   9.819   7.070   2.197  1.6356 -2.6096  2.3502
  786MOL0     H 3734   8.975   7.044   1.389 -1.0076 -0.8353 -1.5075
  786MOL0     H 3735   8.760   7.002   1.285  1.5096 -0.0794  0.8827
  786MOL0     H 3736   8.292   6.971   1.399  1.0823  1.4652 -2.3477
  786MOL0     H 3737   8.081   6.868   1.322  1.4044 -0.0964  0.0553
  786MOL0     H 3738   8.494   5.579   0.948  1.6236  1.3862  2.8506
  786MOL0     H 3739   8.601   5.586   0.717  1.8218 -2.2228 -2.1003
  786MOL0     H 3740   9.099   5.706   0.476 -2.5578  0.1418  1.4446
  786MOL0     H 3741   9.171   5.672   0.249  0.2948 -0.1512  0.9113
  786MOL0     H 3742   9.118   5.371  -0.063 -1.6019  0.1219  1.1147
  786MOL0     H 3743   9.049   5.274   0.064 -0.5963 -0.6185  0.4268
  786MOL0     H 3744   9.257   5.218   0.176  3.3517 -2.5931  0.3254
  786MOL0     H 3745   9.285   5.174   0.009 -1.5508  0.4229 -1.3495
  786MOL0     H 3746   9.381   5.414  -0.029 -1.7049  1.2284  1.7279
  786MOL0     H 3747   9.486   5.288   0.027  1.3951 -0.3505  1.2882
  786MOL0     H 3748   9.381   5.512   0.204  0.5922 -2.2880  3.8362
  786MOL0     H 3749   9.462   5.365   0.249 -0.6439 -0.4634 -0.7166
  786MOL0     H 3750   9.743   5.625   0.040  0.2812 -0.5695  2.2492
  786MOL0     H 3751   8.975   5.284   0.238  1.7745 -0.9500  1.0487
  786MOL0     H 3752   8.867   5.344   0.440 -1.3126  1.6610 -0.2036
  787MOL0     O 3753   1.936   2.678  10.906 -0.2083 -0.0275 -0.1352
  787MOL0     C 3754   1.920   2.800  10.924  0.2731 -0.3286 -0.3695
  787MOL0     O 3755   1.790   2.858  10.948 -0.1689  0.1951 -0.1359
  787MOL0     C 3756   1.683   2.790  10.981  0.1848 -0.7725 -0.3177
  787MOL0     C 3757   1.619   2.697  10.894  0.4928 -0.1759 -0.8025
  787MOL0     C 3758   1.499   2.648  10.934  0.0778  0.2165 -0.0085
  787MOL0     C 3759   1.461   2.653  11.067  0.5901  1.4323  0.7178
  787MOL0     O 3760   1.355   2.585  11.121 -0.6804 -0.2449 -0.5069
  787MOL0     C 3761   1.306   2.478  11.046  0.6119 -0.8141  0.3564
  787MOL0     C 3762   1.175   2.431  11.110 -0.2702 -0.0468  0.8125
  787MOL0     C 3763   1.120   2.317  11.024  0.2339 -0.4261  0.5429
  787MOL0     C 3764   1.196   2.191  11.044 -0.5900 -0.3607  0.1691
  787MOL0     C 3765   1.133   2.063  10.988 -0.2366  0.6438 -0.4669
  787MOL0     C 3766   1.209   1.949  11.039 -0.0249  0.8800 -0.3553
  787MOL0     C 3767   1.119   1.827  11.013 -0.8341  0.0869  0.1295
  787MOL0     C 3768   1.179   1.690  11.040 -0.0725 -0.5194 -0.4164
  787MOL0     N 3769   1.096   1.575  10.999  0.2525  0.2357 -0.8367
  787MOL0     C 3770   0.954   1.569  10.998  0.2993 -0.1668 -0.1332
  787MOL0     C 3771   0.932   1.441  10.955 -1.4418 -0.1203 -0.0797
  787MOL0     C 3772   0.799   1.386  10.929  0.0984  1.1557 -0.1063
  787MOL0     C 3773   0.782   1.361  10.781  0.4405  0.3042 -0.3467
  787MOL0     C 3774   0.752   1.481  10.690  0.3986 -0.1832  0.2910
  787MOL0     C 3775   0.643   1.575  10.743 -0.2743 -0.4005 -0.5964
  787MOL0     O 3776   0.536   1.489  10.794 -0.7455  1.6420 -0.5408
  787MOL0     C 3777   0.433   1.548  10.852  0.0603 -0.2378 -0.5778
  787MOL0     C 3778   0.327   1.581  10.770  0.1156 -0.7567 -0.0842
  787MOL0     C 3779   0.217   1.651  10.829 -0.5647  0.1558 -0.2736
  787MOL0     C 3780   0.221   1.706  10.953 -0.0153 -0.5977  0.3636
  787MOL0     C 3781   0.122   1.796  10.993  0.7945 -0.2969 -0.6184
  787MOL0     O 3782   0.040   1.851  10.893  0.5145  0.5551  0.5562
  787MOL0     C 3783  -0.041   1.954  10.928 -0.0992  0.1965  1.0412
  787MOL0     C 3784  -0.168   1.940  10.983  0.2611  1.8526 -0.6346
  787MOL0     C 3785  -0.245   2.051  11.026 -0.1484  0.3249  1.0697
  787MOL0     C 3786  -0.199   2.178  11.007  0.1477 -0.8221  0.7972
  787MOL0     O 3787  -0.270   2.276  11.051 -0.5543  0.7598  0.7747
  787MOL0     C 3788  -0.228   2.403  11.032 -0.3006  0.5481  0.1545
  787MOL0     C 3789  -0.315   2.505  11.102  0.6938 -0.1553 -0.1091
  787MOL0     C 3790  -0.464   2.478  11.079 -0.9777  0.5444  0.0496
  787MOL0     C 3791  -0.554   2.599  11.130  0.8480  0.2330 -0.3556
  787MOL0     C 3792  -0.700   2.587  11.083 -0.9363  0.2344  0.7977
  787MOL0     C 3793  -0.764   2.470  11.155  0.0728  1.1826  0.4220
  787MOL0     C 3794  -0.905   2.470  11.109 -0.1353  0.1533  0.4712
  787MOL0     C 3795  -0.983   2.347  11.175  0.5041  0.2332  0.4609
  787MOL0    Cl 3796  -1.152   2.386  11.222  0.2446 -0.1232  0.4521
  787MOL0     C 3797  -0.069   2.193  10.946 -0.7468  0.5357  0.2431
  787MOL0     C 3798   0.010   2.086  10.921  0.6794  0.0561  0.2243
  787MOL0     O 3799   0.114   1.824  11.107  0.1423  0.0823 -0.7115
  787MOL0     C 3800   0.332   1.674  11.034  0.4605 -0.6303  0.0133
  787MOL0     C 3801   0.439   1.598  10.993 -0.4628 -0.0025  0.1985
  787MOL0     N 3802   1.050   1.369  10.937  0.4487 -0.0248  0.3579
  787MOL0     N 3803   1.145   1.455  10.946 -0.6874 -0.9549 -0.1228
  787MOL0     C 3804   1.533   2.726  11.153  0.1325 -0.3849 -0.8393
  787MOL0     C 3805   1.634   2.804  11.105  0.7140  0.4008  0.7265
  787MOL0     C 3806   2.028   2.887  10.916  0.2596 -0.8980  0.5271
  787MOL0     C 3807   2.009   3.027  10.926 -0.3542  0.4152  0.4296
  787MOL0     C 3808   2.114   3.119  10.927  0.5302  0.6631 -0.8323
  787MOL0     C 3809   2.250   3.065  10.925 -0.0277 -0.6273  0.9614
  787MOL0     O 3810   2.340   3.173  10.944 -0.0144  0.1858  0.7197
  787MOL0     C 3811   2.482   3.156  10.949 -0.3894  0.3395 -0.9184
  787MOL0     C 3812   2.529   3.117  10.809  0.6180  0.1915 -1.3499
  787MOL0     C 3813   2.667   3.046  10.814  0.6119 -0.3452 -0.0798
  787MOL0     C 3814   2.779   3.148  10.802 -0.4069 -0.0033 -0.3865
  787MOL0     C 3815   2.803   3.239  10.908 -0.7231 -0.1402 -0.2622
  787MOL0     C 3816   2.841   3.314  10.991  0.2889  0.2452  0.1136
  787MOL0     C 3817   2.278   2.929  10.907 -0.5520  1.0808 -0.0921
  787MOL0     C 3818   2.164   2.837  10.904 -0.7001  0.2603 -0.5508
  787MOL0     H 3819   1.660   2.670  10.797 -2.1212  1.2019 -2.4066
  787MOL0     H 3820   1.451   2.604  10.847  2.5087  0.7827 -1.7389
  787MOL0     H 3821   1.379   2.399  11.024 -0.4328 -1.0291 -2.7214
  787MOL0     H 3822   1.272   2.511  10.948  0.1297  1.3389  1.2101
  787MOL0     H 3823   1.101   2.511  11.115 -0.8586 -0.4456 -0.7107
  787MOL0     H 3824   1.200   2.389  11.208  0.1572  1.9479  1.6185
  787MOL0     H 3825   1.117   2.354  10.921 -0.4503  3.7693  1.8937
  787MOL0     H 3826   1.014   2.303  11.047 -0.2502  1.5577 -0.2151
  787MOL0     H 3827   1.290   2.204  10.989 -1.4546  3.1684 -0.6972
  787MOL0     H 3828   1.216   2.177  11.151  2.5177  1.3109 -0.0817
  787MOL0     H 3829   1.123   2.061  10.879 -2.7763 -0.8362 -0.2837
  787MOL0     H 3830   1.029   2.053  11.021 -0.5620  0.9362 -1.3573
  787MOL0     H 3831   1.218   1.959  11.148  3.5240 -2.4703 -0.1290
  787MOL0     H 3832   1.307   1.944  10.991  0.7291  3.7916  0.6444
  787MOL0     H 3833   1.026   1.830  11.071 -0.1024 -3.0805  1.6596
  787MOL0     H 3834   1.088   1.825  10.908  2.8251  1.2180 -1.1354
  787MOL0     H 3835   1.196   1.690  11.148  0.5118  0.0213 -0.4992
  787MOL0     H 3836   1.281   1.671  11.005  1.0817  1.8112  1.4283
  787MOL0     H 3837   0.878   1.641  11.026 -0.1721 -0.7576  0.1045
  787MOL0     H 3838   0.738   1.465  10.974 -0.0214  0.4115  1.0680
  787MOL0     H 3839   0.778   1.294  10.983 -0.4525  2.0198  1.2010
  787MOL0     H 3840   0.706   1.283  10.769  0.0104  0.8077 -0.9695
  787MOL0     H 3841   0.873   1.307  10.752  0.0920 -0.6603  0.3211
  787MOL0     H 3842   0.841   1.544  10.681  0.4084 -0.3065 -0.5950
  787MOL0     H 3843   0.737   1.460  10.584 -1.3604 -0.8372  0.6355
  787MOL0     H 3844   0.613   1.650  10.670 -0.9316  1.2040  1.2396
  787MOL0     H 3845   0.690   1.644  10.813 -1.3006  0.1707 -0.4615
  787MOL0     H 3846   0.329   1.546  10.667 -0.9343 -3.8027  0.8170
  787MOL0     H 3847   0.127   1.657  10.768 -0.3629  0.6924 -0.5329
  787MOL0     H 3848  -0.218   1.844  10.981  0.3146  1.8181 -0.3276
  787MOL0     H 3849  -0.342   2.057  11.074 -1.1386  2.0841 -0.9573
  787MOL0     H 3850  -0.231   2.422  10.924 -3.5257 -2.5671 -0.4941
  787MOL0     H 3851  -0.129   2.427  11.071 -2.0788  0.7684  5.3624
  787MOL0     H 3852  -0.288   2.601  11.057  1.0908 -0.8560 -1.4038
  787MOL0     H 3853  -0.286   2.509  11.207  0.2457 -1.7291  0.0909
  787MOL0     H 3854  -0.492   2.380  11.118 -2.5034  0.7264 -0.5003
  787MOL0     H 3855  -0.466   2.479  10.969  3.3890  1.0586 -0.2152
  787MOL0     H 3856  -0.550   2.593  11.239  0.7461  1.3152 -0.2825
  787MOL0     H 3857  -0.514   2.698  11.104  1.1134 -0.1634 -1.4942
  787MOL0     H 3858  -0.703   2.569  10.976 -0.9960 -1.2925  1.0262
  787MOL0     H 3859  -0.754   2.673  11.121 -0.2445  0.2406  1.8179
  787MOL0     H 3860  -0.771   2.480  11.264  2.1641  1.4679  0.5625
  787MOL0     H 3861  -0.715   2.375  11.131 -0.1270  1.0587  0.4963
  787MOL0     H 3862  -0.956   2.564  11.130 -3.2093 -0.6521 -2.4816
  787MOL0     H 3863  -0.919   2.440  11.004  0.6443 -3.2821  1.2195
  787MOL0     H 3864  -0.918   2.311  11.255  0.9790 -2.6300 -1.1004
  787MOL0     H 3865  -0.992   2.254  11.119 -2.0924  0.0024  1.1154
  787MOL0     H 3866  -0.025   2.283  10.907  0.3634 -1.1874 -2.7958
  787MOL0     H 3867   0.111   2.101  10.882  2.1247  0.3645  3.7252
  787MOL0     H 3868   0.349   1.729  11.126  1.8332  0.1902 -0.6990
  787MOL0     H 3869   0.519   1.589  11.066 -1.3817 -1.7357  1.0367
  787MOL0     H 3870   1.513   2.715  11.259 -0.7503 -3.5298 -1.2214
  787MOL0     H 3871   1.674   2.871  11.181  1.5189 -0.9502  1.5421
  787MOL0     H 3872   1.910   3.073  10.926 -0.7025 -0.1592 -2.3616
  787MOL0     H 3873   2.093   3.222  10.953  3.0416  0.7346  1.3845
  787MOL0     H 3874   2.518   3.087  11.025 -0.9491  1.2004  0.1504
  787MOL0     H 3875   2.525   3.254  10.973  1.4058 -0.7275  0.4352
  787MOL0     H 3876   2.460   3.049  10.759 -1.1717 -1.4068  2.8681
  787MOL0     H 3877   2.527   3.207  10.747  0.1290  2.1244  1.2960
  787MOL0     H 3878   2.677   2.982  10.726 -0.3640 -0.8186  0.1400
  787MOL0     H 3879   2.683   2.989  10.905 -2.2126 -2.1524 -0.5761
  787MOL0     H 3880   2.869   3.087  10.790 -0.1348  0.4988 -0.9428
  787MOL0     H 3881   2.760   3.209  10.713  3.0126  0.0279 -1.2367
  787MOL0     H 3882   2.882   3.377  11.067  0.4370  1.0142 -0.5912
  787MOL0     H 3883   2.377   2.886  10.891 -0.9214  0.6341 -1.2563
  787MOL0     H 3884   2.178   2.732  10.883 -1.7398  0.2879 -1.5013
  788MOL0     O 3885   6.067   2.065   6.166 -0.1009 -0.4313  0.3459
  788MOL0     C 3886   6.168   2.032   6.222 -0.2384 -0.1632  0.0545
  788MOL0     O 3887   6.182   1.997   6.349  0.3315 -0.3523  0.0505
  788MOL0     C 3888   6.085   1.997   6.448  0.1065  0.2580 -0.2814
  788MOL0     C 3889   5.998   2.103   6.455  0.5937 -0.3494 -0.2688
  788MOL0     C 3890   5.882   2.098   6.540  0.0074  0.2791 -0.3379
  788MOL0     C 3891   5.862   1.991   6.629 -0.5903  0.0258 -0.5942
  788MOL0     O 3892   5.770   1.985   6.728  0.2083  0.0313  0.6180
  788MOL0     C 3893   5.630   1.998   6.679 -0.4211  0.3192  0.0273
  788MOL0     C 3894   5.540   2.010   6.800 -0.5037 -0.9330  0.6279
  788MOL0     C 3895   5.573   2.141   6.886 -0.4525  0.7439 -0.3673
  788MOL0     C 3896   5.485   2.170   7.008  0.3213 -0.9221  0.3931
  788MOL0     C 3897   5.532   2.291   7.085  0.3224 -0.4556 -0.6955
  788MOL0     C 3898   5.464   2.281   7.228  0.3892  0.0757  0.1410
  788MOL0     C 3899   5.519   2.375   7.332 -0.2577 -0.1699 -0.3116
  788MOL0     C 3900   5.437   2.379   7.460 -0.5381 -0.9408  0.4084
  788MOL0     N 3901   5.443   2.517   7.511  0.5637 -0.0782 -0.1174
  788MOL0     C 3902   5.364   2.617   7.469 -0.3808  0.0165 -0.2646
  788MOL0     C 3903   5.407   2.729   7.534 -0.5397 -1.0936  0.4184
  788MOL0     C 3904   5.325   2.858   7.529 -0.8952 -0.6656 -0.0781
  788MOL0     C 3905   5.185   2.847   7.588 -1.6186  0.0725  0.0602
  788MOL0     C 3906   5.184   2.832   7.743 -0.0320  0.8191  0.7409
  788MOL0     C 3907   5.244   2.952   7.804  0.7242  0.1173 -0.0335
  788MOL0     O 3908   5.215   2.952   7.942  0.0365 -0.3641 -0.3386
  788MOL0     C 3909   5.143   3.058   8.004 -0.8244  0.7981 -0.7999
  788MOL0     C 3910   5.060   3.011   8.109  0.4732  0.0500  0.1333
  788MOL0     C 3911   5.000   3.109   8.193 -0.2261 -1.7063  0.1296
  788MOL0     C 3912   5.025   3.245   8.182  0.0676 -0.3663  0.7193
  788MOL0     C 3913   4.971   3.336   8.288 -0.5106  0.5838 -0.1759
  788MOL0     O 3914   4.870   3.285   8.368  0.7238  0.3484  0.3721
  788MOL0     C 3915   4.799   3.367   8.447  0.0556  1.2482 -0.9032
  788MOL0     C 3916   4.795   3.318   8.582  0.7654 -0.8129 -0.1378
  788MOL0     C 3917   4.730   3.402   8.675  0.2246 -0.3830 -0.1821
  788MOL0     C 3918   4.669   3.523   8.646  0.9393 -0.5731 -0.2222
  788MOL0     O 3919   4.604   3.603   8.735 -0.7931  0.1325  0.4714
  788MOL0     C 3920   4.493   3.561   8.804  0.2390  0.2933 -0.6256
  788MOL0     C 3921   4.409   3.678   8.856  0.0769  0.9479  0.4681
  788MOL0     C 3922   4.478   3.753   8.967  0.3553 -0.3724  0.0488
  788MOL0     C 3923   4.401   3.873   9.018  0.4832  0.0301  0.1461
  788MOL0     C 3924   4.475   3.930   9.140 -1.2311 -1.6920  0.5751
  788MOL0     C 3925   4.423   4.063   9.191  0.6367  0.1864 -0.2542
  788MOL0     C 3926   4.491   4.127   9.309 -0.1319 -0.0672 -1.0686
  788MOL0     C 3927   4.448   4.269   9.330 -0.5935 -0.3284 -0.6555
  788MOL0    Cl 3928   4.277   4.270   9.354 -0.0970 -0.1799  0.2549
  788MOL0     C 3929   4.684   3.566   8.515 -0.2600 -0.9713 -0.3846
  788MOL0     C 3930   4.746   3.490   8.413  0.8059 -0.3785  0.5907
  788MOL0     O 3931   5.016   3.451   8.291 -0.4856  1.0164 -0.3435
  788MOL0     C 3932   5.114   3.289   8.086  0.0871  0.2438  0.0878
  788MOL0     C 3933   5.165   3.196   7.994 -0.0669 -0.5682 -0.9094
  788MOL0     N 3934   5.514   2.698   7.618 -0.5507  0.1360  0.0892
  788MOL0     N 3935   5.540   2.577   7.594 -0.1999 -0.7041 -0.2160
  788MOL0     C 3936   5.960   1.895   6.636 -0.1963  0.0235 -0.1716
  788MOL0     C 3937   6.066   1.894   6.546 -0.3617 -0.0507  0.1034
  788MOL0     C 3938   6.289   2.034   6.138 -0.2658 -0.0825 -0.2368
  788MOL0     C 3939   6.417   2.009   6.195  1.1553 -0.6677 -0.4206
  788MOL0     C 3940   6.537   2.013   6.131 -0.4736  0.0370  0.2732
  788MOL0     C 3941   6.537   2.034   5.991 -0.4895  0.9817  0.0094
  788MOL0     O 3942   6.656   2.032   5.918  0.5980 -0.0731 -0.3148
  788MOL0     C 3943   6.778   2.064   5.976 -0.1508  0.2147 -0.0231
  788MOL0     C 3944   6.859   1.948   6.025  0.2016 -0.4611 -0.8693
  788MOL0     C 3945   6.907   1.846   5.921  0.2127 -0.4151 -0.0654
  788MOL0     C 3946   6.918   1.897   5.776 -0.7439  0.1538  0.6187
  788MOL0     C 3947   7.006   1.817   5.678  0.4882  0.1428 -0.9579
  788MOL0     C 3948   7.080   1.777   5.593 -0.8652  0.1691  0.1277
  788MOL0     C 3949   6.417   2.063   5.931  1.0424  0.0452 -0.8163
  788MOL0     C 3950   6.290   2.059   6.000 -0.4195 -0.1232  0.4959
  788MOL0     H 3951   6.022   2.191   6.397 -0.4378  0.0838 -0.0454
  788MOL0     H 3952   5.816   2.184   6.547  1.8467  1.8785 -1.6149
  788MOL0     H 3953   5.610   1.907   6.621  0.1810 -0.2573  0.6970
  788MOL0     H 3954   5.610   2.086   6.618 -3.0342 -1.7660 -2.4205
  788MOL0     H 3955   5.555   1.926   6.868  1.7847  0.5471  2.0845
  788MOL0     H 3956   5.435   2.019   6.770 -0.2049 -0.8455 -0.4514
  788MOL0     H 3957   5.557   2.228   6.822 -1.5068  2.6308  2.2992
  788MOL0     H 3958   5.677   2.141   6.919 -1.2241  0.5837  2.2702
  788MOL0     H 3959   5.384   2.196   6.976  0.6090  0.4547  0.5561
  788MOL0     H 3960   5.489   2.077   7.066  0.7102 -0.3127  1.3693
  788MOL0     H 3961   5.501   2.388   7.044 -0.3346 -0.1836  0.3774
  788MOL0     H 3962   5.640   2.305   7.099  0.3289  0.3985 -1.4915
  788MOL0     H 3963   5.453   2.182   7.273  0.4091 -0.2003 -0.4516
  788MOL0     H 3964   5.361   2.312   7.208  0.8402  0.7739 -1.2263
  788MOL0     H 3965   5.624   2.350   7.353  0.3838  0.9746 -1.9542
  788MOL0     H 3966   5.528   2.470   7.278  0.4540  0.7243  1.3227
  788MOL0     H 3967   5.487   2.308   7.527 -0.4873  0.8775  2.4328
  788MOL0     H 3968   5.331   2.363   7.443 -0.8063  1.8098 -1.2345
  788MOL0     H 3969   5.277   2.615   7.404 -2.5669  0.5510  2.4655
  788MOL0     H 3970   5.322   2.891   7.425 -2.7451 -0.6298 -0.0328
  788MOL0     H 3971   5.376   2.943   7.575 -1.4532  0.0064 -0.6861
  788MOL0     H 3972   5.126   2.759   7.560 -1.4128 -0.9377  2.5018
  788MOL0     H 3973   5.121   2.931   7.560 -3.3524 -1.6907 -1.6678
  788MOL0     H 3974   5.081   2.825   7.780 -0.9625 -0.8503 -1.8519
  788MOL0     H 3975   5.236   2.739   7.767 -0.6420  0.0220 -0.8955
  788MOL0     H 3976   5.207   3.045   7.762  1.6807  1.5266  2.0489
  788MOL0     H 3977   5.351   2.939   7.786  0.6700 -1.4393  0.5123
  788MOL0     H 3978   5.036   2.906   8.122  0.2801  0.1724  0.8103
  788MOL0     H 3979   4.949   3.069   8.280  2.9136 -2.4192  1.8151
  788MOL0     H 3980   4.836   3.220   8.604 -2.8415 -2.8397 -1.4340
  788MOL0     H 3981   4.720   3.374   8.780 -2.3656 -2.3867 -0.8355
  788MOL0     H 3982   4.535   3.503   8.887  2.2787  0.7067 -1.3330
  788MOL0     H 3983   4.432   3.502   8.734  0.9261  0.2711 -1.2112
  788MOL0     H 3984   4.312   3.635   8.883  0.3044  0.6285  0.7873
  788MOL0     H 3985   4.392   3.746   8.772 -1.5590  0.9865  0.8033
  788MOL0     H 3986   4.574   3.790   8.932  1.1060 -1.2575  1.1220
  788MOL0     H 3987   4.490   3.688   9.053  3.5598  1.4609  1.1358
  788MOL0     H 3988   4.397   3.939   8.931  2.9275 -3.2911 -2.7839
  788MOL0     H 3989   4.301   3.847   9.054  0.2783  0.0986 -0.3735
  788MOL0     H 3990   4.575   3.958   9.107 -1.9205  0.8326  0.4048
  788MOL0     H 3991   4.470   3.855   9.220 -0.7819 -3.5374 -1.0429
  788MOL0     H 3992   4.317   4.037   9.199  0.9718 -2.0706 -2.1782
  788MOL0     H 3993   4.437   4.135   9.110 -0.1394  0.7757  0.1117
  788MOL0     H 3994   4.475   4.073   9.403  1.3484  3.1436  1.2423
  788MOL0     H 3995   4.599   4.145   9.296  0.1522  0.3180  1.2656
  788MOL0     H 3996   4.472   4.329   9.242  2.4241  2.4127  1.7981
  788MOL0     H 3997   4.507   4.315   9.410  0.9149 -2.7396 -0.2732
  788MOL0     H 3998   4.646   3.664   8.487  0.6765  0.0306  1.6156
  788MOL0     H 3999   4.743   3.528   8.311  0.2144 -1.0388  0.3564
  788MOL0     H 4000   5.146   3.392   8.080  1.6075 -0.2536 -1.1010
  788MOL0     H 4001   5.246   3.231   7.932  0.2710 -0.7531 -0.5753
  788MOL0     H 4002   5.949   1.811   6.703  0.0878 -1.8473 -2.3422
  788MOL0     H 4003   6.147   1.822   6.551  0.1567  0.5875  1.6284
  788MOL0     H 4004   6.410   2.014   6.303  0.0551  1.5399 -0.5421
  788MOL0     H 4005   6.615   1.975   6.196 -2.1310 -1.7783  1.3173
  788MOL0     H 4006   6.764   2.131   6.061  0.9886  3.2398 -2.0292
  788MOL0     H 4007   6.838   2.132   5.915  2.0579 -1.7327 -0.1425
  788MOL0     H 4008   6.942   1.990   6.084  2.5345 -1.7817 -2.9933
  788MOL0     H 4009   6.803   1.892   6.100  3.3249  0.0477  2.1238
  788MOL0     H 4010   6.845   1.757   5.920 -0.5162  0.0530 -2.2162
  788MOL0     H 4011   7.008   1.817   5.951  1.1562  1.9330 -0.7227
  788MOL0     H 4012   6.814   1.901   5.745 -0.3894  0.0172 -0.6626
  788MOL0     H 4013   6.959   1.998   5.775 -1.9408  0.7294  2.9728
  788MOL0     H 4014   7.152   1.745   5.521  0.2152  1.7855  0.4368
  788MOL0     H 4015   6.418   2.083   5.824  0.7313  0.9557 -0.6664
  788MOL0     H 4016   6.197   2.080   5.948  0.1170 -1.0642 -0.9291
  789MOL0     O 4017   8.406   0.817   7.455  0.4830  0.4409 -1.1769
  789MOL0     C 4018   8.448   0.854   7.348 -0.4561 -1.1059  0.2569
  789MOL0     O 4019   8.369   0.886   7.239  0.0055 -0.0862 -1.0807
  789MOL0     C 4020   8.233   0.904   7.257  0.4169  0.2837  0.3679
  789MOL0     C 4021   8.140   0.798   7.292 -0.5104 -0.0926 -0.7676
  789MOL0     C 4022   8.004   0.827   7.300 -0.3096  0.5068 -1.2746
  789MOL0     C 4023   7.956   0.956   7.278 -0.2485  0.0679  0.3783
  789MOL0     O 4024   7.823   0.977   7.286  0.1273 -0.4161  0.3875
  789MOL0     C 4025   7.765   1.085   7.204  0.0035 -0.3537 -0.3631
  789MOL0     C 4026   7.617   1.122   7.232  0.3883 -0.0660  0.1929
  789MOL0     C 4027   7.520   1.025   7.171  0.3255 -0.0730  0.2283
  789MOL0     C 4028   7.374   1.082   7.201  0.1373  0.6432  0.0653
  789MOL0     C 4029   7.278   0.989   7.139 -0.5658 -0.3615  0.4806
  789MOL0     C 4030   7.132   1.022   7.177 -0.1922  0.1746 -0.5809
  789MOL0     C 4031   7.013   0.937   7.134  0.0780 -0.4452 -0.1183
  789MOL0     C 4032   7.022   0.903   6.981  0.4909 -0.7484 -0.6962
  789MOL0     N 4033   6.902   0.858   6.920 -0.3964  0.0459 -1.4255
  789MOL0     C 4034   6.806   0.773   6.975 -0.1125 -0.0416 -0.5402
  789MOL0     C 4035   6.704   0.774   6.890  0.5884  0.1586  0.1926
  789MOL0     C 4036   6.570   0.698   6.899  0.0131  0.6098 -0.2852
  789MOL0     C 4037   6.583   0.558   6.970 -0.7195  0.3841 -0.2785
  789MOL0     C 4038   6.460   0.466   6.945  0.0037 -0.3228 -0.0209
  789MOL0     C 4039   6.327   0.527   6.986 -0.1229  0.3638  0.4791
  789MOL0     O 4040   6.232   0.422   6.958 -0.4006  0.0228  0.3212
  789MOL0     C 4041   6.109   0.413   7.021  0.6922 -0.3319  0.9069
  789MOL0     C 4042   6.045   0.528   7.072 -0.5674 -0.1581 -0.2875
  789MOL0     C 4043   5.932   0.509   7.150  0.4376  0.7298  0.5325
  789MOL0     C 4044   5.873   0.386   7.165 -0.5667  1.4366  0.9300
  789MOL0     C 4045   5.747   0.364   7.215  1.5520 -0.7756 -0.6881
  789MOL0     O 4046   5.686   0.467   7.273  0.2179 -0.3352  0.1651
  789MOL0     C 4047   5.558   0.445   7.301 -0.2236 -1.4783  0.0871
  789MOL0     C 4048   5.464   0.497   7.217 -0.3127  0.0437 -0.0874
  789MOL0     C 4049   5.331   0.493   7.255  0.7095 -0.9748 -0.7626
  789MOL0     C 4050   5.282   0.441   7.370 -0.0970 -1.2974 -0.6274
  789MOL0     O 4051   5.148   0.439   7.408  0.3682  0.0693  0.0928
  789MOL0     C 4052   5.056   0.495   7.306 -0.3852  0.6922  0.6251
  789MOL0     C 4053   4.910   0.481   7.361  0.3316  0.1700 -0.0743
  789MOL0     C 4054   4.815   0.508   7.248  0.9730  0.7569 -1.1959
  789MOL0     C 4055   4.671   0.480   7.290 -0.0201  0.3777  0.0813
  789MOL0     C 4056   4.568   0.488   7.174 -0.2159 -0.1765  0.6235
  789MOL0     C 4057   4.551   0.646   7.156  0.6108 -0.6040 -0.2691
  789MOL0     C 4058   4.451   0.679   7.046  0.4957 -0.0942 -0.2667
  789MOL0     C 4059   4.309   0.656   7.102  0.0063  0.7365  1.2192
  789MOL0    Cl 4060   4.258   0.810   7.182 -0.0200 -0.0240  0.1756
  789MOL0     C 4061   5.384   0.407   7.465 -0.2482 -0.0886 -0.2936
  789MOL0     C 4062   5.522   0.410   7.433  0.4388  0.5932  0.1652
  789MOL0     O 4063   5.700   0.252   7.215  0.2704  0.4017 -0.0309
  789MOL0     C 4064   5.933   0.271   7.107 -1.1041 -0.7938  0.1157
  789MOL0     C 4065   6.055   0.286   7.037  0.1377  0.4860 -0.9133
  789MOL0     N 4066   6.727   0.850   6.783 -0.5911 -0.0942 -0.1271
  789MOL0     N 4067   6.850   0.894   6.797  0.5824 -0.0746  0.4817
  789MOL0     C 4068   8.055   1.065   7.246 -0.1957  0.2464  0.7468
  789MOL0     C 4069   8.194   1.036   7.241  0.4710 -0.1873 -0.7382
  789MOL0     C 4070   8.597   0.875   7.336 -0.3599  0.7458 -0.3039
  789MOL0     C 4071   8.688   0.840   7.442 -0.2583 -0.3882  0.1114
  789MOL0     C 4072   8.826   0.843   7.423 -0.1952 -1.5244 -0.5322
  789MOL0     C 4073   8.885   0.889   7.308 -0.6008 -1.3296 -0.4248
  789MOL0     O 4074   9.018   0.923   7.313  0.5282 -0.4466 -0.2263
  789MOL0     C 4075   9.104   0.894   7.208 -0.0264 -0.9377 -0.6591
  789MOL0     C 4076   9.113   0.745   7.161 -0.7308 -0.5471  0.3125
  789MOL0     C 4077   9.168   0.668   7.279 -0.0426  0.3294  0.2990
  789MOL0     C 4078   9.220   0.542   7.230 -0.5003  0.0094 -0.4674
  789MOL0     C 4079   9.272   0.460   7.335 -0.6374  0.4110  0.3851
  789MOL0     C 4080   9.319   0.381   7.416 -0.4588  0.2584 -0.7131
  789MOL0     C 4081   8.803   0.931   7.202  0.0104 -0.0075 -0.5352
  789MOL0     C 4082   8.661   0.925   7.216  0.0003  1.7514 -0.2608
  789MOL0     H 4083   8.179   0.703   7.326 -1.5708  0.7391  3.3045
  789MOL0     H 4084   7.947   0.741   7.334 -1.6354  1.6888 -0.3851
  789MOL0     H 4085   7.781   1.052   7.101 -0.5022  0.2548 -0.6441
  789MOL0     H 4086   7.824   1.176   7.223 -0.3141 -0.2940  0.3518
  789MOL0     H 4087   7.594   1.223   7.197  0.8347  0.8606  2.4090
  789MOL0     H 4088   7.610   1.121   7.341  1.1103 -1.9678  0.2811
  789MOL0     H 4089   7.536   0.924   7.209 -1.0445 -1.1969 -1.9488
  789MOL0     H 4090   7.542   1.026   7.064  4.7078 -2.5037  0.8822
  789MOL0     H 4091   7.349   1.102   7.306 -3.1972 -0.9862 -0.3121
  789MOL0     H 4092   7.353   1.176   7.150  0.7952  1.2699  0.9109
  789MOL0     H 4093   7.301   0.889   7.177  1.6337  0.2938  1.0400
  789MOL0     H 4094   7.298   0.995   7.031 -0.8306  1.4489  0.5100
  789MOL0     H 4095   7.115   1.126   7.147 -2.4767  0.3274  1.0246
  789MOL0     H 4096   7.135   1.028   7.286  0.3021 -0.6710 -0.5387
  789MOL0     H 4097   7.010   0.840   7.185 -2.5343  0.9176  2.6273
  789MOL0     H 4098   6.924   0.995   7.159  0.1584 -1.1999  2.1669
  789MOL0     H 4099   7.108   0.837   6.971  1.1895  0.4662 -3.5065
  789MOL0     H 4100   7.045   1.000   6.936 -0.0384 -0.9814 -1.4894
  789MOL0     H 4101   6.830   0.719   7.065  0.1465  2.8060  1.2202
  789MOL0     H 4102   6.529   0.693   6.798  0.2374 -1.0549 -0.3149
  789MOL0     H 4103   6.496   0.756   6.955 -1.7491 -1.6419 -0.1214
  789MOL0     H 4104   6.591   0.587   7.075 -2.1413  0.5388 -0.1882
  789MOL0     H 4105   6.679   0.509   6.954  0.1367  0.4011  3.8462
  789MOL0     H 4106   6.464   0.450   6.837  0.7767  1.7914 -0.3557
  789MOL0     H 4107   6.477   0.369   6.992  1.2850 -0.0381  0.1362
  789MOL0     H 4108   6.318   0.620   6.929 -2.6792  0.2910  0.6567
  789MOL0     H 4109   6.329   0.547   7.094  3.3384  0.1529  0.5454
  789MOL0     H 4110   6.091   0.624   7.056 -0.4066  0.8112  4.4772
  789MOL0     H 4111   5.895   0.599   7.197  0.3309  0.4004  1.0934
  789MOL0     H 4112   5.486   0.539   7.119  0.9884 -2.9238 -1.1777
  789MOL0     H 4113   5.274   0.527   7.169  0.4412 -0.7276 -0.4873
  789MOL0     H 4114   5.066   0.436   7.215 -0.1306  3.2351 -1.0916
  789MOL0     H 4115   5.071   0.601   7.285  0.1339  0.2884 -1.2116
  789MOL0     H 4116   4.873   0.542   7.444 -1.2128 -0.9181  0.0906
  789MOL0     H 4117   4.901   0.380   7.402 -3.1283  0.7304  0.8481
  789MOL0     H 4118   4.840   0.438   7.168  2.3661 -0.5808  0.3526
  789MOL0     H 4119   4.824   0.613   7.216 -0.9442  0.4848 -2.8297
  789MOL0     H 4120   4.674   0.372   7.311  2.5333  0.3453 -0.1475
  789MOL0     H 4121   4.643   0.533   7.381 -3.1988  1.9011 -1.6151
  789MOL0     H 4122   4.479   0.431   7.202 -0.2101  0.1734  1.3777
  789MOL0     H 4123   4.612   0.452   7.081  0.7116  2.7170 -0.1636
  789MOL0     H 4124   4.649   0.686   7.126 -0.1878 -0.7765 -3.3552
  789MOL0     H 4125   4.535   0.703   7.249  2.1137 -1.2905  0.4506
  789MOL0     H 4126   4.460   0.782   7.010 -0.2791 -0.6265 -2.0968
  789MOL0     H 4127   4.466   0.612   6.961 -0.5672 -0.6138 -0.0523
  789MOL0     H 4128   4.294   0.580   7.180 -0.7132  0.8229  1.1691
  789MOL0     H 4129   4.242   0.627   7.021  1.9847 -0.3501 -0.1060
  789MOL0     H 4130   5.357   0.392   7.569 -0.7865  2.5516  0.0333
  789MOL0     H 4131   5.592   0.380   7.510  2.0378  2.9414 -0.3026
  789MOL0     H 4132   5.896   0.169   7.107 -0.3408 -1.2353  4.0660
  789MOL0     H 4133   6.105   0.201   6.992 -1.7242 -0.0832 -2.0165
  789MOL0     H 4134   8.030   1.170   7.228  3.2917  0.8214 -1.9173
  789MOL0     H 4135   8.264   1.118   7.227 -1.7074  1.5449 -2.2768
  789MOL0     H 4136   8.648   0.828   7.542  0.3171 -0.2036  0.3685
  789MOL0     H 4137   8.881   0.823   7.514  2.8834  1.9088 -1.3683
  789MOL0     H 4138   9.203   0.923   7.245 -1.5910  1.6731  1.9977
  789MOL0     H 4139   9.068   0.959   7.128  0.5936 -0.2208 -0.3767
  789MOL0     H 4140   9.012   0.715   7.130 -0.4229 -0.2311 -1.0584
  789MOL0     H 4141   9.172   0.722   7.071 -0.6601 -3.2356  0.9488
  789MOL0     H 4142   9.086   0.650   7.349 -1.6833 -0.1240 -1.6530
  789MOL0     H 4143   9.241   0.728   7.334 -0.1481  0.8290 -0.0931
  789MOL0     H 4144   9.137   0.492   7.178 -1.7520  1.4383  0.0678
  789MOL0     H 4145   9.307   0.557   7.166 -1.1091 -1.3276 -1.6604
  789MOL0     H 4146   9.373   0.322   7.488  0.2744  0.5737 -0.9970
  789MOL0     H 4147   8.852   0.966   7.112  0.8393  1.5365  0.4771
  789MOL0     H 4148   8.604   0.960   7.131  0.0048 -1.8062 -1.9069
  790MOL0     O 4149   8.994  10.927   9.405 -0.0128 -0.6640  0.3972
  790MOL0     C 4150   9.071  10.940   9.501  0.3736  0.2777  0.6559
  790MOL0     O 4151   9.034  10.943   9.628 -0.2402 -0.6445 -0.9545
  790MOL0     C 4152   8.904  10.914   9.667  0.3807  0.5199  0.4239
  790MOL0     C 4153   8.835  10.810   9.621  0.1175  0.0206  0.0159
  790MOL0     C 4154   8.714  10.771   9.670 -0.0821 -0.2719  1.2170
  790MOL0     C 4155   8.659  10.838   9.780 -0.1281 -0.4886 -0.0976
  790MOL0     O 4156   8.527  10.809   9.812 -0.3437  0.5933  0.3233
  790MOL0     C 4157   8.459  10.889   9.905 -0.4115 -0.9017  0.1760
  790MOL0     C 4158   8.311  10.872   9.874  0.3796 -0.1582  0.2776
  790MOL0     C 4159   8.225  10.975   9.943  0.2109  0.2730  0.3950
  790MOL0     C 4160   8.075  10.983   9.898 -0.0187  0.6973 -0.8678
  790MOL0     C 4161   8.057  11.022   9.749  0.9203 -0.2695 -0.3594
  790MOL0     C 4162   7.907  11.055   9.721  0.5186 -0.1268 -0.2748
  790MOL0     C 4163   7.862  11.068   9.566  0.7330  0.0201 -0.2342
  790MOL0     C 4164   7.891  11.207   9.495 -0.9184  0.0521  0.6351
  790MOL0     N 4165   7.773  11.287   9.503 -0.4785  0.0867  0.5897
  790MOL0     C 4166   7.744  11.373   9.600 -0.2665 -1.0826 -0.1386
  790MOL0     C 4167   7.637  11.444   9.563  1.2411  0.1837  0.2110
  790MOL0     C 4168   7.577  11.561   9.639  0.4711  0.6408  0.0099
  790MOL0     C 4169   7.425  11.543   9.652 -0.5651  0.2062 -0.0636
  790MOL0     C 4170   7.349  11.579   9.521 -0.1746 -0.2599  0.9143
  790MOL0     C 4171   7.212  11.548   9.557  0.2327 -0.1924 -0.4831
  790MOL0     O 4172   7.142  11.606   9.450 -0.1867 -0.6172 -0.8407
  790MOL0     C 4173   7.006  11.617   9.477 -0.3447  0.3633  0.1996
  790MOL0     C 4174   6.953  11.744   9.462 -0.0060 -0.7880 -0.5913
  790MOL0     C 4175   6.820  11.763   9.480  0.1534  0.3336  0.1360
  790MOL0     C 4176   6.740  11.661   9.532  0.0171 -0.3882  0.3540
  790MOL0     C 4177   6.592  11.681   9.528  0.9192 -0.4946 -0.1072
  790MOL0     O 4178   6.550  11.793   9.463 -0.2845  0.1692  0.1514
  790MOL0     C 4179   6.413  11.816   9.454  0.0269 -0.2664  0.1594
  790MOL0     C 4180   6.369  11.950   9.497 -0.2412  0.2877  0.2632
  790MOL0     C 4181   6.236  11.977   9.487  0.0432  0.2906  0.6826
  790MOL0     C 4182   6.139  11.882   9.452 -0.2632 -0.5697  0.5942
  790MOL0     O 4183   6.012  11.919   9.457  0.2421 -0.1983  0.0667
  790MOL0     C 4184   5.924  11.879   9.349  0.6429 -0.0730  0.2213
  790MOL0     C 4185   5.833  12.000   9.302 -0.1456 -0.2692 -0.7061
  790MOL0     C 4186   5.715  11.942   9.222  0.7490  0.3794  0.5370
  790MOL0     C 4187   5.626  12.062   9.171 -0.3777  0.3175  0.8504
  790MOL0     C 4188   5.642  12.089   9.025 -0.1177 -0.8644  0.8184
  790MOL0     C 4189   5.550  12.208   8.986  0.4769  0.1919  0.0810
  790MOL0     C 4190   5.524  12.224   8.833 -0.2716  0.6798 -0.1101
  790MOL0     C 4191   5.388  12.284   8.823 -0.2625  0.0279  0.3766
  790MOL0    Cl 4192   5.341  12.339   8.655 -0.5494 -0.3264 -0.1730
  790MOL0     C 4193   6.186  11.754   9.408 -0.2823 -0.8860 -0.3918
  790MOL0     C 4194   6.324  11.721   9.408  0.5819  0.1086  0.3821
  790MOL0     O 4195   6.515  11.610   9.589 -0.2687  0.0486  0.0310
  790MOL0     C 4196   6.797  11.530   9.559 -0.1392 -0.3922 -0.4287
  790MOL0     C 4197   6.933  11.517   9.538 -0.4427 -0.2894 -0.0508
  790MOL0     N 4198   7.599  11.399   9.437 -0.0744 -0.2471  0.1291
  790MOL0     N 4199   7.681  11.301   9.405 -0.3016  0.4039  0.3106
  790MOL0     C 4200   8.737  10.946   9.837 -0.0564  0.6003 -0.3689
  790MOL0     C 4201   8.854  10.985   9.777  0.7125 -0.0153 -0.1689
  790MOL0     C 4202   9.206  10.976   9.469 -1.2727  0.3973  0.0813
  790MOL0     C 4203   9.274  10.934   9.358  0.0590 -0.6947 -0.0836
  790MOL0     C 4204   9.413  10.969   9.340  0.0248 -0.5538 -0.3633
  790MOL0     C 4205   9.491  11.028   9.440  0.2231 -0.6693 -0.6840
  790MOL0     O 4206   9.624  11.046   9.416  0.0978 -0.9109 -0.5401
  790MOL0     C 4207   9.721  11.042   9.526 -0.3186  0.8803  0.0670
  790MOL0     C 4208   9.864  11.065   9.467  0.7905  0.5330  0.5543
  790MOL0     C 4209   9.981  11.092   9.556  0.0267  1.0621 -0.0836
  790MOL0     C 4210  10.113  11.123   9.486  0.3173 -0.2350  0.7569
  790MOL0     C 4211  10.162  11.012   9.406 -0.3833  0.4591  0.3523
  790MOL0     C 4212  10.203  10.920   9.339  0.2680  0.1544  0.2107
  790MOL0     C 4213   9.432  11.053   9.560 -1.0804 -0.4825 -0.4198
  790MOL0     C 4214   9.295  11.033   9.571  0.0129  0.1381 -0.3722
  790MOL0     H 4215   8.874  10.750   9.539 -1.1026  1.5303 -1.7447
  790MOL0     H 4216   8.675  10.680   9.627 -0.9723  0.6625 -0.0397
  790MOL0     H 4217   8.490  10.994   9.906 -1.3766 -0.6053 -0.1815
  790MOL0     H 4218   8.475  10.849  10.006 -1.6132  0.9933  1.1816
  790MOL0     H 4219   8.266  10.774   9.894 -1.0616  0.3479 -0.3113
  790MOL0     H 4220   8.311  10.883   9.765  0.4861 -1.4516  0.1325
  790MOL0     H 4221   8.265  11.076   9.934 -0.0315  0.3116 -0.3434
  790MOL0     H 4222   8.228  10.942  10.047  0.3006  3.4277  1.4720
  790MOL0     H 4223   8.005  10.903   9.925  0.3578 -0.4548 -3.1000
  790MOL0     H 4224   8.040  11.061   9.966 -1.9765 -1.6839  1.0616
  790MOL0     H 4225   8.094  10.950   9.676  2.0043 -0.4748  0.3565
  790MOL0     H 4226   8.122  11.111   9.750  0.6120 -0.0145  1.5368
  790MOL0     H 4227   7.875  11.135   9.787  0.6004 -0.1870 -0.1612
  790MOL0     H 4228   7.845  10.973   9.760  1.0618 -0.2097  0.4335
  790MOL0     H 4229   7.916  10.989   9.512  0.2499  0.0597 -0.7855
  790MOL0     H 4230   7.754  11.055   9.575  0.3733  2.8235  0.2571
  790MOL0     H 4231   7.904  11.195   9.387  0.3739  1.6576  0.5632
  790MOL0     H 4232   7.976  11.260   9.539 -0.8587 -2.1869  3.5370
  790MOL0     H 4233   7.802  11.376   9.692  0.7434 -3.5821 -0.6284
  790MOL0     H 4234   7.599  11.648   9.577 -0.6245 -0.3198 -1.7957
  790MOL0     H 4235   7.618  11.567   9.740  2.7303  0.2693 -0.8210
  790MOL0     H 4236   7.389  11.606   9.734 -0.9239 -1.0051  0.7285
  790MOL0     H 4237   7.418  11.440   9.687  1.0153  0.4785  1.1985
  790MOL0     H 4238   7.364  11.686   9.510  0.2060 -0.4344 -0.4378
  790MOL0     H 4239   7.394  11.522   9.439 -0.4619  1.5934 -0.5878
  790MOL0     H 4240   7.170  11.592   9.648  0.6132  2.3168 -1.4446
  790MOL0     H 4241   7.198  11.440   9.560  0.5127 -0.2523  2.6137
  790MOL0     H 4242   7.027  11.816   9.429 -2.4918  1.9140 -0.7255
  790MOL0     H 4243   6.776  11.855   9.442 -0.9436 -1.0408 -2.0881
  790MOL0     H 4244   6.443  12.018   9.540  0.0869 -1.3780  2.4996
  790MOL0     H 4245   6.207  12.079   9.511  1.6642  1.3876 -1.6210
  790MOL0     H 4246   5.864  11.803   9.400 -0.1130  0.2136 -0.2144
  790MOL0     H 4247   5.977  11.834   9.265  2.9702  1.9264  0.4931
  790MOL0     H 4248   5.896  12.056   9.232  1.6830 -1.3639  0.0042
  790MOL0     H 4249   5.797  12.056   9.389  0.3154 -2.9479  1.3434
  790MOL0     H 4250   5.647  11.867   9.264  1.8938 -1.7156 -1.1465
  790MOL0     H 4251   5.745  11.891   9.130 -5.1097  1.5862 -2.5302
  790MOL0     H 4252   5.521  12.043   9.198 -0.6622 -0.9666 -0.9676
  790MOL0     H 4253   5.641  12.154   9.227 -2.7741  1.1747  0.2317
  790MOL0     H 4254   5.616  12.001   8.966 -0.1939 -0.4133  0.1781
  790MOL0     H 4255   5.744  12.112   8.995 -0.6970 -2.0400 -2.4049
  790MOL0     H 4256   5.609  12.296   9.015  0.9072  0.5042 -1.6316
  790MOL0     H 4257   5.455  12.210   9.039 -0.7996  2.2020 -2.1151
  790MOL0     H 4258   5.596  12.294   8.790 -1.1008  2.2585  0.9721
  790MOL0     H 4259   5.535  12.123   8.793 -0.5153 -0.7226  3.0724
  790MOL0     H 4260   5.387  12.379   8.878 -0.5424  0.4614 -0.3685
  790MOL0     H 4261   5.310  12.214   8.854 -1.7118  0.0739 -2.8175
  790MOL0     H 4262   6.124  11.669   9.380  1.1350 -1.7631 -1.0054
  790MOL0     H 4263   6.345  11.620   9.374 -1.9272 -0.5336  0.5269
  790MOL0     H 4264   6.732  11.455   9.604  0.0648  0.3583  1.1801
  790MOL0     H 4265   6.967  11.421   9.577  0.1904  1.4728  4.3560
  790MOL0     H 4266   8.707  11.005   9.923  3.4351  1.6310  0.2705
  790MOL0     H 4267   8.912  11.065   9.822  0.1138  2.0553 -2.7844
  790MOL0     H 4268   9.215  10.881   9.283 -1.4250  1.4441 -0.5070
  790MOL0     H 4269   9.468  10.952   9.248  1.6589 -0.6853  0.5847
  790MOL0     H 4270   9.713  10.949   9.583 -1.1595  1.7338  1.4017
  790MOL0     H 4271   9.703  11.119   9.601 -0.0499  3.0196 -1.9620
  790MOL0     H 4272   9.886  10.986   9.394 -0.8222  1.1541 -0.6771
  790MOL0     H 4273   9.844  11.155   9.407 -2.3384 -1.5507 -1.8682
  790MOL0     H 4274   9.985  11.006   9.624  0.1598  1.7371  0.7692
  790MOL0     H 4275   9.957  11.183   9.610  0.7839  2.0149 -1.2996
  790MOL0     H 4276  10.103  11.206   9.417  0.3738 -1.0655 -0.2760
  790MOL0     H 4277  10.195  11.158   9.549  0.3048  1.2111  0.0003
  790MOL0     H 4278  10.228  10.839   9.274  0.0826 -1.2821  1.8443
  790MOL0     H 4279   9.464  11.098   9.653 -2.4094 -1.6351  0.6371
  790MOL0     H 4280   9.259  11.050   9.672  0.7316 -1.5897  0.2096
  791MOL0     O 4281   8.704   0.974  10.013  0.3266 -0.1599  0.0574
  791MOL0     C 4282   8.794   1.036  10.073  0.0244 -0.0410 -0.3319
  791MOL0     O 4283   8.780   1.102  10.193  0.5237 -0.3791 -0.1423
  791MOL0     C 4284   8.659   1.090  10.259  0.0690 -0.7187  0.6901
  791MOL0     C 4285   8.529   1.078  10.200 -0.5233  0.1690 -0.0919
  791MOL0     C 4286   8.421   1.051  10.286 -0.2526  0.6572  0.3270
  791MOL0     C 4287   8.437   1.041  10.426  0.1923  0.0506 -0.0675
  791MOL0     O 4288   8.309   1.016  10.483  0.0233  0.0449 -0.0423
  791MOL0     C 4289   8.317   1.044  10.623 -0.1184  0.4998 -0.2189
  791MOL0     C 4290   8.194   0.990  10.688  0.0528  0.3043  0.6536
  791MOL0     C 4291   8.060   1.057  10.656 -0.5330  0.2093  0.3451
  791MOL0     C 4292   7.936   0.987  10.706  0.4428  0.0543 -0.3941
  791MOL0     C 4293   7.814   1.081  10.695 -0.0449  0.1646  0.6980
  791MOL0     C 4294   7.698   1.025  10.777  0.3850 -0.1940  0.6619
  791MOL0     C 4295   7.674   0.878  10.762 -0.1108  0.8378 -0.1336
  791MOL0     C 4296   7.537   0.838  10.807  0.9495  0.5149 -0.1775
  791MOL0     N 4297   7.503   0.880  10.941  0.5249  0.0526 -0.0378
  791MOL0     C 4298   7.571   0.859  11.059 -0.6664  0.0954 -0.1957
  791MOL0     C 4299   7.485   0.901  11.157 -0.3643  0.7766  0.5859
  791MOL0     C 4300   7.508   0.886  11.306 -0.0235  0.3601  1.3888
  791MOL0     C 4301   7.469   0.753  11.363 -0.5857 -0.3253  0.3975
  791MOL0     C 4302   7.335   0.758  11.437 -0.3180 -0.2582  0.7226
  791MOL0     C 4303   7.220   0.768  11.343 -0.2367 -0.4088 -0.5707
  791MOL0     O 4304   7.103   0.779  11.422  0.4359 -0.1768  0.3067
  791MOL0     C 4305   6.981   0.762  11.352 -0.3654 -0.0480 -0.6945
  791MOL0     C 4306   6.960   0.773  11.222 -0.5948  0.4650 -1.1226
  791MOL0     C 4307   6.831   0.761  11.168 -0.0351  0.4549 -0.2076
  791MOL0     C 4308   6.715   0.758  11.245  0.0209  0.1481  0.8336
  791MOL0     C 4309   6.582   0.720  11.192 -1.1046 -0.1440 -0.6739
  791MOL0     O 4310   6.477   0.731  11.285  0.0455  0.6920 -0.1646
  791MOL0     C 4311   6.352   0.701  11.238 -0.5744 -1.0923 -1.2919
  791MOL0     C 4312   6.273   0.603  11.303 -0.8779  0.1707 -1.0057
  791MOL0     C 4313   6.141   0.584  11.255 -0.9802 -0.1264  0.1173
  791MOL0     C 4314   6.080   0.655  11.164  0.3593 -1.2430  0.2647
  791MOL0     O 4315   5.946   0.622  11.146  0.2496  0.5507  0.2859
  791MOL0     C 4316   5.865   0.713  11.067  0.7648 -0.6677 -0.0767
  791MOL0     C 4317   5.736   0.633  11.063  0.0313  0.2503 -0.6203
  791MOL0     C 4318   5.628   0.712  10.998 -0.3125 -0.6410  0.4084
  791MOL0     C 4319   5.498   0.626  10.994 -0.8460  0.0231  0.6979
  791MOL0     C 4320   5.391   0.700  10.906 -0.3666 -0.3919  0.1595
  791MOL0     C 4321   5.289   0.595  10.866  0.1608  0.8101 -0.2234
  791MOL0     C 4322   5.146   0.659  10.845  0.6751  0.8430  0.1180
  791MOL0     C 4323   5.138   0.762  10.739  0.0006 -0.8525  0.2568
  791MOL0    Cl 4324   4.975   0.821  10.690 -0.6945  0.3931  0.3848
  791MOL0     C 4325   6.158   0.758  11.101 -0.6418  0.1094  1.8290
  791MOL0     C 4326   6.292   0.775  11.141 -0.8810 -0.8950  1.3493
  791MOL0     O 4327   6.577   0.706  11.072 -0.6091  0.2762  0.1149
  791MOL0     C 4328   6.739   0.762  11.384 -0.2767  0.1266 -0.3269
  791MOL0     C 4329   6.869   0.758  11.433  0.0615 -0.1822  0.0722
  791MOL0     N 4330   7.374   0.961  11.100 -0.6653 -0.3045 -1.0460
  791MOL0     N 4331   7.386   0.938  10.967 -0.3433  0.6887 -0.4210
  791MOL0     C 4332   8.560   1.062  10.484 -0.1791 -0.4503 -0.5334
  791MOL0     C 4333   8.664   1.089  10.402 -0.3096  0.1744 -0.1028
  791MOL0     C 4334   8.925   1.032  10.008 -0.0593 -0.9851 -0.5767
  791MOL0     C 4335   9.042   1.061  10.081  0.2064  0.8205  0.1178
  791MOL0     C 4336   9.164   1.052  10.020  0.2031 -0.0072 -0.3745
  791MOL0     C 4337   9.179   1.004   9.898 -0.8640  0.4581 -0.2584
  791MOL0     O 4338   9.299   0.980   9.843  0.3418 -0.2284  0.3060
  791MOL0     C 4339   9.324   0.844   9.817 -0.2832  0.2478 -0.2524
  791MOL0     C 4340   9.452   0.812   9.899  0.3956 -0.0112 -0.4707
  791MOL0     C 4341   9.471   0.657   9.891 -0.0496  0.5546 -1.1942
  791MOL0     C 4342   9.542   0.619   9.763 -0.5591 -0.2825  0.2608
  791MOL0     C 4343   9.686   0.620   9.793  0.2031  0.4289 -0.2854
  791MOL0     C 4344   9.801   0.623   9.846  0.4012 -0.6076  0.2127
  791MOL0     C 4345   9.068   0.962   9.822 -0.7541  0.2918  0.3034
  791MOL0     C 4346   8.941   0.987   9.878 -0.0362  0.2464 -0.0971
  791MOL0     H 4347   8.520   1.099  10.094  2.8584  0.7179 -0.3895
  791MOL0     H 4348   8.324   1.040  10.240 -1.0425 -3.2834  2.4536
  791MOL0     H 4349   8.328   1.149  10.652 -2.1446  0.6216  0.3090
  791MOL0     H 4350   8.400   0.992  10.671 -0.4278 -0.6858 -0.9401
  791MOL0     H 4351   8.189   0.996  10.798 -1.0528 -1.7188  0.7596
  791MOL0     H 4352   8.189   0.885  10.658 -3.3677  0.3719  0.6214
  791MOL0     H 4353   8.046   1.067  10.548  1.6938  1.3883  0.0787
  791MOL0     H 4354   8.050   1.161  10.688 -1.4781  0.6930 -1.3853
  791MOL0     H 4355   7.925   0.889  10.658  1.7287 -1.1380  1.6202
  791MOL0     H 4356   7.957   0.976  10.812 -2.9497  3.6970  0.9098
  791MOL0     H 4357   7.777   1.079  10.592 -1.1287 -1.1490  1.0821
  791MOL0     H 4358   7.839   1.183  10.725 -0.7399  1.4122 -2.5059
  791MOL0     H 4359   7.604   1.077  10.755 -0.5438 -2.6951 -1.8667
  791MOL0     H 4360   7.723   1.042  10.882 -1.5678  2.9571  0.7493
  791MOL0     H 4361   7.689   0.847  10.658 -1.0666  1.4011 -0.4475
  791MOL0     H 4362   7.758   0.824  10.809 -0.1040  0.5498 -0.4670
  791MOL0     H 4363   7.532   0.729  10.800 -1.3845  0.5750  0.0231
  791MOL0     H 4364   7.465   0.870  10.731 -0.1123  1.6592  1.2650
  791MOL0     H 4365   7.667   0.809  11.067 -0.3526  0.8648  1.1245
  791MOL0     H 4366   7.459   0.967  11.360 -1.0210  0.9789 -0.3544
  791MOL0     H 4367   7.616   0.895  11.315  0.0575 -0.2224  1.1020
  791MOL0     H 4368   7.550   0.741  11.435 -1.0289  0.8439  1.1166
  791MOL0     H 4369   7.471   0.668  11.294 -1.1727 -1.3023  1.5430
  791MOL0     H 4370   7.324   0.672  11.504 -1.6556 -1.9927 -1.5915
  791MOL0     H 4371   7.327   0.849  11.498 -3.3494  0.4990 -0.6100
  791MOL0     H 4372   7.213   0.687  11.270 -1.6064 -1.2393  0.4180
  791MOL0     H 4373   7.235   0.864  11.292  0.3776  0.4816  1.1986
  791MOL0     H 4374   7.047   0.777  11.158  1.5814 -0.3134  1.5787
  791MOL0     H 4375   6.819   0.754  11.060  0.7068 -0.7267 -0.2271
  791MOL0     H 4376   6.322   0.559  11.390 -0.2440  1.4716 -0.6794
  791MOL0     H 4377   6.073   0.512  11.298 -1.8727  1.3161  1.2206
  791MOL0     H 4378   5.895   0.734  10.964 -2.5010  2.3174 -0.6126
  791MOL0     H 4379   5.846   0.812  11.110  0.4596  0.0571 -1.8106
  791MOL0     H 4380   5.703   0.618  11.166 -2.7121 -0.3640 -1.5308
  791MOL0     H 4381   5.755   0.540  11.010  3.3632  0.5512 -0.1807
  791MOL0     H 4382   5.661   0.718  10.894 -1.7632 -0.2384 -0.0517
  791MOL0     H 4383   5.603   0.815  11.027  2.0618  0.7357 -2.0002
  791MOL0     H 4384   5.517   0.528  10.951 -2.0140  0.1644 -0.1659
  791MOL0     H 4385   5.462   0.620  11.098  0.5413  0.5635  1.2370
  791MOL0     H 4386   5.440   0.746  10.820  1.0004 -2.0578 -0.0048
  791MOL0     H 4387   5.349   0.784  10.963  1.3479 -2.4303  4.9886
  791MOL0     H 4388   5.272   0.523  10.947  0.0641  0.8582 -0.2017
  791MOL0     H 4389   5.324   0.534  10.782  0.4646 -0.5244  0.8418
  791MOL0     H 4390   5.075   0.576  10.833  1.3404 -0.5167  4.1714
  791MOL0     H 4391   5.119   0.709  10.938  0.4318 -0.4277  0.7593
  791MOL0     H 4392   5.194   0.746  10.646 -0.8306 -1.9034 -0.0762
  791MOL0     H 4393   5.185   0.848  10.788 -0.0332 -0.0373 -1.0903
  791MOL0     H 4394   6.113   0.831  11.034  0.3952 -2.3323 -1.8380
  791MOL0     H 4395   6.344   0.866  11.112 -3.7601  0.7702  0.9501
  791MOL0     H 4396   6.652   0.764  11.449 -0.9990  5.7688 -1.0276
  791MOL0     H 4397   6.869   0.771  11.541 -0.1550  2.2328 -0.1640
  791MOL0     H 4398   8.574   1.061  10.592  0.2859 -2.3585 -0.5803
  791MOL0     H 4399   8.764   1.099  10.443  0.0138  1.3438 -1.1001
  791MOL0     H 4400   9.042   1.089  10.186 -3.1851  1.7442 -0.0252
  791MOL0     H 4401   9.256   1.077  10.073  0.3588 -1.2001 -0.0619
  791MOL0     H 4402   9.337   0.831   9.709  0.8028 -0.9803 -0.0118
  791MOL0     H 4403   9.241   0.775   9.834  0.2955  0.1978  3.0263
  791MOL0     H 4404   9.532   0.859   9.841  0.4124  0.4219 -0.0956
  791MOL0     H 4405   9.438   0.839  10.004 -3.9851 -2.4589 -0.1839
  791MOL0     H 4406   9.374   0.610   9.904  0.4627  0.0425  1.1809
  791MOL0     H 4407   9.532   0.614   9.971 -1.3147  0.5934 -0.1938
  791MOL0     H 4408   9.520   0.514   9.739 -0.2210  0.2550 -2.8348
  791MOL0     H 4409   9.525   0.671   9.669  0.8241 -3.3894 -1.8773
  791MOL0     H 4410   9.901   0.627   9.883  2.1477 -1.0969 -3.8813
  791MOL0     H 4411   9.084   0.933   9.718 -1.6021  2.2304 -0.4298
  791MOL0     H 4412   8.858   0.948   9.819  0.7614 -1.1109 -0.3694
  792MOL0     O 4413   3.298   8.436   3.639 -0.2734 -0.2487 -0.5044
  792MOL0     C 4414   3.387   8.500   3.694  0.3023 -0.4336 -0.3083
  792MOL0     O 4415   3.375   8.570   3.814 -0.4140  0.1061  0.5976
  792MOL0     C 4416   3.250   8.578   3.861 -0.1549  0.3416  0.6150
  792MOL0     C 4417   3.235   8.549   3.999 -0.1818 -0.7104  0.9555
  792MOL0     C 4418   3.113   8.549   4.066 -0.4010 -0.0879  0.0926
  792MOL0     C 4419   3.001   8.597   3.996 -0.1951 -0.0449  0.4111
  792MOL0     O 4420   2.884   8.603   4.061 -0.2173  0.4593  0.5122
  792MOL0     C 4421   2.846   8.738   4.101  0.6573 -0.1322 -0.0100
  792MOL0     C 4422   2.703   8.738   4.157 -1.0492 -0.0809  0.2439
  792MOL0     C 4423   2.597   8.737   4.039  0.3481  0.5046 -0.0276
  792MOL0     C 4424   2.449   8.703   4.079 -1.4372 -0.2391  0.9743
  792MOL0     C 4425   2.391   8.790   4.183 -0.6105 -0.3735  0.4493
  792MOL0     C 4426   2.240   8.769   4.187  0.0879 -0.3010 -0.7056
  792MOL0     C 4427   2.173   8.877   4.272  0.2931  0.2274 -0.8262
  792MOL0     C 4428   2.019   8.854   4.263  0.0423 -0.1807 -1.1989
  792MOL0     N 4429   1.948   8.867   4.135 -0.6208 -0.5632  0.8518
  792MOL0     C 4430   1.910   8.765   4.048  0.2460  0.2776 -0.7229
  792MOL0     C 4431   1.881   8.823   3.936  0.2681 -0.0312 -0.7845
  792MOL0     C 4432   1.839   8.762   3.807 -0.4128  0.7529  0.7429
  792MOL0     C 4433   1.699   8.806   3.763 -0.6471  0.1793  0.1899
  792MOL0     C 4434   1.581   8.750   3.844 -0.5306  0.0450 -0.6914
  792MOL0     C 4435   1.434   8.784   3.793 -0.4957 -0.4461  0.1659
  792MOL0     O 4436   1.342   8.766   3.905 -0.0744 -0.2547  0.5328
  792MOL0     C 4437   1.205   8.786   3.883  0.6389  0.4891  0.0680
  792MOL0     C 4438   1.147   8.852   3.766 -0.2580  0.4806  0.0580
  792MOL0     C 4439   1.004   8.873   3.765  0.3574  0.2880 -0.3656
  792MOL0     C 4440   0.917   8.826   3.867 -0.4546 -0.1000  0.3866
  792MOL0     C 4441   0.780   8.856   3.853  0.2525 -0.3201  0.5701
  792MOL0     O 4442   0.699   8.795   3.943 -0.8473  0.3139  0.0965
  792MOL0     C 4443   0.566   8.812   3.967  1.5030 -0.9488  0.7929
  792MOL0     C 4444   0.515   8.782   4.091  0.6597  0.8837  0.3551
  792MOL0     C 4445   0.379   8.780   4.110 -0.0584  0.7167  0.1739
  792MOL0     C 4446   0.285   8.824   4.010 -0.2111  0.7722  0.5194
  792MOL0     O 4447   0.147   8.807   4.017  0.0886 -0.1817 -0.1452
  792MOL0     C 4448   0.094   8.794   4.149  0.2506  0.2655 -0.4649
  792MOL0     C 4449  -0.054   8.834   4.142  0.0933 -0.5197  0.3726
  792MOL0     C 4450  -0.138   8.833   4.268 -0.2967  0.6191  0.2867
  792MOL0     C 4451  -0.267   8.908   4.250  0.4274  0.0117  0.1979
  792MOL0     C 4452  -0.376   8.891   4.354  0.6829 -0.3513  0.4994
  792MOL0     C 4453  -0.520   8.944   4.321  0.3800 -0.4314  0.1445
  792MOL0     C 4454  -0.620   8.915   4.435  1.2384  1.2116 -0.1036
  792MOL0     C 4455  -0.772   8.936   4.410  0.2789  0.0001  0.8916
  792MOL0    Cl 4456  -0.828   8.815   4.293  0.2979 -0.4003  0.3904
  792MOL0     C 4457   0.337   8.850   3.878  0.4053  0.8009 -0.4177
  792MOL0     C 4458   0.477   8.849   3.855  0.8150 -0.0421  0.2877
  792MOL0     O 4459   0.741   8.930   3.761 -0.1678  0.7352  0.5334
  792MOL0     C 4460   0.977   8.755   3.968  0.5174  0.9367 -0.7746
  792MOL0     C 4461   1.114   8.737   3.981  0.3159  0.0259 -0.0002
  792MOL0     N 4462   1.903   8.956   3.941 -0.5337 -0.2787  0.7400
  792MOL0     N 4463   1.938   8.987   4.065  0.3851  0.3217  0.0145
  792MOL0     C 4464   3.018   8.639   3.862  0.2549  0.0326  0.0367
  792MOL0     C 4465   3.139   8.635   3.793 -0.2589 -0.0571 -0.8665
  792MOL0     C 4466   3.513   8.517   3.614  0.1466  0.5018 -1.0263
  792MOL0     C 4467   3.539   8.446   3.505 -0.5504  0.6217  1.2322
  792MOL0     C 4468   3.653   8.467   3.428  0.6003  1.1649 -0.1039
  792MOL0     C 4469   3.738   8.575   3.453 -0.4705  0.0562 -0.2775
  792MOL0     O 4470   3.848   8.600   3.374  0.1667  0.4570 -0.2479
  792MOL0     C 4471   3.818   8.591   3.232  0.0455 -0.5112 -0.4319
  792MOL0     C 4472   3.927   8.661   3.160 -0.1697  0.1531 -0.8647
  792MOL0     C 4473   4.068   8.602   3.195  0.6452  0.5567  0.0545
  792MOL0     C 4474   4.175   8.677   3.113  0.4514  1.0224  0.5857
  792MOL0     C 4475   4.310   8.639   3.131 -0.0987  0.1808  0.7931
  792MOL0     C 4476   4.433   8.609   3.147 -0.0846 -0.1112  1.6060
  792MOL0     C 4477   3.719   8.644   3.582  0.0620 -1.1981  1.0208
  792MOL0     C 4478   3.611   8.604   3.664 -0.1059  0.1589  0.1912
  792MOL0     H 4479   3.322   8.524   4.058  0.4262 -2.5998 -0.6027
  792MOL0     H 4480   3.098   8.532   4.172 -0.5764  2.2026  0.4727
  792MOL0     H 4481   2.848   8.805   4.014  2.3187 -2.2896 -1.7752
  792MOL0     H 4482   2.910   8.797   4.167 -0.7916  1.5636 -0.0586
  792MOL0     H 4483   2.678   8.831   4.209 -1.8499 -1.0384  1.6500
  792MOL0     H 4484   2.682   8.653   4.223  1.1106 -1.7001 -1.0143
  792MOL0     H 4485   2.612   8.656   3.967 -0.8934 -0.8047  1.1367
  792MOL0     H 4486   2.604   8.836   3.991 -0.5347 -0.2564 -1.8391
  792MOL0     H 4487   2.391   8.710   3.987 -0.1466 -5.9013 -0.6979
  792MOL0     H 4488   2.447   8.597   4.108  0.4453 -0.2387  1.2573
  792MOL0     H 4489   2.417   8.894   4.163  0.1096 -0.3262  1.5245
  792MOL0     H 4490   2.427   8.769   4.285  2.8834  3.4788  0.2831
  792MOL0     H 4491   2.209   8.675   4.234 -4.2250 -0.1933 -2.8890
  792MOL0     H 4492   2.206   8.757   4.084  1.0026 -0.4718 -1.0049
  792MOL0     H 4493   2.196   8.853   4.376 -4.2543 -0.1297  0.2998
  792MOL0     H 4494   2.209   8.975   4.241  0.0904  0.9299  1.0376
  792MOL0     H 4495   1.967   8.921   4.333  1.3042 -0.9316  0.5094
  792MOL0     H 4496   2.006   8.753   4.302  1.8608 -0.1424 -0.4334
  792MOL0     H 4497   1.908   8.658   4.067  1.0392 -1.2294 -6.9660
  792MOL0     H 4498   1.843   8.653   3.806 -1.5577  0.6932  0.8354
  792MOL0     H 4499   1.914   8.786   3.731 -0.1556 -0.1803  0.6940
  792MOL0     H 4500   1.693   8.784   3.657  2.5482 -1.7668  0.2951
  792MOL0     H 4501   1.694   8.915   3.775  0.0288  0.2773 -0.3762
  792MOL0     H 4502   1.592   8.641   3.851  0.0472  0.0781 -1.0007
  792MOL0     H 4503   1.589   8.784   3.947 -1.8339 -0.8420 -0.2669
  792MOL0     H 4504   1.413   8.728   3.701  3.3223  0.4839 -1.4663
  792MOL0     H 4505   1.442   8.892   3.776  0.5156 -0.3846  0.9243
  792MOL0     H 4506   1.200   8.899   3.684 -0.1353  1.6383  0.7875
  792MOL0     H 4507   0.970   8.929   3.679  3.5542  2.1039 -0.6156
  792MOL0     H 4508   0.580   8.763   4.176 -0.0866 -1.0095  0.5519
  792MOL0     H 4509   0.344   8.758   4.210  1.0901  1.1917  0.6974
  792MOL0     H 4510   0.141   8.860   4.223 -0.1728  2.3110 -1.9098
  792MOL0     H 4511   0.107   8.691   4.181 -0.0813  0.6761  1.0592
  792MOL0     H 4512  -0.109   8.776   4.067  1.5956 -1.2348 -0.2072
  792MOL0     H 4513  -0.069   8.937   4.108 -2.0558 -1.3151 -1.3554
  792MOL0     H 4514  -0.074   8.876   4.346  1.3611  0.4849 -0.9435
  792MOL0     H 4515  -0.172   8.733   4.295  2.4374 -0.5302 -0.2543
  792MOL0     H 4516  -0.256   9.017   4.241  2.1234  0.0205  1.7179
  792MOL0     H 4517  -0.310   8.870   4.157  2.3978  1.4055 -1.3759
  792MOL0     H 4518  -0.332   8.941   4.441  3.9537 -0.9261 -0.6838
  792MOL0     H 4519  -0.373   8.785   4.383 -0.1288  0.0990  2.4555
  792MOL0     H 4520  -0.549   8.894   4.228 -2.2320  0.6802  0.2768
  792MOL0     H 4521  -0.529   9.051   4.297 -0.9334 -0.9552 -2.0699
  792MOL0     H 4522  -0.619   8.808   4.459 -1.6941  1.2518  0.4932
  792MOL0     H 4523  -0.597   8.972   4.525 -1.0977  0.6895  0.8858
  792MOL0     H 4524  -0.782   9.036   4.366 -0.2498  0.1223  1.2761
  792MOL0     H 4525  -0.836   8.931   4.498 -4.2060 -1.2493 -2.0998
  792MOL0     H 4526   0.276   8.872   3.791  1.0274  0.9347 -0.8275
  792MOL0     H 4527   0.505   8.872   3.753  2.2445 -1.3431  0.3481
  792MOL0     H 4528   0.917   8.708   4.045 -0.3562 -0.1963 -2.0961
  792MOL0     H 4529   1.157   8.700   4.074 -1.0673 -1.1205  0.2158
  792MOL0     H 4530   2.936   8.670   3.798  1.8748  1.1008 -1.5938
  792MOL0     H 4531   3.144   8.680   3.694 -0.6163  2.7484  0.3011
  792MOL0     H 4532   3.465   8.369   3.487  2.1569 -2.4283  2.3257
  792MOL0     H 4533   3.668   8.397   3.346 -0.7582  1.1181 -0.3320
  792MOL0     H 4534   3.725   8.642   3.205 -2.5399 -5.2249 -1.4503
  792MOL0     H 4535   3.816   8.487   3.199 -0.7250 -1.1882  1.6024
  792MOL0     H 4536   3.903   8.647   3.055 -0.3050 -1.5640 -0.6402
  792MOL0     H 4537   3.922   8.763   3.200 -0.9450 -0.0766 -0.3538
  792MOL0     H 4538   4.065   8.496   3.168 -1.2981 -0.0805  2.3364
  792MOL0     H 4539   4.094   8.598   3.301  4.0821  0.0845 -0.7096
  792MOL0     H 4540   4.155   8.664   3.007 -2.0797  1.7050  0.9119
  792MOL0     H 4541   4.170   8.783   3.142  0.7306  0.7596  1.6704
  792MOL0     H 4542   4.537   8.600   3.171  0.1646  1.0199  1.0397
  792MOL0     H 4543   3.803   8.704   3.616  2.6813 -2.4791 -2.5555
  792MOL0     H 4544   3.611   8.650   3.763 -1.0237 -0.9086  0.7095
  793MOL0     O 4545   8.823   3.425   9.090  0.6490  0.3333 -0.5978
  793MOL0     C 4546   8.736   3.356   9.145  1.0978  0.6643 -0.2609
  793MOL0     O 4547   8.601   3.374   9.132  0.2189 -0.1309  0.1128
  793MOL0     C 4548   8.556   3.483   9.057  0.1451 -0.1631  0.3841
  793MOL0     C 4549   8.527   3.472   8.920 -0.0344 -0.6481 -0.2904
  793MOL0     C 4550   8.462   3.579   8.851  0.0544  1.1077 -0.9739
  793MOL0     C 4551   8.430   3.699   8.919  0.6778  0.0196  0.2694
  793MOL0     O 4552   8.373   3.794   8.840  0.2398  0.5362 -0.2364
  793MOL0     C 4553   8.407   3.928   8.873  0.4143  0.0932  0.2749
  793MOL0     C 4554   8.393   4.016   8.747 -0.0105 -0.1002  0.7521
  793MOL0     C 4555   8.523   4.003   8.666  0.4567  0.2587  0.0839
  793MOL0     C 4556   8.537   3.880   8.584 -0.7949  0.4268  0.7726
  793MOL0     C 4557   8.673   3.895   8.512 -0.7531 -0.1540 -1.3807
  793MOL0     C 4558   8.707   3.785   8.406  0.2874 -0.2632 -0.3296
  793MOL0     C 4559   8.850   3.792   8.360 -0.5146  0.3928 -0.1059
  793MOL0     C 4560   8.948   3.742   8.466 -0.3247  0.3173  0.4041
  793MOL0     N 4561   8.928   3.608   8.507  0.1760  0.7419 -0.2196
  793MOL0     C 4562   8.899   3.558   8.639 -0.8137  0.9400  1.0335
  793MOL0     C 4563   8.895   3.419   8.630 -0.0697  1.1827 -0.7843
  793MOL0     C 4564   8.874   3.319   8.741 -0.2181  0.6270 -0.0718
  793MOL0     C 4565   9.010   3.256   8.788  0.1886 -1.2521  0.3004
  793MOL0     C 4566   9.076   3.318   8.909 -0.4126 -0.5416  0.2112
  793MOL0     C 4567   9.203   3.233   8.949  0.3320 -0.5315 -0.7847
  793MOL0     O 4568   9.236   3.279   9.078 -0.1020  0.4505  0.7958
  793MOL0     C 4569   9.338   3.363   9.093  0.0618  0.2445  0.5395
  793MOL0     C 4570   9.331   3.492   9.153 -0.3659 -0.7488 -0.5794
  793MOL0     C 4571   9.446   3.572   9.169 -0.6919 -0.2876  0.1149
  793MOL0     C 4572   9.573   3.525   9.126 -0.8778 -0.2042  0.6318
  793MOL0     C 4573   9.689   3.625   9.150  0.5233  0.4763 -0.4273
  793MOL0     O 4574   9.667   3.761   9.185  0.1724 -0.2694  0.4233
  793MOL0     C 4575   9.783   3.835   9.196  0.1757  0.0505 -0.2453
  793MOL0     C 4576   9.828   3.890   9.314  0.1206  0.6268 -0.8485
  793MOL0     C 4577   9.945   3.974   9.318 -0.6396  0.5988  0.3511
  793MOL0     C 4578  10.009   4.012   9.194 -0.5421 -0.4012 -0.7866
  793MOL0     O 4579  10.122   4.088   9.167 -0.0753 -0.2478 -0.9088
  793MOL0     C 4580  10.166   4.159   9.278  0.6244  0.9229 -0.9542
  793MOL0     C 4581  10.299   4.228   9.246 -0.1861 -0.0571 -0.8055
  793MOL0     C 4582  10.302   4.328   9.133  0.3082  0.5210 -0.3465
  793MOL0     C 4583  10.436   4.405   9.116  0.5604 -0.4140 -0.2636
  793MOL0     C 4584  10.430   4.502   9.000 -0.4065  0.2798 -0.2821
  793MOL0     C 4585  10.564   4.564   8.971 -0.8906  0.4462 -0.2142
  793MOL0     C 4586  10.568   4.640   8.849  0.1800 -0.3038  0.0314
  793MOL0     C 4587  10.455   4.734   8.824  0.2321 -1.2237 -0.7370
  793MOL0    Cl 4588  10.460   4.824   8.659  0.1922  0.6151  0.4917
  793MOL0     C 4589   9.963   3.952   9.081 -0.2892 -0.3477 -0.2953
  793MOL0     C 4590   9.852   3.860   9.078  0.1834  0.6169 -0.5379
  793MOL0     O 4591   9.806   3.579   9.132 -0.5161 -1.0145 -0.5714
  793MOL0     C 4592   9.585   3.394   9.082  0.1585 -0.9924  0.2633
  793MOL0     C 4593   9.466   3.322   9.044 -0.2378  0.3635  0.3939
  793MOL0     N 4594   8.915   3.389   8.495  0.8463  0.3044 -0.6366
  793MOL0     N 4595   8.941   3.495   8.428 -0.3177 -0.4976 -0.0757
  793MOL0     C 4596   8.454   3.704   9.050 -1.2548  0.1989 -0.6030
  793MOL0     C 4597   8.526   3.608   9.119 -1.1930 -0.7219  0.5624
  793MOL0     C 4598   8.787   3.233   9.207 -0.9852  0.4580  0.4897
  793MOL0     C 4599   8.708   3.132   9.240 -0.5636 -0.0875  0.0871
  793MOL0     C 4600   8.751   3.011   9.298  0.9275  0.1529  0.1117
  793MOL0     C 4601   8.884   3.002   9.334 -0.2953 -0.8427  0.2899
  793MOL0     O 4602   8.940   2.885   9.378 -0.4681 -0.3753  0.0177
  793MOL0     C 4603   8.858   2.773   9.408  0.9117  0.1290  0.0013
  793MOL0     C 4604   8.951   2.669   9.465  0.9935 -0.2404  0.1388
  793MOL0     C 4605   9.036   2.713   9.590  0.2410 -0.4996  0.5360
  793MOL0     C 4606   8.956   2.761   9.717  0.1292 -0.2418 -0.2408
  793MOL0     C 4607   9.061   2.763   9.827  0.4411  0.2972  0.6681
  793MOL0     C 4608   9.138   2.748   9.911  0.5156 -0.9250  0.1065
  793MOL0     C 4609   8.970   3.111   9.306  0.1478 -0.1615 -0.0870
  793MOL0     C 4610   8.919   3.231   9.256 -0.0629 -0.0154  0.1719
  793MOL0     H 4611   8.551   3.382   8.864 -0.3329  0.0219 -1.5294
  793MOL0     H 4612   8.434   3.567   8.747  0.4190 -1.4204 -0.8462
  793MOL0     H 4613   8.503   3.943   8.923 -0.4270 -2.5675  2.9272
  793MOL0     H 4614   8.336   3.955   8.951  3.1956 -1.0206  3.4413
  793MOL0     H 4615   8.380   4.118   8.785 -1.9976 -1.3073  3.6519
  793MOL0     H 4616   8.297   3.996   8.699 -0.1400  2.7979 -0.3696
  793MOL0     H 4617   8.617   4.020   8.719 -0.8728  2.3066  1.9398
  793MOL0     H 4618   8.511   4.070   8.580  2.0325 -1.7327 -1.8268
  793MOL0     H 4619   8.538   3.789   8.644  0.9545 -1.5464 -2.0112
  793MOL0     H 4620   8.454   3.881   8.513  0.3347 -0.1894 -0.6141
  793MOL0     H 4621   8.749   3.892   8.590 -1.1546 -0.4873 -0.9983
  793MOL0     H 4622   8.682   3.992   8.462  2.7248  1.6057  2.1215
  793MOL0     H 4623   8.629   3.793   8.331  0.4823 -0.3520 -0.5411
  793MOL0     H 4624   8.689   3.686   8.449 -1.2913  0.2426  0.2500
  793MOL0     H 4625   8.856   3.733   8.268  0.0511 -2.6352  1.7109
  793MOL0     H 4626   8.865   3.898   8.338 -1.6223  0.6435  0.3187
  793MOL0     H 4627   8.941   3.799   8.559 -1.6527  1.1780 -0.1905
  793MOL0     H 4628   9.044   3.760   8.417 -0.0390  1.1879  1.2479
  793MOL0     H 4629   8.873   3.601   8.735  1.0641 -1.4648  2.7500
  793MOL0     H 4630   8.810   3.235   8.712  1.7290 -0.9863  0.0512
  793MOL0     H 4631   8.833   3.373   8.827  3.4400 -1.7913  3.5491
  793MOL0     H 4632   9.078   3.263   8.703  0.9037 -0.4261  0.9196
  793MOL0     H 4633   8.999   3.149   8.805  0.9697 -1.0666  2.1891
  793MOL0     H 4634   9.106   3.422   8.898  1.3221 -1.2555 -2.8859
  793MOL0     H 4635   8.994   3.308   8.982  0.8926  1.8902  2.1550
  793MOL0     H 4636   9.278   3.236   8.870 -1.7335 -1.5527 -2.8983
  793MOL0     H 4637   9.168   3.129   8.950 -1.5231 -0.0081 -2.8894
  793MOL0     H 4638   9.238   3.536   9.187  2.5373  1.4620  5.9990
  793MOL0     H 4639   9.440   3.676   9.201  1.2523 -0.1434  0.1446
  793MOL0     H 4640   9.788   3.860   9.410  1.1361  0.4287 -0.4699
  793MOL0     H 4641   9.963   4.022   9.413  0.1390  1.1946 -0.0783
  793MOL0     H 4642  10.186   4.088   9.359  1.4230  0.2610 -1.7094
  793MOL0     H 4643  10.091   4.234   9.306 -0.9762 -0.9420  0.0134
  793MOL0     H 4644  10.383   4.159   9.236  3.3677  3.2899  2.7287
  793MOL0     H 4645  10.321   4.280   9.340 -0.1077 -1.5195  0.0131
  793MOL0     H 4646  10.217   4.395   9.151 -0.8714 -0.5585 -1.7012
  793MOL0     H 4647  10.278   4.273   9.042  1.4744  0.1995 -0.4816
  793MOL0     H 4648  10.454   4.455   9.211 -0.4464 -1.7654  0.6669
  793MOL0     H 4649  10.522   4.337   9.112  0.6990 -0.2357 -0.3616
  793MOL0     H 4650  10.353   4.573   9.033 -1.9361 -1.3361 -0.2360
  793MOL0     H 4651  10.382   4.447   8.919 -1.1731  0.6382 -0.0801
  793MOL0     H 4652  10.644   4.491   8.959 -1.1164  0.2295 -0.4040
  793MOL0     H 4653  10.608   4.624   9.051 -1.9160 -0.2948  0.9579
  793MOL0     H 4654  10.660   4.698   8.839 -0.0652  0.7714  2.9102
  793MOL0     H 4655  10.550   4.563   8.774  2.2019 -1.7746  0.9765
  793MOL0     H 4656  10.452   4.807   8.904  1.3020 -2.4457  0.4701
  793MOL0     H 4657  10.361   4.678   8.829 -0.6811  0.3582  0.5897
  793MOL0     H 4658  10.014   3.984   8.991 -1.2744  2.3583  0.0073
  793MOL0     H 4659   9.833   3.811   8.983 -0.8065 -0.8322  0.3591
  793MOL0     H 4660   9.682   3.354   9.053  0.8365 -0.2500  1.3989
  793MOL0     H 4661   9.467   3.229   8.988 -0.4604  1.0778 -0.8324
  793MOL0     H 4662   8.429   3.798   9.098  0.9312  1.3719 -1.5973
  793MOL0     H 4663   8.560   3.624   9.220  4.7612 -3.2211 -0.6427
  793MOL0     H 4664   8.603   3.139   9.213 -1.3663 -0.5845  2.8515
  793MOL0     H 4665   8.674   2.937   9.314  0.0296  1.2469  1.0616
  793MOL0     H 4666   8.812   2.730   9.319  0.7502  1.3276 -0.5131
  793MOL0     H 4667   8.782   2.792   9.485  1.4050  0.5079  0.3985
  793MOL0     H 4668   8.887   2.583   9.489 -0.1181  0.2355 -0.9912
  793MOL0     H 4669   9.018   2.639   9.384 -0.8911 -2.2592 -0.7893
  793MOL0     H 4670   9.105   2.785   9.544 -0.5697  0.7055  1.1797
  793MOL0     H 4671   9.106   2.634   9.620  1.1704  0.9074  2.2274
  793MOL0     H 4672   8.925   2.865   9.703 -0.9710 -0.3871  1.0067
  793MOL0     H 4673   8.868   2.707   9.752  0.4354 -0.7167 -0.1868
  793MOL0     H 4674   9.210   2.741   9.989  1.3315 -2.6709 -0.7391
  793MOL0     H 4675   9.072   3.108   9.344  0.0045  2.0044  0.5862
  793MOL0     H 4676   8.979   3.321   9.259  0.0285 -0.0872  2.7147
  794MOL0     O 4677   0.738  10.578   0.890 -0.0176  0.3724  0.6585
  794MOL0     C 4678   0.701  10.617   1.003 -0.2723 -1.0369 -0.2573
  794MOL0     O 4679   0.583  10.684   1.027 -0.2858 -0.3578  0.2586
  794MOL0     C 4680   0.495  10.715   0.925 -1.0167  0.3068 -1.3439
  794MOL0     C 4681   0.443  10.610   0.842 -0.2866 -0.6329  0.2209
  794MOL0     C 4682   0.341  10.632   0.741 -0.5237 -0.3736  0.4618
  794MOL0     C 4683   0.294  10.768   0.726 -0.8122  0.7227  0.3481
  794MOL0     O 4684   0.222  10.820   0.631 -0.0675  0.1495 -0.2930
  794MOL0     C 4685   0.204  10.749   0.509 -0.8282 -0.6357 -0.3506
  794MOL0     C 4686   0.145  10.837   0.389 -0.4636  0.0947 -0.0406
  794MOL0     C 4687  -0.004  10.859   0.397 -0.7732 -0.4809  0.6995
  794MOL0     C 4688  -0.094  10.739   0.381 -0.9978 -0.7562 -0.6123
  794MOL0     C 4689  -0.237  10.780   0.417  0.0164  0.1943 -0.0482
  794MOL0     C 4690  -0.318  10.850   0.303  1.0284  0.1175  0.1066
  794MOL0     C 4691  -0.462  10.856   0.345  0.0102 -0.1845  0.0179
  794MOL0     C 4692  -0.557  10.840   0.221  0.6959  0.1114  0.6560
  794MOL0     N 4693  -0.701  10.830   0.259 -0.8236 -0.8223 -0.2898
  794MOL0     C 4694  -0.753  10.889   0.373  0.4164 -0.3658 -0.9644
  794MOL0     C 4695  -0.876  10.831   0.384 -0.4479 -0.3594  0.4588
  794MOL0     C 4696  -0.971  10.863   0.495  0.1445  0.7487 -0.1328
  794MOL0     C 4697  -1.032  11.000   0.476  0.0327  0.0638  0.4200
  794MOL0     C 4698  -1.085  11.056   0.611 -0.5540 -0.1543  0.2142
  794MOL0     C 4699  -1.004  11.166   0.656 -0.4082 -0.2965 -0.0301
  794MOL0     O 4700  -1.085  11.209   0.770 -0.3757 -0.2396  0.2815
  794MOL0     C 4701  -1.082  11.342   0.808  0.9129  0.2417 -0.6375
  794MOL0     C 4702  -1.025  11.447   0.734  0.0361 -0.3532 -0.9274
  794MOL0     C 4703  -1.029  11.586   0.769 -0.1722 -0.0936  0.0205
  794MOL0     C 4704  -1.074  11.615   0.898 -1.0806  0.2026  0.7096
  794MOL0     C 4705  -1.083  11.763   0.938  0.1452 -0.0637 -0.0351
  794MOL0     O 4706  -1.089  11.783   1.078  0.4740  0.6699  0.3766
  794MOL0     C 4707  -1.088  11.913   1.137  1.5143 -0.2533 -0.1404
  794MOL0     C 4708  -1.180  12.016   1.092 -0.3058 -0.0261 -0.4102
  794MOL0     C 4709  -1.174  12.145   1.141  0.2919  0.1008 -0.2117
  794MOL0     C 4710  -1.094  12.172   1.257 -0.4395 -0.2962  0.6902
  794MOL0     O 4711  -1.098  12.287   1.329 -0.1656 -0.1450  0.3306
  794MOL0     C 4712  -1.142  12.410   1.260 -0.5814 -0.2619  0.4363
  794MOL0     C 4713  -1.043  12.457   1.145  0.3156 -0.4069 -0.0397
  794MOL0     C 4714  -0.920  12.529   1.208  0.1641 -0.3080  0.2524
  794MOL0     C 4715  -0.817  12.436   1.293 -0.5492  0.4139  0.4781
  794MOL0     C 4716  -0.685  12.508   1.333 -0.5981 -0.8867 -0.2859
  794MOL0     C 4717  -0.709  12.632   1.421 -0.4501  0.5142  0.0860
  794MOL0     C 4718  -0.586  12.734   1.428 -0.0044 -0.8215 -0.0051
  794MOL0     C 4719  -0.467  12.693   1.505 -0.2303 -0.3456  0.7088
  794MOL0    Cl 4720  -0.510  12.700   1.683 -0.2177 -0.0474 -0.4009
  794MOL0     C 4721  -1.015  12.076   1.312  0.4870  0.6964 -0.4551
  794MOL0     C 4722  -1.013  11.946   1.261  1.0531  0.1032  0.4191
  794MOL0     O 4723  -1.068  11.851   0.858 -0.4537  0.0401 -0.0393
  794MOL0     C 4724  -1.121  11.516   0.981  0.3293 -0.2015  0.3117
  794MOL0     C 4725  -1.135  11.384   0.933  0.1819  0.4866 -0.2804
  794MOL0     N 4726  -0.881  10.726   0.290 -0.2050 -0.2185 -0.2774
  794MOL0     N 4727  -0.775  10.731   0.215  0.7607  0.0954 -0.1303
  794MOL0     C 4728   0.337  10.864   0.822  0.5546  0.8897 -0.2214
  794MOL0     C 4729   0.433  10.841   0.922  0.1663  0.4747  0.1854
  794MOL0     C 4730   0.777  10.567   1.114 -0.6817  0.1715  0.3145
  794MOL0     C 4731   0.887  10.480   1.089 -0.2828  0.2701 -0.5502
  794MOL0     C 4732   0.960  10.410   1.196  0.7541 -0.7325 -0.7704
  794MOL0     C 4733   0.918  10.432   1.328  0.8297  0.3467 -0.0912
  794MOL0     O 4734   0.994  10.370   1.428  0.0090 -0.2224  0.1395
  794MOL0     C 4735   0.961  10.393   1.570  0.2712  0.3818  0.6285
  794MOL0     C 4736   1.087  10.341   1.644  0.1500  0.5189 -0.2799
  794MOL0     C 4737   1.202  10.442   1.658  0.6034  0.2728 -0.0004
  794MOL0     C 4738   1.322  10.360   1.708 -0.4937  1.0206 -0.3661
  794MOL0     C 4739   1.318  10.317   1.849  0.0746 -0.4518 -0.5448
  794MOL0     C 4740   1.325  10.279   1.967  0.2786  0.5571 -1.0123
  794MOL0     C 4741   0.795  10.491   1.353  0.0053 -0.7940  0.1019
  794MOL0     C 4742   0.730  10.574   1.252 -0.4129  0.5466 -0.1418
  794MOL0     H 4743   0.475  10.506   0.852  1.6736 -0.2685 -1.4033
  794MOL0     H 4744   0.309  10.553   0.674  1.4944 -2.7191  2.0826
  794MOL0     H 4745   0.139  10.662   0.517  0.1797 -1.5403 -1.4847
  794MOL0     H 4746   0.307  10.719   0.486 -0.6590  0.0105 -0.4464
  794MOL0     H 4747   0.175  10.802   0.290 -0.3191  0.4873 -0.1376
  794MOL0     H 4748   0.190  10.936   0.399  0.6721 -0.4308  0.2193
  794MOL0     H 4749  -0.023  10.931   0.317  1.0589 -0.8616 -0.1555
  794MOL0     H 4750  -0.018  10.906   0.495 -1.6112  1.0390 -0.1196
  794MOL0     H 4751  -0.078  10.688   0.285  2.6310  0.0671 -0.5899
  794MOL0     H 4752  -0.072  10.654   0.446  0.9160 -1.6082 -2.2622
  794MOL0     H 4753  -0.241  10.831   0.514 -1.2682 -1.8021  1.0280
  794MOL0     H 4754  -0.295  10.689   0.437 -2.1205  1.4474 -0.2466
  794MOL0     H 4755  -0.307  10.794   0.210 -2.9451 -1.7442  0.5302
  794MOL0     H 4756  -0.298  10.958   0.297  1.1649  0.1285  0.6470
  794MOL0     H 4757  -0.492  10.785   0.423  0.9900  0.9356  1.4677
  794MOL0     H 4758  -0.483  10.954   0.387  2.8624 -0.2508  1.7864
  794MOL0     H 4759  -0.521  10.755   0.163 -0.9260 -0.3684  0.3238
  794MOL0     H 4760  -0.547  10.922   0.149  0.8343 -1.6957 -1.4901
  794MOL0     H 4761  -0.708  10.962   0.440 -1.1510  1.0863 -1.3969
  794MOL0     H 4762  -0.922  10.863   0.593 -0.8727 -0.8767  0.4209
  794MOL0     H 4763  -1.059  10.798   0.487  1.0722 -0.2876 -3.3866
  794MOL0     H 4764  -1.120  10.999   0.410 -0.0060  0.7738  0.4548
  794MOL0     H 4765  -0.966  11.070   0.425 -0.0934  2.7741  3.6382
  794MOL0     H 4766  -1.185  11.099   0.602 -0.9615 -0.8473  1.2425
  794MOL0     H 4767  -1.084  10.970   0.679  2.1861 -0.2607  0.1525
  794MOL0     H 4768  -1.003  11.232   0.569  0.4379 -2.4878 -1.7815
  794MOL0     H 4769  -0.901  11.132   0.673 -0.8971 -0.5252  3.1198
  794MOL0     H 4770  -0.985  11.441   0.633  0.7668  0.2413 -0.6838
  794MOL0     H 4771  -0.999  11.660   0.696 -2.5246  0.5168 -0.4073
  794MOL0     H 4772  -1.247  11.990   1.011  2.7714 -4.0675 -2.0133
  794MOL0     H 4773  -1.229  12.230   1.101  1.4851  1.5798  1.1230
  794MOL0     H 4774  -1.146  12.485   1.339  2.6702  2.9581 -2.1412
  794MOL0     H 4775  -1.238  12.406   1.208  0.2838 -3.0466 -1.1880
  794MOL0     H 4776  -1.087  12.540   1.087  2.9553  2.0576  1.2363
  794MOL0     H 4777  -1.019  12.373   1.080 -1.7440 -0.0940 -1.3203
  794MOL0     H 4778  -0.953  12.617   1.264  2.5344  0.7778  0.0831
  794MOL0     H 4779  -0.856  12.567   1.128  0.8837 -2.4073 -0.2164
  794MOL0     H 4780  -0.865  12.400   1.385  0.8517  1.7078  1.7828
  794MOL0     H 4781  -0.799  12.344   1.237  0.8799 -0.4417  2.1950
  794MOL0     H 4782  -0.633  12.541   1.243 -0.9175  3.6783  0.9887
  794MOL0     H 4783  -0.621  12.434   1.383  0.0802 -0.3900 -0.4033
  794MOL0     H 4784  -0.719  12.604   1.526  0.4407 -0.6363 -0.1173
  794MOL0     H 4785  -0.805  12.679   1.398 -1.1085  2.4114  5.4304
  794MOL0     H 4786  -0.549  12.753   1.327 -0.5962 -2.5285 -0.5822
  794MOL0     H 4787  -0.624  12.833   1.454 -0.4406 -1.2460  1.0565
  794MOL0     H 4788  -0.373  12.747   1.490  0.5031 -1.3658  1.5050
  794MOL0     H 4789  -0.430  12.594   1.479 -2.0967 -1.0577  0.6238
  794MOL0     H 4790  -0.967  12.108   1.403 -2.8736  2.1038  1.0110
  794MOL0     H 4791  -0.951  11.870   1.307  1.8534  0.2605 -0.3681
  794MOL0     H 4792  -1.179  11.540   1.069 -0.8521 -1.1760 -0.1663
  794MOL0     H 4793  -1.189  11.308   0.989 -0.7415  2.0362  1.0194
  794MOL0     H 4794   0.290  10.961   0.813 -1.9507  0.1400  2.9180
  794MOL0     H 4795   0.474  10.918   0.986  1.2010 -2.0962  2.8738
  794MOL0     H 4796   0.924  10.462   0.988 -0.0107 -1.5210 -0.1535
  794MOL0     H 4797   1.035  10.335   1.174  1.9900  0.7228 -1.8129
  794MOL0     H 4798   0.872  10.337   1.599  0.1253  0.2624 -0.0308
  794MOL0     H 4799   0.953  10.502   1.576  3.6884  0.7333  1.1717
  794MOL0     H 4800   1.054  10.297   1.739 -1.7673 -0.2659 -1.2506
  794MOL0     H 4801   1.125  10.259   1.582  0.5177 -0.2131  0.8896
  794MOL0     H 4802   1.168  10.507   1.739 -3.4208  0.6881 -1.8098
  794MOL0     H 4803   1.218  10.506   1.571 -0.6649 -0.4404 -0.7989
  794MOL0     H 4804   1.341  10.268   1.652 -4.1265 -1.4096  1.9283
  794MOL0     H 4805   1.403  10.432   1.703 -1.2311  2.0135  1.3816
  794MOL0     H 4806   1.316  10.249   2.069 -1.5294 -1.2762 -1.6294
  794MOL0     H 4807   0.755  10.499   1.453 -1.5797  1.0651 -0.6248
  794MOL0     H 4808   0.637  10.627   1.272 -0.5996  1.1533 -2.4432
  795MOL0     O 4809   7.728   9.222   5.571  0.0533  0.7321 -0.1505
  795MOL0     C 4810   7.700   9.159   5.467 -0.2710  0.3433 -0.5693
  795MOL0     O 4811   7.766   9.058   5.407 -0.2699  0.7371  0.9019
  795MOL0     C 4812   7.884   9.003   5.468  0.7798 -0.9110  0.1100
  795MOL0     C 4813   7.882   8.962   5.601  0.7554 -0.5944 -0.9940
  795MOL0     C 4814   7.986   8.894   5.650 -0.6713 -0.5676 -0.0780
  795MOL0     C 4815   8.111   8.886   5.579 -0.3647  0.7584  0.1492
  795MOL0     O 4816   8.218   8.815   5.628  0.8787 -0.9100 -0.5228
  795MOL0     C 4817   8.212   8.776   5.767 -0.3715 -0.0192  0.2163
  795MOL0     C 4818   8.338   8.692   5.793  0.1670  0.5605 -0.0734
  795MOL0     C 4819   8.466   8.754   5.737 -0.5432  0.0761  1.0889
  795MOL0     C 4820   8.601   8.714   5.792  0.3980 -1.3574  0.6393
  795MOL0     C 4821   8.631   8.561   5.763 -0.4663  0.5103 -0.0376
  795MOL0     C 4822   8.775   8.523   5.769  0.0318  0.5421  1.4126
  795MOL0     C 4823   8.808   8.376   5.795 -0.0656  0.4169  0.5155
  795MOL0     C 4824   8.803   8.279   5.684 -0.2356  0.6645  0.3767
  795MOL0     N 4825   8.896   8.336   5.581  0.0997  0.5786 -0.8047
  795MOL0     C 4826   9.033   8.326   5.588 -1.0221 -0.5825  0.3487
  795MOL0     C 4827   9.079   8.386   5.480 -0.0246  0.3017 -0.1190
  795MOL0     C 4828   9.219   8.399   5.428  0.1442 -0.8602  0.0685
  795MOL0     C 4829   9.303   8.502   5.509 -0.9668 -0.2611  0.1457
  795MOL0     C 4830   9.272   8.643   5.450  0.2447  0.2519  0.9413
  795MOL0     C 4831   9.335   8.762   5.527 -0.1330  0.7554  0.1268
  795MOL0     O 4832   9.436   8.816   5.441  0.2120 -0.0238  0.1705
  795MOL0     C 4833   9.569   8.782   5.458 -0.3824 -0.3008 -0.5501
  795MOL0     C 4834   9.612   8.683   5.545  0.0723  0.4100 -0.6052
  795MOL0     C 4835   9.747   8.676   5.580 -0.0848 -0.1221 -0.2237
  795MOL0     C 4836   9.839   8.761   5.531 -0.1536  0.2558 -0.4080
  795MOL0     C 4837   9.975   8.742   5.568  0.5029 -0.6998  0.8340
  795MOL0     O 4838  10.008   8.677   5.683  0.2159  0.3179 -0.2544
  795MOL0     C 4839  10.138   8.649   5.715 -0.1902  0.0383 -1.1683
  795MOL0     C 4840  10.163   8.624   5.852 -0.1778  0.0917 -0.0229
  795MOL0     C 4841  10.288   8.601   5.898  0.1188  0.5467 -0.5346
  795MOL0     C 4842  10.390   8.594   5.805 -0.3209 -0.2436 -0.5043
  795MOL0     O 4843  10.518   8.592   5.851 -0.4694 -0.2328  0.1129
  795MOL0     C 4844  10.547   8.495   5.959 -0.3736 -0.5296 -0.2227
  795MOL0     C 4845  10.688   8.433   5.948 -0.1658 -0.3408  0.3812
  795MOL0     C 4846  10.797   8.529   5.937 -0.1452  0.2188  0.0140
  795MOL0     C 4847  10.924   8.440   5.905  0.0890 -0.5257  0.3315
  795MOL0     C 4848  11.050   8.532   5.909 -0.6590 -0.4933 -0.1413
  795MOL0     C 4849  11.178   8.455   5.949 -0.4452 -0.1577 -0.1277
  795MOL0     C 4850  11.297   8.549   5.965  0.1704 -0.0019  0.0175
  795MOL0     C 4851  11.419   8.470   6.015 -0.0143  0.5474  0.0355
  795MOL0    Cl 4852  11.550   8.598   6.007 -0.2043  0.3767 -0.5339
  795MOL0     C 4853  10.368   8.599   5.662  0.5502 -0.3860 -0.2441
  795MOL0     C 4854  10.236   8.615   5.625 -0.4050 -0.0903 -0.1362
  795MOL0     O 4855  10.052   8.793   5.491  0.7002 -1.0617  0.9513
  795MOL0     C 4856   9.791   8.863   5.447 -0.6596 -0.2296 -0.1857
  795MOL0     C 4857   9.662   8.874   5.405 -0.2964  0.0627  0.0422
  795MOL0     N 4858   8.968   8.418   5.412  0.2777  0.1618  0.5254
  795MOL0     N 4859   8.856   8.404   5.476 -1.6227 -0.3383 -0.3040
  795MOL0     C 4860   8.114   8.941   5.451  0.2031  0.3352 -0.2913
  795MOL0     C 4861   8.005   8.997   5.402 -0.0240  0.1919 -0.2203
  795MOL0     C 4862   7.573   9.207   5.395 -0.9747  0.2298 -0.4848
  795MOL0     C 4863   7.500   9.320   5.445  0.0124  0.8282  1.0222
  795MOL0     C 4864   7.377   9.355   5.380  0.3868 -0.2058  0.2564
  795MOL0     C 4865   7.324   9.275   5.268 -0.3420 -0.6101  0.6587
  795MOL0     O 4866   7.210   9.312   5.194 -0.8470 -0.3937  0.1392
  795MOL0     C 4867   7.122   9.414   5.247  0.6036 -0.2824 -0.3025
  795MOL0     C 4868   7.164   9.553   5.199 -0.4430 -1.0908  0.4368
  795MOL0     C 4869   7.168   9.563   5.049 -0.2502  0.3028 -0.1814
  795MOL0     C 4870   7.235   9.698   5.009 -0.4681 -1.0684 -0.1522
  795MOL0     C 4871   7.249   9.701   4.858  0.1994 -0.5408 -0.0402
  795MOL0     C 4872   7.267   9.706   4.742  0.4253  0.3824 -0.2944
  795MOL0     C 4873   7.407   9.178   5.218  0.4134  0.2005 -0.5835
  795MOL0     C 4874   7.531   9.138   5.281 -0.3148  0.2830 -0.2956
  795MOL0     H 4875   7.795   8.987   5.661  0.1430 -1.3018 -1.5662
  795MOL0     H 4876   7.961   8.843   5.742  0.9271 -1.0179  0.1351
  795MOL0     H 4877   8.119   8.722   5.790 -0.4215  1.1566  3.0737
  795MOL0     H 4878   8.208   8.872   5.819  0.3266  0.5745 -0.7996
  795MOL0     H 4879   8.318   8.590   5.757  0.1316 -0.7517  3.3078
  795MOL0     H 4880   8.350   8.685   5.901  0.0389  1.5672  0.0167
  795MOL0     H 4881   8.452   8.860   5.759  1.4226  0.1961  1.9429
  795MOL0     H 4882   8.464   8.743   5.628 -2.0963  2.9413  0.7190
  795MOL0     H 4883   8.673   8.782   5.744  0.2731 -0.3271  1.8469
  795MOL0     H 4884   8.610   8.744   5.896 -1.8111 -0.1690  0.5295
  795MOL0     H 4885   8.590   8.529   5.667  2.1664 -0.5664 -0.9006
  795MOL0     H 4886   8.585   8.509   5.848  1.9780  1.2609  1.8734
  795MOL0     H 4887   8.813   8.571   5.860  2.8496  0.5010  0.3826
  795MOL0     H 4888   8.830   8.561   5.682 -1.4746 -0.2396  0.0789
  795MOL0     H 4889   8.907   8.377   5.840  1.1299  1.0512 -1.9869
  795MOL0     H 4890   8.731   8.350   5.869 -0.6873 -0.5040 -0.4295
  795MOL0     H 4891   8.699   8.274   5.651 -0.9079 -0.5512  2.4459
  795MOL0     H 4892   8.830   8.184   5.732 -3.2705  0.5908  2.1635
  795MOL0     H 4893   9.095   8.288   5.669  1.4882  0.1891 -1.1318
  795MOL0     H 4894   9.229   8.418   5.321  1.1592 -0.7476  0.1729
  795MOL0     H 4895   9.274   8.305   5.438  2.7115  0.2593 -2.2629
  795MOL0     H 4896   9.408   8.487   5.486 -1.4282  1.0480 -3.5512
  795MOL0     H 4897   9.293   8.498   5.618 -1.1504  1.5149  0.2233
  795MOL0     H 4898   9.310   8.636   5.348  0.7401  5.0612  0.5687
  795MOL0     H 4899   9.164   8.656   5.441  0.0926  0.4469  2.7318
  795MOL0     H 4900   9.361   8.735   5.629 -1.5539 -0.8220  0.1023
  795MOL0     H 4901   9.254   8.834   5.534  0.4434  1.5276 -0.8602
  795MOL0     H 4902   9.543   8.620   5.601 -1.5169  2.3923 -0.2443
  795MOL0     H 4903   9.767   8.601   5.655 -2.8682 -0.5476  0.2056
  795MOL0     H 4904  10.093   8.656   5.929  1.5264  1.3055  1.0738
  795MOL0     H 4905  10.303   8.587   6.005 -1.8935  0.8081 -0.1889
  795MOL0     H 4906  10.482   8.407   5.951  1.2586 -1.6583 -1.7874
  795MOL0     H 4907  10.546   8.547   6.055  2.0835  2.4249 -1.6324
  795MOL0     H 4908  10.688   8.362   5.865  1.2474 -0.8048  0.7603
  795MOL0     H 4909  10.710   8.386   6.044  0.4397 -0.5480  0.1472
  795MOL0     H 4910  10.805   8.593   6.025 -2.9670  0.6830  0.0249
  795MOL0     H 4911  10.790   8.583   5.842 -1.1624  0.6142  0.2994
  795MOL0     H 4912  10.941   8.353   5.970 -0.0999 -2.3571 -1.9318
  795MOL0     H 4913  10.915   8.394   5.806 -3.2231 -0.9556  0.7305
  795MOL0     H 4914  11.031   8.604   5.989 -2.9597 -1.6030  0.4227
  795MOL0     H 4915  11.071   8.582   5.814  0.1331 -0.0437  0.2564
  795MOL0     H 4916  11.206   8.385   5.870  0.4018  0.0706 -0.0378
  795MOL0     H 4917  11.165   8.405   6.045  1.3083  0.2282  0.3323
  795MOL0     H 4918  11.321   8.599   5.871  0.8159  1.7709  1.0862
  795MOL0     H 4919  11.276   8.630   6.035  2.0067  0.7121 -0.2216
  795MOL0     H 4920  11.444   8.382   5.954  1.8995  0.2747  1.1336
  795MOL0     H 4921  11.402   8.428   6.114  2.1319  1.4078  0.8247
  795MOL0     H 4922  10.450   8.558   5.604  0.4030  0.7893 -1.3347
  795MOL0     H 4923  10.206   8.612   5.520 -0.7799 -3.1006 -0.0306
  795MOL0     H 4924   9.856   8.935   5.399  0.2887 -0.9423 -0.0160
  795MOL0     H 4925   9.630   8.960   5.348  0.4784  1.0721  1.0941
  795MOL0     H 4926   8.205   8.943   5.391 -0.6777 -0.2674 -1.6880
  795MOL0     H 4927   8.003   9.037   5.300 -3.3045 -0.3410 -0.4932
  795MOL0     H 4928   7.544   9.383   5.523  2.2325 -0.7809  1.1727
  795MOL0     H 4929   7.309   9.430   5.420 -2.5914 -2.8022  0.4735
  795MOL0     H 4930   7.103   9.395   5.353 -1.6117 -1.3922 -0.8250
  795MOL0     H 4931   7.020   9.402   5.208 -0.6609  3.6488  1.2770
  795MOL0     H 4932   7.095   9.631   5.234  0.2665  0.9715 -2.4657
  795MOL0     H 4933   7.263   9.585   5.233 -0.9836  1.4549 -0.1828
  795MOL0     H 4934   7.066   9.563   5.008 -0.3469 -0.1479  0.0556
  795MOL0     H 4935   7.221   9.473   5.016  1.3634  0.0217  2.8098
  795MOL0     H 4936   7.173   9.782   5.039  1.0060  0.3847 -1.0087
  795MOL0     H 4937   7.332   9.715   5.056  0.8187 -0.1350 -2.9401
  795MOL0     H 4938   7.308   9.712   4.643  1.6293  2.6206  0.2780
  795MOL0     H 4939   7.375   9.125   5.128  1.4287  3.6080 -3.1474
  795MOL0     H 4940   7.604   9.067   5.242  1.2043  0.8017  1.4974
  796MOL0     O 4941  11.006   6.538   3.261  0.3810 -0.8443 -0.3284
  796MOL0     C 4942  11.030   6.611   3.167  0.1408  0.0005 -0.7618
  796MOL0     O 4943  11.121   6.717   3.164 -0.5640 -0.2060  0.0812
  796MOL0     C 4944  11.218   6.733   3.264  0.0472 -0.0305 -0.0544
  796MOL0     C 4945  11.193   6.744   3.398  1.0538 -0.3120 -0.5786
  796MOL0     C 4946  11.301   6.756   3.490  0.1790  0.5708 -0.0688
  796MOL0     C 4947  11.436   6.745   3.452  0.4748 -0.1688 -0.2193
  796MOL0     O 4948  11.539   6.746   3.549 -0.4979  0.6399 -0.2511
  796MOL0     C 4949  11.547   6.834   3.663 -0.9799 -0.4744  0.2968
  796MOL0     C 4950  11.650   6.940   3.631  0.4197 -1.2751  0.0533
  796MOL0     C 4951  11.796   6.895   3.622  0.0621  0.0731  0.0444
  796MOL0     C 4952  11.882   7.026   3.601 -1.3640  0.2076  0.1124
  796MOL0     C 4953  12.028   6.980   3.589  0.0368 -0.7064  0.4025
  796MOL0     C 4954  12.096   6.977   3.728 -0.5373  0.3432  0.2909
  796MOL0     C 4955  12.252   6.953   3.694  0.9695 -0.4925 -0.4179
  796MOL0     C 4956  12.353   6.927   3.810 -0.3811 -0.8767  0.1529
  796MOL0     N 4957  12.490   6.893   3.756 -0.0773  0.3308  0.4449
  796MOL0     C 4958  12.580   6.974   3.699  0.0065  0.4551  0.0720
  796MOL0     C 4959  12.684   6.895   3.652  0.7582  0.8484  0.3903
  796MOL0     C 4960  12.822   6.946   3.608  0.2840  1.2016 -0.0799
  796MOL0     C 4961  12.835   7.027   3.476 -0.2088  1.0648  0.4711
  796MOL0     C 4962  12.809   6.952   3.343 -0.1499  1.0337 -0.2344
  796MOL0     C 4963  12.667   6.905   3.327 -0.7607  0.2313  0.5293
  796MOL0     O 4964  12.584   7.020   3.324 -0.0461 -0.0477 -1.6208
  796MOL0     C 4965  12.447   7.003   3.307  0.0222  0.6114  0.5551
  796MOL0     C 4966  12.384   6.885   3.255 -0.7838 -0.0819 -0.0760
  796MOL0     C 4967  12.246   6.883   3.225 -0.5862 -0.1915 -0.6496
  796MOL0     C 4968  12.179   7.011   3.234  0.7626 -0.2930  0.4207
  796MOL0     C 4969  12.039   7.006   3.183 -0.4102  0.3576  0.1449
  796MOL0     O 4970  11.960   7.104   3.222 -0.1831  0.1942 -0.4823
  796MOL0     C 4971  11.826   7.113   3.173 -0.6692  0.1163  0.5870
  796MOL0     C 4972  11.727   7.037   3.233 -1.4003 -0.0446 -0.2070
  796MOL0     C 4973  11.591   7.058   3.201  0.3713  0.2859  0.3565
  796MOL0     C 4974  11.559   7.158   3.106 -0.7247  0.1058  0.7692
  796MOL0     O 4975  11.426   7.184   3.067 -0.1067  0.1079  0.3076
  796MOL0     C 4976  11.325   7.075   3.081 -0.2929  0.4745 -0.7755
  796MOL0     C 4977  11.192   7.144   3.070 -0.0781 -0.8543 -0.4010
  796MOL0     C 4978  11.076   7.054   3.032  0.4510  0.5677  0.4511
  796MOL0     C 4979  10.955   7.145   3.025 -0.0677 -0.4473  0.1956
  796MOL0     C 4980  10.826   7.085   2.974 -0.2107 -0.1311  0.5281
  796MOL0     C 4981  10.704   7.171   2.996  0.7732  0.5311 -0.8128
  796MOL0     C 4982  10.581   7.109   2.939  0.4484  0.3658 -0.6525
  796MOL0     C 4983  10.473   7.211   2.950  1.0369 -0.5714 -0.2168
  796MOL0    Cl 4984  10.403   7.199   3.116 -0.0762 -0.2598 -0.0094
  796MOL0     C 4985  11.657   7.228   3.040 -0.3396  0.1667  0.0689
  796MOL0     C 4986  11.794   7.217   3.070  0.3304  0.8045 -0.0821
  796MOL0     O 4987  12.000   6.905   3.135 -0.2838  0.1813  0.2292
  796MOL0     C 4988  12.243   7.125   3.284  1.2964 -0.5865  0.4514
  796MOL0     C 4989  12.373   7.115   3.332 -0.2940 -0.7197 -0.0532
  796MOL0     N 4990  12.656   6.764   3.676 -0.3668  0.5659 -0.4654
  796MOL0     N 4991  12.532   6.761   3.735  0.1602  0.4154 -0.5192
  796MOL0     C 4992  11.459   6.735   3.315 -0.1453 -0.0503  0.8715
  796MOL0     C 4993  11.352   6.723   3.226  0.4180  0.3581 -0.4024
  796MOL0     C 4994  10.966   6.586   3.043 -0.5266 -0.3478  0.1778
  796MOL0     C 4995  10.943   6.687   2.940 -0.7136 -0.4913 -0.3809
  796MOL0     C 4996  10.889   6.659   2.816 -0.5580 -0.1627 -0.1099
  796MOL0     C 4997  10.860   6.530   2.782  0.1894 -0.0520 -0.5650
  796MOL0     O 4998  10.778   6.516   2.668 -0.5475 -0.4110 -0.3325
  796MOL0     C 4999  10.703   6.396   2.637 -0.0137 -0.8056  0.1698
  796MOL0     C 5000  10.616   6.420   2.519  0.6232 -0.8514 -0.0140
  796MOL0     C 5001  10.703   6.421   2.400 -0.3685 -0.0930  1.6060
  796MOL0     C 5002  10.622   6.492   2.285 -0.4661  0.0461  0.1571
  796MOL0     C 5003  10.566   6.390   2.204 -0.4486 -0.3552  0.6625
  796MOL0     C 5004  10.515   6.298   2.144 -0.0050  0.2388 -0.3058
  796MOL0     C 5005  10.889   6.424   2.875 -0.3371  0.2740  0.0313
  796MOL0     C 5006  10.933   6.456   3.004  0.2642 -0.0216  0.2388
  796MOL0     H 5007  11.095   6.758   3.443  0.6569  0.2588 -1.5752
  796MOL0     H 5008  11.282   6.763   3.597  0.5330 -0.1711  0.0503
  796MOL0     H 5009  11.576   6.796   3.761  0.3642 -1.3225 -0.3985
  796MOL0     H 5010  11.452   6.889   3.669  0.5078  2.5890 -1.6838
  796MOL0     H 5011  11.652   7.008   3.716 -0.7198  0.3420 -1.1373
  796MOL0     H 5012  11.626   7.002   3.544  0.2202 -0.5971  0.5810
  796MOL0     H 5013  11.798   6.815   3.547 -3.0680 -2.6452  2.5219
  796MOL0     H 5014  11.822   6.861   3.723  0.4432  3.9370  1.3974
  796MOL0     H 5015  11.842   7.075   3.512  1.2602  1.5745 -0.4145
  796MOL0     H 5016  11.881   7.090   3.689  0.7197  1.1182 -0.4660
  796MOL0     H 5017  12.078   7.059   3.531 -0.7951 -1.8569 -2.0159
  796MOL0     H 5018  12.041   6.882   3.543  0.1201 -0.2545 -0.5742
  796MOL0     H 5019  12.056   6.904   3.798 -3.1036 -1.3017 -2.5986
  796MOL0     H 5020  12.079   7.077   3.771  0.8974  0.4261  0.6910
  796MOL0     H 5021  12.265   6.863   3.634  0.8659 -0.4823 -0.4550
  796MOL0     H 5022  12.285   7.034   3.628  0.0595 -1.1203 -1.6776
  796MOL0     H 5023  12.316   6.839   3.863 -3.4820  1.5642  2.4840
  796MOL0     H 5024  12.360   7.013   3.878  0.9131 -1.4691  0.7997
  796MOL0     H 5025  12.565   7.079   3.679 -1.1927  0.2248 -0.3214
  796MOL0     H 5026  12.895   6.865   3.594  2.0611  3.1387 -3.0116
  796MOL0     H 5027  12.862   7.009   3.687 -1.4872  2.0565  0.1749
  796MOL0     H 5028  12.938   7.064   3.474 -0.8455  3.2214  2.8166
  796MOL0     H 5029  12.783   7.122   3.492  1.4427  1.7402  2.2460
  796MOL0     H 5030  12.840   6.999   3.249 -0.8472 -1.8270 -2.0322
  796MOL0     H 5031  12.874   6.864   3.356  0.1718  0.7533 -3.1639
  796MOL0     H 5032  12.640   6.841   3.412  3.0975  0.3942  2.0839
  796MOL0     H 5033  12.660   6.846   3.236  1.3993  1.2329 -0.3572
  796MOL0     H 5034  12.439   6.792   3.253 -2.6664 -1.2429  0.0368
  796MOL0     H 5035  12.204   6.787   3.197  1.7522 -1.6015  0.4023
  796MOL0     H 5036  11.758   6.977   3.317 -0.2229 -0.7090 -1.0801
  796MOL0     H 5037  11.510   6.999   3.245 -0.7654 -0.0163 -1.9843
  796MOL0     H 5038  11.316   7.017   3.173  2.4575 -0.9942 -1.3172
  796MOL0     H 5039  11.349   7.003   3.003 -0.2959  0.0582 -0.3943
  796MOL0     H 5040  11.213   7.219   2.993  1.8794  0.0299  0.9359
  796MOL0     H 5041  11.179   7.195   3.165 -0.6299  0.1410 -0.9946
  796MOL0     H 5042  11.071   6.962   3.091  2.1166  0.4617  0.4887
  796MOL0     H 5043  11.107   7.027   2.931 -2.3994  2.4672 -1.0705
  796MOL0     H 5044  10.935   7.198   3.119 -4.3603  1.2971 -1.4263
  796MOL0     H 5045  10.970   7.214   2.942  1.1609  1.0147  1.5699
  796MOL0     H 5046  10.819   6.990   3.028  2.3589 -1.3796 -1.1274
  796MOL0     H 5047  10.842   7.065   2.868 -3.1621  0.4099 -0.1099
  796MOL0     H 5048  10.715   7.275   2.966  0.3589  1.1141  0.9070
  796MOL0     H 5049  10.694   7.162   3.105 -1.8159  2.3704 -0.8029
  796MOL0     H 5050  10.604   7.084   2.835 -0.2012 -0.0067 -0.7134
  796MOL0     H 5051  10.558   7.014   2.989 -0.6116 -0.7207 -3.0430
  796MOL0     H 5052  10.393   7.177   2.883 -0.3254 -0.4624  1.2855
  796MOL0     H 5053  10.505   7.312   2.925 -0.2928 -0.1588 -0.3096
  796MOL0     H 5054  11.638   7.312   2.975  0.5237  1.4191  1.3663
  796MOL0     H 5055  11.876   7.274   3.027  1.2277 -2.4187 -3.1598
  796MOL0     H 5056  12.185   7.216   3.290 -0.8989 -1.9078  0.4542
  796MOL0     H 5057  12.434   7.198   3.365  1.3050 -0.8822 -2.3639
  796MOL0     H 5058  11.563   6.731   3.284 -0.3194  0.8801  0.1075
  796MOL0     H 5059  11.390   6.722   3.124  1.6262  2.9553 -0.0537
  796MOL0     H 5060  10.963   6.793   2.958 -2.1590 -0.0072 -1.4756
  796MOL0     H 5061  10.864   6.738   2.747  0.9380 -1.1820 -1.9390
  796MOL0     H 5062  10.627   6.368   2.712 -2.8075  1.5119 -1.5990
  796MOL0     H 5063  10.772   6.313   2.618 -1.5762 -2.2336  0.4681
  796MOL0     H 5064  10.538   6.344   2.513 -2.3231  2.0111 -1.5069
  796MOL0     H 5065  10.566   6.516   2.537  3.0252  0.9259 -1.9834
  796MOL0     H 5066  10.728   6.317   2.377 -1.3448  0.1052 -0.5643
  796MOL0     H 5067  10.795   6.475   2.422 -0.5348  0.2076  1.5694
  796MOL0     H 5068  10.544   6.560   2.323  1.6778  2.1012  1.1222
  796MOL0     H 5069  10.679   6.553   2.215 -2.8114 -1.0986 -2.9567
  796MOL0     H 5070  10.455   6.224   2.095 -1.6699  0.8164  0.7668
  796MOL0     H 5071  10.864   6.324   2.842  0.0712 -0.2593  1.2643
  796MOL0     H 5072  10.934   6.372   3.073  1.0046 -1.4604 -1.4551
  797MOL0     O 5073   6.113   0.393   6.056  0.9980  0.9447 -0.0119
  797MOL0     C 5074   6.018   0.411   5.977 -0.2218 -1.2889 -0.3315
  797MOL0     O 5075   5.882   0.399   6.008  0.1994  0.9360 -0.1072
  797MOL0     C 5076   5.844   0.316   6.118 -0.3578 -0.1768  1.3692
  797MOL0     C 5077   5.914   0.201   6.167 -0.1247 -0.8454  0.2670
  797MOL0     C 5078   5.854   0.124   6.271  0.2920  0.7447  1.7291
  797MOL0     C 5079   5.724   0.145   6.307 -0.3430 -0.2249  0.5046
  797MOL0     O 5080   5.681   0.071   6.414 -0.2682 -0.6747  0.8920
  797MOL0     C 5081   5.542   0.038   6.411  0.5571 -0.1240 -0.5757
  797MOL0     C 5082   5.489  -0.023   6.543  0.0683  0.5060 -0.5232
  797MOL0     C 5083   5.582  -0.133   6.610 -0.3549  0.2388  0.2407
  797MOL0     C 5084   5.610  -0.251   6.505 -0.4779 -0.4872  0.3550
  797MOL0     C 5085   5.675  -0.371   6.580 -0.0885  0.1185 -1.0157
  797MOL0     C 5086   5.585  -0.455   6.673 -0.1341  0.4163  0.3070
  797MOL0     C 5087   5.650  -0.594   6.685 -0.4065  0.1878  0.0675
  797MOL0     C 5088   5.615  -0.676   6.811  0.0786 -0.1500  0.4201
  797MOL0     N 5089   5.468  -0.708   6.819 -0.3947 -0.8094 -0.3083
  797MOL0     C 5090   5.388  -0.745   6.720  0.0783 -0.4371 -0.1649
  797MOL0     C 5091   5.271  -0.771   6.787 -0.3221  0.5352 -0.0228
  797MOL0     C 5092   5.143  -0.836   6.731 -0.0026 -0.3659  0.1922
  797MOL0     C 5093   5.171  -0.972   6.680 -0.2466  0.2350  0.7238
  797MOL0     C 5094   5.059  -1.033   6.600 -0.1017  0.7095  0.3565
  797MOL0     C 5095   4.957  -1.107   6.692 -0.1516 -0.8889 -0.6791
  797MOL0     O 5096   4.899  -1.011   6.790 -0.2088 -0.2011 -0.0043
  797MOL0     C 5097   4.823  -1.064   6.890  0.5169  0.1840 -0.1298
  797MOL0     C 5098   4.780  -1.195   6.899 -0.4073  0.3018  0.7299
  797MOL0     C 5099   4.720  -1.243   7.016  1.7222 -0.2756 -0.1043
  797MOL0     C 5100   4.690  -1.162   7.123  0.2873  0.0415 -0.2988
  797MOL0     C 5101   4.589  -1.194   7.226  0.4756  0.0935 -0.2871
  797MOL0     O 5102   4.545  -1.324   7.213  0.2276  0.2279 -0.2445
  797MOL0     C 5103   4.432  -1.362   7.275 -0.0268 -0.1282  0.3713
  797MOL0     C 5104   4.427  -1.477   7.366  0.5477 -0.5499 -0.0953
  797MOL0     C 5105   4.306  -1.502   7.433 -0.3271 -0.6283  0.5554
  797MOL0     C 5106   4.187  -1.430   7.407  0.3962  0.5864  0.7517
  797MOL0     O 5107   4.067  -1.473   7.455 -0.5083  0.3412 -0.2115
  797MOL0     C 5108   3.947  -1.392   7.445 -0.0691  0.0713 -0.7495
  797MOL0     C 5109   3.870  -1.414   7.576 -0.3893 -0.5561 -0.0727
  797MOL0     C 5110   3.808  -1.552   7.585 -0.1519  0.3947 -0.0465
  797MOL0     C 5111   3.712  -1.555   7.709  0.4935 -0.2574  0.4871
  797MOL0     C 5112   3.694  -1.704   7.740  0.2645  0.0285  0.0674
  797MOL0     C 5113   3.623  -1.718   7.867 -0.9203 -0.7519  0.1711
  797MOL0     C 5114   3.583  -1.860   7.899  0.0882 -0.5804 -0.0524
  797MOL0     C 5115   3.688  -1.952   7.955  0.0366  0.0647  0.4308
  797MOL0    Cl 5116   3.752  -1.899   8.113  0.5174 -0.4408  0.0396
  797MOL0     C 5117   4.190  -1.333   7.313 -0.2892  0.3859 -0.3159
  797MOL0     C 5118   4.307  -1.296   7.255 -0.1465 -0.7347 -0.0920
  797MOL0     O 5119   4.545  -1.120   7.311 -0.0058  0.2285  0.0434
  797MOL0     C 5120   4.724  -1.026   7.103 -0.1846 -0.4357 -0.3129
  797MOL0     C 5121   4.784  -0.977   6.988 -0.5002  1.1526 -0.6344
  797MOL0     N 5122   5.281  -0.737   6.917 -0.1721 -0.5318 -0.2553
  797MOL0     N 5123   5.404  -0.692   6.939 -0.5267  0.1207 -0.0378
  797MOL0     C 5124   5.655   0.255   6.255  1.0600  0.7715 -0.1771
  797MOL0     C 5125   5.713   0.340   6.172 -0.6974 -0.2145  0.6640
  797MOL0     C 5126   6.053   0.470   5.850  0.5480 -0.6079 -0.3890
  797MOL0     C 5127   5.958   0.519   5.759  0.2645 -0.9528 -0.1281
  797MOL0     C 5128   6.008   0.575   5.638  0.6735  0.1428  0.3652
  797MOL0     C 5129   6.141   0.593   5.611  0.3858  0.4413 -0.3951
  797MOL0     O 5130   6.164   0.658   5.493 -1.0772  0.0541  0.0262
  797MOL0     C 5131   6.298   0.665   5.445  0.5263  0.5179 -0.3974
  797MOL0     C 5132   6.307   0.732   5.308 -0.0594 -1.0088  0.2112
  797MOL0     C 5133   6.268   0.652   5.187 -0.4252  0.3221  1.1556
  797MOL0     C 5134   6.392   0.568   5.120  0.1099  0.0671 -0.0559
  797MOL0     C 5135   6.356   0.529   4.980 -0.4281  0.2719 -0.1488
  797MOL0     C 5136   6.327   0.479   4.873 -0.2310 -1.1158  0.1956
  797MOL0     C 5137   6.235   0.537   5.696  0.7485  0.7357  0.1990
  797MOL0     C 5138   6.185   0.472   5.810 -0.2220 -0.2953  0.5691
  797MOL0     H 5139   6.012   0.168   6.136  0.4377 -1.1905  2.2470
  797MOL0     H 5140   5.910   0.044   6.318  0.3733 -0.0364  0.3486
  797MOL0     H 5141   5.528  -0.034   6.329 -2.7200  0.9856 -1.1220
  797MOL0     H 5142   5.474   0.121   6.393 -5.5647 -3.7172  2.8593
  797MOL0     H 5143   5.386  -0.057   6.527  0.2065 -1.2005  1.6639
  797MOL0     H 5144   5.477   0.057   6.617  0.2591  0.9686 -0.9905
  797MOL0     H 5145   5.543  -0.171   6.705  0.2416  1.4063  0.9646
  797MOL0     H 5146   5.669  -0.086   6.657  0.4862  0.3046 -1.3151
  797MOL0     H 5147   5.520  -0.276   6.449 -0.2402 -0.2039 -0.1627
  797MOL0     H 5148   5.683  -0.211   6.435 -1.1742 -2.2500 -1.4616
  797MOL0     H 5149   5.759  -0.336   6.641 -1.5197  1.0527  0.4846
  797MOL0     H 5150   5.713  -0.445   6.508 -3.2273 -1.1913 -1.4941
  797MOL0     H 5151   5.482  -0.458   6.636 -0.2781  4.9519 -0.1954
  797MOL0     H 5152   5.596  -0.401   6.767  1.4107  1.5583 -0.5033
  797MOL0     H 5153   5.626  -0.638   6.588 -1.0075  1.7505 -0.5317
  797MOL0     H 5154   5.758  -0.582   6.703 -0.1772 -2.1229  0.6060
  797MOL0     H 5155   5.639  -0.608   6.893  0.5552  3.9532 -2.7912
  797MOL0     H 5156   5.674  -0.768   6.812  1.0844  0.4781  0.0290
  797MOL0     H 5157   5.392  -0.752   6.612 -0.3327  0.4653 -0.2454
  797MOL0     H 5158   5.116  -0.770   6.648  2.2618  0.9761  0.4235
  797MOL0     H 5159   5.061  -0.842   6.803 -2.0464 -2.3535 -2.1007
  797MOL0     H 5160   5.201  -1.040   6.760  2.0384 -0.2772 -0.4951
  797MOL0     H 5161   5.264  -0.967   6.623 -2.0060 -0.2771 -2.3830
  797MOL0     H 5162   5.011  -0.959   6.536  1.2451 -0.2473 -1.8583
  797MOL0     H 5163   5.112  -1.107   6.539  0.6019 -0.3999  2.2019
  797MOL0     H 5164   5.019  -1.188   6.732  1.0039  0.5325  0.5528
  797MOL0     H 5165   4.874  -1.145   6.632 -1.0881 -0.0592  0.0513
  797MOL0     H 5166   4.796  -1.267   6.819  2.6535 -1.9219  3.1391
  797MOL0     H 5167   4.693  -1.348   7.017  1.1950 -0.1479  1.4854
  797MOL0     H 5168   4.517  -1.530   7.395  1.9550  1.9985  0.4942
  797MOL0     H 5169   4.303  -1.578   7.510  1.6551 -0.4298  0.8608
  797MOL0     H 5170   3.889  -1.410   7.354 -2.5188 -0.7164  0.8424
  797MOL0     H 5171   3.970  -1.285   7.449  0.0861  0.0516 -1.1271
  797MOL0     H 5172   3.793  -1.340   7.595 -2.4508 -2.0921 -1.9456
  797MOL0     H 5173   3.949  -1.419   7.653 -1.5330 -2.8234  1.0587
  797MOL0     H 5174   3.886  -1.627   7.601 -0.4788  0.4745  2.2833
  797MOL0     H 5175   3.749  -1.587   7.500  1.9857 -1.7449 -0.7579
  797MOL0     H 5176   3.745  -1.493   7.793 -1.1953  1.2642  0.0822
  797MOL0     H 5177   3.616  -1.516   7.675  0.6548 -0.0981  0.2104
  797MOL0     H 5178   3.790  -1.752   7.760  0.8479  0.8179 -0.7674
  797MOL0     H 5179   3.649  -1.749   7.651  0.0590  0.0248  0.1727
  797MOL0     H 5180   3.540  -1.647   7.859  0.6845  1.0710 -1.4071
  797MOL0     H 5181   3.691  -1.677   7.943 -2.1067 -0.2051  0.9700
  797MOL0     H 5182   3.498  -1.860   7.968 -1.1173  1.5396 -1.4023
  797MOL0     H 5183   3.541  -1.909   7.810 -2.0247  4.1075 -1.9870
  797MOL0     H 5184   3.775  -1.957   7.889 -0.3375  2.5330 -0.3410
  797MOL0     H 5185   3.645  -2.052   7.964  1.3563 -0.4789  1.0769
  797MOL0     H 5186   4.103  -1.272   7.292 -0.7912 -1.0119 -2.5740
  797MOL0     H 5187   4.305  -1.212   7.187  1.1334 -1.4589 -1.0741
  797MOL0     H 5188   4.703  -0.950   7.178 -0.1884  0.6349 -1.3538
  797MOL0     H 5189   4.802  -0.870   6.981  0.4448  1.0979  0.6074
  797MOL0     H 5190   5.553   0.275   6.286  0.6253 -1.1923 -0.1924
  797MOL0     H 5191   5.640   0.407   6.127 -2.4189 -2.1757  0.3728
  797MOL0     H 5192   5.850   0.519   5.776  0.3073 -2.8967  0.4026
  797MOL0     H 5193   5.935   0.623   5.573 -1.7676 -3.0181  0.5498
  797MOL0     H 5194   6.339   0.564   5.447 -1.5224 -0.3914  2.3950
  797MOL0     H 5195   6.363   0.718   5.515  2.2483 -2.4587  0.4354
  797MOL0     H 5196   6.241   0.820   5.310 -1.9840 -2.2994 -1.7664
  797MOL0     H 5197   6.409   0.772   5.307 -0.0807 -0.9534 -1.1402
  797MOL0     H 5198   6.238   0.733   5.119 -2.2088  0.3336  1.8962
  797MOL0     H 5199   6.177   0.594   5.209  0.5868 -0.2325  4.4464
  797MOL0     H 5200   6.473   0.640   5.129  1.0233 -0.8509 -0.6707
  797MOL0     H 5201   6.435   0.484   5.176 -0.8851  0.2379  1.0120
  797MOL0     H 5202   6.284   0.452   4.779 -0.2075  3.7900 -1.5135
  797MOL0     H 5203   6.340   0.534   5.669  0.2901  0.6362 -1.6928
  797MOL0     H 5204   6.257   0.433   5.881  1.4800  2.1038  0.2905
  798MOL0     O 5205   7.889   1.518   9.066 -0.2577 -0.7858 -0.6321
  798MOL0     C 5206   7.966   1.616   9.074  1.8476  0.4406  0.2897
  798MOL0     O 5207   7.928   1.737   9.131  0.5533  0.0032  0.2947
  798MOL0     C 5208   7.797   1.770   9.156  0.6762 -0.1758  0.1128
  798MOL0     C 5209   7.697   1.700   9.226 -0.2276 -0.1035 -1.1563
  798MOL0     C 5210   7.571   1.756   9.243 -0.7115 -0.2097  0.4815
  798MOL0     C 5211   7.526   1.881   9.199 -1.0180 -0.8140  0.3109
  798MOL0     O 5212   7.394   1.912   9.233 -0.3546 -0.2471 -0.1690
  798MOL0     C 5213   7.342   2.017   9.154 -0.0238  0.1469  0.1801
  798MOL0     C 5214   7.192   2.035   9.184  0.8546 -0.3919 -0.1693
  798MOL0     C 5215   7.128   2.135   9.084 -0.1261  0.9686  0.2257
  798MOL0     C 5216   6.973   2.151   9.108  0.4119 -0.3308  0.5732
  798MOL0     C 5217   6.894   2.210   9.004 -0.7350 -0.4436 -0.2445
  798MOL0     C 5218   6.938   2.355   8.990  0.1427  0.2999 -1.4889
  798MOL0     C 5219   6.829   2.416   8.888  0.2851 -0.0997 -0.3573
  798MOL0     C 5220   6.830   2.572   8.881 -0.3678  0.1551  0.3203
  798MOL0     N 5221   6.949   2.634   8.805  1.2602  0.2416  0.4439
  798MOL0     C 5222   7.070   2.648   8.868 -0.0861 -0.5729 -1.2010
  798MOL0     C 5223   7.146   2.721   8.783  0.5604 -0.0416  1.2542
  798MOL0     C 5224   7.279   2.772   8.807 -0.3131 -0.6756  0.5356
  798MOL0     C 5225   7.382   2.668   8.770 -0.4641 -0.1523  0.0946
  798MOL0     C 5226   7.430   2.679   8.624 -0.2519 -0.0180 -0.0922
  798MOL0     C 5227   7.539   2.583   8.603 -0.8582  0.2753 -0.0469
  798MOL0     O 5228   7.661   2.626   8.667  0.0682  0.0491  0.1869
  798MOL0     C 5229   7.780   2.588   8.606  0.3295  0.1574 -0.0973
  798MOL0     C 5230   7.866   2.679   8.573  0.0058 -0.2100 -0.0267
  798MOL0     C 5231   7.998   2.652   8.531  0.7696  0.2905  0.7677
  798MOL0     C 5232   8.048   2.517   8.527 -0.3024  0.3491  0.1133
  798MOL0     C 5233   8.192   2.486   8.489 -0.5286  1.2849 -0.6896
  798MOL0     O 5234   8.278   2.585   8.468 -0.0862 -0.8328 -0.7669
  798MOL0     C 5235   8.418   2.575   8.457  0.7829  0.4726 -0.8255
  798MOL0     C 5236   8.495   2.473   8.515 -0.5563  0.1638  0.0498
  798MOL0     C 5237   8.636   2.490   8.495  0.4445  1.4534  0.3727
  798MOL0     C 5238   8.702   2.599   8.433  0.0242  0.0313  0.5999
  798MOL0     O 5239   8.836   2.620   8.437 -0.3672  0.0389  0.0654
  798MOL0     C 5240   8.901   2.684   8.329  0.0181  0.7127  0.5921
  798MOL0     C 5241   9.054   2.708   8.373  0.0705 -0.6568 -0.3478
  798MOL0     C 5242   9.142   2.589   8.364 -0.0105 -0.1851 -0.4482
  798MOL0     C 5243   9.293   2.602   8.410 -0.1611  0.2837 -0.0144
  798MOL0     C 5244   9.288   2.651   8.554 -0.4666 -0.0527  0.5480
  798MOL0     C 5245   9.423   2.638   8.630  0.0673  0.4696  0.2114
  798MOL0     C 5246   9.524   2.745   8.593  0.6636  0.0442 -0.2810
  798MOL0     C 5247   9.671   2.720   8.633  0.2670 -0.6950  0.0072
  798MOL0    Cl 5248   9.736   2.595   8.537 -0.3288 -0.0302 -0.0782
  798MOL0     C 5249   8.616   2.697   8.378 -0.4945  0.3073  0.1442
  798MOL0     C 5250   8.478   2.691   8.406 -0.3078  0.2615  0.5220
  798MOL0     O 5251   8.217   2.365   8.481 -1.0166  0.7396  0.2159
  798MOL0     C 5252   7.951   2.422   8.564 -0.4531 -0.2052  0.3312
  798MOL0     C 5253   7.814   2.452   8.601  1.0477  0.2753 -0.8596
  798MOL0     N 5254   7.070   2.747   8.674  0.8730 -0.1370  0.8051
  798MOL0     N 5255   6.953   2.713   8.688 -0.9407  0.3740 -0.2295
  798MOL0     C 5256   7.627   1.955   9.131  0.2002  0.5016  0.2413
  798MOL0     C 5257   7.757   1.903   9.116  0.3679  0.3259  1.0058
  798MOL0     C 5258   8.099   1.602   9.034  0.2313  0.4051 -0.7078
  798MOL0     C 5259   8.183   1.715   9.003  0.1909  0.4441 -0.6327
  798MOL0     C 5260   8.314   1.698   8.971  0.0527 -0.2487  0.4014
  798MOL0     C 5261   8.380   1.583   8.984  0.7107 -0.3957  0.1038
  798MOL0     O 5262   8.512   1.593   8.980 -0.1991 -0.3053  0.5212
  798MOL0     C 5263   8.573   1.573   8.852  0.1990 -0.3210 -0.2358
  798MOL0     C 5264   8.711   1.649   8.840  0.2946  0.1818 -0.0120
  798MOL0     C 5265   8.733   1.705   8.702 -0.1506  0.4375 -0.3763
  798MOL0     C 5266   8.871   1.758   8.684  1.1345  0.5315 -0.0647
  798MOL0     C 5267   8.918   1.775   8.550  0.1737 -0.4616  0.7532
  798MOL0     C 5268   8.957   1.797   8.437  0.5007  0.6204 -0.1169
  798MOL0     C 5269   8.306   1.471   9.009 -0.2805 -0.1051 -0.3187
  798MOL0     C 5270   8.166   1.476   9.030 -0.0649  0.6858  0.1307
  798MOL0     H 5271   7.718   1.596   9.249  2.0741  0.4951 -0.3119
  798MOL0     H 5272   7.506   1.697   9.307 -0.1893 -0.8987  0.3894
  798MOL0     H 5273   7.340   1.991   9.048 -1.2257  3.4616 -0.7321
  798MOL0     H 5274   7.385   2.117   9.162  0.5205 -0.0957  0.3683
  798MOL0     H 5275   7.168   2.055   9.289 -0.6251 -0.7866 -0.4089
  798MOL0     H 5276   7.149   1.937   9.161 -0.5221 -0.5059  2.5780
  798MOL0     H 5277   7.135   2.102   8.980 -0.5052 -0.0957  0.5254
  798MOL0     H 5278   7.179   2.231   9.098 -0.9498  1.4845 -0.1875
  798MOL0     H 5279   6.923   2.053   9.109 -1.5487  0.6261  0.4841
  798MOL0     H 5280   6.952   2.199   9.204  0.4422  0.5011  0.1700
  798MOL0     H 5281   6.788   2.200   9.029 -0.8278 -3.5939 -1.4571
  798MOL0     H 5282   6.928   2.154   8.916 -2.3111 -1.4783 -0.2296
  798MOL0     H 5283   7.041   2.367   8.954  0.0013  0.2687 -1.9142
  798MOL0     H 5284   6.939   2.402   9.089 -0.1929 -0.9301 -0.8796
  798MOL0     H 5285   6.841   2.370   8.789  0.6239 -0.9263  0.0530
  798MOL0     H 5286   6.728   2.384   8.916  0.1034  1.4599  0.8538
  798MOL0     H 5287   6.839   2.615   8.982  1.2907 -0.0263  0.2793
  798MOL0     H 5288   6.739   2.611   8.834 -0.1767  0.0315 -0.1560
  798MOL0     H 5289   7.097   2.622   8.970  1.4449 -1.2694 -1.7576
  798MOL0     H 5290   7.276   2.802   8.912  0.4804  0.0119  0.3666
  798MOL0     H 5291   7.296   2.861   8.747 -1.8748  2.1642  3.9426
  798MOL0     H 5292   7.343   2.569   8.793 -3.4887  0.9242 -0.0526
  798MOL0     H 5293   7.471   2.681   8.832 -2.4030 -2.0457  3.5506
  798MOL0     H 5294   7.344   2.639   8.570 -0.6393 -0.4705  0.8347
  798MOL0     H 5295   7.455   2.783   8.601  0.6271  0.7617  3.7525
  798MOL0     H 5296   7.564   2.551   8.502 -0.0117 -1.8179  0.7708
  798MOL0     H 5297   7.519   2.488   8.653  1.5457 -1.3894 -1.9483
  798MOL0     H 5298   7.842   2.784   8.575  2.0241  0.3041 -0.6512
  798MOL0     H 5299   8.068   2.729   8.500  3.4903 -3.3588 -3.2016
  798MOL0     H 5300   8.450   2.387   8.563  1.2681 -0.9166 -0.0874
  798MOL0     H 5301   8.700   2.413   8.536 -0.3529  0.4083 -0.3090
  798MOL0     H 5302   8.857   2.780   8.303 -0.3094 -0.1173 -2.3040
  798MOL0     H 5303   8.901   2.617   8.242  0.6179  2.2300 -0.6139
  798MOL0     H 5304   9.067   2.747   8.475 -0.9641 -0.9095 -0.1129
  798MOL0     H 5305   9.089   2.785   8.303  0.5257  1.3835  1.9559
  798MOL0     H 5306   9.135   2.563   8.258 -1.0936  0.3501 -0.5295
  798MOL0     H 5307   9.110   2.503   8.423 -2.0511  0.5208 -0.4588
  798MOL0     H 5308   9.351   2.510   8.405 -1.0943 -0.4631  1.9285
  798MOL0     H 5309   9.346   2.679   8.353 -2.3171  0.4486 -1.9929
  798MOL0     H 5310   9.211   2.591   8.604 -0.8548 -0.5258 -0.5761
  798MOL0     H 5311   9.259   2.756   8.553  1.5707  0.5504 -0.7409
  798MOL0     H 5312   9.440   2.531   8.615 -0.5895  0.3850  0.0539
  798MOL0     H 5313   9.408   2.660   8.736  1.4057 -0.7745  0.6936
  798MOL0     H 5314   9.531   2.751   8.484  0.2993  1.1001 -0.2539
  798MOL0     H 5315   9.496   2.845   8.629 -0.4052  0.2483 -1.6310
  798MOL0     H 5316   9.681   2.707   8.742  0.5535  0.9439  0.2063
  798MOL0     H 5317   9.725   2.812   8.610 -2.1621  0.7229 -0.3256
  798MOL0     H 5318   8.658   2.779   8.320  1.2296  0.2412  1.2137
  798MOL0     H 5319   8.423   2.776   8.370 -0.9268 -0.4116 -0.1561
  798MOL0     H 5320   7.980   2.318   8.566 -2.1995 -0.7689 -0.7580
  798MOL0     H 5321   7.743   2.373   8.622 -0.5290  1.1026 -2.7305
  798MOL0     H 5322   7.614   2.056   9.094  2.1893  0.1981 -1.4807
  798MOL0     H 5323   7.842   1.949   9.067 -0.6499 -0.5870 -1.8399
  798MOL0     H 5324   8.139   1.814   9.008  1.5169  1.2578 -3.3060
  798MOL0     H 5325   8.367   1.788   8.942 -0.0564 -0.4158 -0.3420
  798MOL0     H 5326   8.505   1.612   8.776 -2.0055  0.0776  1.8103
  798MOL0     H 5327   8.588   1.467   8.832  0.5005 -0.3618  0.1753
  798MOL0     H 5328   8.707   1.731   8.913 -2.7819 -0.8795  1.1628
  798MOL0     H 5329   8.788   1.579   8.872 -0.9612 -1.0782  0.3471
  798MOL0     H 5330   8.664   1.785   8.675  1.5087  1.5522 -1.4529
  798MOL0     H 5331   8.724   1.632   8.621  0.6850 -0.8876  0.6775
  798MOL0     H 5332   8.869   1.853   8.738  1.3853  0.1931  0.5548
  798MOL0     H 5333   8.938   1.697   8.746  1.1155  3.0216  2.6397
  798MOL0     H 5334   8.984   1.840   8.342  1.6664  2.7709  1.1095
  798MOL0     H 5335   8.369   1.384   9.021  0.8832  0.6289 -0.8550
  798MOL0     H 5336   8.112   1.386   9.053  2.8026 -1.4953 -0.9980
  799MOL0     O 5337   5.088   1.636   3.231  0.5043  0.3831 -0.0378
  799MOL0     C 5338   5.084   1.549   3.313  1.1840  0.2302  0.0759
  799MOL0     O 5339   5.186   1.493   3.379  0.3580 -0.5934 -0.1867
  799MOL0     C 5340   5.308   1.548   3.358 -0.2889 -0.0925 -0.2148
  799MOL0     C 5341   5.415   1.460   3.330  0.2580  1.1091 -1.0718
  799MOL0     C 5342   5.548   1.509   3.309  0.4296  0.3823 -0.2352
  799MOL0     C 5343   5.574   1.652   3.315  0.0188 -0.3254  0.8148
  799MOL0     O 5344   5.702   1.705   3.298  0.0216  0.1411 -0.0874
  799MOL0     C 5345   5.811   1.619   3.293  0.0164  0.1499  0.4073
  799MOL0     C 5346   5.928   1.704   3.255  0.0905 -1.0722 -0.9556
  799MOL0     C 5347   6.061   1.635   3.263  0.3885  0.1830  1.0028
  799MOL0     C 5348   6.159   1.740   3.215 -1.0900  0.3883  0.6049
  799MOL0     C 5349   6.307   1.706   3.225 -0.0157 -0.0723 -0.1034
  799MOL0     C 5350   6.352   1.581   3.141  0.1038  0.7023 -0.3748
  799MOL0     C 5351   6.280   1.558   3.011 -0.3891  0.0057  0.4195
  799MOL0     C 5352   6.354   1.447   2.929  0.9054 -0.1580 -0.5766
  799MOL0     N 5353   6.481   1.492   2.879 -0.7869 -0.0642  0.4482
  799MOL0     C 5354   6.500   1.595   2.787  0.2737  0.2065  1.0724
  799MOL0     C 5355   6.630   1.573   2.754 -0.1706 -0.9909  0.3603
  799MOL0     C 5356   6.694   1.673   2.662 -0.2826 -0.5397  0.5728
  799MOL0     C 5357   6.722   1.599   2.526  0.2175 -1.3596 -0.2786
  799MOL0     C 5358   6.760   1.703   2.419  0.6639 -0.0208  0.2728
  799MOL0     C 5359   6.781   1.644   2.282 -0.1180  0.6293  0.7660
  799MOL0     O 5360   6.681   1.562   2.223  0.0161  0.3282  0.8731
  799MOL0     C 5361   6.552   1.611   2.201 -0.2026 -1.1417 -0.3339
  799MOL0     C 5362   6.453   1.519   2.162 -0.4119  0.2443 -1.5384
  799MOL0     C 5363   6.329   1.557   2.126 -0.1227  0.0954 -0.0825
  799MOL0     C 5364   6.292   1.696   2.123  1.1545  0.6150 -0.5498
  799MOL0     C 5365   6.156   1.740   2.077  0.4308  0.2133 -0.6522
  799MOL0     O 5366   6.062   1.656   2.032  0.1356 -0.0850 -1.0723
  799MOL0     C 5367   5.964   1.719   1.955 -1.5449  0.4906 -0.5575
  799MOL0     C 5368   5.836   1.749   2.002 -0.3843 -0.2351  0.0894
  799MOL0     C 5369   5.745   1.807   1.907  0.4164 -0.0642 -0.6634
  799MOL0     C 5370   5.768   1.814   1.770 -0.2101 -0.0252  0.0247
  799MOL0     O 5371   5.667   1.863   1.693  0.3928  0.8238  0.2138
  799MOL0     C 5372   5.698   1.863   1.552  0.8055 -0.4435 -1.0798
  799MOL0     C 5373   5.574   1.913   1.475  0.0988 -0.0613 -0.1325
  799MOL0     C 5374   5.544   2.056   1.502  0.4504 -0.1379 -0.4027
  799MOL0     C 5375   5.424   2.111   1.418 -0.7730  0.2520 -0.2682
  799MOL0     C 5376   5.390   2.261   1.446  0.2177  0.2320 -0.3044
  799MOL0     C 5377   5.249   2.281   1.395  0.5636 -0.5295  0.1431
  799MOL0     C 5378   5.189   2.413   1.430 -1.6557 -0.0722 -0.2912
  799MOL0     C 5379   5.069   2.464   1.362 -0.1582 -0.1099  0.8986
  799MOL0    Cl 5380   4.913   2.379   1.383  0.2307 -0.1692  0.3040
  799MOL0     C 5381   5.903   1.776   1.731 -0.9250 -0.0114 -1.1495
  799MOL0     C 5382   5.999   1.734   1.824  0.3537 -0.3320 -0.2616
  799MOL0     O 5383   6.139   1.861   2.082 -0.2409  0.3493 -0.3752
  799MOL0     C 5384   6.392   1.785   2.163  0.2856 -0.0129  0.3809
  799MOL0     C 5385   6.520   1.748   2.198 -0.8110  0.4767  0.9910
  799MOL0     N 5386   6.687   1.469   2.823  0.2670 -0.8055  0.0353
  799MOL0     N 5387   6.601   1.427   2.900 -0.2034 -0.1981 -0.8271
  799MOL0     C 5388   5.467   1.735   3.338  0.4854  0.1299 -0.0416
  799MOL0     C 5389   5.338   1.683   3.363  0.4620 -0.3406 -0.6775
  799MOL0     C 5390   4.951   1.492   3.342 -0.0531 -0.0312  1.0790
  799MOL0     C 5391   4.838   1.548   3.285 -0.6077  0.3424 -1.0304
  799MOL0     C 5392   4.714   1.503   3.327 -0.1286  0.1061  0.1855
  799MOL0     C 5393   4.697   1.413   3.431  0.0521 -0.6947 -0.5330
  799MOL0     O 5394   4.576   1.361   3.452  0.2261 -0.4493  0.4642
  799MOL0     C 5395   4.552   1.267   3.557 -0.0620 -0.6235 -0.2877
  799MOL0     C 5396   4.550   1.140   3.491  0.3040  0.6759 -0.0762
  799MOL0     C 5397   4.530   1.032   3.593 -0.5377  1.0285  0.3037
  799MOL0     C 5398   4.543   0.894   3.526 -0.3569 -0.0400 -0.0703
  799MOL0     C 5399   4.677   0.867   3.476 -0.5001  0.8341  0.4872
  799MOL0     C 5400   4.790   0.844   3.451 -0.3746 -0.6089  0.9454
  799MOL0     C 5401   4.811   1.362   3.489  0.0303  0.1443 -0.5046
  799MOL0     C 5402   4.934   1.400   3.449  0.1599  0.0802 -0.0114
  799MOL0     H 5403   5.394   1.354   3.328 -0.7522  1.3049 -1.1406
  799MOL0     H 5404   5.626   1.442   3.275 -0.5744 -0.3960 -1.0568
  799MOL0     H 5405   5.793   1.544   3.216  2.0542  0.2495 -0.2391
  799MOL0     H 5406   5.827   1.569   3.389 -0.5330 -2.2554 -0.6687
  799MOL0     H 5407   5.925   1.792   3.319 -2.2447 -1.6789 -0.1494
  799MOL0     H 5408   5.912   1.743   3.155 -2.1195  0.1053 -0.2031
  799MOL0     H 5409   6.061   1.551   3.193 -0.8701 -0.8916  2.2300
  799MOL0     H 5410   6.085   1.608   3.366  0.2609  1.3055  1.3320
  799MOL0     H 5411   6.141   1.755   3.108  0.6665  0.5239  0.3055
  799MOL0     H 5412   6.137   1.835   3.263 -1.6390  0.4524  0.2373
  799MOL0     H 5413   6.332   1.695   3.331  0.4885 -1.0578 -0.3165
  799MOL0     H 5414   6.363   1.786   3.175  1.2226 -1.1935 -0.5705
  799MOL0     H 5415   6.337   1.501   3.214 -0.7630  1.6363  0.5167
  799MOL0     H 5416   6.460   1.600   3.132  0.1783 -0.4501 -2.3722
  799MOL0     H 5417   6.179   1.517   3.021 -1.4079  2.4045  0.6407
  799MOL0     H 5418   6.270   1.652   2.955  2.6939  0.5916  0.6827
  799MOL0     H 5419   6.292   1.405   2.849 -1.1073 -2.6401  2.0741
  799MOL0     H 5420   6.372   1.368   3.001 -2.1946 -1.5547 -1.1642
  799MOL0     H 5421   6.435   1.677   2.758  1.2839  0.7240  0.1938
  799MOL0     H 5422   6.792   1.713   2.688  0.6462  1.5514 -4.7895
  799MOL0     H 5423   6.630   1.759   2.638  0.1793 -0.5116 -0.6239
  799MOL0     H 5424   6.631   1.543   2.502 -1.0341  0.9801 -1.2489
  799MOL0     H 5425   6.812   1.537   2.534  0.8020 -0.5234 -0.2564
  799MOL0     H 5426   6.668   1.760   2.407 -0.4177 -1.4594  1.3202
  799MOL0     H 5427   6.840   1.767   2.458  0.4742  0.0365  0.5709
  799MOL0     H 5428   6.864   1.577   2.307 -2.2275 -2.2052  0.5786
  799MOL0     H 5429   6.810   1.718   2.207 -0.8117  0.5171  0.3830
  799MOL0     H 5430   6.470   1.412   2.170 -2.8457 -0.0195  1.9006
  799MOL0     H 5431   6.264   1.472   2.113 -2.7095  1.9945 -0.4026
  799MOL0     H 5432   5.799   1.742   2.104 -2.5422 -0.4237 -0.6537
  799MOL0     H 5433   5.650   1.842   1.944 -0.4720  0.1203 -2.9440
  799MOL0     H 5434   5.720   1.762   1.517  2.1729  0.3533 -2.6445
  799MOL0     H 5435   5.781   1.925   1.516  0.6044 -0.4420 -1.5409
  799MOL0     H 5436   5.485   1.863   1.514  0.5863 -0.8216  0.0320
  799MOL0     H 5437   5.584   1.896   1.368  1.0955 -0.7082  0.0463
  799MOL0     H 5438   5.635   2.115   1.490  1.6991 -2.1723 -1.5515
  799MOL0     H 5439   5.512   2.061   1.607 -0.7483 -2.2787 -0.6004
  799MOL0     H 5440   5.446   2.108   1.311 -5.1640 -0.8642 -1.3275
  799MOL0     H 5441   5.339   2.048   1.444 -0.5059 -0.3931 -0.9235
  799MOL0     H 5442   5.466   2.317   1.391  2.5535 -2.2610  0.1554
  799MOL0     H 5443   5.394   2.277   1.554  1.2555  0.2541 -0.3416
  799MOL0     H 5444   5.180   2.213   1.447 -1.5721  0.9262 -0.6430
  799MOL0     H 5445   5.239   2.260   1.288  1.0595  1.6455 -0.3813
  799MOL0     H 5446   5.166   2.420   1.537 -3.1986 -3.3047 -0.2863
  799MOL0     H 5447   5.264   2.489   1.406 -0.7342 -1.2031 -1.1202
  799MOL0     H 5448   5.092   2.484   1.257 -1.4051  4.7571  1.3003
  799MOL0     H 5449   5.058   2.570   1.387  0.4497 -0.0968  1.1329
  799MOL0     H 5450   5.932   1.790   1.628 -2.9229  0.1015 -1.7404
  799MOL0     H 5451   6.093   1.698   1.784  1.2326  0.2997  1.1328
  799MOL0     H 5452   6.367   1.890   2.149 -1.4694 -0.6530 -1.8407
  799MOL0     H 5453   6.590   1.826   2.226  0.1357 -0.5499  1.5775
  799MOL0     H 5454   5.489   1.840   3.350 -2.1983  0.4791  2.8792
  799MOL0     H 5455   5.257   1.753   3.379 -0.9886 -2.2500  0.8817
  799MOL0     H 5456   4.857   1.609   3.197  2.6810  2.3175  0.8455
  799MOL0     H 5457   4.631   1.521   3.260 -0.5274 -0.6002  0.4819
  799MOL0     H 5458   4.454   1.284   3.603 -0.1822  1.3708 -1.1678
  799MOL0     H 5459   4.616   1.274   3.645 -2.2387 -0.4981  1.3917
  799MOL0     H 5460   4.475   1.140   3.411 -1.8024  2.4285  1.7904
  799MOL0     H 5461   4.642   1.111   3.440 -1.0711 -3.4754 -0.5877
  799MOL0     H 5462   4.426   1.042   3.627 -1.0111 -1.0489 -0.3727
  799MOL0     H 5463   4.604   1.028   3.674 -0.2118 -1.2637 -0.0310
  799MOL0     H 5464   4.505   0.818   3.596 -1.9936 -0.1683 -1.0329
  799MOL0     H 5465   4.474   0.893   3.441  1.2238  1.4215 -1.4426
  799MOL0     H 5466   4.892   0.816   3.436  0.0054 -0.1338  2.4351
  799MOL0     H 5467   4.811   1.283   3.564  1.0033 -0.7114 -1.3694
  799MOL0     H 5468   5.015   1.351   3.503 -1.5557 -3.0853 -0.0750
  800MOL0     O 5469   9.626  10.432  10.700 -0.3155 -0.5480 -0.6889
  800MOL0     C 5470   9.585  10.404  10.594 -0.0956  0.3412  0.1189
  800MOL0     O 5471   9.653  10.404  10.472  0.3489 -0.3234  0.6355
  800MOL0     C 5472   9.785  10.447  10.486 -0.9649  0.6093  0.7458
  800MOL0     C 5473   9.891  10.349  10.500  0.2457  0.2606  0.4351
  800MOL0     C 5474  10.026  10.396  10.518  0.7120  0.4516  1.0907
  800MOL0     C 5475  10.056  10.534  10.508 -0.5209 -0.1083 -0.0748
  800MOL0     O 5476  10.189  10.577  10.514 -0.7492  0.5549 -0.8001
  800MOL0     C 5477  10.304  10.511  10.574 -0.2006 -0.3301  0.8367
  800MOL0     C 5478  10.296  10.505  10.729  0.7816  0.2105 -0.4255
  800MOL0     C 5479  10.430  10.450  10.787  0.4237 -0.5623 -0.2113
  800MOL0     C 5480  10.416  10.469  10.937 -0.4969 -0.5731 -0.7762
  800MOL0     C 5481  10.546  10.442  11.017 -0.2106  0.0243  0.8259
  800MOL0     C 5482  10.533  10.402  11.158  0.1307  0.5835  0.0401
  800MOL0     C 5483  10.511  10.514  11.260 -0.9380  0.5535 -0.0214
  800MOL0     C 5484  10.389  10.601  11.238 -0.6924 -0.1419 -0.3670
  800MOL0     N 5485  10.255  10.534  11.236  0.2476  0.1515  0.5489
  800MOL0     C 5486  10.185  10.480  11.335  0.0377  0.1593  0.5636
  800MOL0     C 5487  10.062  10.435  11.289 -0.9442 -0.5695 -0.0102
  800MOL0     C 5488   9.941  10.375  11.354 -0.1113 -0.0472 -0.1799
  800MOL0     C 5489   9.990  10.263  11.455  0.2547 -0.8404 -0.4882
  800MOL0     C 5490   9.866  10.182  11.505  0.1581 -0.1502  0.2782
  800MOL0     C 5491   9.748  10.254  11.570 -0.4349 -0.7033 -0.2231
  800MOL0     O 5492   9.792  10.318  11.693 -0.3033 -0.3040  0.9859
  800MOL0     C 5493   9.707  10.335  11.798 -0.0437 -0.2055 -0.0178
  800MOL0     C 5494   9.574  10.373  11.784  0.1236 -0.8364 -0.1610
  800MOL0     C 5495   9.499  10.384  11.903  0.0879 -0.6811 -0.6078
  800MOL0     C 5496   9.549  10.365  12.029 -0.4641  0.0461  0.0657
  800MOL0     C 5497   9.463  10.375  12.141  0.0919  0.0282 -0.1527
  800MOL0     O 5498   9.325  10.390  12.132  0.7249 -0.4426 -0.0397
  800MOL0     C 5499   9.256  10.412  12.245 -0.0995 -0.1348 -0.2486
  800MOL0     C 5500   9.285  10.510  12.345  0.2861  0.3411  0.3694
  800MOL0     C 5501   9.196  10.525  12.453  0.2339  0.9027 -0.1595
  800MOL0     C 5502   9.085  10.452  12.472 -0.2510 -0.8149 -0.2679
  800MOL0     O 5503   9.003  10.467  12.579  0.4018  0.1428 -0.1800
  800MOL0     C 5504   8.889  10.549  12.552  0.0766 -0.5694 -0.6171
  800MOL0     C 5505   8.750  10.483  12.556 -0.3691  0.8769 -0.1029
  800MOL0     C 5506   8.715  10.438  12.410  0.1492 -1.1789  0.8370
  800MOL0     C 5507   8.573  10.380  12.399  0.2486  0.6181  0.5516
  800MOL0     C 5508   8.518  10.391  12.257 -0.7048  0.3470 -0.0406
  800MOL0     C 5509   8.370  10.341  12.252  0.4424 -0.0908  0.0347
  800MOL0     C 5510   8.314  10.377  12.119  0.3854  0.1704  0.0215
  800MOL0     C 5511   8.164  10.366  12.136  0.2189  0.8336 -0.2819
  800MOL0    Cl 5512   8.090  10.381  11.964 -0.2995  0.1202 -0.2621
  800MOL0     C 5513   9.061  10.348  12.385 -0.0685  0.9299 -0.4788
  800MOL0     C 5514   9.140  10.331  12.271 -0.9600  0.1754 -0.1223
  800MOL0     O 5515   9.520  10.365  12.247 -0.2072 -0.2788 -0.2728
  800MOL0     C 5516   9.680  10.323  12.041 -0.4329 -0.0298  0.0677
  800MOL0     C 5517   9.763  10.308  11.925 -0.0762 -0.0266 -0.3847
  800MOL0     N 5518  10.068  10.456  11.153  0.0642 -0.3673  0.0835
  800MOL0     N 5519  10.188  10.499  11.114 -0.2699 -0.4661 -0.0689
  800MOL0     C 5520   9.952  10.620  10.497 -0.1553 -0.1737 -0.4685
  800MOL0     C 5521   9.818  10.579  10.489 -0.5190  0.1535  0.1894
  800MOL0     C 5522   9.447  10.356  10.597 -0.6812  0.2663  0.4805
  800MOL0     C 5523   9.401  10.294  10.484  0.6834 -0.5034  0.4934
  800MOL0     C 5524   9.262  10.254  10.480 -0.7357 -2.0867 -0.2559
  800MOL0     C 5525   9.179  10.299  10.583 -0.0927  0.1763  0.2830
  800MOL0     O 5526   9.039  10.298  10.576  0.3628  0.1287 -0.8942
  800MOL0     C 5527   8.965  10.241  10.473  0.7732 -0.2124 -0.1926
  800MOL0     C 5528   8.841  10.182  10.524 -0.2612 -0.7784 -0.3000
  800MOL0     C 5529   8.724  10.225  10.437 -0.2921 -0.6893  0.5790
  800MOL0     C 5530   8.592  10.176  10.499 -0.3808  0.3049  0.2492
  800MOL0     C 5531   8.586  10.035  10.535 -1.0863  0.2276  0.1864
  800MOL0     C 5532   8.571   9.918  10.548 -0.7386  0.5505 -0.0456
  800MOL0     C 5533   9.225  10.369  10.692 -0.3881  1.0461 -0.9183
  800MOL0     C 5534   9.358  10.397  10.699 -0.3265  0.1173  0.2801
  800MOL0     H 5535   9.868  10.243  10.501 -3.5787  0.9576  0.3616
  800MOL0     H 5536  10.092  10.310  10.515  2.3119  1.6040 -2.3154
  800MOL0     H 5537  10.391  10.575  10.560 -0.6694  0.0242 -0.7792
  800MOL0     H 5538  10.326  10.412  10.533  2.0137 -0.3787  2.0355
  800MOL0     H 5539  10.212  10.442  10.759  2.0493 -0.9450  0.8759
  800MOL0     H 5540  10.278  10.605  10.770  0.8282 -0.0091  0.1349
  800MOL0     H 5541  10.516  10.511  10.758 -0.4269  1.4044  1.1493
  800MOL0     H 5542  10.439  10.346  10.757  0.4972 -0.4632 -0.5349
  800MOL0     H 5543  10.379  10.570  10.958  2.5411  0.4097  0.4948
  800MOL0     H 5544  10.343  10.396  10.973 -2.1048  1.0407 -0.6493
  800MOL0     H 5545  10.614  10.528  11.017 -0.3406  0.1349  0.0799
  800MOL0     H 5546  10.602  10.358  10.974 -0.8497 -0.1048  0.2329
  800MOL0     H 5547  10.624  10.344  11.179 -0.1571 -0.6277 -1.7698
  800MOL0     H 5548  10.452  10.330  11.172 -1.8720  2.3557 -1.7996
  800MOL0     H 5549  10.503  10.472  11.361  0.8325  4.4729  1.9841
  800MOL0     H 5550  10.603  10.573  11.260 -0.4309 -0.2207 -1.0363
  800MOL0     H 5551  10.403  10.660  11.147 -1.2289  2.8929  1.3631
  800MOL0     H 5552  10.393  10.670  11.323 -1.3003  2.3193 -2.2316
  800MOL0     H 5553  10.223  10.480  11.437 -0.1645  0.1937  0.6397
  800MOL0     H 5554   9.875  10.334  11.277 -0.2491  1.5145 -0.9152
  800MOL0     H 5555   9.876  10.453  11.394 -1.5754 -0.0438 -2.4075
  800MOL0     H 5556  10.028  10.318  11.542 -0.4899  1.7490 -1.6881
  800MOL0     H 5557  10.072  10.201  11.419  2.8378 -0.1999  3.6677
  800MOL0     H 5558   9.839  10.110  11.427 -1.1565  3.7464 -3.2145
  800MOL0     H 5559   9.896  10.118  11.588 -0.2464 -2.8600 -1.5398
  800MOL0     H 5560   9.660  10.192  11.588 -2.5535  1.6706 -1.6648
  800MOL0     H 5561   9.718  10.331  11.497 -0.2459  0.5483  0.9776
  800MOL0     H 5562   9.542  10.394  11.683  2.5182 -0.6699 -0.9447
  800MOL0     H 5563   9.398  10.423  11.897  0.2774 -0.2207 -0.8511
  800MOL0     H 5564   9.346  10.599  12.328  1.8272 -0.9963 -1.5936
  800MOL0     H 5565   9.232  10.598  12.525  1.4705  0.6096 -0.4550
  800MOL0     H 5566   8.898  10.603  12.458 -0.3874  0.0410 -0.3207
  800MOL0     H 5567   8.883  10.626  12.630 -4.2524 -0.6373 -0.6395
  800MOL0     H 5568   8.681  10.556  12.601  0.0619 -0.6861  3.4628
  800MOL0     H 5569   8.744  10.393  12.619 -0.6215  1.7433  1.1503
  800MOL0     H 5570   8.780  10.356  12.378 -1.5366 -2.2218 -0.0194
  800MOL0     H 5571   8.733  10.527  12.348  0.7929  0.2984  3.0260
  800MOL0     H 5572   8.562  10.279  12.439 -3.4619 -0.7884 -3.1889
  800MOL0     H 5573   8.509  10.448  12.455  1.0367  2.5794 -0.7974
  800MOL0     H 5574   8.591  10.330  12.203  0.0487  2.1708 -1.2014
  800MOL0     H 5575   8.524  10.491  12.212  1.3829 -0.0375 -0.7233
  800MOL0     H 5576   8.305  10.376  12.332 -2.6569 -2.8322 -1.0485
  800MOL0     H 5577   8.372  10.234  12.274 -0.1525  0.2265  1.8420
  800MOL0     H 5578   8.332  10.477  12.078  1.0827 -1.5275 -4.3133
  800MOL0     H 5579   8.358  10.299  12.057 -2.8053 -2.0709  0.3510
  800MOL0     H 5580   8.123  10.438  12.207 -0.5454  1.1479 -1.0241
  800MOL0     H 5581   8.133  10.266  12.167  3.1739  0.5680  2.3047
  800MOL0     H 5582   8.969  10.292  12.398 -0.3575  2.0378  3.5452
  800MOL0     H 5583   9.114  10.266  12.187 -1.2207  1.0527 -0.7383
  800MOL0     H 5584   9.720  10.298  12.138  1.5810  1.1173 -0.4216
  800MOL0     H 5585   9.870  10.289  11.928 -0.2249 -1.8761 -3.0433
  800MOL0     H 5586   9.968  10.728  10.501 -0.1336 -0.2011  0.4851
  800MOL0     H 5587   9.744  10.657  10.498 -0.9742 -0.5243  3.2714
  800MOL0     H 5588   9.457  10.271  10.394  2.0525  0.1534  1.1481
  800MOL0     H 5589   9.227  10.216  10.385  0.1707 -2.3410 -0.4971
  800MOL0     H 5590   9.023  10.161  10.426 -0.0883 -0.6689 -0.5051
  800MOL0     H 5591   8.950  10.317  10.396 -0.4611 -2.5895 -2.4811
  800MOL0     H 5592   8.851  10.073  10.528  0.4633 -0.7333 -0.8918
  800MOL0     H 5593   8.833  10.235  10.620  1.3720  0.9330 -1.0335
  800MOL0     H 5594   8.732  10.180  10.338 -2.5587  1.1634 -0.5442
  800MOL0     H 5595   8.730  10.334  10.426 -1.6042 -0.3586  2.5541
  800MOL0     H 5596   8.565  10.226  10.593 -0.3940 -0.9497  0.9239
  800MOL0     H 5597   8.507  10.197  10.434 -0.3899  0.0468  0.1767
  800MOL0     H 5598   8.573   9.811  10.542  0.3752  0.6318 -1.7845
  800MOL0     H 5599   9.152  10.414  10.759  0.1311  1.2081 -0.4539
  800MOL0     H 5600   9.385  10.467  10.778  2.4539 -2.9739  2.3667
  801MOL0     O 5601  10.071   1.118   5.110  0.6224 -0.5940 -0.6709
  801MOL0     C 5602  10.165   1.116   5.032 -0.0558 -0.3634  0.7198
  801MOL0     O 5603  10.148   1.133   4.894 -0.1555 -0.2069  0.1221
  801MOL0     C 5604  10.023   1.165   4.849 -0.8922 -0.0902  0.4088
  801MOL0     C 5605   9.943   1.067   4.788  1.4286  0.3700  0.0786
  801MOL0     C 5606   9.817   1.101   4.731 -0.0760  0.0646  0.5582
  801MOL0     C 5607   9.759   1.234   4.750 -0.1868 -0.3150  0.0379
  801MOL0     O 5608   9.631   1.255   4.717  0.5092  0.3492  0.3618
  801MOL0     C 5609   9.555   1.165   4.630 -0.4420 -0.3218 -0.3785
  801MOL0     C 5610   9.432   1.248   4.581 -0.1652 -0.6264  0.8296
  801MOL0     C 5611   9.367   1.168   4.472  0.4229  0.3342 -0.0695
  801MOL0     C 5612   9.233   1.227   4.433 -0.2993  1.2630  0.2907
  801MOL0     C 5613   9.161   1.169   4.308  0.1041  0.2258  0.2822
  801MOL0     C 5614   9.012   1.170   4.309  0.2770  0.5406  0.2044
  801MOL0     C 5615   8.923   1.162   4.183  0.1275  0.1237 -0.6407
  801MOL0     C 5616   8.880   1.025   4.143 -1.3368 -0.5898  0.0087
  801MOL0     N 5617   8.978   0.927   4.101 -0.6996  0.4402  0.1195
  801MOL0     C 5618   9.039   0.832   4.182 -0.2565 -0.3406  0.4130
  801MOL0     C 5619   9.142   0.777   4.108 -0.2314 -0.5495  0.3650
  801MOL0     C 5620   9.238   0.671   4.137  0.4853  0.1320 -0.0481
  801MOL0     C 5621   9.203   0.614   4.275 -0.0342 -0.4142  0.0224
  801MOL0     C 5622   9.281   0.485   4.286  0.0320  0.3141 -0.1932
  801MOL0     C 5623   9.267   0.401   4.417  0.8296  0.4152 -0.9031
  801MOL0     O 5624   9.133   0.340   4.418  0.1069  0.4149 -0.3166
  801MOL0     C 5625   9.121   0.222   4.478  0.0008  0.1167 -0.1303
  801MOL0     C 5626   9.059   0.123   4.405  0.4725 -0.3197 -0.5544
  801MOL0     C 5627   9.041   0.002   4.464 -0.6711  0.6779  0.0304
  801MOL0     C 5628   9.077  -0.024   4.597 -0.2267 -0.0342 -0.1881
  801MOL0     C 5629   9.062  -0.159   4.648 -0.2780  0.0450  0.2384
  801MOL0     O 5630   9.056  -0.263   4.561 -0.1243 -0.0715  0.0679
  801MOL0     C 5631   9.049  -0.396   4.603 -0.2332  0.1988 -0.0085
  801MOL0     C 5632   8.961  -0.470   4.527  0.5406 -0.3543 -0.0155
  801MOL0     C 5633   8.964  -0.607   4.539  0.4812  0.0238 -0.1318
  801MOL0     C 5634   9.048  -0.666   4.629 -0.4590 -0.5847 -0.1001
  801MOL0     O 5635   9.043  -0.799   4.666 -0.0962  0.0262 -0.1942
  801MOL0     C 5636   8.943  -0.883   4.606  0.0509 -0.0041 -0.0231
  801MOL0     C 5637   8.805  -0.847   4.657 -0.3731  0.6471  0.1889
  801MOL0     C 5638   8.776  -0.930   4.788 -0.2975  0.7996 -0.5835
  801MOL0     C 5639   8.633  -0.901   4.840 -0.3273  0.9408 -1.3563
  801MOL0     C 5640   8.590  -0.953   4.975 -0.7654 -0.0741 -0.3168
  801MOL0     C 5641   8.458  -0.892   5.015 -0.0071 -0.0368 -0.2613
  801MOL0     C 5642   8.347  -0.965   4.953  1.4670  0.7327  1.0937
  801MOL0     C 5643   8.289  -1.096   5.008  0.2160  0.4939  0.0864
  801MOL0    Cl 5644   8.224  -1.074   5.177  0.4737  0.1813  0.0210
  801MOL0     C 5645   9.148  -0.588   4.699 -0.1882 -0.5446  0.7729
  801MOL0     C 5646   9.149  -0.451   4.682  0.5249  0.3992  0.2634
  801MOL0     O 5647   9.061  -0.170   4.772 -0.5275  0.5402  0.0343
  801MOL0     C 5648   9.135   0.076   4.673  0.7770 -1.3675  0.0003
  801MOL0     C 5649   9.149   0.202   4.617 -0.6603  1.0496  0.5276
  801MOL0     N 5650   9.120   0.827   3.984  0.8221  0.0249  0.0048
  801MOL0     N 5651   9.027   0.916   3.975  0.7961  0.1350 -0.0820
  801MOL0     C 5652   9.845   1.325   4.818  0.0063 -0.3488 -0.1332
  801MOL0     C 5653   9.968   1.287   4.872 -0.5626  0.6782 -0.1838
  801MOL0     C 5654  10.298   1.108   5.095  0.0093 -0.3973  0.0902
  801MOL0     C 5655  10.308   1.149   5.229 -0.5822 -0.8412 -0.1831
  801MOL0     C 5656  10.430   1.119   5.300  0.3536 -0.5702 -0.0581
  801MOL0     C 5657  10.538   1.052   5.237 -0.0032 -0.9294 -0.6577
  801MOL0     O 5658  10.656   1.041   5.313 -0.3977  0.2363  0.4602
  801MOL0     C 5659  10.770   1.029   5.238  0.0035 -1.0302  0.2016
  801MOL0     C 5660  10.891   1.078   5.317  0.6904  0.0483 -0.1441
  801MOL0     C 5661  10.926   0.994   5.439  0.6552 -0.5129 -0.1205
  801MOL0     C 5662  10.846   1.018   5.569  0.0965 -0.2030  0.6888
  801MOL0     C 5663  10.930   0.991   5.684  1.3240 -0.1052 -0.9959
  801MOL0     C 5664  11.007   0.978   5.779  0.1293 -0.2919 -0.2687
  801MOL0     C 5665  10.529   1.024   5.100  0.2413 -0.1753 -0.1084
  801MOL0     C 5666  10.410   1.054   5.030 -0.5192  0.0290  0.3355
  801MOL0     H 5667   9.987   0.970   4.767  0.5094  0.3209 -1.8495
  801MOL0     H 5668   9.757   1.023   4.685 -2.2164  0.4740  2.4709
  801MOL0     H 5669   9.516   1.075   4.679 -2.3462  0.5535 -0.1869
  801MOL0     H 5670   9.600   1.112   4.546 -1.6205 -1.4821 -0.3199
  801MOL0     H 5671   9.454   1.344   4.534 -1.4546 -0.9457 -0.5360
  801MOL0     H 5672   9.357   1.265   4.658 -0.1805  3.0416  0.1745
  801MOL0     H 5673   9.338   1.071   4.512 -0.8330  1.0848  0.8921
  801MOL0     H 5674   9.435   1.160   4.387 -0.2999  0.2837 -0.6512
  801MOL0     H 5675   9.168   1.205   4.518  0.9530  2.5537  1.6518
  801MOL0     H 5676   9.249   1.335   4.421  3.2095  0.6340 -2.2664
  801MOL0     H 5677   9.196   1.065   4.302 -2.7760 -0.7442 -1.4634
  801MOL0     H 5678   9.197   1.224   4.220  0.8060  2.1587  1.7323
  801MOL0     H 5679   8.975   1.261   4.357  0.3902  0.2399  0.8789
  801MOL0     H 5680   8.974   1.094   4.378 -1.3341  1.8178  0.7849
  801MOL0     H 5681   8.835   1.216   4.218 -0.2774 -2.1796  2.3620
  801MOL0     H 5682   8.980   1.202   4.098  1.8182 -0.9074 -0.0524
  801MOL0     H 5683   8.821   1.040   4.053  0.7928  0.9369 -1.2254
  801MOL0     H 5684   8.817   0.985   4.223 -1.2563 -0.4907  0.1234
  801MOL0     H 5685   9.014   0.817   4.286  0.6520  1.7647  0.9770
  801MOL0     H 5686   9.334   0.723   4.151 -1.2164  3.3165  0.8009
  801MOL0     H 5687   9.239   0.585   4.070 -2.7413 -1.9616  2.2964
  801MOL0     H 5688   9.097   0.587   4.278 -0.6407  1.9254  1.9473
  801MOL0     H 5689   9.231   0.689   4.349  0.6408 -2.9656  2.5530
  801MOL0     H 5690   9.232   0.424   4.209 -1.5332  0.7134  0.4416
  801MOL0     H 5691   9.384   0.494   4.253 -0.9144 -0.3043 -3.6684
  801MOL0     H 5692   9.264   0.462   4.508  2.1076 -1.0915  0.2037
  801MOL0     H 5693   9.347   0.327   4.426  1.1917  0.8614 -0.4150
  801MOL0     H 5694   9.033   0.139   4.301 -0.3883  3.9744  0.1082
  801MOL0     H 5695   8.990  -0.073   4.404 -0.3773  0.6430 -0.1747
  801MOL0     H 5696   8.898  -0.413   4.460  2.7967  1.1085 -0.9916
  801MOL0     H 5697   8.884  -0.667   4.497  0.5201  0.3077 -0.6162
  801MOL0     H 5698   8.974  -0.986   4.626 -0.3523 -0.0173  0.5639
  801MOL0     H 5699   8.934  -0.877   4.498 -4.5545  0.5093  0.2264
  801MOL0     H 5700   8.734  -0.873   4.578 -1.0510 -3.0994  1.7841
  801MOL0     H 5701   8.809  -0.743   4.690 -1.8056  0.5746  0.6436
  801MOL0     H 5702   8.849  -0.907   4.866 -0.5457  1.2655 -0.4790
  801MOL0     H 5703   8.788  -1.033   4.754 -0.4715  1.3100 -2.2783
  801MOL0     H 5704   8.625  -0.792   4.846 -0.7846  0.8455  1.0239
  801MOL0     H 5705   8.558  -0.939   4.771  0.2329 -0.6531 -1.1259
  801MOL0     H 5706   8.669  -0.921   5.043  0.7412  1.0775 -2.4673
  801MOL0     H 5707   8.582  -1.062   4.982  2.0582 -0.3085  0.8143
  801MOL0     H 5708   8.452  -0.784   4.996 -1.1675 -0.0878 -0.2787
  801MOL0     H 5709   8.450  -0.893   5.124  0.5075 -0.0424 -0.2235
  801MOL0     H 5710   8.264  -0.894   4.957  0.1131 -0.8611  3.1263
  801MOL0     H 5711   8.353  -0.996   4.848 -1.5571  0.4767  0.9135
  801MOL0     H 5712   8.378  -1.160   5.016  1.5195  2.3921  1.9910
  801MOL0     H 5713   8.216  -1.133   4.936 -0.8418  1.9906  0.3436
  801MOL0     H 5714   9.216  -0.641   4.765  1.7765  0.4039 -0.3935
  801MOL0     H 5715   9.222  -0.394   4.739 -0.4727  1.1484  0.8153
  801MOL0     H 5716   9.161   0.064   4.778  2.1057 -1.5597 -0.3298
  801MOL0     H 5717   9.197   0.290   4.657 -1.0150  0.9648  1.1456
  801MOL0     H 5718   9.811   1.426   4.839  0.0946  0.6462 -4.0559
  801MOL0     H 5719  10.025   1.347   4.942  2.5270 -1.7131 -0.4329
  801MOL0     H 5720  10.224   1.208   5.262  1.1411  1.3190  0.6369
  801MOL0     H 5721  10.425   1.150   5.404  1.2296 -1.0715  0.1417
  801MOL0     H 5722  10.772   1.086   5.145  0.5841 -2.3838 -0.6459
  801MOL0     H 5723  10.765   0.930   5.192 -1.9642 -1.4655  1.2044
  801MOL0     H 5724  10.982   1.082   5.257  1.6938 -0.3588  1.2833
  801MOL0     H 5725  10.883   1.184   5.343  4.2959  0.8672 -1.8206
  801MOL0     H 5726  11.031   1.010   5.462  1.2838 -2.1047 -1.6170
  801MOL0     H 5727  10.903   0.892   5.408 -3.8360  0.1112  0.5056
  801MOL0     H 5728  10.821   1.125   5.573 -0.4313 -0.1908 -1.5318
  801MOL0     H 5729  10.752   0.963   5.573  2.3862 -4.5654  0.1338
  801MOL0     H 5730  11.088   0.978   5.849 -0.7077  0.2652  0.7120
  801MOL0     H 5731  10.603   0.965   5.047 -3.6228 -3.3862 -2.5001
  801MOL0     H 5732  10.405   1.014   4.929 -1.4905 -0.9064  0.7364
  802MOL0     O 5733   8.938   6.286   3.059  0.2687  0.1123 -0.4393
  802MOL0     C 5734   9.053   6.331   3.072  0.1665 -0.2112 -0.8334
  802MOL0     O 5735   9.085   6.465   3.073  0.1423  0.5697  0.2869
  802MOL0     C 5736   8.992   6.565   3.075 -1.1068 -0.3960 -0.2458
  802MOL0     C 5737   8.873   6.554   3.145  0.6051 -1.4297 -0.2108
  802MOL0     C 5738   8.801   6.675   3.173  0.6702  0.5919 -0.1614
  802MOL0     C 5739   8.834   6.797   3.114 -0.2696  0.1371  0.7410
  802MOL0     O 5740   8.739   6.895   3.108  0.0022  0.2447  0.1215
  802MOL0     C 5741   8.758   7.004   3.020  0.5226  0.1558 -0.7551
  802MOL0     C 5742   8.659   7.118   3.035  0.3818 -0.2902 -0.0432
  802MOL0     C 5743   8.515   7.077   3.003  0.5887  0.1651 -0.0613
  802MOL0     C 5744   8.418   7.196   3.022 -0.4905 -0.2715 -0.2885
  802MOL0     C 5745   8.279   7.165   2.976 -0.1591 -0.7038 -0.4067
  802MOL0     C 5746   8.168   7.264   3.010 -1.1327 -0.3246  0.1136
  802MOL0     C 5747   8.143   7.297   3.158 -0.1066 -0.1731  0.6830
  802MOL0     C 5748   8.051   7.209   3.229 -0.2047 -0.3979 -0.1750
  802MOL0     N 5749   7.913   7.198   3.188 -0.4676  0.0606  0.6533
  802MOL0     C 5750   7.817   7.288   3.225 -0.1756 -0.0284  0.2369
  802MOL0     C 5751   7.711   7.253   3.151  1.1367  0.6134  0.9928
  802MOL0     C 5752   7.578   7.323   3.154  0.8241  0.2342 -0.6046
  802MOL0     C 5753   7.482   7.280   3.264 -0.4661  0.4395 -0.0919
  802MOL0     C 5754   7.344   7.340   3.238  0.0486 -0.2937 -0.1125
  802MOL0     C 5755   7.237   7.259   3.310 -0.1089  0.0980 -0.0142
  802MOL0     O 5756   7.256   7.289   3.452  0.9000  0.0280  0.7915
  802MOL0     C 5757   7.137   7.336   3.506  0.0407 -0.8332 -0.0240
  802MOL0     C 5758   7.064   7.449   3.444  0.1092 -0.1594 -0.4606
  802MOL0     C 5759   6.952   7.492   3.507 -0.5553 -0.1956 -0.4873
  802MOL0     C 5760   6.904   7.441   3.628  0.6854 -0.7038  0.5748
  802MOL0     C 5761   6.786   7.488   3.687 -0.1383 -0.1828  0.5791
  802MOL0     O 5762   6.731   7.589   3.621  0.3745  0.0188 -0.3240
  802MOL0     C 5763   6.635   7.669   3.671  0.1463 -1.0584  0.1309
  802MOL0     C 5764   6.616   7.713   3.803  0.3080  0.2309  0.9701
  802MOL0     C 5765   6.511   7.800   3.830 -0.1442 -0.5482 -0.6609
  802MOL0     C 5766   6.435   7.854   3.729 -0.3025 -1.0189  0.5937
  802MOL0     O 5767   6.354   7.960   3.748 -0.2448  0.3772  0.4283
  802MOL0     C 5768   6.362   8.040   3.871  0.0277 -0.7579  0.4221
  802MOL0     C 5769   6.280   7.980   3.986 -0.9980  0.5980 -0.3848
  802MOL0     C 5770   6.128   7.977   3.957 -0.0272 -0.0265 -0.8424
  802MOL0     C 5771   6.068   8.094   3.865 -0.0255 -0.3104 -1.0587
  802MOL0     C 5772   5.916   8.079   3.863 -0.2317  0.5328  0.3116
  802MOL0     C 5773   5.849   8.206   3.813  0.3866  0.1818  0.4373
  802MOL0     C 5774   5.889   8.248   3.665  0.5286 -0.4396 -0.6594
  802MOL0     C 5775   5.761   8.304   3.594 -0.1271  0.0399  0.2412
  802MOL0    Cl 5776   5.702   8.440   3.690  0.0547  0.3333 -0.4206
  802MOL0     C 5777   6.459   7.820   3.599 -0.3632 -0.1680 -0.2825
  802MOL0     C 5778   6.566   7.738   3.577  0.2144 -0.2416  0.1307
  802MOL0     O 5779   6.755   7.443   3.793 -0.1057  1.0965 -0.0677
  802MOL0     C 5780   6.967   7.324   3.677  0.2637 -0.3792 -0.1583
  802MOL0     C 5781   7.086   7.276   3.616 -0.0990 -0.0227 -0.5655
  802MOL0     N 5782   7.743   7.146   3.069 -0.3720  0.0013  0.2917
  802MOL0     N 5783   7.869   7.114   3.088 -0.6561  0.3071 -0.1391
  802MOL0     C 5784   8.954   6.800   3.032  0.0181  0.1589 -0.1324
  802MOL0     C 5785   9.031   6.689   3.025 -0.9874 -0.4239  0.3069
  802MOL0     C 5786   9.143   6.224   3.044  0.7834 -0.8424 -1.8067
  802MOL0     C 5787   9.270   6.251   3.002 -0.2010  0.3034 -0.4374
  802MOL0     C 5788   9.349   6.149   2.956 -0.6204 -0.0352 -0.3917
  802MOL0     C 5789   9.317   6.021   2.967  0.0992  0.4730 -0.5758
  802MOL0     O 5790   9.403   5.928   2.911  0.2216 -0.6238  0.0027
  802MOL0     C 5791   9.376   5.792   2.907  1.3732 -0.6617 -0.9445
  802MOL0     C 5792   9.507   5.734   2.866 -0.5196  0.0852  0.4039
  802MOL0     C 5793   9.497   5.583   2.845 -0.5957  1.3116  0.3569
  802MOL0     C 5794   9.628   5.498   2.829  0.7714 -0.4296 -0.1022
  802MOL0     C 5795   9.583   5.360   2.842 -0.0578 -0.9197 -0.6863
  802MOL0     C 5796   9.540   5.246   2.843  0.6000 -0.0295  0.5713
  802MOL0     C 5797   9.192   5.989   3.013 -0.5579 -0.1835 -0.6457
  802MOL0     C 5798   9.108   6.087   3.048 -0.2739  0.2776  0.6814
  802MOL0     H 5799   8.839   6.460   3.189 -1.4711 -1.4366 -1.7064
  802MOL0     H 5800   8.715   6.678   3.239  1.2615 -0.3165  0.6946
  802MOL0     H 5801   8.770   6.963   2.920 -1.8401 -3.7881  0.3738
  802MOL0     H 5802   8.853   7.054   3.043 -1.2444  4.2072 -1.3953
  802MOL0     H 5803   8.694   7.206   2.981  1.9263  1.3726  3.3738
  802MOL0     H 5804   8.653   7.148   3.140  0.1865 -1.0861  0.1856
  802MOL0     H 5805   8.484   6.993   3.065 -0.8953  2.5392  2.6301
  802MOL0     H 5806   8.520   7.057   2.895 -0.5814  3.1279 -0.7543
  802MOL0     H 5807   8.432   7.234   3.123  3.9570 -1.8871 -0.0670
  802MOL0     H 5808   8.445   7.280   2.957 -3.2728 -0.2650 -1.6071
  802MOL0     H 5809   8.255   7.061   3.004  1.4083 -0.9108  0.2402
  802MOL0     H 5810   8.286   7.170   2.867 -1.3482 -2.9693 -0.6594
  802MOL0     H 5811   8.083   7.216   2.961 -0.8993  0.7018 -1.3805
  802MOL0     H 5812   8.187   7.362   2.965 -2.3223 -0.8288 -1.5638
  802MOL0     H 5813   8.238   7.303   3.212  0.7080  2.4233 -0.8545
  802MOL0     H 5814   8.093   7.395   3.154 -0.3679 -0.3453 -2.2150
  802MOL0     H 5815   8.052   7.235   3.335 -0.9914 -0.7812 -0.0708
  802MOL0     H 5816   8.105   7.115   3.212  1.5487  0.6345 -0.5770
  802MOL0     H 5817   7.827   7.367   3.299  2.5689  0.4924 -0.5837
  802MOL0     H 5818   7.527   7.300   3.061  1.8874 -1.4309 -0.8179
  802MOL0     H 5819   7.598   7.431   3.158  0.4618  0.2817  0.3841
  802MOL0     H 5820   7.513   7.308   3.366 -0.6420  1.5696 -0.3303
  802MOL0     H 5821   7.473   7.172   3.257 -2.6807  0.6453 -1.0050
  802MOL0     H 5822   7.346   7.447   3.263 -0.6685 -0.3515  0.1973
  802MOL0     H 5823   7.326   7.339   3.130 -3.6995 -1.3279  0.3833
  802MOL0     H 5824   7.260   7.155   3.288  0.6291  0.2756 -0.0942
  802MOL0     H 5825   7.145   7.291   3.261  0.7109 -0.2975 -1.8761
  802MOL0     H 5826   7.102   7.486   3.349  1.0478  2.1891  0.7515
  802MOL0     H 5827   6.895   7.576   3.470 -2.7659 -0.2562  2.4249
  802MOL0     H 5828   6.681   7.667   3.877  1.2935 -0.3316 -0.1982
  802MOL0     H 5829   6.511   7.821   3.937 -1.0177 -2.1469 -0.3006
  802MOL0     H 5830   6.319   8.139   3.852 -0.1406 -0.5433  1.8216
  802MOL0     H 5831   6.465   8.043   3.907  0.6501 -1.3558 -1.2406
  802MOL0     H 5832   6.304   8.030   4.081 -3.1875  0.2135  0.4322
  802MOL0     H 5833   6.304   7.875   4.000 -1.5887  0.4728 -0.2874
  802MOL0     H 5834   6.077   7.971   4.054 -1.5797  4.2179 -1.2089
  802MOL0     H 5835   6.100   7.883   3.909  2.7881 -0.6541 -1.4630
  802MOL0     H 5836   6.106   8.189   3.903  0.3649 -0.8025 -0.1758
  802MOL0     H 5837   6.092   8.095   3.758 -1.8350  0.8141 -1.4820
  802MOL0     H 5838   5.868   8.070   3.961 -1.7986  2.1514 -0.2412
  802MOL0     H 5839   5.878   7.989   3.813 -3.5144  0.8538  1.9383
  802MOL0     H 5840   5.879   8.284   3.885  2.1613  0.8660 -0.9464
  802MOL0     H 5841   5.741   8.201   3.827  0.1945  3.4534  1.0037
  802MOL0     H 5842   5.972   8.319   3.665 -3.3406  4.7467 -3.3022
  802MOL0     H 5843   5.926   8.163   3.607 -0.0996 -1.0877 -0.1339
  802MOL0     H 5844   5.681   8.229   3.593 -0.2196  0.0714  1.9917
  802MOL0     H 5845   5.795   8.340   3.497  1.2173  0.6972  0.9398
  802MOL0     H 5846   6.416   7.854   3.505 -3.1694 -3.7026 -0.4746
  802MOL0     H 5847   6.601   7.722   3.476  1.3991  3.7513 -0.2660
  802MOL0     H 5848   6.939   7.264   3.762 -2.2354 -3.1458 -2.6928
  802MOL0     H 5849   7.124   7.180   3.650 -1.9831 -1.1191 -1.3706
  802MOL0     H 5850   8.997   6.886   2.981 -0.7293  1.7767  1.8336
  802MOL0     H 5851   9.131   6.703   2.984 -1.4326 -0.1400 -0.7283
  802MOL0     H 5852   9.308   6.352   2.994 -1.2623  0.6160 -1.9457
  802MOL0     H 5853   9.450   6.178   2.928  0.1029 -1.0012  1.0815
  802MOL0     H 5854   9.302   5.760   2.833 -2.3298  0.3799  1.9873
  802MOL0     H 5855   9.349   5.756   3.007  1.6474  0.9642 -0.2559
  802MOL0     H 5856   9.529   5.791   2.775 -2.4470  2.6658  1.4357
  802MOL0     H 5857   9.588   5.742   2.939 -1.1352  0.7957  1.0233
  802MOL0     H 5858   9.454   5.574   2.744  1.0456  1.5807 -0.3972
  802MOL0     H 5859   9.418   5.546   2.912  0.3100 -0.2452  0.6068
  802MOL0     H 5860   9.672   5.521   2.732 -0.0919  0.8537 -0.2181
  802MOL0     H 5861   9.700   5.530   2.906  0.8435  0.2694 -0.4453
  802MOL0     H 5862   9.511   5.143   2.843 -1.4187  0.5079  1.2736
  802MOL0     H 5863   9.163   5.885   3.014 -2.2484  0.2641 -0.4797
  802MOL0     H 5864   9.013   6.044   3.080  0.4419 -1.1727  0.9503
  803MOL0     O 5865   9.677   2.026   6.995 -0.5829  0.4940 -0.2086
  803MOL0     C 5866   9.731   2.140   6.969 -0.8854  0.0072  1.3115
  803MOL0     O 5867   9.673   2.263   6.979  1.0116 -0.2866 -0.9022
  803MOL0     C 5868   9.554   2.264   7.049  0.5104 -0.5381  0.1847
  803MOL0     C 5869   9.532   2.236   7.182  0.7170  0.6400 -0.5611
  803MOL0     C 5870   9.409   2.250   7.245  0.8561 -0.7868  0.3645
  803MOL0     C 5871   9.297   2.288   7.166 -0.4041  0.3884  0.6934
  803MOL0     O 5872   9.183   2.281   7.235  0.1267  0.0090 -0.1787
  803MOL0     C 5873   9.060   2.224   7.170 -0.2639  1.2888  0.0333
  803MOL0     C 5874   8.941   2.235   7.268  0.5416 -0.0638  0.0872
  803MOL0     C 5875   8.912   2.375   7.327  0.9250  0.0992  0.8228
  803MOL0     C 5876   8.775   2.376   7.404  0.0768  0.2494  0.2073
  803MOL0     C 5877   8.726   2.511   7.453 -0.2364  0.4470  0.4278
  803MOL0     C 5878   8.597   2.498   7.532 -0.4107  0.1034 -0.5948
  803MOL0     C 5879   8.531   2.631   7.568  0.1089  1.1128  0.2207
  803MOL0     C 5880   8.601   2.721   7.667 -0.3994 -0.5658  0.1796
  803MOL0     N 5881   8.540   2.851   7.673 -0.0711 -0.6900 -0.3566
  803MOL0     C 5882   8.616   2.972   7.658  0.6791  0.0556  0.3480
  803MOL0     C 5883   8.539   3.071   7.712 -0.1047  0.2332  1.0014
  803MOL0     C 5884   8.557   3.226   7.723  0.2056  0.2298  0.4618
  803MOL0     C 5885   8.553   3.294   7.587 -0.1881  0.4826  0.1809
  803MOL0     C 5886   8.564   3.446   7.601  0.1902  0.6409 -0.6980
  803MOL0     C 5887   8.579   3.518   7.480 -0.4535 -0.9499  0.5951
  803MOL0     O 5888   8.632   3.650   7.501 -0.4073 -0.4411 -0.1078
  803MOL0     C 5889   8.545   3.749   7.532  0.3422 -0.1405 -0.4808
  803MOL0     C 5890   8.408   3.736   7.527 -0.6224 -0.2205 -0.4076
  803MOL0     C 5891   8.327   3.847   7.568  0.1921  0.6669 -0.2156
  803MOL0     C 5892   8.381   3.961   7.626 -0.3573 -0.3196 -0.2805
  803MOL0     C 5893   8.292   4.071   7.666  0.3888  0.0129 -0.4306
  803MOL0     O 5894   8.169   4.074   7.615  0.2060  0.1705 -0.1442
  803MOL0     C 5895   8.065   4.143   7.674  1.0875 -1.1893 -0.1460
  803MOL0     C 5896   7.950   4.071   7.697  0.1811  0.2274 -0.3968
  803MOL0     C 5897   7.848   4.136   7.753  0.2273  0.3993  0.3870
  803MOL0     C 5898   7.844   4.273   7.774  1.4251  0.3218 -0.6757
  803MOL0     O 5899   7.733   4.318   7.854  0.1106 -0.5983  0.0539
  803MOL0     C 5900   7.754   4.419   7.953 -0.1822 -0.3951 -0.3644
  803MOL0     C 5901   7.654   4.401   8.069 -0.0764  0.2750  0.4934
  803MOL0     C 5902   7.514   4.355   8.022 -0.1479 -0.4791  0.8384
  803MOL0     C 5903   7.423   4.345   8.149 -0.6093  0.1558  0.1437
  803MOL0     C 5904   7.370   4.473   8.202 -0.1273 -0.0669  1.5928
  803MOL0     C 5905   7.276   4.554   8.101  0.5027  0.6790  0.1628
  803MOL0     C 5906   7.169   4.466   8.050  2.0353  0.1673 -0.5122
  803MOL0     C 5907   7.060   4.551   7.972 -0.2296  0.7471 -0.7360
  803MOL0    Cl 5908   7.000   4.684   8.076 -0.1745 -0.3870  0.1329
  803MOL0     C 5909   7.961   4.341   7.742  0.4412  0.5796  0.7764
  803MOL0     C 5910   8.067   4.286   7.693 -0.4097 -0.5591 -0.3307
  803MOL0     O 5911   8.340   4.151   7.754 -0.7650 -0.4688 -0.2301
  803MOL0     C 5912   8.521   3.983   7.617  0.7066  0.1905 -0.6975
  803MOL0     C 5913   8.593   3.881   7.559 -0.5551 -0.2760  1.0359
  803MOL0     N 5914   8.421   3.010   7.762 -0.0390  0.6711 -0.5059
  803MOL0     N 5915   8.417   2.883   7.730 -0.1885 -0.1216 -0.1095
  803MOL0     C 5916   9.310   2.315   7.032  0.3487 -0.1855 -0.7454
  803MOL0     C 5917   9.442   2.322   6.982 -0.1095 -0.3765  0.1723
  803MOL0     C 5918   9.862   2.137   6.907  0.2905  0.4014  0.3342
  803MOL0     C 5919   9.913   2.229   6.819 -0.1980  1.1345  0.1631
  803MOL0     C 5920  10.040   2.220   6.764 -0.6748  0.5097 -0.1645
  803MOL0     C 5921  10.121   2.104   6.790 -0.5259  0.0250  0.1188
  803MOL0     O 5922  10.240   2.099   6.733 -0.1081 -0.5689 -1.0877
  803MOL0     C 5923  10.332   2.000   6.773 -0.2912 -0.6518  0.3209
  803MOL0     C 5924  10.462   2.005   6.697 -0.2950  0.0149 -0.6480
  803MOL0     C 5925  10.561   2.104   6.759 -0.1589 -0.2612  0.7955
  803MOL0     C 5926  10.657   2.154   6.654 -0.0376  0.0759  0.9668
  803MOL0     C 5927  10.593   2.220   6.536 -0.5007  0.1879 -0.6326
  803MOL0     C 5928  10.522   2.254   6.446  0.6707 -0.3922 -0.2266
  803MOL0     C 5929  10.066   2.006   6.875  0.0911  0.9624 -0.4450
  803MOL0     C 5930   9.942   2.023   6.927  1.5106  0.7363  0.7933
  803MOL0     H 5931   9.615   2.186   7.230 -0.4653 -1.7755 -0.8625
  803MOL0     H 5932   9.390   2.239   7.352  0.3150  0.3207  0.3939
  803MOL0     H 5933   9.076   2.118   7.151 -2.4716  1.0449 -0.7160
  803MOL0     H 5934   9.027   2.271   7.077 -0.5112 -1.2719 -1.2387
  803MOL0     H 5935   8.951   2.168   7.354 -0.3929  3.4600  3.1845
  803MOL0     H 5936   8.848   2.201   7.219 -0.2240  1.0247  0.7395
  803MOL0     H 5937   8.904   2.437   7.238 -1.0794  2.2547  2.3827
  803MOL0     H 5938   8.989   2.411   7.396  0.3481  2.6091  0.2618
  803MOL0     H 5939   8.697   2.323   7.349 -0.1065  1.3057 -0.5923
  803MOL0     H 5940   8.792   2.315   7.493  0.6510  1.9526  1.3244
  803MOL0     H 5941   8.699   2.572   7.366 -4.0186 -2.8335 -0.9727
  803MOL0     H 5942   8.807   2.563   7.506  2.4893  0.8544 -3.6640
  803MOL0     H 5943   8.603   2.437   7.622 -0.8934  1.2986  0.2753
  803MOL0     H 5944   8.520   2.458   7.466 -4.2767  2.7597  1.9190
  803MOL0     H 5945   8.486   2.680   7.481 -0.5409 -0.0498 -0.1174
  803MOL0     H 5946   8.438   2.599   7.615  0.6218  1.4731  1.5369
  803MOL0     H 5947   8.699   2.748   7.627 -0.7326 -2.0465 -1.8008
  803MOL0     H 5948   8.628   2.685   7.766  2.2214  3.6046  1.2299
  803MOL0     H 5949   8.704   2.981   7.595 -0.4138 -0.8876 -1.4265
  803MOL0     H 5950   8.658   3.227   7.763 -1.0486  2.0083  4.0344
  803MOL0     H 5951   8.484   3.271   7.791  0.7415 -1.5315  2.2870
  803MOL0     H 5952   8.460   3.266   7.536  0.5977  1.5832 -1.9697
  803MOL0     H 5953   8.637   3.257   7.527  2.0286  2.7210  1.7204
  803MOL0     H 5954   8.476   3.489   7.652 -0.0847 -0.1606 -0.4728
  803MOL0     H 5955   8.662   3.465   7.646  0.0788  0.3339 -0.3140
  803MOL0     H 5956   8.494   3.511   7.411  0.4204  3.0229 -1.1311
  803MOL0     H 5957   8.665   3.466   7.436 -0.9778 -1.9787  0.7411
  803MOL0     H 5958   8.364   3.643   7.493 -0.5766 -1.8812  3.5865
  803MOL0     H 5959   8.222   3.827   7.549  0.6286 -1.6610 -0.3806
  803MOL0     H 5960   7.943   3.963   7.689 -0.3445  0.2811 -0.6417
  803MOL0     H 5961   7.766   4.067   7.773  0.6123 -0.3467 -0.4962
  803MOL0     H 5962   7.732   4.520   7.916  0.9796 -0.2697 -0.7640
  803MOL0     H 5963   7.853   4.417   8.000 -0.9613  1.4605  1.5486
  803MOL0     H 5964   7.643   4.498   8.120 -1.4123  1.6749 -2.2419
  803MOL0     H 5965   7.699   4.325   8.134  2.0780  3.7799  3.5233
  803MOL0     H 5966   7.524   4.260   7.969 -0.5965  0.1435 -0.3959
  803MOL0     H 5967   7.476   4.428   7.950  2.1338  2.4400  2.3490
  803MOL0     H 5968   7.335   4.289   8.117  1.1045 -1.3209 -2.4037
  803MOL0     H 5969   7.468   4.286   8.230  1.4756 -0.7491 -1.5692
  803MOL0     H 5970   7.446   4.542   8.239 -0.4930  1.7151 -0.7350
  803MOL0     H 5971   7.304   4.461   8.288 -0.7186  4.2081  1.9584
  803MOL0     H 5972   7.337   4.595   8.019  3.0346  3.1238  3.0091
  803MOL0     H 5973   7.236   4.640   8.155 -1.3014  0.7193 -1.1708
  803MOL0     H 5974   7.197   4.377   7.992 -0.0925 -2.0014  1.5273
  803MOL0     H 5975   7.119   4.430   8.140  2.7275 -0.4099 -0.3507
  803MOL0     H 5976   6.975   4.488   7.945  0.4029  0.4918 -2.2411
  803MOL0     H 5977   7.110   4.596   7.886  0.3416 -2.7670 -2.4626
  803MOL0     H 5978   7.960   4.440   7.787  0.1321 -0.3536  2.9685
  803MOL0     H 5979   8.159   4.337   7.664 -0.1040 -0.7584  0.2695
  803MOL0     H 5980   8.575   4.073   7.645  0.5476  0.1372 -0.2137
  803MOL0     H 5981   8.700   3.894   7.561 -0.9031  3.8335  1.3243
  803MOL0     H 5982   9.225   2.335   6.968 -1.9980 -2.1686  1.5362
  803MOL0     H 5983   9.472   2.352   6.882  0.3527 -0.9975  0.1155
  803MOL0     H 5984   9.859   2.320   6.792 -2.6357  0.0571  1.0423
  803MOL0     H 5985  10.083   2.290   6.693 -0.1284 -2.4403 -3.0082
  803MOL0     H 5986  10.280   1.905   6.758 -3.0303  0.7952  0.0501
  803MOL0     H 5987  10.371   2.011   6.875  4.6734 -0.0215 -1.3385
  803MOL0     H 5988  10.511   1.908   6.688  0.9685  0.3460  1.8033
  803MOL0     H 5989  10.447   2.028   6.591 -1.7063  2.7415  0.0373
  803MOL0     H 5990  10.608   2.041   6.834 -0.8564 -0.3230  1.1873
  803MOL0     H 5991  10.523   2.185   6.822  2.0180  1.6140 -0.1627
  803MOL0     H 5992  10.732   2.212   6.709  2.2476  0.0671 -1.9060
  803MOL0     H 5993  10.714   2.071   6.610  0.3912  0.4612  0.7864
  803MOL0     H 5994  10.455   2.289   6.369  0.9140  0.7517  0.0577
  803MOL0     H 5995  10.131   1.932   6.920 -0.7732  1.8831  2.5651
  803MOL0     H 5996   9.919   1.946   7.000  2.8528 -1.1262 -0.6531
  804MOL0     O 5997   5.619   4.434   1.437 -0.5424  0.5322  0.9033
  804MOL0     C 5998   5.606   4.558   1.452 -0.0117  1.0033  1.5289
  804MOL0     O 5999   5.554   4.621   1.560 -0.5576  0.2946  0.6055
  804MOL0     C 6000   5.477   4.535   1.639 -0.9748  0.5682  0.4329
  804MOL0     C 6001   5.535   4.466   1.746 -0.5418  0.5703  0.2385
  804MOL0     C 6002   5.468   4.368   1.820  1.2805  0.7173 -0.3807
  804MOL0     C 6003   5.344   4.331   1.779  0.4744  0.1594 -0.6065
  804MOL0     O 6004   5.282   4.245   1.858  0.5985  0.8196  0.0515
  804MOL0     C 6005   5.152   4.210   1.825  1.2068 -0.2803  0.9594
  804MOL0     C 6006   5.095   4.124   1.932 -0.4084 -0.0745  0.0444
  804MOL0     C 6007   4.963   4.058   1.898  0.4026 -0.7159 -0.8595
  804MOL0     C 6008   4.919   3.964   2.009 -0.2155 -0.2452 -0.2455
  804MOL0     C 6009   4.762   3.957   2.009  0.6782  0.6785 -0.5199
  804MOL0     C 6010   4.702   3.844   2.086  0.8200 -0.1698 -0.4840
  804MOL0     C 6011   4.750   3.844   2.241  0.1923  0.6818  0.2695
  804MOL0     C 6012   4.676   3.729   2.321  0.3059 -0.8649  0.2695
  804MOL0     N 6013   4.533   3.736   2.297  0.9763 -0.5793 -0.5142
  804MOL0     C 6014   4.444   3.813   2.372  0.7754 -0.4343 -1.3372
  804MOL0     C 6015   4.321   3.795   2.317  0.8062  0.0993 -0.4946
  804MOL0     C 6016   4.187   3.838   2.366  0.0367 -0.7106 -0.3657
  804MOL0     C 6017   4.157   3.746   2.488 -1.3451 -0.3025  0.3005
  804MOL0     C 6018   4.010   3.741   2.551 -0.1362 -0.0539  0.6357
  804MOL0     C 6019   3.975   3.885   2.586  0.5037  0.4615  0.6260
  804MOL0     O 6020   3.879   3.890   2.694 -0.2839 -0.6637 -0.2592
  804MOL0     C 6021   3.748   3.856   2.686  0.0199  0.6707 -0.7794
  804MOL0     C 6022   3.678   3.836   2.567  0.2169  1.3770  0.4328
  804MOL0     C 6023   3.543   3.797   2.569 -0.3298  0.0674  0.6206
  804MOL0     C 6024   3.473   3.779   2.691  0.1250 -0.1790 -0.0977
  804MOL0     C 6025   3.333   3.740   2.690 -0.5687  0.7717  0.4362
  804MOL0     O 6026   3.264   3.741   2.570 -0.6499 -0.1879  0.4547
  804MOL0     C 6027   3.122   3.724   2.580  0.6115 -0.6074 -0.9474
  804MOL0     C 6028   3.062   3.783   2.475  0.5115 -0.1458 -0.2194
  804MOL0     C 6029   2.919   3.774   2.463  0.3216 -0.2055  0.3685
  804MOL0     C 6030   2.841   3.707   2.562 -0.5514 -0.1042 -0.4345
  804MOL0     O 6031   2.702   3.684   2.570 -0.4508 -0.8616 -0.0934
  804MOL0     C 6032   2.617   3.769   2.494 -0.3077  1.5513 -0.6129
  804MOL0     C 6033   2.475   3.714   2.507 -0.3985 -0.4626  0.4606
  804MOL0     C 6034   2.379   3.813   2.442 -0.5569 -0.5727 -1.2394
  804MOL0     C 6035   2.380   3.791   2.294 -0.8052 -0.1810  0.2898
  804MOL0     C 6036   2.263   3.874   2.221 -0.0789  0.1319 -0.0281
  804MOL0     C 6037   2.123   3.808   2.233  0.5750  0.8496  0.4727
  804MOL0     C 6038   2.012   3.908   2.231 -0.0946  0.2448 -0.5557
  804MOL0     C 6039   1.867   3.843   2.244 -0.6262  0.6925 -0.3858
  804MOL0    Cl 6040   1.751   3.968   2.242 -0.0503  0.4402 -0.2096
  804MOL0     C 6041   2.902   3.655   2.669 -0.0274 -0.2891  0.6148
  804MOL0     C 6042   3.043   3.661   2.670 -0.2705 -0.2180 -0.0807
  804MOL0     O 6043   3.292   3.701   2.799  0.0736 -0.2962 -0.0133
  804MOL0     C 6044   3.551   3.792   2.804  0.1667  0.5747  0.3771
  804MOL0     C 6045   3.682   3.833   2.802  0.8262 -1.3303  0.5138
  804MOL0     N 6046   4.336   3.703   2.210 -0.3347  0.2881 -1.1351
  804MOL0     N 6047   4.468   3.679   2.189  0.3992  0.7431 -0.1845
  804MOL0     C 6048   5.288   4.385   1.657  0.2629  0.8734  0.6531
  804MOL0     C 6049   5.355   4.488   1.583 -0.7959  0.1338  0.0834
  804MOL0     C 6050   5.661   4.639   1.342  0.0357  0.2274 -0.5436
  804MOL0     C 6051   5.699   4.776   1.354 -1.1990 -0.5153 -0.4318
  804MOL0     C 6052   5.763   4.848   1.247  0.3227  1.5740  0.3978
  804MOL0     C 6053   5.791   4.779   1.127  0.3307  0.3145 -0.9667
  804MOL0     O 6054   5.826   4.833   1.003 -0.4944 -0.4400 -0.2289
  804MOL0     C 6055   5.885   4.966   0.997  0.1370 -0.6444 -0.1325
  804MOL0     C 6056   6.025   4.968   1.060 -0.6239  0.4146  1.1639
  804MOL0     C 6057   6.083   5.108   1.109 -0.3683  0.3171 -1.2767
  804MOL0     C 6058   6.107   5.215   1.006  1.5536  0.8347  0.4417
  804MOL0     C 6059   5.973   5.267   0.967 -0.1184  0.8228  0.5222
  804MOL0     C 6060   5.884   5.327   0.913  0.5215  0.8177  0.2847
  804MOL0     C 6061   5.750   4.642   1.113 -0.4869 -0.4800 -0.0394
  804MOL0     C 6062   5.684   4.578   1.219 -0.1179  0.1301  0.7126
  804MOL0     H 6063   5.636   4.499   1.771 -0.3146  1.4763 -1.6513
  804MOL0     H 6064   5.500   4.342   1.921 -0.2755 -2.8888 -0.6760
  804MOL0     H 6065   5.150   4.160   1.728  0.1293  0.9770  0.2985
  804MOL0     H 6066   5.087   4.298   1.823  1.3852 -0.1650  0.0853
  804MOL0     H 6067   5.076   4.177   2.025 -0.7950 -3.5858  2.1394
  804MOL0     H 6068   5.168   4.055   1.974 -1.4339  0.0114  2.0868
  804MOL0     H 6069   4.987   4.001   1.808  3.0320 -0.1714 -0.5827
  804MOL0     H 6070   4.893   4.142   1.887  1.1439  0.1290  0.5134
  804MOL0     H 6071   4.956   3.863   1.991 -1.8724 -0.2862 -4.6169
  804MOL0     H 6072   4.954   3.999   2.106 -0.8389  2.4283 -0.9077
  804MOL0     H 6073   4.723   3.966   1.907 -2.0082  0.0577  0.3719
  804MOL0     H 6074   4.708   4.041   2.054 -2.6759 -1.6325  0.1435
  804MOL0     H 6075   4.721   3.747   2.039 -0.0606 -1.8680  2.3936
  804MOL0     H 6076   4.594   3.855   2.079  0.8773 -0.7568 -3.5584
  804MOL0     H 6077   4.859   3.836   2.252 -0.1670 -1.8802  3.8236
  804MOL0     H 6078   4.724   3.939   2.289 -0.1674  0.1230  1.2117
  804MOL0     H 6079   4.703   3.733   2.427 -0.5728  3.6029  0.5473
  804MOL0     H 6080   4.711   3.630   2.290 -1.6762 -1.5766  0.1594
  804MOL0     H 6081   4.466   3.868   2.463 -0.2276  0.8412 -1.8263
  804MOL0     H 6082   4.115   3.824   2.285  0.2329  2.5058 -1.2405
  804MOL0     H 6083   4.170   3.943   2.391 -2.7634 -1.2313  0.2462
  804MOL0     H 6084   4.229   3.777   2.565 -0.3183  1.0104 -1.1183
  804MOL0     H 6085   4.180   3.644   2.457 -0.7496 -0.4373  1.1484
  804MOL0     H 6086   3.938   3.701   2.479  0.3771 -0.6534  0.4418
  804MOL0     H 6087   3.998   3.673   2.637  0.6745 -1.8461 -0.6041
  804MOL0     H 6088   3.937   3.934   2.496 -0.0488 -0.0591  0.5663
  804MOL0     H 6089   4.068   3.930   2.621 -0.3197  1.9250  0.9826
  804MOL0     H 6090   3.720   3.835   2.467  0.1965 -0.4320  0.4058
  804MOL0     H 6091   3.480   3.783   2.482 -1.0222  3.5428  0.4259
  804MOL0     H 6092   3.120   3.838   2.400  0.7238 -0.4370 -0.2700
  804MOL0     H 6093   2.879   3.812   2.370  1.0305  0.5270  0.3459
  804MOL0     H 6094   2.648   3.789   2.391  0.6646 -0.8715 -0.8551
  804MOL0     H 6095   2.619   3.867   2.543  1.3023  0.8965  0.7247
  804MOL0     H 6096   2.448   3.704   2.612 -0.7852  1.5622  0.5950
  804MOL0     H 6097   2.468   3.614   2.462  1.4267  0.0277 -1.0407
  804MOL0     H 6098   2.404   3.917   2.465 -1.6815 -0.1266 -1.9586
  804MOL0     H 6099   2.281   3.786   2.482  0.5118 -1.6298  0.8239
  804MOL0     H 6100   2.476   3.830   2.257  0.0206  1.6495  3.9212
  804MOL0     H 6101   2.378   3.685   2.267  0.4654 -1.0087  3.0670
  804MOL0     H 6102   2.280   3.886   2.114  2.9130  2.6652  0.5579
  804MOL0     H 6103   2.263   3.968   2.277  0.3477  0.0564  0.1077
  804MOL0     H 6104   2.102   3.738   2.315 -1.0839 -2.5912 -2.5874
  804MOL0     H 6105   2.111   3.750   2.141 -2.1823  0.7962  0.7683
  804MOL0     H 6106   2.022   3.992   2.301  0.6506 -0.7417  0.5460
  804MOL0     H 6107   2.023   3.951   2.131  1.9909  2.0751  0.3728
  804MOL0     H 6108   1.870   3.781   2.335 -0.0285 -0.7530 -1.3526
  804MOL0     H 6109   1.848   3.778   2.158 -1.5145 -0.5310  0.6993
  804MOL0     H 6110   2.852   3.597   2.746 -0.2524 -3.9619 -2.0406
  804MOL0     H 6111   3.088   3.605   2.751  1.0624 -0.0254 -0.6742
  804MOL0     H 6112   3.501   3.773   2.898 -4.1999 -1.0022 -1.9508
  804MOL0     H 6113   3.739   3.854   2.893 -0.0243  0.2531  0.7152
  804MOL0     H 6114   5.191   4.349   1.624  1.6048 -2.0911 -0.4193
  804MOL0     H 6115   5.310   4.522   1.490 -1.2813  0.5200  0.4547
  804MOL0     H 6116   5.680   4.817   1.452  1.5406 -1.2674  0.4826
  804MOL0     H 6117   5.792   4.953   1.254  0.0785  1.6912 -0.3426
  804MOL0     H 6118   5.811   5.038   1.034  0.3043 -1.9193  3.0506
  804MOL0     H 6119   5.894   4.981   0.889 -1.6195  0.0264 -0.2245
  804MOL0     H 6120   6.033   4.900   1.145  1.6433 -1.3480 -0.3410
  804MOL0     H 6121   6.099   4.933   0.988 -2.2680  0.0018 -0.3815
  804MOL0     H 6122   6.180   5.078   1.148  1.3307  6.4265  0.2588
  804MOL0     H 6123   6.012   5.131   1.189 -1.0600 -3.7595 -0.5029
  804MOL0     H 6124   6.154   5.302   1.052  0.1931  0.9899  1.5821
  804MOL0     H 6125   6.160   5.178   0.917 -3.3574  2.1490 -3.5106
  804MOL0     H 6126   5.810   5.360   0.843 -0.5664  0.9987  1.4894
  804MOL0     H 6127   5.760   4.598   1.014  0.9392 -0.9656  0.2958
  804MOL0     H 6128   5.643   4.478   1.208 -1.4760  0.5634  1.5572
  805MOL0     O 6129   3.665   8.081   7.277 -0.2002 -0.8202  0.3016
  805MOL0     C 6130   3.654   8.077   7.153 -0.3359 -0.4844 -0.4770
  805MOL0     O 6131   3.541   8.072   7.074  0.3612  0.2186  0.4302
  805MOL0     C 6132   3.423   8.057   7.136  0.2269  0.0824 -0.4504
  805MOL0     C 6133   3.369   8.162   7.213 -1.2101  0.1273  0.7332
  805MOL0     C 6134   3.242   8.158   7.272  0.1641  0.2979 -0.7017
  805MOL0     C 6135   3.165   8.047   7.245  0.9421 -0.5716 -0.7252
  805MOL0     O 6136   3.045   8.035   7.318  0.0726  0.3298  0.3308
  805MOL0     C 6137   2.927   8.005   7.235  0.4485 -0.9679 -0.2361
  805MOL0     C 6138   2.801   8.022   7.328  0.2432 -0.3306 -0.7072
  805MOL0     C 6139   2.741   8.163   7.329  0.1275 -0.2238  0.8681
  805MOL0     C 6140   2.647   8.177   7.212 -1.2789  0.2397 -0.9872
  805MOL0     C 6141   2.513   8.110   7.231 -0.5606 -0.1071 -0.0754
  805MOL0     C 6142   2.429   8.197   7.331  1.0730 -0.2180  0.0898
  805MOL0     C 6143   2.313   8.106   7.377 -0.2860  0.0969  0.1020
  805MOL0     C 6144   2.232   8.175   7.481  0.5545  0.3890 -0.5641
  805MOL0     N 6145   2.132   8.080   7.537 -0.8906  1.0437  0.1848
  805MOL0     C 6146   2.147   8.008   7.653 -0.1559 -0.3383  0.6265
  805MOL0     C 6147   2.028   7.941   7.666 -0.4193 -0.7320 -0.1841
  805MOL0     C 6148   1.976   7.852   7.774 -1.1739 -1.0473 -0.4948
  805MOL0     C 6149   1.822   7.877   7.799  0.7457  0.3247 -0.6943
  805MOL0     C 6150   1.774   7.836   7.938 -0.0695  0.7267 -0.1481
  805MOL0     C 6151   1.798   7.679   7.957 -0.5295 -0.0484  1.0657
  805MOL0     O 6152   1.715   7.611   7.862  1.1690  0.1138 -0.4881
  805MOL0     C 6153   1.652   7.491   7.887 -0.3669 -0.9341 -0.2124
  805MOL0     C 6154   1.666   7.412   7.999  0.4778  0.5029 -0.1721
  805MOL0     C 6155   1.600   7.293   8.003 -0.6800 -0.3943  0.0625
  805MOL0     C 6156   1.522   7.242   7.900 -0.0279 -0.2099 -0.2610
  805MOL0     C 6157   1.458   7.104   7.895 -0.4700  0.3403  0.1457
  805MOL0     O 6158   1.443   7.056   8.016 -0.0163  0.6401 -0.1218
  805MOL0     C 6159   1.357   6.953   8.044 -0.1283 -1.0374  0.0129
  805MOL0     C 6160   1.386   6.819   8.011  0.1132  0.1753  0.0309
  805MOL0     C 6161   1.312   6.708   8.044 -0.9192 -0.1578  0.2366
  805MOL0     C 6162   1.198   6.734   8.123  0.6172  1.3739  0.1710
  805MOL0     O 6163   1.112   6.624   8.139 -0.0887 -0.4422 -0.0874
  805MOL0     C 6164   1.108   6.596   8.278 -0.0169  0.0177  0.4431
  805MOL0     C 6165   1.026   6.471   8.302  0.1637 -0.4642 -0.3750
  805MOL0     C 6166   0.870   6.499   8.281  0.3491  0.5384  0.4226
  805MOL0     C 6167   0.778   6.374   8.322 -0.8558 -0.0438 -0.0805
  805MOL0     C 6168   0.650   6.369   8.241 -0.2903  0.7344  0.8965
  805MOL0     C 6169   0.559   6.252   8.290  0.1390  1.8002 -0.2798
  805MOL0     C 6170   0.454   6.214   8.179 -0.7828 -0.1260 -0.2108
  805MOL0     C 6171   0.357   6.094   8.219 -0.1393 -0.2336  0.2702
  805MOL0    Cl 6172   0.302   6.084   8.390 -0.0419 -0.0215  0.0462
  805MOL0     C 6173   1.174   6.867   8.176 -1.1192  0.4680 -0.3594
  805MOL0     C 6174   1.259   6.968   8.136  0.5964 -0.1130  0.3012
  805MOL0     O 6175   1.410   7.059   7.789  0.1957  0.0333  0.5052
  805MOL0     C 6176   1.528   7.318   7.785 -0.0357  1.0904 -0.1265
  805MOL0     C 6177   1.583   7.445   7.785  0.5236 -0.3976 -0.4030
  805MOL0     N 6178   1.949   7.974   7.552  0.3126  0.2378  0.2522
  805MOL0     N 6179   2.015   8.059   7.473 -0.3172  1.0226 -0.5968
  805MOL0     C 6180   3.213   7.938   7.169  1.7179 -0.5897  1.0550
  805MOL0     C 6181   3.339   7.945   7.117 -0.6473 -0.0862  0.9029
  805MOL0     C 6182   3.774   8.073   7.071  0.0619 -0.3217  0.3323
  805MOL0     C 6183   3.894   8.036   7.126  0.2049  0.5577  0.3002
  805MOL0     C 6184   4.008   8.033   7.049 -0.1543  0.1499  0.2603
  805MOL0     C 6185   4.001   8.069   6.910  0.4142  0.1542  0.4416
  805MOL0     O 6186   4.125   8.070   6.846  0.0607 -0.5426  0.1650
  805MOL0     C 6187   4.128   8.132   6.716 -0.2153  0.6107  0.1928
  805MOL0     C 6188   4.279   8.152   6.676  0.1827 -0.3408  0.0800
  805MOL0     C 6189   4.355   8.274   6.737  0.1698  0.2174  0.0072
  805MOL0     C 6190   4.490   8.315   6.675  1.0794 -0.7014 -0.6210
  805MOL0     C 6191   4.532   8.426   6.749  0.3750 -0.1528  0.5102
  805MOL0     C 6192   4.539   8.534   6.801 -1.0784 -0.1238 -0.0752
  805MOL0     C 6193   3.876   8.107   6.851 -0.6751  0.2662  0.6633
  805MOL0     C 6194   3.769   8.112   6.939  0.0018 -0.0912 -0.0155
  805MOL0     H 6195   3.430   8.252   7.215  0.1351 -0.6605 -1.1837
  805MOL0     H 6196   3.199   8.232   7.339 -0.1433 -0.7519  0.2845
  805MOL0     H 6197   2.935   7.898   7.216  0.1204 -1.2863  1.2479
  805MOL0     H 6198   2.918   8.063   7.143 -1.5426  0.3663  0.7075
  805MOL0     H 6199   2.852   8.014   7.425  2.2015  3.1836 -1.2703
  805MOL0     H 6200   2.729   7.942   7.307  0.5578 -1.1740  1.1612
  805MOL0     H 6201   2.830   8.227   7.321 -1.0609  1.2280 -3.3109
  805MOL0     H 6202   2.686   8.177   7.422 -0.1618  3.8257  0.2948
  805MOL0     H 6203   2.630   8.284   7.199 -0.3802  0.3726 -1.0755
  805MOL0     H 6204   2.700   8.143   7.123  1.2781 -0.1011  0.5617
  805MOL0     H 6205   2.520   8.005   7.262 -4.0617 -0.1312  1.1555
  805MOL0     H 6206   2.474   8.119   7.129  3.8526  2.9808 -1.7764
  805MOL0     H 6207   2.381   8.277   7.274 -1.7233 -0.4936  1.8453
  805MOL0     H 6208   2.490   8.221   7.418 -0.9006 -2.9140  2.4076
  805MOL0     H 6209   2.249   8.084   7.292  1.5354 -0.6832 -1.1277
  805MOL0     H 6210   2.348   8.012   7.421 -1.7985 -0.9527 -0.8362
  805MOL0     H 6211   2.186   8.269   7.449 -0.4028  1.3829  3.2816
  805MOL0     H 6212   2.287   8.210   7.568  0.7429 -1.8570  0.2746
  805MOL0     H 6213   2.225   8.012   7.728  0.2314 -3.7698  0.5731
  805MOL0     H 6214   2.036   7.861   7.866  0.0114  2.6887 -1.4801
  805MOL0     H 6215   1.992   7.746   7.749  5.4989 -0.3242 -1.0878
  805MOL0     H 6216   1.761   7.829   7.722 -0.4166  1.8341 -0.7503
  805MOL0     H 6217   1.792   7.979   7.778 -0.1714 -0.4616 -3.7759
  805MOL0     H 6218   1.825   7.883   8.023  0.8071 -3.5231  1.9544
  805MOL0     H 6219   1.667   7.858   7.948 -0.8912 -2.3997 -1.0741
  805MOL0     H 6220   1.758   7.653   8.055 -0.4185 -2.5327  0.5291
  805MOL0     H 6221   1.903   7.651   7.952 -0.2097  1.1471 -3.3811
  805MOL0     H 6222   1.726   7.448   8.081 -1.8671  2.0391  0.9687
  805MOL0     H 6223   1.600   7.226   8.089 -0.4565  1.9590  2.0079
  805MOL0     H 6224   1.470   6.792   7.948  0.1373  1.5905 -0.5755
  805MOL0     H 6225   1.354   6.621   7.994  1.6105  0.9482  0.2832
  805MOL0     H 6226   1.067   6.674   8.342 -0.1316  1.5196 -1.3825
  805MOL0     H 6227   1.207   6.573   8.319 -0.2744 -0.9916  0.5210
  805MOL0     H 6228   1.031   6.440   8.407 -0.0140  0.1002 -0.1935
  805MOL0     H 6229   1.074   6.403   8.232  1.7655  0.5223 -0.2944
  805MOL0     H 6230   0.834   6.514   8.178 -1.6889 -1.5560  0.7329
  805MOL0     H 6231   0.838   6.585   8.339 -3.1035 -0.8976  0.9079
  805MOL0     H 6232   0.843   6.287   8.307  0.8626  1.4209 -1.7680
  805MOL0     H 6233   0.747   6.379   8.426 -2.1421  0.8083 -0.4908
  805MOL0     H 6234   0.670   6.355   8.134 -1.5016 -3.6589  1.0295
  805MOL0     H 6235   0.597   6.464   8.253  0.5858  1.1479  1.6502
  805MOL0     H 6236   0.514   6.296   8.380  0.9908  2.1741 -0.0238
  805MOL0     H 6237   0.620   6.171   8.330  0.8233  1.9703 -0.9663
  805MOL0     H 6238   0.387   6.300   8.172 -0.9578 -0.2613 -0.2033
  805MOL0     H 6239   0.508   6.191   8.087  1.8002  2.4200  0.5208
  805MOL0     H 6240   0.418   6.006   8.199 -0.3625 -0.1443 -0.8928
  805MOL0     H 6241   0.268   6.104   8.157  2.1107 -0.3029 -3.2728
  805MOL0     H 6242   1.090   6.867   8.245 -2.3835  2.4698 -1.7962
  805MOL0     H 6243   1.239   7.067   8.176  3.1152  0.7103 -0.2558
  805MOL0     H 6244   1.481   7.292   7.691 -1.3468 -0.0967  0.8107
  805MOL0     H 6245   1.577   7.510   7.698 -3.1057 -0.5316 -0.4293
  805MOL0     H 6246   3.167   7.840   7.159  2.8459 -1.3447  2.8774
  805MOL0     H 6247   3.380   7.867   7.053 -1.0580  2.6451 -3.0752
  805MOL0     H 6248   3.912   8.008   7.229  4.0414 -2.4685 -0.9580
  805MOL0     H 6249   4.108   8.007   7.082  0.0967  1.5087  0.6215
  805MOL0     H 6250   4.089   8.233   6.704  0.6019  0.5760 -5.2478
  805MOL0     H 6251   4.068   8.065   6.653  0.9132 -0.4748  0.2298
  805MOL0     H 6252   4.333   8.057   6.681  1.8575  0.6209  1.3088
  805MOL0     H 6253   4.275   8.182   6.571 -1.4621  3.5222  1.0849
  805MOL0     H 6254   4.370   8.256   6.844 -3.9614  1.1305  0.8929
  805MOL0     H 6255   4.284   8.356   6.727 -0.7609 -0.7863 -2.3584
  805MOL0     H 6256   4.565   8.235   6.673  1.1760 -0.6491  0.3248
  805MOL0     H 6257   4.464   8.345   6.573 -1.4600  0.4903  0.3006
  805MOL0     H 6258   4.554   8.629   6.849 -0.4426 -1.0437  1.6366
  805MOL0     H 6259   3.860   8.117   6.745 -0.8709  1.5160  0.7951
  805MOL0     H 6260   3.681   8.152   6.890  1.6097  0.2918 -2.8199
  806MOL0     O 6261   1.551   6.496   3.532  0.0638  0.1716  0.1379
  806MOL0     C 6262   1.500   6.482   3.423  0.1211 -0.1694  0.1979
  806MOL0     O 6263   1.377   6.424   3.412 -0.3115  0.3323  0.1192
  806MOL0     C 6264   1.332   6.356   3.528  0.0454  0.3470  0.6856
  806MOL0     C 6265   1.292   6.223   3.521  0.1624  0.7434 -0.0301
  806MOL0     C 6266   1.240   6.155   3.628 -0.4690  0.6466 -0.1536
  806MOL0     C 6267   1.222   6.217   3.753  0.8447 -0.1890  0.1503
  806MOL0     O 6268   1.147   6.163   3.858 -0.9873 -0.5144  0.2897
  806MOL0     C 6269   1.142   6.017   3.894  0.1882 -0.1865 -0.2884
  806MOL0     C 6270   1.013   5.972   3.828  0.3461 -0.4620 -0.1139
  806MOL0     C 6271   0.892   6.007   3.914 -0.6551  0.7131 -0.5461
  806MOL0     C 6272   0.763   5.961   3.857 -0.5556  0.1587  0.3270
  806MOL0     C 6273   0.650   5.998   3.947  0.3769  1.3392 -0.1237
  806MOL0     C 6274   0.499   5.963   3.909  0.9297 -0.2261 -0.2670
  806MOL0     C 6275   0.399   5.937   4.027 -0.2424 -0.1856  0.4095
  806MOL0     C 6276   0.371   6.070   4.105 -0.3228  0.2185  0.1408
  806MOL0     N 6277   0.306   6.172   4.023  0.0219  0.6353  0.3820
  806MOL0     C 6278   0.174   6.175   3.983  0.5250 -0.4094  0.2924
  806MOL0     C 6279   0.168   6.296   3.914 -0.0986  0.3167  0.7256
  806MOL0     C 6280   0.055   6.354   3.866  0.2614 -0.0485  0.3321
  806MOL0     C 6281   0.064   6.382   3.716 -0.3955 -0.2361 -0.2813
  806MOL0     C 6282  -0.071   6.406   3.651 -0.2155  0.0836  0.7363
  806MOL0     C 6283  -0.040   6.400   3.497 -0.2857  0.1646  0.4283
  806MOL0     O 6284  -0.030   6.266   3.440  0.0267 -0.1080  0.2495
  806MOL0     C 6285  -0.029   6.246   3.300  0.0003  0.9083 -0.5607
  806MOL0     C 6286  -0.026   6.353   3.209  0.0632  0.2662  0.4666
  806MOL0     C 6287  -0.031   6.328   3.075 -0.7008  0.2373  0.4592
  806MOL0     C 6288  -0.038   6.200   3.010 -0.6784 -0.0845  0.6722
  806MOL0     C 6289  -0.043   6.187   2.866 -0.3657  1.4230 -0.2175
  806MOL0     O 6290  -0.054   6.300   2.785 -0.3343  0.0461 -0.4682
  806MOL0     C 6291  -0.098   6.292   2.657  0.1244 -0.5685  0.5597
  806MOL0     C 6292  -0.062   6.387   2.561  0.3273  0.2959 -0.1787
  806MOL0     C 6293  -0.116   6.381   2.428 -0.3028  0.2631  0.2212
  806MOL0     C 6294  -0.203   6.285   2.394  0.1752  0.2892  0.5441
  806MOL0     O 6295  -0.259   6.285   2.269  0.8263  0.7729  0.0531
  806MOL0     C 6296  -0.299   6.164   2.206 -0.1136 -0.5132  0.3895
  806MOL0     C 6297  -0.347   6.216   2.062 -0.6716  0.9616 -0.1109
  806MOL0     C 6298  -0.427   6.101   1.987  0.9527 -0.6945 -0.5534
  806MOL0     C 6299  -0.531   6.175   1.902  0.2959  0.0066 -0.2995
  806MOL0     C 6300  -0.595   6.076   1.803  0.7049  0.3963  0.0575
  806MOL0     C 6301  -0.732   6.128   1.744 -0.4766 -0.1880  0.3915
  806MOL0     C 6302  -0.807   6.015   1.664  0.8589  0.9955 -0.0675
  806MOL0     C 6303  -0.864   5.920   1.768 -0.3186 -0.3597  0.1730
  806MOL0    Cl 6304  -0.960   5.792   1.683  0.5519 -0.0906  0.1687
  806MOL0     C 6305  -0.263   6.203   2.497  0.3025  0.1696 -0.6758
  806MOL0     C 6306  -0.202   6.199   2.622  0.2535 -0.2222 -0.2768
  806MOL0     O 6307  -0.047   6.072   2.826 -0.5876  1.1100  0.2640
  806MOL0     C 6308  -0.029   6.094   3.106 -0.4916  0.3282 -0.3643
  806MOL0     C 6309  -0.017   6.110   3.248 -0.4894 -0.8053  0.5029
  806MOL0     N 6310   0.294   6.345   3.878  0.1138  0.0672  0.0747
  806MOL0     N 6311   0.372   6.267   3.945  0.7128  0.8128 -0.3932
  806MOL0     C 6312   1.264   6.353   3.766 -0.2308 -0.5616 -0.1460
  806MOL0     C 6313   1.312   6.422   3.653 -0.7827  1.0218  0.8799
  806MOL0     C 6314   1.570   6.540   3.303  0.7171  1.0805 -0.4759
  806MOL0     C 6315   1.499   6.585   3.192  0.5538 -0.2936 -0.7519
  806MOL0     C 6316   1.564   6.637   3.079  0.3730 -0.8252  0.4356
  806MOL0     C 6317   1.706   6.649   3.075  0.1382  0.0050 -0.1107
  806MOL0     O 6318   1.779   6.724   2.982 -0.3561  0.1890  0.4857
  806MOL0     C 6319   1.730   6.740   2.845  0.3690  0.6285 -0.0344
  806MOL0     C 6320   1.712   6.604   2.765  0.3178 -0.2851  0.4598
  806MOL0     C 6321   1.668   6.624   2.622  0.0826  0.8619  0.2124
  806MOL0     C 6322   1.623   6.497   2.542 -0.1838  0.4415 -0.3395
  806MOL0     C 6323   1.714   6.386   2.572 -0.0332  0.4167  0.1275
  806MOL0     C 6324   1.763   6.284   2.621 -0.2878 -0.0377 -0.4233
  806MOL0     C 6325   1.770   6.601   3.189  0.3138  0.1706 -0.4221
  806MOL0     C 6326   1.703   6.544   3.296 -0.3166 -0.5173 -0.4985
  806MOL0     H 6327   1.293   6.177   3.423  0.6672 -1.6828  1.0491
  806MOL0     H 6328   1.221   6.049   3.611 -0.5397  0.7379 -0.6479
  806MOL0     H 6329   1.149   6.013   4.004  3.4353  1.5608 -0.2932
  806MOL0     H 6330   1.234   5.968   3.860  1.9202  2.1740  0.6896
  806MOL0     H 6331   1.018   5.864   3.818  0.5550 -0.9007  3.3869
  806MOL0     H 6332   0.989   6.008   3.728 -2.8677 -1.5683  0.1402
  806MOL0     H 6333   0.879   6.115   3.927 -0.4908  1.0425 -2.6931
  806MOL0     H 6334   0.906   5.962   4.013 -1.1054 -1.3685 -1.3717
  806MOL0     H 6335   0.744   6.009   3.761  0.8722  1.7272  0.7872
  806MOL0     H 6336   0.758   5.853   3.839  0.5852 -1.1003  5.7871
  806MOL0     H 6337   0.652   6.106   3.962 -0.7898  1.0085  3.1952
  806MOL0     H 6338   0.678   5.955   4.043  0.9295  1.8466 -0.0517
  806MOL0     H 6339   0.494   5.869   3.853 -0.1733 -0.2743 -0.1018
  806MOL0     H 6340   0.455   6.037   3.841 -0.3822  0.5208  1.3401
  806MOL0     H 6341   0.306   5.899   3.983  0.2592  0.4243 -1.2507
  806MOL0     H 6342   0.429   5.865   4.103 -1.5688  0.9034  2.0386
  806MOL0     H 6343   0.470   6.097   4.143  0.5637 -2.4669 -0.0843
  806MOL0     H 6344   0.306   6.067   4.194 -0.4271  1.9559  0.1532
  806MOL0     H 6345   0.088   6.117   4.015  0.1208 -0.0432 -0.1176
  806MOL0     H 6346   0.043   6.441   3.931 -0.5137 -1.0713  1.6042
  806MOL0     H 6347  -0.035   6.293   3.877 -0.9794  1.2052 -2.1305
  806MOL0     H 6348   0.107   6.293   3.668 -1.1082 -0.8073  0.1207
  806MOL0     H 6349   0.126   6.472   3.711  1.3534 -1.0851  2.9793
  806MOL0     H 6350  -0.137   6.321   3.671  1.4732 -1.2096  1.0348
  806MOL0     H 6351  -0.114   6.503   3.678  2.2074  1.8406 -1.2612
  806MOL0     H 6352   0.048   6.457   3.464 -0.8186 -0.7523 -2.9519
  806MOL0     H 6353  -0.116   6.458   3.444  0.6529  1.8180  0.8355
  806MOL0     H 6354  -0.058   6.450   3.246 -1.0584 -0.1407  0.6246
  806MOL0     H 6355  -0.047   6.416   3.013  2.4062  0.5125 -0.1195
  806MOL0     H 6356   0.003   6.471   2.580 -0.1479  0.2113  2.1260
  806MOL0     H 6357  -0.075   6.445   2.351  0.5255 -0.4920  0.0199
  806MOL0     H 6358  -0.380   6.109   2.254 -1.4869  0.3691 -0.8214
  806MOL0     H 6359  -0.211   6.100   2.215  0.8426  0.9754  2.5489
  806MOL0     H 6360  -0.256   6.246   2.012  0.2271  0.3377  1.0865
  806MOL0     H 6361  -0.386   6.318   2.060  1.4945  1.8033 -1.4253
  806MOL0     H 6362  -0.479   6.037   2.059  3.1112 -0.8385  0.9495
  806MOL0     H 6363  -0.354   6.049   1.924 -1.5029 -0.9070 -3.4590
  806MOL0     H 6364  -0.604   6.226   1.967  1.7467  0.9690  0.6455
  806MOL0     H 6365  -0.488   6.254   1.839  1.8503  0.0791  0.8038
  806MOL0     H 6366  -0.607   5.986   1.863  1.0150 -0.8267 -1.6297
  806MOL0     H 6367  -0.530   6.051   1.718 -0.5570 -0.0344 -0.8085
  806MOL0     H 6368  -0.717   6.192   1.657 -5.6534 -1.2507 -1.6176
  806MOL0     H 6369  -0.796   6.180   1.816 -0.2421 -1.7130  1.7722
  806MOL0     H 6370  -0.889   6.052   1.601 -0.3116 -1.2795  0.0294
  806MOL0     H 6371  -0.740   5.967   1.592  3.5160  0.4525  2.5861
  806MOL0     H 6372  -0.928   5.975   1.838  0.9911  1.9834 -0.3758
  806MOL0     H 6373  -0.781   5.870   1.818  0.3859 -0.9606 -1.5498
  806MOL0     H 6374  -0.347   6.139   2.469 -1.6100  1.4530  1.7273
  806MOL0     H 6375  -0.229   6.133   2.703  1.3539 -1.1254 -0.6172
  806MOL0     H 6376  -0.029   5.991   3.070 -2.5494 -0.2669  1.1467
  806MOL0     H 6377  -0.014   6.028   3.318  0.0650 -0.1830  1.2100
  806MOL0     H 6378   1.253   6.409   3.858 -2.1074  0.6823 -1.0633
  806MOL0     H 6379   1.337   6.525   3.679 -0.5810  1.2202 -0.0511
  806MOL0     H 6380   1.391   6.585   3.203  0.5573 -3.6395  0.1394
  806MOL0     H 6381   1.506   6.663   2.992  1.8349 -4.0771 -1.7100
  806MOL0     H 6382   1.795   6.813   2.796 -2.0458  0.7596 -3.3041
  806MOL0     H 6383   1.635   6.793   2.848  0.9647  1.7060  0.2787
  806MOL0     H 6384   1.806   6.549   2.773 -0.9380 -2.3320  2.1359
  806MOL0     H 6385   1.634   6.552   2.822 -1.2503 -2.1382 -3.0227
  806MOL0     H 6386   1.750   6.669   2.565 -0.3584  5.1760  2.5380
  806MOL0     H 6387   1.585   6.694   2.616  0.6317  1.5298  0.2626
  806MOL0     H 6388   1.518   6.477   2.567  0.4535  0.3671  2.5645
  806MOL0     H 6389   1.624   6.526   2.436  0.4091  0.3953 -0.3470
  806MOL0     H 6390   1.791   6.187   2.658  0.5210  1.2893  2.7099
  806MOL0     H 6391   1.879   6.602   3.189  0.3413 -0.8773  0.8670
  806MOL0     H 6392   1.756   6.508   3.383 -0.8443  2.3972  1.1549
  807MOL0     O 6393  10.995   4.641  10.042 -0.1030  0.2787 -0.3986
  807MOL0     C 6394  10.919   4.691   9.954 -0.7239  0.2860 -0.4146
  807MOL0     O 6395  10.948   4.777   9.845  0.2785  0.3199 -0.5428
  807MOL0     C 6396  11.083   4.800   9.800  0.2884 -0.2206 -1.5071
  807MOL0     C 6397  11.189   4.811   9.900 -0.5907  0.5885  0.3585
  807MOL0     C 6398  11.314   4.858   9.852  0.0436  0.1084  0.4010
  807MOL0     C 6399  11.343   4.868   9.717  0.2075 -0.0580  1.4847
  807MOL0     O 6400  11.475   4.905   9.679 -0.3942  0.2445  0.3658
  807MOL0     C 6401  11.576   4.939   9.779  0.1205 -0.8849 -0.1591
  807MOL0     C 6402  11.707   4.992   9.721  0.1780 -0.6476  0.8550
  807MOL0     C 6403  11.821   4.896   9.745 -0.3641 -0.3127  0.8949
  807MOL0     C 6404  11.939   4.934   9.644 -0.5774  0.2087  0.1657
  807MOL0     C 6405  12.062   4.840   9.656  0.1802  0.3447 -0.4058
  807MOL0     C 6406  12.153   4.876   9.534  0.3190  0.4971  0.8690
  807MOL0     C 6407  12.283   4.787   9.540 -0.2479  0.6473 -0.0466
  807MOL0     C 6408  12.348   4.787   9.403 -0.4491  0.0459  0.2354
  807MOL0     N 6409  12.384   4.920   9.354  0.4890 -0.2945  0.0400
  807MOL0     C 6410  12.299   5.005   9.290  0.0906 -1.1649  0.3627
  807MOL0     C 6411  12.374   5.113   9.253 -0.8144  0.0606 -0.5591
  807MOL0     C 6412  12.321   5.205   9.147 -0.3224  0.7218 -1.1414
  807MOL0     C 6413  12.424   5.267   9.051  0.5288 -0.7288  1.0194
  807MOL0     C 6414  12.503   5.162   8.971  0.9516 -0.8681 -0.7717
  807MOL0     C 6415  12.627   5.223   8.924  0.5479 -0.2013  0.0409
  807MOL0     O 6416  12.603   5.337   8.832  0.2862  0.2686 -0.1047
  807MOL0     C 6417  12.705   5.425   8.818 -0.7501  0.0328 -0.2297
  807MOL0     C 6418  12.733   5.540   8.899 -0.0922  0.0180  0.2051
  807MOL0     C 6419  12.837   5.622   8.863 -0.1947 -0.3392  0.1572
  807MOL0     C 6420  12.926   5.605   8.761 -0.8653  0.1373 -0.6613
  807MOL0     C 6421  13.039   5.698   8.728  0.8001  0.9442 -0.0438
  807MOL0     O 6422  13.147   5.645   8.653 -0.1744  0.2991 -0.1886
  807MOL0     C 6423  13.254   5.723   8.642 -0.0826 -0.4366  0.1044
  807MOL0     C 6424  13.315   5.800   8.741 -0.3014 -0.4851 -1.0899
  807MOL0     C 6425  13.419   5.887   8.706 -0.1161 -0.3444 -0.2974
  807MOL0     C 6426  13.480   5.884   8.583 -0.1918  0.4063 -0.2094
  807MOL0     O 6427  13.586   5.976   8.580  0.6134 -0.4171 -0.2408
  807MOL0     C 6428  13.694   5.952   8.487  0.5163  0.3722  0.1135
  807MOL0     C 6429  13.770   6.078   8.451  0.0247  0.4931 -0.5404
  807MOL0     C 6430  13.901   6.035   8.376  0.6503  0.0639 -0.2112
  807MOL0     C 6431  13.982   6.166   8.357  0.1231  0.4676  0.1617
  807MOL0     C 6432  14.093   6.140   8.266 -0.9573  0.0721  0.1536
  807MOL0     C 6433  14.156   6.268   8.207  0.7903  0.6679 -0.3156
  807MOL0     C 6434  14.253   6.256   8.092 -0.1987  0.2857 -0.2756
  807MOL0     C 6435  14.187   6.190   7.970  1.0155  0.1868 -0.2837
  807MOL0    Cl 6436  14.308   6.167   7.847 -0.1543  0.5799  0.3020
  807MOL0     C 6437  13.438   5.787   8.496 -0.3489 -0.1739 -0.6153
  807MOL0     C 6438  13.327   5.705   8.517  1.0338  0.4790 -0.6324
  807MOL0     O 6439  13.029   5.816   8.772  0.5851  0.8845  0.8775
  807MOL0     C 6440  12.906   5.487   8.684  0.0580 -0.6528 -0.5703
  807MOL0     C 6441  12.794   5.403   8.705  0.2418  1.0718 -0.5783
  807MOL0     N 6442  12.500   5.089   9.306 -0.6804 -0.4306  0.2275
  807MOL0     N 6443  12.501   4.975   9.368 -0.3928  0.1496 -0.7320
  807MOL0     C 6444  11.250   4.846   9.618 -0.2754  0.4337 -0.8218
  807MOL0     C 6445  11.115   4.813   9.667  0.1875  0.0567  0.0763
  807MOL0     C 6446  10.779   4.645   9.960  1.0696  0.5573  0.2349
  807MOL0     C 6447  10.682   4.730   9.901  0.6073 -1.4823  0.4350
  807MOL0     C 6448  10.540   4.699   9.907  0.5324 -0.2399  0.3466
  807MOL0     C 6449  10.509   4.579   9.970 -0.4725  0.5881 -1.5027
  807MOL0     O 6450  10.379   4.544   9.987 -0.3035  0.6368  0.3093
  807MOL0     C 6451  10.279   4.643   9.981 -0.5640  0.0093  0.3460
  807MOL0     C 6452  10.148   4.577   9.988  1.0661  0.0280 -1.2188
  807MOL0     C 6453  10.055   4.687   9.986  0.2923 -0.2424 -0.2691
  807MOL0     C 6454   9.912   4.625   9.979 -0.0184  0.1693  0.0954
  807MOL0     C 6455   9.886   4.561  10.107  0.0374 -0.3080 -0.3443
  807MOL0     C 6456   9.874   4.500  10.204  0.4019  0.2557 -0.4395
  807MOL0     C 6457  10.607   4.490  10.028 -0.3705 -0.1749  0.7026
  807MOL0     C 6458  10.742   4.526  10.022 -0.4363 -0.1227  0.1184
  807MOL0     H 6459  11.168   4.802  10.006  1.3689 -1.4353  0.6510
  807MOL0     H 6460  11.390   4.890   9.922  1.3812  0.0757 -0.9792
  807MOL0     H 6461  11.597   4.851   9.839 -0.3132 -1.1712 -0.4170
  807MOL0     H 6462  11.539   5.023   9.839  0.2097  0.2235 -1.5931
  807MOL0     H 6463  11.743   5.083   9.771  0.6910  0.2945 -1.1365
  807MOL0     H 6464  11.697   5.004   9.613 -1.1039  1.9167  1.1909
  807MOL0     H 6465  11.793   4.792   9.727  2.2638 -0.8208 -0.7392
  807MOL0     H 6466  11.860   4.911   9.847 -0.6999  3.2414  0.6378
  807MOL0     H 6467  11.897   4.930   9.543 -1.3152 -3.1995  0.4791
  807MOL0     H 6468  11.964   5.039   9.663  0.1004  0.0369  0.2701
  807MOL0     H 6469  12.037   4.734   9.644  0.5495  0.4044 -2.0130
  807MOL0     H 6470  12.119   4.858   9.748  2.1973 -0.5436 -1.4075
  807MOL0     H 6471  12.190   4.979   9.537  2.6536 -0.2720  0.7673
  807MOL0     H 6472  12.090   4.865   9.445  0.2901  2.9636  0.5194
  807MOL0     H 6473  12.359   4.824   9.609 -0.3710  2.9020 -1.0393
  807MOL0     H 6474  12.264   4.682   9.565 -1.0447  0.6043 -0.7954
  807MOL0     H 6475  12.290   4.747   9.319 -0.7245 -0.0060  0.4496
  807MOL0     H 6476  12.444   4.735   9.405  0.9857  2.4450 -0.8704
  807MOL0     H 6477  12.199   4.974   9.260 -1.1720 -2.3299  4.9478
  807MOL0     H 6478  12.272   5.285   9.202  1.2044  2.3199 -1.9976
  807MOL0     H 6479  12.251   5.152   9.082 -2.2031  0.7180  0.7753
  807MOL0     H 6480  12.485   5.315   9.129  0.3683 -2.9347  2.5780
  807MOL0     H 6481  12.377   5.346   8.991 -1.5308 -1.8935  1.0289
  807MOL0     H 6482  12.518   5.073   9.033 -1.0753 -0.5089  0.3100
  807MOL0     H 6483  12.447   5.128   8.884  0.5587  1.0570 -1.3207
  807MOL0     H 6484  12.688   5.146   8.875  1.4972 -0.7252  1.9515
  807MOL0     H 6485  12.686   5.257   9.009 -1.1405 -0.0226  1.1765
  807MOL0     H 6486  12.668   5.577   8.978 -1.4051  1.8253 -1.6218
  807MOL0     H 6487  12.847   5.713   8.921 -2.5113 -0.1893  0.4154
  807MOL0     H 6488  13.285   5.807   8.845  1.5022  0.2407 -0.5692
  807MOL0     H 6489  13.459   5.956   8.781 -2.5012  1.6113 -0.6783
  807MOL0     H 6490  13.649   5.911   8.396  0.6666 -0.6312  0.4775
  807MOL0     H 6491  13.766   5.880   8.528  2.7135  1.7128 -1.1547
  807MOL0     H 6492  13.816   6.115   8.544 -1.0824 -2.1730  1.1929
  807MOL0     H 6493  13.712   6.159   8.406 -0.4684 -0.1113 -1.0035
  807MOL0     H 6494  13.882   5.988   8.280  0.4927  0.7726 -0.5348
  807MOL0     H 6495  13.960   5.973   8.444 -2.1855  0.1836  2.6206
  807MOL0     H 6496  13.926   6.257   8.332  1.4918  1.8506  1.8051
  807MOL0     H 6497  14.024   6.190   8.456  1.6019  0.0176 -0.3362
  807MOL0     H 6498  14.052   6.079   8.185 -3.3565  0.1334  1.2205
  807MOL0     H 6499  14.170   6.081   8.316 -1.0853 -2.1354 -2.0884
  807MOL0     H 6500  14.223   6.315   8.280  0.2543 -2.0204  2.1260
  807MOL0     H 6501  14.076   6.338   8.182 -2.6275 -2.8228  0.0046
  807MOL0     H 6502  14.290   6.356   8.067 -1.5829  1.0349  0.5817
  807MOL0     H 6503  14.330   6.197   8.143 -2.4850 -1.6739  1.1048
  807MOL0     H 6504  14.113   6.263   7.937  1.3387 -0.8029 -3.5721
  807MOL0     H 6505  14.143   6.092   7.990 -3.1505  1.9547  0.3137
  807MOL0     H 6506  13.477   5.782   8.394 -1.6463  3.6401 -1.4396
  807MOL0     H 6507  13.298   5.627   8.448  1.9176 -1.6836  1.2716
  807MOL0     H 6508  12.968   5.459   8.599  0.8153  2.5490 -1.2111
  807MOL0     H 6509  12.754   5.325   8.641 -1.7609  2.5137 -1.1593
  807MOL0     H 6510  11.280   4.857   9.514  2.1827 -4.0362 -0.8336
  807MOL0     H 6511  11.043   4.783   9.591 -0.8665  1.5724  0.4195
  807MOL0     H 6512  10.722   4.820   9.856  0.1743 -2.4039 -1.9255
  807MOL0     H 6513  10.475   4.773   9.863  0.2481  0.5652  2.0220
  807MOL0     H 6514  10.286   4.700   9.888  1.2518 -1.8899 -0.7726
  807MOL0     H 6515  10.292   4.718  10.060 -0.3681  1.8162 -1.3315
  807MOL0     H 6516  10.120   4.505   9.910 -0.7011 -0.0740 -0.5188
  807MOL0     H 6517  10.138   4.526  10.084 -0.2108 -0.3733 -1.5534
  807MOL0     H 6518  10.073   4.760   9.907  3.7192  2.0525  2.3216
  807MOL0     H 6519  10.061   4.753  10.072 -1.8958  0.4922 -0.6129
  807MOL0     H 6520   9.832   4.699   9.966  0.7334  1.3474  1.8044
  807MOL0     H 6521   9.893   4.554   9.898  0.5175 -0.9807  0.9538
  807MOL0     H 6522   9.869   4.448  10.297 -4.6518  0.4546 -0.3130
  807MOL0     H 6523  10.573   4.396  10.072 -2.9439 -0.2771 -1.2596
  807MOL0     H 6524  10.810   4.454  10.067  0.7458  1.7433  1.4584
  808MOL0     O 6525  10.739   6.438   9.586 -0.1146 -0.9029 -0.5559
  808MOL0     C 6526  10.746   6.435   9.713 -0.5902  0.6354 -0.2931
  808MOL0     O 6527  10.641   6.475   9.801 -0.5155 -0.7968  0.3460
  808MOL0     C 6528  10.505   6.456   9.756 -0.3970  0.3154  0.4983
  808MOL0     C 6529  10.450   6.387   9.641 -0.5122 -0.3112 -0.0904
  808MOL0     C 6530  10.315   6.387   9.622  0.8644 -1.3311  1.4217
  808MOL0     C 6531  10.230   6.446   9.712 -0.4765  0.2330  1.0724
  808MOL0     O 6532  10.101   6.446   9.682  0.1709  0.0730  0.3461
  808MOL0     C 6533  10.006   6.495   9.781  0.9901  0.8092  0.1817
  808MOL0     C 6534   9.857   6.469   9.742  0.3667  0.6461  0.6540
  808MOL0     C 6535   9.839   6.321   9.731 -0.4235  0.1775 -0.3237
  808MOL0     C 6536   9.707   6.278   9.668  1.1129  0.3721 -0.3027
  808MOL0     C 6537   9.576   6.349   9.716  0.2130 -0.1276  0.0758
  808MOL0     C 6538   9.463   6.282   9.649  0.4340  1.0413  0.2944
  808MOL0     C 6539   9.342   6.377   9.644  0.2171  0.0426 -0.3801
  808MOL0     C 6540   9.214   6.304   9.592 -0.4103  0.1727  0.1635
  808MOL0     N 6541   9.163   6.193   9.678 -0.0873 -0.0115 -0.7676
  808MOL0     C 6542   9.196   6.169   9.808 -0.9936 -0.5035 -0.2951
  808MOL0     C 6543   9.137   6.054   9.850  0.0964 -0.1648 -0.6487
  808MOL0     C 6544   9.126   5.995   9.990  0.4447  0.0026 -0.5809
  808MOL0     C 6545   9.078   6.100  10.089  0.0946  0.2612  1.1067
  808MOL0     C 6546   9.003   6.035  10.205 -0.4696 -0.2677 -0.1106
  808MOL0     C 6547   9.094   5.927  10.273  0.3926 -0.2506 -0.1867
  808MOL0     O 6548   9.199   5.990  10.346  0.5924 -0.8658  0.5017
  808MOL0     C 6549   9.315   6.022  10.278 -1.0028 -0.4670  0.3372
  808MOL0     C 6550   9.389   5.927  10.203 -0.1294 -0.5297 -0.6771
  808MOL0     C 6551   9.512   5.958  10.157  0.7554 -0.4714 -0.1237
  808MOL0     C 6552   9.563   6.088  10.174 -0.0683  1.0982  0.8607
  808MOL0     C 6553   9.702   6.127  10.129  0.1754  0.7177  0.7851
  808MOL0     O 6554   9.755   6.043  10.034 -0.0404  0.5123  0.2760
  808MOL0     C 6555   9.885   6.047  10.008 -0.4750 -0.6295  0.3566
  808MOL0     C 6556   9.999   6.091  10.082  0.9729 -0.2250 -0.2122
  808MOL0     C 6557  10.124   6.086  10.031  0.2615 -0.7585  0.3264
  808MOL0     C 6558  10.141   6.028   9.899  0.5527  0.3597  0.0558
  808MOL0     O 6559  10.267   6.022   9.829  0.2280  1.3274  0.4193
  808MOL0     C 6560  10.378   6.005   9.914 -1.1764 -0.2548 -0.2612
  808MOL0     C 6561  10.501   5.974   9.819 -0.0779 -1.1015  0.9040
  808MOL0     C 6562  10.623   5.978   9.915 -0.4575  0.0288  0.3557
  808MOL0     C 6563  10.757   5.930   9.849 -0.6993  0.1621 -0.9209
  808MOL0     C 6564  10.779   5.981   9.704 -0.1120  0.0936 -1.1889
  808MOL0     C 6565  10.912   5.950   9.641 -0.3809  0.6646 -0.1372
  808MOL0     C 6566  10.952   5.807   9.604  0.3073  0.0890  0.5143
  808MOL0     C 6567  11.051   5.808   9.485  0.4364 -0.0376  0.2834
  808MOL0    Cl 6568  11.200   5.877   9.548 -0.1020  0.4157 -0.3311
  808MOL0     C 6569  10.034   5.984   9.829  0.1571  1.0137  0.3683
  808MOL0     C 6570   9.906   5.983   9.884 -0.5437 -0.2115 -0.1506
  808MOL0     O 6571   9.749   6.229  10.169  1.3324 -0.0410  0.0453
  808MOL0     C 6572   9.491   6.191  10.242 -0.3285 -0.7950 -0.8606
  808MOL0     C 6573   9.368   6.151  10.293  0.4336 -0.9037  0.2532
  808MOL0     N 6574   9.061   6.013   9.741  0.1004 -0.1241  0.2231
  808MOL0     N 6575   9.078   6.095   9.637 -0.0566 -0.2273 -0.3243
  808MOL0     C 6576  10.281   6.496   9.836 -0.3818  0.5913  0.6365
  808MOL0     C 6577  10.417   6.511   9.851 -0.3419  0.9849 -0.0267
  808MOL0     C 6578  10.891   6.408   9.760  0.2045 -0.3992 -0.0452
  808MOL0     C 6579  10.998   6.383   9.662  0.3215  0.1190  0.4827
  808MOL0     C 6580  11.131   6.388   9.689 -0.1826  0.4103 -0.5944
  808MOL0     C 6581  11.168   6.384   9.822  0.4042  1.2006  0.3389
  808MOL0     O 6582  11.294   6.364   9.863  0.0133 -0.0204 -0.1690
  808MOL0     C 6583  11.382   6.281   9.783 -0.4666  1.2852 -0.6968
  808MOL0     C 6584  11.336   6.135   9.765 -0.1220 -0.6442  0.2643
  808MOL0     C 6585  11.350   6.063   9.901  0.4322  0.7829 -0.9962
  808MOL0     C 6586  11.293   5.915   9.895  0.1563  0.3338  0.5117
  808MOL0     C 6587  11.288   5.852  10.031 -0.1129 -0.9941 -0.1336
  808MOL0     C 6588  11.279   5.821  10.150  0.2481  0.1749  0.1524
  808MOL0     C 6589  11.067   6.401   9.920 -0.9053 -0.2477  0.7497
  808MOL0     C 6590  10.937   6.423   9.891  0.1461  0.1909  0.0653
  808MOL0     H 6591  10.513   6.348   9.562 -1.7456  2.9011 -2.9463
  808MOL0     H 6592  10.272   6.342   9.533  2.7048  1.1348 -0.8887
  808MOL0     H 6593  10.027   6.602   9.795  1.3035  1.0222 -1.7315
  808MOL0     H 6594  10.026   6.440   9.874 -0.1906 -1.9051 -1.0502
  808MOL0     H 6595   9.835   6.519   9.647 -0.7502  2.2236  1.6885
  808MOL0     H 6596   9.774   6.501   9.806 -1.1622 -1.2364 -0.2918
  808MOL0     H 6597   9.847   6.278   9.832 -0.9719 -3.1053 -1.5354
  808MOL0     H 6598   9.928   6.269   9.693 -0.7416 -1.6578  1.2907
  808MOL0     H 6599   9.722   6.302   9.562  1.1747 -2.7926 -1.1138
  808MOL0     H 6600   9.701   6.169   9.673  0.7334  0.4511  2.2337
  808MOL0     H 6601   9.599   6.447   9.674  3.0120 -0.7186  0.0245
  808MOL0     H 6602   9.571   6.361   9.825  1.5924  0.3618  0.1031
  808MOL0     H 6603   9.443   6.185   9.696  1.6866  1.5443  1.9361
  808MOL0     H 6604   9.483   6.259   9.544  2.2373 -0.6306  0.9330
  808MOL0     H 6605   9.324   6.411   9.747 -2.3229 -0.1525 -0.6838
  808MOL0     H 6606   9.361   6.457   9.573 -0.9657  0.7126  0.0374
  808MOL0     H 6607   9.240   6.250   9.501 -0.5793  0.1409  0.1353
  808MOL0     H 6608   9.130   6.374   9.580  1.8931  3.1269 -0.0910
  808MOL0     H 6609   9.247   6.243   9.869 -1.2866 -1.4037  1.0924
  808MOL0     H 6610   9.212   5.937  10.027 -2.0493 -1.6751  3.2729
  808MOL0     H 6611   9.060   5.909   9.977  1.3199 -1.2254  2.2941
  808MOL0     H 6612   9.005   6.162  10.035 -0.4229 -1.2481  0.0326
  808MOL0     H 6613   9.162   6.158  10.128  1.1519  0.8252 -1.7770
  808MOL0     H 6614   8.985   6.121  10.269  0.1707  1.0032 -1.5855
  808MOL0     H 6615   8.907   5.986  10.184 -0.8851  0.3610  0.3081
  808MOL0     H 6616   9.119   5.849  10.201  0.1932 -1.7447  1.2903
  808MOL0     H 6617   9.035   5.873  10.347  0.4415 -3.5762 -2.3982
  808MOL0     H 6618   9.351   5.826  10.194 -1.5326  0.0384 -1.4381
  808MOL0     H 6619   9.575   5.880  10.113 -0.1562 -0.6620 -1.1254
  808MOL0     H 6620   9.986   6.130  10.182 -3.4877  1.9543 -1.4103
  808MOL0     H 6621  10.203   6.108  10.103  0.6544 -2.7187  0.5644
  808MOL0     H 6622  10.371   5.919   9.982  0.4416  0.6133  1.0895
  808MOL0     H 6623  10.401   6.095   9.972  1.3477  0.7925 -2.6405
  808MOL0     H 6624  10.508   6.056   9.746 -1.5436 -0.0808  1.8491
  808MOL0     H 6625  10.490   5.877   9.769  0.6219 -0.1671 -1.2048
  808MOL0     H 6626  10.606   5.901   9.991 -0.9835 -0.5251 -0.3162
  808MOL0     H 6627  10.632   6.073   9.968  0.3729 -0.2079  0.6654
  808MOL0     H 6628  10.844   5.953   9.911  1.0598  1.0021 -3.4804
  808MOL0     H 6629  10.747   5.823   9.832  0.2642  0.5624 -5.1864
  808MOL0     H 6630  10.771   6.089   9.716  0.0389 -0.2013  2.8216
  808MOL0     H 6631  10.708   5.942   9.631 -1.1286 -1.1411  0.3868
  808MOL0     H 6632  10.990   5.992   9.705 -0.3435 -1.2880  1.2088
  808MOL0     H 6633  10.911   6.005   9.547  0.3533  0.5465 -0.2149
  808MOL0     H 6634  11.003   5.755   9.686 -0.6870 -2.5179 -0.4030
  808MOL0     H 6635  10.863   5.747   9.586  0.9100 -0.3550 -1.1251
  808MOL0     H 6636  11.006   5.874   9.409  1.8371  0.0846 -0.4684
  808MOL0     H 6637  11.054   5.706   9.445 -1.0241  0.8063 -2.2242
  808MOL0     H 6638  10.064   5.932   9.739  0.8289  1.6335  0.2279
  808MOL0     H 6639   9.818   5.950   9.830 -1.9201  1.6001  0.8388
  808MOL0     H 6640   9.516   6.296  10.238  0.4292 -0.9747 -0.9641
  808MOL0     H 6641   9.313   6.225  10.350  1.4960  0.9691 -1.0052
  808MOL0     H 6642  10.224   6.552   9.909 -1.6962  2.5009 -1.7088
  808MOL0     H 6643  10.454   6.557   9.942  0.9141  1.9488 -0.9766
  808MOL0     H 6644  10.975   6.371   9.557  1.6849  1.1378  0.0467
  808MOL0     H 6645  11.207   6.391   9.611  1.3071 -1.0581  0.7059
  808MOL0     H 6646  11.478   6.272   9.835 -0.4294 -0.8877 -1.0419
  808MOL0     H 6647  11.408   6.323   9.686  1.8794  1.8995  0.1287
  808MOL0     H 6648  11.231   6.138   9.733  0.4154 -1.2298 -1.6784
  808MOL0     H 6649  11.395   6.088   9.686 -2.2225 -0.2660 -1.6326
  808MOL0     H 6650  11.290   6.113   9.977  2.3258 -1.0682  1.9029
  808MOL0     H 6651  11.452   6.058   9.939 -0.9200  0.0567  2.9668
  808MOL0     H 6652  11.193   5.923   9.851  1.1000 -0.0665 -1.9022
  808MOL0     H 6653  11.348   5.849   9.826 -1.7840 -0.7844 -0.0637
  808MOL0     H 6654  11.264   5.789  10.251 -4.1413  1.5993  0.1667
  808MOL0     H 6655  11.112   6.406  10.019  1.0873 -2.3867  0.0278
  808MOL0     H 6656  10.867   6.444   9.972 -1.1308  0.8761 -1.1817
  809MOL0     O 6657   8.172   4.489  11.134  0.1175 -0.0122  0.1633
  809MOL0     C 6658   8.205   4.411  11.047 -0.5121  0.5017  0.0201
  809MOL0     O 6659   8.117   4.346  10.966  0.5548 -1.0678 -1.0820
  809MOL0     C 6660   7.992   4.410  10.967  0.5983 -0.2836  0.6423
  809MOL0     C 6661   7.883   4.347  11.022 -0.5618  0.0572 -0.6701
  809MOL0     C 6662   7.760   4.420  11.028  0.0011 -0.6737  0.4615
  809MOL0     C 6663   7.749   4.548  10.965  0.2182  0.6805  0.0678
  809MOL0     O 6664   7.638   4.622  10.979 -0.4257 -0.4113  0.2183
  809MOL0     C 6665   7.516   4.575  10.936  0.1375 -0.7578 -0.5547
  809MOL0     C 6666   7.433   4.696  10.884  0.2193  0.2524  0.7706
  809MOL0     C 6667   7.412   4.809  10.989 -0.0312  0.4490 -1.6151
  809MOL0     C 6668   7.288   4.883  10.948 -0.1728 -1.0884 -0.1812
  809MOL0     C 6669   7.268   5.020  11.021 -0.4633  0.0276 -0.3106
  809MOL0     C 6670   7.285   5.023  11.174  0.0703 -0.1222  0.3512
  809MOL0     C 6671   7.167   4.968  11.255  0.2303  0.5965  0.6394
  809MOL0     C 6672   7.056   5.063  11.282  0.6593  0.1096 -0.6796
  809MOL0     N 6673   7.082   5.172  11.390  0.1667  0.4368 -0.5464
  809MOL0     C 6674   7.065   5.171  11.528 -0.0982  0.9729 -0.7427
  809MOL0     C 6675   7.128   5.276  11.579  1.1607  0.0495  0.1473
  809MOL0     C 6676   7.140   5.300  11.723  0.1883  0.8897  0.7653
  809MOL0     C 6677   7.045   5.408  11.753 -0.5335 -0.4049  0.6291
  809MOL0     C 6678   7.073   5.442  11.899 -0.1361 -0.5888  0.3125
  809MOL0     C 6679   6.995   5.579  11.921  0.6617  0.7722  0.3742
  809MOL0     O 6680   6.853   5.570  11.901  0.3504 -1.1639 -0.7333
  809MOL0     C 6681   6.776   5.511  12.002  0.2860  0.2634 -0.3473
  809MOL0     C 6682   6.637   5.495  11.977 -0.4312 -0.8277  0.2243
  809MOL0     C 6683   6.558   5.449  12.071  0.7976  0.5497  0.3749
  809MOL0     C 6684   6.609   5.411  12.196  0.1096  0.4461 -1.0716
  809MOL0     C 6685   6.518   5.375  12.303 -0.1418  0.1520 -0.7093
  809MOL0     O 6686   6.558   5.414  12.435  0.2766 -0.2539  1.3151
  809MOL0     C 6687   6.477   5.375  12.538 -0.3828  0.2563 -0.5161
  809MOL0     C 6688   6.384   5.455  12.594 -1.0237 -0.3386 -0.2562
  809MOL0     C 6689   6.294   5.405  12.689  0.5183 -0.6755  0.5274
  809MOL0     C 6690   6.284   5.270  12.724 -0.1701  0.1852 -0.7427
  809MOL0     O 6691   6.195   5.225  12.822 -0.1283 -0.5621  0.3907
  809MOL0     C 6692   6.101   5.327  12.872 -0.2686  1.0998  0.1503
  809MOL0     C 6693   6.010   5.257  12.970 -0.0137  0.2110 -0.1282
  809MOL0     C 6694   5.893   5.353  12.985  0.2625 -0.1300  0.0203
  809MOL0     C 6695   5.790   5.286  13.082  0.2403 -0.7860 -0.0746
  809MOL0     C 6696   5.653   5.346  13.068  0.3180 -0.7202 -0.0354
  809MOL0     C 6697   5.542   5.284  13.160 -0.4720  1.6733 -0.2380
  809MOL0     C 6698   5.550   5.333  13.302  0.6714  0.3848 -0.6244
  809MOL0     C 6699   5.452   5.256  13.394  0.0741  0.4796  0.0443
  809MOL0    Cl 6700   5.284   5.237  13.324  0.1775  0.3051  0.1484
  809MOL0     C 6701   6.367   5.186  12.663  0.0533  0.0555  0.1018
  809MOL0     C 6702   6.482   5.241  12.574  0.6813  0.2235 -0.1777
  809MOL0     O 6703   6.415   5.312  12.278 -0.0505 -0.4818  0.1975
  809MOL0     C 6704   6.748   5.430  12.218 -0.6467 -0.7215 -0.0281
  809MOL0     C 6705   6.835   5.470  12.123 -0.2203  0.2938  1.6309
  809MOL0     N 6706   7.159   5.358  11.472 -0.1654 -0.1214 -0.1154
  809MOL0     N 6707   7.137   5.291  11.360 -0.4619  0.0754 -1.3981
  809MOL0     C 6708   7.859   4.603  10.905 -0.4308  0.1064 -0.5097
  809MOL0     C 6709   7.982   4.531  10.896  0.3087  0.2307  0.8303
  809MOL0     C 6710   8.348   4.359  11.057 -0.2786  0.5376 -0.2332
  809MOL0     C 6711   8.393   4.241  10.991 -0.0244 -0.7360 -0.2064
  809MOL0     C 6712   8.527   4.196  11.002 -0.2535  0.0482 -0.2218
  809MOL0     C 6713   8.613   4.266  11.087 -0.5829  0.2990 -0.2691
  809MOL0     O 6714   8.743   4.213  11.115  0.4003 -0.0811  0.2575
  809MOL0     C 6715   8.814   4.180  11.002  0.4973  0.7628  0.9597
  809MOL0     C 6716   8.952   4.116  11.032 -0.1873  0.6664  0.3723
  809MOL0     C 6717   9.056   4.219  11.073  0.2854  0.7906 -0.9305
  809MOL0     C 6718   9.125   4.276  10.944  0.3375 -0.0821 -0.1849
  809MOL0     C 6719   9.257   4.327  10.971  0.4774 -0.4174 -0.2991
  809MOL0     C 6720   9.373   4.370  11.007 -0.2397  0.3445  0.0244
  809MOL0     C 6721   8.578   4.376  11.153  0.0878 -0.4175 -0.8387
  809MOL0     C 6722   8.448   4.423  11.132 -0.4767 -0.7487  0.0396
  809MOL0     H 6723   7.905   4.260  11.082  2.4344  3.2837  3.5577
  809MOL0     H 6724   7.675   4.381  11.082 -0.9201  1.6345  0.8081
  809MOL0     H 6725   7.454   4.550  11.023  0.6462  1.9180  0.6733
  809MOL0     H 6726   7.521   4.501  10.855  0.5801 -1.6836  0.2930
  809MOL0     H 6727   7.334   4.651  10.872 -0.3638  1.1602  1.9698
  809MOL0     H 6728   7.465   4.742  10.790 -0.9882  1.9558  1.1484
  809MOL0     H 6729   7.499   4.875  10.982  1.5035 -1.4756 -1.4779
  809MOL0     H 6730   7.390   4.771  11.089 -0.4678  4.3190 -0.0712
  809MOL0     H 6731   7.300   4.895  10.840 -0.7787 -0.2116 -0.1588
  809MOL0     H 6732   7.199   4.818  10.951  0.5225 -2.1627 -1.5848
  809MOL0     H 6733   7.175   5.070  10.992 -2.5454 -0.9675  3.7600
  809MOL0     H 6734   7.354   5.081  10.991  1.4248 -1.1665  2.2446
  809MOL0     H 6735   7.318   5.120  11.210 -2.8873  0.1194  2.8779
  809MOL0     H 6736   7.372   4.966  11.207 -1.6055 -1.9423  1.9402
  809MOL0     H 6737   7.131   4.883  11.196 -1.9323  1.6493  0.3731
  809MOL0     H 6738   7.204   4.929  11.351  2.7521  0.3647 -0.3662
  809MOL0     H 6739   6.957   5.023  11.304 -0.8191  1.2973 -4.2513
  809MOL0     H 6740   7.037   5.115  11.187 -3.9099 -0.1422 -0.1015
  809MOL0     H 6741   7.015   5.096  11.589  0.0388  2.8271  1.8183
  809MOL0     H 6742   7.241   5.331  11.751  0.7242 -1.5173  1.7342
  809MOL0     H 6743   7.126   5.202  11.769  2.8707 -0.6825 -1.4507
  809MOL0     H 6744   6.942   5.377  11.729 -0.6204  0.6291 -0.4237
  809MOL0     H 6745   7.059   5.497  11.691 -1.5174 -0.6006  0.1011
  809MOL0     H 6746   7.050   5.354  11.960 -1.1385 -2.5054 -2.6201
  809MOL0     H 6747   7.178   5.471  11.905 -0.9823  2.9726  0.0872
  809MOL0     H 6748   7.017   5.662  11.852  2.3700 -0.2097 -0.3285
  809MOL0     H 6749   7.026   5.619  12.018  3.7860 -0.7413  0.1166
  809MOL0     H 6750   6.591   5.518  11.881 -0.3306 -1.1001  0.1135
  809MOL0     H 6751   6.452   5.436  12.053  0.7631 -0.6511  1.3228
  809MOL0     H 6752   6.389   5.559  12.566  0.2577 -0.0954  0.7963
  809MOL0     H 6753   6.241   5.487  12.735 -2.7532 -1.8948 -0.8200
  809MOL0     H 6754   6.042   5.353  12.783 -1.0085  0.5349  0.4584
  809MOL0     H 6755   6.155   5.412  12.914  0.2772  0.6757  0.3152
  809MOL0     H 6756   6.057   5.236  13.067 -0.0905 -1.5962 -0.4407
  809MOL0     H 6757   5.977   5.158  12.936 -0.4357  1.0753 -2.3878
  809MOL0     H 6758   5.843   5.358  12.888  0.0022 -0.4229  0.1355
  809MOL0     H 6759   5.912   5.457  13.011  0.8332  1.1147 -4.5082
  809MOL0     H 6760   5.777   5.178  13.065 -1.3722 -0.6565  0.1510
  809MOL0     H 6761   5.834   5.299  13.182  0.7558 -1.5395 -0.1975
  809MOL0     H 6762   5.616   5.320  12.969 -0.6886 -0.3774  0.2415
  809MOL0     H 6763   5.650   5.455  13.075 -1.5300 -0.7866  0.8299
  809MOL0     H 6764   5.540   5.175  13.168 -3.4228  1.7826  2.9840
  809MOL0     H 6765   5.442   5.315  13.127 -0.8037  2.0401  1.0494
  809MOL0     H 6766   5.654   5.312  13.330  0.5129  0.2399 -0.1517
  809MOL0     H 6767   5.538   5.441  13.309  2.7169  0.5328  2.5920
  809MOL0     H 6768   5.444   5.303  13.493  0.6585 -2.1310  1.4235
  809MOL0     H 6769   5.493   5.155  13.403 -1.0254  0.0122 -0.0299
  809MOL0     H 6770   6.364   5.083  12.696  1.5195 -0.5381 -1.4676
  809MOL0     H 6771   6.566   5.177  12.548  0.3314  0.8268 -3.1151
  809MOL0     H 6772   6.802   5.387  12.303  2.5082 -1.4410 -2.2352
  809MOL0     H 6773   6.939   5.484  12.149 -0.7870  0.4958  3.9975
  809MOL0     H 6774   7.864   4.708  10.878  2.0328  0.6216  1.6121
  809MOL0     H 6775   8.067   4.570  10.842  0.2937 -0.2279  0.4643
  809MOL0     H 6776   8.324   4.191  10.923  1.6302 -1.9085 -1.1024
  809MOL0     H 6777   8.565   4.111  10.945  3.9758  2.0363 -0.7900
  809MOL0     H 6778   8.832   4.269  10.941 -0.5056  1.1698  1.2334
  809MOL0     H 6779   8.751   4.123  10.933 -0.0056  2.2001  0.1907
  809MOL0     H 6780   8.934   4.055  11.121  0.9362 -0.2688 -0.0062
  809MOL0     H 6781   8.988   4.049  10.952 -0.4481  0.9735 -0.0043
  809MOL0     H 6782   9.126   4.167  11.139 -1.8949 -0.2525  0.7288
  809MOL0     H 6783   9.017   4.296  11.141 -1.2766  0.2940 -1.2170
  809MOL0     H 6784   9.140   4.206  10.862 -3.1354 -2.8629  1.2464
  809MOL0     H 6785   9.079   4.362  10.895  1.0792  0.2363 -0.3335
  809MOL0     H 6786   9.476   4.392  11.029 -0.3421  2.9064 -1.5750
  809MOL0     H 6787   8.648   4.427  11.218 -1.0664 -0.8126  0.7653
  809MOL0     H 6788   8.423   4.508  11.195 -0.1745 -0.7301  0.1385
  810MOL0     O 6789   8.922  10.986   8.260  0.6527  0.3568  0.7176
  810MOL0     C 6790   8.884  10.937   8.156  1.0878 -0.1130  1.3757
  810MOL0     O 6791   8.756  10.880   8.122  0.8034  0.1482  0.2718
  810MOL0     C 6792   8.646  10.882   8.203 -0.4678  0.9090 -0.0420
  810MOL0     C 6793   8.624  10.957   8.331  0.3415  0.8753  0.1499
  810MOL0     C 6794   8.503  10.975   8.398  0.6834  0.1388 -0.1682
  810MOL0     C 6795   8.393  10.910   8.352 -0.6546 -0.7832 -0.4857
  810MOL0     O 6796   8.279  10.935   8.429 -0.2376  0.1086  0.1764
  810MOL0     C 6797   8.164  10.849   8.403  0.4587  0.1019  0.1858
  810MOL0     C 6798   8.078  10.849   8.529 -0.5581 -0.2155  0.5648
  810MOL0     C 6799   7.928  10.826   8.516  0.0527  0.3405  1.2276
  810MOL0     C 6800   7.868  10.867   8.658  0.0282 -0.5757  0.5700
  810MOL0     C 6801   7.711  10.865   8.665  0.7610  0.2815 -0.3190
  810MOL0     C 6802   7.654  10.917   8.795 -0.3195 -0.2763 -0.1403
  810MOL0     C 6803   7.506  10.898   8.824 -0.4734  0.2101  0.1991
  810MOL0     C 6804   7.413  10.983   8.735 -0.2247 -0.0231  1.2156
  810MOL0     N 6805   7.272  10.974   8.760 -0.1677  0.5834 -0.4409
  810MOL0     C 6806   7.172  11.020   8.681 -0.3184  0.9932 -0.5469
  810MOL0     C 6807   7.061  10.966   8.733 -0.0667 -0.1304  0.7381
  810MOL0     C 6808   6.923  11.010   8.696  0.6205 -0.7682  0.3799
  810MOL0     C 6809   6.852  11.120   8.777  0.4764  0.6499 -0.4761
  810MOL0     C 6810   6.707  11.079   8.822  0.6678 -0.4533  0.1385
  810MOL0     C 6811   6.607  11.192   8.854  0.2720  0.0432  0.7952
  810MOL0     O 6812   6.467  11.147   8.858 -0.1726 -0.7283 -0.8622
  810MOL0     C 6813   6.374  11.228   8.806  0.0049  0.7051 -0.0231
  810MOL0     C 6814   6.351  11.222   8.674  0.6155  0.7908  1.1175
  810MOL0     C 6815   6.245  11.293   8.612  0.2994  0.2750  0.8963
  810MOL0     C 6816   6.162  11.378   8.688 -0.0490 -0.3789 -0.5463
  810MOL0     C 6817   6.063  11.464   8.631 -0.1948  0.2993  0.2647
  810MOL0     O 6818   6.004  11.563   8.713 -0.4177  0.0849 -0.4775
  810MOL0     C 6819   5.887  11.616   8.679  0.4323  0.4740  0.5840
  810MOL0     C 6820   5.811  11.663   8.788  0.3287 -0.7199 -0.7023
  810MOL0     C 6821   5.684  11.726   8.770 -0.3352  0.7652  0.2786
  810MOL0     C 6822   5.621  11.736   8.644  1.0189 -1.2585 -0.7331
  810MOL0     O 6823   5.518  11.814   8.626  0.9688  0.2299 -0.3596
  810MOL0     C 6824   5.428  11.836   8.735 -0.0705 -0.4957  0.5591
  810MOL0     C 6825   5.317  11.926   8.691 -1.0992 -0.3076  0.0954
  810MOL0     C 6826   5.212  11.942   8.803  0.0697  0.0697  0.0198
  810MOL0     C 6827   5.100  12.024   8.739 -0.3449 -0.4355 -0.9090
  810MOL0     C 6828   5.004  12.099   8.832 -0.6293 -0.2212  0.3439
  810MOL0     C 6829   4.903  12.195   8.767  0.0851  0.2736 -0.4789
  810MOL0     C 6830   4.793  12.127   8.696 -0.1661 -0.1340  0.1950
  810MOL0     C 6831   4.698  12.234   8.638  0.9804 -0.3419  0.1487
  810MOL0    Cl 6832   4.619  12.330   8.758  0.3018  0.0936 -0.3190
  810MOL0     C 6833   5.701  11.693   8.542 -0.4797 -0.1793  0.4631
  810MOL0     C 6834   5.825  11.636   8.549  1.1875  1.0371 -0.1475
  810MOL0     O 6835   6.048  11.454   8.513  0.1165 -0.1556  0.4032
  810MOL0     C 6836   6.200  11.387   8.824  0.2462 -0.4226  0.1610
  810MOL0     C 6837   6.303  11.313   8.883  0.0708 -0.1863  0.1959
  810MOL0     N 6838   7.086  10.882   8.830  0.0930 -0.3107  0.3935
  810MOL0     N 6839   7.213  10.888   8.850 -0.0274  0.5083  0.4054
  810MOL0     C 6840   8.403  10.842   8.229 -0.2057 -0.1594 -0.7843
  810MOL0     C 6841   8.523  10.828   8.166  0.5542 -0.5296 -0.2869
  810MOL0     C 6842   8.987  10.940   8.040 -0.1544 -0.6473  0.0170
  810MOL0     C 6843   9.122  10.989   8.056  0.6691  0.6017 -1.4408
  810MOL0     C 6844   9.206  10.983   7.946  0.7843 -1.0543  0.0853
  810MOL0     C 6845   9.165  10.936   7.817  0.3348 -0.2327 -0.3621
  810MOL0     O 6846   9.267  10.934   7.726  0.6408 -0.7020  0.6865
  810MOL0     C 6847   9.230  10.895   7.589  0.4320 -0.8863  0.0657
  810MOL0     C 6848   9.362  10.903   7.504  0.0222 -0.9838 -1.0727
  810MOL0     C 6849   9.353  10.856   7.353  0.5933 -0.6098 -0.1419
  810MOL0     C 6850   9.263  10.954   7.274 -0.0772 -0.8651 -0.9650
  810MOL0     C 6851   9.251  10.924   7.133 -0.0240 -0.0663 -0.8586
  810MOL0     C 6852   9.242  10.887   7.018 -0.1048 -0.4322  0.2520
  810MOL0     C 6853   9.030  10.900   7.796 -0.1041 -0.5252 -0.9256
  810MOL0     C 6854   8.946  10.906   7.905  0.2790 -0.2220  0.1232
  810MOL0     H 6855   8.695  11.019   8.384 -0.5896  0.2044  2.2900
  810MOL0     H 6856   8.492  11.037   8.486  1.8040 -0.6558  0.5648
  810MOL0     H 6857   8.200  10.749   8.380 -1.2746 -1.6115  4.0299
  810MOL0     H 6858   8.103  10.882   8.318  1.0013 -3.4373 -1.7410
  810MOL0     H 6859   8.097  10.940   8.587 -1.9629  0.9911 -0.8017
  810MOL0     H 6860   8.115  10.775   8.600  1.1796  0.6903  0.6627
  810MOL0     H 6861   7.912  10.721   8.490 -1.4044  0.4782  1.4797
  810MOL0     H 6862   7.882  10.889   8.441  2.3796 -0.7844 -1.3294
  810MOL0     H 6863   7.922  10.806   8.731 -0.4190  0.4199  1.7474
  810MOL0     H 6864   7.898  10.972   8.658  1.2653 -0.7521 -3.3474
  810MOL0     H 6865   7.678  10.761   8.655  0.6077  0.2429  0.5438
  810MOL0     H 6866   7.670  10.917   8.578  1.2165 -2.0196 -2.0355
  810MOL0     H 6867   7.674  11.025   8.789 -0.1320 -0.3095 -0.1330
  810MOL0     H 6868   7.710  10.883   8.883  1.3098  0.4389 -0.8633
  810MOL0     H 6869   7.476  10.793   8.820  0.4273 -0.1340  1.5767
  810MOL0     H 6870   7.485  10.932   8.926 -1.2740 -1.3865  0.5878
  810MOL0     H 6871   7.431  10.965   8.629 -2.0217 -1.0816  1.0628
  810MOL0     H 6872   7.421  11.091   8.754 -2.5200  0.3586  0.2894
  810MOL0     H 6873   7.158  11.103   8.612 -3.4137  1.0791  0.0469
  810MOL0     H 6874   6.855  10.925   8.690  0.6249 -0.6931 -0.9120
  810MOL0     H 6875   6.932  11.049   8.595  1.6912  0.5974  0.9668
  810MOL0     H 6876   6.859  11.209   8.714 -0.2883 -0.1462 -1.7151
  810MOL0     H 6877   6.912  11.134   8.868 -0.1364  1.6019 -0.2036
  810MOL0     H 6878   6.668  11.039   8.728  1.0183  1.3097 -0.8017
  810MOL0     H 6879   6.697  11.003   8.900 -1.8233 -1.0433 -0.6536
  810MOL0     H 6880   6.623  11.272   8.781 -1.1282 -0.3784 -0.0167
  810MOL0     H 6881   6.641  11.234   8.949  4.1532 -1.1266  0.0715
  810MOL0     H 6882   6.406  11.153   8.610 -1.8233 -0.2108 -0.0381
  810MOL0     H 6883   6.236  11.272   8.506  3.1548  0.9300  0.4228
  810MOL0     H 6884   5.861  11.675   8.883 -1.2895  2.3590 -0.1160
  810MOL0     H 6885   5.619  11.760   8.850 -1.3082 -1.8114  0.6657
  810MOL0     H 6886   5.473  11.901   8.811  2.9453  0.9510 -2.1974
  810MOL0     H 6887   5.407  11.739   8.781 -2.1811 -0.4657 -0.2179
  810MOL0     H 6888   5.279  11.876   8.601  1.6299 -2.6997  0.1317
  810MOL0     H 6889   5.350  12.029   8.673  0.2017 -0.5299  1.0301
  810MOL0     H 6890   5.245  12.008   8.884  1.3439  1.0303 -1.2346
  810MOL0     H 6891   5.178  11.848   8.847  1.5762 -1.0098 -1.0394
  810MOL0     H 6892   5.133  12.085   8.654 -0.4194 -0.2172 -0.7815
  810MOL0     H 6893   5.036  11.952   8.688  0.4799 -0.3043 -2.1705
  810MOL0     H 6894   5.068  12.162   8.895 -1.9709  0.0497  1.4710
  810MOL0     H 6895   4.955  12.031   8.901 -0.0008 -3.6879 -2.3444
  810MOL0     H 6896   4.942  12.272   8.699 -1.4603  0.6499 -0.9839
  810MOL0     H 6897   4.847  12.256   8.839 -1.7796  2.7975 -3.7833
  810MOL0     H 6898   4.831  12.052   8.625 -1.5729 -1.9302  1.2537
  810MOL0     H 6899   4.727  12.075   8.766 -0.7877  0.3075 -0.0628
  810MOL0     H 6900   4.622  12.183   8.578  2.9529 -1.7413 -1.2488
  810MOL0     H 6901   4.744  12.306   8.570  0.0068 -2.3905 -2.8883
  810MOL0     H 6902   5.657  11.695   8.443 -0.9563 -1.6435  0.6320
  810MOL0     H 6903   5.868  11.611   8.453 -2.3718 -1.8745 -1.2183
  810MOL0     H 6904   6.153  11.462   8.886  3.0566 -0.5707  2.7357
  810MOL0     H 6905   6.337  11.319   8.986 -0.3361  2.3231  0.2371
  810MOL0     H 6906   8.320  10.790   8.182 -0.6837 -0.7151  0.6342
  810MOL0     H 6907   8.521  10.770   8.074  1.1634 -0.8598 -0.0946
  810MOL0     H 6908   9.143  11.017   8.159 -1.8882  0.9926 -0.9506
  810MOL0     H 6909   9.303  11.032   7.947  0.2635  0.0621 -1.1543
  810MOL0     H 6910   9.148  10.951   7.544  0.6702 -1.7171 -1.4643
  810MOL0     H 6911   9.193  10.792   7.595 -1.5266 -0.2393 -0.5111
  810MOL0     H 6912   9.399  11.006   7.510  1.9351 -1.6220 -1.1948
  810MOL0     H 6913   9.435  10.841   7.556 -1.2743  1.7439  4.7904
  810MOL0     H 6914   9.308  10.757   7.340  2.5285 -1.6691  0.7369
  810MOL0     H 6915   9.455  10.850   7.312  0.4338 -1.7809 -0.4194
  810MOL0     H 6916   9.161  10.948   7.312 -0.1099 -0.4279 -0.9805
  810MOL0     H 6917   9.295  11.056   7.295  2.3284 -1.0226 -3.2888
  810MOL0     H 6918   9.221  10.858   6.917  0.9632  2.4587 -0.9013
  810MOL0     H 6919   9.003  10.858   7.700 -0.6298 -0.6007 -0.7491
  810MOL0     H 6920   8.840  10.882   7.894 -0.4559  2.2094  1.1427
  811MOL0     O 6921   6.598   0.324   4.441  0.1498 -0.2949 -0.4800
  811MOL0     C 6922   6.591   0.423   4.511 -0.2998 -0.1657 -0.6626
  811MOL0     O 6923   6.495   0.523   4.504  0.4361  0.6364  0.7604
  811MOL0     C 6924   6.422   0.550   4.391  1.0648  0.4614  0.1333
  811MOL0     C 6925   6.454   0.504   4.261 -0.0317 -0.0415 -0.1650
  811MOL0     C 6926   6.379   0.530   4.146  0.2841  0.2854  0.6619
  811MOL0     C 6927   6.271   0.612   4.156  0.0850 -0.7647  0.0491
  811MOL0     O 6928   6.207   0.666   4.045  0.1938 -0.2845 -0.0931
  811MOL0     C 6929   6.260   0.798   4.014  0.5207 -0.7501 -0.1002
  811MOL0     C 6930   6.187   0.856   3.887  0.5249 -0.1554 -0.9458
  811MOL0     C 6931   6.040   0.871   3.895 -0.0178  0.8031 -0.0318
  811MOL0     C 6932   5.969   0.883   3.754  0.2873 -1.0628 -1.1837
  811MOL0     C 6933   5.813   0.872   3.773 -0.3986  0.2467  0.4598
  811MOL0     C 6934   5.764   0.993   3.841  0.1880  0.8751 -0.0467
  811MOL0     C 6935   5.613   0.969   3.873 -0.1116 -0.2102  0.3057
  811MOL0     C 6936   5.576   0.858   3.979 -0.4373  0.0855  0.3440
  811MOL0     N 6937   5.439   0.825   3.980  0.6173 -0.7836 -0.2933
  811MOL0     C 6938   5.342   0.916   3.976 -0.1995 -0.5902 -0.1068
  811MOL0     C 6939   5.231   0.851   4.025 -0.2462  0.0710  0.0826
  811MOL0     C 6940   5.093   0.914   4.049  0.1290 -0.2910  0.1118
  811MOL0     C 6941   4.995   0.818   3.970  0.1490  0.5242 -0.3353
  811MOL0     C 6942   4.843   0.869   3.972  0.6965  0.9613 -0.9005
  811MOL0     C 6943   4.787   0.891   4.119 -0.1981  0.0108  1.2763
  811MOL0     O 6944   4.654   0.948   4.105 -0.2467 -0.3650  0.2911
  811MOL0     C 6945   4.549   0.867   4.065 -0.5595 -0.3868 -0.0367
  811MOL0     C 6946   4.441   0.934   4.014 -0.6597  0.7949 -0.2169
  811MOL0     C 6947   4.341   0.863   3.960  1.2677  0.1548 -0.2445
  811MOL0     C 6948   4.324   0.723   3.993  0.3854 -0.5278 -0.1513
  811MOL0     C 6949   4.201   0.654   3.973  0.4193  1.3713  1.0519
  811MOL0     O 6950   4.179   0.526   4.030 -0.3912 -0.2336 -0.5484
  811MOL0     C 6951   4.050   0.474   4.042 -0.4929  0.3040  1.0408
  811MOL0     C 6952   3.971   0.486   4.162 -0.9108 -0.2595 -0.4319
  811MOL0     C 6953   3.845   0.436   4.164  0.4329  0.3050 -0.2587
  811MOL0     C 6954   3.792   0.368   4.052  0.3908  0.0041 -0.7299
  811MOL0     O 6955   3.667   0.310   4.068  0.0258 -0.3958  0.7148
  811MOL0     C 6956   3.652   0.185   4.135 -0.0659 -0.3826 -0.4585
  811MOL0     C 6957   3.508   0.131   4.148 -0.0926  0.6063 -0.0492
  811MOL0     C 6958   3.398   0.232   4.189 -0.2834  0.4927  0.0862
  811MOL0     C 6959   3.428   0.284   4.328  0.5679  0.0775  0.3131
  811MOL0     C 6960   3.310   0.368   4.380 -0.4158  0.8754 -0.5729
  811MOL0     C 6961   3.304   0.398   4.533  0.3542  0.1952 -1.2105
  811MOL0     C 6962   3.166   0.439   4.592 -0.3838  0.1381  0.0690
  811MOL0     C 6963   3.105   0.553   4.514 -0.1853  0.0598  0.0986
  811MOL0    Cl 6964   2.968   0.631   4.599 -0.1070  0.2570 -0.0164
  811MOL0     C 6965   3.868   0.349   3.935 -1.3281 -0.0888  0.2457
  811MOL0     C 6966   3.996   0.400   3.933 -1.0055  0.0927  0.2407
  811MOL0     O 6967   4.116   0.709   3.904  0.0555 -0.2077 -0.1295
  811MOL0     C 6968   4.429   0.658   4.060 -0.2036  0.5976  0.1411
  811MOL0     C 6969   4.549   0.729   4.087 -0.0595 -0.0827 -0.2829
  811MOL0     N 6970   5.266   0.716   4.036  0.1508  0.6268 -0.5374
  811MOL0     N 6971   5.395   0.703   4.022  0.7839 -0.2228  0.2021
  811MOL0     C 6972   6.238   0.663   4.282  0.1016 -0.0794 -1.1111
  811MOL0     C 6973   6.307   0.628   4.397  0.4496  0.4624 -0.2445
  811MOL0     C 6974   6.690   0.427   4.621  0.4179  1.2379 -0.0633
  811MOL0     C 6975   6.658   0.487   4.744 -0.0484  0.2034 -0.1871
  811MOL0     C 6976   6.760   0.505   4.844  0.5423 -0.3031  0.0393
  811MOL0     C 6977   6.897   0.488   4.813  0.4844  0.1276 -0.1743
  811MOL0     O 6978   6.983   0.526   4.905 -0.2677  0.1498 -1.2399
  811MOL0     C 6979   7.102   0.453   4.928  0.8087  0.1822 -0.0227
  811MOL0     C 6980   7.220   0.521   4.854 -0.4188 -0.1850  0.1562
  811MOL0     C 6981   7.356   0.459   4.905  0.3820 -0.1572 -0.2213
  811MOL0     C 6982   7.376   0.306   4.873 -0.0470  0.5356 -0.3700
  811MOL0     C 6983   7.352   0.275   4.728 -0.1336  0.1902 -0.0738
  811MOL0     C 6984   7.351   0.244   4.609  0.1485  1.1320 -0.0792
  811MOL0     C 6985   6.925   0.409   4.694  0.4614 -0.7144  0.1172
  811MOL0     C 6986   6.827   0.389   4.597  0.0787 -0.1701 -0.5128
  811MOL0     H 6987   6.540   0.441   4.238  0.1210  1.0215 -2.8634
  811MOL0     H 6988   6.408   0.498   4.047 -1.6579  1.4430 -0.3366
  811MOL0     H 6989   6.369   0.795   4.007  0.4881 -0.5519 -0.7036
  811MOL0     H 6990   6.234   0.874   4.088 -2.3941 -2.4573  0.8050
  811MOL0     H 6991   6.202   0.782   3.808  1.9736 -0.4399 -0.4349
  811MOL0     H 6992   6.232   0.954   3.868 -1.0382  0.2024 -3.1551
  811MOL0     H 6993   6.025   0.958   3.960 -0.8226  0.8765 -0.3169
  811MOL0     H 6994   6.000   0.778   3.935  1.3868 -0.2150 -0.8974
  811MOL0     H 6995   5.986   0.979   3.705 -1.0370 -1.2649 -2.1241
  811MOL0     H 6996   6.004   0.805   3.686 -1.1938 -1.3650 -1.6442
  811MOL0     H 6997   5.794   0.783   3.834 -2.1197  1.9989  2.6942
  811MOL0     H 6998   5.762   0.858   3.678  0.5936 -1.2869  0.1225
  811MOL0     H 6999   5.789   1.079   3.778  0.1857  0.3612 -0.7636
  811MOL0     H 7000   5.813   1.015   3.937  0.0371 -2.8247  1.0308
  811MOL0     H 7001   5.573   1.059   3.920  1.6742  1.6587 -1.5073
  811MOL0     H 7002   5.555   0.941   3.784 -0.4256  0.9426  0.1220
  811MOL0     H 7003   5.599   0.904   4.076 -1.5408  2.7088 -0.5528
  811MOL0     H 7004   5.648   0.778   3.959  1.0970  1.7075 -1.0050
  811MOL0     H 7005   5.349   1.020   3.947 -2.8888 -0.4619 -0.6023
  811MOL0     H 7006   5.081   1.015   4.008  1.1198 -0.1255  0.2172
  811MOL0     H 7007   5.062   0.898   4.153  0.6773 -1.0407  0.1627
  811MOL0     H 7008   5.006   0.716   4.008 -0.9516 -0.2789 -2.0441
  811MOL0     H 7009   5.019   0.811   3.864 -0.7911 -0.1762 -0.5134
  811MOL0     H 7010   4.828   0.960   3.914 -0.9310  1.7665  0.6912
  811MOL0     H 7011   4.778   0.800   3.917  0.1017  2.7383 -2.5686
  811MOL0     H 7012   4.848   0.967   4.168  0.8782  0.0901 -0.1108
  811MOL0     H 7013   4.802   0.801   4.178 -0.0444 -0.2726  0.8105
  811MOL0     H 7014   4.426   1.041   4.023 -2.1045  0.4895  1.8069
  811MOL0     H 7015   4.250   0.906   3.919  0.3421 -3.9547 -3.1695
  811MOL0     H 7016   4.012   0.548   4.240  1.7602 -2.1800 -0.1886
  811MOL0     H 7017   3.787   0.454   4.254  0.5202 -2.2130  0.3752
  811MOL0     H 7018   3.697   0.197   4.234 -0.4279 -2.2103 -0.0435
  811MOL0     H 7019   3.701   0.109   4.074 -0.7290 -0.3443 -1.0452
  811MOL0     H 7020   3.498   0.040   4.208  0.2073 -0.2372 -1.2417
  811MOL0     H 7021   3.484   0.105   4.045 -0.6124  2.0087 -0.3024
  811MOL0     H 7022   3.303   0.178   4.183 -0.3578  0.7610 -1.7273
  811MOL0     H 7023   3.398   0.316   4.119  4.6804  0.7373  0.0541
  811MOL0     H 7024   3.449   0.197   4.390  0.9730 -0.7993 -1.0232
  811MOL0     H 7025   3.520   0.338   4.308 -0.9044  2.4433 -0.5141
  811MOL0     H 7026   3.225   0.303   4.360  0.4435 -1.9839  3.6906
  811MOL0     H 7027   3.291   0.461   4.325 -1.6548  2.6899  2.6452
  811MOL0     H 7028   3.386   0.467   4.557 -0.2278  0.0617  1.5393
  811MOL0     H 7029   3.334   0.306   4.585  1.8217  1.5508  0.5124
  811MOL0     H 7030   3.103   0.351   4.571 -0.0675 -0.4755  1.5623
  811MOL0     H 7031   3.165   0.446   4.701  0.7971 -0.6058  0.1478
  811MOL0     H 7032   3.082   0.514   4.414  2.0574  0.6325 -0.6982
  811MOL0     H 7033   3.189   0.621   4.498  0.7671 -1.1506 -0.2275
  811MOL0     H 7034   3.817   0.299   3.854 -1.7182  1.1074 -0.2666
  811MOL0     H 7035   4.049   0.391   3.839 -0.5940  2.1935  0.2122
  811MOL0     H 7036   4.428   0.560   4.107  1.2459  1.4910  2.1776
  811MOL0     H 7037   4.626   0.668   4.135  0.0185 -0.6349 -1.0880
  811MOL0     H 7038   6.160   0.737   4.294 -1.1132 -1.0971 -2.4080
  811MOL0     H 7039   6.280   0.682   4.487  2.7308  1.6690 -0.1929
  811MOL0     H 7040   6.556   0.518   4.760 -0.9509 -3.3083  1.8425
  811MOL0     H 7041   6.731   0.542   4.942 -0.0110  1.8649 -0.8761
  811MOL0     H 7042   7.092   0.356   4.878 -1.8197  1.8943 -3.1681
  811MOL0     H 7043   7.123   0.446   5.035 -0.0971 -0.5440  0.1239
  811MOL0     H 7044   7.208   0.495   4.748  1.3435 -1.0567  0.1291
  811MOL0     H 7045   7.228   0.630   4.856  0.2928 -0.2419  1.8108
  811MOL0     H 7046   7.360   0.468   5.014  0.2490  1.1651 -0.3159
  811MOL0     H 7047   7.447   0.508   4.871  0.8743  0.1254  1.4088
  811MOL0     H 7048   7.480   0.278   4.894 -0.5324 -3.7651 -2.5011
  811MOL0     H 7049   7.304   0.247   4.930  1.3683 -0.5670  0.3617
  811MOL0     H 7050   7.343   0.217   4.506  1.5856 -1.4783  0.4138
  811MOL0     H 7051   7.023   0.371   4.666  0.7201 -1.2172  1.5988
  811MOL0     H 7052   6.860   0.362   4.497  3.1797  0.0889  0.3321
  812MOL0     O 7053   2.723  10.913   3.356  0.4162  0.7325 -0.0781
  812MOL0     C 7054   2.774  10.823   3.292  0.3842 -0.2218 -0.6527
  812MOL0     O 7055   2.717  10.755   3.196 -0.1414  0.7402  0.0239
  812MOL0     C 7056   2.586  10.763   3.159  0.1109  0.3813  0.1041
  812MOL0     C 7057   2.552  10.761   3.029 -0.8475  0.1765  0.1328
  812MOL0     C 7058   2.417  10.749   2.996 -0.9377  0.3034  0.1721
  812MOL0     C 7059   2.320  10.764   3.099  0.0581 -0.7347 -0.7178
  812MOL0     O 7060   2.190  10.765   3.048 -0.9570 -0.7223  0.3799
  812MOL0     C 7061   2.073  10.785   3.119  0.0491 -0.4505  0.1013
  812MOL0     C 7062   1.965  10.722   3.031  0.1107  0.4760  0.2903
  812MOL0     C 7063   1.829  10.750   3.090  0.0119  0.3893 -0.7376
  812MOL0     C 7064   1.773  10.891   3.073  0.5734  0.4520 -0.2329
  812MOL0     C 7065   1.621  10.897   3.082 -0.7012 -0.3754  0.4576
  812MOL0     C 7066   1.588  10.917   3.227 -0.5115 -0.0876 -0.6031
  812MOL0     C 7067   1.440  10.958   3.246 -0.9038  0.4479  0.4395
  812MOL0     C 7068   1.342  10.839   3.226 -0.6458  0.4621  0.9978
  812MOL0     N 7069   1.202  10.871   3.242 -0.6471 -0.6891  0.6925
  812MOL0     C 7070   1.155  10.992   3.192  0.1806  0.8977 -0.6050
  812MOL0     C 7071   1.031  10.997   3.239  0.4417  0.9530 -0.5089
  812MOL0     C 7072   0.930  11.105   3.212  0.1702 -0.0853  0.8208
  812MOL0     C 7073   0.892  11.134   3.055  0.1394  0.6767 -0.7742
  812MOL0     C 7074   0.841  10.998   2.995 -0.3429 -0.1750  0.2635
  812MOL0     C 7075   0.760  11.017   2.862 -0.3045 -0.2285 -0.2822
  812MOL0     O 7076   0.653  11.099   2.896  0.1804  0.4776 -0.5297
  812MOL0     C 7077   0.533  11.089   2.823  0.1281 -0.1545 -0.8307
  812MOL0     C 7078   0.452  11.201   2.830  0.8306 -0.0417  0.5509
  812MOL0     C 7079   0.345  11.216   2.741 -0.7415 -0.0190  0.5026
  812MOL0     C 7080   0.314  11.120   2.645 -0.0540 -0.1328  0.5163
  812MOL0     C 7081   0.195  11.133   2.551 -0.3936  0.0897 -0.9771
  812MOL0     O 7082   0.113  11.235   2.579  0.4839 -0.3349 -0.9219
  812MOL0     C 7083   0.001  11.241   2.496 -0.7446  0.0791 -0.3953
  812MOL0     C 7084  -0.035  11.352   2.416  0.3991 -0.7339  0.5301
  812MOL0     C 7085  -0.158  11.351   2.350  0.6232 -0.0196 -1.4502
  812MOL0     C 7086  -0.251  11.239   2.357 -0.4021  0.4172  0.0308
  812MOL0     O 7087  -0.366  11.246   2.280  0.1499  0.0351 -0.2483
  812MOL0     C 7088  -0.354  11.303   2.142  0.2834  0.0130 -0.6384
  812MOL0     C 7089  -0.432  11.222   2.035 -0.8603 -0.6959 -0.6423
  812MOL0     C 7090  -0.582  11.234   2.057  0.4884 -0.4149 -0.4246
  812MOL0     C 7091  -0.661  11.186   1.929  1.0487 -0.2133  0.3685
  812MOL0     C 7092  -0.807  11.202   1.937 -0.3908  0.0808  0.0444
  812MOL0     C 7093  -0.863  11.344   1.931  0.5875 -0.3297 -0.7609
  812MOL0     C 7094  -1.014  11.345   1.937 -0.5004  0.1133  0.8558
  812MOL0     C 7095  -1.065  11.482   1.940  0.0205 -0.0190 -0.0539
  812MOL0    Cl 7096  -1.221  11.488   2.009  0.0435 -0.1435  0.0886
  812MOL0     C 7097  -0.214  11.130   2.445 -0.3643 -0.3928  0.5358
  812MOL0     C 7098  -0.095  11.143   2.520 -0.1136 -0.9164 -0.4426
  812MOL0     O 7099   0.190  11.058   2.458  0.1016  0.4497 -0.3121
  812MOL0     C 7100   0.387  11.004   2.645 -0.8524 -0.0929  0.3855
  812MOL0     C 7101   0.500  10.996   2.727 -0.2074 -0.5154 -0.8653
  812MOL0     N 7102   1.007  10.872   3.299  0.0325  0.6804 -0.2562
  812MOL0     N 7103   1.116  10.802   3.317  0.0422 -0.4460 -0.7838
  812MOL0     C 7104   2.355  10.775   3.229  0.2088  0.3887  0.3934
  812MOL0     C 7105   2.486  10.767   3.260 -0.1451 -0.0172  0.6474
  812MOL0     C 7106   2.912  10.772   3.319 -0.6518 -0.6625 -0.4103
  812MOL0     C 7107   2.990  10.841   3.419 -0.1201 -0.1733 -1.3530
  812MOL0     C 7108   3.119  10.787   3.459  0.2898  0.1364  0.2985
  812MOL0     C 7109   3.170  10.672   3.399 -0.9409 -0.4981 -0.5535
  812MOL0     O 7110   3.289  10.622   3.448  0.1403  0.0072  0.6313
  812MOL0     C 7111   3.323  10.645   3.583  0.3804  0.4654  0.8245
  812MOL0     C 7112   3.428  10.542   3.627 -0.0237 -0.4775  0.3978
  812MOL0     C 7113   3.367  10.404   3.648  0.6835 -0.3770  0.2103
  812MOL0     C 7114   3.484  10.301   3.637  0.3074  0.5202  0.0456
  812MOL0     C 7115   3.446  10.189   3.551 -0.3050 -0.1680  0.0271
  812MOL0     C 7116   3.408  10.088   3.495  0.8412 -0.0094  0.3203
  812MOL0     C 7117   3.106  10.613   3.293  0.1737 -0.6224 -0.8486
  812MOL0     C 7118   2.975  10.663   3.254  0.3806  0.2067  1.8720
  812MOL0     H 7119   2.625  10.755   2.949 -4.3379  1.0579 -3.4230
  812MOL0     H 7120   2.382  10.735   2.894 -5.2608  0.9130  1.3850
  812MOL0     H 7121   2.058  10.893   3.115  0.1899 -0.3406  1.8559
  812MOL0     H 7122   2.081  10.765   3.226  2.1364 -1.8580 -0.2688
  812MOL0     H 7123   1.961  10.613   3.035  0.8164  0.4680  2.9900
  812MOL0     H 7124   1.975  10.771   2.934 -3.9246 -0.5017 -0.8143
  812MOL0     H 7125   1.815  10.722   3.195 -2.2370 -0.5456 -1.2304
  812MOL0     H 7126   1.767  10.680   3.033 -2.2689 -0.3453  2.4156
  812MOL0     H 7127   1.825  10.954   3.146  0.9396  0.8145 -0.7982
  812MOL0     H 7128   1.805  10.924   2.974  1.2684  0.1964 -0.1046
  812MOL0     H 7129   1.572  10.813   3.031  1.5333 -0.6501 -1.4005
  812MOL0     H 7130   1.594  10.988   3.028 -0.2562  0.9541  2.3466
  812MOL0     H 7131   1.646  10.996   3.275 -0.6222 -1.1933  1.4539
  812MOL0     H 7132   1.608  10.831   3.291  1.7436 -0.3829 -1.6252
  812MOL0     H 7133   1.416  11.013   3.338  1.7143  0.2914  1.3042
  812MOL0     H 7134   1.421  11.028   3.165 -1.1978 -1.3506 -1.1082
  812MOL0     H 7135   1.366  10.757   3.295  0.1249  0.1795  0.4124
  812MOL0     H 7136   1.348  10.807   3.122 -0.8676 -1.7092  1.6134
  812MOL0     H 7137   1.207  11.062   3.128  2.4712  0.8761  1.0869
  812MOL0     H 7138   0.964  11.195   3.265  3.0688 -1.0864  0.8586
  812MOL0     H 7139   0.833  11.084   3.258 -0.8887  2.2889 -0.1709
  812MOL0     H 7140   0.982  11.163   2.999  0.0758  3.6723  0.4793
  812MOL0     H 7141   0.823  11.219   3.054  1.0699  1.4829 -2.8853
  812MOL0     H 7142   0.918  10.923   2.980 -2.0798 -2.4075  1.8448
  812MOL0     H 7143   0.782  10.940   3.066 -0.5290  0.5158  0.6869
  812MOL0     H 7144   0.740  10.914   2.829 -1.0380  0.1169 -0.9473
  812MOL0     H 7145   0.810  11.067   2.779 -2.1266 -2.9372 -3.2806
  812MOL0     H 7146   0.476  11.288   2.890  1.2010 -0.5394  1.1373
  812MOL0     H 7147   0.275  11.296   2.762  0.4831  1.1114  0.4278
  812MOL0     H 7148   0.038  11.433   2.407  1.2954 -1.6697 -1.1650
  812MOL0     H 7149  -0.175  11.440   2.290 -0.8834  1.6489  1.2622
  812MOL0     H 7150  -0.251  11.308   2.105  0.0920  1.7887 -1.0296
  812MOL0     H 7151  -0.392  11.405   2.146 -2.6791 -1.0506  1.3063
  812MOL0     H 7152  -0.386  11.123   2.046  1.1498  0.2701 -0.0373
  812MOL0     H 7153  -0.409  11.258   1.934  1.5312  2.3410  0.8431
  812MOL0     H 7154  -0.618  11.337   2.058  1.3642 -0.0824 -1.5208
  812MOL0     H 7155  -0.613  11.175   2.145  0.3287 -2.2377 -1.6543
  812MOL0     H 7156  -0.611  11.223   1.839  1.1757 -1.0740  0.0693
  812MOL0     H 7157  -0.656  11.078   1.909 -0.5174  0.1182 -2.3183
  812MOL0     H 7158  -0.839  11.160   2.033  1.9237 -2.9935 -0.3635
  812MOL0     H 7159  -0.850  11.140   1.858  3.6713  1.0396 -3.2506
  812MOL0     H 7160  -0.818  11.389   1.841  5.1792 -0.4992  1.1580
  812MOL0     H 7161  -0.830  11.400   2.018  0.2377 -0.1057 -0.7704
  812MOL0     H 7162  -1.056  11.294   1.850 -1.1495 -2.4953  2.5804
  812MOL0     H 7163  -1.052  11.281   2.017  0.5752  0.1675  1.4193
  812MOL0     H 7164  -1.063  11.513   1.835  1.1258  0.1622  0.0057
  812MOL0     H 7165  -0.990  11.540   1.995  0.5054 -2.4762  2.0756
  812MOL0     H 7166  -0.272  11.038   2.453  2.9442 -2.4891  3.4709
  812MOL0     H 7167  -0.088  11.061   2.590 -1.7508 -0.8689 -0.1860
  812MOL0     H 7168   0.360  10.921   2.581  0.0132  1.9842 -2.9317
  812MOL0     H 7169   0.559  10.905   2.731  1.5038  0.5111 -1.5979
  812MOL0     H 7170   2.280  10.779   3.308 -0.4503  0.0270 -0.2025
  812MOL0     H 7171   2.517  10.770   3.364  1.0951  1.5570  0.2907
  812MOL0     H 7172   2.953  10.938   3.452  1.1846 -0.7445  2.3074
  812MOL0     H 7173   3.175  10.828   3.542 -0.6073 -2.4154  2.2898
  812MOL0     H 7174   3.229  10.641   3.637  0.6385  0.5257  1.2797
  812MOL0     H 7175   3.371  10.743   3.594  1.4556 -0.1024  1.3061
  812MOL0     H 7176   3.501  10.551   3.546  0.5854  1.3893  1.1120
  812MOL0     H 7177   3.450  10.575   3.728 -5.2612  0.5470  1.5077
  812MOL0     H 7178   3.299  10.384   3.565  1.0265  3.1679 -1.0869
  812MOL0     H 7179   3.317  10.380   3.743  4.2256  1.1246  2.7034
  812MOL0     H 7180   3.575  10.339   3.590 -1.5808  1.8039 -2.8218
  812MOL0     H 7181   3.508  10.259   3.735  1.2528 -0.7608 -0.6974
  812MOL0     H 7182   3.376  10.001   3.444 -1.4014  0.6770  0.4753
  812MOL0     H 7183   3.155  10.538   3.233  2.7962  1.6638 -1.7774
  812MOL0     H 7184   2.922  10.626   3.166 -2.0623  3.4546  1.7928
  813MOL0     O 7185   2.786   7.260   0.921 -0.6902  0.3221  0.2072
  813MOL0     C 7186   2.825   7.308   1.026  0.4408  0.0361  0.5451
  813MOL0     O 7187   2.753   7.379   1.113  0.3698  0.3899  0.6899
  813MOL0     C 7188   2.617   7.389   1.104 -0.2914 -1.0022 -0.4528
  813MOL0     C 7189   2.561   7.450   1.218 -0.6509  0.3966  0.0100
  813MOL0     C 7190   2.423   7.472   1.224 -0.3220  0.7964 -0.6064
  813MOL0     C 7191   2.336   7.451   1.122  0.3006  0.3893  0.6549
  813MOL0     O 7192   2.212   7.484   1.160  0.9594  0.2646 -0.2909
  813MOL0     C 7193   2.106   7.445   1.069  0.5888 -0.1023 -0.2597
  813MOL0     C 7194   1.970   7.500   1.132  0.5069  0.2346  0.0339
  813MOL0     C 7195   1.840   7.448   1.050 -0.2097  0.2362  0.4334
  813MOL0     C 7196   1.709   7.516   1.100 -0.1180  0.4071  0.3291
  813MOL0     C 7197   1.641   7.429   1.210 -0.6217 -0.2003  0.1869
  813MOL0     C 7198   1.520   7.508   1.258 -0.1526 -0.1920 -0.8273
  813MOL0     C 7199   1.463   7.437   1.388 -0.8032  0.2620 -0.4611
  813MOL0     C 7200   1.351   7.331   1.360  0.2381 -0.0716 -0.4237
  813MOL0     N 7201   1.251   7.385   1.266  1.1931  0.1152  0.1662
  813MOL0     C 7202   1.149   7.459   1.302  0.7259 -0.3758 -0.6423
  813MOL0     C 7203   1.086   7.501   1.193  1.0897  0.9951  0.0791
  813MOL0     C 7204   0.969   7.597   1.174 -0.4730  0.1591  0.2945
  813MOL0     C 7205   0.832   7.534   1.171 -0.6896 -0.2028  0.3768
  813MOL0     C 7206   0.726   7.627   1.203 -0.1350 -0.1998  0.2942
  813MOL0     C 7207   0.582   7.586   1.159  0.4107  0.0493 -0.0665
  813MOL0     O 7208   0.481   7.660   1.227  0.2131 -0.4314 -0.3603
  813MOL0     C 7209   0.382   7.734   1.165 -0.2521 -0.4719 -0.0830
  813MOL0     C 7210   0.327   7.696   1.040  0.5183 -0.9056 -0.0487
  813MOL0     C 7211   0.217   7.766   0.982  0.2864  0.2188 -0.5685
  813MOL0     C 7212   0.175   7.882   1.045 -0.2690  0.0990 -1.0725
  813MOL0     C 7213   0.060   7.949   0.985  0.6136  0.4500 -1.3768
  813MOL0     O 7214   0.025   8.058   1.051  0.3337  0.2349  0.0007
  813MOL0     C 7215  -0.077   8.141   1.017 -0.0757  0.2143 -0.1373
  813MOL0     C 7216  -0.070   8.214   0.908  0.2792 -0.1304  0.4268
  813MOL0     C 7217  -0.173   8.304   0.878 -0.7264  0.2405 -0.4639
  813MOL0     C 7218  -0.288   8.305   0.957 -0.4264 -0.5428 -0.3746
  813MOL0     O 7219  -0.382   8.393   0.916  0.1576 -1.0831  0.3816
  813MOL0     C 7220  -0.516   8.366   0.947  0.9091  0.4896  0.4628
  813MOL0     C 7221  -0.608   8.486   0.914 -1.0247  0.6709  0.4237
  813MOL0     C 7222  -0.759   8.441   0.915 -0.2022  0.0151  0.0343
  813MOL0     C 7223  -0.859   8.560   0.924  0.1715  0.2371  0.4432
  813MOL0     C 7224  -0.999   8.508   0.929  1.2996 -0.6302 -0.6541
  813MOL0     C 7225  -1.091   8.560   0.815  0.4124  0.2324  1.3337
  813MOL0     C 7226  -1.238   8.523   0.854  0.5704  0.0373 -0.6061
  813MOL0     C 7227  -1.321   8.485   0.731 -0.0772  0.0567  0.3263
  813MOL0    Cl 7228  -1.502   8.500   0.769 -0.0911  0.4753  0.0991
  813MOL0     C 7229  -0.296   8.219   1.069  0.2163  0.2128  0.7781
  813MOL0     C 7230  -0.190   8.141   1.098 -0.1772  0.9126  0.3615
  813MOL0     O 7231   0.017   7.905   0.878 -0.5390  0.0729 -0.6844
  813MOL0     C 7232   0.229   7.926   1.165 -0.6788 -0.8567  0.3829
  813MOL0     C 7233   0.334   7.850   1.223 -0.1428  0.0169 -0.4783
  813MOL0     N 7234   1.156   7.434   1.092 -0.9583 -0.1081  0.8661
  813MOL0     N 7235   1.250   7.357   1.140  0.5783 -0.5241 -0.2860
  813MOL0     C 7236   2.387   7.399   1.007 -0.6357  0.1929 -0.4911
  813MOL0     C 7237   2.528   7.365   0.999 -0.2274  0.5240  0.0659
  813MOL0     C 7238   2.968   7.289   1.054  0.6798 -0.3708 -0.5560
  813MOL0     C 7239   3.018   7.334   1.176 -0.0644 -0.1295  0.6298
  813MOL0     C 7240   3.148   7.311   1.201  0.1645 -0.0426  0.7172
  813MOL0     C 7241   3.232   7.256   1.113  0.1077  0.6918  0.4398
  813MOL0     O 7242   3.357   7.238   1.149  0.3200 -0.4285 -0.3349
  813MOL0     C 7243   3.375   7.123   1.227 -0.0193 -1.0494  0.1521
  813MOL0     C 7244   3.509   7.143   1.288  0.8321  0.9231  0.4693
  813MOL0     C 7245   3.621   7.191   1.190 -0.6067 -1.2842  0.6358
  813MOL0     C 7246   3.768   7.167   1.234 -0.2615  0.0609  0.6831
  813MOL0     C 7247   3.856   7.160   1.121 -0.3272 -0.1249  0.7861
  813MOL0     C 7248   3.933   7.159   1.027 -0.9223  0.3246  1.1155
  813MOL0     C 7249   3.183   7.205   0.994  0.0269 -0.0571  0.9485
  813MOL0     C 7250   3.046   7.208   0.975 -0.2863  0.2464 -0.1151
  813MOL0     H 7251   2.626   7.462   1.304 -1.0692 -1.7665  0.6723
  813MOL0     H 7252   2.395   7.501   1.325  1.8631 -0.2627  0.3830
  813MOL0     H 7253   2.107   7.336   1.071  2.9420 -0.1231  0.8317
  813MOL0     H 7254   2.114   7.481   0.966  0.6399  2.1494  0.4662
  813MOL0     H 7255   1.978   7.609   1.132  1.3284  0.1854  0.6201
  813MOL0     H 7256   1.981   7.465   1.235 -0.7217  2.4049  0.9618
  813MOL0     H 7257   1.846   7.339   1.058  4.8095  0.2701  0.1673
  813MOL0     H 7258   1.849   7.470   0.943 -5.1618  3.7883  0.4232
  813MOL0     H 7259   1.731   7.621   1.119 -2.5193  2.3057 -5.2871
  813MOL0     H 7260   1.652   7.526   1.007 -0.5633 -0.3732  0.5025
  813MOL0     H 7261   1.707   7.405   1.294 -0.2597  0.2715  0.0392
  813MOL0     H 7262   1.608   7.331   1.173  0.1415 -1.8113  3.3775
  813MOL0     H 7263   1.449   7.521   1.176 -2.6379 -0.1983  1.1804
  813MOL0     H 7264   1.547   7.607   1.295 -1.8020 -0.1740  0.4680
  813MOL0     H 7265   1.542   7.387   1.445 -1.7318 -2.1743 -1.1827
  813MOL0     H 7266   1.423   7.513   1.455 -1.1530 -1.1387  0.9675
  813MOL0     H 7267   1.302   7.292   1.449  0.4622  0.5028 -0.0431
  813MOL0     H 7268   1.400   7.248   1.308  0.4640 -1.0189  1.2507
  813MOL0     H 7269   1.120   7.478   1.405  1.8304  1.2868 -0.5920
  813MOL0     H 7270   0.986   7.660   1.086 -0.3997 -0.4962 -0.1634
  813MOL0     H 7271   0.985   7.669   1.255 -2.7990  0.9436  0.1315
  813MOL0     H 7272   0.825   7.441   1.229 -5.4782 -0.8935 -0.8912
  813MOL0     H 7273   0.824   7.499   1.068 -0.5799  0.7442  0.0396
  813MOL0     H 7274   0.728   7.630   1.313 -1.4899  0.3755  0.3189
  813MOL0     H 7275   0.742   7.728   1.164  0.4067 -0.3986 -0.0064
  813MOL0     H 7276   0.555   7.480   1.166 -3.1230  0.7891 -0.6596
  813MOL0     H 7277   0.585   7.615   1.054 -0.0851 -0.2385 -0.1634
  813MOL0     H 7278   0.371   7.607   0.997  0.2868 -1.3289  0.5809
  813MOL0     H 7279   0.167   7.716   0.900  1.2294 -1.2869 -0.2606
  813MOL0     H 7280   0.023   8.218   0.852  0.1457  0.3045  0.2335
  813MOL0     H 7281  -0.169   8.383   0.803  2.1216  2.7152  2.0217
  813MOL0     H 7282  -0.524   8.348   1.055  0.8829 -2.2020  0.0622
  813MOL0     H 7283  -0.547   8.279   0.888 -1.0956  1.1104  0.5248
  813MOL0     H 7284  -0.592   8.527   0.814 -2.1117 -1.5803 -0.7339
  813MOL0     H 7285  -0.581   8.549   1.000 -1.8120 -1.7467  2.5790
  813MOL0     H 7286  -0.774   8.369   0.996  0.6465  0.8397  0.9414
  813MOL0     H 7287  -0.791   8.394   0.821 -1.0689 -0.0552  0.3553
  813MOL0     H 7288  -0.836   8.617   1.014  1.3578  0.2914  0.1141
  813MOL0     H 7289  -0.862   8.626   0.836  0.2580 -0.7734 -0.3405
  813MOL0     H 7290  -1.055   8.521   1.022  0.3162 -3.1506 -0.8069
  813MOL0     H 7291  -1.002   8.399   0.937 -1.0854 -0.7016 -1.7070
  813MOL0     H 7292  -1.059   8.517   0.720 -1.7196 -1.2586  1.2129
  813MOL0     H 7293  -1.068   8.666   0.804  3.9056 -0.5983 -1.0749
  813MOL0     H 7294  -1.247   8.428   0.907 -3.0109  0.1169 -0.7924
  813MOL0     H 7295  -1.284   8.604   0.911  0.3147 -0.1623 -0.5270
  813MOL0     H 7296  -1.291   8.386   0.695 -1.1846 -0.6676  1.3147
  813MOL0     H 7297  -1.299   8.561   0.655  1.1615 -0.7492 -0.1561
  813MOL0     H 7298  -0.392   8.196   1.113  0.1395 -0.0708  0.4691
  813MOL0     H 7299  -0.204   8.077   1.184  0.1322  2.0289  1.2626
  813MOL0     H 7300   0.202   8.021   1.211  2.1137 -0.1821  0.8037
  813MOL0     H 7301   0.365   7.885   1.321 -1.2628  2.4878 -0.9378
  813MOL0     H 7302   2.312   7.386   0.929 -2.9971 -1.0192  1.8325
  813MOL0     H 7303   2.565   7.319   0.908 -0.7979  0.1198  0.0348
  813MOL0     H 7304   2.956   7.386   1.247 -1.4012 -0.5747 -0.1682
  813MOL0     H 7305   3.191   7.328   1.299 -2.7831  5.6449  1.4731
  813MOL0     H 7306   3.376   7.034   1.163  0.0383 -1.5775  0.8770
  813MOL0     H 7307   3.292   7.119   1.298 -1.1044  2.2866 -0.7603
  813MOL0     H 7308   3.490   7.208   1.374  1.6735  1.0977  0.5262
  813MOL0     H 7309   3.542   7.046   1.325 -3.2854 -1.3661 -1.1134
  813MOL0     H 7310   3.615   7.298   1.168  2.2133 -1.3624 -1.1512
  813MOL0     H 7311   3.599   7.137   1.097  1.8283  1.0379 -1.4511
  813MOL0     H 7312   3.814   7.242   1.299  3.7073 -0.7933 -0.8733
  813MOL0     H 7313   3.780   7.069   1.282 -1.0535  0.0604  0.8945
  813MOL0     H 7314   3.995   7.156   0.940 -1.4665  0.1923  0.7272
  813MOL0     H 7315   3.251   7.162   0.921  0.4316 -0.7995  1.7429
  813MOL0     H 7316   3.011   7.164   0.882  0.7592  1.6821 -1.2445
  814MOL0     O 7317   3.305   8.744   5.889  0.5879  0.3552  0.4571
  814MOL0     C 7318   3.362   8.750   5.999 -1.3171  0.0791  0.2697
  814MOL0     O 7319   3.317   8.687   6.108  0.4227 -0.4942 -0.0661
  814MOL0     C 7320   3.220   8.594   6.088 -0.4458 -0.5428  0.5179
  814MOL0     C 7321   3.252   8.460   6.086  0.4336  0.5104  0.2334
  814MOL0     C 7322   3.149   8.364   6.063 -0.4651 -0.1062 -0.6921
  814MOL0     C 7323   3.013   8.401   6.062 -0.3116  0.5126  1.0998
  814MOL0     O 7324   2.923   8.306   6.027  0.4987  0.8049  0.3417
  814MOL0     C 7325   2.784   8.345   6.025 -0.1705 -0.8215 -0.0562
  814MOL0     C 7326   2.684   8.238   5.991  0.0318 -0.3691 -0.3095
  814MOL0     C 7327   2.540   8.274   6.044  0.3479  0.1584  0.5869
  814MOL0     C 7328   2.429   8.181   5.985  0.2796  0.5806 -0.4363
  814MOL0     C 7329   2.435   8.049   6.069 -0.5007  0.6025  0.2650
  814MOL0     C 7330   2.321   7.957   6.023 -0.3303 -0.3552 -0.4767
  814MOL0     C 7331   2.360   7.876   5.900  0.0333 -1.2645 -0.6406
  814MOL0     C 7332   2.249   7.779   5.855  0.5312  0.6520 -0.4204
  814MOL0     N 7333   2.110   7.833   5.842 -0.4790 -0.7906  0.0152
  814MOL0     C 7334   2.006   7.768   5.896 -0.4691  0.5000 -0.3363
  814MOL0     C 7335   1.901   7.838   5.854  0.8276  0.0534  0.3107
  814MOL0     C 7336   1.756   7.807   5.876  0.3946 -0.2782  0.1203
  814MOL0     C 7337   1.658   7.860   5.765 -0.1729 -0.3833 -0.2084
  814MOL0     C 7338   1.511   7.846   5.793  0.4664 -0.7898 -0.6746
  814MOL0     C 7339   1.420   7.908   5.689 -0.0525  1.3869  0.3265
  814MOL0     O 7340   1.437   7.860   5.557 -0.3103  0.4535 -0.3217
  814MOL0     C 7341   1.349   7.756   5.516  0.0987  0.1187  0.6638
  814MOL0     C 7342   1.256   7.679   5.590 -0.1751 -0.1249 -0.0599
  814MOL0     C 7343   1.176   7.585   5.520 -0.2945  0.4636 -0.1234
  814MOL0     C 7344   1.193   7.564   5.381 -0.2163 -0.0952  0.7334
  814MOL0     C 7345   1.096   7.473   5.311  0.3450  0.2212 -0.2836
  814MOL0     O 7346   0.971   7.452   5.365  0.1607 -1.1477 -0.0085
  814MOL0     C 7347   0.867   7.370   5.317  0.3146 -1.4623  0.8904
  814MOL0     C 7348   0.868   7.302   5.193 -0.7941  1.1531  0.9513
  814MOL0     C 7349   0.745   7.240   5.158 -0.2279  0.1887  0.0842
  814MOL0     C 7350   0.636   7.230   5.241  0.1054 -0.8509 -0.4974
  814MOL0     O 7351   0.527   7.153   5.213 -0.4751 -0.4273  0.0193
  814MOL0     C 7352   0.409   7.239   5.195 -0.2055 -0.1198 -0.0150
  814MOL0     C 7353   0.317   7.171   5.088 -0.5321  0.2624 -0.4695
  814MOL0     C 7354   0.197   7.249   5.026  0.1977  0.3150 -0.0444
  814MOL0     C 7355   0.092   7.292   5.127  0.2590  0.2001 -0.3964
  814MOL0     C 7356  -0.022   7.365   5.067  0.8446 -0.7368 -0.4115
  814MOL0     C 7357  -0.145   7.364   5.159 -0.4882 -0.2871 -0.2593
  814MOL0     C 7358  -0.252   7.461   5.105  0.2586  0.0592  0.0242
  814MOL0     C 7359  -0.381   7.461   5.190  0.1313  0.4028  0.6233
  814MOL0    Cl 7360  -0.492   7.568   5.104  0.0138  0.1615  0.0801
  814MOL0     C 7361   0.644   7.294   5.373  0.5528  0.2350  0.3193
  814MOL0     C 7362   0.761   7.358   5.403 -0.3282 -0.0971  0.0519
  814MOL0     O 7363   1.130   7.418   5.208 -0.2995 -0.4659 -0.2521
  814MOL0     C 7364   1.287   7.633   5.308 -0.0653  0.2697 -1.1278
  814MOL0     C 7365   1.365   7.730   5.381 -0.9941 -0.6595 -0.8279
  814MOL0     N 7366   1.950   7.947   5.784 -0.2347  0.4433  0.2556
  814MOL0     N 7367   2.076   7.940   5.769  0.5875  0.2173  0.0074
  814MOL0     C 7368   2.988   8.542   6.057  0.5676  0.5455  0.2537
  814MOL0     C 7369   3.092   8.635   6.076  0.9440  0.5180  0.3219
  814MOL0     C 7370   3.501   8.818   6.003  0.9739  1.0470 -0.7276
  814MOL0     C 7371   3.558   8.884   5.887 -0.5548 -0.5623  0.5374
  814MOL0     C 7372   3.683   8.952   5.908  0.1660  0.5405  0.5212
  814MOL0     C 7373   3.749   8.952   6.034  0.2291  0.5359  0.5213
  814MOL0     O 7374   3.853   9.031   6.085 -0.2960 -0.5364  1.2604
  814MOL0     C 7375   3.941   9.081   5.981  0.2801 -0.1933  0.3508
  814MOL0     C 7376   4.085   9.093   6.030  0.0250 -0.1727 -0.0232
  814MOL0     C 7377   4.163   9.116   5.901 -0.7435  0.2035 -0.4030
  814MOL0     C 7378   4.319   9.097   5.937  0.1663  0.3667  0.2635
  814MOL0     C 7379   4.350   8.955   5.982  0.1728 -0.5916 -0.6816
  814MOL0     C 7380   4.366   8.843   6.027 -0.4510 -0.2812 -0.1116
  814MOL0     C 7381   3.698   8.882   6.139  0.8810  0.8012 -0.5278
  814MOL0     C 7382   3.576   8.816   6.130 -0.3803 -0.5919 -0.7576
  814MOL0     H 7383   3.354   8.430   6.109 -0.4784 -1.6802  1.6963
  814MOL0     H 7384   3.172   8.258   6.063  1.1331  0.1866  1.3638
  814MOL0     H 7385   2.772   8.415   5.942  1.9651  0.3599  0.5458
  814MOL0     H 7386   2.758   8.386   6.123 -1.5788 -4.8872  1.4734
  814MOL0     H 7387   2.713   8.139   6.026  3.1188 -0.5687 -2.9492
  814MOL0     H 7388   2.675   8.219   5.884 -0.1329 -2.0777 -0.0303
  814MOL0     H 7389   2.513   8.369   5.997  3.8049  0.6963 -0.6019
  814MOL0     H 7390   2.528   8.288   6.152 -3.4748 -2.2155  0.6252
  814MOL0     H 7391   2.331   8.225   6.006  0.1408 -0.1197  0.4746
  814MOL0     H 7392   2.452   8.167   5.879  3.0714  0.0012  0.1695
  814MOL0     H 7393   2.421   8.067   6.176 -0.5027 -0.3991  0.4403
  814MOL0     H 7394   2.534   8.008   6.049  0.0805  1.6923  0.7979
  814MOL0     H 7395   2.230   8.010   5.995 -0.7937 -1.2573 -0.6927
  814MOL0     H 7396   2.300   7.888   6.106 -1.4217 -1.8558 -1.9463
  814MOL0     H 7397   2.384   7.950   5.823  0.1437 -0.0617  0.5242
  814MOL0     H 7398   2.444   7.809   5.917  0.9326  0.2512  1.2110
  814MOL0     H 7399   2.256   7.698   5.929  0.9204  1.3745  0.3566
  814MOL0     H 7400   2.284   7.744   5.758  1.1384 -1.3544  0.4634
  814MOL0     H 7401   2.003   7.674   5.951 -2.6711  0.1902 -0.8893
  814MOL0     H 7402   1.732   7.852   5.973  2.5511  1.4325 -0.0459
  814MOL0     H 7403   1.746   7.701   5.901  3.0371 -0.4875  0.5707
  814MOL0     H 7404   1.677   7.787   5.686 -1.0132 -1.0786  0.2142
  814MOL0     H 7405   1.679   7.963   5.735  2.1723 -1.2790 -1.9058
  814MOL0     H 7406   1.490   7.740   5.812  4.5921 -2.5272 -4.1771
  814MOL0     H 7407   1.483   7.911   5.876 -2.2082 -2.1201 -0.4233
  814MOL0     H 7408   1.431   8.017   5.681 -1.2766  1.4269 -1.3225
  814MOL0     H 7409   1.323   7.891   5.737  1.4998  2.9310  4.5104
  814MOL0     H 7410   1.264   7.684   5.698  1.5954  0.5810 -0.1945
  814MOL0     H 7411   1.098   7.543   5.584 -0.4652  2.0673  0.7837
  814MOL0     H 7412   0.949   7.285   5.124 -2.2964 -5.0164  0.0987
  814MOL0     H 7413   0.738   7.183   5.066 -0.2889  0.6344 -0.1853
  814MOL0     H 7414   0.441   7.334   5.152 -4.6466  1.1989 -0.9252
  814MOL0     H 7415   0.356   7.266   5.287 -0.4947  1.2450 -0.5541
  814MOL0     H 7416   0.270   7.083   5.132 -2.6064  2.3393  1.7773
  814MOL0     H 7417   0.389   7.130   5.016  1.1052  4.7049 -1.6902
  814MOL0     H 7418   0.153   7.176   4.958 -1.9673  1.9345 -0.4816
  814MOL0     H 7419   0.231   7.336   4.970 -1.1506  0.9269  0.0584
  814MOL0     H 7420   0.058   7.198   5.172  0.7203 -0.0108 -0.4757
  814MOL0     H 7421   0.133   7.351   5.209 -0.7162 -0.4898  0.6105
  814MOL0     H 7422  -0.050   7.318   4.972  1.6237  0.7033 -1.3954
  814MOL0     H 7423   0.011   7.467   5.048 -0.9526  0.0895  0.5814
  814MOL0     H 7424  -0.113   7.396   5.258 -0.1453 -0.7917 -0.1996
  814MOL0     H 7425  -0.184   7.262   5.166 -3.0800  0.7405  1.7727
  814MOL0     H 7426  -0.219   7.561   5.078 -0.0545 -0.2902 -1.8159
  814MOL0     H 7427  -0.288   7.416   5.011 -2.3914 -1.5426  1.6809
  814MOL0     H 7428  -0.362   7.491   5.293 -1.3681  1.1504  0.7138
  814MOL0     H 7429  -0.428   7.362   5.195  0.9438 -0.0458 -0.2747
  814MOL0     H 7430   0.569   7.277   5.449 -2.8719  0.3716 -2.7359
  814MOL0     H 7431   0.757   7.409   5.499 -2.1762 -2.4543  1.3324
  814MOL0     H 7432   1.298   7.614   5.202 -1.0114  1.1555 -1.4015
  814MOL0     H 7433   1.442   7.787   5.330  2.9143 -3.2480  1.6441
  814MOL0     H 7434   2.887   8.580   6.041  0.2557  0.0153  0.9005
  814MOL0     H 7435   3.065   8.740   6.071 -0.7861  0.1896  1.6240
  814MOL0     H 7436   3.504   8.882   5.793  2.6435 -2.0246 -1.4077
  814MOL0     H 7437   3.717   9.008   5.821 -1.8024  1.2378  0.1408
  814MOL0     H 7438   3.909   9.178   5.942  0.0885  0.4452  2.0022
  814MOL0     H 7439   3.937   9.013   5.895  0.6639 -0.0599  0.2266
  814MOL0     H 7440   4.087   9.168   6.109  2.2061  0.3984 -0.5589
  814MOL0     H 7441   4.108   8.997   6.076 -5.7920 -1.6176  0.6119
  814MOL0     H 7442   4.139   9.219   5.874 -4.5754  1.4055  5.5245
  814MOL0     H 7443   4.134   9.045   5.823 -0.8065  0.4355 -0.5897
  814MOL0     H 7444   4.380   9.107   5.847  0.2650  0.6772  0.3630
  814MOL0     H 7445   4.347   9.169   6.014  2.0696  2.0438 -1.8686
  814MOL0     H 7446   4.386   8.745   6.066  0.3306 -0.4888 -0.9874
  814MOL0     H 7447   3.749   8.882   6.234 -1.2306 -0.8961  0.7117
  814MOL0     H 7448   3.519   8.778   6.214  0.8923  0.3960  0.5973
  815MOL0     O 7449   2.738   8.629   3.426 -0.6650 -0.4975  0.3718
  815MOL0     C 7450   2.816   8.536   3.422 -0.2937 -0.1665 -1.1330
  815MOL0     O 7451   2.795   8.407   3.462  0.3819 -0.8126  0.0429
  815MOL0     C 7452   2.690   8.364   3.540 -0.1281 -0.9827 -0.7951
  815MOL0     C 7453   2.611   8.430   3.634 -0.0231 -0.7992  0.8441
  815MOL0     C 7454   2.520   8.362   3.717 -0.7414  0.1476  0.3324
  815MOL0     C 7455   2.504   8.225   3.717  0.7130 -0.5116  0.2210
  815MOL0     O 7456   2.412   8.171   3.802  0.0842  0.6809 -0.2988
  815MOL0     C 7457   2.347   8.047   3.760 -0.5701  0.5130  0.1202
  815MOL0     C 7458   2.222   8.014   3.843 -0.6782  0.2630  0.5124
  815MOL0     C 7459   2.254   8.022   3.993 -0.2678  0.0885 -0.2889
  815MOL0     C 7460   2.142   7.959   4.076  1.0491 -0.5325 -0.5035
  815MOL0     C 7461   2.173   7.966   4.224 -0.2215  0.4245 -0.2713
  815MOL0     C 7462   2.053   7.937   4.315  0.7526  0.2790 -0.4005
  815MOL0     C 7463   1.929   8.011   4.273 -0.0950 -0.5497  0.5745
  815MOL0     C 7464   1.829   8.023   4.385  0.7292 -0.0864  0.4336
  815MOL0     N 7465   1.777   7.894   4.429  0.5361  0.3698 -0.3319
  815MOL0     C 7466   1.699   7.881   4.546  0.6360 -0.6849 -0.1226
  815MOL0     C 7467   1.655   7.755   4.553 -0.0367  1.3301  1.3899
  815MOL0     C 7468   1.582   7.696   4.674 -1.4392  0.5132 -0.1087
  815MOL0     C 7469   1.445   7.747   4.675  0.2197  0.7519 -0.2746
  815MOL0     C 7470   1.367   7.684   4.557 -0.6028  1.3791 -0.6346
  815MOL0     C 7471   1.212   7.682   4.597  0.2047  0.4044  0.1133
  815MOL0     O 7472   1.179   7.816   4.624  0.2086 -0.0219 -0.4285
  815MOL0     C 7473   1.047   7.826   4.667  0.4162 -0.0913  0.5587
  815MOL0     C 7474   0.946   7.826   4.567  0.2420  1.1762 -0.4736
  815MOL0     C 7475   0.809   7.848   4.596 -0.3154  0.5963  0.1863
  815MOL0     C 7476   0.773   7.857   4.734 -0.5438 -0.6642  1.1270
  815MOL0     C 7477   0.634   7.882   4.769 -0.3582 -0.3040  1.0851
  815MOL0     O 7478   0.542   7.857   4.669 -0.3753  0.2316  0.1628
  815MOL0     C 7479   0.409   7.870   4.690  0.7380 -0.7307 -0.1759
  815MOL0     C 7480   0.339   7.836   4.804 -0.4448  0.8338 -0.2332
  815MOL0     C 7481   0.205   7.862   4.808 -0.1712 -0.7957 -0.3545
  815MOL0     C 7482   0.132   7.931   4.712 -0.8877 -0.2925 -0.6970
  815MOL0     O 7483  -0.004   7.955   4.734 -0.2018 -0.9909  1.7312
  815MOL0     C 7484  -0.074   8.017   4.624  0.2052  0.5818 -0.4706
  815MOL0     C 7485  -0.137   7.921   4.529 -0.0580  0.6364  1.0570
  815MOL0     C 7486  -0.213   7.985   4.422  0.5182  0.2178 -0.5018
  815MOL0     C 7487  -0.296   7.886   4.336  0.2179 -0.0771 -1.3074
  815MOL0     C 7488  -0.446   7.878   4.377  0.2023  0.2978 -0.5957
  815MOL0     C 7489  -0.530   8.000   4.354  1.1554 -0.3551 -0.6596
  815MOL0     C 7490  -0.683   7.976   4.328  0.0096  1.0612 -0.2647
  815MOL0     C 7491  -0.760   8.001   4.458 -0.0225  0.2777 -0.9431
  815MOL0    Cl 7492  -0.938   7.953   4.412 -0.2984  0.0758  0.0565
  815MOL0     C 7493   0.210   7.957   4.599 -0.7899  0.1544  0.6663
  815MOL0     C 7494   0.344   7.929   4.582 -0.1509  0.4977 -0.4424
  815MOL0     O 7495   0.609   7.935   4.877  0.7512  0.5845  0.0209
  815MOL0     C 7496   0.877   7.849   4.834 -0.5154  0.5588 -0.6440
  815MOL0     C 7497   1.009   7.835   4.802  0.8604  0.3927 -0.2965
  815MOL0     N 7498   1.716   7.688   4.442 -0.3412  0.5854 -0.2902
  815MOL0     N 7499   1.788   7.773   4.379  0.2627 -0.0744  1.6084
  815MOL0     C 7500   2.579   8.153   3.629 -0.5636  0.9131  0.4739
  815MOL0     C 7501   2.672   8.226   3.547 -0.2370 -0.4409 -0.8599
  815MOL0     C 7502   2.954   8.571   3.374 -0.4479  1.4763  0.1490
  815MOL0     C 7503   2.961   8.643   3.259  0.3937  1.0081  0.4900
  815MOL0     C 7504   3.078   8.684   3.213 -0.1343 -0.2563  0.5856
  815MOL0     C 7505   3.201   8.657   3.265  0.4937  1.0587 -0.1399
  815MOL0     O 7506   3.318   8.709   3.199  0.5559  0.4880 -0.6499
  815MOL0     C 7507   3.433   8.629   3.180  0.2011  0.7467  0.1976
  815MOL0     C 7508   3.426   8.482   3.141 -0.4808 -0.1532 -0.6513
  815MOL0     C 7509   3.355   8.470   3.005  0.0263  0.4978 -0.6962
  815MOL0     C 7510   3.390   8.340   2.929  0.6064  0.1010  0.5357
  815MOL0     C 7511   3.301   8.314   2.815  0.9381 -0.2817 -0.3680
  815MOL0     C 7512   3.225   8.308   2.715  0.6787 -0.8698  0.0547
  815MOL0     C 7513   3.198   8.584   3.380 -0.3266  0.4872  0.0464
  815MOL0     C 7514   3.075   8.543   3.434 -0.5083 -1.1823 -0.7893
  815MOL0     H 7515   2.601   8.538   3.643  1.4668 -0.6781  1.2953
  815MOL0     H 7516   2.452   8.421   3.779 -1.5978 -1.4275  0.9387
  815MOL0     H 7517   2.412   7.959   3.771 -1.4673 -0.2133 -0.2142
  815MOL0     H 7518   2.303   8.047   3.659  0.0624 -1.5757 -0.2221
  815MOL0     H 7519   2.184   7.919   3.805  1.8040 -0.5557 -0.1016
  815MOL0     H 7520   2.150   8.094   3.826 -1.9930 -0.7541  1.1138
  815MOL0     H 7521   2.274   8.126   4.017  1.9162  0.1086 -1.9370
  815MOL0     H 7522   2.349   7.968   4.002 -0.3717  0.0117  0.4898
  815MOL0     H 7523   2.049   8.014   4.058  0.6370 -0.1300  2.4068
  815MOL0     H 7524   2.127   7.858   4.038 -2.7351 -0.1158 -0.4414
  815MOL0     H 7525   2.214   8.063   4.252  2.9712 -0.5979 -1.0447
  815MOL0     H 7526   2.261   7.904   4.243 -0.9370  0.0218  2.0285
  815MOL0     H 7527   2.079   7.964   4.418 -2.2841  1.6853  0.1148
  815MOL0     H 7528   2.027   7.832   4.303 -0.4272  0.5863 -0.6032
  815MOL0     H 7529   1.955   8.109   4.231  2.8445 -2.5316 -2.7665
  815MOL0     H 7530   1.887   7.967   4.182 -0.3527  0.7997  0.0123
  815MOL0     H 7531   1.740   8.073   4.347  1.0571 -1.7276 -2.8378
  815MOL0     H 7532   1.870   8.088   4.464  0.2126 -1.6397  2.0572
  815MOL0     H 7533   1.667   7.961   4.612 -0.9314 -0.0166 -1.6334
  815MOL0     H 7534   1.630   7.730   4.766 -1.8679  0.1171  0.2689
  815MOL0     H 7535   1.597   7.588   4.670  0.3895  0.7565 -1.2781
  815MOL0     H 7536   1.441   7.857   4.677 -1.0718  0.7488 -1.0194
  815MOL0     H 7537   1.405   7.710   4.770  0.2866 -2.5043 -1.3894
  815MOL0     H 7538   1.394   7.729   4.461 -3.6106  1.1631 -1.7102
  815MOL0     H 7539   1.397   7.580   4.540  0.6157  1.9368 -2.1619
  815MOL0     H 7540   1.197   7.618   4.684  0.1236 -0.7681 -0.7543
  815MOL0     H 7541   1.147   7.644   4.518  1.4077 -0.6749 -0.3936
  815MOL0     H 7542   0.980   7.827   4.464  3.5225  1.5463  0.4899
  815MOL0     H 7543   0.742   7.848   4.511 -0.4292 -0.7326  0.2588
  815MOL0     H 7544   0.405   7.784   4.872  2.9197 -1.2833 -4.5848
  815MOL0     H 7545   0.162   7.820   4.898  1.4838  1.0636  1.3921
  815MOL0     H 7546  -0.005   8.081   4.567  1.1789  2.0815  2.1902
  815MOL0     H 7547  -0.156   8.084   4.652  0.0082  0.6729 -1.2353
  815MOL0     H 7548  -0.190   7.842   4.583 -1.1903  1.8221  1.7365
  815MOL0     H 7549  -0.060   7.872   4.467  0.9891  3.0899  0.2872
  815MOL0     H 7550  -0.150   8.036   4.349 -0.1030  0.2910 -0.9932
  815MOL0     H 7551  -0.274   8.068   4.460 -1.2085 -1.0814 -0.3469
  815MOL0     H 7552  -0.308   7.928   4.236 -2.9645  0.8644 -0.6625
  815MOL0     H 7553  -0.249   7.787   4.334 -0.2103 -0.4215  1.3506
  815MOL0     H 7554  -0.460   7.869   4.485  0.8852 -3.3395 -0.6840
  815MOL0     H 7555  -0.495   7.799   4.319  4.3757 -1.0810 -2.6378
  815MOL0     H 7556  -0.483   8.053   4.270  2.9701 -1.9242 -0.7170
  815MOL0     H 7557  -0.512   8.059   4.445 -0.9664 -0.0311 -0.4115
  815MOL0     H 7558  -0.725   8.058   4.269  2.2436  1.6300 -1.1467
  815MOL0     H 7559  -0.700   7.875   4.289 -0.3041  1.1733 -0.4262
  815MOL0     H 7560  -0.754   8.103   4.496 -1.0524 -0.4286  1.3131
  815MOL0     H 7561  -0.715   7.931   4.530  0.5571 -0.0306 -1.5902
  815MOL0     H 7562   0.167   8.007   4.513 -1.3048 -1.5461 -0.1132
  815MOL0     H 7563   0.399   7.958   4.493  0.4267 -1.5617 -0.8205
  815MOL0     H 7564   0.852   7.846   4.940  0.8203 -0.6727 -0.3439
  815MOL0     H 7565   1.084   7.835   4.881 -0.1480  0.0925  0.6941
  815MOL0     H 7566   2.569   8.046   3.644  1.2086  0.5655 -0.5907
  815MOL0     H 7567   2.733   8.169   3.478  0.5406 -1.0791  0.3045
  815MOL0     H 7568   2.873   8.677   3.204  0.8230  0.6532 -0.4375
  815MOL0     H 7569   3.077   8.751   3.128 -1.5812  0.1770  0.9120
  815MOL0     H 7570   3.496   8.632   3.269  0.5977 -2.0639  0.0950
  815MOL0     H 7571   3.483   8.684   3.099 -0.4232  0.8895 -0.0971
  815MOL0     H 7572   3.526   8.440   3.129 -0.2290 -0.0018  0.7229
  815MOL0     H 7573   3.381   8.434   3.228 -1.1647  4.7281  2.0978
  815MOL0     H 7574   3.383   8.552   2.939  2.3852 -1.1667 -1.9010
  815MOL0     H 7575   3.247   8.478   3.024  0.3175 -0.1615  1.5248
  815MOL0     H 7576   3.487   8.352   2.879 -0.2836 -2.8894 -2.2760
  815MOL0     H 7577   3.385   8.256   2.998 -1.7603  0.8774  1.3903
  815MOL0     H 7578   3.157   8.297   2.633  2.3683 -3.3649 -1.1369
  815MOL0     H 7579   3.293   8.552   3.420  0.3262 -1.4030 -2.7860
  815MOL0     H 7580   3.066   8.487   3.526  0.7330 -0.1352 -0.0059
  816MOL0     O 7581   5.160   5.838   4.161 -0.1813 -0.0816  0.9847
  816MOL0     C 7582   5.190   5.738   4.228  0.1247 -0.3668 -0.6502
  816MOL0     O 7583   5.127   5.689   4.340  0.6646  0.5229  0.5207
  816MOL0     C 7584   5.017   5.738   4.395 -0.2887  0.2105 -1.3393
  816MOL0     C 7585   5.014   5.871   4.423 -0.7998  0.6295 -0.5925
  816MOL0     C 7586   4.902   5.932   4.479 -0.3143  0.0811  0.9475
  816MOL0     C 7587   4.788   5.856   4.519  0.2979  1.1060  0.3053
  816MOL0     O 7588   4.686   5.906   4.590  0.2816  0.1668 -0.2535
  816MOL0     C 7589   4.724   5.938   4.723 -0.3615 -0.0181  0.5480
  816MOL0     C 7590   4.610   6.004   4.791  0.6519 -0.3385 -0.1400
  816MOL0     C 7591   4.564   6.136   4.719 -0.5642  0.3661 -0.8098
  816MOL0     C 7592   4.641   6.268   4.756 -0.0290  0.3475  0.5076
  816MOL0     C 7593   4.558   6.356   4.842  0.0406  0.0855 -0.8105
  816MOL0     C 7594   4.621   6.490   4.857  0.3049  0.5278 -0.1711
  816MOL0     C 7595   4.740   6.497   4.954  1.0410  0.1094  0.3997
  816MOL0     C 7596   4.694   6.496   5.099  0.0422  0.4017 -0.1108
  816MOL0     N 7597   4.640   6.626   5.140 -0.3092 -0.4213  0.0493
  816MOL0     C 7598   4.695   6.750   5.134  0.1547  0.4281  0.6244
  816MOL0     C 7599   4.637   6.819   5.236 -0.5089 -0.6543 -0.4522
  816MOL0     C 7600   4.684   6.960   5.278  0.3291  0.4028 -0.2721
  816MOL0     C 7601   4.598   7.063   5.200 -0.1819  0.3616  0.1203
  816MOL0     C 7602   4.648   7.206   5.215  0.5035  0.0273 -0.4003
  816MOL0     C 7603   4.785   7.234   5.155  1.2549  0.4175  0.1095
  816MOL0     O 7604   4.814   7.375   5.153 -0.5931  1.2655  0.0376
  816MOL0     C 7605   4.936   7.424   5.186  0.0405  0.4498  0.6263
  816MOL0     C 7606   5.012   7.364   5.293  0.5082  0.5512 -0.4080
  816MOL0     C 7607   5.146   7.396   5.322 -0.9081  0.8143 -0.6263
  816MOL0     C 7608   5.203   7.504   5.257 -0.3309  0.0160 -0.4235
  816MOL0     C 7609   5.338   7.547   5.298 -0.2382 -0.5302  1.1647
  816MOL0     O 7610   5.394   7.468   5.390 -0.6311 -0.8935  0.5989
  816MOL0     C 7611   5.510   7.509   5.452 -0.9820 -0.7867  0.0454
  816MOL0     C 7612   5.630   7.451   5.401  0.3743 -0.3918 -0.6495
  816MOL0     C 7613   5.758   7.479   5.462 -0.1397 -0.1258 -0.1429
  816MOL0     C 7614   5.766   7.587   5.551 -0.5324 -0.0666  0.5963
  816MOL0     O 7615   5.893   7.618   5.587 -0.3589  0.4311  0.5764
  816MOL0     C 7616   5.925   7.667   5.710 -0.0381  0.2170 -1.1924
  816MOL0     C 7617   6.077   7.715   5.700  0.4391 -0.3051 -0.8487
  816MOL0     C 7618   6.161   7.590   5.679 -1.3858 -0.1051  1.1071
  816MOL0     C 7619   6.319   7.616   5.685 -0.0789 -0.2009  0.2005
  816MOL0     C 7620   6.387   7.481   5.677 -1.0253  0.3480  0.3691
  816MOL0     C 7621   6.540   7.505   5.690  1.1095 -0.1565  0.5931
  816MOL0     C 7622   6.651   7.396   5.699 -0.2249  0.7969  1.1194
  816MOL0     C 7623   6.653   7.308   5.572 -0.0807  0.7023  0.2860
  816MOL0    Cl 7624   6.513   7.194   5.604  0.8486  0.0141  0.1189
  816MOL0     C 7625   5.652   7.665   5.581 -0.5485  0.4504  0.0558
  816MOL0     C 7626   5.529   7.617   5.539  1.2368 -0.3157  0.6115
  816MOL0     O 7627   5.391   7.647   5.245  0.0521 -0.3040  0.2011
  816MOL0     C 7628   5.128   7.569   5.154  0.1455 -0.5373  0.2505
  816MOL0     C 7629   4.997   7.531   5.121  0.6927  0.6790 -0.1860
  816MOL0     N 7630   4.544   6.739   5.311  0.7402 -0.4560 -0.4625
  816MOL0     N 7631   4.558   6.619   5.258 -0.2470 -0.1501  0.5503
  816MOL0     C 7632   4.793   5.719   4.497 -0.3357  0.4507  0.0011
  816MOL0     C 7633   4.911   5.663   4.444 -0.6810  0.9952  0.4374
  816MOL0     C 7634   5.317   5.669   4.187  1.0025 -0.0247 -0.4305
  816MOL0     C 7635   5.424   5.747   4.185 -0.2188 -0.8461  0.4535
  816MOL0     C 7636   5.545   5.697   4.157  0.5116 -0.0912 -0.3459
  816MOL0     C 7637   5.566   5.556   4.157  0.5068 -1.0591  0.8326
  816MOL0     O 7638   5.696   5.499   4.176  0.2483  0.6096  0.5055
  816MOL0     C 7639   5.811   5.584   4.179  0.3155 -1.1350  1.2066
  816MOL0     C 7640   5.947   5.510   4.210 -0.1967  0.7016  0.4303
  816MOL0     C 7641   5.946   5.444   4.359 -0.3598  0.8823 -0.4492
  816MOL0     C 7642   6.076   5.379   4.394 -0.0775  0.0106 -0.5385
  816MOL0     C 7643   6.103   5.250   4.324  0.5018  0.0912 -0.2358
  816MOL0     C 7644   6.119   5.144   4.263 -0.7499  0.4592 -0.1654
  816MOL0     C 7645   5.441   5.479   4.149 -1.0489  0.4534 -0.7673
  816MOL0     C 7646   5.320   5.533   4.162  0.1455 -0.4028  0.4632
  816MOL0     H 7647   5.088   5.939   4.383  0.2864  1.5175  2.6700
  816MOL0     H 7648   4.894   6.038   4.501 -2.0501 -0.2869  2.2917
  816MOL0     H 7649   4.816   5.997   4.716  0.6903 -1.6472 -0.0418
  816MOL0     H 7650   4.748   5.848   4.782 -1.6013  1.8644  4.2482
  816MOL0     H 7651   4.640   6.019   4.895 -1.9865 -0.9783  0.7786
  816MOL0     H 7652   4.535   5.925   4.787  0.6766 -0.6829  3.3365
  816MOL0     H 7653   4.458   6.150   4.743  0.1038  1.1648  2.1727
  816MOL0     H 7654   4.568   6.122   4.611  1.0505 -0.1761 -0.7145
  816MOL0     H 7655   4.739   6.252   4.801 -1.1480 -2.7345  2.2180
  816MOL0     H 7656   4.662   6.327   4.667 -2.1626  1.0036  0.3869
  816MOL0     H 7657   4.535   6.301   4.933 -0.5647  1.2085 -0.2719
  816MOL0     H 7658   4.463   6.368   4.788  1.1836  0.7575 -2.7979
  816MOL0     H 7659   4.542   6.558   4.890 -0.1730  0.2040 -0.6448
  816MOL0     H 7660   4.646   6.516   4.754  1.0266 -0.7996 -0.3492
  816MOL0     H 7661   4.809   6.413   4.943 -0.1670 -1.5288  3.9545
  816MOL0     H 7662   4.791   6.592   4.936 -3.2048  2.5694 -0.0085
  816MOL0     H 7663   4.782   6.481   5.163  0.7515 -1.3978 -1.4272
  816MOL0     H 7664   4.636   6.407   5.126  2.3902 -1.3866 -0.5688
  816MOL0     H 7665   4.774   6.790   5.070 -0.0630 -0.5451 -0.2758
  816MOL0     H 7666   4.787   6.981   5.246 -0.2334  1.2637 -1.6333
  816MOL0     H 7667   4.674   6.963   5.386 -1.1085 -0.7651 -0.3480
  816MOL0     H 7668   4.492   7.048   5.225 -0.2706  1.9784  0.8317
  816MOL0     H 7669   4.606   7.051   5.092  2.2247  2.3874 -0.0093
  816MOL0     H 7670   4.582   7.274   5.161 -3.1105 -2.0801  0.9854
  816MOL0     H 7671   4.638   7.225   5.323 -1.0746  0.3595 -0.5791
  816MOL0     H 7672   4.782   7.200   5.051 -1.7155  0.2105  0.1843
  816MOL0     H 7673   4.867   7.173   5.195  0.1778 -0.5893  0.8202
  816MOL0     H 7674   4.966   7.283   5.349 -1.8706 -0.1370 -3.1132
  816MOL0     H 7675   5.189   7.342   5.406 -3.2337  0.8062  0.6481
  816MOL0     H 7676   5.627   7.377   5.321  0.3567 -1.1165  0.0047
  816MOL0     H 7677   5.846   7.428   5.423  1.4954  1.2021  1.6549
  816MOL0     H 7678   5.915   7.592   5.790 -1.7077  0.1922 -1.3859
  816MOL0     H 7679   5.868   7.757   5.733  1.9446  0.8418  1.8177
  816MOL0     H 7680   6.106   7.772   5.789  1.3156 -0.9170 -0.7310
  816MOL0     H 7681   6.083   7.777   5.610 -0.1064 -3.5223 -3.2490
  816MOL0     H 7682   6.127   7.537   5.589 -0.5208  0.0229  0.6923
  816MOL0     H 7683   6.141   7.515   5.756  0.1102 -2.8001 -0.9597
  816MOL0     H 7684   6.344   7.685   5.604 -2.6569  2.4282  1.4493
  816MOL0     H 7685   6.354   7.665   5.777 -2.3961  1.8323  0.0973
  816MOL0     H 7686   6.359   7.433   5.583 -1.6373  0.8950  0.2612
  816MOL0     H 7687   6.344   7.416   5.754 -0.4472 -1.2313 -0.5924
  816MOL0     H 7688   6.555   7.567   5.779 -0.3776  1.7689 -0.4272
  816MOL0     H 7689   6.548   7.571   5.603  0.7085 -0.4840  0.3064
  816MOL0     H 7690   6.747   7.442   5.727  0.2768  0.0358  0.6873
  816MOL0     H 7691   6.616   7.331   5.780 -2.0945  0.5798  0.1836
  816MOL0     H 7692   6.744   7.248   5.561 -0.4049 -0.1681  1.9625
  816MOL0     H 7693   6.626   7.378   5.492 -0.5030 -0.9129 -1.0674
  816MOL0     H 7694   5.673   7.755   5.637  1.6025  0.0781 -0.0693
  816MOL0     H 7695   5.440   7.676   5.561  1.6692  0.7123 -0.3424
  816MOL0     H 7696   5.167   7.650   5.093 -1.0084  0.0977  0.3166
  816MOL0     H 7697   4.932   7.581   5.049 -1.5521 -1.1269  0.4340
  816MOL0     H 7698   4.716   5.651   4.533  1.3587 -1.0666  0.9744
  816MOL0     H 7699   4.914   5.554   4.438  0.0269  1.0818 -1.5956
  816MOL0     H 7700   5.425   5.855   4.190 -1.5176 -0.7724 -0.3611
  816MOL0     H 7701   5.622   5.772   4.144  0.1687  0.4103  0.4187
  816MOL0     H 7702   5.798   5.656   4.260 -2.6608  1.9795 -1.6898
  816MOL0     H 7703   5.813   5.626   4.078 -4.3108 -0.1302  1.3318
  816MOL0     H 7704   5.957   5.427   4.139 -2.8338 -0.6875  1.5541
  816MOL0     H 7705   6.036   5.574   4.208  0.8058 -0.6645  0.2505
  816MOL0     H 7706   5.861   5.383   4.391  0.4177  0.6717  1.3192
  816MOL0     H 7707   5.939   5.535   4.419 -0.9969  0.5820 -0.0582
  816MOL0     H 7708   6.170   5.430   4.372  1.4410 -2.3086  0.1914
  816MOL0     H 7709   6.073   5.367   4.503  1.6134  6.1176  0.5811
  816MOL0     H 7710   6.131   5.048   4.219  2.1001 -0.0265  1.4083
  816MOL0     H 7711   5.462   5.372   4.149  2.0770  0.9330  0.5076
  816MOL0     H 7712   5.227   5.477   4.170  0.9243 -2.4086 -2.6286
  817MOL0     O 7713   3.854   5.515   4.935  0.3867  1.5247 -0.1300
  817MOL0     C 7714   3.807   5.409   4.984 -0.0237  0.6087  0.1262
  817MOL0     O 7715   3.879   5.292   5.012 -0.2806 -0.5289  0.2049
  817MOL0     C 7716   4.015   5.260   4.990 -0.4707  0.0002  0.5224
  817MOL0     C 7717   4.112   5.353   4.964  0.3932 -0.4864  0.9003
  817MOL0     C 7718   4.242   5.314   4.946  0.3102 -0.5077  0.2112
  817MOL0     C 7719   4.275   5.181   4.968 -0.1853  0.8105 -0.0899
  817MOL0     O 7720   4.404   5.148   4.931  1.2696 -0.2580 -0.6209
  817MOL0     C 7721   4.494   5.167   5.040 -0.0832  0.2003 -0.9197
  817MOL0     C 7722   4.628   5.106   4.989  0.1552  0.2873  0.7072
  817MOL0     C 7723   4.690   5.198   4.878  0.2603 -0.4114 -0.7568
  817MOL0     C 7724   4.808   5.123   4.813 -0.2962  0.2249  0.1271
  817MOL0     C 7725   4.880   5.206   4.707  0.3297 -0.2471  0.4998
  817MOL0     C 7726   4.799   5.260   4.586  0.4887  0.2670  0.5274
  817MOL0     C 7727   4.752   5.154   4.481 -0.2988 -0.0903 -0.3463
  817MOL0     C 7728   4.861   5.104   4.388 -0.0492  0.2309  0.6146
  817MOL0     N 7729   4.893   5.193   4.277 -0.3401 -0.1693  0.0587
  817MOL0     C 7730   4.821   5.229   4.167 -0.0015 -0.6914 -0.0683
  817MOL0     C 7731   4.893   5.315   4.105  0.6059  0.7259  0.1478
  817MOL0     C 7732   4.862   5.386   3.974  0.4250 -0.2071 -0.4350
  817MOL0     C 7733   4.830   5.535   3.991 -0.1056 -0.6884 -0.1058
  817MOL0     C 7734   4.727   5.563   4.099 -0.5410 -0.0425  0.4688
  817MOL0     C 7735   4.675   5.706   4.107 -0.5186  0.2636 -0.0887
  817MOL0     O 7736   4.589   5.737   3.997 -0.3036  0.3433  0.0970
  817MOL0     C 7737   4.477   5.655   3.992 -0.5696  0.6225 -0.1738
  817MOL0     C 7738   4.377   5.676   4.088  0.8523  1.2904  0.7218
  817MOL0     C 7739   4.256   5.600   4.081  0.3398  0.3294 -0.2517
  817MOL0     C 7740   4.230   5.513   3.966  0.6823  0.1488 -0.1673
  817MOL0     C 7741   4.111   5.416   3.968  0.0918 -0.6374 -0.1282
  817MOL0     O 7742   4.040   5.419   4.090  0.2540 -0.0201 -0.3013
  817MOL0     C 7743   3.940   5.332   4.108 -0.2451 -0.6354 -0.2611
  817MOL0     C 7744   3.933   5.196   4.073  0.0198  1.3089  0.3353
  817MOL0     C 7745   3.811   5.123   4.104 -0.4997  0.4866 -0.0153
  817MOL0     C 7746   3.699   5.181   4.146  0.2339  0.0142  0.1229
  817MOL0     O 7747   3.584   5.101   4.152 -0.4413 -0.8574  0.4396
  817MOL0     C 7748   3.483   5.116   4.253  0.4000 -0.1564 -0.0057
  817MOL0     C 7749   3.407   4.987   4.258  0.7400  0.4111  0.4742
  817MOL0     C 7750   3.326   4.957   4.129 -0.6718  0.3804  1.0869
  817MOL0     C 7751   3.231   4.843   4.139 -0.3308 -0.7895 -0.3221
  817MOL0     C 7752   3.139   4.815   4.020 -0.2649  0.8332  0.9626
  817MOL0     C 7753   3.224   4.741   3.919 -0.2134  0.1957  0.3412
  817MOL0     C 7754   3.143   4.724   3.778 -0.0413  0.0451 -0.3789
  817MOL0     C 7755   3.228   4.649   3.672  0.4665 -0.0836  0.4435
  817MOL0    Cl 7756   3.349   4.759   3.610 -0.2680 -0.1544 -0.0098
  817MOL0     C 7757   3.701   5.323   4.167  0.3407 -0.0699  0.0499
  817MOL0     C 7758   3.823   5.392   4.157 -0.0297 -0.1725  0.7830
  817MOL0     O 7759   4.101   5.331   3.877  0.5747 -0.6277 -1.0818
  817MOL0     C 7760   4.336   5.505   3.872  0.6910 -0.0408  0.2555
  817MOL0     C 7761   4.461   5.572   3.884  0.5795 -1.0017 -0.4850
  817MOL0     N 7762   5.004   5.337   4.166  0.4656 -0.9372  0.5470
  817MOL0     N 7763   4.998   5.276   4.275 -0.6810  0.5091 -0.1283
  817MOL0     C 7764   4.179   5.083   4.999  0.9989 -0.2951  0.5265
  817MOL0     C 7765   4.045   5.125   5.011 -0.2793  0.7149  0.6538
  817MOL0     C 7766   3.659   5.433   5.017  0.0438  0.8669 -0.3250
  817MOL0     C 7767   3.598   5.323   5.088  1.0094  0.5913  0.0842
  817MOL0     C 7768   3.459   5.318   5.092  1.1387  0.0595  0.6885
  817MOL0     C 7769   3.381   5.421   5.039 -0.8964 -0.0593 -1.0488
  817MOL0     O 7770   3.243   5.432   5.034 -0.1359 -0.5298 -0.8906
  817MOL0     C 7771   3.162   5.324   5.072 -0.1444 -0.2021 -0.2479
  817MOL0     C 7772   3.125   5.244   4.951 -1.1522 -0.4363 -0.1259
  817MOL0     C 7773   3.035   5.127   4.988  0.6765  1.0761  0.5661
  817MOL0     C 7774   2.902   5.121   4.912  0.9114  0.8487 -0.7323
  817MOL0     C 7775   2.799   5.044   4.990  0.0607 -0.4056  0.7513
  817MOL0     C 7776   2.713   4.988   5.047  0.8314 -0.1552  0.1269
  817MOL0     C 7777   3.444   5.527   4.981  0.1910 -0.0657  0.4155
  817MOL0     C 7778   3.583   5.546   4.980  0.3352  0.9274 -0.3187
  817MOL0     H 7779   4.086   5.459   4.965  0.9680 -0.2879  4.0883
  817MOL0     H 7780   4.312   5.390   4.911 -1.2934  1.0163  0.2202
  817MOL0     H 7781   4.466   5.116   5.132  0.5128  3.8937  1.5527
  817MOL0     H 7782   4.520   5.271   5.062  2.1601 -0.6035  0.6280
  817MOL0     H 7783   4.616   5.003   4.955 -2.7866 -0.8229  4.4501
  817MOL0     H 7784   4.701   5.111   5.070  1.0301  0.9267 -0.0965
  817MOL0     H 7785   4.716   5.296   4.918 -1.6108 -0.0099 -0.3890
  817MOL0     H 7786   4.607   5.224   4.811 -1.9584  0.3460  2.0853
  817MOL0     H 7787   4.885   5.100   4.887  2.3201 -0.7383 -2.6548
  817MOL0     H 7788   4.773   5.025   4.778 -2.5295  0.9269  0.2566
  817MOL0     H 7789   4.968   5.148   4.676 -1.2404 -3.1652  1.1619
  817MOL0     H 7790   4.926   5.291   4.756  1.1547  0.2254 -1.0390
  817MOL0     H 7791   4.859   5.335   4.535 -3.0133  2.3528 -0.8753
  817MOL0     H 7792   4.717   5.318   4.631 -0.6584 -0.9819  0.1150
  817MOL0     H 7793   4.719   5.070   4.543 -3.2917 -0.5624 -2.3529
  817MOL0     H 7794   4.664   5.189   4.427 -0.4739 -1.9465 -1.3532
  817MOL0     H 7795   4.827   5.009   4.344 -2.0220  0.6285  1.1928
  817MOL0     H 7796   4.950   5.072   4.443 -0.1696 -2.7800 -0.7318
  817MOL0     H 7797   4.726   5.187   4.136  0.0211 -0.0763 -0.9945
  817MOL0     H 7798   4.790   5.334   3.911 -0.1410  0.7651 -0.6195
  817MOL0     H 7799   4.955   5.393   3.917  0.0760  2.4243 -0.8256
  817MOL0     H 7800   4.794   5.571   3.895  3.1646 -0.7755 -1.5070
  817MOL0     H 7801   4.918   5.600   3.998  0.4645 -1.5875  2.0037
  817MOL0     H 7802   4.645   5.491   4.098  0.2705 -0.9884  0.4666
  817MOL0     H 7803   4.771   5.536   4.195 -0.4693 -3.2363 -0.3535
  817MOL0     H 7804   4.759   5.773   4.086 -1.6418  0.5254 -4.9214
  817MOL0     H 7805   4.625   5.737   4.199  1.1078 -0.7090  1.1820
  817MOL0     H 7806   4.374   5.754   4.164 -0.5181  0.9674  1.0312
  817MOL0     H 7807   4.175   5.615   4.152 -0.3360 -1.5663 -0.5484
  817MOL0     H 7808   4.015   5.152   4.018 -0.0077  0.3576  1.0252
  817MOL0     H 7809   3.780   5.025   4.069 -3.1861  1.3235 -0.1754
  817MOL0     H 7810   3.418   5.201   4.232  0.4687 -0.1576 -0.2248
  817MOL0     H 7811   3.521   5.133   4.354  0.1180 -1.1112  0.2719
  817MOL0     H 7812   3.328   4.997   4.334 -0.3064 -2.1412 -0.1682
  817MOL0     H 7813   3.464   4.898   4.288 -0.7816 -0.3083  1.3590
  817MOL0     H 7814   3.393   4.928   4.047 -1.7477  1.2226 -0.1289
  817MOL0     H 7815   3.270   5.045   4.096 -3.1840 -1.6879 -0.5420
  817MOL0     H 7816   3.271   4.744   4.161 -2.1570 -1.1953  1.5012
  817MOL0     H 7817   3.170   4.872   4.225  2.6839  1.6998  1.1678
  817MOL0     H 7818   3.102   4.909   3.979 -2.9897  0.1185  1.5732
  817MOL0     H 7819   3.055   4.751   4.046 -0.1250  0.0381 -0.4537
  817MOL0     H 7820   3.254   4.642   3.954 -1.5914 -0.3349  0.0972
  817MOL0     H 7821   3.322   4.788   3.906  0.1719  0.2579  2.9834
  817MOL0     H 7822   3.058   4.657   3.794 -0.3167  0.8285  1.7591
  817MOL0     H 7823   3.106   4.824   3.756  0.0395  0.8691  2.7380
  817MOL0     H 7824   3.162   4.627   3.588  1.1834  1.1127 -0.4821
  817MOL0     H 7825   3.269   4.554   3.709  1.9094  0.6937  0.9445
  817MOL0     H 7826   3.609   5.377   4.188 -0.8624 -1.4784 -1.3486
  817MOL0     H 7827   3.828   5.499   4.175  1.8851 -0.1702  0.3756
  817MOL0     H 7828   4.319   5.443   3.785  1.3313 -0.6821  0.5740
  817MOL0     H 7829   4.542   5.558   3.813  0.1506 -1.4679 -0.8922
  817MOL0     H 7830   4.212   4.983   5.027  0.7625 -1.0550 -1.6815
  817MOL0     H 7831   3.957   5.065   5.033  0.0748  0.7950  2.4013
  817MOL0     H 7832   3.655   5.235   5.116 -0.8821 -0.5645  0.4651
  817MOL0     H 7833   3.420   5.233   5.145  2.8243 -1.2727 -0.1094
  817MOL0     H 7834   3.071   5.370   5.110  0.0825  2.3199 -2.4485
  817MOL0     H 7835   3.198   5.243   5.136 -1.3423  0.4927  1.3595
  817MOL0     H 7836   3.072   5.310   4.882 -0.9778 -0.8628 -0.6722
  817MOL0     H 7837   3.219   5.206   4.909 -0.0403 -0.2147  2.0547
  817MOL0     H 7838   3.022   5.125   5.097 -2.3765  0.2174  0.2841
  817MOL0     H 7839   3.091   5.041   4.950  0.5255  1.7207 -1.2004
  817MOL0     H 7840   2.858   5.219   4.893 -2.7838  0.6283  4.6487
  817MOL0     H 7841   2.921   5.073   4.815 -0.4135 -1.0066 -0.1214
  817MOL0     H 7842   2.634   4.944   5.105 -1.0164  1.6089 -0.9327
  817MOL0     H 7843   3.383   5.601   4.929  1.0544 -1.4792 -2.8718
  817MOL0     H 7844   3.629   5.632   4.931  2.1087  1.9660  2.9043
  818MOL0     O 7845   4.391   9.668   9.024  0.8624 -0.3045 -0.1902
  818MOL0     C 7846   4.433   9.564   9.058 -0.2148  1.1894  0.7893
  818MOL0     O 7847   4.363   9.472   9.146 -0.1778 -0.3166 -0.4723
  818MOL0     C 7848   4.250   9.518   9.216 -0.2619 -0.5751  0.2515
  818MOL0     C 7849   4.137   9.590   9.165 -0.9149 -0.0873 -0.8244
  818MOL0     C 7850   4.032   9.622   9.257 -0.5449  0.4705 -0.2776
  818MOL0     C 7851   4.033   9.567   9.383 -0.5965  1.0318  0.1034
  818MOL0     O 7852   3.924   9.586   9.461  0.4489  0.4511 -0.2674
  818MOL0     C 7853   3.911   9.516   9.587 -0.0087  0.0857 -0.2920
  818MOL0     C 7854   3.766   9.545   9.651 -0.5830 -0.5859 -1.2547
  818MOL0     C 7855   3.738   9.689   9.687 -0.0388 -0.3713 -0.1650
  818MOL0     C 7856   3.647   9.699   9.811 -0.3852  0.0182  0.1890
  818MOL0     C 7857   3.508   9.631   9.790 -0.1223 -0.3093  0.0181
  818MOL0     C 7858   3.408   9.696   9.884  0.5703 -0.4989  0.9908
  818MOL0     C 7859   3.266   9.618   9.869 -0.2667  0.1873  0.4333
  818MOL0     C 7860   3.254   9.532   9.992 -0.4306 -0.4864 -0.6356
  818MOL0     N 7861   3.360   9.426  10.010 -0.5770 -0.8730 -0.0206
  818MOL0     C 7862   3.376   9.307   9.941  0.3858  0.1351  0.5492
  818MOL0     C 7863   3.478   9.240  10.000  0.9125  0.3768  0.0576
  818MOL0     C 7864   3.520   9.102   9.953 -0.3617  0.1969  0.2546
  818MOL0     C 7865   3.617   9.123   9.831  0.7829  0.8781  1.0916
  818MOL0     C 7866   3.754   9.172   9.877 -0.7052  0.5120 -0.2194
  818MOL0     C 7867   3.854   9.163   9.760  0.6801 -0.1811  0.4392
  818MOL0     O 7868   3.975   9.217   9.805 -0.7798  0.0388  0.0429
  818MOL0     C 7869   4.091   9.191   9.741  0.2034  0.1794  0.0128
  818MOL0     C 7870   4.116   9.104   9.629 -0.4062  0.1060 -0.1063
  818MOL0     C 7871   4.248   9.108   9.576  0.0360  0.2115 -0.1756
  818MOL0     C 7872   4.352   9.192   9.615  0.7110 -0.4252  0.0235
  818MOL0     C 7873   4.483   9.209   9.547 -0.5690 -0.0869 -0.2460
  818MOL0     O 7874   4.552   9.319   9.571 -0.1312  0.8406  0.4106
  818MOL0     C 7875   4.657   9.345   9.488 -1.1718 -1.0077 -0.5165
  818MOL0     C 7876   4.650   9.359   9.350 -0.6885  1.0623  0.2593
  818MOL0     C 7877   4.764   9.390   9.276  0.0964  0.3886  0.3212
  818MOL0     C 7878   4.881   9.434   9.337  0.5695  0.1591  1.2296
  818MOL0     O 7879   4.987   9.461   9.249 -0.2085 -0.0182  0.5154
  818MOL0     C 7880   5.101   9.541   9.292  0.4550 -0.4188 -0.4879
  818MOL0     C 7881   5.199   9.563   9.168  0.0705 -0.3209 -0.2174
  818MOL0     C 7882   5.331   9.612   9.213  0.0378 -1.1167 -0.4373
  818MOL0     C 7883   5.439   9.576   9.115  0.7662  0.2581 -0.1449
  818MOL0     C 7884   5.577   9.616   9.139 -0.7095 -0.5921 -0.2403
  818MOL0     C 7885   5.676   9.557   9.041 -0.0860  0.3844 -0.2198
  818MOL0     C 7886   5.717   9.416   9.077  0.3847 -0.0444  0.2075
  818MOL0     C 7887   5.819   9.365   8.979  1.5617 -0.2488  1.5027
  818MOL0    Cl 7888   5.774   9.379   8.800 -0.4814 -0.3560  0.1456
  818MOL0     C 7889   4.893   9.429   9.472  0.5121  0.3501  1.0069
  818MOL0     C 7890   4.788   9.383   9.548  0.4928  0.1998  0.3576
  818MOL0     O 7891   4.519   9.120   9.465 -0.3704  0.0638 -0.4185
  818MOL0     C 7892   4.319   9.283   9.722  0.6538  0.7071 -0.5270
  818MOL0     C 7893   4.193   9.275   9.787 -0.6523  0.1864 -1.2053
  818MOL0     N 7894   3.516   9.311  10.106  0.5685 -0.6876  0.3746
  818MOL0     N 7895   3.440   9.414  10.117  0.7598 -0.3531 -0.0374
  818MOL0     C 7896   4.136   9.483   9.418 -0.1288  0.4187  0.4610
  818MOL0     C 7897   4.247   9.468   9.340  0.0839  1.6615 -0.6776
  818MOL0     C 7898   4.555   9.522   8.990  1.0306  1.3068 -0.1747
  818MOL0     C 7899   4.663   9.605   8.963 -0.3774  0.0047  0.3230
  818MOL0     C 7900   4.776   9.553   8.906 -0.3731 -0.3658  0.1347
  818MOL0     C 7901   4.792   9.410   8.885 -0.3688 -0.6675  0.3801
  818MOL0     O 7902   4.912   9.358   8.837 -0.7440 -0.4780 -1.1415
  818MOL0     C 7903   5.030   9.394   8.907 -0.1104  0.4417 -0.1702
  818MOL0     C 7904   5.102   9.259   8.929  0.0457 -0.0256  0.0747
  818MOL0     C 7905   5.216   9.218   8.821 -0.5407  0.1399  0.5137
  818MOL0     C 7906   5.338   9.310   8.836 -0.3410  0.0987 -0.2509
  818MOL0     C 7907   5.433   9.262   8.725 -0.4403  0.1296 -0.1163
  818MOL0     C 7908   5.500   9.227   8.632 -0.7555  0.8291  0.2871
  818MOL0     C 7909   4.684   9.325   8.911  0.3060  0.3089  0.0112
  818MOL0     C 7910   4.568   9.382   8.963  0.5746  0.1579 -0.0609
  818MOL0     H 7911   4.124   9.615   9.060 -1.1606 -2.4411 -1.4034
  818MOL0     H 7912   3.940   9.673   9.232 -0.0903  1.8049  0.6574
  818MOL0     H 7913   3.987   9.552   9.657 -0.4021 -1.0948  0.7923
  818MOL0     H 7914   3.924   9.408   9.576  2.0691  0.2514  0.1510
  818MOL0     H 7915   3.763   9.494   9.747 -0.5949 -0.3143 -1.1120
  818MOL0     H 7916   3.680   9.501   9.600 -1.7554 -0.6575  0.6965
  818MOL0     H 7917   3.685   9.743   9.608  0.9250  2.3409  0.9157
  818MOL0     H 7918   3.833   9.740   9.706 -1.1491  2.3104 -1.2530
  818MOL0     H 7919   3.705   9.667   9.898 -0.4992 -1.0811 -0.1248
  818MOL0     H 7920   3.625   9.803   9.835 -1.6515 -0.3997  0.9077
  818MOL0     H 7921   3.528   9.524   9.803  4.0769  0.3310  0.1361
  818MOL0     H 7922   3.479   9.644   9.685 -5.4997  1.4973  1.3951
  818MOL0     H 7923   3.393   9.799   9.852 -1.1909 -1.1240 -0.3654
  818MOL0     H 7924   3.439   9.700   9.989  3.3194  0.7680  0.2212
  818MOL0     H 7925   3.176   9.679   9.856 -0.2632 -0.4594 -4.4593
  818MOL0     H 7926   3.280   9.549   9.785 -1.0667 -0.3609  0.7470
  818MOL0     H 7927   3.156   9.483   9.994 -2.3908  3.0090  2.4946
  818MOL0     H 7928   3.269   9.593  10.082  1.8122 -0.0803 -1.2164
  818MOL0     H 7929   3.324   9.280   9.850  0.2743 -0.6611  0.8351
  818MOL0     H 7930   3.428   9.050   9.926  0.2031 -1.2462  1.0309
  818MOL0     H 7931   3.579   9.041  10.022 -0.3447  0.4687  0.4858
  818MOL0     H 7932   3.562   9.195   9.769  0.9255  1.6350  1.8201
  818MOL0     H 7933   3.632   9.031   9.774 -0.0076  1.8398 -0.7679
  818MOL0     H 7934   3.758   9.261   9.941 -0.6516 -0.2198  0.8059
  818MOL0     H 7935   3.781   9.092   9.945  1.0793 -2.8325 -4.4141
  818MOL0     H 7936   3.820   9.210   9.667  0.5691  0.6581  0.8891
  818MOL0     H 7937   3.869   9.060   9.727 -2.4516  0.6067 -4.5280
  818MOL0     H 7938   4.043   9.040   9.580  0.2255 -0.5925 -0.1408
  818MOL0     H 7939   4.262   9.047   9.486 -0.0414 -3.0394  1.8522
  818MOL0     H 7940   4.547   9.339   9.322 -1.0464 -2.8145  3.4436
  818MOL0     H 7941   4.755   9.371   9.169  0.0069 -4.5939  0.9975
  818MOL0     H 7942   5.153   9.492   9.376 -0.7670 -1.6763 -0.4350
  818MOL0     H 7943   5.080   9.640   9.334  1.5185 -0.4396  0.1544
  818MOL0     H 7944   5.151   9.630   9.096 -3.8561  0.4315  2.7683
  818MOL0     H 7945   5.210   9.465   9.121 -4.0368 -1.8476  1.5005
  818MOL0     H 7946   5.351   9.577   9.314  3.0353  0.5842 -0.3063
  818MOL0     H 7947   5.331   9.719   9.237  0.2711 -1.7271  2.6799
  818MOL0     H 7948   5.440   9.468   9.098  1.4557  0.1847  0.3305
  818MOL0     H 7949   5.427   9.627   9.019  1.2237  2.0842  0.7066
  818MOL0     H 7950   5.613   9.587   9.238 -0.8277 -0.8675 -0.2776
  818MOL0     H 7951   5.589   9.725   9.134 -0.0470 -0.7189 -2.3436
  818MOL0     H 7952   5.754   9.634   9.048 -2.6427  3.0062  2.1473
  818MOL0     H 7953   5.643   9.564   8.937  4.7635 -2.0680 -2.2706
  818MOL0     H 7954   5.761   9.417   9.177 -0.0997 -0.4152  0.4302
  818MOL0     H 7955   5.632   9.347   9.080 -0.7083  1.2203 -0.5303
  818MOL0     H 7956   5.837   9.257   8.986  1.3910 -0.5282 -1.0645
  818MOL0     H 7957   5.914   9.415   9.001  1.0600  0.5057  1.9752
  818MOL0     H 7958   4.979   9.465   9.528  2.6735 -1.1500 -1.1412
  818MOL0     H 7959   4.798   9.388   9.656 -0.7452 -1.5135  0.5930
  818MOL0     H 7960   4.387   9.366   9.740 -1.2432  2.4383 -1.0472
  818MOL0     H 7961   4.184   9.330   9.881  1.7626 -0.7920 -0.3244
  818MOL0     H 7962   4.136   9.423   9.508  0.4165  0.1541  0.2920
  818MOL0     H 7963   4.320   9.391   9.363 -1.7479 -0.1065 -0.4202
  818MOL0     H 7964   4.644   9.710   8.984 -1.5260 -0.5189  2.2289
  818MOL0     H 7965   4.859   9.612   8.869 -0.1821 -0.8887 -0.2914
  818MOL0     H 7966   5.011   9.437   9.006  0.0887  0.1843 -0.0175
  818MOL0     H 7967   5.096   9.463   8.854  2.3747 -0.7289  1.2490
  818MOL0     H 7968   5.152   9.270   9.026  0.9523 -0.8799 -0.2724
  818MOL0     H 7969   5.028   9.180   8.938  4.0713 -4.5523 -1.8854
  818MOL0     H 7970   5.173   9.231   8.721 -1.7211  2.0192  1.2087
  818MOL0     H 7971   5.252   9.116   8.839  1.4536  0.9934  1.7185
  818MOL0     H 7972   5.313   9.417   8.847 -0.7738  0.2248 -2.1264
  818MOL0     H 7973   5.384   9.288   8.933 -3.7684 -2.8671  0.9275
  818MOL0     H 7974   5.570   9.183   8.563 -2.0644  0.2029 -0.6711
  818MOL0     H 7975   4.690   9.221   8.881 -1.7261 -0.4532  1.9428
  818MOL0     H 7976   4.476   9.325   8.965 -1.5540  3.3015  2.1419
  819MOL0     O 7977   5.688   6.911  10.509 -0.1677  0.0351  0.1372
  819MOL0     C 7978   5.665   6.829  10.600 -0.0862 -0.7409 -0.2836
  819MOL0     O 7979   5.546   6.810  10.659  0.4936 -0.1019 -0.2201
  819MOL0     C 7980   5.440   6.859  10.593 -0.4111 -0.5516  0.0425
  819MOL0     C 7981   5.416   6.993  10.558 -0.0154 -0.4906  0.2480
  819MOL0     C 7982   5.295   7.049  10.514 -0.5173  0.2887  0.4339
  819MOL0     C 7983   5.182   6.971  10.495 -0.2625 -0.8116 -0.2154
  819MOL0     O 7984   5.060   7.009  10.466  0.7907 -0.2869  0.3871
  819MOL0     C 7985   5.009   7.116  10.556  1.3356 -0.1885 -0.8673
  819MOL0     C 7986   4.857   7.143  10.546  0.0141  0.9101  0.2384
  819MOL0     C 7987   4.821   7.227  10.672  0.2426 -0.4791 -0.1645
  819MOL0     C 7988   4.691   7.298  10.653 -0.2295  0.5405  0.2647
  819MOL0     C 7989   4.591   7.175  10.647  0.1725  0.8317 -0.0046
  819MOL0     C 7990   4.441   7.200  10.681  0.2865 -0.0608  0.4671
  819MOL0     C 7991   4.325   7.106  10.637  0.1605  0.3400 -0.4596
  819MOL0     C 7992   4.300   7.001  10.734 -0.3095  0.1940 -0.8114
  819MOL0     N 7993   4.418   6.915  10.737 -0.0406  0.2570 -0.8457
  819MOL0     C 7994   4.487   6.858  10.630 -0.5535 -0.0335 -0.2577
  819MOL0     C 7995   4.576   6.771  10.685  1.3196 -0.3192 -1.1265
  819MOL0     C 7996   4.688   6.688  10.615  0.5866 -0.2490 -0.0227
  819MOL0     C 7997   4.833   6.728  10.659  0.1242  0.9533  0.3147
  819MOL0     C 7998   4.878   6.673  10.792  0.1343 -0.8831  0.2190
  819MOL0     C 7999   4.896   6.524  10.810 -0.8685  0.3601  1.0633
  819MOL0     O 8000   4.971   6.461  10.701  0.3756  0.3058  0.1949
  819MOL0     C 8001   5.104   6.453  10.708 -0.6644 -0.7161 -0.3386
  819MOL0     C 8002   5.170   6.385  10.604 -0.1637 -0.3149 -0.4645
  819MOL0     C 8003   5.307   6.374  10.606  0.6521  0.0521 -0.3213
  819MOL0     C 8004   5.381   6.421  10.715 -0.2093  1.2201 -0.1096
  819MOL0     C 8005   5.530   6.375  10.724  1.3983 -0.1862  0.5448
  819MOL0     O 8006   5.575   6.298  10.626  0.4900  0.5774  0.8054
  819MOL0     C 8007   5.695   6.232  10.643 -0.6187  0.3030  0.1743
  819MOL0     C 8008   5.702   6.090  10.668  0.6549  0.2818  0.6166
  819MOL0     C 8009   5.830   6.030  10.678  0.6245  0.2512 -0.4018
  819MOL0     C 8010   5.948   6.113  10.670  0.6486 -0.0190  0.0127
  819MOL0     O 8011   6.075   6.059  10.674  0.3544 -0.6257  0.1307
  819MOL0     C 8012   6.110   5.959  10.575 -0.2927  0.0868  0.0205
  819MOL0     C 8013   6.116   5.819  10.640  0.4443 -0.5558 -0.6376
  819MOL0     C 8014   6.204   5.826  10.764 -0.4995  0.8659 -0.5533
  819MOL0     C 8015   6.226   5.689  10.815  0.0622  0.4668 -1.1667
  819MOL0     C 8016   6.301   5.694  10.950  0.4403 -0.5455  0.2476
  819MOL0     C 8017   6.274   5.569  11.039  0.4100  0.1752 -0.7105
  819MOL0     C 8018   6.368   5.557  11.158 -0.3044 -0.6684  0.6410
  819MOL0     C 8019   6.334   5.424  11.240  0.8514 -0.1091 -0.6640
  819MOL0    Cl 8020   6.214   5.449  11.361 -0.1967  0.8296 -0.0850
  819MOL0     C 8021   5.934   6.246  10.632  0.1272  0.8686 -0.2027
  819MOL0     C 8022   5.815   6.307  10.624 -0.4467  0.3945 -0.3659
  819MOL0     O 8023   5.603   6.419  10.813  0.3025 -0.5117  0.2392
  819MOL0     C 8024   5.324   6.494  10.823 -0.0583 -0.2232 -0.3538
  819MOL0     C 8025   5.179   6.508  10.816 -0.1827  0.8017  0.7761
  819MOL0     N 8026   4.550   6.769  10.824  0.5861  0.5272  0.2220
  819MOL0     N 8027   4.457   6.849  10.850  0.0702 -0.0789 -0.3746
  819MOL0     C 8028   5.202   6.835  10.524  0.5753 -0.8746  0.0153
  819MOL0     C 8029   5.322   6.778  10.573  0.0052 -0.1926 -1.5296
  819MOL0     C 8030   5.783   6.748  10.633 -0.1381  0.7616  0.1470
  819MOL0     C 8031   5.774   6.666  10.749 -0.5467 -0.1421  0.3272
  819MOL0     C 8032   5.891   6.586  10.770  0.8740  0.3104 -1.2608
  819MOL0     C 8033   6.003   6.585  10.690 -0.5121 -0.1152  0.5320
  819MOL0     O 8034   6.108   6.501  10.710 -0.0656  0.7073  0.2372
  819MOL0     C 8035   6.140   6.460  10.842 -0.5660 -0.4311  0.4189
  819MOL0     C 8036   6.200   6.575  10.928 -0.4573 -0.1201  0.2710
  819MOL0     C 8037   6.238   6.519  11.067  0.6365 -0.1406  0.1779
  819MOL0     C 8038   6.117   6.487  11.149  0.6981 -0.0243  0.1236
  819MOL0     C 8039   6.042   6.607  11.188 -0.3831  0.3886 -0.1608
  819MOL0     C 8040   5.966   6.698  11.220 -1.0798  0.8896  0.0777
  819MOL0     C 8041   5.999   6.654  10.571 -0.0450 -0.9633  0.6468
  819MOL0     C 8042   5.902   6.754  10.554  0.1216  0.0128  0.8822
  819MOL0     H 8043   5.504   7.056  10.569 -0.1691  0.0274 -1.2205
  819MOL0     H 8044   5.286   7.154  10.488 -3.1557 -0.4355 -2.1057
  819MOL0     H 8045   5.060   7.212  10.542  3.3915 -1.1745 -0.3932
  819MOL0     H 8046   5.040   7.092  10.657 -0.1858  2.4240  0.3261
  819MOL0     H 8047   4.811   7.044  10.537 -0.9291  1.4861 -2.1048
  819MOL0     H 8048   4.841   7.193  10.450  0.9920 -1.1252 -1.0455
  819MOL0     H 8049   4.898   7.300  10.699  0.8577 -1.3328  0.4910
  819MOL0     H 8050   4.818   7.153  10.753  1.2295 -0.2684  0.0828
  819MOL0     H 8051   4.664   7.363  10.736 -2.1110  1.7924 -1.2423
  819MOL0     H 8052   4.677   7.359  10.563 -2.1863 -0.0172  0.1462
  819MOL0     H 8053   4.626   7.099  10.717  2.9612  2.1307  0.1465
  819MOL0     H 8054   4.602   7.132  10.548  2.5857  2.0787 -0.3506
  819MOL0     H 8055   4.423   7.292  10.625  0.5226 -0.4885 -0.3264
  819MOL0     H 8056   4.435   7.232  10.786  1.2557  1.2846  0.1347
  819MOL0     H 8057   4.227   7.155  10.628 -0.1373 -0.4092 -1.5070
  819MOL0     H 8058   4.349   7.064  10.539 -1.1607 -0.9812 -0.2687
  819MOL0     H 8059   4.223   6.931  10.702  1.8526 -2.6303 -0.2172
  819MOL0     H 8060   4.273   7.037  10.834 -0.7883  2.0042 -1.5450
  819MOL0     H 8061   4.486   6.902  10.530 -0.4011 -1.1904 -0.7777
  819MOL0     H 8062   4.679   6.710  10.508 -0.8982  1.4108  0.3916
  819MOL0     H 8063   4.672   6.580  10.624  1.6107 -0.5400 -1.3787
  819MOL0     H 8064   4.838   6.837  10.653 -0.1743  1.1774  2.9992
  819MOL0     H 8065   4.900   6.686  10.583 -0.5811  1.4191 -0.5774
  819MOL0     H 8066   4.978   6.716  10.807 -0.3432  0.7577 -1.0424
  819MOL0     H 8067   4.828   6.712  10.882 -0.1147  0.6238 -0.5392
  819MOL0     H 8068   4.801   6.472  10.819 -0.4962  0.0187  3.8679
  819MOL0     H 8069   4.938   6.500  10.908 -1.8701  3.4595  2.3751
  819MOL0     H 8070   5.114   6.335  10.524 -1.5991 -1.1525  1.0006
  819MOL0     H 8071   5.354   6.339  10.515  1.5057  0.5305 -0.0762
  819MOL0     H 8072   5.614   6.030  10.688  1.7147 -1.8619 -0.7729
  819MOL0     H 8073   5.834   5.924  10.700  0.1056  0.4850  0.8873
  819MOL0     H 8074   6.208   5.991  10.537 -1.3397  0.6080 -2.4803
  819MOL0     H 8075   6.032   5.951  10.498 -0.1388 -0.7316 -0.0632
  819MOL0     H 8076   6.151   5.742  10.570  2.1495  1.3146 -1.9293
  819MOL0     H 8077   6.017   5.804  10.683  1.2143  2.7577  2.7544
  819MOL0     H 8078   6.146   5.879  10.839 -1.6230 -1.1738  0.0851
  819MOL0     H 8079   6.303   5.872  10.753  1.3469 -2.3098  1.4735
  819MOL0     H 8080   6.136   5.629  10.829  0.7904 -0.9711 -2.3043
  819MOL0     H 8081   6.274   5.620  10.744 -0.4609 -2.0780  0.8207
  819MOL0     H 8082   6.266   5.779  11.009 -0.2562 -0.0828 -0.8121
  819MOL0     H 8083   6.408   5.711  10.931  0.5953  0.7520  2.0068
  819MOL0     H 8084   6.279   5.483  10.973 -1.6903  0.7896 -1.7491
  819MOL0     H 8085   6.172   5.577  11.079  0.4356  1.8864 -0.8843
  819MOL0     H 8086   6.467   5.544  11.114  0.1949 -3.4543  2.3399
  819MOL0     H 8087   6.368   5.647  11.220 -2.2384 -0.8959  1.0490
  819MOL0     H 8088   6.425   5.373  11.271 -0.4979 -1.7988  0.7699
  819MOL0     H 8089   6.303   5.344  11.172  2.5947 -2.2651  0.9495
  819MOL0     H 8090   6.024   6.305  10.616 -1.2943  3.1210 -0.2944
  819MOL0     H 8091   5.795   6.408  10.590 -2.3935 -0.2774 -1.3805
  819MOL0     H 8092   5.385   6.510  10.911  0.4642 -2.1137 -0.3066
  819MOL0     H 8093   5.126   6.557  10.898  1.4634  0.1049  2.3338
  819MOL0     H 8094   5.113   6.775  10.519  0.3829 -0.5231 -0.8306
  819MOL0     H 8095   5.344   6.677  10.606  1.5719  1.5826  4.1503
  819MOL0     H 8096   5.683   6.659  10.808 -1.0314  0.1466 -0.3599
  819MOL0     H 8097   5.881   6.522  10.857  2.2885  1.3294 -0.3111
  819MOL0     H 8098   6.224   6.393  10.819  2.0191  3.0769 -1.3947
  819MOL0     H 8099   6.056   6.405  10.886 -0.0915 -1.5437 -0.0381
  819MOL0     H 8100   6.290   6.606  10.874  2.6032 -6.0796  1.0838
  819MOL0     H 8101   6.132   6.660  10.930  0.1864  0.3995  2.0672
  819MOL0     H 8102   6.300   6.586  11.127  1.1716  0.3864 -0.9250
  819MOL0     H 8103   6.302   6.430  11.062  4.3067  2.2432  0.5913
  819MOL0     H 8104   6.051   6.416  11.099  1.9715 -2.1412  1.2900
  819MOL0     H 8105   6.147   6.440  11.244  0.9819  0.2542  0.1734
  819MOL0     H 8106   5.904   6.778  11.255  1.4860  2.8138  0.4878
  819MOL0     H 8107   6.082   6.642  10.503  1.3018  0.8732  1.8906
  819MOL0     H 8108   5.906   6.818  10.466 -0.6820 -0.2142  0.6698
  820MOL0     O 8109   1.336   6.781  10.721  0.0516  0.1276 -0.2813
  820MOL0     C 8110   1.339   6.844  10.617 -0.0970  0.3629 -0.1187
  820MOL0     O 8111   1.238   6.851  10.527 -0.6487  0.0976 -0.2705
  820MOL0     C 8112   1.144   6.750  10.528  1.6893 -0.3613  0.0731
  820MOL0     C 8113   1.013   6.777  10.550  0.2911  0.0477  0.1048
  820MOL0     C 8114   0.914   6.678  10.539 -0.9687 -0.2573 -0.3499
  820MOL0     C 8115   0.952   6.543  10.512  0.5345 -0.1688 -0.4499
  820MOL0     O 8116   0.848   6.454  10.534 -0.1819 -0.0244 -0.2016
  820MOL0     C 8117   0.895   6.317  10.510 -0.8954 -0.4448 -0.1155
  820MOL0     C 8118   0.822   6.210  10.579 -0.4887  0.4770 -0.0038
  820MOL0     C 8119   0.680   6.197  10.527  1.3942 -0.0206  0.0471
  820MOL0     C 8120   0.634   6.067  10.587 -0.6643  0.2513 -0.2845
  820MOL0     C 8121   0.500   6.025  10.543  0.3295  0.7554  0.5762
  820MOL0     C 8122   0.499   5.951  10.409  0.3112 -0.0266 -0.5067
  820MOL0     C 8123   0.357   5.916  10.360 -0.3927  1.5068  1.0759
  820MOL0     C 8124   0.282   5.807  10.434 -0.4521  0.6011 -0.0820
  820MOL0     N 8125   0.344   5.672  10.418  0.8416 -0.8271  0.5825
  820MOL0     C 8126   0.384   5.606  10.307  0.2133 -0.7221  0.0246
  820MOL0     C 8127   0.435   5.485  10.349  0.5179 -0.0106  0.8158
  820MOL0     C 8128   0.509   5.367  10.281  0.2403  0.2187 -0.0551
  820MOL0     C 8129   0.434   5.270  10.206 -0.2785  0.0149  0.0825
  820MOL0     C 8130   0.516   5.148  10.154 -0.7694 -0.2655 -0.2072
  820MOL0     C 8131   0.638   5.171  10.056 -0.1178  0.4997 -0.8806
  820MOL0     O 8132   0.588   5.237   9.942  0.2060 -0.7158  0.5640
  820MOL0     C 8133   0.680   5.276   9.845 -0.5454  0.2147 -0.4738
  820MOL0     C 8134   0.621   5.311   9.720  0.6133 -0.1250  0.6680
  820MOL0     C 8135   0.697   5.372   9.621 -0.2634  0.4416  0.3298
  820MOL0     C 8136   0.835   5.387   9.629  0.7710  0.0429 -0.3943
  820MOL0     C 8137   0.913   5.452   9.530  1.2057 -0.9114 -0.2997
  820MOL0     O 8138   1.047   5.453   9.550  0.2302  0.2012 -0.0596
  820MOL0     C 8139   1.125   5.517   9.457 -0.1566  1.3706 -0.4639
  820MOL0     C 8140   1.121   5.656   9.435 -0.0501  0.9630 -0.0935
  820MOL0     C 8141   1.226   5.717   9.362  1.2636  0.7368  0.2624
  820MOL0     C 8142   1.322   5.636   9.285  0.5896 -0.1136 -0.1012
  820MOL0     O 8143   1.431   5.689   9.221  0.2097 -0.7784  0.2557
  820MOL0     C 8144   1.465   5.827   9.246  0.0490  0.2133 -0.4568
  820MOL0     C 8145   1.618   5.843   9.222 -0.1916  0.9671 -0.2311
  820MOL0     C 8146   1.650   5.989   9.209  0.8437 -0.1419  0.1575
  820MOL0     C 8147   1.797   6.015   9.216  1.1288  0.2909  0.3322
  820MOL0     C 8148   1.881   5.964   9.091 -0.1769 -0.5792  0.8172
  820MOL0     C 8149   2.025   6.021   9.081  0.3770 -0.1378 -0.1093
  820MOL0     C 8150   2.116   5.976   9.193  1.0898 -1.0155 -0.4687
  820MOL0     C 8151   2.254   5.946   9.145 -1.1207  0.3131  0.1846
  820MOL0    Cl 8152   2.338   6.078   9.048 -0.0522  0.3117  0.0719
  820MOL0     C 8153   1.321   5.494   9.308 -0.1584 -0.7327  0.7292
  820MOL0     C 8154   1.220   5.436   9.383  0.3479  0.7274  0.4825
  820MOL0     O 8155   0.847   5.499   9.437 -0.1209 -0.4435  0.6191
  820MOL0     C 8156   0.895   5.349   9.756 -0.2365  0.0911 -0.7524
  820MOL0     C 8157   0.819   5.304   9.864 -1.2128  0.1847 -0.5974
  820MOL0     N 8158   0.392   5.472  10.478  0.4902 -1.3279 -0.2088
  820MOL0     N 8159   0.342   5.582  10.525 -0.8509  0.2000 -0.7426
  820MOL0     C 8160   1.093   6.516  10.489  0.2976 -0.2612 -0.5535
  820MOL0     C 8161   1.181   6.618  10.490 -0.6698 -0.4772  0.5168
  820MOL0     C 8162   1.469   6.929  10.595 -0.3816 -0.4226 -0.8139
  820MOL0     C 8163   1.525   6.951  10.467  0.3734  0.8227 -0.0733
  820MOL0     C 8164   1.642   7.026  10.451 -0.1606  0.1133  0.3865
  820MOL0     C 8165   1.721   7.060  10.557 -0.1077 -0.7364 -0.2734
  820MOL0     O 8166   1.840   7.118  10.518  0.2926 -0.0369 -0.8352
  820MOL0     C 8167   1.946   7.148  10.618  0.2013  0.5496 -0.0877
  820MOL0     C 8168   1.952   7.296  10.649  0.0119 -1.5000  0.2887
  820MOL0     C 8169   1.980   7.373  10.514  0.6620 -1.1158  0.1252
  820MOL0     C 8170   2.016   7.526  10.541  0.1962  0.2903  0.1768
  820MOL0     C 8171   1.909   7.606  10.610  0.3866  0.0613 -0.2596
  820MOL0     C 8172   1.812   7.649  10.663  0.1043 -0.2696  0.2383
  820MOL0     C 8173   1.666   7.045  10.682  0.0264  0.8660 -0.0454
  820MOL0     C 8174   1.544   6.973  10.703 -0.8983  0.6363  0.1957
  820MOL0     H 8175   0.982   6.873  10.589  2.8516  1.0463 -0.0991
  820MOL0     H 8176   0.809   6.702  10.554 -1.2667 -2.1031  0.9452
  820MOL0     H 8177   0.993   6.309  10.556 -0.5461  0.6033 -0.6432
  820MOL0     H 8178   0.886   6.299  10.402  0.1860  0.7525 -0.4306
  820MOL0     H 8179   0.826   6.229  10.687 -1.5281  1.3552 -0.0988
  820MOL0     H 8180   0.876   6.117  10.561  1.9291  2.0178 -1.3093
  820MOL0     H 8181   0.689   6.207  10.418 -0.5727  3.5540  0.0617
  820MOL0     H 8182   0.615   6.281  10.550  0.3607 -0.1496 -2.1330
  820MOL0     H 8183   0.710   5.990  10.569  3.5890  4.2953 -1.6015
  820MOL0     H 8184   0.622   6.084  10.694  3.7743 -0.3594  0.4728
  820MOL0     H 8185   0.427   6.105  10.529 -2.0819 -1.1629  1.4604
  820MOL0     H 8186   0.447   5.969  10.621 -1.8850 -1.2639 -2.1764
  820MOL0     H 8187   0.553   5.857  10.424  2.2644  1.3706  1.9078
  820MOL0     H 8188   0.542   6.011  10.329 -3.4384  0.1924 -2.5995
  820MOL0     H 8189   0.292   6.004  10.354 -0.1653  1.7374  1.8239
  820MOL0     H 8190   0.362   5.877  10.258  0.9527  1.5767  1.0985
  820MOL0     H 8191   0.176   5.793  10.409 -0.1207 -3.2721  0.0555
  820MOL0     H 8192   0.285   5.822  10.542 -1.7618 -2.3822  0.4757
  820MOL0     H 8193   0.400   5.659  10.214  0.8421 -0.8326  0.0703
  820MOL0     H 8194   0.583   5.315  10.342  2.9858  4.0522  0.2467
  820MOL0     H 8195   0.574   5.416  10.207 -1.0456  3.4412  0.7701
  820MOL0     H 8196   0.403   5.333  10.121 -1.6948  0.2476  0.7316
  820MOL0     H 8197   0.342   5.232  10.252 -0.0251  1.0981  1.5571
  820MOL0     H 8198   0.548   5.110  10.251 -3.0090  2.1344  1.6276
  820MOL0     H 8199   0.452   5.074  10.105 -0.1107 -0.5781 -0.6027
  820MOL0     H 8200   0.680   5.076  10.023 -2.6610 -2.3391  2.9909
  820MOL0     H 8201   0.715   5.235  10.101 -0.1949  1.0360 -1.4985
  820MOL0     H 8202   0.516   5.295   9.701  0.9020 -2.4154  0.7033
  820MOL0     H 8203   0.643   5.409   9.535  0.1053  1.4838  0.5355
  820MOL0     H 8204   1.046   5.722   9.479 -0.2495 -0.7182  2.3249
  820MOL0     H 8205   1.222   5.823   9.340  0.9852  0.2656 -2.3180
  820MOL0     H 8206   1.436   5.862   9.345 -1.3094 -2.4918  0.2213
  820MOL0     H 8207   1.422   5.887   9.165  3.5380  0.3851 -2.3361
  820MOL0     H 8208   1.626   5.801   9.122 -1.1838 -3.0482  1.1904
  820MOL0     H 8209   1.667   5.782   9.298 -2.0455  1.2337  1.2504
  820MOL0     H 8210   1.606   6.041   9.295 -1.1677  0.6523 -1.2822
  820MOL0     H 8211   1.604   6.033   9.120 -0.9183  0.8953  1.4955
  820MOL0     H 8212   1.803   6.125   9.217 -4.4299  0.9265  3.3780
  820MOL0     H 8213   1.839   5.964   9.303  0.6713 -1.0117 -0.1912
  820MOL0     H 8214   1.837   5.999   8.998 -1.1428  0.8019  1.7582
  820MOL0     H 8215   1.890   5.855   9.090 -0.0099 -0.5714 -0.8925
  820MOL0     H 8216   2.014   6.128   9.065  0.4770 -0.3792 -1.9327
  820MOL0     H 8217   2.066   5.984   8.987  0.5932 -0.3041  0.0482
  820MOL0     H 8218   2.128   6.056   9.267 -1.9568 -1.9980  1.2768
  820MOL0     H 8219   2.069   5.893   9.247  2.2181 -0.6496  1.1177
  820MOL0     H 8220   2.254   5.857   9.081 -1.8125  0.5883 -0.2182
  820MOL0     H 8221   2.308   5.926   9.238  1.0603 -0.4905 -1.1749
  820MOL0     H 8222   1.402   5.434   9.268 -2.1828 -2.9990 -0.2331
  820MOL0     H 8223   1.231   5.332   9.411 -1.5492  0.8552  1.9188
  820MOL0     H 8224   1.003   5.359   9.753 -0.1689  0.6048  1.5693
  820MOL0     H 8225   0.856   5.290   9.965 -1.2386  0.0580 -0.6050
  820MOL0     H 8226   1.142   6.423  10.464  0.1054  0.2553 -3.1717
  820MOL0     H 8227   1.277   6.595  10.446 -0.9205  0.1480 -0.4077
  820MOL0     H 8228   1.463   6.922  10.382 -1.3207  0.3264  1.2789
  820MOL0     H 8229   1.683   7.062  10.357  2.4663  2.0093  2.1031
  820MOL0     H 8230   2.044   7.126  10.574 -0.4533 -2.5852 -0.2030
  820MOL0     H 8231   1.937   7.087  10.708 -0.8626  0.2653 -0.3777
  820MOL0     H 8232   1.853   7.306  10.694  0.0866 -0.7249  0.3041
  820MOL0     H 8233   2.032   7.315  10.720 -1.0146  1.5953  0.7875
  820MOL0     H 8234   1.891   7.367  10.450  2.0447 -0.7622 -1.9223
  820MOL0     H 8235   2.064   7.335  10.456 -0.6653  0.6901 -3.2728
  820MOL0     H 8236   2.112   7.534  10.594 -0.8151  0.7374  2.0250
  820MOL0     H 8237   2.029   7.569  10.442 -3.3262 -0.3612 -0.6851
  820MOL0     H 8238   1.724   7.701  10.694  1.3074  2.0302  0.0559
  820MOL0     H 8239   1.715   7.095  10.765 -2.3860 -1.0288  2.6999
  820MOL0     H 8240   1.520   6.953  10.807 -1.4896  2.7408  0.5127
  821MOL0     O 8241   7.835   9.226   3.495 -0.4823  0.4182 -0.2591
  821MOL0     C 8242   7.852   9.223   3.371  0.5621  0.0518  0.0652
  821MOL0     O 8243   7.763   9.271   3.289  0.3721 -0.3244  0.3916
  821MOL0     C 8244   7.652   9.335   3.337 -0.4404  0.4847  0.2921
  821MOL0     C 8245   7.635   9.475   3.324 -0.1769  0.3776 -0.4941
  821MOL0     C 8246   7.538   9.532   3.410 -0.6185 -0.1362  0.1581
  821MOL0     C 8247   7.435   9.461   3.469 -0.4829 -0.7253  0.6355
  821MOL0     O 8248   7.318   9.510   3.526  0.0762 -1.1132 -0.2712
  821MOL0     C 8249   7.253   9.465   3.641 -0.2323 -0.7598 -0.3582
  821MOL0     C 8250   7.344   9.449   3.770 -0.8987 -0.0427 -0.4762
  821MOL0     C 8251   7.402   9.591   3.809 -0.1186 -1.2973 -0.4476
  821MOL0     C 8252   7.510   9.585   3.920  0.2040  1.0481  1.1318
  821MOL0     C 8253   7.575   9.721   3.933 -0.3386 -0.2741 -0.2135
  821MOL0     C 8254   7.673   9.728   4.047 -0.0255 -0.1171 -0.2729
  821MOL0     C 8255   7.733   9.870   4.088  0.4585  0.2861 -0.5708
  821MOL0     C 8256   7.819   9.886   4.214  0.1290  0.3971 -0.0678
  821MOL0     N 8257   7.726   9.878   4.325 -0.1799 -1.5602 -0.2633
  821MOL0     C 8258   7.679   9.992   4.390  0.1332  1.0804  0.0442
  821MOL0     C 8259   7.596   9.941   4.489 -0.5733 -0.2347 -0.0398
  821MOL0     C 8260   7.529  10.028   4.590 -0.3470 -0.3215 -0.3705
  821MOL0     C 8261   7.384  10.047   4.544  0.1859 -0.0405  0.9764
  821MOL0     C 8262   7.294  10.127   4.641 -0.3515  0.1816  0.0864
  821MOL0     C 8263   7.323  10.090   4.791 -0.0287  0.0905  0.3003
  821MOL0     O 8264   7.217  10.147   4.871  0.1706  1.6469 -0.3928
  821MOL0     C 8265   7.241  10.146   5.008 -0.9018  0.1548  0.3692
  821MOL0     C 8266   7.183  10.248   5.081  0.2217  0.7367  0.1788
  821MOL0     C 8267   7.205  10.266   5.215  0.3808 -0.1570  0.4184
  821MOL0     C 8268   7.273  10.172   5.289  0.0498  0.2656 -0.7300
  821MOL0     C 8269   7.307  10.169   5.441 -0.1313  0.7128  0.8694
  821MOL0     O 8270   7.421  10.092   5.472  0.5569 -0.0688 -0.0954
  821MOL0     C 8271   7.463  10.059   5.596  0.2857 -0.6549 -0.7556
  821MOL0     C 8272   7.365  10.044   5.699  0.0797 -0.8103 -0.4552
  821MOL0     C 8273   7.399  10.025   5.834 -0.8076  0.0874  0.4877
  821MOL0     C 8274   7.544  10.000   5.847  0.5347  0.3008  0.1273
  821MOL0     O 8275   7.597   9.980   5.967 -0.3318  0.6266 -0.4882
  821MOL0     C 8276   7.524   9.986   6.087  0.6390 -0.0963  0.1522
  821MOL0     C 8277   7.613   9.949   6.193 -0.7047  0.4886 -0.5869
  821MOL0     C 8278   7.715  10.062   6.206  0.2269  1.0450  0.0692
  821MOL0     C 8279   7.795  10.061   6.340  0.1999  0.8781 -0.1371
  821MOL0     C 8280   7.861  10.201   6.366 -0.3334  0.4931  0.3151
  821MOL0     C 8281   7.770  10.331   6.365  0.9204  0.8852  0.3948
  821MOL0     C 8282   7.850  10.458   6.319  0.9501  0.8988  1.3387
  821MOL0     C 8283   7.761  10.589   6.308  0.6408  0.5826  0.0408
  821MOL0    Cl 8284   7.615  10.594   6.423  0.1180 -0.3826 -0.1496
  821MOL0     C 8285   7.639  10.008   5.743 -0.2647 -0.6365 -0.1239
  821MOL0     C 8286   7.598  10.033   5.616 -0.0209  0.1364  0.3483
  821MOL0     O 8287   7.241  10.240   5.514 -0.2290  0.6757 -0.6661
  821MOL0     C 8288   7.330  10.069   5.219  0.2436  0.2281 -0.3057
  821MOL0     C 8289   7.324  10.061   5.077  0.1316  0.3331  0.2482
  821MOL0     N 8290   7.610   9.800   4.485  0.2321 -0.4094  0.4195
  821MOL0     N 8291   7.688   9.769   4.387 -0.2251  1.3142 -0.0837
  821MOL0     C 8292   7.439   9.322   3.459  0.3491 -0.1945 -0.7970
  821MOL0     C 8293   7.548   9.258   3.399 -0.0876 -0.4354 -0.3895
  821MOL0     C 8294   7.981   9.188   3.308  1.2451  0.2321 -0.2069
  821MOL0     C 8295   7.993   9.166   3.159  0.5809 -0.7544  0.5086
  821MOL0     C 8296   8.111   9.126   3.097 -0.4965  0.1529  0.0811
  821MOL0     C 8297   8.228   9.126   3.179  0.3488 -0.0406  0.6425
  821MOL0     O 8298   8.346   9.066   3.139  1.1883 -0.8880 -0.2134
  821MOL0     C 8299   8.411   9.098   3.016 -0.4500 -0.0271 -1.0869
  821MOL0     C 8300   8.561   9.089   3.044  0.5234  0.2895 -0.0239
  821MOL0     C 8301   8.657   9.149   2.939  0.5431  0.2780  0.3980
  821MOL0     C 8302   8.765   9.045   2.900 -0.0085  0.0416  0.0790
  821MOL0     C 8303   8.856   9.110   2.795  0.0164  0.1579 -1.0896
  821MOL0     C 8304   8.922   9.163   2.705 -0.6162  0.5510  0.8939
  821MOL0     C 8305   8.233   9.143   3.319 -0.4539 -0.3380  1.1626
  821MOL0     C 8306   8.105   9.175   3.378 -0.0771 -0.6745  0.4414
  821MOL0     H 8307   7.723   9.532   3.296 -0.3365  0.1763 -1.4665
  821MOL0     H 8308   7.536   9.638   3.431 -1.5752  0.2833 -1.7825
  821MOL0     H 8309   7.216   9.366   3.613 -1.5134 -0.1319 -0.9731
  821MOL0     H 8310   7.165   9.528   3.655 -0.5610 -1.4826  0.9200
  821MOL0     H 8311   7.426   9.378   3.753  0.6726  0.8841  2.4289
  821MOL0     H 8312   7.283   9.417   3.856 -0.2460  3.1137  1.3053
  821MOL0     H 8313   7.318   9.657   3.833  1.1611  0.8593 -1.6410
  821MOL0     H 8314   7.420   9.643   3.715 -0.0597  0.5577  0.5518
  821MOL0     H 8315   7.466   9.543   4.011  0.2766 -1.7487 -0.0123
  821MOL0     H 8316   7.581   9.511   3.883  0.5740  2.0769 -0.3178
  821MOL0     H 8317   7.508   9.806   3.951  0.0833 -0.1400  0.8174
  821MOL0     H 8318   7.627   9.732   3.837 -1.0041 -2.0363 -0.8041
  821MOL0     H 8319   7.751   9.655   4.024  0.6767 -0.3742  2.5370
  821MOL0     H 8320   7.624   9.695   4.139 -0.2036 -0.3278 -0.4463
  821MOL0     H 8321   7.799   9.897   4.005  0.4716 -1.4929 -1.1833
  821MOL0     H 8322   7.648   9.939   4.084 -3.2562 -3.8530 -2.3566
  821MOL0     H 8323   7.866   9.985   4.213 -1.8205  1.4049 -2.4113
  821MOL0     H 8324   7.903   9.817   4.225 -1.1184 -0.8752  2.5106
  821MOL0     H 8325   7.708  10.093   4.361  3.2377  0.5648  1.0032
  821MOL0     H 8326   7.589  10.119   4.603 -2.6975  1.0673  1.4109
  821MOL0     H 8327   7.522   9.966   4.680 -0.3248 -0.0714 -0.1956
  821MOL0     H 8328   7.329   9.953   4.535  0.9649 -0.4934  0.9004
  821MOL0     H 8329   7.368  10.087   4.443 -0.4129 -1.2559  0.5801
  821MOL0     H 8330   7.306  10.236   4.631  3.1299 -0.0143  0.6892
  821MOL0     H 8331   7.189  10.100   4.629  0.3067 -3.4961  1.4074
  821MOL0     H 8332   7.419  10.132   4.823  1.4970 -0.9795 -2.5981
  821MOL0     H 8333   7.323   9.983   4.812 -1.1812 -0.5196 -2.4601
  821MOL0     H 8334   7.128  10.323   5.027 -2.5526  0.5060  2.4544
  821MOL0     H 8335   7.157  10.353   5.260  1.2066  2.2833 -2.9766
  821MOL0     H 8336   7.257  10.042   5.684  0.1850 -2.0724 -1.2197
  821MOL0     H 8337   7.317  10.010   5.904 -1.1642 -1.8903 -0.2770
  821MOL0     H 8338   7.431   9.929   6.090 -1.5411  3.2883  1.2901
  821MOL0     H 8339   7.486  10.088   6.095 -0.4741 -0.4742 -0.0993
  821MOL0     H 8340   7.650   9.848   6.172 -2.6745 -0.2850 -0.6211
  821MOL0     H 8341   7.548   9.948   6.281 -4.5929  3.2243 -3.1144
  821MOL0     H 8342   7.667  10.158   6.184 -0.0426  0.6554 -1.0604
  821MOL0     H 8343   7.793  10.047   6.130  0.1563 -0.2973  0.2490
  821MOL0     H 8344   7.720  10.038   6.416 -0.9958  1.4283 -1.1155
  821MOL0     H 8345   7.874   9.987   6.327  1.5691  1.5307  3.4522
  821MOL0     H 8346   7.941  10.215   6.294 -3.1050  1.5823 -2.8031
  821MOL0     H 8347   7.908  10.182   6.463 -0.2800 -2.1603 -0.1354
  821MOL0     H 8348   7.732  10.339   6.467 -0.5351 -3.5057  0.3972
  821MOL0     H 8349   7.677  10.328   6.308  1.2005  3.6002 -0.3554
  821MOL0     H 8350   7.934  10.482   6.384  1.4499  1.0040  0.6641
  821MOL0     H 8351   7.883  10.451   6.215 -0.1404  1.4096  0.9402
  821MOL0     H 8352   7.709  10.579   6.213 -0.2610 -1.8946  0.7373
  821MOL0     H 8353   7.818  10.681   6.328 -3.0284  2.6348  2.2413
  821MOL0     H 8354   7.741   9.982   5.770  1.2864  2.9447 -1.8866
  821MOL0     H 8355   7.670  10.036   5.535  1.3435 -0.0891  1.5017
  821MOL0     H 8356   7.378   9.985   5.269 -2.3741 -2.0465 -1.3254
  821MOL0     H 8357   7.370   9.978   5.026 -0.1958 -0.4310  1.1562
  821MOL0     H 8358   7.357   9.257   3.486  0.1104  0.5027  0.2094
  821MOL0     H 8359   7.555   9.150   3.404 -0.4431 -0.4254  0.7303
  821MOL0     H 8360   7.909   9.192   3.096  2.4382 -0.4155 -1.9644
  821MOL0     H 8361   8.126   9.101   2.993 -2.9234 -0.8612 -0.0840
  821MOL0     H 8362   8.383   9.201   2.992 -2.4090 -0.1749  0.3357
  821MOL0     H 8363   8.378   9.028   2.939 -1.8248 -0.9571  0.3096
  821MOL0     H 8364   8.554   9.150   3.134 -1.7639  3.3355 -2.0477
  821MOL0     H 8365   8.579   8.984   3.068  0.1753  0.3684  0.6185
  821MOL0     H 8366   8.702   9.235   2.989  1.4130  0.5247 -0.7595
  821MOL0     H 8367   8.602   9.195   2.857  1.7413  1.6989  0.3367
  821MOL0     H 8368   8.830   9.016   2.983 -1.1437 -5.3969 -0.5775
  821MOL0     H 8369   8.733   8.951   2.855 -0.7811  0.9486 -1.3616
  821MOL0     H 8370   8.980   9.210   2.628 -2.5778  2.4285  0.4875
  821MOL0     H 8371   8.326   9.126   3.371 -0.5644 -1.4002  1.0287
  821MOL0     H 8372   8.096   9.202   3.483 -4.0691 -0.0855  0.0695
  822MOL0     O 8373   0.627   2.954   6.081 -0.3784  0.2233  0.2761
  822MOL0     C 8374   0.624   2.838   6.045  1.0935  0.2588  0.8710
  822MOL0     O 8375   0.506   2.773   6.009  0.2530 -0.4748  0.6862
  822MOL0     C 8376   0.392   2.818   6.068  0.5073  0.6846  0.4159
  822MOL0     C 8377   0.305   2.913   6.014 -0.1019 -0.3433  0.4279
  822MOL0     C 8378   0.192   2.943   6.076 -0.5250  0.0652 -0.3290
  822MOL0     C 8379   0.151   2.867   6.185  0.4422  0.5408  0.2987
  822MOL0     O 8380   0.024   2.897   6.235 -0.5606 -0.1109  0.2038
  822MOL0     C 8381  -0.055   2.785   6.238  0.4792  0.1081  0.6067
  822MOL0     C 8382  -0.137   2.783   6.369  0.3323 -0.0197 -0.1525
  822MOL0     C 8383  -0.264   2.702   6.377  0.4709 -1.1101 -0.0472
  822MOL0     C 8384  -0.366   2.729   6.252 -1.3677  0.3149 -0.5689
  822MOL0     C 8385  -0.482   2.626   6.252  0.4423  0.0278  0.6528
  822MOL0     C 8386  -0.605   2.684   6.180 -0.5478 -0.0792 -0.2113
  822MOL0     C 8387  -0.728   2.594   6.203  0.6961 -0.2592  0.7555
  822MOL0     C 8388  -0.855   2.638   6.135 -0.3328  0.1825 -0.1745
  822MOL0     N 8389  -0.944   2.523   6.146 -0.1568  0.8027 -0.0462
  822MOL0     C 8390  -0.991   2.454   6.035 -0.3093 -0.0391  0.8774
  822MOL0     C 8391  -1.105   2.395   6.083 -0.3440 -0.7021  0.0379
  822MOL0     C 8392  -1.187   2.304   6.005  1.0120  1.1587 -0.0706
  822MOL0     C 8393  -1.276   2.379   5.902 -0.4918  0.0771  0.3301
  822MOL0     C 8394  -1.380   2.282   5.839  0.3918  0.5856  0.0646
  822MOL0     C 8395  -1.509   2.263   5.911 -0.1745  0.2867  0.2784
  822MOL0     O 8396  -1.603   2.208   5.815 -0.3823  0.7201  0.5807
  822MOL0     C 8397  -1.736   2.211   5.826  0.1148 -0.4605  0.0648
  822MOL0     C 8398  -1.812   2.247   5.938  0.7192  0.0572 -0.4936
  822MOL0     C 8399  -1.958   2.230   5.941  0.0019  0.5143 -0.5066
  822MOL0     C 8400  -2.027   2.189   5.822  0.4229 -0.1891 -0.7024
  822MOL0     C 8401  -2.178   2.172   5.820 -0.8367 -0.2032  0.5979
  822MOL0     O 8402  -2.243   2.178   5.942 -0.7516  0.7398  1.1854
  822MOL0     C 8403  -2.381   2.177   5.941  0.9695 -0.2411 -0.1471
  822MOL0     C 8404  -2.448   2.118   6.046 -0.3969  0.4369  0.0037
  822MOL0     C 8405  -2.587   2.111   6.046  0.4442 -0.1402 -0.1256
  822MOL0     C 8406  -2.670   2.167   5.949 -0.1347 -0.5632 -1.1147
  822MOL0     O 8407  -2.804   2.151   5.947  0.6676 -0.0952  0.5590
  822MOL0     C 8408  -2.878   2.279   5.973 -0.7323  0.6497 -0.0254
  822MOL0     C 8409  -2.983   2.255   6.092  0.1710 -0.8094 -0.6980
  822MOL0     C 8410  -2.926   2.268   6.232  0.2874 -0.2996 -0.1630
  822MOL0     C 8411  -3.019   2.227   6.355 -0.1687  0.2431 -0.2604
  822MOL0     C 8412  -3.157   2.295   6.351 -0.3674  0.4395 -0.2606
  822MOL0     C 8413  -3.147   2.448   6.353  0.8630  0.6296 -0.3000
  822MOL0     C 8414  -3.272   2.514   6.302 -0.2048 -0.8465 -0.7453
  822MOL0     C 8415  -3.260   2.670   6.323 -0.0681  0.1146  0.2335
  822MOL0    Cl 8416  -3.144   2.753   6.214 -0.1046  0.4046 -0.4138
  822MOL0     C 8417  -2.601   2.234   5.847 -0.4056  0.7319  0.4981
  822MOL0     C 8418  -2.456   2.232   5.836  0.6209 -0.4041 -0.5608
  822MOL0     O 8419  -2.233   2.148   5.709  0.6209  0.5723  0.2708
  822MOL0     C 8420  -1.950   2.163   5.709  0.3565 -0.4769 -0.2787
  822MOL0     C 8421  -1.811   2.184   5.711  0.4850 -0.0952 -0.3305
  822MOL0     N 8422  -1.111   2.411   6.218  0.5316  0.2445 -0.2705
  822MOL0     N 8423  -1.019   2.484   6.253 -0.8252 -0.0080 -0.0180
  822MOL0     C 8424   0.237   2.770   6.239  0.4698 -0.5206 -0.2128
  822MOL0     C 8425   0.358   2.745   6.177  0.2336 -0.0190  0.1490
  822MOL0     C 8426   0.753   2.761   6.028  0.1636  1.3008  0.3824
  822MOL0     C 8427   0.876   2.816   6.041 -0.2421 -0.5684  0.8134
  822MOL0     C 8428   0.990   2.746   6.004 -0.1778 -0.5395  0.0815
  822MOL0     C 8429   0.986   2.622   5.938 -0.6541  0.7733  0.1521
  822MOL0     O 8430   1.103   2.559   5.884  0.6322 -0.3688  0.3551
  822MOL0     C 8431   1.237   2.604   5.919  0.4978  0.2190 -0.1541
  822MOL0     C 8432   1.267   2.545   6.062  0.4031  0.2508 -0.0015
  822MOL0     C 8433   1.394   2.587   6.137  0.2025  0.1504  0.5561
  822MOL0     C 8434   1.531   2.570   6.075  0.9568  0.2584 -1.0858
  822MOL0     C 8435   1.647   2.578   6.170 -0.5066 -0.2807 -0.0053
  822MOL0     C 8436   1.736   2.590   6.260 -0.7382 -0.8368  0.7006
  822MOL0     C 8437   0.861   2.564   5.928  0.2282  0.1358 -0.5201
  822MOL0     C 8438   0.753   2.624   5.978  0.6320 -0.0265 -0.3282
  822MOL0     H 8439   0.354   2.963   5.932  1.7846 -1.9788  0.4772
  822MOL0     H 8440   0.121   3.006   6.023 -1.0914 -1.2654 -1.2040
  822MOL0     H 8441  -0.001   2.691   6.224 -1.3041 -0.8480 -0.2546
  822MOL0     H 8442  -0.118   2.804   6.151  0.9704 -1.2310 -0.0639
  822MOL0     H 8443  -0.155   2.890   6.387 -0.1063 -0.0779 -0.2398
  822MOL0     H 8444  -0.066   2.747   6.444  2.9038  1.8002 -1.5672
  822MOL0     H 8445  -0.327   2.725   6.464  0.1625  1.4059 -0.8312
  822MOL0     H 8446  -0.237   2.597   6.384 -3.3114 -2.1317  2.7135
  822MOL0     H 8447  -0.401   2.831   6.269  3.7920  2.3266 -0.0260
  822MOL0     H 8448  -0.303   2.730   6.163  0.0323  1.6923  0.3730
  822MOL0     H 8449  -0.515   2.589   6.349 -5.4868  3.3468  0.3944
  822MOL0     H 8450  -0.457   2.536   6.195  0.4751 -0.1116  0.8897
  822MOL0     H 8451  -0.582   2.695   6.074 -1.5734 -1.1313 -0.5737
  822MOL0     H 8452  -0.613   2.784   6.224  3.3631  0.1835  0.2447
  822MOL0     H 8453  -0.705   2.495   6.165  0.4248 -1.4904  3.5246
  822MOL0     H 8454  -0.737   2.580   6.311  1.4716  1.0930  1.0251
  822MOL0     H 8455  -0.840   2.661   6.029 -1.8634  1.1433 -0.2167
  822MOL0     H 8456  -0.905   2.724   6.181 -3.0656 -2.2629  1.7614
  822MOL0     H 8457  -0.934   2.441   5.944  1.2746 -0.9292  1.9255
  822MOL0     H 8458  -1.253   2.258   6.079  0.9025  1.0961 -0.2077
  822MOL0     H 8459  -1.128   2.220   5.966 -2.5398 -1.4502 -0.3053
  822MOL0     H 8460  -1.208   2.409   5.822 -0.2620 -0.9431  0.1355
  822MOL0     H 8461  -1.330   2.459   5.955  1.7316  1.0665  1.2089
  822MOL0     H 8462  -1.410   2.315   5.740 -4.2802 -0.6898  0.8015
  822MOL0     H 8463  -1.334   2.183   5.826 -1.4290 -0.1838 -0.8831
  822MOL0     H 8464  -1.544   2.360   5.947  1.7830  0.5852  1.5107
  822MOL0     H 8465  -1.486   2.203   6.000  0.2751 -0.1390 -0.1143
  822MOL0     H 8466  -1.757   2.263   6.030 -1.1062  4.1252  0.1267
  822MOL0     H 8467  -2.001   2.254   6.037  0.6084  2.6310 -0.7038
  822MOL0     H 8468  -2.410   2.055   6.127 -3.2168 -4.2928 -1.9239
  822MOL0     H 8469  -2.637   2.060   6.128  4.1588 -1.9904  1.2281
  822MOL0     H 8470  -2.934   2.320   5.889 -1.7157  1.4517  0.9994
  822MOL0     H 8471  -2.809   2.361   5.995 -1.0358  1.5683 -2.1952
  822MOL0     H 8472  -3.030   2.156   6.091 -2.5256  0.4087 -1.0896
  822MOL0     H 8473  -3.057   2.334   6.079  1.2705  0.5178  0.7472
  822MOL0     H 8474  -2.875   2.363   6.247  0.0356 -0.5369  2.6419
  822MOL0     H 8475  -2.846   2.193   6.235 -1.6726 -2.4593  1.3705
  822MOL0     H 8476  -3.040   2.120   6.365 -1.2007  0.4716  0.1926
  822MOL0     H 8477  -2.967   2.255   6.447  0.6070 -1.3969 -0.1766
  822MOL0     H 8478  -3.224   2.255   6.427 -2.2745 -1.0367 -2.5951
  822MOL0     H 8479  -3.202   2.270   6.255 -0.5161 -2.7207  0.5345
  822MOL0     H 8480  -3.055   2.488   6.310  2.0872 -1.6362  0.0334
  822MOL0     H 8481  -3.150   2.481   6.457 -2.5635 -1.6839  0.5209
  822MOL0     H 8482  -3.290   2.491   6.196 -4.0022  2.1276 -0.9480
  822MOL0     H 8483  -3.359   2.478   6.358 -0.4097 -3.3988 -2.5017
  822MOL0     H 8484  -3.239   2.685   6.429 -0.1673 -0.9523  0.4141
  822MOL0     H 8485  -3.360   2.713   6.311 -0.7211 -0.9002  1.7522
  822MOL0     H 8486  -2.659   2.277   5.766  1.4050  1.1971 -0.5917
  822MOL0     H 8487  -2.413   2.280   5.749 -0.5379 -2.8687 -2.6632
  822MOL0     H 8488  -2.001   2.127   5.620  2.5176 -0.6058 -1.5192
  822MOL0     H 8489  -1.760   2.167   5.617  2.5484 -3.8390  1.2378
  822MOL0     H 8490   0.210   2.706   6.322 -0.2737  0.8544  0.6404
  822MOL0     H 8491   0.426   2.672   6.219 -0.1441 -1.1343 -1.1094
  822MOL0     H 8492   0.884   2.923   6.060 -1.3262 -0.0443 -1.3677
  822MOL0     H 8493   1.085   2.798   6.008 -0.8663  0.7099  4.1864
  822MOL0     H 8494   1.248   2.713   5.921  2.6121  0.0461  1.1270
  822MOL0     H 8495   1.309   2.560   5.849  0.1486 -0.7637  0.0766
  822MOL0     H 8496   1.182   2.567   6.127  0.5159 -1.4224  0.7756
  822MOL0     H 8497   1.270   2.436   6.048  0.0372  0.1781  0.4842
  822MOL0     H 8498   1.388   2.542   6.236 -4.1112  2.6266  1.6822
  822MOL0     H 8499   1.391   2.693   6.163  0.4347  0.1620  0.5401
  822MOL0     H 8500   1.543   2.471   6.028  4.2307  0.1389 -0.2364
  822MOL0     H 8501   1.562   2.637   5.994  0.8700 -0.8193 -2.0418
  822MOL0     H 8502   1.811   2.611   6.334 -0.0923  0.0951 -0.1892
  822MOL0     H 8503   0.832   2.471   5.882 -0.0664 -0.1699  0.2591
  822MOL0     H 8504   0.665   2.568   5.946  2.8512 -2.4137 -2.7819
  823MOL0     O 8505   3.021   1.249   4.506  0.2820  0.4245 -0.0438
  823MOL0     C 8506   2.956   1.153   4.476 -0.8639  0.8928  1.4781
  823MOL0     O 8507   3.007   1.028   4.445  0.2904  0.3953  0.2565
  823MOL0     C 8508   3.137   1.006   4.454 -0.0191  0.3752 -0.0079
  823MOL0     C 8509   3.194   0.933   4.558  0.1856  0.1326  0.1815
  823MOL0     C 8510   3.325   0.920   4.581 -0.7708 -0.4757  0.4903
  823MOL0     C 8511   3.418   0.970   4.489  0.5546  0.2875 -0.8275
  823MOL0     O 8512   3.559   0.965   4.478 -0.4282  0.9462  0.8001
  823MOL0     C 8513   3.626   0.868   4.558 -0.8131  0.1748  0.0738
  823MOL0     C 8514   3.595   0.732   4.507  1.5735  0.1958 -0.1784
  823MOL0     C 8515   3.681   0.618   4.568  0.1124  0.7926 -0.1588
  823MOL0     C 8516   3.831   0.621   4.514  0.7022 -0.2119  0.5816
  823MOL0     C 8517   3.910   0.482   4.515 -0.1530  0.0890  0.4904
  823MOL0     C 8518   3.937   0.435   4.665 -0.1732  0.0592 -0.4085
  823MOL0     C 8519   4.017   0.313   4.657  0.8968 -0.3370  0.6069
  823MOL0     C 8520   4.012   0.230   4.789 -0.6623 -0.5519 -0.3111
  823MOL0     N 8521   3.897   0.148   4.788 -0.3500 -0.9393 -0.0306
  823MOL0     C 8522   3.868   0.033   4.722  0.2185  0.5935  0.3215
  823MOL0     C 8523   3.749  -0.014   4.766  0.2576 -0.2923 -0.3943
  823MOL0     C 8524   3.666  -0.138   4.742 -0.2955  0.0902  0.6606
  823MOL0     C 8525   3.605  -0.150   4.600  0.3928  0.0904  0.9092
  823MOL0     C 8526   3.528  -0.028   4.548 -0.6571  0.3885  0.3956
  823MOL0     C 8527   3.400  -0.004   4.627  1.1825  0.4915  1.1063
  823MOL0     O 8528   3.306  -0.103   4.586  0.4681  0.2887  0.4328
  823MOL0     C 8529   3.202  -0.127   4.672  0.8926 -0.0854  0.4443
  823MOL0     C 8530   3.144  -0.251   4.666 -0.0209 -0.3537 -0.8834
  823MOL0     C 8531   3.032  -0.295   4.738 -0.0869  0.0490  0.1411
  823MOL0     C 8532   2.968  -0.202   4.817 -0.1951 -0.3695  0.2431
  823MOL0     C 8533   2.829  -0.217   4.893 -0.4910  0.2744  0.6575
  823MOL0     O 8534   2.764  -0.098   4.897  0.3085 -0.3605 -0.5051
  823MOL0     C 8535   2.630  -0.101   4.935  0.5085 -0.2602  0.2771
  823MOL0     C 8536   2.543  -0.008   4.871 -0.2798  0.7181  0.7579
  823MOL0     C 8537   2.402  -0.002   4.891  0.3585  0.4660  0.0833
  823MOL0     C 8538   2.342  -0.082   4.989 -0.6608  0.9007  1.0485
  823MOL0     O 8539   2.214  -0.066   5.012  0.6304 -0.1034  0.4210
  823MOL0     C 8540   2.165  -0.077   5.145 -0.7079  0.2245  0.4913
  823MOL0     C 8541   2.035  -0.003   5.149  0.2281  0.3457  0.5650
  823MOL0     C 8542   1.971  -0.015   5.282 -0.2141 -0.5682  1.3317
  823MOL0     C 8543   1.842   0.059   5.311 -0.1147  0.9954  0.0464
  823MOL0     C 8544   1.796   0.050   5.452  0.2067  0.5622 -0.4534
  823MOL0     C 8545   1.670   0.124   5.500  0.2749 -0.6950  0.0686
  823MOL0     C 8546   1.541   0.058   5.454 -0.0273 -0.1532 -1.6436
  823MOL0     C 8547   1.424   0.162   5.450  0.0035  0.6328 -0.0172
  823MOL0    Cl 8548   1.411   0.236   5.612 -0.0297 -0.0887  0.1693
  823MOL0     C 8549   2.432  -0.171   5.060 -0.5263 -0.3388 -0.5620
  823MOL0     C 8550   2.569  -0.178   5.041 -0.9649  0.0373 -0.0559
  823MOL0     O 8551   2.776  -0.331   4.904  1.2523 -0.7638  0.3012
  823MOL0     C 8552   3.023  -0.073   4.834  0.3975  0.2827 -0.2916
  823MOL0     C 8553   3.141  -0.037   4.760 -0.0909 -1.3514  0.5582
  823MOL0     N 8554   3.705   0.070   4.866 -0.3644 -0.3982 -0.5436
  823MOL0     N 8555   3.782   0.181   4.859  0.0743 -0.1382 -0.4075
  823MOL0     C 8556   3.370   1.033   4.376 -0.3302 -0.2943  0.2645
  823MOL0     C 8557   3.235   1.050   4.360 -0.1696  0.2810  0.6790
  823MOL0     C 8558   2.814   1.169   4.476 -0.2355 -0.3732  0.2185
  823MOL0     C 8559   2.754   1.306   4.483  0.6600 -0.1139 -0.3622
  823MOL0     C 8560   2.617   1.324   4.485 -1.2290 -0.5678 -0.0431
  823MOL0     C 8561   2.531   1.219   4.467  0.6049 -0.5368  0.1463
  823MOL0     O 8562   2.392   1.232   4.463  0.3802  0.9762  0.4523
  823MOL0     C 8563   2.331   1.365   4.454  0.7291  0.3786 -0.1904
  823MOL0     C 8564   2.179   1.344   4.448 -0.0894 -0.6354 -0.2768
  823MOL0     C 8565   2.107   1.461   4.387 -0.3603 -0.4107  0.7251
  823MOL0     C 8566   1.961   1.422   4.359 -0.2301  0.0338  0.5625
  823MOL0     C 8567   1.934   1.306   4.271  0.1114 -0.2577  0.7257
  823MOL0     C 8568   1.915   1.223   4.186  0.2487  0.8202 -1.0335
  823MOL0     C 8569   2.583   1.096   4.465  0.2357 -0.1513  1.0068
  823MOL0     C 8570   2.724   1.063   4.456 -0.2822 -0.6788  0.6022
  823MOL0     H 8571   3.127   0.882   4.627 -0.3102  0.5397  0.0044
  823MOL0     H 8572   3.362   0.855   4.659  3.1357  0.1254 -0.6466
  823MOL0     H 8573   3.590   0.877   4.661 -1.7526  1.0752 -0.3108
  823MOL0     H 8574   3.734   0.882   4.562 -0.6924  0.5583 -2.5988
  823MOL0     H 8575   3.604   0.737   4.398  1.2871 -0.4146 -0.2367
  823MOL0     H 8576   3.492   0.699   4.526  1.8968  0.7955  3.2725
  823MOL0     H 8577   3.630   0.525   4.540 -1.0213  1.4416 -0.3191
  823MOL0     H 8578   3.679   0.627   4.677 -2.2468 -2.0201  0.1566
  823MOL0     H 8579   3.836   0.652   4.410  2.2563 -1.4866  0.2326
  823MOL0     H 8580   3.880   0.701   4.571 -1.7182  2.3014 -0.6605
  823MOL0     H 8581   4.012   0.490   4.474  0.3787 -1.5969  1.3780
  823MOL0     H 8582   3.864   0.401   4.459  0.1592  1.0082 -1.1637
  823MOL0     H 8583   3.841   0.408   4.711 -0.6536  1.3093 -0.6281
  823MOL0     H 8584   3.997   0.508   4.720  0.6535 -1.7685  1.1960
  823MOL0     H 8585   3.983   0.262   4.566  0.1833  0.5167  0.3788
  823MOL0     H 8586   4.122   0.328   4.628  1.3072  1.0323  2.5543
  823MOL0     H 8587   4.003   0.291   4.879  2.2978 -0.6939  0.1758
  823MOL0     H 8588   4.100   0.165   4.786  0.2527  0.3212  3.1122
  823MOL0     H 8589   3.938  -0.017   4.656  0.5447  0.5773  0.6727
  823MOL0     H 8590   3.592  -0.151   4.821  1.6578 -2.2378  2.2332
  823MOL0     H 8591   3.726  -0.227   4.764 -2.2983 -1.1567  1.2451
  823MOL0     H 8592   3.533  -0.233   4.594 -0.8921  1.2241 -3.0445
  823MOL0     H 8593   3.680  -0.170   4.523 -0.9374  1.6367 -0.9257
  823MOL0     H 8594   3.598   0.055   4.539  0.3370 -0.4852 -0.2409
  823MOL0     H 8595   3.486  -0.054   4.450  2.3490 -2.6508 -0.3102
  823MOL0     H 8596   3.343   0.087   4.608 -0.0308  0.3128  3.5077
  823MOL0     H 8597   3.417  -0.010   4.735 -1.9452  1.7433  1.7703
  823MOL0     H 8598   3.191  -0.316   4.593  2.2950 -0.3314  0.4822
  823MOL0     H 8599   3.000  -0.398   4.744  3.6564 -1.2157  1.0433
  823MOL0     H 8600   2.576   0.060   4.794 -0.2690 -0.4113 -0.2654
  823MOL0     H 8601   2.338   0.069   4.839 -1.6514  0.1844  1.9930
  823MOL0     H 8602   2.238  -0.034   5.213  0.7987 -2.4462  0.7275
  823MOL0     H 8603   2.166  -0.186   5.160  2.5736 -0.2928 -2.2995
  823MOL0     H 8604   1.965  -0.027   5.068  1.3444 -0.0524 -0.3227
  823MOL0     H 8605   2.071   0.100   5.142  0.3039  0.2602 -0.4815
  823MOL0     H 8606   2.048   0.017   5.353 -0.1944  2.5006  0.1105
  823MOL0     H 8607   1.969  -0.123   5.300  0.3968 -0.4534  2.1297
  823MOL0     H 8608   1.855   0.163   5.279  1.1297  1.7707  2.6981
  823MOL0     H 8609   1.762   0.011   5.254  0.5096  0.2187 -0.2038
  823MOL0     H 8610   1.874   0.100   5.510  3.0089 -3.1088 -0.7162
  823MOL0     H 8611   1.803  -0.055   5.482  1.2746  0.3324 -1.4395
  823MOL0     H 8612   1.668   0.218   5.444  0.4912 -0.4851  0.4113
  823MOL0     H 8613   1.667   0.139   5.608  2.1816  1.4450 -0.0997
  823MOL0     H 8614   1.554   0.008   5.357  3.4434 -0.9186 -0.9175
  823MOL0     H 8615   1.512  -0.017   5.529 -1.2029  2.6995  0.9650
  823MOL0     H 8616   1.333   0.107   5.424  1.0922 -0.5317 -1.5304
  823MOL0     H 8617   1.439   0.241   5.377 -0.1037  0.6111 -0.0628
  823MOL0     H 8618   2.393  -0.232   5.141  3.4608 -0.7079  1.2987
  823MOL0     H 8619   2.633  -0.239   5.103 -1.5203  1.0871  1.6064
  823MOL0     H 8620   2.985  -0.014   4.916  2.1924 -0.3963  1.1100
  823MOL0     H 8621   3.165   0.069   4.755 -0.2409 -1.3884 -2.5125
  823MOL0     H 8622   3.438   1.075   4.303  0.0539  0.2217  0.8999
  823MOL0     H 8623   3.205   1.085   4.262  1.9700 -1.7491 -0.7925
  823MOL0     H 8624   2.825   1.387   4.475  1.1697 -0.4839  0.2362
  823MOL0     H 8625   2.598   1.429   4.463  0.1316  0.2275  2.2087
  823MOL0     H 8626   2.365   1.413   4.362 -3.2513  0.0844 -2.0460
  823MOL0     H 8627   2.358   1.421   4.545  1.1398  0.4878 -0.3800
  823MOL0     H 8628   2.168   1.258   4.381 -0.9785  1.2084 -2.6160
  823MOL0     H 8629   2.157   1.315   4.551  2.9069  0.0346  0.6621
  823MOL0     H 8630   2.150   1.483   4.289 -0.1287  1.5145  1.2243
  823MOL0     H 8631   2.112   1.549   4.451 -0.7362 -0.8360  1.3481
  823MOL0     H 8632   1.912   1.396   4.453 -1.9818 -0.9483 -0.5419
  823MOL0     H 8633   1.911   1.513   4.326  1.1391  0.1706 -1.3276
  823MOL0     H 8634   1.903   1.145   4.113 -2.6866 -1.9563  2.1138
  823MOL0     H 8635   2.532   1.002   4.450  0.0817  0.3202 -2.2248
  823MOL0     H 8636   2.755   0.959   4.449  0.2059 -0.5785  1.1912
  824MOL0     O 8637   4.938   3.860   7.143  1.1410  0.3624  0.3511
  824MOL0     C 8638   4.997   3.751   7.136  1.0238  0.4838  0.8551
  824MOL0     O 8639   4.945   3.632   7.180 -0.7208  0.2531 -0.0098
  824MOL0     C 8640   4.850   3.639   7.281 -0.7213  0.7134 -0.5859
  824MOL0     C 8641   4.863   3.720   7.390 -1.2261  0.4007 -0.7647
  824MOL0     C 8642   4.772   3.708   7.497 -0.5290  0.6368 -0.5428
  824MOL0     C 8643   4.654   3.629   7.487 -0.8000  0.3691 -0.1768
  824MOL0     O 8644   4.562   3.630   7.581 -0.4993  0.2994 -0.1146
  824MOL0     C 8645   4.448   3.540   7.575 -0.2351 -0.1919 -0.4916
  824MOL0     C 8646   4.372   3.566   7.708 -0.7435 -0.2370  0.6477
  824MOL0     C 8647   4.273   3.449   7.734  0.3640  0.5637 -0.4637
  824MOL0     C 8648   4.189   3.466   7.863  0.3620 -0.4978  0.2164
  824MOL0     C 8649   4.099   3.339   7.880  0.0871  0.3854 -0.5227
  824MOL0     C 8650   4.006   3.362   7.999 -0.1296  0.5029 -0.8829
  824MOL0     C 8651   3.921   3.241   8.032 -0.5285 -0.6997  0.4469
  824MOL0     C 8652   3.875   3.268   8.178  0.2804  0.0227  0.3759
  824MOL0     N 8653   3.774   3.169   8.214 -0.6735  0.1199  0.2444
  824MOL0     C 8654   3.638   3.182   8.232  0.4648 -0.0819  0.6032
  824MOL0     C 8655   3.609   3.099   8.333 -0.1232 -0.4643 -0.1907
  824MOL0     C 8656   3.475   3.079   8.402 -0.4070 -0.3218  0.3334
  824MOL0     C 8657   3.365   3.051   8.291  0.0506 -0.1542 -0.9269
  824MOL0     C 8658   3.242   3.001   8.351 -0.1363  0.6625 -0.1021
  824MOL0     C 8659   3.136   2.945   8.255 -0.1912 -0.1376 -0.4661
  824MOL0     O 8660   3.074   2.842   8.324 -0.0563 -0.2135  0.2966
  824MOL0     C 8661   2.982   2.766   8.254 -0.3451  0.0823  0.4383
  824MOL0     C 8662   2.911   2.687   8.345  0.0460 -0.2355 -0.7454
  824MOL0     C 8663   2.828   2.594   8.291  0.9874  0.7054  0.9292
  824MOL0     C 8664   2.793   2.587   8.152  0.4287 -0.3205 -0.2336
  824MOL0     C 8665   2.699   2.489   8.105 -0.5023  1.0833 -0.1864
  824MOL0     O 8666   2.662   2.396   8.192 -0.8623  0.6446  0.8746
  824MOL0     C 8667   2.545   2.328   8.177  0.3124  0.0431  0.7206
  824MOL0     C 8668   2.425   2.384   8.121  0.2630  1.2959 -1.0684
  824MOL0     C 8669   2.306   2.312   8.099 -0.0828  0.5326  0.2986
  824MOL0     C 8670   2.305   2.171   8.121 -0.0136  0.5307 -0.6062
  824MOL0     O 8671   2.194   2.099   8.103 -0.4513 -0.4192 -0.4439
  824MOL0     C 8672   2.157   2.018   8.214  0.2774  0.3082  0.2843
  824MOL0     C 8673   2.001   1.980   8.221 -0.1205 -0.1564 -0.6978
  824MOL0     C 8674   1.904   2.094   8.192  0.6172  0.8270  0.2813
  824MOL0     C 8675   1.761   2.046   8.231 -0.6267  0.4262  0.4065
  824MOL0     C 8676   1.750   2.051   8.386 -0.0562  0.1447  0.3103
  824MOL0     C 8677   1.634   1.969   8.447  0.0716 -0.4456 -0.2302
  824MOL0     C 8678   1.502   2.042   8.442  0.2179 -0.4570  0.2982
  824MOL0     C 8679   1.390   1.947   8.486  0.0000 -0.7959  0.0984
  824MOL0    Cl 8680   1.222   2.040   8.494  0.0198  0.1309  0.1120
  824MOL0     C 8681   2.427   2.118   8.176  0.0346  0.6828  0.3028
  824MOL0     C 8682   2.536   2.196   8.202  0.6324  0.5656 -0.2124
  824MOL0     O 8683   2.653   2.513   7.990  0.0095  0.4234 -0.2749
  824MOL0     C 8684   2.863   2.672   8.070 -0.4883  0.0736  0.3551
  824MOL0     C 8685   2.954   2.768   8.112  0.3714  0.1540  0.2433
  824MOL0     N 8686   3.712   3.023   8.366 -0.6035 -0.4853 -0.1023
  824MOL0     N 8687   3.816   3.070   8.298  0.1363  0.5497  0.4927
  824MOL0     C 8688   4.649   3.543   7.367  0.0993 -0.1998 -0.4498
  824MOL0     C 8689   4.754   3.540   7.274  0.1937 -0.8249  0.1088
  824MOL0     C 8690   5.136   3.745   7.085  0.6402 -0.2191 -0.9333
  824MOL0     C 8691   5.197   3.854   7.015 -0.3105  0.0595 -0.1165
  824MOL0     C 8692   5.329   3.847   6.970  0.7530  0.5663 -0.3528
  824MOL0     C 8693   5.413   3.733   6.989 -0.5091 -0.3527 -0.8418
  824MOL0     O 8694   5.541   3.738   6.943 -0.4407  0.7350 -0.0634
  824MOL0     C 8695   5.635   3.629   6.963 -0.8295 -1.4201  0.3856
  824MOL0     C 8696   5.609   3.517   6.863  0.5556 -0.4684  0.2744
  824MOL0     C 8697   5.667   3.552   6.726 -0.5521  0.4919  0.1957
  824MOL0     C 8698   5.812   3.519   6.718  0.7401  0.5384 -0.3677
  824MOL0     C 8699   5.851   3.501   6.580 -0.4174 -0.9185  0.6638
  824MOL0     C 8700   5.884   3.482   6.464 -0.3753 -0.3732  0.3753
  824MOL0     C 8701   5.347   3.638   7.066  0.0799 -0.9268  1.0746
  824MOL0     C 8702   5.211   3.634   7.111  0.2296  0.3851 -0.1306
  824MOL0     H 8703   4.923   3.810   7.400 -0.3929 -0.2533  0.4722
  824MOL0     H 8704   4.790   3.764   7.588  2.5755  0.9179 -1.1898
  824MOL0     H 8705   4.494   3.441   7.588  1.3682  0.8370  2.8537
  824MOL0     H 8706   4.390   3.555   7.484  2.2366 -2.1066 -2.5294
  824MOL0     H 8707   4.329   3.667   7.706 -0.4342 -0.0641 -2.6579
  824MOL0     H 8708   4.439   3.569   7.795  0.4501  0.1778 -0.2507
  824MOL0     H 8709   4.336   3.359   7.730  0.0467  0.3578 -0.9117
  824MOL0     H 8710   4.197   3.436   7.657 -1.1854 -0.7235  1.2093
  824MOL0     H 8711   4.256   3.460   7.949 -1.3017 -0.2591  1.5922
  824MOL0     H 8712   4.135   3.560   7.849  0.8792 -0.2919 -0.4487
  824MOL0     H 8713   4.145   3.240   7.877 -0.2624  0.2446 -1.2785
  824MOL0     H 8714   4.024   3.332   7.801 -1.3445 -0.8345  0.8607
  824MOL0     H 8715   3.938   3.444   7.979 -0.5641  0.1511 -0.8613
  824MOL0     H 8716   4.069   3.377   8.088 -3.9724 -0.2964  2.2686
  824MOL0     H 8717   3.840   3.243   7.958  0.0017  1.4567 -0.1355
  824MOL0     H 8718   3.975   3.147   8.017 -2.6136 -2.3229  2.3964
  824MOL0     H 8719   3.842   3.372   8.176 -0.8479 -0.3349 -0.8540
  824MOL0     H 8720   3.956   3.239   8.246  0.3551 -0.0442  0.2584
  824MOL0     H 8721   3.563   3.250   8.195  0.8810  1.4408  2.4380
  824MOL0     H 8722   3.436   3.162   8.463 -0.2363 -0.6377  0.8731
  824MOL0     H 8723   3.480   2.998   8.474 -2.0397 -0.1722  0.6639
  824MOL0     H 8724   3.397   2.981   8.213  2.1998  1.2329 -1.3584
  824MOL0     H 8725   3.337   3.142   8.238 -1.5217 -0.2252 -0.2693
  824MOL0     H 8726   3.271   2.915   8.412 -1.2711  0.4896  0.2285
  824MOL0     H 8727   3.196   3.069   8.424  1.9100  1.3947  0.5608
  824MOL0     H 8728   3.186   2.905   8.166  1.0070  1.4854 -0.5708
  824MOL0     H 8729   3.065   3.021   8.222 -0.2277  0.1839  0.3086
  824MOL0     H 8730   2.927   2.705   8.451  0.8346  1.0504 -1.0533
  824MOL0     H 8731   2.779   2.522   8.355  0.7936 -0.1820 -0.1988
  824MOL0     H 8732   2.427   2.492   8.108  0.8880  1.5120  0.5845
  824MOL0     H 8733   2.209   2.347   8.064 -2.0224 -3.4921  1.0197
  824MOL0     H 8734   2.183   2.077   8.302  3.9907 -2.3223  1.1748
  824MOL0     H 8735   2.209   1.922   8.217 -0.8400 -0.3052  0.8071
  824MOL0     H 8736   1.978   1.936   8.319 -0.4038  2.9543  0.7389
  824MOL0     H 8737   1.982   1.904   8.145  0.7890  1.4012 -2.5795
  824MOL0     H 8738   1.893   2.118   8.086 -1.5689  0.4288  0.3743
  824MOL0     H 8739   1.934   2.188   8.239  1.0297 -0.9499  3.8676
  824MOL0     H 8740   1.686   2.109   8.181  0.2421  1.7154  0.6815
  824MOL0     H 8741   1.745   1.942   8.201 -2.1273  0.6943  0.1960
  824MOL0     H 8742   1.743   2.154   8.420 -1.8102  0.1072  0.1609
  824MOL0     H 8743   1.840   2.014   8.436  0.0580 -1.2021 -0.8014
  824MOL0     H 8744   1.657   1.947   8.551  2.0179  0.7981 -0.3525
  824MOL0     H 8745   1.619   1.876   8.391 -0.6992 -2.4187  2.9697
  824MOL0     H 8746   1.507   2.123   8.515 -1.1842 -1.0397  1.0891
  824MOL0     H 8747   1.477   2.079   8.342 -1.9224 -1.2268  0.5008
  824MOL0     H 8748   1.421   1.926   8.589  1.4140  0.5786 -0.0079
  824MOL0     H 8749   1.383   1.854   8.430 -1.5654 -1.0146  0.6140
  824MOL0     H 8750   2.435   2.013   8.203 -1.4311  0.9113  1.8016
  824MOL0     H 8751   2.620   2.141   8.244 -0.5504 -1.6865 -0.6414
  824MOL0     H 8752   2.830   2.684   7.967 -2.8561 -1.3907  0.8525
  824MOL0     H 8753   3.010   2.829   8.042 -0.1110 -1.2781 -1.4554
  824MOL0     H 8754   4.563   3.482   7.343 -0.9631  1.7480 -1.8472
  824MOL0     H 8755   4.761   3.465   7.196 -0.7826 -2.7477  1.7571
  824MOL0     H 8756   5.140   3.938   6.979 -2.5653 -1.1553  0.4429
  824MOL0     H 8757   5.363   3.939   6.924  2.3881  2.1437  3.5797
  824MOL0     H 8758   5.619   3.587   7.063  0.0330 -0.2414  1.0354
  824MOL0     H 8759   5.734   3.667   6.937 -3.1014  4.0477 -1.7669
  824MOL0     H 8760   5.651   3.421   6.895 -0.8307 -1.2406 -0.1578
  824MOL0     H 8761   5.502   3.499   6.849  0.0398  0.8701  2.1281
  824MOL0     H 8762   5.667   3.656   6.693 -1.6859  1.1134  2.0156
  824MOL0     H 8763   5.609   3.505   6.646  1.7810  2.6869 -3.0246
  824MOL0     H 8764   5.869   3.595   6.772 -1.4869  1.3853  0.9282
  824MOL0     H 8765   5.829   3.423   6.767  0.1276  0.0838 -1.0197
  824MOL0     H 8766   5.920   3.475   6.364 -1.5044  0.9302 -0.1565
  824MOL0     H 8767   5.403   3.546   7.070  1.6468 -0.1836 -1.4525
  824MOL0     H 8768   5.183   3.546   7.168  0.3343 -1.1616 -2.3013
  825MOL0     O 8769   0.120   2.986   1.924 -0.1498 -0.4021  0.2683
  825MOL0     C 8770   0.208   3.069   1.949 -1.0030  0.2774  0.6187
  825MOL0     O 8771   0.190   3.190   2.015  0.4225  0.0056  0.5779
  825MOL0     C 8772   0.071   3.185   2.088 -0.6095  0.3500 -0.9573
  825MOL0     C 8773  -0.032   3.259   2.030  0.1621  1.0738  0.2612
  825MOL0     C 8774  -0.138   3.282   2.110  0.7841 -0.2474  0.3839
  825MOL0     C 8775  -0.162   3.234   2.241 -0.0076 -1.0828 -0.2573
  825MOL0     O 8776  -0.295   3.252   2.287 -1.1112  0.6496 -0.2680
  825MOL0     C 8777  -0.336   3.185   2.403 -0.3710 -0.2415  0.2721
  825MOL0     C 8778  -0.295   3.255   2.537 -0.3686 -0.1549  1.0313
  825MOL0     C 8779  -0.405   3.293   2.630  0.6658  0.7148  1.0180
  825MOL0     C 8780  -0.477   3.167   2.690  0.4918 -0.4194 -0.1759
  825MOL0     C 8781  -0.574   3.221   2.798 -0.0354 -0.1616 -0.2286
  825MOL0     C 8782  -0.704   3.274   2.743  0.3572  0.7047  0.1664
  825MOL0     C 8783  -0.805   3.286   2.850 -0.6613  0.1604 -0.1542
  825MOL0     C 8784  -0.942   3.231   2.830  0.3449  0.2381  0.1329
  825MOL0     N 8785  -1.035   3.276   2.723  0.0375 -0.3466 -0.1281
  825MOL0     C 8786  -1.151   3.335   2.760  0.8867 -0.7256 -0.5201
  825MOL0     C 8787  -1.187   3.426   2.669 -1.3530 -0.0947 -1.1426
  825MOL0     C 8788  -1.301   3.519   2.671  1.1479 -1.2350  0.4679
  825MOL0     C 8789  -1.431   3.452   2.613 -0.0604  0.2032 -1.2710
  825MOL0     C 8790  -1.563   3.502   2.680  0.0328 -0.0604  0.0402
  825MOL0     C 8791  -1.685   3.440   2.596 -0.2194  0.0378  0.0232
  825MOL0     O 8792  -1.809   3.479   2.656 -0.0805 -0.6392  0.7604
  825MOL0     C 8793  -1.923   3.457   2.578  0.2962  0.2373  0.6871
  825MOL0     C 8794  -1.917   3.391   2.446  0.7093 -0.7541 -0.8964
  825MOL0     C 8795  -2.034   3.378   2.363  0.5219  0.8831  0.1515
  825MOL0     C 8796  -2.153   3.441   2.407 -0.3305 -0.9004 -0.2655
  825MOL0     C 8797  -2.285   3.421   2.340 -0.0105  0.8219  0.2719
  825MOL0     O 8798  -2.374   3.523   2.346  0.0611 -0.0385  0.8560
  825MOL0     C 8799  -2.489   3.522   2.274 -0.0528 -0.3111 -0.1172
  825MOL0     C 8800  -2.556   3.414   2.214 -0.6034 -0.0371  0.6638
  825MOL0     C 8801  -2.670   3.435   2.134 -0.4534 -0.8127 -0.5118
  825MOL0     C 8802  -2.713   3.569   2.108 -0.0695  0.2759  0.2528
  825MOL0     O 8803  -2.817   3.595   2.024  0.2758  0.4279 -0.3774
  825MOL0     C 8804  -2.789   3.682   1.911  0.3776 -0.5836 -0.4085
  825MOL0     C 8805  -2.902   3.793   1.895 -0.0678 -0.6453 -0.6338
  825MOL0     C 8806  -3.042   3.745   1.852 -0.5646  0.7813 -1.1433
  825MOL0     C 8807  -3.140   3.849   1.815 -0.0960 -0.3302 -0.0304
  825MOL0     C 8808  -3.195   3.926   1.935  0.0947 -0.9821  0.8033
  825MOL0     C 8809  -3.310   4.008   1.884  0.5192  0.0899  0.5340
  825MOL0     C 8810  -3.356   4.117   1.976 -0.1660  0.6528 -0.8592
  825MOL0     C 8811  -3.498   4.157   1.948  0.3354 -0.4068 -0.2491
  825MOL0    Cl 8812  -3.572   4.214   2.107 -0.6579  0.2185 -0.2096
  825MOL0     C 8813  -2.643   3.673   2.166  0.3684 -0.0880  0.0143
  825MOL0     C 8814  -2.536   3.655   2.248 -1.1941 -0.2647 -0.7016
  825MOL0     O 8815  -2.308   3.305   2.298 -0.2696  0.3180  0.8881
  825MOL0     C 8816  -2.162   3.500   2.539  0.6204  0.2023  0.2915
  825MOL0     C 8817  -2.048   3.503   2.617  1.0243  0.0613  0.3156
  825MOL0     N 8818  -1.092   3.416   2.568 -0.2942 -0.3904 -0.3564
  825MOL0     N 8819  -1.004   3.338   2.605  0.0732  0.2038  0.4299
  825MOL0     C 8820  -0.063   3.160   2.297  0.1342 -0.3166 -0.4120
  825MOL0     C 8821   0.060   3.139   2.224 -0.0151 -0.1333  0.0383
  825MOL0     C 8822   0.344   3.030   1.892 -1.2281 -0.1652 -0.6607
  825MOL0     C 8823   0.452   3.123   1.898  0.2839 -0.8912 -0.7506
  825MOL0     C 8824   0.580   3.097   1.851  0.2321  0.0282 -0.6570
  825MOL0     C 8825   0.609   2.966   1.808 -0.3778 -1.2027 -0.4565
  825MOL0     O 8826   0.733   2.938   1.759 -0.1866  0.0437  0.6298
  825MOL0     C 8827   0.793   3.042   1.687 -1.3379  0.6119  0.2417
  825MOL0     C 8828   0.935   2.986   1.655  1.1318 -0.1455 -0.3298
  825MOL0     C 8829   1.020   3.103   1.605  0.1101 -0.2982  0.3007
  825MOL0     C 8830   1.147   3.044   1.552  0.7181  0.4895 -0.7141
  825MOL0     C 8831   1.246   3.151   1.496  0.3704  0.3025  0.3643
  825MOL0     C 8832   1.339   3.222   1.460 -0.6285  0.7225  0.8003
  825MOL0     C 8833   0.501   2.874   1.803  0.6234  0.3077 -0.1913
  825MOL0     C 8834   0.377   2.905   1.838 -0.3030 -0.5705 -1.0116
  825MOL0     H 8835  -0.026   3.284   1.925  0.7906  1.6205  0.4181
  825MOL0     H 8836  -0.219   3.318   2.048  2.4301 -0.3320 -1.9391
  825MOL0     H 8837  -0.302   3.081   2.405 -2.6445 -1.0370 -0.1013
  825MOL0     H 8838  -0.445   3.190   2.396 -0.3076  0.5025 -0.2538
  825MOL0     H 8839  -0.237   3.344   2.509  2.6938 -1.9346  1.2627
  825MOL0     H 8840  -0.224   3.185   2.583 -0.4414 -1.3919 -0.6281
  825MOL0     H 8841  -0.486   3.348   2.581  0.6949 -0.2328 -0.1567
  825MOL0     H 8842  -0.362   3.352   2.711 -0.1892  2.1920  0.4239
  825MOL0     H 8843  -0.521   3.108   2.610 -0.3483  0.6243 -0.5192
  825MOL0     H 8844  -0.393   3.114   2.735  0.4831  1.9583  3.0506
  825MOL0     H 8845  -0.519   3.289   2.865  1.8719 -2.4094  0.6312
  825MOL0     H 8846  -0.617   3.133   2.846 -1.4336  0.6564  0.0516
  825MOL0     H 8847  -0.738   3.214   2.658 -1.6161  1.1326  0.6068
  825MOL0     H 8848  -0.679   3.371   2.701 -1.8348  0.1292 -2.7445
  825MOL0     H 8849  -0.782   3.232   2.943  0.7176  1.0726  0.0756
  825MOL0     H 8850  -0.806   3.394   2.871  0.9428  0.5780 -1.9471
  825MOL0     H 8851  -0.979   3.264   2.927  0.7591 -0.9219  0.7041
  825MOL0     H 8852  -0.947   3.122   2.838  0.1051  0.3705  2.6089
  825MOL0     H 8853  -1.209   3.314   2.849  3.3517 -0.7004  1.2024
  825MOL0     H 8854  -1.294   3.616   2.621 -1.1677  0.3632  3.0102
  825MOL0     H 8855  -1.331   3.554   2.770 -2.5756 -2.1434 -0.1966
  825MOL0     H 8856  -1.416   3.356   2.663 -3.3162  0.8941  1.3822
  825MOL0     H 8857  -1.432   3.448   2.504  0.3320 -0.3497 -1.2562
  825MOL0     H 8858  -1.572   3.471   2.785 -1.3591 -2.1011 -0.6327
  825MOL0     H 8859  -1.554   3.611   2.679  1.0051 -0.1142  0.6737
  825MOL0     H 8860  -1.667   3.333   2.584 -0.7772 -0.2170  1.3262
  825MOL0     H 8861  -1.675   3.478   2.493 -1.7201  0.3449 -0.0270
  825MOL0     H 8862  -1.829   3.349   2.401 -1.0227 -1.3140 -4.0105
  825MOL0     H 8863  -2.032   3.318   2.272 -1.5935  1.7548 -0.5420
  825MOL0     H 8864  -2.517   3.313   2.221  1.7143  0.3728 -3.0876
  825MOL0     H 8865  -2.729   3.351   2.099  0.6086 -2.4314  1.3709
  825MOL0     H 8866  -2.800   3.627   1.817 -2.1956  2.0938 -1.8458
  825MOL0     H 8867  -2.690   3.728   1.912 -0.2192  0.7676 -0.6354
  825MOL0     H 8868  -2.868   3.872   1.827  0.9400 -0.1975  0.3669
  825MOL0     H 8869  -2.926   3.837   1.992 -1.9778 -1.9305 -0.4790
  825MOL0     H 8870  -3.087   3.685   1.931  1.2992  0.0657 -0.5571
  825MOL0     H 8871  -3.023   3.679   1.766 -0.2555 -1.2602  0.4034
  825MOL0     H 8872  -3.093   3.914   1.741  3.5788  1.1764  3.2111
  825MOL0     H 8873  -3.227   3.799   1.772  0.1876 -0.8134 -0.0578
  825MOL0     H 8874  -3.116   3.987   1.979 -0.9378  2.4974 -1.7546
  825MOL0     H 8875  -3.242   3.860   2.009 -0.7513 -0.1210  1.0603
  825MOL0     H 8876  -3.394   3.944   1.856  0.0729  0.9277 -0.0882
  825MOL0     H 8877  -3.277   4.059   1.793 -3.9001  2.9398  0.2167
  825MOL0     H 8878  -3.353   4.067   2.073 -1.8045 -0.2351 -1.2208
  825MOL0     H 8879  -3.286   4.199   1.996 -0.6845  0.5626  1.6884
  825MOL0     H 8880  -3.555   4.077   1.900  0.1639 -1.0462  0.9772
  825MOL0     H 8881  -3.474   4.241   1.882 -0.2212  0.1256  0.2123
  825MOL0     H 8882  -2.678   3.776   2.162  0.8437  0.0762 -0.0429
  825MOL0     H 8883  -2.473   3.739   2.276  0.0322 -1.3858  0.0413
  825MOL0     H 8884  -2.251   3.550   2.576 -1.4919 -2.2538 -1.1319
  825MOL0     H 8885  -2.060   3.547   2.716  1.4878  1.0388 -0.0495
  825MOL0     H 8886  -0.079   3.126   2.399  0.7134  2.0788  0.5300
  825MOL0     H 8887   0.144   3.080   2.260 -0.6924 -0.3862  1.2681
  825MOL0     H 8888   0.440   3.221   1.942  1.0256 -0.0648 -2.3229
  825MOL0     H 8889   0.646   3.184   1.848 -2.0168  1.9635  1.5401
  825MOL0     H 8890   0.807   3.133   1.747 -2.5738  0.2820  1.0823
  825MOL0     H 8891   0.737   3.067   1.597 -0.5726  0.6434 -0.2277
  825MOL0     H 8892   0.977   2.941   1.746 -1.6807 -2.6974 -0.1269
  825MOL0     H 8893   0.928   2.907   1.580 -0.1631 -0.3439 -0.0317
  825MOL0     H 8894   1.046   3.184   1.672 -0.3110  0.0525  0.0452
  825MOL0     H 8895   0.975   3.144   1.514  3.3065  1.2383 -0.7304
  825MOL0     H 8896   1.196   3.008   1.643 -3.0580  2.7651  2.5223
  825MOL0     H 8897   1.125   2.955   1.492  0.0839  0.0709  0.1260
  825MOL0     H 8898   1.420   3.284   1.427  0.7263  0.2332  3.0410
  825MOL0     H 8899   0.521   2.780   1.753  0.3475 -0.0629  0.3808
  825MOL0     H 8900   0.296   2.836   1.815  1.0484 -2.6447  0.1017
  826MOL0     O 8901  10.866   9.294   6.577  1.0299  0.3953 -0.6524
  826MOL0     C 8902  10.937   9.357   6.500 -0.6919 -0.5378 -0.0948
  826MOL0     O 8903  11.056   9.420   6.528 -0.3143  0.0342 -0.1062
  826MOL0     C 8904  11.102   9.396   6.654 -0.0467  0.1886 -0.0804
  826MOL0     C 8905  11.228   9.357   6.667  0.0041 -0.1386 -0.4583
  826MOL0     C 8906  11.290   9.351   6.794  0.2827 -0.3092  0.9854
  826MOL0     C 8907  11.234   9.396   6.912  0.0500 -0.2271  0.8556
  826MOL0     O 8908  11.307   9.379   7.028 -0.2657  0.1829 -0.2437
  826MOL0     C 8909  11.225   9.373   7.142  0.4808 -0.0004  0.7441
  826MOL0     C 8910  11.309   9.350   7.269 -0.7110  0.1895  0.4468
  826MOL0     C 8911  11.232   9.400   7.398 -0.2060  0.0366 -0.1938
  826MOL0     C 8912  11.242   9.558   7.397 -0.2183 -0.0293  0.0991
  826MOL0     C 8913  11.160   9.618   7.512 -0.4832 -0.5316 -0.0148
  826MOL0     C 8914  11.014   9.623   7.470 -0.4240  0.2169  0.7294
  826MOL0     C 8915  10.927   9.702   7.577 -1.1998 -0.6129  0.6432
  826MOL0     C 8916  10.798   9.627   7.594  0.7802  0.9521 -0.8451
  826MOL0     N 8917  10.708   9.677   7.687 -0.2851 -0.0268  0.4124
  826MOL0     C 8918  10.718   9.654   7.821  1.2874 -0.0114 -0.8355
  826MOL0     C 8919  10.596   9.702   7.866 -0.0491 -0.3044 -0.8571
  826MOL0     C 8920  10.534   9.678   8.003 -0.0951 -0.5069 -0.3429
  826MOL0     C 8921  10.565   9.532   8.046  0.7817  0.4916  0.2889
  826MOL0     C 8922  10.474   9.502   8.171 -0.2107 -0.4264 -0.1869
  826MOL0     C 8923  10.474   9.351   8.214  0.1285 -0.3944  0.8042
  826MOL0     O 8924  10.373   9.297   8.120  0.1530  0.7395 -0.2073
  826MOL0     C 8925  10.277   9.196   8.145 -0.3503 -0.7044  0.6021
  826MOL0     C 8926  10.201   9.161   8.032 -0.9484 -0.2466 -0.6017
  826MOL0     C 8927  10.118   9.049   8.037 -0.4307 -0.0334  0.1106
  826MOL0     C 8928  10.092   8.987   8.159  1.2211  0.3638 -1.0921
  826MOL0     C 8929   9.994   8.874   8.173  0.1892  0.7066 -0.1714
  826MOL0     O 8930  10.046   8.768   8.241  0.0972  0.9106  0.4570
  826MOL0     C 8931   9.982   8.643   8.247 -0.9396 -0.1840 -0.6000
  826MOL0     C 8932   9.910   8.597   8.135  0.5803  0.1463 -0.4391
  826MOL0     C 8933   9.860   8.463   8.130  0.1018 -0.5679  0.3145
  826MOL0     C 8934   9.873   8.385   8.241 -0.5922  0.3943 -0.9011
  826MOL0     O 8935   9.819   8.259   8.252  0.4105 -0.3850  0.2765
  826MOL0     C 8936   9.835   8.179   8.135 -0.1958  0.1532 -0.2730
  826MOL0     C 8937   9.895   8.046   8.181 -0.5779  0.1944  0.4219
  826MOL0     C 8938   9.797   7.941   8.246  0.0508 -0.3667 -0.3266
  826MOL0     C 8939   9.829   7.796   8.253 -0.6280  0.7180 -0.8502
  826MOL0     C 8940   9.953   7.769   8.329  0.5424  0.2602 -1.6383
  826MOL0     C 8941   9.960   7.622   8.378  0.4466  0.5879 -0.2296
  826MOL0     C 8942   9.848   7.575   8.471  0.8784  0.4487 -0.5255
  826MOL0     C 8943   9.856   7.433   8.531 -0.4117  0.0610 -0.5909
  826MOL0    Cl 8944   9.706   7.419   8.619  0.2011  0.4746  0.1140
  826MOL0     C 8945   9.952   8.425   8.351 -0.8057 -0.4435  0.4203
  826MOL0     C 8946  10.012   8.559   8.349  0.2593  0.8027  1.0631
  826MOL0     O 8947   9.884   8.885   8.120 -0.2740  0.6723 -0.6590
  826MOL0     C 8948  10.166   9.025   8.276 -0.1556 -0.7592 -0.4567
  826MOL0     C 8949  10.255   9.131   8.269  0.5062  0.3160  0.3704
  826MOL0     N 8950  10.530   9.779   7.769 -0.5075 -0.5720 -0.2005
  826MOL0     N 8951  10.596   9.753   7.661  0.2617 -0.1418  0.2717
  826MOL0     C 8952  11.099   9.444   6.898  0.9740 -1.1192 -0.2893
  826MOL0     C 8953  11.042   9.447   6.772 -0.0608  0.4319 -0.3686
  826MOL0     C 8954  10.884   9.391   6.371 -0.4465 -0.0847  0.3411
  826MOL0     C 8955  10.750   9.411   6.337 -0.5941 -0.7158  0.3223
  826MOL0     C 8956  10.710   9.451   6.212  0.3267 -0.1544  0.3745
  826MOL0     C 8957  10.805   9.456   6.112 -0.0628  0.5090  0.3533
  826MOL0     O 8958  10.771   9.493   5.983 -0.4616  0.4721 -0.2583
  826MOL0     C 8959  10.658   9.575   5.959  0.1047  0.4469  0.2056
  826MOL0     C 8960  10.666   9.626   5.815 -0.5114  0.6448 -0.0545
  826MOL0     C 8961  10.581   9.547   5.706 -0.8951 -0.6116  0.3394
  826MOL0     C 8962  10.433   9.560   5.733 -0.8422 -0.3521 -1.2992
  826MOL0     C 8963  10.383   9.706   5.743 -0.9624 -0.2049  0.4227
  826MOL0     C 8964  10.346   9.818   5.725  0.6678 -0.3430  0.4641
  826MOL0     C 8965  10.938   9.435   6.133  0.1020  0.9286  0.6254
  826MOL0     C 8966  10.974   9.400   6.260 -0.8991  1.2071 -0.6959
  826MOL0     H 8967  11.285   9.334   6.578  1.1338  0.8836 -0.0268
  826MOL0     H 8968  11.390   9.309   6.805  0.7048  0.1102 -0.8607
  826MOL0     H 8969  11.170   9.279   7.130 -2.5770  1.4779  2.0412
  826MOL0     H 8970  11.150   9.452   7.144  0.5647  0.1504 -0.8809
  826MOL0     H 8971  11.402   9.405   7.252 -0.8092 -0.0237 -0.9020
  826MOL0     H 8972  11.333   9.243   7.270 -0.6882  0.1925  0.2692
  826MOL0     H 8973  11.277   9.367   7.492 -0.5017  0.5030  0.1158
  826MOL0     H 8974  11.127   9.370   7.402  0.2516 -1.5425  1.6226
  826MOL0     H 8975  11.347   9.586   7.412 -0.1496 -1.0744  1.7780
  826MOL0     H 8976  11.203   9.599   7.303  1.3794  0.8683 -0.2091
  826MOL0     H 8977  11.193   9.721   7.534  2.9548 -1.6108  0.4742
  826MOL0     H 8978  11.179   9.580   7.613 -2.0391 -1.5663 -0.0911
  826MOL0     H 8979  10.974   9.525   7.446  2.5056 -1.5886  2.6036
  826MOL0     H 8980  11.006   9.679   7.376  1.5129  0.2261  0.5231
  826MOL0     H 8981  10.975   9.695   7.675 -1.0056 -2.6458  0.4505
  826MOL0     H 8982  10.915   9.808   7.555 -1.0715 -0.8291 -0.4964
  826MOL0     H 8983  10.820   9.521   7.609 -0.3358 -0.4218 -6.3860
  826MOL0     H 8984  10.743   9.635   7.500  0.6849 -0.6338 -0.9524
  826MOL0     H 8985  10.778   9.590   7.885  2.5078  0.1981 -1.7469
  826MOL0     H 8986  10.425   9.672   7.994 -0.0042 -1.0010 -1.2647
  826MOL0     H 8987  10.572   9.755   8.071  1.0979  0.5360 -2.0877
  826MOL0     H 8988  10.668   9.508   8.074  0.5325  1.5045  2.3121
  826MOL0     H 8989  10.530   9.471   7.963  0.7570 -0.2019  0.8013
  826MOL0     H 8990  10.513   9.562   8.253 -1.1216  1.7496 -1.2793
  826MOL0     H 8991  10.374   9.542   8.153  0.2739  1.6171  1.3082
  826MOL0     H 8992  10.438   9.331   8.315 -2.4737  0.3865  0.0941
  826MOL0     H 8993  10.576   9.312   8.203 -0.1456 -0.5472 -1.8744
  826MOL0     H 8994  10.222   9.225   7.947 -1.0465 -0.0703 -0.4960
  826MOL0     H 8995  10.078   9.018   7.941 -0.4425 -0.1727  0.1610
  826MOL0     H 8996   9.895   8.653   8.042 -0.5760 -0.7894 -0.8402
  826MOL0     H 8997   9.794   8.442   8.047 -1.8308 -1.1720  1.9419
  826MOL0     H 8998   9.906   8.222   8.064 -0.0200 -1.6251 -1.2463
  826MOL0     H 8999   9.749   8.152   8.073  0.0465 -0.2238 -0.4506
  826MOL0     H 9000   9.961   8.085   8.259  0.1697  2.3215 -1.1708
  826MOL0     H 9001   9.951   7.997   8.101  0.5945  0.7242  0.8794
  826MOL0     H 9002   9.704   7.949   8.188  0.4334  3.0376 -0.7066
  826MOL0     H 9003   9.780   7.978   8.347 -1.7073  2.0850 -1.3966
  826MOL0     H 9004   9.750   7.736   8.299 -0.1609 -0.7890 -1.9357
  826MOL0     H 9005   9.840   7.767   8.148  1.0636 -0.1932 -0.4422
  826MOL0     H 9006   9.966   7.839   8.411 -2.3210 -0.7738 -0.1734
  826MOL0     H 9007  10.041   7.794   8.269  1.3565 -0.9128 -0.9605
  826MOL0     H 9008  10.053   7.615   8.434  0.5721 -1.3743 -0.6218
  826MOL0     H 9009   9.965   7.548   8.298  2.5465 -1.2342  1.4624
  826MOL0     H 9010   9.839   7.644   8.555  3.5807 -1.2419  1.2698
  826MOL0     H 9011   9.751   7.565   8.421 -1.4214 -0.7850  3.7300
  826MOL0     H 9012   9.939   7.428   8.602  0.0098  3.7973 -0.6158
  826MOL0     H 9013   9.857   7.346   8.465  0.5507 -1.3679  1.2055
  826MOL0     H 9014   9.974   8.356   8.432 -1.5055 -2.6014 -1.1146
  826MOL0     H 9015  10.084   8.598   8.420 -1.6344  3.2225  1.8057
  826MOL0     H 9016  10.163   8.967   8.367  1.4669 -0.4244 -0.1600
  826MOL0     H 9017  10.302   9.150   8.365  0.3444  1.1686  0.2972
  826MOL0     H 9018  11.047   9.498   6.976 -2.5863 -0.2575 -2.9882
  826MOL0     H 9019  10.949   9.502   6.768 -0.1311  0.5186  1.5180
  826MOL0     H 9020  10.671   9.385   6.406 -0.5079  1.6618  1.4334
  826MOL0     H 9021  10.607   9.467   6.178  0.3261  1.9562  1.2648
  826MOL0     H 9022  10.661   9.657   6.032 -0.2853  1.9912 -1.4546
  826MOL0     H 9023  10.564   9.523   5.982 -0.0890  1.3668  1.6205
  826MOL0     H 9024  10.631   9.729   5.813  1.2032  1.2807  0.9528
  826MOL0     H 9025  10.769   9.616   5.778  0.1804  2.1647  1.3299
  826MOL0     H 9026  10.609   9.442   5.707 -2.0077 -0.9575 -1.0846
  826MOL0     H 9027  10.600   9.597   5.611  0.4810  2.3302  2.0118
  826MOL0     H 9028  10.375   9.511   5.655  1.3347 -4.3189 -0.6804
  826MOL0     H 9029  10.411   9.507   5.827 -2.3433  4.1055  1.1675
  826MOL0     H 9030  10.304   9.917   5.727  1.8915  0.2143 -0.4259
  826MOL0     H 9031  11.011   9.448   6.054  1.0906 -0.4377  1.2730
  826MOL0     H 9032  11.081   9.382   6.268 -1.1678 -0.3856 -0.3005
  827MOL0     O 9033   6.629   4.148   9.517 -0.3760 -0.3415 -0.2053
  827MOL0     C 9034   6.710   4.148   9.427 -0.0231  0.4619 -0.0588
  827MOL0     O 9035   6.697   4.221   9.318  0.2181  0.0076 -0.1596
  827MOL0     C 9036   6.576   4.255   9.274  1.2217 -0.1521  0.3120
  827MOL0     C 9037   6.480   4.159   9.229 -0.5625 -0.4771 -0.1925
  827MOL0     C 9038   6.357   4.204   9.181  0.2749 -0.3514  0.9644
  827MOL0     C 9039   6.322   4.344   9.170  0.5529  0.7148  0.0448
  827MOL0     O 9040   6.206   4.400   9.128 -0.7609 -0.2277  0.4653
  827MOL0     C 9041   6.094   4.321   9.164 -0.3985  0.9391 -0.5557
  827MOL0     C 9042   5.983   4.414   9.188  0.0942 -0.7061 -0.6664
  827MOL0     C 9043   5.935   4.511   9.069  0.3401 -0.0617 -0.4322
  827MOL0     C 9044   5.840   4.631   9.109 -0.1449 -0.9078  0.1117
  827MOL0     C 9045   5.744   4.600   9.225 -0.3607 -0.0695  0.3048
  827MOL0     C 9046   5.640   4.710   9.238 -0.3271 -2.0419  0.2813
  827MOL0     C 9047   5.709   4.845   9.274  0.2172 -0.4068 -0.0835
  827MOL0     C 9048   5.609   4.936   9.354  0.6053  0.9832  0.3960
  827MOL0     N 9049   5.501   4.987   9.265  1.0428 -0.1282 -0.1700
  827MOL0     C 9050   5.500   5.052   9.144 -0.0803  0.6632 -0.1529
  827MOL0     C 9051   5.368   5.072   9.109 -0.5105 -0.2764  0.4241
  827MOL0     C 9052   5.326   5.105   8.972 -0.4489 -0.5828 -1.2752
  827MOL0     C 9053   5.371   4.992   8.875 -0.0208  0.1838  0.8334
  827MOL0     C 9054   5.313   5.032   8.736 -0.1426  0.4516  0.8369
  827MOL0     C 9055   5.319   4.901   8.650 -0.7048  0.3878  0.0985
  827MOL0     O 9056   5.294   4.946   8.516 -1.1185  1.1408  0.0396
  827MOL0     C 9057   5.401   4.970   8.437  0.1730 -0.3122 -0.2793
  827MOL0     C 9058   5.363   5.062   8.340  0.7513 -0.3716  0.5757
  827MOL0     C 9059   5.457   5.103   8.241  0.0280  0.3053 -0.2628
  827MOL0     C 9060   5.584   5.045   8.245 -0.9925 -0.0414 -0.1528
  827MOL0     C 9061   5.687   5.077   8.146 -0.2194  0.4495 -0.1604
  827MOL0     O 9062   5.664   5.182   8.066  0.4131  0.6223 -0.3662
  827MOL0     C 9063   5.748   5.212   7.964 -0.5302  0.6174  0.7559
  827MOL0     C 9064   5.810   5.333   7.958  0.8360 -0.5812 -0.5465
  827MOL0     C 9065   5.889   5.374   7.858 -0.4657 -0.1178 -0.1669
  827MOL0     C 9066   5.931   5.280   7.757 -0.8190 -0.8400 -0.2969
  827MOL0     O 9067   6.025   5.327   7.670  0.6573  0.6180  0.5403
  827MOL0     C 9068   6.057   5.235   7.562 -0.4263 -0.2955  0.9689
  827MOL0     C 9069   6.157   5.127   7.595  0.9721  0.0024  0.4098
  827MOL0     C 9070   6.177   5.052   7.465 -0.3344 -0.1587 -0.4093
  827MOL0     C 9071   6.286   4.938   7.488 -0.6016  0.0603 -0.4661
  827MOL0     C 9072   6.432   4.979   7.489 -0.3537  0.7202  1.2409
  827MOL0     C 9073   6.545   4.880   7.456  0.1182  0.2647  0.5194
  827MOL0     C 9074   6.676   4.938   7.509 -0.3683 -0.2615  0.3511
  827MOL0     C 9075   6.733   5.039   7.400 -0.0348 -0.1035 -0.0547
  827MOL0    Cl 9076   6.918   5.026   7.406  0.1533 -0.1501  0.2862
  827MOL0     C 9077   5.877   5.149   7.766 -0.3892 -0.5210 -0.1491
  827MOL0     C 9078   5.785   5.123   7.867 -0.6599 -0.1520 -0.2940
  827MOL0     O 9079   5.790   5.009   8.148 -0.2256  0.1842  1.1569
  827MOL0     C 9080   5.616   4.950   8.340  0.2884  0.0716  1.0206
  827MOL0     C 9081   5.526   4.906   8.438 -0.3459  0.1634  0.6037
  827MOL0     N 9082   5.291   5.035   9.218 -0.0502  0.3998 -0.0680
  827MOL0     N 9083   5.370   4.981   9.311 -0.0954  0.5471 -0.8380
  827MOL0     C 9084   6.422   4.431   9.203  0.2818  0.2061 -0.1830
  827MOL0     C 9085   6.551   4.389   9.253 -0.2874  0.4607 -0.5745
  827MOL0     C 9086   6.841   4.073   9.444  0.2091  1.0200  0.1334
  827MOL0     C 9087   6.875   4.005   9.566  0.6109  0.4380  1.0828
  827MOL0     C 9088   7.005   3.946   9.583 -0.3023 -0.3036 -0.3446
  827MOL0     C 9089   7.105   3.962   9.485  0.9514 -0.5528  0.3337
  827MOL0     O 9090   7.229   3.901   9.508  0.2094  0.4618 -0.0611
  827MOL0     C 9091   7.328   3.987   9.558  0.0543 -1.1432 -0.1960
  827MOL0     C 9092   7.441   3.913   9.613  0.5760 -0.2900 -0.5013
  827MOL0     C 9093   7.487   3.801   9.518 -0.2072  0.6092 -0.1406
  827MOL0     C 9094   7.580   3.703   9.600 -0.6108 -0.3028  0.2197
  827MOL0     C 9095   7.714   3.761   9.614  0.5516 -0.1312 -0.0065
  827MOL0     C 9096   7.822   3.806   9.662  0.4258 -0.0137 -0.6567
  827MOL0     C 9097   7.071   4.033   9.371  0.1325 -0.1263 -0.0964
  827MOL0     C 9098   6.950   4.097   9.355  0.0405  0.0646 -0.3824
  827MOL0     H 9099   6.495   4.051   9.227 -0.5113 -0.4847 -2.7973
  827MOL0     H 9100   6.291   4.126   9.144  0.3145 -0.3383  0.8651
  827MOL0     H 9101   6.112   4.264   9.256 -2.3326  0.0810 -0.6604
  827MOL0     H 9102   6.062   4.253   9.084 -0.3495 -2.1757  1.8546
  827MOL0     H 9103   6.011   4.471   9.278 -0.5198  0.4317 -1.1750
  827MOL0     H 9104   5.904   4.352   9.230  0.2007 -1.1522 -1.1177
  827MOL0     H 9105   5.890   4.450   8.991 -0.2710 -0.5933  0.3151
  827MOL0     H 9106   6.028   4.551   9.029  1.1799 -0.4927  0.9880
  827MOL0     H 9107   5.903   4.713   9.145 -1.1794 -0.9256  2.1395
  827MOL0     H 9108   5.794   4.659   9.014  0.5002  1.1324  0.3597
  827MOL0     H 9109   5.806   4.593   9.315  0.0562 -0.5533 -0.0131
  827MOL0     H 9110   5.691   4.505   9.211  3.1335 -1.9203 -1.9091
  827MOL0     H 9111   5.560   4.682   9.308 -0.8209 -1.8983 -0.2135
  827MOL0     H 9112   5.581   4.718   9.146 -1.6974 -2.9474  1.0363
  827MOL0     H 9113   5.807   4.828   9.319  1.5123  5.4316  0.2018
  827MOL0     H 9114   5.737   4.897   9.181  1.6638 -0.2548  0.4065
  827MOL0     H 9115   5.661   5.024   9.393 -1.2676  2.1902  0.2958
  827MOL0     H 9116   5.572   4.871   9.433 -1.1758  0.2163 -0.9958
  827MOL0     H 9117   5.584   5.083   9.083  1.0740 -0.2783  0.9004
  827MOL0     H 9118   5.374   5.201   8.950  1.4302 -0.6756  1.8729
  827MOL0     H 9119   5.219   5.127   8.970 -0.2343  0.4885 -2.1363
  827MOL0     H 9120   5.327   4.900   8.915 -1.4790  1.4926  2.4212
  827MOL0     H 9121   5.480   4.980   8.868 -0.2091 -0.5010 -1.5597
  827MOL0     H 9122   5.206   5.052   8.743 -0.8186 -1.7663 -1.4431
  827MOL0     H 9123   5.375   5.109   8.690 -1.7912  0.6326 -1.2233
  827MOL0     H 9124   5.229   4.841   8.665 -1.8255  1.3023 -2.4475
  827MOL0     H 9125   5.410   4.848   8.678 -0.4732  0.1690 -1.0301
  827MOL0     H 9126   5.264   5.102   8.360  2.0734  1.4058  4.7414
  827MOL0     H 9127   5.440   5.190   8.178 -3.1088  0.0415  0.0567
  827MOL0     H 9128   5.801   5.406   8.039  2.1355 -1.7516  0.7135
  827MOL0     H 9129   5.919   5.478   7.869  0.7351 -0.2046 -2.2166
  827MOL0     H 9130   6.095   5.290   7.476  1.0893  3.0383  3.5345
  827MOL0     H 9131   5.964   5.188   7.528 -1.4227  1.9618  0.3653
  827MOL0     H 9132   6.122   5.062   7.676 -0.5334  0.8556  0.4851
  827MOL0     H 9133   6.253   5.167   7.629  1.8413 -3.2205  2.1966
  827MOL0     H 9134   6.216   5.124   7.392  0.1623  0.8972  0.8470
  827MOL0     H 9135   6.076   5.021   7.436 -0.1633  0.6960 -2.0200
  827MOL0     H 9136   6.274   4.879   7.579  0.5507 -0.9234 -0.9179
  827MOL0     H 9137   6.277   4.857   7.415  3.4745 -0.5700 -0.5021
  827MOL0     H 9138   6.454   5.007   7.592 -0.5478 -0.7686  1.7167
  827MOL0     H 9139   6.447   5.063   7.421 -3.3857  0.8649  0.6308
  827MOL0     H 9140   6.552   4.858   7.349  2.2892  3.0350 -0.0340
  827MOL0     H 9141   6.533   4.784   7.508  2.8450 -0.8562 -0.7614
  827MOL0     H 9142   6.664   5.003   7.596 -2.7409  0.5142 -0.4828
  827MOL0     H 9143   6.750   4.859   7.522  0.1971 -0.3049 -2.5428
  827MOL0     H 9144   6.703   5.140   7.429  0.4464 -0.4573  1.8113
  827MOL0     H 9145   6.697   5.014   7.300 -0.4963  0.2205  0.0261
  827MOL0     H 9146   5.885   5.067   7.695 -1.5601 -1.4449  0.7253
  827MOL0     H 9147   5.741   5.024   7.855 -0.8233  0.1276 -2.6407
  827MOL0     H 9148   5.717   4.912   8.341  0.7905  1.1310 -1.8108
  827MOL0     H 9149   5.547   4.825   8.507  3.8323  0.3911 -0.1403
  827MOL0     H 9150   6.397   4.533   9.174 -1.2858 -0.1737 -0.2561
  827MOL0     H 9151   6.632   4.460   9.266 -0.7708  1.0498 -0.7585
  827MOL0     H 9152   6.802   4.006   9.646  2.2920 -2.3368  2.8010
  827MOL0     H 9153   7.017   3.894   9.678 -1.8016 -0.7589 -0.3758
  827MOL0     H 9154   7.289   4.066   9.622  0.2981  2.6236 -4.2626
  827MOL0     H 9155   7.359   4.045   9.471  0.1163  0.6219  0.9427
  827MOL0     H 9156   7.522   3.985   9.625  1.5970 -1.5891  0.6305
  827MOL0     H 9157   7.418   3.863   9.707 -0.5628  0.9824 -0.0648
  827MOL0     H 9158   7.543   3.833   9.430  1.3340 -2.0304 -0.2354
  827MOL0     H 9159   7.409   3.739   9.473  1.8279 -3.0819  1.0219
  827MOL0     H 9160   7.542   3.675   9.699 -1.0028  0.0753  0.1808
  827MOL0     H 9161   7.600   3.609   9.548 -1.5896 -0.3604 -0.0819
  827MOL0     H 9162   7.906   3.851   9.709  1.4511 -1.9614 -0.5542
  827MOL0     H 9163   7.153   4.063   9.307 -0.9036  3.2411 -0.0099
  827MOL0     H 9164   6.937   4.172   9.277 -1.5845  2.4174  1.9796
  828MOL0     O 9165   0.104   6.120   5.851 -0.0426  0.0154 -0.2851
  828MOL0     C 9166   0.172   6.018   5.830  0.5674 -0.0714 -0.4548
  828MOL0     O 9167   0.124   5.896   5.792  0.7436 -0.1582 -0.9642
  828MOL0     C 9168  -0.008   5.882   5.783 -0.0173 -0.5732 -0.6067
  828MOL0     C 9169  -0.071   5.807   5.892  0.5821  0.2491  0.2173
  828MOL0     C 9170  -0.207   5.798   5.899  0.7521 -0.3569 -0.0660
  828MOL0     C 9171  -0.295   5.853   5.806  0.3527 -0.8453  0.2588
  828MOL0     O 9172  -0.434   5.835   5.820 -0.1549  0.0399 -0.0257
  828MOL0     C 9173  -0.514   5.874   5.704  0.5806  0.4375  0.2341
  828MOL0     C 9174  -0.641   5.803   5.736 -0.1234 -0.8391 -1.0189
  828MOL0     C 9175  -0.761   5.849   5.654  0.1888  0.1314 -0.1000
  828MOL0     C 9176  -0.886   5.858   5.742 -0.8124 -0.4171 -0.2888
  828MOL0     C 9177  -0.996   5.891   5.661 -0.5602 -0.1869 -1.0829
  828MOL0     C 9178  -1.129   5.912   5.750 -0.4573  0.4806  0.2258
  828MOL0     C 9179  -1.151   6.058   5.789  0.4648 -0.3948 -0.4380
  828MOL0     C 9180  -1.202   6.143   5.675  0.0944  0.3788 -1.7723
  828MOL0     N 9181  -1.226   6.271   5.743 -0.3218 -0.6753  0.3041
  828MOL0     C 9182  -1.133   6.355   5.817 -0.4304 -0.4307  0.1379
  828MOL0     C 9183  -1.192   6.474   5.836  0.9344  0.9309  0.3186
  828MOL0     C 9184  -1.141   6.586   5.915  0.6899  0.0641  0.3505
  828MOL0     C 9185  -1.049   6.689   5.848 -0.0136  0.3617  0.2234
  828MOL0     C 9186  -1.023   6.806   5.944  0.3182 -0.1044 -1.0564
  828MOL0     C 9187  -0.922   6.768   6.061 -0.5545  1.4217  0.4810
  828MOL0     O 9188  -0.875   6.881   6.125 -0.5080 -0.5505 -0.5617
  828MOL0     C 9189  -0.759   6.863   6.201  0.1101  0.1179 -0.0727
  828MOL0     C 9190  -0.678   6.973   6.240 -0.0731 -0.0624 -0.2135
  828MOL0     C 9191  -0.559   6.954   6.311  0.6593  0.8189  0.4108
  828MOL0     C 9192  -0.523   6.828   6.365 -0.1782 -0.0046 -0.0634
  828MOL0     C 9193  -0.408   6.818   6.440 -0.1099  0.3175  0.7892
  828MOL0     O 9194  -0.311   6.904   6.412  0.2863  0.3109 -0.0095
  828MOL0     C 9195  -0.197   6.910   6.485  0.8084 -1.0897  0.1123
  828MOL0     C 9196  -0.212   6.920   6.630 -0.4355  0.1586  0.2035
  828MOL0     C 9197  -0.105   6.936   6.716  0.4246 -0.3494 -0.2201
  828MOL0     C 9198   0.024   6.961   6.656  0.0084  0.1539 -0.4552
  828MOL0     O 9199   0.137   7.009   6.731  0.2445 -0.0927  0.7513
  828MOL0     C 9200   0.122   7.095   6.839  0.4842  0.7598 -0.0715
  828MOL0     C 9201   0.138   7.007   6.968  0.1372 -0.5894 -0.0785
  828MOL0     C 9202   0.282   7.025   7.024 -0.2125 -0.0394  1.1572
  828MOL0     C 9203   0.378   6.943   6.958  0.1091 -0.4138 -0.0972
  828MOL0     C 9204   0.524   6.962   7.018  0.2396 -0.0781  0.0491
  828MOL0     C 9205   0.628   6.878   6.945 -0.8055  1.2430 -0.0148
  828MOL0     C 9206   0.617   6.892   6.795 -0.2569 -1.5555 -0.6630
  828MOL0     C 9207   0.740   6.840   6.716 -0.7862 -0.0163 -0.3827
  828MOL0    Cl 9208   0.756   6.653   6.718  0.2019  0.4543  0.3498
  828MOL0     C 9209   0.031   6.956   6.517 -0.0667 -1.2617 -0.5835
  828MOL0     C 9210  -0.075   6.930   6.432  0.7462 -0.3687  0.2448
  828MOL0     O 9211  -0.399   6.731   6.525  0.5566  0.3985  0.2953
  828MOL0     C 9212  -0.602   6.724   6.335  0.2620  0.4589  0.6213
  828MOL0     C 9213  -0.718   6.739   6.262 -0.0689  0.5406 -0.1238
  828MOL0     N 9214  -1.323   6.456   5.789 -0.5891  0.2727  0.2829
  828MOL0     N 9215  -1.339   6.345   5.741  0.4486  0.3004  0.3220
  828MOL0     C 9216  -0.236   5.925   5.701  0.1810  0.1679 -0.0558
  828MOL0     C 9217  -0.100   5.938   5.689 -0.2220 -1.1569 -0.9468
  828MOL0     C 9218   0.316   6.024   5.856  0.1271  0.6710 -0.0502
  828MOL0     C 9219   0.378   6.132   5.931 -0.2972 -0.6179  0.5712
  828MOL0     C 9220   0.522   6.151   5.930  0.0077 -1.4064 -0.7179
  828MOL0     C 9221   0.609   6.065   5.864  0.2806  0.6588 -0.7330
  828MOL0     O 9222   0.746   6.090   5.856  0.5721 -0.6838 -0.2974
  828MOL0     C 9223   0.787   6.231   5.871 -1.0214  0.7071 -0.4903
  828MOL0     C 9224   0.839   6.249   6.022  0.9690  0.0461 -0.1066
  828MOL0     C 9225   0.964   6.167   6.067  0.6477  0.6743 -0.0315
  828MOL0     C 9226   1.015   6.212   6.205 -0.2240  0.1755 -0.6465
  828MOL0     C 9227   1.020   6.354   6.237 -0.3168 -0.0321 -0.2291
  828MOL0     C 9228   1.008   6.474   6.253 -0.9300 -0.9906  0.5490
  828MOL0     C 9229   0.550   5.948   5.807 -0.3423 -1.3408 -0.1499
  828MOL0     C 9230   0.407   5.929   5.797  0.4341 -0.0000 -0.2086
  828MOL0     H 9231   0.002   5.767   5.962  0.3998  0.5265  0.5713
  828MOL0     H 9232  -0.248   5.745   5.985 -2.3830 -0.0892 -1.2736
  828MOL0     H 9233  -0.466   5.847   5.610 -0.7229 -0.3262 -0.2326
  828MOL0     H 9234  -0.548   5.978   5.706 -1.0140 -0.0653  1.5398
  828MOL0     H 9235  -0.678   5.817   5.837 -2.7447 -1.7610 -1.7696
  828MOL0     H 9236  -0.621   5.696   5.746 -1.0406 -0.7578  3.4127
  828MOL0     H 9237  -0.778   5.778   5.572  0.5651 -2.9341  2.2471
  828MOL0     H 9238  -0.739   5.943   5.604 -1.9544  1.6840  1.6983
  828MOL0     H 9239  -0.902   5.762   5.792 -0.4618  0.7902  2.2767
  828MOL0     H 9240  -0.872   5.943   5.809  0.6767 -0.0017 -1.0862
  828MOL0     H 9241  -1.009   5.810   5.588 -2.6575 -2.0681  1.2344
  828MOL0     H 9242  -0.967   5.986   5.614  3.9412 -2.8531 -4.5414
  828MOL0     H 9243  -1.127   5.845   5.836  1.7769 -1.1695 -0.9968
  828MOL0     H 9244  -1.210   5.881   5.684  1.1400 -2.1290 -0.6975
  828MOL0     H 9245  -1.222   6.062   5.872  0.8799 -1.2137 -0.0363
  828MOL0     H 9246  -1.058   6.096   5.833  0.4073 -0.3877 -0.3233
  828MOL0     H 9247  -1.288   6.104   5.621 -3.2163  1.2132  2.3863
  828MOL0     H 9248  -1.127   6.163   5.598  3.3108  0.1662  1.0557
  828MOL0     H 9249  -1.031   6.339   5.850 -0.8462  0.1993  1.8110
  828MOL0     H 9250  -1.088   6.536   5.997  0.4244  2.2164  1.9165
  828MOL0     H 9251  -1.233   6.633   5.949  0.9299  1.7443 -1.1603
  828MOL0     H 9252  -1.105   6.723   5.760  0.6194 -2.7924 -1.5196
  828MOL0     H 9253  -0.961   6.643   5.804 -0.6990 -1.8894  1.0919
  828MOL0     H 9254  -0.969   6.883   5.888  0.5149 -0.5021 -1.4213
  828MOL0     H 9255  -1.106   6.866   5.982  2.5107  2.1252  0.5910
  828MOL0     H 9256  -0.836   6.716   6.018 -1.7600  1.4892 -2.1875
  828MOL0     H 9257  -0.966   6.696   6.131  1.7549 -0.8328 -0.2187
  828MOL0     H 9258  -0.708   7.070   6.201 -1.1320  0.0645  0.8760
  828MOL0     H 9259  -0.492   7.036   6.335  2.4821 -0.2264 -0.9020
  828MOL0     H 9260  -0.313   6.915   6.670 -0.3599 -0.9039  0.3008
  828MOL0     H 9261  -0.109   6.942   6.824  3.8531  0.1434 -0.0018
  828MOL0     H 9262   0.027   7.148   6.847 -0.2669 -0.4371 -0.9297
  828MOL0     H 9263   0.200   7.172   6.833  1.0423  0.2370  0.2741
  828MOL0     H 9264   0.119   6.901   6.948  1.2225 -1.1272  1.4900
  828MOL0     H 9265   0.066   7.051   7.038  1.7018  0.9467  0.6478
  828MOL0     H 9266   0.289   6.984   7.125 -2.3751 -1.3533  0.8377
  828MOL0     H 9267   0.308   7.131   7.018  0.5486 -0.2270  1.0214
  828MOL0     H 9268   0.354   6.837   6.974 -1.5019  0.1199  1.3949
  828MOL0     H 9269   0.375   6.983   6.856  1.3622  0.3895  0.1699
  828MOL0     H 9270   0.527   6.930   7.123  1.1851 -0.2997 -0.0348
  828MOL0     H 9271   0.553   7.066   7.005 -1.6540  0.3844 -0.8076
  828MOL0     H 9272   0.602   6.773   6.966  0.2367  0.9135 -0.3596
  828MOL0     H 9273   0.726   6.910   6.981 -1.9625  0.3296  4.8125
  828MOL0     H 9274   0.537   6.832   6.751 -0.8243 -0.5046 -1.0876
  828MOL0     H 9275   0.602   6.998   6.773 -0.4202 -1.5743 -0.6440
  828MOL0     H 9276   0.837   6.877   6.753  0.0749 -1.1259 -1.4570
  828MOL0     H 9277   0.729   6.878   6.614 -1.1753  0.0061 -0.3353
  828MOL0     H 9278   0.123   6.995   6.474 -0.5827  0.2094 -0.4007
  828MOL0     H 9279  -0.063   6.946   6.325  1.0271 -0.7885  0.2070
  828MOL0     H 9280  -0.576   6.629   6.380 -1.5097 -1.7882 -2.6381
  828MOL0     H 9281  -0.786   6.656   6.247 -1.0458  0.8797  2.0606
  828MOL0     H 9282  -0.287   5.985   5.627 -0.5562 -0.0284  0.2790
  828MOL0     H 9283  -0.059   5.979   5.597 -0.6418 -1.4030 -1.2490
  828MOL0     H 9284   0.317   6.213   5.969 -0.1938  0.3179 -1.1100
  828MOL0     H 9285   0.554   6.243   5.980 -0.3239 -1.7806  0.1994
  828MOL0     H 9286   0.700   6.290   5.843 -1.8046 -1.2941 -2.5348
  828MOL0     H 9287   0.868   6.263   5.805  0.3525  0.7187  1.1079
  828MOL0     H 9288   0.863   6.354   6.006 -0.1311 -0.1206 -4.2106
  828MOL0     H 9289   0.759   6.250   6.097 -0.1540 -0.2591 -1.2584
  828MOL0     H 9290   1.039   6.180   5.989  2.7011 -3.3791  0.9956
  828MOL0     H 9291   0.963   6.058   6.064 -1.8275  0.6596 -0.8790
  828MOL0     H 9292   0.962   6.168   6.290 -1.6793  3.4753  0.3464
  828MOL0     H 9293   1.114   6.169   6.224  0.3471  0.8676 -1.9568
  828MOL0     H 9294   0.988   6.578   6.271 -2.4790 -1.1843  0.0731
  828MOL0     H 9295   0.622   5.875   5.771  1.0280  0.3364 -0.9772
  828MOL0     H 9296   0.365   5.837   5.756  0.8167 -0.6113  0.7207
  829MOL0     O 9297   5.814  10.776  10.197  0.5289  0.1901  0.6715
  829MOL0     C 9298   5.896  10.840  10.143 -1.0059 -0.8908  0.4820
  829MOL0     O 9299   5.881  10.905  10.027  0.0638  0.3954  0.1438
  829MOL0     C 9300   5.770  10.886   9.946  0.3356  0.0640  0.3992
  829MOL0     C 9301   5.786  10.849   9.805 -0.3597 -0.5352  0.1566
  829MOL0     C 9302   5.680  10.838   9.717 -0.8009 -1.0200 -0.3809
  829MOL0     C 9303   5.552  10.868   9.773 -0.6352  0.0290  0.5506
  829MOL0     O 9304   5.452  10.848   9.682 -0.6852  0.2846  0.3986
  829MOL0     C 9305   5.316  10.842   9.732 -0.2484 -0.1275  0.4885
  829MOL0     C 9306   5.246  10.974   9.689  0.6629 -0.2711 -0.3796
  829MOL0     C 9307   5.134  10.949   9.597 -0.0748 -0.6154  0.3020
  829MOL0     C 9308   4.997  10.901   9.673 -0.1070 -0.0583 -0.0900
  829MOL0     C 9309   4.903  10.850   9.573  0.4027 -0.6134 -0.5487
  829MOL0     C 9310   4.755  10.833   9.628  0.3964 -0.0041  0.1967
  829MOL0     C 9311   4.739  10.756   9.761  0.2154 -0.0830  0.1705
  829MOL0     C 9312   4.812  10.616   9.759  0.1109  1.1119 -0.2834
  829MOL0     N 9313   4.782  10.536   9.878  0.3846  0.3999 -0.2667
  829MOL0     C 9314   4.660  10.504   9.928  0.1113 -0.7191  0.3961
  829MOL0     C 9315   4.688  10.404  10.015 -0.5866 -0.2818 -1.1374
  829MOL0     C 9316   4.586  10.326  10.105  0.8179  0.4327 -0.0559
  829MOL0     C 9317   4.445  10.389  10.132 -0.3334 -0.4140 -0.3103
  829MOL0     C 9318   4.359  10.292  10.209  0.0675  0.0188 -0.0268
  829MOL0     C 9319   4.390  10.275  10.358 -0.0560 -0.5611  0.6743
  829MOL0     O 9320   4.341  10.397  10.413  0.3117 -0.3866  0.7826
  829MOL0     C 9321   4.232  10.377  10.482  0.8237 -0.3972 -0.6160
  829MOL0     C 9322   4.232  10.297  10.593 -0.7448 -0.6754 -0.0212
  829MOL0     C 9323   4.113  10.263  10.665 -0.6743  0.2934  0.5685
  829MOL0     C 9324   3.991  10.315  10.628 -0.2808 -0.5248  1.2265
  829MOL0     C 9325   3.860  10.273  10.688  0.0299  0.6753  0.5082
  829MOL0     O 9326   3.740  10.332  10.641  0.0690 -0.7566  0.1472
  829MOL0     C 9327   3.623  10.284  10.694 -0.2232 -0.7632  0.2159
  829MOL0     C 9328   3.545  10.201  10.614  0.3700  0.4390 -0.0285
  829MOL0     C 9329   3.433  10.136  10.662  0.1666 -0.6419  0.1160
  829MOL0     C 9330   3.376  10.180  10.785 -1.1495 -0.0518 -0.0341
  829MOL0     O 9331   3.261  10.118  10.827  0.1477 -0.3446  0.6146
  829MOL0     C 9332   3.155  10.209  10.811  0.6329 -0.3278 -0.5236
  829MOL0     C 9333   3.078  10.227  10.941 -0.2119  0.0911 -1.2418
  829MOL0     C 9334   2.956  10.130  10.943  0.9540 -0.1322  0.4939
  829MOL0     C 9335   2.867  10.152  11.069  0.6510  0.3344  0.1462
  829MOL0     C 9336   2.736  10.071  11.058  0.8987  0.0822  0.0894
  829MOL0     C 9337   2.758   9.920  11.077 -0.6810  0.1866  0.7853
  829MOL0     C 9338   2.633   9.835  11.090  0.0499  0.5765  1.2408
  829MOL0     C 9339   2.672   9.686  11.109  0.6173  0.4678  0.7922
  829MOL0    Cl 9340   2.781   9.653  11.248 -0.5018  0.2842 -0.0515
  829MOL0     C 9341   3.451  10.263  10.873 -0.0511 -0.9181  0.1211
  829MOL0     C 9342   3.576  10.307  10.822  0.2947 -0.1363 -0.0132
  829MOL0     O 9343   3.865  10.175  10.770  0.5288  1.1951 -0.0747
  829MOL0     C 9344   3.988  10.402  10.513  0.0540 -0.9213  0.5227
  829MOL0     C 9345   4.108  10.433  10.445 -0.3309  0.2196  0.0999
  829MOL0     N 9346   4.824  10.363  10.007  0.1492 -0.2459 -0.2427
  829MOL0     N 9347   4.882  10.452   9.932 -0.8693  0.1243  0.1800
  829MOL0     C 9348   5.536  10.925   9.902  0.3280  0.3690  0.1143
  829MOL0     C 9349   5.646  10.924   9.988 -0.3965 -0.6160  0.5121
  829MOL0     C 9350   6.028  10.836  10.208 -0.0004  0.3468  0.0179
  829MOL0     C 9351   6.055  10.756  10.323  0.3689 -0.0087 -0.1582
  829MOL0     C 9352   6.183  10.753  10.383 -0.5124  0.3097 -0.6086
  829MOL0     C 9353   6.285  10.829  10.329 -0.8268 -0.2358  0.3505
  829MOL0     O 9354   6.412  10.824  10.375 -0.2156 -0.6350 -0.8267
  829MOL0     C 9355   6.432  10.814  10.514  0.3416 -0.3163 -0.3028
  829MOL0     C 9356   6.582  10.857  10.553  0.9090  0.7252  0.0065
  829MOL0     C 9357   6.621  10.981  10.470  0.1438 -0.0955  0.4466
  829MOL0     C 9358   6.744  11.043  10.533 -0.6081 -0.3981  0.3252
  829MOL0     C 9359   6.812  11.133  10.438 -0.6775  0.6652 -0.6020
  829MOL0     C 9360   6.870  11.211  10.368  0.2038  0.5278 -0.0836
  829MOL0     C 9361   6.258  10.908  10.219  0.6310 -0.2940 -0.8467
  829MOL0     C 9362   6.134  10.914  10.153  0.1236 -0.8894 -0.5326
  829MOL0     H 9363   5.877  10.816   9.755 -0.8710 -1.5787 -0.1103
  829MOL0     H 9364   5.700  10.813   9.613  1.3221  0.6461 -0.4295
  829MOL0     H 9365   5.311  10.837   9.842  0.4020  0.3723  0.5482
  829MOL0     H 9366   5.271  10.752   9.689  0.2812  0.4113 -1.2341
  829MOL0     H 9367   5.316  11.044   9.643  4.6626 -2.6286  1.5521
  829MOL0     H 9368   5.203  11.027   9.774  3.5238 -0.0519  1.0654
  829MOL0     H 9369   5.166  10.876   9.521  3.8448 -1.3824  2.4014
  829MOL0     H 9370   5.111  11.042   9.545  2.2621 -0.0635  0.1314
  829MOL0     H 9371   5.011  10.830   9.756  2.7528  1.5194  0.9075
  829MOL0     H 9372   4.940  10.978   9.726  0.0415 -1.0796  1.6579
  829MOL0     H 9373   4.933  10.751   9.536 -1.6031 -1.5119  0.1106
  829MOL0     H 9374   4.895  10.924   9.493  1.9870  3.2190  2.5561
  829MOL0     H 9375   4.694  10.783   9.552 -1.1534 -1.8855  2.5069
  829MOL0     H 9376   4.709  10.932   9.635 -1.1704 -0.6485 -0.4367
  829MOL0     H 9377   4.782  10.816   9.842 -1.0040  2.8171 -1.2116
  829MOL0     H 9378   4.634  10.752   9.791  0.3652 -1.3850  0.5926
  829MOL0     H 9379   4.920  10.618   9.746  0.0299  1.0451 -1.0229
  829MOL0     H 9380   4.785  10.556   9.672 -0.9548  1.5603 -0.2878
  829MOL0     H 9381   4.565  10.553   9.913 -0.2678 -1.5993 -0.1200
  829MOL0     H 9382   4.638  10.297  10.196 -1.6205 -0.2066  1.2348
  829MOL0     H 9383   4.563  10.230  10.056 -1.1058  1.2534 -0.8680
  829MOL0     H 9384   4.405  10.403  10.031  1.0968 -0.3080 -0.8857
  829MOL0     H 9385   4.448  10.486  10.183 -0.4370 -0.9200  0.6643
  829MOL0     H 9386   4.257  10.330  10.197  0.9043  1.8587 -1.9666
  829MOL0     H 9387   4.358  10.196  10.156 -1.2379  0.8963 -1.6584
  829MOL0     H 9388   4.497  10.263  10.378 -0.4362 -0.5600  2.9392
  829MOL0     H 9389   4.330  10.189  10.389  0.2586 -1.4779 -1.1580
  829MOL0     H 9390   4.329  10.265  10.629 -0.0637  1.2925  0.0161
  829MOL0     H 9391   4.131  10.193  10.746 -1.8143  0.2321  0.7747
  829MOL0     H 9392   3.565  10.167  10.513  0.2748  1.1967 -0.3108
  829MOL0     H 9393   3.375  10.067  10.601  1.4952 -0.9218 -0.8783
  829MOL0     H 9394   3.090  10.170  10.731  0.7496  0.8588 -1.2191
  829MOL0     H 9395   3.172  10.305  10.762 -1.8177 -0.1243 -1.1568
  829MOL0     H 9396   3.046  10.331  10.949  1.8765  0.7935 -1.3924
  829MOL0     H 9397   3.144  10.212  11.027 -2.0546 -0.4550  0.1464
  829MOL0     H 9398   2.977  10.023  10.937  2.8554  0.2005  0.7919
  829MOL0     H 9399   2.883  10.151  10.863  1.1572  0.8574  0.5586
  829MOL0     H 9400   2.919  10.116  11.158  1.7154 -0.3687 -0.7411
  829MOL0     H 9401   2.851  10.260  11.081 -2.3586  0.4129 -2.7390
  829MOL0     H 9402   2.686  10.087  10.962  0.0541  0.7730  0.6298
  829MOL0     H 9403   2.660  10.115  11.124  1.1095 -0.7855  0.9422
  829MOL0     H 9404   2.820   9.905  11.166  1.1872  1.2861 -0.2548
  829MOL0     H 9405   2.809   9.875  10.992 -3.3090 -2.0263  0.2474
  829MOL0     H 9406   2.568   9.866  11.172  0.6185  3.0963  0.8167
  829MOL0     H 9407   2.578   9.840  10.995  2.3464 -0.0782 -0.2097
  829MOL0     H 9408   2.709   9.652  11.012 -2.2434 -0.7817  0.0323
  829MOL0     H 9409   2.589   9.627  11.149  1.0548  0.6218  1.9837
  829MOL0     H 9410   3.423  10.281  10.976 -0.1664 -0.0247 -0.0576
  829MOL0     H 9411   3.649  10.350  10.889 -1.4450  0.3224  1.6546
  829MOL0     H 9412   3.905  10.457  10.471  4.1058  2.9248 -3.5925
  829MOL0     H 9413   4.113  10.484  10.350 -2.9300  0.2689 -0.0750
  829MOL0     H 9414   5.444  10.969   9.939 -0.4773  0.7732 -2.2389
  829MOL0     H 9415   5.625  10.959  10.089 -1.1172 -0.8358  0.4439
  829MOL0     H 9416   5.980  10.690  10.366  2.2843 -1.1507  1.5847
  829MOL0     H 9417   6.212  10.690  10.467  0.6674  0.1722 -1.1007
  829MOL0     H 9418   6.418  10.709  10.544 -0.9933 -0.2178 -0.5345
  829MOL0     H 9419   6.361  10.881  10.563 -0.6669  0.2367 -2.4319
  829MOL0     H 9420   6.566  10.884  10.658 -0.2054 -0.4906  0.1689
  829MOL0     H 9421   6.645  10.768  10.544 -0.0527  0.1125 -0.8225
  829MOL0     H 9422   6.544  11.057  10.451  1.6874  1.3559 -0.2477
  829MOL0     H 9423   6.656  10.954  10.370 -0.6406  1.8050 -0.3834
  829MOL0     H 9424   6.719  11.091  10.628  1.0963  0.0276  0.5848
  829MOL0     H 9425   6.817  10.967  10.559 -1.5934 -1.8869 -1.0821
  829MOL0     H 9426   6.918  11.293  10.318 -0.3399  1.0419  0.2218
  829MOL0     H 9427   6.335  10.972  10.175  0.8405  1.9378  2.4096
  829MOL0     H 9428   6.122  10.981  10.069 -0.3478 -1.1875 -0.7072
  830MOL0     O 9429  10.915   5.811  11.337  0.2371 -0.3032  0.0539
  830MOL0     C 9430  10.999   5.730  11.352 -0.5208  0.4119  0.1551
  830MOL0     O 9431  11.092   5.685  11.253  0.2535 -0.0433 -0.0882
  830MOL0     C 9432  11.069   5.723  11.122 -0.5959  1.6938 -0.0165
  830MOL0     C 9433  10.950   5.720  11.065 -0.1903  0.0155 -0.7587
  830MOL0     C 9434  10.922   5.772  10.943  0.3938 -0.7915  0.1185
  830MOL0     C 9435  11.029   5.811  10.860 -0.3420  0.1747  0.2513
  830MOL0     O 9436  11.006   5.827  10.723  0.9385 -0.7875  0.1791
  830MOL0     C 9437  11.091   5.761  10.637  0.8635  0.1557  0.8441
  830MOL0     C 9438  11.064   5.816  10.509 -0.2593  0.6702 -0.4903
  830MOL0     C 9439  10.922   5.772  10.453 -0.5939  0.2410  0.1909
  830MOL0     C 9440  10.896   5.835  10.314 -0.5386 -1.5425 -0.0137
  830MOL0     C 9441  10.780   5.799  10.229 -0.2349 -0.4419  1.5241
  830MOL0     C 9442  10.647   5.825  10.291  0.8932  0.5998  0.7102
  830MOL0     C 9443  10.545   5.716  10.250  0.0787 -0.3744  0.5019
  830MOL0     C 9444  10.422   5.715  10.344 -0.0690  0.0812  0.7469
  830MOL0     N 9445  10.308   5.679  10.263 -0.7587 -0.0491 -0.4454
  830MOL0     C 9446  10.201   5.601  10.307  0.5397  0.7415  0.1707
  830MOL0     C 9447  10.110   5.629  10.207 -0.5417 -0.1169 -0.1476
  830MOL0     C 9448   9.986   5.563  10.196 -0.2212 -0.3949  0.0911
  830MOL0     C 9449   9.882   5.665  10.146  0.2117  0.1908  1.0390
  830MOL0     C 9450   9.743   5.602  10.134  0.5761  0.5912  0.0539
  830MOL0     C 9451   9.683   5.617  10.276  0.0768 -0.7348  0.0002
  830MOL0     O 9452   9.547   5.581  10.268  0.5682  0.2770  0.3197
  830MOL0     C 9453   9.476   5.591  10.387  0.2465 -0.7498 -0.9362
  830MOL0     C 9454   9.337   5.591  10.381 -0.3316 -0.5182  0.3011
  830MOL0     C 9455   9.251   5.609  10.496 -1.2036 -0.6824  0.1934
  830MOL0     C 9456   9.309   5.636  10.619 -0.7179 -0.1176  0.0876
  830MOL0     C 9457   9.222   5.655  10.740  0.1626  0.3115 -0.1929
  830MOL0     O 9458   9.093   5.650  10.712 -0.2604 -0.0371 -0.2564
  830MOL0     C 9459   9.001   5.673  10.807 -1.0307  0.1120 -1.1821
  830MOL0     C 9460   8.981   5.583  10.911 -0.4407 -0.2566  1.4481
  830MOL0     C 9461   8.890   5.611  11.013 -0.0283 -0.2927 -0.9336
  830MOL0     C 9462   8.812   5.729  10.998 -1.4062 -0.7659 -0.9464
  830MOL0     O 9463   8.725   5.764  11.099 -0.0609 -0.3835  0.6704
  830MOL0     C 9464   8.614   5.680  11.126 -1.2177 -0.7522 -0.2673
  830MOL0     C 9465   8.485   5.731  11.066 -0.6028  0.9527 -0.6047
  830MOL0     C 9466   8.481   5.752  10.909  0.1214  0.3699 -0.4228
  830MOL0     C 9467   8.353   5.822  10.861  0.7292  0.5277 -0.3083
  830MOL0     C 9468   8.228   5.724  10.871 -0.1852 -0.2151 -0.7797
  830MOL0     C 9469   8.101   5.778  10.792 -0.4302 -0.8455  0.7049
  830MOL0     C 9470   8.055   5.924  10.826 -0.1519 -0.3171  0.6444
  830MOL0     C 9471   7.929   5.950  10.748  0.7629  0.0416  0.7892
  830MOL0    Cl 9472   7.792   5.862  10.795  0.0204 -0.0458  0.1292
  830MOL0     C 9473   8.831   5.818  10.892  0.2255  0.3600 -1.4562
  830MOL0     C 9474   8.926   5.794  10.793  0.5288  1.2201 -0.5923
  830MOL0     O 9475   9.272   5.662  10.856 -0.1723  0.3351  0.3733
  830MOL0     C 9476   9.452   5.643  10.630  0.0486 -0.5254  0.4908
  830MOL0     C 9477   9.532   5.620  10.520 -0.8825  0.9542 -0.5747
  830MOL0     N 9478  10.162   5.722  10.116 -0.2416 -0.7573 -0.3784
  830MOL0     N 9479  10.281   5.750  10.151 -0.6331  0.7297 -0.5624
  830MOL0     C 9480  11.155   5.818  10.922 -0.1262 -1.2520 -0.4472
  830MOL0     C 9481  11.179   5.777  11.052  0.0119 -0.7883 -0.2461
  830MOL0     C 9482  11.023   5.695  11.495 -0.1379 -0.4583  0.1454
  830MOL0     C 9483  10.923   5.698  11.597  0.6324 -0.7066  0.1765
  830MOL0     C 9484  10.969   5.674  11.730 -0.6282  0.5585  0.6236
  830MOL0     C 9485  11.092   5.630  11.767  0.7710 -0.3850  0.1444
  830MOL0     O 9486  11.096   5.580  11.894 -0.0429 -0.2900  0.3946
  830MOL0     C 9487  11.220   5.518  11.942  0.1588 -0.1327  0.3877
  830MOL0     C 9488  11.327   5.605  11.981  0.3488  0.0469 -0.1602
  830MOL0     C 9489  11.300   5.709  12.100  0.3854  0.7629  0.0388
  830MOL0     C 9490  11.399   5.825  12.078 -0.1201  0.5564  0.2792
  830MOL0     C 9491  11.535   5.783  12.103 -0.2304  1.0503 -0.1502
  830MOL0     C 9492  11.647   5.751  12.140  0.0951  0.3810  0.5828
  830MOL0     C 9493  11.186   5.615  11.662  0.3036  0.8555  1.1847
  830MOL0     C 9494  11.156   5.654  11.532  0.1334 -0.3571 -0.0239
  830MOL0     H 9495  10.869   5.672  11.119 -1.5415  1.5064 -1.3919
  830MOL0     H 9496  10.824   5.762  10.900  0.3601  1.2278 -0.3858
  830MOL0     H 9497  11.089   5.651  10.638  3.8982  0.0211  0.5213
  830MOL0     H 9498  11.193   5.792  10.660  0.1957  0.9644  2.9071
  830MOL0     H 9499  11.138   5.778  10.438 -1.4022 -2.6873 -0.0365
  830MOL0     H 9500  11.081   5.924  10.518 -0.9645  0.6945  0.7256
  830MOL0     H 9501  10.838   5.786  10.522 -1.9328  2.3254 -1.6982
  830MOL0     H 9502  10.923   5.666  10.426 -0.2143  0.1408  0.5796
  830MOL0     H 9503  10.906   5.944  10.325  0.9722 -1.5610 -1.0125
  830MOL0     H 9504  10.979   5.794  10.256  0.8220 -0.6318  1.2183
  830MOL0     H 9505  10.785   5.694  10.198 -0.7015  0.2725 -1.2206
  830MOL0     H 9506  10.781   5.854  10.134 -2.4590 -1.2924  0.9438
  830MOL0     H 9507  10.607   5.925  10.270 -0.3572  0.6661  3.0741
  830MOL0     H 9508  10.656   5.824  10.400 -0.1969  2.0866  0.8411
  830MOL0     H 9509  10.512   5.737  10.148  2.4145 -0.8883 -0.4192
  830MOL0     H 9510  10.589   5.616  10.241 -1.4618 -1.6495  4.6927
  830MOL0     H 9511  10.404   5.809  10.397  1.6187  0.1299  1.2934
  830MOL0     H 9512  10.432   5.637  10.419  3.1794 -1.3945 -0.9830
  830MOL0     H 9513  10.191   5.522  10.381  3.5330 -2.5363 -2.5265
  830MOL0     H 9514   9.962   5.531  10.298  1.8757  2.1704  1.5063
  830MOL0     H 9515   9.991   5.482  10.123 -1.0492  0.7746 -1.3233
  830MOL0     H 9516   9.907   5.691  10.042 -1.0734  0.2936  0.7426
  830MOL0     H 9517   9.884   5.749  10.216  1.9858 -1.8382  3.6258
  830MOL0     H 9518   9.683   5.665  10.068 -0.6709 -1.3310 -0.7376
  830MOL0     H 9519   9.742   5.503  10.088  1.1863  0.3915  0.4660
  830MOL0     H 9520   9.695   5.719  10.313  0.1857 -0.2921 -1.2373
  830MOL0     H 9521   9.729   5.541  10.340  1.5159  0.0550 -0.0568
  830MOL0     H 9522   9.286   5.575  10.287  0.5765  0.1083 -0.3101
  830MOL0     H 9523   9.148   5.590  10.469 -1.6439 -1.5507  2.2728
  830MOL0     H 9524   9.040   5.493  10.910 -1.1414 -0.7203  0.6481
  830MOL0     H 9525   8.863   5.542  11.092  1.3709  0.7660  0.5156
  830MOL0     H 9526   8.606   5.674  11.235 -2.1694  0.5308 -0.2450
  830MOL0     H 9527   8.638   5.582  11.083  0.5573 -0.3613 -0.2411
  830MOL0     H 9528   8.470   5.823  11.124 -2.8818  1.6036 -2.0800
  830MOL0     H 9529   8.399   5.675  11.105  0.0779  0.7600  0.6749
  830MOL0     H 9530   8.516   5.660  10.862  1.2991  0.8573 -0.5466
  830MOL0     H 9531   8.567   5.816  10.884  0.4695  0.0649 -0.0168
  830MOL0     H 9532   8.332   5.911  10.922  2.3311  0.3490  0.5597
  830MOL0     H 9533   8.369   5.840  10.755  1.0436 -2.3560 -0.8247
  830MOL0     H 9534   8.202   5.710  10.976  0.5484  0.2261 -0.5284
  830MOL0     H 9535   8.254   5.622  10.843  0.5747  0.0532 -1.1013
  830MOL0     H 9536   8.024   5.701  10.803 -0.0736 -1.2251  0.5579
  830MOL0     H 9537   8.130   5.777  10.687 -1.8505  0.3167  0.2670
  830MOL0     H 9538   8.030   5.937  10.932  1.2533 -2.2534  1.2729
  830MOL0     H 9539   8.133   5.998  10.804  0.5754 -0.1970  3.3039
  830MOL0     H 9540   7.957   5.913  10.649  2.1903 -2.5585  2.0798
  830MOL0     H 9541   7.911   6.058  10.746 -1.7905 -0.2378 -3.2137
  830MOL0     H 9542   8.774   5.911  10.890  2.6265  2.0622  1.3908
  830MOL0     H 9543   8.949   5.853  10.704 -1.1132 -0.7497 -2.4443
  830MOL0     H 9544   9.498   5.664  10.726 -1.1475 -1.6864  1.3593
  830MOL0     H 9545   9.639   5.627  10.531 -0.9273 -1.3739  3.7761
  830MOL0     H 9546  11.241   5.836  10.858 -0.8925 -0.9371 -1.4150
  830MOL0     H 9547  11.280   5.791  11.090 -0.2850  2.8952 -0.4563
  830MOL0     H 9548  10.818   5.716  11.577  0.0293 -2.4425  1.5212
  830MOL0     H 9549  10.895   5.694  11.807  0.3486  0.7814  1.5325
  830MOL0     H 9550  11.248   5.444  11.867 -1.7184  0.3693 -0.8946
  830MOL0     H 9551  11.191   5.466  12.034 -0.1364  4.0866  2.9212
  830MOL0     H 9552  11.408   5.535  12.001  1.2252  0.7569 -1.0995
  830MOL0     H 9553  11.356   5.668  11.897  1.7987 -0.6273 -0.1819
  830MOL0     H 9554  11.320   5.663  12.197 -0.5956  0.9770  0.3457
  830MOL0     H 9555  11.197   5.745  12.096 -0.3211 -1.1505 -0.3116
  830MOL0     H 9556  11.390   5.872  11.980 -1.9330 -0.6930 -0.1967
  830MOL0     H 9557  11.378   5.906  12.149 -0.2122  0.7809 -0.0029
  830MOL0     H 9558  11.741   5.717  12.176  0.5988  0.6014 -0.4863
  830MOL0     H 9559  11.277   5.557  11.677  0.5110  0.6400 -0.7310
  830MOL0     H 9560  11.240   5.651  11.463  0.9720  0.8209  0.8930
  831MOL0     O 9561   9.910   7.425   0.422  0.1338 -0.1218 -0.2636
  831MOL0     C 9562   9.940   7.543   0.445 -0.0497  0.5106 -1.5247
  831MOL0     O 9563   9.852   7.650   0.470 -0.0115  0.1903  0.1622
  831MOL0     C 9564   9.719   7.614   0.487 -0.0950 -0.3470 -0.0566
  831MOL0     C 9565   9.639   7.592   0.375  0.4825  0.3816  0.3819
  831MOL0     C 9566   9.499   7.570   0.403 -0.8821  0.7389 -0.9265
  831MOL0     C 9567   9.443   7.573   0.533 -0.8317  0.4939 -1.1866
  831MOL0     O 9568   9.313   7.557   0.575 -0.1636  0.1818 -0.2357
  831MOL0     C 9569   9.221   7.485   0.493 -0.0899 -0.0426 -1.1880
  831MOL0     C 9570   9.078   7.515   0.519 -0.0492 -0.5278 -0.3250
  831MOL0     C 9571   9.049   7.464   0.665  0.1870  0.3519  0.3939
  831MOL0     C 9572   8.900   7.450   0.696  0.1686  0.4584  0.1418
  831MOL0     C 9573   8.829   7.583   0.709 -0.1242  0.2918  0.6276
  831MOL0     C 9574   8.680   7.559   0.753 -0.5728 -0.8417 -0.4246
  831MOL0     C 9575   8.611   7.696   0.770  0.6031 -0.3465 -0.3364
  831MOL0     C 9576   8.578   7.760   0.636 -0.9979  0.2791 -1.0111
  831MOL0     N 9577   8.538   7.899   0.638 -0.2131 -0.2952 -0.3259
  831MOL0     C 9578   8.570   7.992   0.735  0.1623  0.5422 -0.2454
  831MOL0     C 9579   8.498   8.098   0.701 -0.2372 -0.7062  0.2794
  831MOL0     C 9580   8.511   8.224   0.781  0.7018 -0.1726 -0.4074
  831MOL0     C 9581   8.377   8.278   0.827  0.1527  0.2891  0.7700
  831MOL0     C 9582   8.379   8.390   0.939  0.4808  1.1431  0.7812
  831MOL0     C 9583   8.243   8.447   0.960 -0.1964 -0.2146 -0.9889
  831MOL0     O 9584   8.148   8.346   1.018 -0.0686 -0.6737 -0.0167
  831MOL0     C 9585   8.030   8.405   1.067 -0.7063 -0.5463 -0.0172
  831MOL0     C 9586   7.996   8.538   1.065  0.6188 -1.2127  0.0713
  831MOL0     C 9587   7.869   8.584   1.101  0.2415 -0.1965 -0.6196
  831MOL0     C 9588   7.772   8.500   1.152 -0.2881 -0.5360 -1.6441
  831MOL0     C 9589   7.639   8.535   1.203  0.5548 -0.6423 -0.2732
  831MOL0     O 9590   7.543   8.442   1.236  0.0566 -0.2461  0.0974
  831MOL0     C 9591   7.407   8.472   1.245 -0.6732  0.3493 -0.7258
  831MOL0     C 9592   7.342   8.587   1.191 -0.1076 -0.8153 -0.0252
  831MOL0     C 9593   7.203   8.606   1.211 -0.3674  1.1450  0.2515
  831MOL0     C 9594   7.127   8.509   1.278 -0.8914 -0.2424  0.2675
  831MOL0     O 9595   6.998   8.510   1.317 -0.3962  0.3851  0.6739
  831MOL0     C 9596   6.904   8.610   1.275 -0.4305  0.0121 -0.0672
  831MOL0     C 9597   6.919   8.741   1.353 -0.0431 -0.2228 -0.3601
  831MOL0     C 9598   6.785   8.825   1.355 -0.0637 -0.8392 -0.0063
  831MOL0     C 9599   6.694   8.811   1.488 -1.2357  0.4597  0.9315
  831MOL0     C 9600   6.567   8.892   1.456 -0.1493  0.7945 -0.2372
  831MOL0     C 9601   6.465   8.888   1.574  0.5107  0.4232  0.9562
  831MOL0     C 9602   6.338   8.965   1.554  1.2480 -0.5782 -0.5762
  831MOL0     C 9603   6.230   8.946   1.662 -0.2949  0.1165  0.7050
  831MOL0    Cl 9604   6.249   9.050   1.812  0.5836 -0.1543 -0.0744
  831MOL0     C 9605   7.193   8.396   1.324 -0.1571 -0.3913 -0.1917
  831MOL0     C 9606   7.332   8.371   1.309  0.3244 -0.7026 -0.4363
  831MOL0     O 9607   7.617   8.654   1.201 -0.0281  0.7601  0.0650
  831MOL0     C 9608   7.811   8.360   1.165  0.0841 -0.0795 -0.1327
  831MOL0     C 9609   7.930   8.317   1.112  0.9138  0.2777 -0.1298
  831MOL0     N 9610   8.417   8.071   0.596  0.6734  0.5157 -1.1936
  831MOL0     N 9611   8.449   7.954   0.554  0.4385 -0.5610  0.7926
  831MOL0     C 9612   9.537   7.604   0.632  0.8544 -0.3369  0.4838
  831MOL0     C 9613   9.671   7.620   0.613  0.9895 -0.5885  0.2399
  831MOL0     C 9614  10.085   7.559   0.461  0.2524 -0.3969  0.4993
  831MOL0     C 9615  10.130   7.686   0.488 -0.8159 -0.8799 -0.1551
  831MOL0     C 9616  10.270   7.704   0.509 -0.5172  0.4398 -0.1379
  831MOL0     C 9617  10.356   7.595   0.503 -0.5733 -1.5738  1.5630
  831MOL0     O 9618  10.483   7.594   0.533  0.0587 -0.0459 -0.2213
  831MOL0     C 9619  10.570   7.704   0.539 -0.5563  0.7708 -0.0584
  831MOL0     C 9620  10.617   7.696   0.676  0.4638  0.3503 -0.2056
  831MOL0     C 9621  10.757   7.764   0.683  1.1761 -0.2973  0.1555
  831MOL0     C 9622  10.807   7.769   0.825 -0.2921  0.1122 -0.0477
  831MOL0     C 9623  10.923   7.864   0.828  0.4803 -0.0759 -0.5431
  831MOL0     C 9624  11.022   7.931   0.826  0.1565 -0.7918  0.1447
  831MOL0     C 9625  10.306   7.472   0.473 -0.5807  0.4972  0.0121
  831MOL0     C 9626  10.170   7.452   0.456 -0.3612  0.2099 -0.9372
  831MOL0     H 9627   9.678   7.585   0.273 -0.3263  1.1723  0.0094
  831MOL0     H 9628   9.442   7.542   0.316 -0.6800 -0.6800 -0.6218
  831MOL0     H 9629   9.251   7.383   0.515  0.8645  1.0616  3.5982
  831MOL0     H 9630   9.235   7.504   0.386 -1.5073  1.0414 -1.2180
  831MOL0     H 9631   9.018   7.463   0.444 -0.2462 -0.3258 -0.3090
  831MOL0     H 9632   9.052   7.620   0.501 -0.1715 -0.5477 -0.2647
  831MOL0     H 9633   9.090   7.521   0.749 -0.7928  3.2820 -0.9990
  831MOL0     H 9634   9.103   7.370   0.679 -0.6391 -0.3444 -0.8799
  831MOL0     H 9635   8.848   7.392   0.620 -0.8441  1.0165  0.3926
  831MOL0     H 9636   8.900   7.397   0.792 -0.3911  2.1059  1.0857
  831MOL0     H 9637   8.825   7.618   0.606 -0.8941 -0.1134  0.5128
  831MOL0     H 9638   8.882   7.657   0.770  3.2320 -0.7661 -0.7551
  831MOL0     H 9639   8.686   7.514   0.853  2.9944  0.7902  0.2469
  831MOL0     H 9640   8.630   7.498   0.677 -0.5577  1.6453 -2.5591
  831MOL0     H 9641   8.513   7.680   0.816  0.3884 -0.5247 -0.8506
  831MOL0     H 9642   8.673   7.755   0.838  2.0485 -1.0102 -1.0313
  831MOL0     H 9643   8.515   7.697   0.574 -0.5816  0.4007 -1.5695
  831MOL0     H 9644   8.671   7.756   0.578 -0.5594  0.7987 -0.3712
  831MOL0     H 9645   8.628   7.984   0.826  2.1335  2.3466 -1.2868
  831MOL0     H 9646   8.564   8.301   0.725  0.4570  1.0307  0.9550
  831MOL0     H 9647   8.554   8.211   0.881  0.6753 -2.4408 -0.6375
  831MOL0     H 9648   8.328   8.190   0.871  0.8170 -0.9881 -0.9260
  831MOL0     H 9649   8.331   8.302   0.731  1.0917 -0.4953  0.1060
  831MOL0     H 9650   8.418   8.341   1.029  2.1059 -2.0279 -1.4490
  831MOL0     H 9651   8.451   8.469   0.918  0.9134  0.9062  1.3527
  831MOL0     H 9652   8.203   8.493   0.869 -3.1862  1.1836  0.8663
  831MOL0     H 9653   8.263   8.529   1.030  1.1748 -0.3504 -1.1799
  831MOL0     H 9654   8.067   8.610   1.025  2.2780 -2.4258  0.7349
  831MOL0     H 9655   7.846   8.689   1.083 -3.1724 -0.8469 -0.5995
  831MOL0     H 9656   7.383   8.667   1.130  0.9867 -1.1340  0.2760
  831MOL0     H 9657   7.157   8.701   1.186  2.5477  2.8462  0.8063
  831MOL0     H 9658   6.806   8.564   1.293 -1.7093  2.4579 -0.2836
  831MOL0     H 9659   6.918   8.625   1.167  2.1588 -1.6060 -0.0259
  831MOL0     H 9660   6.996   8.801   1.304 -0.6340  2.0773  1.3366
  831MOL0     H 9661   6.944   8.705   1.453  2.3779 -0.9472 -1.1806
  831MOL0     H 9662   6.729   8.794   1.266 -1.2486 -0.8693  0.7136
  831MOL0     H 9663   6.808   8.932   1.357 -2.7153 -0.1838  1.2658
  831MOL0     H 9664   6.677   8.706   1.511 -0.5066  0.7379  2.9172
  831MOL0     H 9665   6.759   8.850   1.567 -0.4483  0.6905  0.1797
  831MOL0     H 9666   6.527   8.853   1.362  2.2631 -1.0802 -0.5717
  831MOL0     H 9667   6.608   8.993   1.446  0.5373  0.4165 -1.3927
  831MOL0     H 9668   6.510   8.927   1.666 -2.2042  1.1269  2.0798
  831MOL0     H 9669   6.440   8.786   1.607  0.2776  0.9026  2.3648
  831MOL0     H 9670   6.356   9.071   1.536  1.5490 -0.5301 -0.0236
  831MOL0     H 9671   6.293   8.923   1.464 -2.2147  3.6986 -1.1448
  831MOL0     H 9672   6.230   8.843   1.699 -0.2060  1.1936  4.0164
  831MOL0     H 9673   6.132   8.978   1.626 -0.1830  0.8786  1.0657
  831MOL0     H 9674   7.147   8.322   1.389  0.3335  0.5319  1.2363
  831MOL0     H 9675   7.370   8.274   1.341  1.8622  0.9009  3.2478
  831MOL0     H 9676   7.733   8.292   1.198  1.3241 -1.0994  0.8110
  831MOL0     H 9677   7.938   8.209   1.106  0.4543  0.0725  1.9677
  831MOL0     H 9678   9.502   7.605   0.734  1.2211 -3.4585  0.7167
  831MOL0     H 9679   9.745   7.618   0.692  2.7860 -0.2348 -1.3786
  831MOL0     H 9680  10.055   7.764   0.497  0.4824  0.4623 -0.6021
  831MOL0     H 9681  10.306   7.802   0.539 -2.7874  1.4494 -0.5341
  831MOL0     H 9682  10.532   7.801   0.508 -0.4762  0.1710 -2.2355
  831MOL0     H 9683  10.646   7.677   0.465 -1.5608  0.0538 -0.8601
  831MOL0     H 9684  10.547   7.746   0.743 -0.1915 -0.3077 -0.3810
  831MOL0     H 9685  10.634   7.593   0.709  2.6540  0.7960  0.1935
  831MOL0     H 9686  10.739   7.865   0.644  1.4806 -0.8831 -1.6018
  831MOL0     H 9687  10.828   7.721   0.613  0.7214  0.8485 -1.0541
  831MOL0     H 9688  10.726   7.804   0.889  0.6331  1.7746  0.2594
  831MOL0     H 9689  10.861   7.677   0.852  2.6685  1.8376  0.4091
  831MOL0     H 9690  11.111   7.989   0.810  0.3520 -1.6500 -2.1783
  831MOL0     H 9691  10.375   7.389   0.468  0.4243  1.3594 -1.0321
  831MOL0     H 9692  10.131   7.351   0.443  0.1644 -0.0762 -0.3710
  832MOL0     O 9693   4.871   7.647   1.107  0.2018  0.5446 -0.0506
  832MOL0     C 9694   4.963   7.731   1.109 -0.7164  0.4033 -0.1687
  832MOL0     O 9695   4.954   7.855   1.160 -1.3641  0.7067 -0.6004
  832MOL0     C 9696   4.849   7.882   1.245  0.6853  0.5099 -0.0881
  832MOL0     C 9697   4.794   8.013   1.228 -0.2149 -0.2706  0.2445
  832MOL0     C 9698   4.684   8.054   1.308  0.4209  0.2215  0.6569
  832MOL0     C 9699   4.615   7.960   1.387 -0.0070 -0.5623 -0.4697
  832MOL0     O 9700   4.516   8.009   1.466 -0.3912 -0.0032  0.0909
  832MOL0     C 9701   4.476   7.945   1.587 -0.1416  0.1902 -0.0454
  832MOL0     C 9702   4.398   8.043   1.673 -0.1931  0.0995  0.0082
  832MOL0     C 9703   4.355   7.988   1.806 -0.9280 -0.2197  0.0060
  832MOL0     C 9704   4.291   8.094   1.882  0.9921 -0.7528 -0.3591
  832MOL0     C 9705   4.236   8.048   2.017  0.4652 -0.4381 -0.1572
  832MOL0     C 9706   4.343   7.988   2.107 -0.2663  0.1820 -0.3973
  832MOL0     C 9707   4.295   7.972   2.251 -0.0220 -0.4135  0.2880
  832MOL0     C 9708   4.392   7.897   2.347 -0.8316 -0.7843  0.5525
  832MOL0     N 9709   4.528   7.965   2.373 -0.2650  0.5447  0.1231
  832MOL0     C 9710   4.643   7.897   2.335 -0.3498  0.0323 -0.2139
  832MOL0     C 9711   4.739   7.969   2.399  0.0705  0.3649 -0.0193
  832MOL0     C 9712   4.885   7.926   2.374 -0.4081 -0.8991 -1.0819
  832MOL0     C 9713   4.961   8.036   2.294 -0.2842 -1.3166  0.4117
  832MOL0     C 9714   4.868   8.081   2.177 -0.4548 -0.0587 -0.0755
  832MOL0     C 9715   4.942   8.165   2.079 -0.7107  0.8072  0.0857
  832MOL0     O 9716   5.038   8.067   2.012  0.1115  0.0142 -0.2125
  832MOL0     C 9717   5.149   8.117   1.949 -0.5181  0.8710  0.4019
  832MOL0     C 9718   5.260   8.025   1.929 -0.2757 -0.7024  0.2614
  832MOL0     C 9719   5.376   8.074   1.868 -0.6260 -0.7303  0.4339
  832MOL0     C 9720   5.391   8.209   1.836  0.1972  0.1082  0.2466
  832MOL0     C 9721   5.524   8.252   1.774  0.4831  1.0240 -0.0405
  832MOL0     O 9722   5.624   8.159   1.791 -0.4725 -0.3840 -0.7357
  832MOL0     C 9723   5.736   8.139   1.705  0.7320  0.3204 -0.5825
  832MOL0     C 9724   5.866   8.158   1.750 -0.2520 -0.6142  0.2255
  832MOL0     C 9725   5.964   8.127   1.661 -0.7739  0.4033  0.5656
  832MOL0     C 9726   5.940   8.079   1.531  0.3651 -0.8261  0.4712
  832MOL0     O 9727   6.032   8.071   1.434 -0.5636  1.5876 -0.1164
  832MOL0     C 9728   6.142   8.165   1.438  0.1980  0.2669 -0.7912
  832MOL0     C 9729   6.215   8.178   1.302 -0.1594 -0.7208 -0.1756
  832MOL0     C 9730   6.181   8.070   1.196  0.4501 -0.7833 -0.2110
  832MOL0     C 9731   6.051   8.122   1.117  0.6203  0.5300 -0.6191
  832MOL0     C 9732   5.969   7.993   1.089  1.0958 -0.0024  0.4773
  832MOL0     C 9733   5.873   8.022   0.973 -0.1807 -0.2905 -0.0963
  832MOL0     C 9734   5.795   7.894   0.959 -0.5261 -0.8157  0.1706
  832MOL0     C 9735   5.684   7.920   0.864  0.8683 -0.1798  0.5560
  832MOL0    Cl 9736   5.567   8.050   0.924  0.0657  0.1735 -0.4804
  832MOL0     C 9737   5.803   8.055   1.498  0.9965  0.1741  0.3056
  832MOL0     C 9738   5.706   8.081   1.590  0.1238  0.1759 -0.0675
  832MOL0     O 9739   5.529   8.349   1.698  0.1887 -0.4568 -0.6070
  832MOL0     C 9740   5.287   8.297   1.865  0.5153  0.0071 -0.8109
  832MOL0     C 9741   5.169   8.251   1.922  0.4389  0.5947  0.4214
  832MOL0     N 9742   4.687   8.088   2.454  0.1950  0.2066  0.2584
  832MOL0     N 9743   4.556   8.089   2.430  0.8427  0.3061  1.1352
  832MOL0     C 9744   4.672   7.837   1.403  0.2644 -1.0627  0.9530
  832MOL0     C 9745   4.790   7.797   1.342  0.7127  0.0168 -0.2479
  832MOL0     C 9746   5.098   7.692   1.043  0.7343  0.1346 -0.7048
  832MOL0     C 9747   5.206   7.780   1.052 -0.1983  0.4804 -1.2941
  832MOL0     C 9748   5.329   7.746   0.991  0.0614  1.0045 -0.0845
  832MOL0     C 9749   5.345   7.619   0.928 -1.0473  0.2459 -0.3342
  832MOL0     O 9750   5.472   7.599   0.878  0.3046  0.5798  0.1784
  832MOL0     C 9751   5.493   7.486   0.789 -0.5501 -0.3054 -0.9945
  832MOL0     C 9752   5.633   7.480   0.718  0.0231  0.1568 -1.1502
  832MOL0     C 9753   5.750   7.524   0.818 -0.0731 -1.1036  1.1322
  832MOL0     C 9754   5.884   7.498   0.761 -0.3828  0.2054  0.2974
  832MOL0     C 9755   5.914   7.593   0.658  0.1227 -1.1334 -0.1586
  832MOL0     C 9756   5.945   7.671   0.563 -0.3798 -0.5823 -0.1915
  832MOL0     C 9757   5.235   7.536   0.918  0.2930  0.3396  1.2992
  832MOL0     C 9758   5.116   7.566   0.986 -0.0489  0.4064 -0.2049
  832MOL0     H 9759   4.848   8.087   1.170 -0.0936 -0.7359 -0.2474
  832MOL0     H 9760   4.646   8.156   1.307 -0.3013 -0.0436  0.5494
  832MOL0     H 9761   4.558   7.895   1.639 -2.5839 -3.8617  0.2771
  832MOL0     H 9762   4.412   7.863   1.554  3.7129 -2.1453 -2.3815
  832MOL0     H 9763   4.302   8.069   1.625 -2.1094  0.6521  3.7787
  832MOL0     H 9764   4.453   8.136   1.693 -1.3841  2.0184 -4.3155
  832MOL0     H 9765   4.443   7.951   1.860 -1.2762 -0.4062  0.4513
  832MOL0     H 9766   4.296   7.899   1.782  0.7081 -1.5672  0.7293
  832MOL0     H 9767   4.352   8.184   1.895  1.4800 -1.0384 -0.6571
  832MOL0     H 9768   4.207   8.138   1.828 -0.3859 -0.6040  1.7595
  832MOL0     H 9769   4.153   7.977   2.003  0.5842 -0.3472 -1.4569
  832MOL0     H 9770   4.186   8.128   2.072 -2.4382 -1.4328 -1.1200
  832MOL0     H 9771   4.429   8.056   2.108 -1.1739  1.3712 -0.8620
  832MOL0     H 9772   4.380   7.890   2.076  1.0939 -0.0722  1.7603
  832MOL0     H 9773   4.278   8.071   2.294 -0.2510  1.0059 -2.7875
  832MOL0     H 9774   4.198   7.921   2.247 -0.5824  0.6299  0.4926
  832MOL0     H 9775   4.412   7.795   2.314  0.3423  0.1951 -2.0303
  832MOL0     H 9776   4.333   7.903   2.439 -2.0313  2.1597 -0.2910
  832MOL0     H 9777   4.658   7.808   2.276  0.3376 -0.7994  1.1711
  832MOL0     H 9778   4.889   7.824   2.334  1.4815 -0.7007 -1.5110
  832MOL0     H 9779   4.935   7.918   2.471  1.4057  1.5588 -1.7151
  832MOL0     H 9780   5.052   7.990   2.255  0.0352 -2.3350  2.2684
  832MOL0     H 9781   4.985   8.123   2.356 -2.7715 -2.6491  3.5446
  832MOL0     H 9782   4.821   8.000   2.119  0.5184 -0.0467 -0.9080
  832MOL0     H 9783   4.793   8.153   2.213  1.1572  2.6681 -1.7899
  832MOL0     H 9784   4.998   8.249   2.120 -1.1389  2.1420 -1.9422
  832MOL0     H 9785   4.877   8.209   2.004 -0.4125  1.1125  0.0056
  832MOL0     H 9786   5.253   7.921   1.959 -2.0164 -1.1820 -1.5791
  832MOL0     H 9787   5.461   8.009   1.851  0.7342  1.0644  0.0153
  832MOL0     H 9788   5.887   8.187   1.852  0.0197  3.2666 -0.7851
  832MOL0     H 9789   6.063   8.140   1.704 -0.4833 -2.1943  0.8071
  832MOL0     H 9790   6.214   8.140   1.516 -1.1093 -1.0356  0.0587
  832MOL0     H 9791   6.112   8.269   1.455  1.1589  0.1125  2.5517
  832MOL0     H 9792   6.323   8.185   1.315 -0.3557  4.5730  0.7289
  832MOL0     H 9793   6.199   8.276   1.256 -0.0064 -1.9806 -3.1239
  832MOL0     H 9794   6.175   7.976   1.251  1.5658 -1.5323 -1.3117
  832MOL0     H 9795   6.267   8.068   1.127  0.3477  0.2527 -0.3814
  832MOL0     H 9796   5.993   8.199   1.168 -0.6685 -0.6255 -0.2796
  832MOL0     H 9797   6.092   8.165   1.025  2.1608 -0.0684 -0.2389
  832MOL0     H 9798   5.910   7.952   1.171 -0.4611  1.3844  0.1194
  832MOL0     H 9799   6.044   7.917   1.066  0.7683 -0.1189 -0.2453
  832MOL0     H 9800   5.921   8.057   0.881  1.7719  3.2806  2.0324
  832MOL0     H 9801   5.800   8.099   1.000 -0.3049  0.2127 -1.7679
  832MOL0     H 9802   5.849   7.812   0.911 -0.2763  0.2654 -1.4351
  832MOL0     H 9803   5.745   7.865   1.052  1.0509 -0.2225  1.2452
  832MOL0     H 9804   5.616   7.835   0.847  0.2655  0.5885 -1.1007
  832MOL0     H 9805   5.716   7.943   0.762  0.9615  1.6033  0.9713
  832MOL0     H 9806   5.781   8.033   1.394  1.2661 -0.5253  0.3897
  832MOL0     H 9807   5.601   8.067   1.568 -0.1338  4.4209 -2.6364
  832MOL0     H 9808   5.294   8.405   1.858 -0.2296  0.2885  1.7434
  832MOL0     H 9809   5.092   8.319   1.958 -0.0905 -0.5579  1.5419
  832MOL0     H 9810   4.613   7.771   1.467  0.2887 -2.0018  0.0237
  832MOL0     H 9811   4.821   7.696   1.366 -2.8139 -1.0220  0.4181
  832MOL0     H 9812   5.177   7.863   1.115 -2.0373 -1.6775  0.8849
  832MOL0     H 9813   5.417   7.807   1.008 -0.0726  0.7746  1.6280
  832MOL0     H 9814   5.411   7.480   0.717 -0.3795 -0.6071 -1.1681
  832MOL0     H 9815   5.486   7.393   0.847  0.6163  0.5992  0.7034
  832MOL0     H 9816   5.647   7.381   0.673  0.6110  0.3841 -1.4796
  832MOL0     H 9817   5.621   7.554   0.639 -3.6097 -0.4224 -1.2977
  832MOL0     H 9818   5.738   7.470   0.912 -1.7399  3.7922  4.0882
  832MOL0     H 9819   5.739   7.630   0.839 -2.3104 -1.1453  0.4537
  832MOL0     H 9820   5.964   7.502   0.836 -0.1133 -1.4755  0.1405
  832MOL0     H 9821   5.884   7.405   0.704 -3.5852 -0.1817  0.7184
  832MOL0     H 9822   5.972   7.747   0.492  0.8957  0.5365  1.4030
  832MOL0     H 9823   5.239   7.445   0.859 -3.4156  1.1133 -0.4649
  832MOL0     H 9824   5.039   7.496   0.956  0.9844 -0.6555 -0.4860
  833MOL0     O 9825   2.066   3.733   0.703  0.3540 -0.6828 -0.2763
  833MOL0     C 9826   2.097   3.853   0.711 -0.7782 -0.3893  0.5306
  833MOL0     O 9827   2.007   3.965   0.728  0.1891 -0.1001  0.8757
  833MOL0     C 9828   1.874   3.923   0.752  0.3298  0.5960  0.2253
  833MOL0     C 9829   1.779   3.931   0.649  0.9160 -0.3148  0.0843
  833MOL0     C 9830   1.644   3.902   0.679 -0.8157 -1.0958  0.2212
  833MOL0     C 9831   1.611   3.865   0.806  0.4596 -0.1519  0.1203
  833MOL0     O 9832   1.480   3.824   0.846 -0.4735  0.1825  0.2708
  833MOL0     C 9833   1.371   3.860   0.760  0.2355 -0.2742 -0.2346
  833MOL0     C 9834   1.231   3.825   0.819 -0.3921 -0.2106  0.6655
  833MOL0     C 9835   1.218   3.879   0.959  0.0432 -0.6830 -0.0996
  833MOL0     C 9836   1.063   3.885   0.986  0.5602 -0.1564 -0.7246
  833MOL0     C 9837   1.034   3.939   1.129 -0.6948  0.4706 -0.6381
  833MOL0     C 9838   0.891   3.988   1.145 -0.1091 -0.1218 -0.2259
  833MOL0     C 9839   0.784   3.881   1.133  0.1734 -0.0421 -0.6227
  833MOL0     C 9840   0.760   3.797   1.265 -0.1806 -0.0311 -0.7772
  833MOL0     N 9841   0.628   3.833   1.325 -0.4899  0.5079  0.1708
  833MOL0     C 9842   0.595   3.934   1.413  1.6317 -0.3693 -0.4746
  833MOL0     C 9843   0.457   3.924   1.431  0.2627 -0.5433 -0.3751
  833MOL0     C 9844   0.381   4.009   1.533 -0.2885 -0.8835  0.1802
  833MOL0     C 9845   0.233   3.981   1.543  0.2746  0.4278 -0.2243
  833MOL0     C 9846   0.174   4.096   1.620  0.0968  0.3166 -0.1068
  833MOL0     C 9847   0.022   4.088   1.636  0.2724 -0.3568 -0.0299
  833MOL0     O 9848  -0.007   4.005   1.749  0.6265 -0.6435 -0.2608
  833MOL0     C 9849  -0.141   3.979   1.794 -0.3080  0.3502 -0.1146
  833MOL0     C 9850  -0.250   4.044   1.739  0.9021  0.0180  0.5065
  833MOL0     C 9851  -0.385   4.019   1.773 -0.3253 -0.1156 -0.5549
  833MOL0     C 9852  -0.403   3.910   1.860 -0.0731 -0.1959  0.1610
  833MOL0     C 9853  -0.543   3.875   1.890 -0.8846 -0.0512  0.6649
  833MOL0     O 9854  -0.630   3.976   1.873  0.4559 -0.0923 -0.0728
  833MOL0     C 9855  -0.767   3.953   1.880  0.4818 -0.4634  0.2915
  833MOL0     C 9856  -0.834   3.868   1.975 -0.2037 -1.1923 -0.0327
  833MOL0     C 9857  -0.969   3.849   1.994  0.0598  0.5892  0.6927
  833MOL0     C 9858  -1.048   3.926   1.906  0.7270 -0.6123  0.3483
  833MOL0     O 9859  -1.184   3.923   1.926 -0.0137 -0.9927 -0.4979
  833MOL0     C 9860  -1.270   3.964   1.829  0.5337 -0.5116 -0.1807
  833MOL0     C 9861  -1.406   3.886   1.839  0.9417  0.2420  0.1821
  833MOL0     C 9862  -1.507   3.952   1.939  0.4356 -0.6963  0.7256
  833MOL0     C 9863  -1.648   3.896   1.926 -0.3389 -0.5102 -0.1778
  833MOL0     C 9864  -1.733   3.978   2.011  0.5437  0.5133  0.2298
  833MOL0     C 9865  -1.875   3.918   2.014  0.1156 -0.6123  0.7953
  833MOL0     C 9866  -1.971   3.982   2.114  0.0614  0.0810 -0.1538
  833MOL0     C 9867  -2.112   3.904   2.110 -0.2960  0.1545 -0.4116
  833MOL0    Cl 9868  -2.099   3.728   2.133  0.0381 -0.0044 -0.1597
  833MOL0     C 9869  -0.991   4.021   1.818  0.2324  0.3034 -0.0033
  833MOL0     C 9870  -0.850   4.037   1.800 -0.8377 -0.2123  0.4678
  833MOL0     O 9871  -0.565   3.765   1.935 -0.4022 -0.0163 -0.5858
  833MOL0     C 9872  -0.290   3.842   1.915  1.2372 -0.2349 -0.9766
  833MOL0     C 9873  -0.160   3.879   1.885  0.1045  0.1562 -0.8457
  833MOL0     N 9874   0.416   3.804   1.354 -0.6566 -1.0233 -1.0205
  833MOL0     N 9875   0.517   3.763   1.294  0.4095 -0.1068  0.5663
  833MOL0     C 9876   1.701   3.859   0.908 -0.1677  0.0991 -0.0776
  833MOL0     C 9877   1.837   3.896   0.888  0.8334  0.1307  0.9115
  833MOL0     C 9878   2.235   3.886   0.682 -0.5988 -0.5011  0.0197
  833MOL0     C 9879   2.288   4.018   0.694  0.1660  0.0106 -0.0693
  833MOL0     C 9880   2.420   4.039   0.664  0.0384  0.4228  0.5590
  833MOL0     C 9881   2.505   3.934   0.629 -0.9005 -0.6362 -0.3895
  833MOL0     O 9882   2.638   3.955   0.604  0.2407 -0.1906 -0.4644
  833MOL0     C 9883   2.718   3.998   0.712 -0.1085  0.2280 -0.4980
  833MOL0     C 9884   2.863   3.947   0.696  0.6775  0.1712  0.1652
  833MOL0     C 9885   2.965   4.011   0.798  0.6456 -0.1761  0.0547
  833MOL0     C 9886   3.102   3.950   0.801 -0.7743  0.1249 -0.5311
  833MOL0     C 9887   3.167   3.976   0.676 -0.0398 -0.3406  0.8561
  833MOL0     C 9888   3.212   3.997   0.565  0.0586 -0.7160  0.0576
  833MOL0     C 9889   2.451   3.809   0.604  1.2455 -0.2227 -0.6496
  833MOL0     C 9890   2.318   3.781   0.632 -0.0489  0.4616  0.1483
  833MOL0     H 9891   1.807   3.963   0.549  1.4050  0.1833  0.3655
  833MOL0     H 9892   1.573   3.911   0.598  1.0468 -3.1510 -1.7892
  833MOL0     H 9893   1.375   3.806   0.665  0.8423 -3.9327  1.6847
  833MOL0     H 9894   1.367   3.969   0.748  0.7724 -0.4650 -2.3408
  833MOL0     H 9895   1.220   3.716   0.822  2.7329 -0.6222  0.3143
  833MOL0     H 9896   1.153   3.852   0.748  1.9845  1.0888 -1.6445
  833MOL0     H 9897   1.269   3.976   0.954 -0.0681 -0.6485 -0.6651
  833MOL0     H 9898   1.269   3.813   1.030  0.4652 -1.3855 -1.0279
  833MOL0     H 9899   1.020   3.962   0.920  0.9886  1.6029  0.9478
  833MOL0     H 9900   1.011   3.796   0.950  0.7643 -0.1235 -1.1118
  833MOL0     H 9901   1.097   4.026   1.152  0.0000  0.8744 -3.6993
  833MOL0     H 9902   1.063   3.861   1.201 -0.3296  0.8327 -0.3864
  833MOL0     H 9903   0.870   4.071   1.078  0.2643 -0.4069 -0.7026
  833MOL0     H 9904   0.878   4.025   1.247  0.8130 -2.2231  0.7157
  833MOL0     H 9905   0.689   3.923   1.097  2.5976  3.0702 -4.1288
  833MOL0     H 9906   0.814   3.808   1.058  0.8234  0.9826 -1.3789
  833MOL0     H 9907   0.847   3.810   1.330 -0.8281  0.7077 -0.0371
  833MOL0     H 9908   0.752   3.689   1.247 -2.6551 -0.5821  2.5755
  833MOL0     H 9909   0.656   4.004   1.469 -0.0073 -0.2767  1.3016
  833MOL0     H 9910   0.385   4.111   1.494 -0.1033 -1.3870 -1.1700
  833MOL0     H 9911   0.432   4.000   1.629 -0.5752 -2.2015  0.2196
  833MOL0     H 9912   0.215   3.897   1.611 -1.3973  0.8772 -0.0717
  833MOL0     H 9913   0.190   3.956   1.445  0.2532 -2.0863  0.3359
  833MOL0     H 9914   0.216   4.105   1.721 -3.1690  1.5089  1.2872
  833MOL0     H 9915   0.191   4.189   1.566 -0.7696  0.9933  0.7497
  833MOL0     H 9916  -0.011   4.046   1.540 -2.1074  0.5318  0.3295
  833MOL0     H 9917  -0.017   4.189   1.652  0.6501  0.2439 -2.4533
  833MOL0     H 9918  -0.243   4.111   1.654 -0.0630 -2.2512 -1.4835
  833MOL0     H 9919  -0.468   4.071   1.726  0.6556  0.8671 -1.2494
  833MOL0     H 9920  -0.772   3.803   2.036  1.4129 -2.7032 -3.0666
  833MOL0     H 9921  -1.008   3.783   2.072  2.5308  1.1732  2.5264
  833MOL0     H 9922  -1.230   3.931   1.734  1.8811  2.5144 -0.7922
  833MOL0     H 9923  -1.287   4.071   1.813  0.3513 -0.3656  0.9169
  833MOL0     H 9924  -1.396   3.780   1.864 -2.1114  0.1760  1.6262
  833MOL0     H 9925  -1.452   3.870   1.741 -1.3457 -2.8675  1.5550
  833MOL0     H 9926  -1.514   4.060   1.923 -1.3199 -1.0385 -1.3123
  833MOL0     H 9927  -1.469   3.944   2.041  3.4576  0.2257 -0.2125
  833MOL0     H 9928  -1.682   3.903   1.822 -0.2681  0.5833 -0.1369
  833MOL0     H 9929  -1.658   3.791   1.953 -3.1156 -1.1169 -2.8950
  833MOL0     H 9930  -1.754   4.075   1.965 -1.2141 -0.5452 -1.3416
  833MOL0     H 9931  -1.696   3.988   2.113  0.9798  1.2222  0.0082
  833MOL0     H 9932  -1.868   3.811   2.036 -2.9046 -0.9872  0.3958
  833MOL0     H 9933  -1.915   3.931   1.913 -1.4388 -1.4908  1.2640
  833MOL0     H 9934  -1.924   3.975   2.213  0.2720 -1.0555 -0.3178
  833MOL0     H 9935  -1.966   4.089   2.093 -0.9223  0.1579 -0.0390
  833MOL0     H 9936  -2.157   3.906   2.010 -1.6889 -3.1856 -0.0029
  833MOL0     H 9937  -2.183   3.949   2.180 -0.7963 -1.7522  0.3592
  833MOL0     H 9938  -1.056   4.078   1.752  2.2048  2.1995 -0.4026
  833MOL0     H 9939  -0.815   4.112   1.731 -1.1917  1.0303  1.5990
  833MOL0     H 9940  -0.307   3.767   1.991  1.8235 -2.8844 -3.3066
  833MOL0     H 9941  -0.070   3.837   1.928  0.4683  2.0898  0.4089
  833MOL0     H 9942   1.670   3.817   1.003 -1.5642 -0.4039 -0.7283
  833MOL0     H 9943   1.916   3.910   0.961  0.5113 -0.6246  1.4065
  833MOL0     H 9944   2.231   4.102   0.731  1.8971  0.2943  2.1999
  833MOL0     H 9945   2.464   4.138   0.666 -1.6953  1.2281  2.5443
  833MOL0     H 9946   2.689   3.951   0.806  0.0280  2.3879  0.6761
  833MOL0     H 9947   2.698   4.105   0.724  1.5385  0.3732  1.5433
  833MOL0     H 9948   2.859   3.840   0.717  0.1738  0.2634  0.5439
  833MOL0     H 9949   2.886   3.972   0.592 -0.3241  1.9589  0.3357
  833MOL0     H 9950   2.922   4.008   0.899  0.7857  1.7677  0.2109
  833MOL0     H 9951   2.963   4.118   0.776 -0.3900 -0.0892  0.4858
  833MOL0     H 9952   3.162   3.993   0.882 -1.5444  0.7067 -0.2580
  833MOL0     H 9953   3.098   3.842   0.817  3.8679  0.1030  2.5992
  833MOL0     H 9954   3.243   4.013   0.463  1.8251  3.6426  1.0370
  833MOL0     H 9955   2.523   3.737   0.566  0.4902 -0.3077 -1.9970
  833MOL0     H 9956   2.278   3.680   0.622  2.2753 -1.0867  4.2025
  834MOL0     O 9957   6.859   9.707   5.144  0.3211  0.7967  0.7643
  834MOL0     C 9958   6.906   9.821   5.151 -0.5789 -0.0516 -1.2029
  834MOL0     O 9959   6.953   9.892   5.050  0.1939 -0.6361  0.1514
  834MOL0     C 9960   6.898   9.875   4.921  0.2881 -0.1990  0.2435
  834MOL0     C 9961   6.975   9.893   4.808  0.8692 -0.4371 -0.3011
  834MOL0     C 9962   6.929   9.881   4.681  0.4798  0.1904  0.5919
  834MOL0     C 9963   6.804   9.845   4.650 -0.0236  0.1438 -0.1735
  834MOL0     O 9964   6.772   9.837   4.517 -0.0162 -0.0943  0.0895
  834MOL0     C 9965   6.636   9.853   4.474  0.4478  0.2299 -1.1412
  834MOL0     C 9966   6.551   9.720   4.483  0.5416 -0.1576 -0.4682
  834MOL0     C 9967   6.400   9.757   4.446 -0.4640  0.5537 -0.2016
  834MOL0     C 9968   6.383   9.813   4.299 -0.1183 -0.0507  0.4335
  834MOL0     C 9969   6.238   9.855   4.254 -0.2054 -0.2729  1.0604
  834MOL0     C 9970   6.148   9.734   4.251  0.3325  0.0266 -0.0065
  834MOL0     C 9971   6.165   9.639   4.126  0.3719 -0.4397 -0.3942
  834MOL0     C 9972   6.194   9.499   4.175 -0.3670  0.4431 -0.9360
  834MOL0     N 9973   6.195   9.405   4.066 -0.9478  0.9428 -0.9071
  834MOL0     C 9974   6.073   9.368   4.020  0.1119  0.3756 -0.4726
  834MOL0     C 9975   6.102   9.315   3.894 -0.5447  0.4574  0.6041
  834MOL0     C 9976   6.011   9.262   3.789 -0.0062  0.7740  1.1299
  834MOL0     C 9977   6.023   9.362   3.669  0.1257  0.6655  0.7787
  834MOL0     C 9978   5.937   9.326   3.546 -0.8223  1.1528 -1.2687
  834MOL0     C 9979   5.977   9.401   3.424 -0.5996 -0.2305  0.3714
  834MOL0     O 9980   5.985   9.541   3.452 -0.0023  0.1619  0.3296
  834MOL0     C 9981   5.874   9.617   3.453  0.2497  0.5846  0.5980
  834MOL0     C 9982   5.746   9.573   3.437 -0.1723  1.5090  0.4646
  834MOL0     C 9983   5.638   9.652   3.469  0.8096 -0.8101 -0.5855
  834MOL0     C 9984   5.657   9.787   3.491 -0.0345  0.3609 -0.5093
  834MOL0     C 9985   5.542   9.878   3.513 -0.2325  1.1355  1.0245
  834MOL0     O 9986   5.428   9.846   3.452 -0.0929 -0.1882 -0.3414
  834MOL0     C 9987   5.323   9.918   3.495  0.0806  0.0943 -0.2280
  834MOL0     C 9988   5.299  10.024   3.414  0.1478  0.2949  0.1077
  834MOL0     C 9989   5.188  10.101   3.437 -0.7666 -0.7526 -0.5253
  834MOL0     C 9990   5.115  10.079   3.556  0.5283 -0.2485  0.6431
  834MOL0     O 9991   5.011  10.155   3.598  0.9074 -0.4222 -1.1370
  834MOL0     C 9992   4.964  10.248   3.503  0.0908 -0.3465  0.4229
  834MOL0     C 9993   4.827  10.314   3.546  0.1992 -0.3460 -0.8354
  834MOL0     C 9994   4.715  10.219   3.534 -0.2171  0.5614 -0.3753
  834MOL0     C 9995   4.648  10.208   3.401  0.1321  0.9090 -0.2387
  834MOL0     C 9996   4.531  10.102   3.392 -0.8674 -1.3100 -0.4128
  834MOL0     C 9997   4.411  10.150   3.473 -0.0394  0.1366 -0.1609
  834MOL0     C 9998   4.302  10.036   3.464 -0.7395 -0.0418 -1.0490
  834MOL0     C 9999   4.183  10.063   3.380 -0.1079  0.8649  0.0322
  834MOL0    Cl10000   4.237  10.114   3.214  0.1568 -0.4274  0.0823
  834MOL0     C10001   5.134   9.967   3.630  0.5439  0.2098  0.4415
  834MOL0     C10002   5.243   9.885   3.604  0.0387  0.5290  0.0985
  834MOL0     O10003   5.563   9.981   3.567  0.2145 -0.6571  0.6793
  834MOL0     C10004   5.784   9.836   3.494 -0.3741  0.1763  0.1376
  834MOL0     C10005   5.894   9.753   3.489  0.1470 -0.4973  0.9524
  834MOL0     N10006   6.237   9.321   3.880 -0.6186  0.0039  0.3659
  834MOL0     N10007   6.292   9.374   3.974  0.2526  0.6375 -0.5992
  834MOL0     C10008   6.718   9.826   4.758  0.0596 -0.2922  0.8292
  834MOL0     C10009   6.764   9.840   4.894  0.2986  0.8182 -0.5401
  834MOL0     C10010   6.903   9.872   5.294 -0.8283  0.4575 -1.0292
  834MOL0     C10011   6.854   9.791   5.400 -0.7304 -0.0931  0.1877
  834MOL0     C10012   6.835   9.848   5.525  0.0890  0.6478 -0.6381
  834MOL0     C10013   6.889   9.968   5.567  0.6853 -0.2397 -0.3588
  834MOL0     O10014   6.851  10.010   5.695  0.7268 -0.0405 -0.1497
  834MOL0     C10015   6.866  10.143   5.741  1.0639 -0.5659 -0.1586
  834MOL0     C10016   6.904  10.136   5.894 -0.3061  0.2831  0.9691
  834MOL0     C10017   6.958  10.264   5.949 -0.7452  0.3380  0.0261
  834MOL0     C10018   6.855  10.377   5.946 -0.0382  0.2761 -0.8143
  834MOL0     C10019   6.922  10.503   5.978  0.5747 -1.2287  0.1285
  834MOL0     C10020   6.972  10.606   6.019 -0.8076 -0.5210  0.5037
  834MOL0     C10021   6.966  10.041   5.470  0.7366 -0.0845 -0.1438
  834MOL0     C10022   6.962   9.991   5.334  0.1948  0.5035  0.3249
  834MOL0     H10023   7.080   9.909   4.831  1.3225 -1.6623 -1.3923
  834MOL0     H10024   7.007   9.886   4.605  1.0024 -0.9436  1.0263
  834MOL0     H10025   6.645   9.874   4.367 -1.1936 -1.6325 -1.7082
  834MOL0     H10026   6.584   9.922   4.541 -2.0647 -1.1336 -1.5719
  834MOL0     H10027   6.568   9.681   4.583  2.1413  0.5844 -0.4003
  834MOL0     H10028   6.580   9.650   4.404  0.5060 -1.3074  0.5104
  834MOL0     H10029   6.357   9.826   4.520 -2.4772  1.3087 -1.9623
  834MOL0     H10030   6.359   9.656   4.443  2.7345 -0.9010  0.4774
  834MOL0     H10031   6.457   9.893   4.289  0.6067 -0.8521 -0.8204
  834MOL0     H10032   6.412   9.732   4.231  2.6907  1.4811 -0.3613
  834MOL0     H10033   6.247   9.897   4.153  2.3635  1.4281  1.8892
  834MOL0     H10034   6.192   9.927   4.321  0.0627  0.5099  0.4136
  834MOL0     H10035   6.046   9.773   4.252  0.8118  1.4837 -1.9073
  834MOL0     H10036   6.162   9.677   4.343 -0.5795 -0.2990 -0.0542
  834MOL0     H10037   6.077   9.642   4.062 -0.3806 -1.2476  0.5591
  834MOL0     H10038   6.244   9.679   4.062 -1.4216  2.4800 -0.9708
  834MOL0     H10039   6.117   9.475   4.250  1.1852 -1.5354  0.1205
  834MOL0     H10040   6.279   9.497   4.244 -0.5160  3.6109 -0.5015
  834MOL0     H10041   5.979   9.374   4.075 -0.4664 -1.4563 -1.1871
  834MOL0     H10042   5.909   9.258   3.829  0.4128 -0.3734  2.1315
  834MOL0     H10043   6.045   9.161   3.768 -2.8622  0.2295 -1.6183
  834MOL0     H10044   6.127   9.348   3.638 -0.3919 -3.6758  0.3118
  834MOL0     H10045   5.996   9.462   3.702 -3.8417 -0.5266  1.6893
  834MOL0     H10046   5.935   9.217   3.538 -1.2473  0.9927  0.5486
  834MOL0     H10047   5.836   9.352   3.578  0.8277  2.4896  4.0292
  834MOL0     H10048   5.916   9.382   3.335  2.0311  0.3348 -1.6709
  834MOL0     H10049   6.069   9.350   3.396 -0.2717 -0.0639  1.1122
  834MOL0     H10050   5.723   9.469   3.418  1.4332  0.5772  3.1785
  834MOL0     H10051   5.535   9.621   3.455  0.5057 -0.1814  0.1715
  834MOL0     H10052   5.351  10.047   3.322 -0.9630 -0.4417 -0.7416
  834MOL0     H10053   5.178  10.189   3.375 -0.9872  0.1041  0.6852
  834MOL0     H10054   4.947  10.187   3.414  1.0998 -2.0384  1.3379
  834MOL0     H10055   5.038  10.327   3.483 -0.9417  0.2598 -1.1477
  834MOL0     H10056   4.801  10.403   3.487 -0.1342  1.5701  1.9952
  834MOL0     H10057   4.834  10.330   3.654 -1.6555 -1.9428 -0.4210
  834MOL0     H10058   4.643  10.237   3.615 -0.5007 -0.5158 -0.3830
  834MOL0     H10059   4.747  10.118   3.558  2.0343  1.1214 -0.7900
  834MOL0     H10060   4.593  10.295   3.364 -2.9651 -0.7068  0.2306
  834MOL0     H10061   4.721  10.186   3.322 -1.0233 -1.3676 -0.7750
  834MOL0     H10062   4.564  10.004   3.428  1.2552 -0.8807 -1.0361
  834MOL0     H10063   4.509  10.102   3.285  0.1305 -0.3169 -0.6301
  834MOL0     H10064   4.380  10.248   3.434  0.8512  0.5551  0.1543
  834MOL0     H10065   4.433  10.166   3.579  3.6876  0.3029 -0.8231
  834MOL0     H10066   4.362   9.947   3.448 -0.1976 -0.3107  1.8398
  834MOL0     H10067   4.272  10.008   3.566  1.8166  1.7430  0.3297
  834MOL0     H10068   4.117  10.137   3.425 -0.0613  0.1380  1.3425
  834MOL0     H10069   4.127   9.970   3.369  0.8079  0.4610 -1.5597
  834MOL0     H10070   5.079   9.934   3.718 -0.2660  3.3971  1.2449
  834MOL0     H10071   5.268   9.800   3.667 -0.2697 -0.2302 -0.7803
  834MOL0     H10072   5.802   9.942   3.510 -2.4001  0.6296 -0.3282
  834MOL0     H10073   5.994   9.791   3.509  0.0930  0.5778 -0.6360
  834MOL0     H10074   6.614   9.809   4.732 -0.3300  0.9280  1.5171
  834MOL0     H10075   6.696   9.816   4.975  1.6435 -1.1438  0.0937
  834MOL0     H10076   6.821   9.689   5.381  1.3515 -0.8479  0.4504
  834MOL0     H10077   6.797   9.782   5.601  2.4475  0.4604  0.4663
  834MOL0     H10078   6.770  10.194   5.735  1.9368  1.0820 -0.7122
  834MOL0     H10079   6.939  10.204   5.687 -0.2424  1.9533  0.7691
  834MOL0     H10080   6.814  10.099   5.945 -3.0103  1.1176 -2.7135
  834MOL0     H10081   6.980  10.060   5.912 -2.6964 -2.3505  0.7079
  834MOL0     H10082   7.047  10.283   5.888 -0.0884 -1.9261  0.2080
  834MOL0     H10083   7.001  10.249   6.048 -0.7377 -2.6483 -0.3543
  834MOL0     H10084   6.818  10.388   5.843 -1.2230  0.4050 -0.3839
  834MOL0     H10085   6.763  10.348   5.996  0.7053 -1.2675 -0.2695
  834MOL0     H10086   7.008  10.693   6.070  3.3250 -2.4904  1.3509
  834MOL0     H10087   7.011  10.137   5.495  0.2846 -0.1008  0.7952
  834MOL0     H10088   6.993  10.060   5.256  0.5607 -1.4063 -1.2961
  835MOL0     O10089   5.415   6.798   5.798  0.0437  0.4515 -0.3110
  835MOL0     C10090   5.478   6.696   5.757  0.4659 -0.0645  0.7067
  835MOL0     O10091   5.429   6.575   5.722 -0.0053  0.7183 -0.5072
  835MOL0     C10092   5.311   6.519   5.775  0.4127 -0.2691  0.4992
  835MOL0     C10093   5.195   6.509   5.693  1.0672 -0.4919  0.0825
  835MOL0     C10094   5.071   6.483   5.744  0.3055 -0.4755  0.0567
  835MOL0     C10095   5.056   6.456   5.877 -0.0698 -0.0010 -0.2223
  835MOL0     O10096   4.936   6.398   5.918 -0.1059  0.7115  0.3667
  835MOL0     C10097   4.927   6.348   6.050 -0.0403  1.0828 -0.1784
  835MOL0     C10098   4.778   6.318   6.064 -0.5869  0.3098  0.4612
  835MOL0     C10099   4.722   6.289   6.199  0.7088  0.2710 -0.1355
  835MOL0     C10100   4.574   6.260   6.196 -0.8023 -0.5943  0.1118
  835MOL0     C10101   4.530   6.216   6.339  0.2161  0.2597  0.1132
  835MOL0     C10102   4.389   6.162   6.345 -0.9637  0.7458 -0.3968
  835MOL0     C10103   4.270   6.258   6.369  0.5159 -0.1243  1.1275
  835MOL0     C10104   4.259   6.316   6.513 -0.3194  0.1016  0.3722
  835MOL0     N10105   4.117   6.351   6.541  0.1680 -0.0554  0.1679
  835MOL0     C10106   4.016   6.251   6.532  0.5023 -0.2417 -0.2924
  835MOL0     C10107   3.904   6.326   6.558  0.2647  0.2442 -0.3668
  835MOL0     C10108   3.765   6.278   6.544 -0.6416  0.2147 -0.0460
  835MOL0     C10109   3.697   6.266   6.680  1.1519 -0.3003 -0.5068
  835MOL0     C10110   3.546   6.212   6.668  0.2800 -0.1399 -0.2075
  835MOL0     C10111   3.562   6.058   6.634  1.4842 -0.5740  0.4970
  835MOL0     O10112   3.464   6.019   6.535  0.4585  1.1536  0.0429
  835MOL0     C10113   3.335   5.982   6.586 -0.3112 -1.2055 -0.3750
  835MOL0     C10114   3.293   5.980   6.720  0.1827  0.1063 -0.0769
  835MOL0     C10115   3.165   5.941   6.763 -0.3696 -0.0098  0.3509
  835MOL0     C10116   3.069   5.921   6.671  0.2417  0.8079  0.8234
  835MOL0     C10117   2.929   5.889   6.706  0.6758  0.0552 -0.0862
  835MOL0     O10118   2.894   5.932   6.834  0.1200  0.0413  0.1528
  835MOL0     C10119   2.765   5.906   6.867 -0.1325  0.3036 -0.5352
  835MOL0     C10120   2.672   6.009   6.866  1.5751  0.4642 -1.3902
  835MOL0     C10121   2.537   5.978   6.891  0.6321  0.7384  0.0791
  835MOL0     C10122   2.498   5.842   6.903 -0.1871  0.6485 -0.5721
  835MOL0     O10123   2.369   5.808   6.920 -0.0119 -0.1376  0.1874
  835MOL0     C10124   2.301   5.810   6.798  0.7310  0.0187  0.1607
  835MOL0     C10125   2.147   5.810   6.813  0.3589 -0.3781 -0.2010
  835MOL0     C10126   2.095   5.957   6.851  0.9492 -0.2499  0.2239
  835MOL0     C10127   1.938   5.967   6.858 -0.4347 -0.2235 -0.6970
  835MOL0     C10128   1.857   5.863   6.942  0.2818  0.0268 -0.1965
  835MOL0     C10129   1.713   5.918   6.950 -0.1978 -0.6698 -0.1086
  835MOL0     C10130   1.606   5.823   7.008 -0.5788  0.1323  0.1918
  835MOL0     C10131   1.478   5.906   7.033 -0.5526  0.2246 -0.0008
  835MOL0    Cl10132   1.344   5.813   7.111  0.3136 -0.0592 -0.2476
  835MOL0     C10133   2.594   5.742   6.910  0.7356  0.4545  0.4498
  835MOL0     C10134   2.727   5.776   6.891 -0.1032  0.5689 -0.4843
  835MOL0     O10135   2.854   5.850   6.613 -0.7397  0.4393  0.4096
  835MOL0     C10136   3.106   5.934   6.538 -1.2788 -0.6085  1.2492
  835MOL0     C10137   3.232   5.966   6.493  0.1235  0.5147 -0.3894
  835MOL0     N10138   3.938   6.450   6.597 -0.4241  0.0703  0.4669
  835MOL0     N10139   4.064   6.467   6.590 -0.4559  0.3920 -0.1848
  835MOL0     C10140   5.167   6.454   5.961  0.0266 -0.4886  0.0848
  835MOL0     C10141   5.295   6.481   5.904 -0.1962 -0.3549 -0.0302
  835MOL0     C10142   5.629   6.714   5.723  0.1187  0.5342 -0.5427
  835MOL0     C10143   5.707   6.603   5.718 -0.2621 -0.2321  0.0738
  835MOL0     C10144   5.846   6.614   5.711  0.4836  0.2060  0.0348
  835MOL0     C10145   5.908   6.738   5.701 -0.0777 -0.2285 -0.5686
  835MOL0     O10146   6.044   6.745   5.706 -0.1615  0.7943  0.0577
  835MOL0     C10147   6.109   6.868   5.746  0.6921 -0.7491 -0.3588
  835MOL0     C10148   6.257   6.856   5.795  0.6550  0.0862 -0.0651
  835MOL0     C10149   6.319   6.995   5.794  0.1622  0.4111 -0.4852
  835MOL0     C10150   6.446   7.008   5.873  0.1635 -0.0098  0.6848
  835MOL0     C10151   6.556   6.933   5.799  0.1825 -0.8717 -0.3850
  835MOL0     C10152   6.643   6.860   5.768 -0.5365 -0.1103 -0.6496
  835MOL0     C10153   5.824   6.857   5.706  0.1813 -0.0530  0.5789
  835MOL0     C10154   5.691   6.838   5.721 -0.3604 -0.2221  0.7482
  835MOL0     H10155   5.200   6.551   5.594  1.4248  1.3017  0.8170
  835MOL0     H10156   4.986   6.459   5.680  1.2326 -0.5396 -1.1975
  835MOL0     H10157   4.948   6.432   6.117  1.7006  0.3242  0.3133
  835MOL0     H10158   4.998   6.267   6.072 -0.0393  1.4257  1.1930
  835MOL0     H10159   4.771   6.230   5.999  0.3605 -1.3817  2.5321
  835MOL0     H10160   4.713   6.395   6.020 -0.7544  0.9501  1.7807
  835MOL0     H10161   4.732   6.377   6.264 -2.2628  1.2342 -0.8199
  835MOL0     H10162   4.784   6.208   6.238  1.0359  1.2070  1.3902
  835MOL0     H10163   4.508   6.341   6.165  0.5544  1.3515  2.0316
  835MOL0     H10164   4.575   6.181   6.120  0.4645 -0.5133  0.0244
  835MOL0     H10165   4.554   6.298   6.406 -1.7165  0.4174  0.6918
  835MOL0     H10166   4.606   6.145   6.371  1.9110  1.6704 -0.6277
  835MOL0     H10167   4.392   6.095   6.432 -2.7880  0.3272 -0.6160
  835MOL0     H10168   4.378   6.100   6.256  1.0518 -2.7436  1.5416
  835MOL0     H10169   4.288   6.347   6.307  0.6090  0.8126  2.4474
  835MOL0     H10170   4.179   6.211   6.333  2.0959 -3.4146  1.0801
  835MOL0     H10171   4.327   6.402   6.512 -0.6629  0.3713  0.1392
  835MOL0     H10172   4.300   6.241   6.581  1.4532  1.5385  0.9868
  835MOL0     H10173   4.030   6.149   6.497  0.6771 -0.0003 -0.9503
  835MOL0     H10174   3.759   6.179   6.498  1.6127 -0.0954  0.2137
  835MOL0     H10175   3.715   6.353   6.482  0.9081  1.3600  0.0293
  835MOL0     H10176   3.700   6.370   6.715 -1.4010  0.3078 -1.8820
  835MOL0     H10177   3.760   6.200   6.742 -0.6056 -0.3744  1.3144
  835MOL0     H10178   3.510   6.221   6.771  0.9800  0.3274  0.0073
  835MOL0     H10179   3.467   6.262   6.611 -2.8062 -3.4019  0.8182
  835MOL0     H10180   3.546   5.992   6.720 -0.2431 -2.2197 -0.9841
  835MOL0     H10181   3.662   6.034   6.595  1.9336  0.6165  0.9032
  835MOL0     H10182   3.357   6.005   6.804 -0.5272 -0.6206  0.6977
  835MOL0     H10183   3.140   5.937   6.868 -0.1730  1.2422  0.4618
  835MOL0     H10184   2.699   6.113   6.854 -1.4495  1.4247 -0.6826
  835MOL0     H10185   2.462   6.057   6.891 -0.6032 -0.3780  0.9776
  835MOL0     H10186   2.318   5.726   6.730 -1.6211  0.7215 -1.4081
  835MOL0     H10187   2.334   5.895   6.738 -0.3353 -0.5050 -1.2023
  835MOL0     H10188   2.110   5.733   6.882  1.8360 -1.2784 -0.3476
  835MOL0     H10189   2.107   5.767   6.721 -1.6019 -4.2136  2.1943
  835MOL0     H10190   2.125   6.029   6.774 -0.0534 -1.7105 -1.6235
  835MOL0     H10191   2.143   5.982   6.946 -0.0811 -1.6684  1.1632
  835MOL0     H10192   1.926   6.063   6.908  1.2018 -2.0622  3.6839
  835MOL0     H10193   1.892   5.964   6.758  1.0237  0.0235 -1.4104
  835MOL0     H10194   1.909   5.852   7.038 -1.9873  0.2911  1.1300
  835MOL0     H10195   1.860   5.774   6.878  1.7597 -0.9145  1.0943
  835MOL0     H10196   1.687   5.939   6.846 -1.3158 -1.3828  0.0187
  835MOL0     H10197   1.705   6.011   7.007  0.8806  0.2088 -1.3175
  835MOL0     H10198   1.587   5.746   6.933  0.7675 -0.3006  0.2538
  835MOL0     H10199   1.656   5.781   7.096  1.3323  1.8874  0.0324
  835MOL0     H10200   1.447   5.951   6.938  3.0863  2.4883 -0.3494
  835MOL0     H10201   1.500   5.997   7.089 -1.4701  0.3511  0.1589
  835MOL0     H10202   2.571   5.637   6.927  0.4891  0.5517  0.7428
  835MOL0     H10203   2.801   5.699   6.874  0.4435  0.7158  1.0613
  835MOL0     H10204   3.039   5.925   6.453  3.3927 -2.3923 -2.7597
  835MOL0     H10205   3.242   5.993   6.388 -1.0977  0.4400 -0.5325
  835MOL0     H10206   5.159   6.418   6.063  0.8022  0.3916  0.4729
  835MOL0     H10207   5.379   6.482   5.974  1.6315  2.1013 -2.0620
  835MOL0     H10208   5.661   6.504   5.716  2.3741 -1.5722  0.8160
  835MOL0     H10209   5.899   6.520   5.702  1.4460  0.6693  0.6872
  835MOL0     H10210   6.055   6.917   5.827  0.1886 -1.7701 -0.0473
  835MOL0     H10211   6.109   6.935   5.660  1.6393  0.4686  0.5578
  835MOL0     H10212   6.263   6.834   5.902 -1.2319  2.6640  0.6784
  835MOL0     H10213   6.301   6.779   5.732  1.2093 -2.0950  2.7482
  835MOL0     H10214   6.240   7.055   5.840  1.5916  1.0759  1.2095
  835MOL0     H10215   6.347   7.021   5.692  1.0302 -1.3462 -0.7510
  835MOL0     H10216   6.467   7.115   5.887 -0.6403  0.1155  0.9783
  835MOL0     H10217   6.427   6.982   5.977  1.1648  1.1089  1.1823
  835MOL0     H10218   6.717   6.789   5.737 -1.9311 -1.2259 -1.5686
  835MOL0     H10219   5.856   6.959   5.688  0.6474 -0.5637 -1.9379
  835MOL0     H10220   5.626   6.925   5.731  2.6909  2.0741  2.0333
  836MOL0     O10221   6.845   3.081   1.252  0.0775 -0.3176  0.2412
  836MOL0     C10222   6.908   2.975   1.270  0.4029  0.4979  0.3198
  836MOL0     O10223   6.953   2.930   1.389 -0.2760 -0.1673 -0.0174
  836MOL0     C10224   6.976   3.012   1.495 -0.0124 -0.4250  0.4106
  836MOL0     C10225   6.947   2.969   1.622  0.4713 -0.5234  0.0265
  836MOL0     C10226   6.981   3.045   1.733 -1.2465 -0.0610 -0.7859
  836MOL0     C10227   7.057   3.161   1.723  0.9323  0.1866  0.0791
  836MOL0     O10228   7.085   3.241   1.831 -0.0557  1.0401 -0.8208
  836MOL0     C10229   7.148   3.182   1.941  0.1092 -0.5405 -0.3357
  836MOL0     C10230   7.134   3.274   2.060  0.4739 -0.2336  0.1130
  836MOL0     C10231   7.203   3.224   2.186 -0.6604  0.1597  0.2278
  836MOL0     C10232   7.358   3.238   2.177  0.1778 -0.8431 -0.3276
  836MOL0     C10233   7.415   3.151   2.293 -0.1056 -0.0193  0.5268
  836MOL0     C10234   7.485   3.024   2.251 -0.1396 -0.5755 -0.4385
  836MOL0     C10235   7.560   2.966   2.375 -0.4539  1.0148 -0.6860
  836MOL0     C10236   7.638   2.848   2.318  0.4450  0.0612  0.7679
  836MOL0     N10237   7.690   2.765   2.432 -1.1769  0.0257  0.3976
  836MOL0     C10238   7.800   2.792   2.512 -0.4357 -0.4455 -0.2739
  836MOL0     C10239   7.821   2.684   2.593  0.5059  0.0356 -0.1059
  836MOL0     C10240   7.917   2.677   2.711  0.7972  1.2851  0.7091
  836MOL0     C10241   8.068   2.654   2.669 -0.7475  1.1836  0.3259
  836MOL0     C10242   8.165   2.676   2.787  0.2230  0.4555  0.7793
  836MOL0     C10243   8.192   2.826   2.801  0.3774  0.2025 -1.4662
  836MOL0     O10244   8.235   2.839   2.944  0.4791 -1.0082  0.2007
  836MOL0     C10245   8.306   2.953   2.970 -0.1595 -0.3813  0.0432
  836MOL0     C10246   8.388   2.940   3.079  1.0782  0.6200 -0.9826
  836MOL0     C10247   8.487   3.030   3.108 -0.2977  0.8756  0.3337
  836MOL0     C10248   8.513   3.135   3.028  1.1953 -0.4157 -0.3011
  836MOL0     C10249   8.627   3.220   3.057 -0.3591  0.1311  0.8154
  836MOL0     O10250   8.724   3.170   3.132 -0.3014 -0.1332 -0.0603
  836MOL0     C10251   8.838   3.233   3.161  0.1447  0.3509 -0.1619
  836MOL0     C10252   8.884   3.357   3.113 -1.2160 -0.1940  0.5872
  836MOL0     C10253   9.019   3.384   3.133 -0.3410  0.3607 -0.3094
  836MOL0     C10254   9.103   3.298   3.211 -1.0563  0.5055  0.1435
  836MOL0     O10255   9.239   3.321   3.233  0.3402 -0.3019  0.9677
  836MOL0     C10256   9.302   3.418   3.144 -0.7233  0.4708 -0.1399
  836MOL0     C10257   9.449   3.384   3.155 -0.5228 -0.2005  0.5175
  836MOL0     C10258   9.535   3.494   3.081  0.3428 -0.2082 -0.3417
  836MOL0     C10259   9.684   3.493   3.120  0.1350  0.6271  1.0055
  836MOL0     C10260   9.744   3.634   3.089 -0.0255 -0.3015 -0.4548
  836MOL0     C10261   9.899   3.631   3.091 -0.1917 -0.0263 -0.6290
  836MOL0     C10262   9.937   3.636   3.234 -0.0934  0.8519 -0.3712
  836MOL0     C10263  10.089   3.669   3.250  0.7571 -0.5708  0.0812
  836MOL0    Cl10264  10.172   3.513   3.243  0.3322 -0.0833  0.2560
  836MOL0     C10265   9.063   3.177   3.266 -0.2075 -0.8428 -0.8353
  836MOL0     C10266   8.931   3.149   3.228  0.1807 -1.2806 -0.2876
  836MOL0     O10267   8.632   3.326   2.991  0.2869 -0.5314 -0.2776
  836MOL0     C10268   8.426   3.155   2.922  1.0157 -0.0128 -1.1096
  836MOL0     C10269   8.328   3.062   2.882 -0.2055 -0.6245 -0.4241
  836MOL0     N10270   7.715   2.599   2.571  0.2161 -0.1281  0.5138
  836MOL0     N10271   7.642   2.652   2.476  0.3050  0.3289  0.4827
  836MOL0     C10272   7.088   3.206   1.595 -0.2866 -0.5741 -1.2755
  836MOL0     C10273   7.047   3.139   1.479 -0.2560 -0.1363  0.8471
  836MOL0     C10274   6.920   2.879   1.146 -1.1240  0.2400 -0.5852
  836MOL0     C10275   6.969   2.751   1.185 -0.5163  0.0689  0.3269
  836MOL0     C10276   7.002   2.668   1.081 -0.0965 -0.0369 -1.0365
  836MOL0     C10277   6.995   2.709   0.945 -0.2318  0.7553  0.3169
  836MOL0     O10278   7.032   2.631   0.835 -0.2177 -0.2002  0.6934
  836MOL0     C10279   7.082   2.497   0.848  0.2166  0.0888  0.2535
  836MOL0     C10280   7.092   2.410   0.723 -0.2650  0.3162 -0.2763
  836MOL0     C10281   7.131   2.260   0.750 -0.2952  0.3831  0.0150
  836MOL0     C10282   7.272   2.262   0.818 -0.1254 -0.3720  0.4623
  836MOL0     C10283   7.304   2.127   0.817  0.4244  0.4934  0.3238
  836MOL0     C10284   7.322   2.009   0.828  0.3803 -0.5305 -0.2822
  836MOL0     C10285   6.949   2.835   0.911  0.6550  0.0919 -0.3566
  836MOL0     C10286   6.898   2.916   1.013  0.3377  0.4399  0.6328
  836MOL0     H10287   6.887   2.879   1.637 -0.6275  0.5050  2.1695
  836MOL0     H10288   6.945   3.017   1.831  0.5366  0.7528  0.1516
  836MOL0     H10289   7.253   3.178   1.909  0.4520  1.1307  0.4606
  836MOL0     H10290   7.119   3.079   1.965  1.1114 -1.1530 -1.6204
  836MOL0     H10291   7.027   3.274   2.080  0.8194 -1.0767  2.2113
  836MOL0     H10292   7.153   3.379   2.035 -0.7021  0.4044  1.6962
  836MOL0     H10293   7.187   3.117   2.173  0.4244  0.1545 -1.2785
  836MOL0     H10294   7.163   3.262   2.281 -0.2401  3.6819 -0.8650
  836MOL0     H10295   7.387   3.202   2.077 -0.7987  0.8778 -1.2744
  836MOL0     H10296   7.395   3.340   2.191 -0.2240 -0.9967  2.3182
  836MOL0     H10297   7.341   3.121   2.367 -0.8807 -0.1947 -0.3073
  836MOL0     H10298   7.485   3.218   2.344 -1.2053  1.1108  0.6042
  836MOL0     H10299   7.559   3.048   2.173 -0.4551  1.9241 -0.0587
  836MOL0     H10300   7.408   2.955   2.215 -0.2513 -1.4876  1.4278
  836MOL0     H10301   7.621   3.045   2.419 -1.2581  2.1676 -1.5631
  836MOL0     H10302   7.487   2.942   2.454 -0.1188  2.0279 -0.0501
  836MOL0     H10303   7.721   2.862   2.248 -0.9937 -2.5358 -1.6650
  836MOL0     H10304   7.567   2.786   2.262  2.4336 -3.3594  1.7394
  836MOL0     H10305   7.866   2.879   2.519 -0.2468 -0.6736  0.9378
  836MOL0     H10306   7.886   2.599   2.780  1.1307  0.8880  0.4196
  836MOL0     H10307   7.909   2.770   2.768 -0.8328  0.8226  1.2690
  836MOL0     H10308   8.083   2.699   2.571 -0.9329 -2.4526 -1.5604
  836MOL0     H10309   8.073   2.547   2.645 -0.0779 -0.1482  5.2291
  836MOL0     H10310   8.129   2.627   2.878 -1.3047  1.6303  0.8457
  836MOL0     H10311   8.257   2.622   2.762 -0.0583  0.5540 -0.5771
  836MOL0     H10312   8.101   2.885   2.783 -0.1094 -0.1283 -0.2419
  836MOL0     H10313   8.263   2.855   2.723 -0.1009  1.3394 -1.4995
  836MOL0     H10314   8.370   2.858   3.148  1.5931  3.6115  3.0756
  836MOL0     H10315   8.545   3.009   3.197  1.4391 -1.3230 -1.1895
  836MOL0     H10316   8.824   3.430   3.060 -3.3963 -0.0426  3.0266
  836MOL0     H10317   9.061   3.483   3.114 -0.5856  0.5817  0.2689
  836MOL0     H10318   9.277   3.516   3.187  0.2086 -0.1231  1.8646
  836MOL0     H10319   9.267   3.408   3.040  0.0722 -1.2562 -0.2738
  836MOL0     H10320   9.464   3.287   3.108 -2.4776 -1.3655  2.1284
  836MOL0     H10321   9.476   3.375   3.261 -1.7205 -1.5002  0.7478
  836MOL0     H10322   9.494   3.592   3.107  0.8673  0.0276 -0.3797
  836MOL0     H10323   9.533   3.479   2.973 -1.0361 -0.2094 -0.3374
  836MOL0     H10324   9.689   3.477   3.228  4.0554 -2.3602  0.5887
  836MOL0     H10325   9.737   3.417   3.062 -1.0039  0.8020 -0.3173
  836MOL0     H10326   9.699   3.708   3.155  2.0619  0.7042 -0.0757
  836MOL0     H10327   9.721   3.666   2.987 -0.9134  0.6568  0.0384
  836MOL0     H10328   9.932   3.724   3.044  0.6082 -1.4187 -2.9712
  836MOL0     H10329   9.947   3.544   3.044  0.2468 -0.8389  1.2483
  836MOL0     H10330   9.879   3.713   3.286  1.7179  0.2458  2.7891
  836MOL0     H10331   9.908   3.542   3.282  2.0887  0.7033  0.7634
  836MOL0     H10332  10.111   3.724   3.342 -2.3641  1.0930 -0.0285
  836MOL0     H10333  10.107   3.716   3.153 -0.3918  0.3314  0.2819
  836MOL0     H10334   9.123   3.107   3.323 -0.3405 -1.4517 -1.4230
  836MOL0     H10335   8.904   3.047   3.255  2.3409 -1.9010 -0.2696
  836MOL0     H10336   8.435   3.244   2.860 -0.3911  0.9202 -0.0343
  836MOL0     H10337   8.268   3.071   2.792  0.3633 -2.6395 -1.0496
  836MOL0     H10338   7.143   3.299   1.598  0.3035 -0.9404 -0.2530
  836MOL0     H10339   7.068   3.172   1.378 -0.1363 -3.1177 -0.2175
  836MOL0     H10340   6.998   2.712   1.282  0.2103 -1.2479 -0.3861
  836MOL0     H10341   7.047   2.571   1.097  1.1790  0.7217  0.2861
  836MOL0     H10342   7.021   2.441   0.921 -2.4710  1.8086 -0.5115
  836MOL0     H10343   7.182   2.508   0.891  1.0820  0.8951 -1.8569
  836MOL0     H10344   6.999   2.415   0.667 -0.8818 -0.4213  0.6302
  836MOL0     H10345   7.176   2.449   0.665 -0.6924  2.3562  0.3826
  836MOL0     H10346   7.149   2.208   0.656  2.9487 -0.8360  1.1581
  836MOL0     H10347   7.051   2.203   0.798 -1.3066  0.7981 -1.1416
  836MOL0     H10348   7.344   2.323   0.764  0.9768 -0.0131  2.2707
  836MOL0     H10349   7.281   2.290   0.923  1.7844 -0.2830  0.3105
  836MOL0     H10350   7.341   1.904   0.819  2.3925 -0.1733 -0.6533
  836MOL0     H10351   6.932   2.869   0.810  0.0314  1.9886  0.3408
  836MOL0     H10352   6.851   3.009   0.984  0.7632  0.4548 -0.0414
  837MOL0     O10353   8.820   5.141   2.490  0.9391 -0.2127 -0.3836
  837MOL0     C10354   8.934   5.119   2.464 -0.3551  0.4788  1.2622
  837MOL0     O10355   9.035   5.213   2.477  0.1538 -0.1356  0.4507
  837MOL0     C10356   9.028   5.315   2.571  0.2311 -0.1532  0.0652
  837MOL0     C10357   8.959   5.315   2.686  0.9937  0.0970  0.0460
  837MOL0     C10358   8.936   5.431   2.762 -0.5942  1.2284 -0.2573
  837MOL0     C10359   9.003   5.546   2.722 -0.6640  0.2162 -0.6163
  837MOL0     O10360   8.990   5.668   2.798  0.1809 -0.4940  0.4070
  837MOL0     C10361   8.982   5.793   2.728  0.3460 -0.3841  0.5570
  837MOL0     C10362   8.855   5.863   2.765 -0.4549 -0.4759 -0.2921
  837MOL0     C10363   8.841   5.980   2.667 -0.9057  1.0313  0.0602
  837MOL0     C10364   8.746   6.083   2.728 -0.3476 -0.0963 -0.1129
  837MOL0     C10365   8.681   6.165   2.619  0.7169 -0.8432  0.3671
  837MOL0     C10366   8.608   6.278   2.687  0.5646  0.6238 -1.1330
  837MOL0     C10367   8.519   6.332   2.578  0.0766 -0.6478 -0.1433
  837MOL0     C10368   8.408   6.421   2.631  1.0296 -0.3487 -0.5284
  837MOL0     N10369   8.288   6.348   2.690 -0.1760 -0.2747  0.2605
  837MOL0     C10370   8.227   6.382   2.800 -0.3083 -0.3132 -0.5196
  837MOL0     C10371   8.136   6.287   2.830 -0.7429  0.6354 -0.0413
  837MOL0     C10372   8.052   6.288   2.954 -0.3915  0.1674 -0.2291
  837MOL0     C10373   7.960   6.412   2.954  0.4984 -0.9464  0.5423
  837MOL0     C10374   7.882   6.420   3.084 -0.9436 -0.3063 -0.1773
  837MOL0     C10375   7.796   6.543   3.114 -0.6235  0.6061 -0.9084
  837MOL0     O10376   7.679   6.546   3.035  0.6253  0.3294 -0.0428
  837MOL0     C10377   7.592   6.654   3.045  0.2672 -0.6515  0.9424
  837MOL0     C10378   7.611   6.787   3.105  0.1854  0.5458 -0.5929
  837MOL0     C10379   7.504   6.883   3.100  0.0543 -0.0224  0.4271
  837MOL0     C10380   7.383   6.860   3.019  0.2639 -0.3015 -0.8374
  837MOL0     C10381   7.275   6.961   3.001 -0.9203  0.4183 -0.3936
  837MOL0     O10382   7.165   6.926   2.926 -0.5556 -0.4707 -0.0975
  837MOL0     C10383   7.044   6.998   2.935  0.8989 -0.1407  0.6336
  837MOL0     C10384   6.967   7.020   3.044  1.0078  0.4865 -0.3023
  837MOL0     C10385   6.839   7.087   3.031  0.0026  0.6212 -0.6902
  837MOL0     C10386   6.798   7.122   2.905  0.4128 -0.5327 -0.4722
  837MOL0     O10387   6.672   7.185   2.891 -0.8982 -0.4597 -0.7055
  837MOL0     C10388   6.572   7.168   2.993 -0.3482 -0.0724  0.5110
  837MOL0     C10389   6.440   7.221   2.936 -0.1816 -0.7730 -0.4612
  837MOL0     C10390   6.327   7.215   3.040 -0.2509  0.7170  0.2073
  837MOL0     C10391   6.208   7.294   2.987  0.4003 -0.4278 -0.1703
  837MOL0     C10392   6.113   7.327   3.094 -0.3897 -1.2444 -0.2168
  837MOL0     C10393   5.986   7.398   3.035  0.7686  0.7396  0.1297
  837MOL0     C10394   5.886   7.438   3.139 -0.8286 -0.1007  0.1949
  837MOL0     C10395   5.759   7.488   3.082 -0.9876 -1.2912  0.3494
  837MOL0    Cl10396   5.668   7.533   3.228 -0.5955  0.4197  0.1253
  837MOL0     C10397   6.878   7.104   2.791  0.7619 -0.2050 -0.2265
  837MOL0     C10398   6.994   7.033   2.809 -0.6475 -0.7179  0.1207
  837MOL0     O10399   7.286   7.071   3.055  0.2800  0.3274 -0.2784
  837MOL0     C10400   7.374   6.738   2.962  0.2076  0.2079 -0.1545
  837MOL0     C10401   7.472   6.638   2.964 -0.9505  0.3642 -0.0378
  837MOL0     N10402   8.168   6.175   2.754 -0.1355 -0.4932  0.2448
  837MOL0     N10403   8.249   6.218   2.660  0.3128  0.6871 -0.0934
  837MOL0     C10404   9.080   5.548   2.609 -0.2442  0.5295 -0.2918
  837MOL0     C10405   9.092   5.436   2.533 -0.0639  1.2137  0.1759
  837MOL0     C10406   8.955   4.998   2.387 -0.0733  0.1536  0.1240
  837MOL0     C10407   9.087   4.954   2.355  0.3941  0.2135  0.4353
  837MOL0     C10408   9.111   4.829   2.299  0.2601 -0.2823 -0.2816
  837MOL0     C10409   9.012   4.740   2.260 -0.2993  0.4641  0.4540
  837MOL0     O10410   9.026   4.630   2.178  0.1914  0.6032 -0.5219
  837MOL0     C10411   9.150   4.576   2.146  0.6786  0.8102  0.5822
  837MOL0     C10412   9.121   4.458   2.056  0.7503  0.0597  0.1066
  837MOL0     C10413   9.086   4.336   2.125 -0.6161  0.5312  0.2830
  837MOL0     C10414   8.965   4.258   2.069  0.0825 -1.1926  0.0344
  837MOL0     C10415   8.922   4.149   2.152 -0.0780  0.1107 -0.4719
  837MOL0     C10416   8.881   4.062   2.225  0.0968  0.7369  0.0017
  837MOL0     C10417   8.884   4.786   2.289  0.2858  0.2639  0.2224
  837MOL0     C10418   8.852   4.904   2.355  0.1779  0.3257  0.3770
  837MOL0     H10419   8.916   5.218   2.709 -0.5032  0.4263 -1.2291
  837MOL0     H10420   8.880   5.421   2.854 -3.1337  1.4074 -1.6883
  837MOL0     H10421   8.962   5.777   2.621 -0.4887 -0.3195  0.6943
  837MOL0     H10422   9.068   5.856   2.751  0.5923 -0.6201  0.2860
  837MOL0     H10423   8.858   5.902   2.867  2.2151  0.7806 -0.7541
  837MOL0     H10424   8.769   5.797   2.754  0.0685 -1.9614  3.2390
  837MOL0     H10425   8.810   5.936   2.572  2.5698 -1.6988  0.0039
  837MOL0     H10426   8.936   6.033   2.654  0.8755 -1.3216  2.4435
  837MOL0     H10427   8.665   6.036   2.785 -2.8853  2.9502 -0.8856
  837MOL0     H10428   8.809   6.147   2.792 -1.4244 -1.9073  2.9828
  837MOL0     H10429   8.604   6.104   2.572 -0.1837  0.2023  0.4263
  837MOL0     H10430   8.751   6.211   2.548  0.0436  1.8507  1.3012
  837MOL0     H10431   8.677   6.352   2.728  1.0206  0.9990 -2.4971
  837MOL0     H10432   8.547   6.245   2.771  0.7703 -1.4093 -1.7080
  837MOL0     H10433   8.592   6.373   2.508  0.3887  0.1699  0.6524
  837MOL0     H10434   8.475   6.248   2.523  1.1727 -0.4835 -1.3289
  837MOL0     H10435   8.369   6.501   2.567 -0.1887  0.0588  0.6496
  837MOL0     H10436   8.439   6.491   2.710  2.2821  0.6099 -1.8220
  837MOL0     H10437   8.245   6.469   2.863  1.9661 -1.1090  0.0024
  837MOL0     H10438   8.125   6.299   3.035  1.4833  0.8990 -1.9198
  837MOL0     H10439   7.996   6.194   2.958  0.4284 -0.3891 -1.3720
  837MOL0     H10440   7.888   6.400   2.872 -2.4242  2.2689  2.3337
  837MOL0     H10441   8.007   6.510   2.939  0.8936 -0.6343  3.3004
  837MOL0     H10442   7.826   6.326   3.094  0.5599 -1.4016 -1.5418
  837MOL0     H10443   7.961   6.410   3.159  0.5815 -0.2018 -1.7333
  837MOL0     H10444   7.849   6.634   3.085  2.5988  0.6127  3.8704
  837MOL0     H10445   7.780   6.566   3.220  3.9848 -0.5274  0.2203
  837MOL0     H10446   7.709   6.809   3.147 -0.0623  1.9504 -0.7025
  837MOL0     H10447   7.498   6.980   3.147 -2.2869 -0.5360  1.3320
  837MOL0     H10448   7.015   6.992   3.137  2.0339 -0.2790 -1.0400
  837MOL0     H10449   6.789   7.108   3.125  2.3525  0.6547  0.6377
  837MOL0     H10450   6.594   7.229   3.082  1.0303  0.7141 -0.3363
  837MOL0     H10451   6.579   7.064   3.027  0.0973  0.2856  1.5660
  837MOL0     H10452   6.416   7.169   2.843 -0.7222  1.0758 -1.4232
  837MOL0     H10453   6.454   7.329   2.921 -0.1814 -0.7959 -0.6237
  837MOL0     H10454   6.359   7.261   3.134 -0.6868  2.8035 -0.6225
  837MOL0     H10455   6.290   7.112   3.048 -1.8595  1.2505 -0.0408
  837MOL0     H10456   6.242   7.391   2.946  0.9853  0.1492  1.6042
  837MOL0     H10457   6.163   7.250   2.898  3.0845 -1.3529 -1.1894
  837MOL0     H10458   6.158   7.391   3.171 -2.2056  0.6524 -0.6361
  837MOL0     H10459   6.083   7.242   3.156 -0.5278  1.0008  3.0459
  837MOL0     H10460   5.931   7.321   2.981 -1.7562  2.0511  0.6665
  837MOL0     H10461   5.999   7.491   2.979 -1.8929 -0.1233 -2.1656
  837MOL0     H10462   5.858   7.356   3.207 -0.8083 -0.2625  0.0085
  837MOL0     H10463   5.936   7.507   3.208 -0.1256 -2.2124  1.9154
  837MOL0     H10464   5.713   7.400   3.037 -1.3655 -1.1385  0.4343
  837MOL0     H10465   5.767   7.568   3.008  0.3528 -3.6448 -2.2184
  837MOL0     H10466   6.843   7.134   2.693 -0.1149 -2.2080 -0.5724
  837MOL0     H10467   7.052   7.022   2.718 -1.5194  2.8985 -1.0547
  837MOL0     H10468   7.282   6.709   2.912  0.5976  1.6359 -1.7768
  837MOL0     H10469   7.460   6.544   2.911  1.5996 -1.8056  2.7904
  837MOL0     H10470   9.131   5.633   2.565 -2.9915  0.9929 -2.8974
  837MOL0     H10471   9.148   5.431   2.441  0.1360  3.3012  0.1377
  837MOL0     H10472   9.169   5.022   2.377 -1.2358  1.9948  1.3559
  837MOL0     H10473   9.214   4.796   2.291 -0.1825 -1.8877  0.3268
  837MOL0     H10474   9.193   4.535   2.238  0.8418  0.3179  0.2932
  837MOL0     H10475   9.205   4.651   2.089 -0.6920  0.4624 -1.2953
  837MOL0     H10476   9.055   4.486   1.973  1.0000  2.8123  0.7551
  837MOL0     H10477   9.218   4.433   2.010  0.2887  1.2259 -1.6319
  837MOL0     H10478   9.060   4.359   2.229  1.0730 -0.4835  0.9788
  837MOL0     H10479   9.175   4.272   2.124  2.8942  4.8771  1.3054
  837MOL0     H10480   8.876   4.321   2.068  0.4245 -0.6929  0.7827
  837MOL0     H10481   8.990   4.231   1.966  0.5512  0.8306 -0.4098
  837MOL0     H10482   8.838   3.987   2.288  0.5118  1.1678  0.8110
  837MOL0     H10483   8.811   4.709   2.264  1.4020 -0.5050 -0.8137
  837MOL0     H10484   8.747   4.930   2.349  0.1466 -0.0199 -1.1029
  838MOL0     O10485   7.197   0.424   4.417 -1.0626  0.0611 -0.3394
  838MOL0     C10486   7.101   0.448   4.342  0.0079  0.6484 -0.6855
  838MOL0     O10487   7.058   0.372   4.235  0.2599  0.1993  0.1976
  838MOL0     C10488   7.130   0.256   4.199  0.7781 -0.2413 -0.2070
  838MOL0     C10489   7.224   0.254   4.096  0.8216 -1.2645 -0.1748
  838MOL0     C10490   7.305   0.136   4.075  0.0904 -0.2721 -0.2696
  838MOL0     C10491   7.289   0.022   4.152 -0.3139 -0.3412 -0.5039
  838MOL0     O10492   7.365  -0.083   4.113 -0.2209 -0.0178 -0.5770
  838MOL0     C10493   7.316  -0.217   4.134  0.1838  0.1186 -0.3299
  838MOL0     C10494   7.374  -0.312   4.043  0.6981  0.0592 -0.1822
  838MOL0     C10495   7.523  -0.342   4.080  0.0430  0.6971 -0.7931
  838MOL0     C10496   7.604  -0.416   3.987 -0.9669 -0.3053 -0.2898
  838MOL0     C10497   7.760  -0.418   4.014  0.0080 -0.3046  0.0487
  838MOL0     C10498   7.793  -0.457   4.159 -0.5232 -0.0760  0.2645
  838MOL0     C10499   7.749  -0.599   4.206 -0.6483  0.2365  0.3549
  838MOL0     C10500   7.823  -0.722   4.150  0.8071 -0.0674  0.4802
  838MOL0     N10501   7.745  -0.843   4.176  0.3659  0.6393  0.1953
  838MOL0     C10502   7.636  -0.866   4.102  0.9135 -0.3560  0.1310
  838MOL0     C10503   7.605  -0.994   4.127  0.3211 -0.2638  0.4342
  838MOL0     C10504   7.490  -1.071   4.072  0.2139  0.3067 -0.2784
  838MOL0     C10505   7.497  -1.094   3.927 -0.3646  0.3545 -0.2876
  838MOL0     C10506   7.396  -1.200   3.871  0.1154  0.2508 -0.0158
  838MOL0     C10507   7.241  -1.187   3.913 -0.0342 -0.5117 -0.1015
  838MOL0     O10508   7.206  -1.059   3.880 -0.5636  0.2624  0.7569
  838MOL0     C10509   7.074  -1.036   3.857 -0.5742  0.2183 -1.1443
  838MOL0     C10510   7.051  -0.902   3.830  0.1098 -0.0222 -0.0827
  838MOL0     C10511   6.926  -0.851   3.819 -0.3294  0.4746 -0.4762
  838MOL0     C10512   6.821  -0.941   3.827 -0.5253 -0.0394 -0.5777
  838MOL0     C10513   6.686  -0.881   3.804 -0.0427 -0.7943 -0.0680
  838MOL0     O10514   6.677  -0.758   3.741 -0.3162  0.5380  0.7529
  838MOL0     C10515   6.558  -0.702   3.710 -0.2172  0.5585  0.5546
  838MOL0     C10516   6.472  -0.777   3.627 -0.1190  0.0943 -0.3921
  838MOL0     C10517   6.350  -0.717   3.587 -0.3336  0.0082  0.7820
  838MOL0     C10518   6.326  -0.582   3.617  0.4358  0.0477  0.4527
  838MOL0     O10519   6.209  -0.515   3.580 -0.2644 -0.1145  0.0828
  838MOL0     C10520   6.161  -0.554   3.454 -0.2646  0.5167 -0.0183
  838MOL0     C10521   6.030  -0.476   3.426 -0.4823  0.2032 -0.3769
  838MOL0     C10522   5.976  -0.482   3.278 -0.3114 -0.1434 -0.6489
  838MOL0     C10523   5.840  -0.554   3.261  0.5238 -0.1812  0.1093
  838MOL0     C10524   5.722  -0.514   3.350 -0.2313 -0.1892  0.0228
  838MOL0     C10525   5.588  -0.554   3.287 -0.3263 -0.0174  0.0278
  838MOL0     C10526   5.463  -0.528   3.365  0.9384  0.1611  0.0200
  838MOL0     C10527   5.377  -0.411   3.307  0.3061 -0.0311  0.5996
  838MOL0    Cl10528   5.209  -0.409   3.377  0.1133  0.1190  0.5271
  838MOL0     C10529   6.415  -0.515   3.695 -0.0941 -0.7120  0.1138
  838MOL0     C10530   6.530  -0.574   3.738 -0.0313 -0.1423  0.4203
  838MOL0     O10531   6.591  -0.949   3.843 -0.4819 -0.5192  0.6235
  838MOL0     C10532   6.846  -1.079   3.849 -0.2284 -0.0369  0.2294
  838MOL0     C10533   6.974  -1.126   3.864  0.5924 -0.5394  0.9179
  838MOL0     N10534   7.704  -1.045   4.216  0.9095 -1.0966  0.0224
  838MOL0     N10535   7.785  -0.948   4.240 -0.2710 -0.1019 -0.7059
  838MOL0     C10536   7.183   0.024   4.242 -0.3862 -0.1585 -0.2169
  838MOL0     C10537   7.102   0.138   4.266 -0.2338 -0.5418 -0.0999
  838MOL0     C10538   7.030   0.571   4.372 -0.2260 -0.0659  0.1771
  838MOL0     C10539   7.097   0.673   4.440  1.0253  0.0921  0.0726
  838MOL0     C10540   7.035   0.794   4.481 -0.2857  0.5229 -0.0959
  838MOL0     C10541   6.897   0.811   4.450 -0.8186 -0.1821  0.3450
  838MOL0     O10542   6.834   0.927   4.497  0.5031 -0.6003 -0.6385
  838MOL0     C10543   6.694   0.947   4.486  0.5744 -0.5592  0.2992
  838MOL0     C10544   6.626   0.841   4.580  0.1760 -0.0377 -0.3527
  838MOL0     C10545   6.621   0.880   4.729 -0.3420 -0.4239 -1.0988
  838MOL0     C10546   6.478   0.949   4.765  0.2013  0.6261 -0.7971
  838MOL0     C10547   6.468   0.974   4.907 -0.3215 -0.0720 -0.6311
  838MOL0     C10548   6.459   0.998   5.020  1.3986 -0.0710  0.2587
  838MOL0     C10549   6.831   0.715   4.373 -0.2125 -0.3475 -0.7996
  838MOL0     C10550   6.895   0.600   4.335 -0.0775 -0.1772 -0.3685
  838MOL0     H10551   7.258   0.333   4.029 -0.7254 -1.7952 -1.6658
  838MOL0     H10552   7.378   0.153   3.996  0.3298  2.2931  0.4080
  838MOL0     H10553   7.213  -0.207   4.099 -0.0658  3.9311  1.0537
  838MOL0     H10554   7.312  -0.237   4.241 -2.3271  0.7996 -0.2146
  838MOL0     H10555   7.366  -0.278   3.939  1.8761 -1.0062 -0.6353
  838MOL0     H10556   7.317  -0.405   4.043 -0.0629  0.5084 -0.8988
  838MOL0     H10557   7.528  -0.406   4.168  0.5427 -2.5700 -3.0337
  838MOL0     H10558   7.573  -0.247   4.102  1.1014  0.2776 -1.3097
  838MOL0     H10559   7.578  -0.522   3.973  3.3563 -1.1688 -4.1674
  838MOL0     H10560   7.584  -0.371   3.889  0.4310 -0.2168 -0.5488
  838MOL0     H10561   7.797  -0.316   3.998 -0.2586 -0.1730  0.2531
  838MOL0     H10562   7.799  -0.491   3.943  0.6243 -0.4810  0.5589
  838MOL0     H10563   7.743  -0.390   4.229 -0.0117  0.5547  0.0405
  838MOL0     H10564   7.898  -0.449   4.188 -2.0350  2.3609  6.9348
  838MOL0     H10565   7.771  -0.601   4.313 -0.2238  1.4655  0.3082
  838MOL0     H10566   7.644  -0.611   4.179 -0.1149  1.7121 -2.9534
  838MOL0     H10567   7.919  -0.727   4.201  1.1607  0.0647 -0.1607
  838MOL0     H10568   7.839  -0.714   4.042 -2.6071 -0.4774 -0.1706
  838MOL0     H10569   7.571  -0.800   4.046  0.8007 -0.6490 -0.0872
  838MOL0     H10570   7.390  -1.033   4.097 -1.4434 -0.7046 -4.5121
  838MOL0     H10571   7.496  -1.172   4.115  0.1115 -0.6418 -2.3997
  838MOL0     H10572   7.594  -1.136   3.898  0.1213  2.4977 -1.9626
  838MOL0     H10573   7.488  -1.002   3.869 -0.2023  0.0159 -0.8611
  838MOL0     H10574   7.396  -1.194   3.762  0.2008 -1.0123 -0.0940
  838MOL0     H10575   7.440  -1.298   3.891 -2.8163 -1.1528  0.1954
  838MOL0     H10576   7.218  -1.211   4.017  1.6978 -1.6911  0.0592
  838MOL0     H10577   7.182  -1.257   3.854 -1.1440  0.9440 -0.7636
  838MOL0     H10578   7.127  -0.827   3.812  0.8317 -1.0081 -1.3224
  838MOL0     H10579   6.909  -0.746   3.795  1.1155  1.5403  2.6652
  838MOL0     H10580   6.501  -0.880   3.606  0.4384 -0.0788  1.1347
  838MOL0     H10581   6.290  -0.769   3.513  0.4581 -0.6936  0.6219
  838MOL0     H10582   6.125  -0.657   3.464 -0.3454  0.4976 -0.4699
  838MOL0     H10583   6.232  -0.544   3.371  1.2417 -5.9167 -0.0796
  838MOL0     H10584   6.050  -0.371   3.450 -0.1867 -0.2073  1.3163
  838MOL0     H10585   5.962  -0.519   3.500 -1.3004 -1.4665 -2.0118
  838MOL0     H10586   6.051  -0.526   3.211  1.0987 -0.2525  0.9468
  838MOL0     H10587   5.977  -0.378   3.244  2.7481 -0.2491 -1.1568
  838MOL0     H10588   5.811  -0.532   3.158 -0.7901 -0.1310  0.4810
  838MOL0     H10589   5.870  -0.659   3.273 -0.2687 -0.3299  0.9176
  838MOL0     H10590   5.726  -0.404   3.355 -0.4521 -0.0664 -1.7954
  838MOL0     H10591   5.738  -0.551   3.451  2.1814  0.0261 -0.2221
  838MOL0     H10592   5.593  -0.661   3.266  1.4010  0.0061  0.1964
  838MOL0     H10593   5.582  -0.509   3.187  2.3714  0.1839 -0.1162
  838MOL0     H10594   5.408  -0.622   3.359  0.6402  0.3015  0.4847
  838MOL0     H10595   5.481  -0.511   3.471  1.4870  6.1582 -0.6708
  838MOL0     H10596   5.374  -0.411   3.198  0.3288  3.9881  0.4454
  838MOL0     H10597   5.435  -0.320   3.326 -0.5974  1.4415 -2.8842
  838MOL0     H10598   6.402  -0.409   3.716  1.8153 -0.6113  0.9354
  838MOL0     H10599   6.603  -0.514   3.790 -1.0158  2.7093 -1.2536
  838MOL0     H10600   6.759  -1.143   3.850  0.7269 -1.3813  1.4722
  838MOL0     H10601   6.992  -1.227   3.898  0.0536 -1.2103 -0.7031
  838MOL0     H10602   7.168  -0.058   4.311 -2.5049  0.6025  0.3174
  838MOL0     H10603   7.010   0.147   4.324 -0.8855  2.8507 -1.4104
  838MOL0     H10604   7.200   0.663   4.475  0.8409  1.2955  1.0000
  838MOL0     H10605   7.084   0.874   4.536  2.0101 -1.1311  0.3736
  838MOL0     H10606   6.662   0.931   4.382 -1.1381 -0.4386  0.7870
  838MOL0     H10607   6.654   1.042   4.522  0.3299 -0.4241 -0.3112
  838MOL0     H10608   6.525   0.824   4.542 -0.2289  1.0015  0.2067
  838MOL0     H10609   6.692   0.754   4.583  0.6967  0.3549  2.2836
  838MOL0     H10610   6.692   0.961   4.746 -0.8162 -0.4192  1.1930
  838MOL0     H10611   6.649   0.791   4.787 -1.3764 -0.1294 -0.1095
  838MOL0     H10612   6.470   1.049   4.721  0.5022  1.3124  0.6518
  838MOL0     H10613   6.390   0.893   4.734  1.4958 -1.6283 -0.6863
  838MOL0     H10614   6.443   1.022   5.123 -2.6212 -1.0873  0.0363
  838MOL0     H10615   6.729   0.728   4.337  0.0327 -0.3904 -1.5100
  838MOL0     H10616   6.827   0.524   4.297 -1.0714 -0.5533  1.9862
  839MOL0     O10617   0.916   8.979   1.181  0.4915 -0.1948 -0.6059
  839MOL0     C10618   0.876   8.870   1.220 -0.0724 -1.1439  0.3232
  839MOL0     O10619   0.957   8.767   1.248  0.2630 -0.2104 -0.1834
  839MOL0     C10620   1.092   8.782   1.238 -0.3963  0.4361 -0.3205
  839MOL0     C10621   1.181   8.720   1.331  0.8841  0.2194  0.9468
  839MOL0     C10622   1.312   8.711   1.300 -0.9373  0.7575  0.4557
  839MOL0     C10623   1.364   8.756   1.182  0.4925 -1.3743  0.1739
  839MOL0     O10624   1.496   8.724   1.163 -0.2372  0.3032  0.0457
  839MOL0     C10625   1.573   8.795   1.060  0.4123  0.2347  0.2395
  839MOL0     C10626   1.726   8.767   1.066  0.2762 -0.7628 -0.0520
  839MOL0     C10627   1.808   8.811   0.943  0.0330  0.8385 -0.6973
  839MOL0     C10628   1.959   8.784   0.943 -0.9938 -0.7368 -0.1936
  839MOL0     C10629   2.026   8.766   0.801 -0.0534 -0.2822 -0.3220
  839MOL0     C10630   2.182   8.766   0.800  0.9042  0.1061  0.4319
  839MOL0     C10631   2.229   8.649   0.895 -0.1676 -0.1111 -0.1120
  839MOL0     C10632   2.368   8.611   0.879 -0.7764 -0.5875  0.1612
  839MOL0     N10633   2.467   8.717   0.896  0.2337 -0.5651  0.2662
  839MOL0     C10634   2.457   8.817   0.992 -0.2179  0.7411 -0.4644
  839MOL0     C10635   2.554   8.905   0.959  0.0467  0.6005  0.2696
  839MOL0     C10636   2.582   9.036   1.033 -0.0214 -0.2642 -0.6987
  839MOL0     C10637   2.725   9.087   1.028  0.7240 -0.7915  0.1223
  839MOL0     C10638   2.737   9.230   1.082  0.3240  0.6628  0.2032
  839MOL0     C10639   2.882   9.290   1.087  0.3313  0.4074  0.2404
  839MOL0     O10640   2.933   9.311   0.952  0.0098 -0.5725  0.6331
  839MOL0     C10641   3.044   9.386   0.942 -0.7881 -0.4768  0.1390
  839MOL0     C10642   3.092   9.419   0.820  0.0548  0.3707 -0.3539
  839MOL0     C10643   3.219   9.476   0.814 -0.7215  0.7276 -0.5923
  839MOL0     C10644   3.293   9.511   0.927 -0.4351  0.1824  0.0353
  839MOL0     C10645   3.427   9.565   0.905 -0.2757 -0.0033  1.5175
  839MOL0     O10646   3.460   9.616   0.783  0.3972 -0.2798 -0.4613
  839MOL0     C10647   3.583   9.679   0.747 -0.0568 -0.4818 -0.9743
  839MOL0     C10648   3.702   9.615   0.781  0.4094  0.2811 -0.3440
  839MOL0     C10649   3.819   9.656   0.721  0.6412 -0.0791 -0.4944
  839MOL0     C10650   3.818   9.757   0.630 -0.3463 -1.0530 -0.2574
  839MOL0     O10651   3.938   9.795   0.577  0.4842  0.1345  0.0846
  839MOL0     C10652   3.962   9.839   0.442  0.3845  0.3687  0.2547
  839MOL0     C10653   4.117   9.859   0.429 -0.2439  0.8035 -0.1231
  839MOL0     C10654   4.150   9.946   0.312  0.1933 -0.6272  0.9855
  839MOL0     C10655   4.304   9.960   0.284 -0.8358 -0.2981 -0.5054
  839MOL0     C10656   4.335  10.061   0.173 -0.7279 -0.6223  1.4582
  839MOL0     C10657   4.268  10.037   0.043  0.3645 -0.5052 -0.3633
  839MOL0     C10658   4.280   9.916  -0.052 -0.6447 -0.4020  0.8091
  839MOL0     C10659   4.418   9.870  -0.105  0.0329  0.5365 -0.4305
  839MOL0    Cl10660   4.501  10.010  -0.175 -0.2752 -0.0956 -0.1044
  839MOL0     C10661   3.698   9.824   0.601 -0.2966 -0.3145  0.0137
  839MOL0     C10662   3.578   9.781   0.653  0.7800 -0.6775  0.7132
  839MOL0     O10663   3.503   9.568   0.998  0.1899  0.3317 -0.1741
  839MOL0     C10664   3.249   9.477   1.052 -0.0238  0.0020 -0.2808
  839MOL0     C10665   3.121   9.425   1.060 -0.2110 -0.7308 -0.5726
  839MOL0     N10666   2.601   8.860   0.838 -0.0470 -0.0446  0.2352
  839MOL0     N10667   2.542   8.754   0.793 -0.5734 -0.8653  0.5800
  839MOL0     C10668   1.283   8.818   1.086  0.1821  0.1732  0.8705
  839MOL0     C10669   1.148   8.832   1.118  0.4104 -0.2887 -0.7419
  839MOL0     C10670   0.733   8.849   1.224  0.0099 -0.7697 -0.8406
  839MOL0     C10671   0.647   8.944   1.176 -0.0408  0.1521 -0.3758
  839MOL0     C10672   0.510   8.928   1.167  0.4090 -0.0676  0.4635
  839MOL0     C10673   0.448   8.821   1.237 -0.0802 -0.0272  0.9885
  839MOL0     O10674   0.311   8.821   1.263 -0.1339  0.5294  0.3558
  839MOL0     C10675   0.228   8.935   1.239 -0.4556  0.1664 -0.5284
  839MOL0     C10676   0.145   8.928   1.108  0.5053  0.5231 -0.3422
  839MOL0     C10677   0.218   8.967   0.982  0.2876  0.1316  0.2359
  839MOL0     C10678   0.131   8.962   0.852  0.6007  0.5106 -0.7042
  839MOL0     C10679   0.112   8.829   0.808  0.2151  0.2344  0.6832
  839MOL0     C10680   0.112   8.709   0.777 -0.2812 -0.6768  0.7270
  839MOL0     C10681   0.533   8.731   1.299  0.1384 -0.5513 -0.5514
  839MOL0     C10682   0.670   8.738   1.284  0.4437  0.5173  0.1526
  839MOL0     H10683   1.131   8.684   1.420  0.4507  0.2455  0.7215
  839MOL0     H10684   1.376   8.653   1.366 -3.3380  0.6596  2.8393
  839MOL0     H10685   1.554   8.903   1.059 -0.2785  0.2136  2.9831
  839MOL0     H10686   1.529   8.762   0.965 -1.7842  0.7603  1.0122
  839MOL0     H10687   1.734   8.660   1.083  0.7178 -0.6509  0.4792
  839MOL0     H10688   1.768   8.816   1.155 -0.2129 -1.8536  0.8041
  839MOL0     H10689   1.792   8.918   0.928  3.0223  1.2851 -1.4549
  839MOL0     H10690   1.773   8.754   0.856 -0.8634  0.4655 -0.0930
  839MOL0     H10691   2.007   8.852   1.014 -0.4958  1.3056 -2.3624
  839MOL0     H10692   1.975   8.688   0.993 -0.5600  0.9429  3.1690
  839MOL0     H10693   1.991   8.853   0.744 -1.2052 -0.5143 -0.0027
  839MOL0     H10694   1.994   8.671   0.755  3.5260 -1.1722 -1.3195
  839MOL0     H10695   2.216   8.864   0.837  2.9091  0.8694 -2.9886
  839MOL0     H10696   2.209   8.762   0.694 -1.0442  0.7811 -0.1343
  839MOL0     H10697   2.207   8.679   0.998  0.7410  1.4735 -0.3371
  839MOL0     H10698   2.162   8.563   0.893 -1.4953  0.8475  0.7811
  839MOL0     H10699   2.377   8.567   0.779 -0.3390 -2.7169  1.0633
  839MOL0     H10700   2.387   8.527   0.947 -0.5039  0.0016  0.8179
  839MOL0     H10701   2.394   8.802   1.079  0.3735 -0.1944 -0.1778
  839MOL0     H10702   2.566   9.019   1.140  2.2966  0.4605 -0.1920
  839MOL0     H10703   2.514   9.110   0.989  1.5270  1.1503 -0.7860
  839MOL0     H10704   2.739   9.082   0.920  3.0544 -2.6914  0.4276
  839MOL0     H10705   2.794   9.019   1.079  0.9145 -0.6169  0.0989
  839MOL0     H10706   2.678   9.302   1.025  0.2812  0.3147 -0.1944
  839MOL0     H10707   2.694   9.231   1.183 -0.6830 -1.2445 -0.1609
  839MOL0     H10708   2.950   9.216   1.130 -2.3482 -1.1524  2.0190
  839MOL0     H10709   2.878   9.384   1.143 -1.1189  0.1668  0.5647
  839MOL0     H10710   3.043   9.387   0.728  0.3809 -2.9537  0.4946
  839MOL0     H10711   3.268   9.498   0.719  3.5233 -2.0514  0.6830
  839MOL0     H10712   3.700   9.521   0.835 -2.2672 -1.3214 -2.8638
  839MOL0     H10713   3.908   9.596   0.736  1.2186  0.9491  0.2922
  839MOL0     H10714   3.904   9.931   0.432 -3.4006 -1.3999  3.3240
  839MOL0     H10715   3.921   9.767   0.370 -1.5830  2.7747 -1.1784
  839MOL0     H10716   4.163   9.760   0.425 -3.2316 -0.6913 -0.8816
  839MOL0     H10717   4.143   9.918   0.518  1.1139  1.0395 -0.6607
  839MOL0     H10718   4.116  10.048   0.331 -1.2726 -1.1889  1.5124
  839MOL0     H10719   4.100   9.913   0.221  0.4475 -0.6526  0.8538
  839MOL0     H10720   4.357   9.991   0.375 -0.1599  0.1270 -1.0443
  839MOL0     H10721   4.343   9.864   0.249 -1.8001  0.3606 -3.7133
  839MOL0     H10722   4.442  10.058   0.150 -0.6784 -2.4002  1.8250
  839MOL0     H10723   4.313  10.164   0.202  0.3739 -0.7388  2.8207
  839MOL0     H10724   4.291  10.120  -0.025 -1.5386 -2.2348 -3.2951
  839MOL0     H10725   4.161  10.046   0.068  0.2601 -0.4529 -0.8333
  839MOL0     H10726   4.232   9.833  -0.001 -0.3384 -0.3391  1.2001
  839MOL0     H10727   4.216   9.949  -0.135 -2.3779 -1.2686  1.7530
  839MOL0     H10728   4.424   9.787  -0.177  2.4299 -1.1149  1.5105
  839MOL0     H10729   4.488   9.844  -0.026 -1.1495  0.0041  0.4776
  839MOL0     H10730   3.694   9.914   0.541 -2.1866  1.7557  2.9711
  839MOL0     H10731   3.486   9.823   0.613  1.7590 -1.6065 -2.8143
  839MOL0     H10732   3.292   9.502   1.149 -1.1552 -2.5487  0.9835
  839MOL0     H10733   3.077   9.412   1.158  0.9435  0.5260  0.1401
  839MOL0     H10734   1.315   8.849   0.987  0.2974  0.6021  1.0376
  839MOL0     H10735   1.079   8.877   1.047 -1.3303 -1.9872 -0.2062
  839MOL0     H10736   0.682   9.035   1.128 -2.8494 -0.1668 -3.3509
  839MOL0     H10737   0.468   9.014   1.117  0.3990 -1.6242 -2.4459
  839MOL0     H10738   0.289   9.026   1.234  2.0508 -1.4791 -2.3719
  839MOL0     H10739   0.157   8.943   1.322  1.0249 -2.0068  1.0496
  839MOL0     H10740   0.103   8.828   1.093 -1.4221  1.3742 -1.0027
  839MOL0     H10741   0.061   8.996   1.126 -0.1505 -0.5997  1.1350
  839MOL0     H10742   0.309   8.908   0.969 -0.3595 -1.0886  1.0408
  839MOL0     H10743   0.242   9.072   1.002  1.3405 -0.3140  1.4709
  839MOL0     H10744   0.040   9.007   0.894  0.7917 -1.4132  1.9801
  839MOL0     H10745   0.169   9.023   0.769  0.7218  1.1734 -0.1732
  839MOL0     H10746   0.111   8.609   0.738 -2.3067  0.5078 -2.7099
  839MOL0     H10747   0.497   8.656   1.369  0.7124  1.9001  2.6151
  839MOL0     H10748   0.732   8.653   1.313 -1.1058 -0.8355 -0.3115
  840MOL0     O10749  10.834  10.222   1.133 -0.3763 -0.3582 -0.3032
  840MOL0     C10750  10.902  10.180   1.037  0.1447 -0.4845 -0.3033
  840MOL0     O10751  10.850  10.139   0.926  0.3448 -0.1018 -0.1925
  840MOL0     C10752  10.713  10.164   0.919 -0.4785 -0.4711  0.6979
  840MOL0     C10753  10.673  10.285   0.856 -0.0597 -0.1010 -0.5072
  840MOL0     C10754  10.536  10.312   0.870 -0.7753 -0.2741  0.0934
  840MOL0     C10755  10.451  10.226   0.943  0.7101  0.1567  1.3131
  840MOL0     O10756  10.322  10.259   0.977  0.0907  0.8784  0.3368
  840MOL0     C10757  10.275  10.392   0.958  0.6598 -0.1200 -0.1160
  840MOL0     C10758  10.122  10.404   0.977  1.3822 -0.6080 -0.1372
  840MOL0     C10759  10.066  10.541   1.040  0.1718  0.1535  0.8933
  840MOL0     C10760   9.915  10.551   1.069 -0.0301  0.1531  0.5388
  840MOL0     C10761   9.866  10.436   1.168  0.0383 -0.8727 -0.6974
  840MOL0     C10762   9.717  10.453   1.205  1.1060 -0.6388 -0.7164
  840MOL0     C10763   9.699  10.374   1.336  0.3971 -0.1894 -0.5084
  840MOL0     C10764   9.547  10.360   1.375 -0.0217  0.1603  0.4757
  840MOL0     N10765   9.491  10.232   1.320 -0.3392 -0.1487 -0.2014
  840MOL0     C10766   9.452  10.223   1.188  0.2231  0.5846  1.0170
  840MOL0     C10767   9.400  10.096   1.176  0.3959 -0.2391 -1.0670
  840MOL0     C10768   9.363  10.029   1.049  0.1066 -0.6130  0.8816
  840MOL0     C10769   9.267   9.913   1.066  0.4360 -0.2882 -0.2834
  840MOL0     C10770   9.230   9.856   0.923  0.3932 -0.0579 -0.5132
  840MOL0     C10771   9.170   9.947   0.825 -0.1070 -0.4487 -0.2388
  840MOL0     O10772   9.047   9.990   0.888 -0.3821  0.0356  0.1856
  840MOL0     C10773   8.933  10.000   0.814  0.1264  0.1195  0.4046
  840MOL0     C10774   8.814   9.953   0.871 -0.3374 -0.1435 -0.1021
  840MOL0     C10775   8.695   9.959   0.798 -0.3469 -0.6225 -0.3420
  840MOL0     C10776   8.690  10.021   0.674 -0.4813 -0.0090  1.1138
  840MOL0     C10777   8.562  10.036   0.607  0.1657 -0.0360  0.1633
  840MOL0     O10778   8.462   9.966   0.669  0.0135 -0.1595  0.4257
  840MOL0     C10779   8.325   9.984   0.655 -0.3147 -0.0420 -0.4109
  840MOL0     C10780   8.257   9.999   0.536 -0.2506 -0.4087 -0.4414
  840MOL0     C10781   8.118  10.010   0.541  0.0345  0.5564  0.1002
  840MOL0     C10782   8.046   9.994   0.663 -0.3115  0.3661 -0.8399
  840MOL0     O10783   7.910   9.991   0.671 -0.4967  0.1589 -0.2438
  840MOL0     C10784   7.824  10.043   0.570 -0.7656 -0.8780 -0.0153
  840MOL0     C10785   7.683  10.019   0.612  0.5748  0.0149 -0.3980
  840MOL0     C10786   7.617   9.893   0.553 -0.5368  1.2733  1.0247
  840MOL0     C10787   7.482   9.872   0.600  0.8380 -0.4852 -0.1669
  840MOL0     C10788   7.397   9.749   0.554 -0.0406 -0.1189 -0.2574
  840MOL0     C10789   7.250   9.767   0.568  0.3421  0.4655 -0.3807
  840MOL0     C10790   7.204   9.765   0.711 -0.3132  0.6755 -0.1069
  840MOL0     C10791   7.058   9.834   0.735 -0.2778 -0.2946 -0.2690
  840MOL0    Cl10792   6.934   9.726   0.668 -0.0573  0.2017  0.2410
  840MOL0     C10793   8.119   9.981   0.786  1.4241  0.5309  0.0573
  840MOL0     C10794   8.260   9.982   0.784 -0.7464  0.4841  0.8703
  840MOL0     O10795   8.547  10.122   0.519 -0.8910  0.2566  0.2176
  840MOL0     C10796   8.806  10.079   0.630  0.0550 -0.0657  0.7550
  840MOL0     C10797   8.931  10.061   0.691 -0.5665 -0.5799  0.3215
  840MOL0     N10798   9.401  10.034   1.294  0.6265  0.1229 -0.4282
  840MOL0     N10799   9.466  10.108   1.384  0.6403 -0.9116  0.2036
  840MOL0     C10800  10.492  10.101   0.990  0.8911  0.4441  0.6088
  840MOL0     C10801  10.627  10.067   0.961 -0.1038 -0.1518 -0.0370
  840MOL0     C10802  11.051  10.155   1.049 -0.3113 -1.3060  0.4776
  840MOL0     C10803  11.133  10.120   0.940 -0.6667 -0.9179 -0.0248
  840MOL0     C10804  11.271  10.117   0.973 -0.2075  0.0954 -0.5153
  840MOL0     C10805  11.329  10.166   1.089  0.1854 -0.1744 -0.0533
  840MOL0     O10806  11.458  10.172   1.129 -0.3473 -0.1362 -0.2437
  840MOL0     C10807  11.554  10.272   1.091  0.0148 -0.3074 -0.2220
  840MOL0     C10808  11.523  10.403   1.162 -0.1008  0.4719 -0.8780
  840MOL0     C10809  11.619  10.518   1.140  0.1822 -0.9243  0.9764
  840MOL0     C10810  11.575  10.633   1.222 -0.2792 -0.3928  0.3734
  840MOL0     C10811  11.619  10.613   1.358  1.2012 -0.0467 -0.2197
  840MOL0     C10812  11.663  10.595   1.468 -1.2610 -0.9989 -0.0907
  840MOL0     C10813  11.244  10.196   1.189  0.0026 -0.4203 -0.0294
  840MOL0     C10814  11.111  10.195   1.175  0.1940  0.1699  0.6766
  840MOL0     H10815  10.741  10.354   0.805  0.1038  1.6390  1.9105
  840MOL0     H10816  10.508  10.402   0.816  2.4170  0.4679 -0.5555
  840MOL0     H10817  10.301  10.449   0.869 -0.8024 -0.8512 -1.0551
  840MOL0     H10818  10.330  10.455   1.028  0.5360 -0.4895  0.3237
  840MOL0     H10819  10.097  10.323   1.046  1.4134  0.2186  0.8732
  840MOL0     H10820  10.072  10.369   0.886 -0.6164 -0.3256  0.7910
  840MOL0     H10821  10.093  10.622   0.971  1.3285  1.7003  3.0312
  840MOL0     H10822  10.122  10.560   1.133  1.4020 -0.2200  0.2530
  840MOL0     H10823   9.895  10.651   1.109 -1.3355  2.0410 -4.1528
  840MOL0     H10824   9.856  10.533   0.979  0.2325 -0.0461  0.4070
  840MOL0     H10825   9.933  10.449   1.253 -1.0377  2.3899 -0.2048
  840MOL0     H10826   9.878  10.338   1.120 -3.3104 -0.5712 -2.4392
  840MOL0     H10827   9.653  10.423   1.122  0.6047  1.7849 -1.2899
  840MOL0     H10828   9.697  10.558   1.227 -2.1152 -1.6631  1.9990
  840MOL0     H10829   9.729  10.270   1.326  2.7250  0.3439  0.1983
  840MOL0     H10830   9.773  10.416   1.406  0.4990 -0.3424 -0.5248
  840MOL0     H10831   9.487  10.448   1.349  0.1135  0.0995 -0.0443
  840MOL0     H10832   9.543  10.337   1.482 -0.2594 -2.5456 -0.0579
  840MOL0     H10833   9.457  10.291   1.103  2.7845 -3.6055 -2.6418
  840MOL0     H10834   9.462   9.997   1.013 -0.4057  0.8353 -2.2050
  840MOL0     H10835   9.318  10.110   0.990 -0.5077 -2.1208 -0.8324
  840MOL0     H10836   9.172   9.942   1.111  0.4766  0.5916 -0.7367
  840MOL0     H10837   9.323   9.842   1.127  0.0293  0.1999  0.6793
  840MOL0     H10838   9.324   9.821   0.880  1.9949 -0.4902  2.9879
  840MOL0     H10839   9.161   9.773   0.942  1.2108 -0.8113 -0.7647
  840MOL0     H10840   9.162   9.894   0.729 -1.1227  0.8602 -0.9091
  840MOL0     H10841   9.237  10.030   0.804  0.1212 -1.4387 -4.4358
  840MOL0     H10842   8.817   9.904   0.968  0.5352 -2.2233 -1.1224
  840MOL0     H10843   8.604   9.917   0.840  0.8780 -2.0273  1.0343
  840MOL0     H10844   8.304  10.009   0.439  1.2006  0.3682  0.3023
  840MOL0     H10845   8.064  10.035   0.451 -0.2887 -0.5685 -0.0378
  840MOL0     H10846   7.842  10.008   0.468 -1.9977 -0.4214 -0.4040
  840MOL0     H10847   7.833  10.151   0.556  1.3679 -1.2972 -3.0691
  840MOL0     H10848   7.623  10.108   0.587  2.9592  1.2447 -2.1098
  840MOL0     H10849   7.677  10.011   0.721 -0.3422  2.2671 -0.2317
  840MOL0     H10850   7.672   9.799   0.566 -0.6895  0.6213 -2.1675
  840MOL0     H10851   7.630   9.903   0.444  0.4207  2.5260  1.2327
  840MOL0     H10852   7.492   9.866   0.709  1.2344  1.8095 -0.0422
  840MOL0     H10853   7.425   9.961   0.573  0.8738  0.1907  1.8024
  840MOL0     H10854   7.436   9.656   0.597  1.8949  0.4135 -0.7616
  840MOL0     H10855   7.412   9.732   0.447 -3.4523 -0.5975 -0.7590
  840MOL0     H10856   7.192   9.697   0.508 -2.4577  3.0171 -0.9600
  840MOL0     H10857   7.223   9.863   0.523 -2.4641  0.0503  0.1846
  840MOL0     H10858   7.197   9.661   0.744  1.5342 -0.3525 -2.6692
  840MOL0     H10859   7.275   9.823   0.772  2.5188  0.8834 -3.3038
  840MOL0     H10860   7.056   9.932   0.684  2.0870 -0.1541 -0.2076
  840MOL0     H10861   7.045   9.841   0.843  1.4941  0.0159 -0.0489
  840MOL0     H10862   8.078   9.976   0.886 -1.3421  0.8466 -0.9578
  840MOL0     H10863   8.318   9.970   0.876 -1.0927 -1.4083  0.8668
  840MOL0     H10864   8.804  10.125   0.532  0.8387 -2.3554 -0.4118
  840MOL0     H10865   9.024  10.107   0.658 -0.7416 -0.1324  0.4496
  840MOL0     H10866  10.426  10.030   1.037  2.4812 -1.2744  0.3697
  840MOL0     H10867  10.660   9.970   0.997 -1.4109  0.2858  2.6894
  840MOL0     H10868  11.089  10.087   0.846 -0.1209 -1.4146 -0.1098
  840MOL0     H10869  11.334  10.070   0.898 -1.9822 -1.7577 -0.9358
  840MOL0     H10870  11.548  10.292   0.983  0.9334  2.4588  0.1529
  840MOL0     H10871  11.658  10.243   1.107  0.4913  0.3071 -1.9938
  840MOL0     H10872  11.424  10.427   1.123  0.5274 -0.7994 -3.4953
  840MOL0     H10873  11.527  10.384   1.270  1.0774  1.4657 -0.7229
  840MOL0     H10874  11.609  10.552   1.037  0.7433 -4.4066 -0.3816
  840MOL0     H10875  11.725  10.505   1.166  0.7946  0.2227 -0.7820
  840MOL0     H10876  11.636  10.719   1.191 -0.5311 -0.2588  0.2490
  840MOL0     H10877  11.468  10.650   1.206  0.1028  1.5707 -0.3925
  840MOL0     H10878  11.670  10.580   1.574 -1.2735 -3.2253 -0.3590
  840MOL0     H10879  11.286  10.225   1.285  2.9849 -3.5801 -0.1746
  840MOL0     H10880  11.048  10.235   1.254 -1.3744  0.6203 -0.7455
  841MOL0     O10881  10.678  10.867   9.183 -0.5393 -0.1684 -0.0786
  841MOL0     C10882  10.746  10.915   9.089  0.0547  0.2699  0.5981
  841MOL0     O10883  10.693  10.977   8.974 -0.4610  0.2223 -0.6231
  841MOL0     C10884  10.564  11.009   8.954  0.3507  0.0126 -0.5891
  841MOL0     C10885  10.458  10.982   9.035 -0.1872 -0.0468  0.9156
  841MOL0     C10886  10.331  11.017   8.988 -0.1261 -0.3970 -0.4255
  841MOL0     C10887  10.309  11.095   8.872  0.2917 -0.2799 -1.0173
  841MOL0     O10888  10.190  11.134   8.827 -0.2880  0.5122 -0.8928
  841MOL0     C10889  10.079  11.106   8.921 -0.3931  0.8936 -0.6179
  841MOL0     C10890   9.946  11.150   8.850  0.4881  0.7594  0.1048
  841MOL0     C10891   9.839  11.163   8.948  0.6098 -0.3892  0.5124
  841MOL0     C10892   9.702  11.192   8.887  0.0530  0.6476 -0.6880
  841MOL0     C10893   9.615  11.260   8.998  0.2032  0.7648 -0.2396
  841MOL0     C10894   9.468  11.262   8.965 -0.2579  0.2161 -0.1968
  841MOL0     C10895   9.386  11.274   9.085 -0.0317  0.7797  0.3333
  841MOL0     C10896   9.241  11.256   9.033  0.2662 -0.1543 -0.3268
  841MOL0     N10897   9.132  11.309   9.133 -0.0790  0.3041  0.1473
  841MOL0     C10898   9.115  11.277   9.262  0.4487 -0.8930 -0.0354
  841MOL0     C10899   8.998  11.331   9.298  0.2496  0.3271 -1.0661
  841MOL0     C10900   8.925  11.304   9.423  0.0676  0.8670 -0.2079
  841MOL0     C10901   8.773  11.342   9.425  0.1253  0.3804  0.0828
  841MOL0     C10902   8.759  11.487   9.485 -0.1286  0.3386  0.0103
  841MOL0     C10903   8.617  11.548   9.481  0.2092 -0.8634 -0.0909
  841MOL0     O10904   8.515  11.465   9.542 -0.1446  0.4114 -0.6799
  841MOL0     C10905   8.398  11.521   9.571 -0.1142  0.6136  0.4558
  841MOL0     C10906   8.306  11.446   9.645 -0.9238  0.3729  0.7881
  841MOL0     C10907   8.182  11.501   9.679  0.3439  0.6196  0.3950
  841MOL0     C10908   8.154  11.633   9.649 -0.2106  0.8373  0.1886
  841MOL0     C10909   8.024  11.698   9.683 -0.0134  0.0730  0.3426
  841MOL0     O10910   8.023  11.829   9.706  0.0309 -0.3803  0.5566
  841MOL0     C10911   7.903  11.887   9.736  0.6813 -0.0786 -0.2919
  841MOL0     C10912   7.900  11.952   9.856  0.4370 -0.2694  0.5238
  841MOL0     C10913   7.780  12.009   9.898  0.9138  0.0968 -0.1786
  841MOL0     C10914   7.662  12.004   9.822 -0.4374  1.3430  0.1994
  841MOL0     O10915   7.549  12.032   9.894 -0.4864 -1.2979  0.3401
  841MOL0     C10916   7.418  12.022   9.824  0.6288  0.0446 -0.7746
  841MOL0     C10917   7.300  12.029   9.925 -0.3343  0.0175 -0.8349
  841MOL0     C10918   7.181  12.071   9.850  0.4003  0.6412 -0.3210
  841MOL0     C10919   7.115  11.970   9.753 -0.2137  0.6791 -0.6777
  841MOL0     C10920   7.000  12.031   9.672  0.5403 -0.3484 -0.6748
  841MOL0     C10921   6.868  12.014   9.745  0.3505  0.2960 -0.5777
  841MOL0     C10922   6.760  12.114   9.712 -0.0408 -0.3807  0.5292
  841MOL0     C10923   6.625  12.090   9.789  0.5039  0.6894 -0.0832
  841MOL0    Cl10924   6.495  12.194   9.728  0.0603 -0.0812 -0.2576
  841MOL0     C10925   7.664  11.949   9.695 -0.6229  0.3143  0.8556
  841MOL0     C10926   7.786  11.883   9.653  0.3886 -0.5125 -0.1235
  841MOL0     O10927   7.923  11.628   9.683  0.1690 -0.3744  0.2827
  841MOL0     C10928   8.252  11.712   9.589 -0.1578  0.2089 -0.3061
  841MOL0     C10929   8.365  11.650   9.536  0.2199 -0.5600  0.0763
  841MOL0     N10930   8.942  11.394   9.187  0.6298 -0.1984 -1.2964
  841MOL0     N10931   9.025  11.381   9.089  0.4201  0.1303  0.5458
  841MOL0     C10932  10.423  11.129   8.796  0.1308  0.0013  0.1065
  841MOL0     C10933  10.552  11.095   8.842  0.1718 -1.0089 -0.2701
  841MOL0     C10934  10.903  10.908   9.098  0.1273 -0.5178  0.5184
  841MOL0     C10935  10.971  10.911   9.222 -1.1022 -0.0912  0.1854
  841MOL0     C10936  11.115  10.922   9.224  0.4053  0.2591  0.3492
  841MOL0     C10937  11.183  10.949   9.105  0.3877  0.1555  0.0490
  841MOL0     O10938  11.319  10.952   9.102  0.3021  0.2298 -0.3679
  841MOL0     C10939  11.375  11.061   9.186  1.0548 -0.2267  0.4841
  841MOL0     C10940  11.476  11.153   9.119 -0.0068 -0.8736  0.4934
  841MOL0     C10941  11.586  11.084   9.037 -0.2253  0.8441  1.0484
  841MOL0     C10942  11.699  11.188   9.004  0.7452 -0.2481  0.5370
  841MOL0     C10943  11.821  11.130   8.954 -0.1792  0.9631  0.9109
  841MOL0     C10944  11.923  11.067   8.919  1.0135  0.1687  0.0542
  841MOL0     C10945  11.111  10.944   8.984  0.4475 -0.6747 -0.7703
  841MOL0     C10946  10.976  10.917   8.978 -0.2268 -0.6235 -0.7089
  841MOL0     H10947  10.461  10.933   9.131 -2.7773 -1.4130  0.3903
  841MOL0     H10948  10.250  10.995   9.057  0.2725  0.7854  0.4481
  841MOL0     H10949  10.100  11.162   9.012  1.8260 -0.9175  0.0577
  841MOL0     H10950  10.081  11.001   8.952  2.4779  1.0107 -0.1397
  841MOL0     H10951   9.923  11.066   8.784  3.2989  0.7317 -0.9611
  841MOL0     H10952   9.971  11.240   8.793 -1.0382  1.3351  0.2993
  841MOL0     H10953   9.881  11.241   9.013  0.5246  1.3714 -1.4545
  841MOL0     H10954   9.831  11.072   9.008  1.3037  1.0063  2.8572
  841MOL0     H10955   9.702  11.259   8.801 -1.5109 -0.2421 -1.4197
  841MOL0     H10956   9.650  11.100   8.860  0.9882  0.2069 -1.0285
  841MOL0     H10957   9.644  11.365   9.008 -0.6895  1.3915 -3.3564
  841MOL0     H10958   9.629  11.204   9.091  1.2922 -0.1804 -0.9475
  841MOL0     H10959   9.442  11.170   8.912  2.2713 -0.9299  0.3843
  841MOL0     H10960   9.439  11.343   8.897 -2.0626 -0.7329 -0.6290
  841MOL0     H10961   9.407  11.194   9.156 -1.9423 -0.2659 -0.2070
  841MOL0     H10962   9.403  11.374   9.127 -0.6055  2.1050 -2.3758
  841MOL0     H10963   9.204  11.154   9.019 -5.0597  1.5874 -1.2800
  841MOL0     H10964   9.221  11.314   8.943  0.2239  0.1479 -0.1218
  841MOL0     H10965   9.161  11.200   9.324  1.0718  0.4192  1.2036
  841MOL0     H10966   8.983  11.331   9.512 -0.1971 -1.2044  0.6536
  841MOL0     H10967   8.947  11.197   9.428 -0.0485  0.8816  0.9934
  841MOL0     H10968   8.726  11.270   9.491  1.1382  0.8175  1.3142
  841MOL0     H10969   8.720  11.340   9.329 -0.9484 -1.3786  0.6786
  841MOL0     H10970   8.793  11.482   9.588 -2.3316 -2.0038  0.7191
  841MOL0     H10971   8.824  11.551   9.424  0.6093 -1.3630 -1.0642
  841MOL0     H10972   8.587  11.588   9.384 -3.0787 -0.4508  0.9615
  841MOL0     H10973   8.631  11.640   9.538  3.5670  0.1939 -2.3635
  841MOL0     H10974   8.325  11.342   9.670 -0.8928 -0.6159 -2.8387
  841MOL0     H10975   8.105  11.437   9.720 -1.6113  2.0207 -0.8791
  841MOL0     H10976   7.991  11.954   9.916  0.4089  0.5790  0.5458
  841MOL0     H10977   7.763  12.061   9.992 -0.0050 -0.3266 -0.0960
  841MOL0     H10978   7.408  11.925   9.775  0.6080 -0.1319 -0.4276
  841MOL0     H10979   7.412  12.095   9.743  0.4395 -1.4883 -2.1875
  841MOL0     H10980   7.323  12.106   9.999 -0.9260  0.5542 -1.1955
  841MOL0     H10981   7.286  11.941   9.988  3.5724  0.3559  0.8048
  841MOL0     H10982   7.214  12.165   9.805  2.2712  0.1497 -0.0593
  841MOL0     H10983   7.107  12.076   9.930  0.4275 -2.1696 -0.0041
  841MOL0     H10984   7.192  11.948   9.678  1.5836 -0.3075  1.3523
  841MOL0     H10985   7.087  11.887   9.818  4.6388 -2.0419 -1.5726
  841MOL0     H10986   6.991  11.981   9.575 -0.4668 -0.7144 -0.4035
  841MOL0     H10987   7.017  12.135   9.643 -0.0211 -0.5012 -1.6049
  841MOL0     H10988   6.882  12.017   9.853 -0.4381  1.0638 -0.4895
  841MOL0     H10989   6.830  11.915   9.719 -0.7289  0.5124  0.1305
  841MOL0     H10990   6.798  12.216   9.722 -1.8192  0.6576 -2.1912
  841MOL0     H10991   6.723  12.104   9.609  3.0260  1.7215 -0.9111
  841MOL0     H10992   6.647  12.104   9.895  0.2135 -0.6125  0.1756
  841MOL0     H10993   6.593  11.985   9.778 -1.1259  1.3249 -2.1340
  841MOL0     H10994   7.574  11.943   9.636 -1.7947  3.6176  2.0856
  841MOL0     H10995   7.802  11.842   9.554 -0.0971 -0.4924 -0.2157
  841MOL0     H10996   8.235  11.817   9.570 -2.1102 -0.1115 -0.6120
  841MOL0     H10997   8.432  11.704   9.469  4.1864 -1.4679  2.9014
  841MOL0     H10998  10.411  11.184   8.703  0.3785  1.1577  0.7345
  841MOL0     H10999  10.636  11.131   8.784  1.2950 -1.0897  1.2476
  841MOL0     H11000  10.915  10.903   9.314  0.0736 -1.3128  0.8291
  841MOL0     H11001  11.176  10.918   9.314 -1.9122 -1.8863  1.9580
  841MOL0     H11002  11.426  11.008   9.267 -2.0214 -0.4106  2.4547
  841MOL0     H11003  11.293  11.117   9.233 -0.3106 -0.7334 -1.1810
  841MOL0     H11004  11.444  11.230   9.049  1.5323 -0.8433 -0.2150
  841MOL0     H11005  11.532  11.210   9.194 -0.6419  3.0017 -1.7502
  841MOL0     H11006  11.549  11.039   8.944  0.2067  2.0415  0.2715
  841MOL0     H11007  11.630  11.006   9.099  0.7468 -0.6205 -1.3371
  841MOL0     H11008  11.658  11.256   8.930  0.8759  0.3672  1.0235
  841MOL0     H11009  11.724  11.240   9.096  0.5349  0.7322  0.0496
  841MOL0     H11010  12.015  11.019   8.893  2.0017  1.4669  0.9896
  841MOL0     H11011  11.161  10.967   8.890 -1.3619 -3.7617 -2.6527
  841MOL0     H11012  10.917  10.920   8.887 -0.6516  2.2492 -0.4239
  842MOL0     O11013   1.905   6.284   6.572 -0.3920 -0.9519  0.0717
  842MOL0     C11014   1.956   6.179   6.538  0.6737  0.3295 -0.6012
  842MOL0     O11015   1.898   6.064   6.494  0.2560  0.6028 -0.3115
  842MOL0     C11016   1.762   6.053   6.495  0.2138  0.1309  0.4887
  842MOL0     C11017   1.691   6.066   6.615 -1.1137  0.5609  0.2122
  842MOL0     C11018   1.557   6.045   6.625  0.0440  0.2979 -0.2808
  842MOL0     C11019   1.480   6.005   6.512 -0.3284 -0.1858 -0.4542
  842MOL0     O11020   1.348   5.975   6.502 -0.4463 -0.1765  0.2313
  842MOL0     C11021   1.265   5.925   6.599 -0.6918 -0.0124  1.3442
  842MOL0     C11022   1.118   5.953   6.579  0.0296  0.2964  0.0862
  842MOL0     C11023   1.102   6.097   6.545 -0.1110  0.3400  1.0824
  842MOL0     C11024   1.153   6.200   6.643 -0.4401  0.1254  0.9902
  842MOL0     C11025   1.114   6.341   6.617  0.6120  0.2074  0.6264
  842MOL0     C11026   1.234   6.433   6.628  0.5845 -0.2123 -0.6534
  842MOL0     C11027   1.192   6.580   6.627  0.0587 -0.3416 -0.4301
  842MOL0     C11028   1.286   6.689   6.669  0.1988 -1.0464  0.0755
  842MOL0     N11029   1.418   6.688   6.604 -0.5759 -0.4624  0.3859
  842MOL0     C11030   1.537   6.678   6.674 -0.0998 -0.3650 -0.3596
  842MOL0     C11031   1.631   6.680   6.576 -0.5368 -0.7146 -0.6758
  842MOL0     C11032   1.773   6.642   6.595 -0.7516  0.0657  0.2278
  842MOL0     C11033   1.859   6.771   6.616 -0.4544  0.3575 -0.8613
  842MOL0     C11034   2.005   6.736   6.651 -1.5421 -0.4132 -0.2976
  842MOL0     C11035   2.081   6.649   6.544  1.2021 -0.8445 -0.1644
  842MOL0     O11036   2.222   6.630   6.565  0.3920  0.3111  0.0781
  842MOL0     C11037   2.307   6.729   6.592 -0.1474  1.0180  0.3169
  842MOL0     C11038   2.305   6.842   6.512  0.1901  0.1332 -0.3539
  842MOL0     C11039   2.404   6.939   6.529 -0.1347 -0.9004 -0.0336
  842MOL0     C11040   2.511   6.919   6.615 -1.0193  0.1576 -0.6529
  842MOL0     C11041   2.630   7.006   6.634  0.1659  0.2743  0.6539
  842MOL0     O11042   2.599   7.138   6.610  0.1063 -0.0553  0.6082
  842MOL0     C11043   2.700   7.224   6.607 -0.4458 -0.0589 -0.5664
  842MOL0     C11044   2.790   7.245   6.714 -0.2163  0.3357  0.6408
  842MOL0     C11045   2.913   7.326   6.700  0.7123  0.1755 -0.2165
  842MOL0     C11046   2.927   7.396   6.577  0.3309  0.7728 -1.0023
  842MOL0     O11047   3.027   7.488   6.567  0.3324  0.3066 -0.2307
  842MOL0     C11048   3.032   7.567   6.443  0.0415  0.1446  0.7950
  842MOL0     C11049   3.127   7.681   6.460  0.0283 -0.2921 -0.9622
  842MOL0     C11050   3.204   7.729   6.347 -0.9810 -0.2721 -0.2487
  842MOL0     C11051   3.230   7.877   6.357  0.7891  0.2931  0.4260
  842MOL0     C11052   3.315   7.919   6.228 -0.5753 -0.1347 -0.5227
  842MOL0     C11053   3.454   7.854   6.233  0.4895  0.1712 -0.5391
  842MOL0     C11054   3.546   7.942   6.156 -1.1571 -0.3032 -0.1988
  842MOL0     C11055   3.693   7.894   6.176 -0.6780 -0.6039  0.0672
  842MOL0    Cl11056   3.802   8.016   6.099  1.0860 -0.0512  0.4650
  842MOL0     C11057   2.830   7.387   6.481 -0.5863  0.7916  0.5621
  842MOL0     C11058   2.722   7.298   6.496 -0.2951  0.0950 -0.1120
  842MOL0     O11059   2.741   6.963   6.665 -0.2562  0.0269  0.2986
  842MOL0     C11060   2.508   6.807   6.701  0.3996  0.2808  0.2310
  842MOL0     C11061   2.412   6.706   6.681 -0.6764  0.2053 -1.1289
  842MOL0     N11062   1.571   6.695   6.452 -0.6444  0.8903  0.4677
  842MOL0     N11063   1.441   6.708   6.468 -0.2251 -0.1824  0.3420
  842MOL0     C11064   1.550   5.997   6.389 -0.5234 -0.7627 -0.0916
  842MOL0     C11065   1.690   6.023   6.377  0.9856 -0.0146  0.3092
  842MOL0     C11066   2.102   6.183   6.544 -0.2036  0.4778  0.2066
  842MOL0     C11067   2.178   6.291   6.584 -0.3884  0.3234 -0.1317
  842MOL0     C11068   2.319   6.289   6.598 -0.3559 -0.7547 -0.5754
  842MOL0     C11069   2.388   6.172   6.567  0.3935  1.6225 -0.0184
  842MOL0     O11070   2.515   6.146   6.602  0.7052 -0.2121  0.1055
  842MOL0     C11071   2.607   6.135   6.489 -0.4938 -0.3442  0.1362
  842MOL0     C11072   2.663   6.260   6.421  0.1899  0.3296  0.5619
  842MOL0     C11073   2.673   6.381   6.510 -0.0037 -0.5159 -0.2615
  842MOL0     C11074   2.741   6.375   6.644 -0.0406  0.0634 -0.9564
  842MOL0     C11075   2.873   6.311   6.637  0.0780  0.3401  0.5801
  842MOL0     C11076   2.988   6.265   6.629  0.1344  0.1965 -0.3874
  842MOL0     C11077   2.316   6.070   6.520  0.3715  0.7683 -0.1691
  842MOL0     C11078   2.178   6.071   6.511  0.3782  0.6119  0.6094
  842MOL0     H11079   1.745   6.102   6.702 -1.0178  0.3609  0.2361
  842MOL0     H11080   1.513   6.034   6.724 -0.2015  0.0174 -0.4211
  842MOL0     H11081   1.300   5.955   6.699  1.5116  1.1702  0.2834
  842MOL0     H11082   1.278   5.816   6.606  0.5785 -0.0391 -0.7169
  842MOL0     H11083   1.067   5.926   6.672 -2.4835 -2.6279 -1.9433
  842MOL0     H11084   1.080   5.884   6.503 -3.3598  0.4478  1.4728
  842MOL0     H11085   0.996   6.123   6.534  0.0298  0.4782 -0.1085
  842MOL0     H11086   1.150   6.132   6.453  1.2865  1.6635  2.2659
  842MOL0     H11087   1.103   6.168   6.735 -1.3253 -1.9110 -0.1202
  842MOL0     H11088   1.262   6.203   6.651 -0.1529  3.6059 -1.5869
  842MOL0     H11089   1.035   6.368   6.687 -0.0525 -1.8758  0.7399
  842MOL0     H11090   1.072   6.347   6.516  1.0808  1.9495  0.5018
  842MOL0     H11091   1.298   6.413   6.542 -0.1997 -1.3114 -1.0129
  842MOL0     H11092   1.288   6.409   6.720 -1.1769 -0.4129  0.3872
  842MOL0     H11093   1.151   6.600   6.527  1.2075 -2.7438 -1.4650
  842MOL0     H11094   1.110   6.597   6.697 -0.2111 -1.2971 -0.5063
  842MOL0     H11095   1.293   6.694   6.778 -4.2223  2.5751  0.4543
  842MOL0     H11096   1.250   6.790   6.648  0.1207 -0.6858  1.8052
  842MOL0     H11097   1.558   6.648   6.775 -0.9448 -2.2356 -0.6999
  842MOL0     H11098   1.815   6.596   6.505  1.5865  1.2077  0.6696
  842MOL0     H11099   1.769   6.574   6.681 -0.9376 -1.5525 -1.0029
  842MOL0     H11100   1.816   6.841   6.688 -0.0749  0.2355 -0.5154
  842MOL0     H11101   1.867   6.827   6.522 -1.3224  1.1215 -0.5000
  842MOL0     H11102   2.067   6.826   6.652  0.7169 -1.8976  0.0183
  842MOL0     H11103   2.013   6.690   6.750 -0.5314  0.5528  0.0859
  842MOL0     H11104   2.075   6.687   6.441  0.1619 -0.1976  0.1183
  842MOL0     H11105   2.027   6.554   6.537  0.4096 -0.3066 -3.2128
  842MOL0     H11106   2.236   6.857   6.431  2.7922  3.6205 -2.1758
  842MOL0     H11107   2.403   7.028   6.467 -2.1621 -0.1654  0.9973
  842MOL0     H11108   2.770   7.188   6.804 -3.1842  0.3424  0.0843
  842MOL0     H11109   2.987   7.341   6.778  2.0326  0.7344 -1.5360
  842MOL0     H11110   2.932   7.599   6.411 -0.4385 -0.7439  1.3836
  842MOL0     H11111   3.085   7.511   6.365  0.7560  0.9407  0.6931
  842MOL0     H11112   3.187   7.665   6.550 -1.1235  2.1147  0.3440
  842MOL0     H11113   3.060   7.762   6.492  0.4175 -0.5325  0.5377
  842MOL0     H11114   3.156   7.705   6.252 -0.1479 -1.5021 -0.3777
  842MOL0     H11115   3.298   7.674   6.336 -0.1471  0.7774  1.2787
  842MOL0     H11116   3.144   7.944   6.352  1.4329  1.1568  0.7234
  842MOL0     H11117   3.281   7.894   6.452 -2.5190  0.2439  2.3808
  842MOL0     H11118   3.327   8.027   6.231 -3.1436  0.2052  0.6214
  842MOL0     H11119   3.267   7.903   6.131 -0.6469 -2.6322 -0.1422
  842MOL0     H11120   3.463   7.758   6.181 -0.3584 -1.3507  1.8949
  842MOL0     H11121   3.481   7.845   6.339  0.0894  0.7984 -0.3800
  842MOL0     H11122   3.525   7.942   6.048 -1.2689  1.2258 -0.2006
  842MOL0     H11123   3.539   8.041   6.202  1.5174 -1.5097  3.1983
  842MOL0     H11124   3.702   7.793   6.135 -1.0976 -0.1557 -1.1604
  842MOL0     H11125   3.716   7.884   6.283  0.3750 -0.1546 -0.1062
  842MOL0     H11126   2.845   7.415   6.377 -0.6442  0.2082  0.3913
  842MOL0     H11127   2.650   7.294   6.415 -1.1791 -0.1983  0.6733
  842MOL0     H11128   2.594   6.770   6.756 -1.0549 -2.2915  0.9457
  842MOL0     H11129   2.430   6.614   6.736  3.4392  1.4549 -0.0071
  842MOL0     H11130   1.491   5.965   6.304  0.4558 -0.4751 -0.8963
  842MOL0     H11131   1.733   6.030   6.278 -1.5146  3.4315 -0.7220
  842MOL0     H11132   2.127   6.383   6.612 -1.2103  0.2551 -1.3386
  842MOL0     H11133   2.370   6.382   6.618 -1.9166  0.5261 -2.1564
  842MOL0     H11134   2.565   6.074   6.409 -1.1019  0.6605 -0.3343
  842MOL0     H11135   2.684   6.077   6.540  0.5920 -0.0819 -1.1453
  842MOL0     H11136   2.763   6.233   6.387 -0.2746 -0.5739 -0.1449
  842MOL0     H11137   2.612   6.283   6.326  3.1576  0.8887 -1.0288
  842MOL0     H11138   2.569   6.404   6.533  0.5893 -0.7542  3.1397
  842MOL0     H11139   2.724   6.455   6.447  1.7294 -0.5799  0.9776
  842MOL0     H11140   2.757   6.481   6.665  1.1279 -0.0576 -1.1793
  842MOL0     H11141   2.676   6.318   6.712  2.7422 -1.4703  0.6406
  842MOL0     H11142   3.082   6.229   6.593  0.8254 -1.1122  2.4676
  842MOL0     H11143   2.368   5.974   6.521 -1.3590 -0.2331 -1.1238
  842MOL0     H11144   2.135   5.974   6.488  2.1231 -0.1025  0.2107
  843MOL0     O11145   1.173   4.586   9.762  0.3160 -0.0816  0.0751
  843MOL0     C11146   1.109   4.490   9.725 -0.5124 -0.2391  0.1510
  843MOL0     O11147   1.110   4.443   9.598  0.5061  0.0317 -0.2100
  843MOL0     C11148   1.220   4.460   9.511  0.9389  0.3224  0.2740
  843MOL0     C11149   1.344   4.452   9.565 -0.8441 -0.2610  0.4067
  843MOL0     C11150   1.450   4.447   9.474 -0.7702 -0.6014  0.2897
  843MOL0     C11151   1.436   4.456   9.338  0.0793 -0.3616  1.3348
  843MOL0     O11152   1.551   4.465   9.261  0.0020 -0.5075 -0.5964
  843MOL0     C11153   1.575   4.558   9.155  0.2456 -0.3777  0.2328
  843MOL0     C11154   1.725   4.570   9.105 -1.4680 -0.5889 -0.1208
  843MOL0     C11155   1.836   4.573   9.219 -0.3535 -0.7128  0.2500
  843MOL0     C11156   1.967   4.646   9.175  0.3855 -1.3221 -0.9114
  843MOL0     C11157   2.087   4.597   9.254 -0.0201  0.9351 -0.5473
  843MOL0     C11158   2.078   4.664   9.395  0.0641 -1.0036 -1.2021
  843MOL0     C11159   2.193   4.618   9.495 -0.2664  0.5478  0.5705
  843MOL0     C11160   2.206   4.698   9.611  1.0035 -0.5539 -0.7413
  843MOL0     N11161   2.101   4.682   9.713 -1.3219 -0.2150 -0.8540
  843MOL0     C11162   2.001   4.772   9.749 -0.6576 -0.5648  0.0571
  843MOL0     C11163   1.952   4.738   9.871  0.3396 -0.1128  0.3152
  843MOL0     C11164   1.826   4.790   9.929  0.2609  0.3677  0.0964
  843MOL0     C11165   1.825   4.943   9.959  0.5262 -0.6132 -0.5414
  843MOL0     C11166   1.695   4.985  10.023  0.8748 -0.9286 -0.0788
  843MOL0     C11167   1.677   4.956  10.172 -0.5679 -0.1614  0.1346
  843MOL0     O11168   1.782   5.041  10.238  0.1981 -0.0339  1.4144
  843MOL0     C11169   1.798   5.035  10.370 -0.8812 -1.0082  0.1488
  843MOL0     C11170   1.928   5.082  10.413  0.5744 -0.2259  0.9069
  843MOL0     C11171   1.961   5.048  10.542 -0.8663 -0.1419  0.2116
  843MOL0     C11172   1.871   5.025  10.645  0.1108 -0.8558  0.1831
  843MOL0     C11173   1.904   5.030  10.791  0.2139 -1.4626  0.4075
  843MOL0     O11174   1.813   5.105  10.868 -0.1024  0.1657  0.0781
  843MOL0     C11175   1.743   5.040  10.968  0.5708 -0.1904 -0.1200
  843MOL0     C11176   1.757   4.903  11.006 -0.9552  0.1617 -0.5446
  843MOL0     C11177   1.676   4.851  11.113 -0.5080  0.8414  0.3207
  843MOL0     C11178   1.583   4.930  11.178 -0.0130  0.0499  0.1445
  843MOL0     O11179   1.516   4.865  11.277 -0.1930 -0.0283 -0.3706
  843MOL0     C11180   1.492   4.941  11.404  0.3865  0.4929  0.6352
  843MOL0     C11181   1.447   4.858  11.517  0.5043 -0.3958 -0.4087
  843MOL0     C11182   1.310   4.792  11.496 -0.5771  0.3339  0.0429
  843MOL0     C11183   1.265   4.692  11.595 -0.1166 -0.3050  0.6930
  843MOL0     C11184   1.122   4.642  11.565  1.1707  0.6830  0.5257
  843MOL0     C11185   1.066   4.570  11.679  0.1417  0.7619 -0.0332
  843MOL0     C11186   0.913   4.545  11.657 -0.2396  0.2458  0.1706
  843MOL0     C11187   0.844   4.495  11.786 -0.2645  0.9454 -0.2018
  843MOL0    Cl11188   0.657   4.455  11.793 -0.8195  0.0360 -0.0866
  843MOL0     C11189   1.574   5.061  11.149 -0.3064 -1.4545 -0.6063
  843MOL0     C11190   1.649   5.114  11.042 -0.7991  0.4323 -0.3839
  843MOL0     O11191   2.004   4.982  10.832 -0.8491 -0.4438 -0.5135
  843MOL0     C11192   1.746   4.983  10.604  0.1236 -0.4308  0.1648
  843MOL0     C11193   1.708   4.989  10.466  0.4690 -0.3804  0.1454
  843MOL0     N11194   2.030   4.631   9.910  0.5361  0.3449 -0.0729
  843MOL0     N11195   2.121   4.601   9.818  0.5327  0.6365  1.4739
  843MOL0     C11196   1.312   4.478   9.287  0.5409  0.1202 -0.6704
  843MOL0     C11197   1.200   4.475   9.373 -0.6076 -0.0809  0.6183
  843MOL0     C11198   1.022   4.421   9.814  0.6153  0.3284  0.5404
  843MOL0     C11199   0.970   4.293   9.787 -0.0142  0.1068  0.3213
  843MOL0     C11200   0.890   4.228   9.879 -0.6907  0.1755 -0.2891
  843MOL0     C11201   0.848   4.291  10.000 -0.5782 -0.7743  0.9261
  843MOL0     O11202   0.775   4.228  10.104 -0.5986  0.5460 -0.0201
  843MOL0     C11203   0.718   4.099  10.066 -0.1633 -0.8016  0.4165
  843MOL0     C11204   0.627   4.058  10.176  0.0237  0.5271 -0.6043
  843MOL0     C11205   0.512   3.964  10.148  0.5394  0.6778 -0.3402
  843MOL0     C11206   0.367   4.032  10.119 -0.9118 -0.3713  0.3102
  843MOL0     C11207   0.252   3.948  10.140 -0.1198  0.2386  0.2659
  843MOL0     C11208   0.141   3.894  10.154 -0.2063 -0.1906  0.6275
  843MOL0     C11209   0.912   4.410  10.034 -0.0336 -0.9844  0.0216
  843MOL0     C11210   0.995   4.478   9.940  0.3950  0.1640 -0.6275
  843MOL0     H11211   1.377   4.447   9.668  4.0850  2.8517 -0.6786
  843MOL0     H11212   1.546   4.432   9.523 -0.0878 -1.4790 -1.2472
  843MOL0     H11213   1.546   4.657   9.191 -1.1867 -1.0030  0.8849
  843MOL0     H11214   1.516   4.535   9.065  2.4384 -4.6899 -0.4143
  843MOL0     H11215   1.718   4.665   9.051 -4.3059 -0.1773  0.7743
  843MOL0     H11216   1.753   4.485   9.043 -1.2353  0.0847 -0.9513
  843MOL0     H11217   1.858   4.472   9.255 -2.8892 -1.2250  0.6081
  843MOL0     H11218   1.798   4.633   9.303  1.2457 -0.1732  0.6161
  843MOL0     H11219   1.979   4.618   9.070 -4.3289 -1.3791 -1.6400
  843MOL0     H11220   1.949   4.753   9.186 -2.3609 -1.5589 -2.2230
  843MOL0     H11221   2.177   4.628   9.201  0.2022  0.9238 -0.1826
  843MOL0     H11222   2.092   4.489   9.269  0.3229  0.6339 -2.5537
  843MOL0     H11223   1.980   4.648   9.441  0.8837 -3.3636 -0.1455
  843MOL0     H11224   2.097   4.770   9.376 -1.1390  0.1835  3.0877
  843MOL0     H11225   2.161   4.514   9.508  1.2214 -0.2266 -1.3387
  843MOL0     H11226   2.286   4.601   9.438 -1.1652 -0.7741 -0.5892
  843MOL0     H11227   2.203   4.805   9.590  1.8202  0.9185  4.9769
  843MOL0     H11228   2.303   4.680   9.657  1.0670  0.8294 -0.2992
  843MOL0     H11229   1.958   4.856   9.696 -1.7729 -0.3306  1.2715
  843MOL0     H11230   1.811   4.737  10.024 -0.6600 -0.3686 -0.4452
  843MOL0     H11231   1.746   4.761   9.862 -0.8132  1.3377  0.9088
  843MOL0     H11232   1.842   4.997   9.865 -0.4226  1.8786  0.6265
  843MOL0     H11233   1.911   4.949  10.027  0.4947 -3.2783 -0.1602
  843MOL0     H11234   1.691   5.094  10.026 -0.7258 -0.9891  0.8041
  843MOL0     H11235   1.615   4.937   9.965  3.3498 -2.3447 -2.5945
  843MOL0     H11236   1.712   4.853  10.183  2.3434  0.9072  1.7933
  843MOL0     H11237   1.579   4.959  10.222  0.0924 -0.3642  1.4770
  843MOL0     H11238   1.996   5.124  10.340 -2.1907 -1.7504 -2.9216
  843MOL0     H11239   2.057   5.081  10.580 -0.8108 -1.0022  0.8643
  843MOL0     H11240   1.831   4.831  10.972  1.3033  1.8703  0.5122
  843MOL0     H11241   1.684   4.745  11.135  0.4964  0.1553 -2.7823
  843MOL0     H11242   1.411   5.012  11.387 -0.2545 -0.5354 -0.8814
  843MOL0     H11243   1.582   4.983  11.451  1.3001  0.5361 -1.0643
  843MOL0     H11244   1.445   4.910  11.613 -1.3274  0.3054 -0.7898
  843MOL0     H11245   1.531   4.788  11.525 -0.2984 -1.2036  1.4772
  843MOL0     H11246   1.307   4.739  11.401  5.1663 -1.5894  0.5071
  843MOL0     H11247   1.234   4.870  11.495 -1.5407 -0.5953 -0.2818
  843MOL0     H11248   1.338   4.612  11.609 -0.8471 -1.3448 -1.1950
  843MOL0     H11249   1.268   4.752  11.687  1.6822 -0.2792  0.6660
  843MOL0     H11250   1.121   4.589  11.470 -1.3698  1.6910 -0.1061
  843MOL0     H11251   1.055   4.726  11.543  2.0242  1.9580  2.4952
  843MOL0     H11252   1.075   4.619  11.776  1.3078 -0.1825  0.3629
  843MOL0     H11253   1.123   4.476  11.676  0.1280  0.7819 -1.4633
  843MOL0     H11254   0.870   4.640  11.626  2.4710  0.9713 -1.7392
  843MOL0     H11255   0.893   4.479  11.571 -1.5227  0.4231  0.3218
  843MOL0     H11256   0.866   4.560  11.871  1.9130 -0.3381  0.2952
  843MOL0     H11257   0.899   4.402  11.800  0.6583  1.6498  0.9700
  843MOL0     H11258   1.501   5.126  11.196  0.2598 -1.2113 -0.0326
  843MOL0     H11259   1.626   5.215  11.009 -0.9341  0.4566 -0.2156
  843MOL0     H11260   1.669   4.957  10.675 -1.5243  2.7962 -0.2135
  843MOL0     H11261   1.614   4.949  10.427 -0.1955  0.8739  0.4076
  843MOL0     H11262   1.297   4.485   9.180 -0.8842  0.7376 -0.4538
  843MOL0     H11263   1.106   4.477   9.319  0.9734  3.0775 -2.4001
  843MOL0     H11264   0.995   4.253   9.690  0.6966 -0.1578  0.6035
  843MOL0     H11265   0.855   4.134   9.839  2.0778 -0.1456 -2.2708
  843MOL0     H11266   0.796   4.024  10.049 -1.0858 -1.5902 -0.4904
  843MOL0     H11267   0.655   4.111   9.977 -2.2850  1.9701  2.1063
  843MOL0     H11268   0.693   4.010  10.249  1.9369 -0.1011 -2.6252
  843MOL0     H11269   0.585   4.149  10.220 -4.3210 -1.1604 -0.7688
  843MOL0     H11270   0.494   3.891  10.227 -2.0360 -1.4287 -2.6823
  843MOL0     H11271   0.533   3.897  10.064 -0.9990 -2.7714  1.8046
  843MOL0     H11272   0.351   4.114  10.189  0.2322 -0.5229  0.7686
  843MOL0     H11273   0.369   4.082  10.022 -4.2164  1.8867  1.2456
  843MOL0     H11274   0.054   3.845  10.193  0.8435  0.1899  3.7639
  843MOL0     H11275   0.888   4.456  10.129 -3.9393  0.0668 -1.2706
  843MOL0     H11276   1.034   4.576   9.966  0.7299 -0.6133  2.1786
  844MOL0     O11277   9.965   8.526   4.881  0.4409 -0.1156  0.5716
  844MOL0     C11278   9.982   8.523   5.005  0.9663 -0.3386  0.7241
  844MOL0     O11279   9.883   8.495   5.101 -0.3456  0.0446  0.1979
  844MOL0     C11280   9.752   8.526   5.067 -0.7930  0.1865  0.1435
  844MOL0     C11281   9.695   8.630   5.138  0.2983  0.4213  0.6983
  844MOL0     C11282   9.566   8.660   5.108  0.5168 -0.1903  0.1375
  844MOL0     C11283   9.489   8.574   5.025  0.4208 -0.6742 -0.8684
  844MOL0     O11284   9.367   8.609   4.970  0.2904  0.1387  0.8691
  844MOL0     C11285   9.254   8.583   5.051  0.2763  1.0519  0.2052
  844MOL0     C11286   9.128   8.668   5.001 -0.0808 -0.0323 -0.5839
  844MOL0     C11287   9.005   8.650   5.089  0.3382 -0.0669  0.3286
  844MOL0     C11288   8.881   8.714   5.013  0.0867 -0.1346 -0.3637
  844MOL0     C11289   8.743   8.668   5.052 -0.1598 -0.2441 -0.7929
  844MOL0     C11290   8.716   8.673   5.204  0.3449 -0.0323 -0.2684
  844MOL0     C11291   8.577   8.636   5.235  0.5860  0.4215  0.3461
  844MOL0     C11292   8.519   8.700   5.359 -1.1246  0.0301 -0.4197
  844MOL0     N11293   8.502   8.849   5.346  0.3400  0.0240  0.3685
  844MOL0     C11294   8.532   8.941   5.434  0.7078 -0.7394 -0.3408
  844MOL0     C11295   8.487   9.061   5.382  0.6965  0.3826 -0.1301
  844MOL0     C11296   8.489   9.198   5.449 -0.4451 -0.4600  0.0011
  844MOL0     C11297   8.346   9.225   5.504  0.2730  0.0941 -0.1649
  844MOL0     C11298   8.331   9.161   5.641  0.0476  0.5216  0.6124
  844MOL0     C11299   8.199   9.180   5.713 -0.5563 -0.8008  0.1276
  844MOL0     O11300   8.189   9.118   5.844  0.6670  0.6525  0.2225
  844MOL0     C11301   8.094   9.163   5.927  0.3161 -0.0478  0.5166
  844MOL0     C11302   8.102   9.292   5.991 -0.5744  0.3451  0.4774
  844MOL0     C11303   8.005   9.326   6.080  0.9505 -0.7864 -0.4905
  844MOL0     C11304   7.901   9.240   6.112  0.2548  0.7942  0.8819
  844MOL0     C11305   7.806   9.280   6.220 -0.5264 -1.6322 -0.4123
  844MOL0     O11306   7.846   9.396   6.301  0.7722  0.6990  0.5252
  844MOL0     C11307   7.760   9.470   6.380  0.3979  0.7405 -0.3460
  844MOL0     C11308   7.671   9.407   6.464  0.5911 -0.3498  0.2590
  844MOL0     C11309   7.574   9.487   6.524  0.8605  0.3605 -0.4756
  844MOL0     C11310   7.592   9.628   6.530 -0.4289  0.4608 -1.0889
  844MOL0     O11311   7.513   9.709   6.605  0.5137 -0.1424 -0.6815
  844MOL0     C11312   7.372   9.674   6.608  1.0646 -0.1868  0.8177
  844MOL0     C11313   7.311   9.696   6.476 -0.1558  0.5806  1.0297
  844MOL0     C11314   7.173   9.757   6.487 -0.2399 -0.3991 -0.7800
  844MOL0     C11315   7.055   9.682   6.550  0.4671 -0.2983 -0.8895
  844MOL0     C11316   6.917   9.749   6.551 -0.2385 -0.1715  0.3094
  844MOL0     C11317   6.796   9.652   6.571  0.3773  0.7941  1.0809
  844MOL0     C11318   6.654   9.716   6.560  1.0492 -0.6585 -0.8384
  844MOL0     C11319   6.560   9.676   6.448  0.4382  1.0184  0.1824
  844MOL0    Cl11320   6.400   9.760   6.473  0.0496 -0.0702 -0.2137
  844MOL0     C11321   7.695   9.688   6.458  0.3284 -0.0415 -0.1854
  844MOL0     C11322   7.780   9.615   6.377  1.3692  0.2781  1.2767
  844MOL0     O11323   7.695   9.231   6.229 -1.4118 -0.0154  0.3015
  844MOL0     C11324   7.888   9.114   6.047  1.0188 -0.6826  0.7830
  844MOL0     C11325   7.989   9.075   5.957  0.1803 -0.2380 -1.1326
  844MOL0     N11326   8.411   9.025   5.269 -0.5033 -0.8748  0.2187
  844MOL0     N11327   8.426   8.905   5.243  0.0961 -0.5503 -0.4858
  844MOL0     C11328   9.546   8.472   4.957 -1.0107 -0.2591 -0.3273
  844MOL0     C11329   9.678   8.444   4.978  0.1364 -0.9782 -0.8033
  844MOL0     C11330  10.116   8.550   5.056 -0.1386 -0.1271  0.9238
  844MOL0     C11331  10.138   8.594   5.186 -0.0212  0.6749 -0.5416
  844MOL0     C11332  10.262   8.636   5.225 -0.7320  0.5467 -0.3265
  844MOL0     C11333  10.367   8.639   5.134  0.4388  0.4689  0.2239
  844MOL0     O11334  10.485   8.711   5.146  0.4081  0.0303  0.2121
  844MOL0     C11335  10.504   8.828   5.234 -0.3778 -0.0457  1.0010
  844MOL0     C11336  10.538   8.790   5.383  0.6048 -0.0584  0.8982
  844MOL0     C11337  10.672   8.716   5.394  0.1583  0.3732 -0.6286
  844MOL0     C11338  10.730   8.721   5.538 -0.4495  0.3118 -0.1573
  844MOL0     C11339  10.869   8.705   5.527  0.3375 -1.0479 -0.2987
  844MOL0     C11340  10.988   8.679   5.533  0.1619  0.0051  0.2435
  844MOL0     C11341  10.350   8.583   5.011 -0.4125 -0.2964  0.5704
  844MOL0     C11342  10.224   8.553   4.969  0.2643 -0.3135 -0.6806
  844MOL0     H11343   9.749   8.693   5.208  0.0636  0.3280  0.9651
  844MOL0     H11344   9.501   8.741   5.138 -2.0420 -1.7981 -0.7545
  844MOL0     H11345   9.266   8.619   5.154  1.8083 -0.6556  0.6614
  844MOL0     H11346   9.232   8.476   5.048  1.5748  0.7851 -0.0456
  844MOL0     H11347   9.100   8.641   4.899  1.5112  3.7415 -2.1719
  844MOL0     H11348   9.158   8.773   5.004 -0.2491  0.0203 -0.7241
  844MOL0     H11349   9.017   8.703   5.184 -0.0374  0.2782  0.1854
  844MOL0     H11350   8.979   8.546   5.110 -0.3054 -0.7525 -3.2374
  844MOL0     H11351   8.889   8.821   5.034  2.2082 -0.3907  0.3281
  844MOL0     H11352   8.884   8.685   4.908 -2.7797 -0.7988 -0.3620
  844MOL0     H11353   8.718   8.568   5.017 -2.7998  0.0675 -0.0253
  844MOL0     H11354   8.678   8.734   4.994  1.5221  1.0127 -1.3348
  844MOL0     H11355   8.731   8.780   5.220  0.0298  0.0875 -0.7445
  844MOL0     H11356   8.780   8.605   5.260 -0.7192  1.1893  2.6485
  844MOL0     H11357   8.517   8.675   5.151  0.1409  0.5658  0.7223
  844MOL0     H11358   8.565   8.528   5.230  0.9029  0.4363 -1.2824
  844MOL0     H11359   8.591   8.670   5.435 -0.2132 -1.2117 -1.7119
  844MOL0     H11360   8.422   8.654   5.379 -1.0269  0.4888  1.2281
  844MOL0     H11361   8.585   8.928   5.528 -0.3159  3.9867  1.1898
  844MOL0     H11362   8.503   9.272   5.370 -1.0010 -1.4004 -1.0179
  844MOL0     H11363   8.581   9.201   5.508  0.8920 -0.0554 -2.0065
  844MOL0     H11364   8.273   9.194   5.429 -1.3253 -2.1282  2.1275
  844MOL0     H11365   8.343   9.334   5.507  3.1442  0.2541 -0.1574
  844MOL0     H11366   8.351   9.053   5.645  2.4341  0.9542  3.0881
  844MOL0     H11367   8.415   9.197   5.701 -1.0037  1.2004  1.7363
  844MOL0     H11368   8.106   9.151   5.662 -0.8007  0.3230 -0.0982
  844MOL0     H11369   8.181   9.286   5.732  2.0020 -0.3918  0.5517
  844MOL0     H11370   8.183   9.360   5.968  0.5096 -1.3353 -0.9610
  844MOL0     H11371   8.014   9.422   6.129  1.1401  0.5244 -2.9407
  844MOL0     H11372   7.662   9.299   6.464  1.1065 -0.3974 -0.3755
  844MOL0     H11373   7.496   9.441   6.583  0.3991  1.8710  0.1455
  844MOL0     H11374   7.335   9.754   6.673  2.9831  3.1455 -1.8947
  844MOL0     H11375   7.354   9.576   6.654  0.2361 -1.5011 -2.0570
  844MOL0     H11376   7.310   9.598   6.426 -1.4304  0.1907  1.7498
  844MOL0     H11377   7.358   9.773   6.414  0.5489  0.1841  1.0607
  844MOL0     H11378   7.136   9.778   6.386 -0.3862  3.1911 -0.0895
  844MOL0     H11379   7.196   9.853   6.534  4.0229 -2.1749  1.2615
  844MOL0     H11380   7.045   9.590   6.490 -2.8511 -0.9096  0.4185
  844MOL0     H11381   7.094   9.648   6.646  2.1083  1.4086 -0.8891
  844MOL0     H11382   6.895   9.792   6.453  0.4470 -0.4053  0.0504
  844MOL0     H11383   6.915   9.825   6.630 -2.4839 -2.3076  2.4869
  844MOL0     H11384   6.814   9.594   6.662 -2.9414  0.3073  1.5435
  844MOL0     H11385   6.805   9.578   6.491 -1.9368 -1.6485  2.9302
  844MOL0     H11386   6.611   9.676   6.653 -0.8202 -5.6777 -3.5335
  844MOL0     H11387   6.645   9.825   6.563 -3.9799 -0.8285  2.5050
  844MOL0     H11388   6.538   9.569   6.455  1.6513  0.8377  1.7176
  844MOL0     H11389   6.601   9.695   6.349  3.4461  2.6397  1.6171
  844MOL0     H11390   7.716   9.795   6.463  2.8388 -0.4373 -1.2190
  844MOL0     H11391   7.853   9.671   6.320 -1.0819 -0.8768 -3.4510
  844MOL0     H11392   7.807   9.053   6.086 -0.9620  0.2528 -1.6324
  844MOL0     H11393   7.988   8.974   5.917  3.5871 -2.3981  3.3799
  844MOL0     H11394   9.489   8.406   4.893 -1.1417  1.2327 -1.8464
  844MOL0     H11395   9.727   8.356   4.939 -1.6899 -2.1819 -0.5037
  844MOL0     H11396  10.062   8.598   5.264  0.3638 -0.9059 -0.0566
  844MOL0     H11397  10.286   8.660   5.327  0.7682 -5.4553  1.1665
  844MOL0     H11398  10.420   8.898   5.229  1.6892  2.4890 -1.0992
  844MOL0     H11399  10.585   8.884   5.188 -1.2822  0.7312  0.3060
  844MOL0     H11400  10.530   8.883   5.439 -0.1045  0.2068  0.3774
  844MOL0     H11401  10.463   8.718   5.417  3.6665 -2.8656  2.2227
  844MOL0     H11402  10.739   8.767   5.325  0.2841 -2.7937 -3.0806
  844MOL0     H11403  10.657   8.612   5.362 -0.2999 -0.0210  0.7758
  844MOL0     H11404  10.705   8.814   5.591 -0.2115  0.8931 -1.0428
  844MOL0     H11405  10.703   8.633   5.597  1.1881 -0.2449 -0.1870
  844MOL0     H11406  11.089   8.645   5.535 -0.0702 -0.7092  0.0961
  844MOL0     H11407  10.433   8.578   4.941 -1.6118 -0.2361 -0.8970
  844MOL0     H11408  10.214   8.505   4.873  1.7798  0.2709 -1.1454
  845MOL0     O11409   0.258   9.275   3.868  0.3836 -0.6386  0.0087
  845MOL0     C11410   0.295   9.298   3.983 -0.0988  1.0495 -0.3603
  845MOL0     O11411   0.210   9.345   4.078 -0.5000  0.2680 -0.7356
  845MOL0     C11412   0.072   9.352   4.058  0.0170  0.5208  0.8513
  845MOL0     C11413  -0.010   9.257   3.994  0.2159  0.6044  0.0369
  845MOL0     C11414  -0.152   9.261   4.002  0.2736  0.3466 -0.2454
  845MOL0     C11415  -0.213   9.363   4.063  0.3666  1.1123 -0.2735
  845MOL0     O11416  -0.344   9.382   4.067  0.0740  0.1881 -1.0992
  845MOL0     C11417  -0.423   9.268   4.050 -1.0012 -0.0742  0.1168
  845MOL0     C11418  -0.475   9.261   3.904  0.3143  0.7234 -0.3952
  845MOL0     C11419  -0.561   9.138   3.888  0.3489 -0.1476  0.1669
  845MOL0     C11420  -0.696   9.132   3.964  0.7023 -0.7414 -0.1326
  845MOL0     C11421  -0.769   9.001   3.936 -0.0154  0.1755  0.3505
  845MOL0     C11422  -0.908   8.989   4.006 -0.9483 -0.4912  0.5681
  845MOL0     C11423  -0.982   8.860   3.979  0.2208 -0.5629  0.1162
  845MOL0     C11424  -1.108   8.841   4.063 -0.1147 -0.1908  0.0632
  845MOL0     N11425  -1.194   8.961   4.072  0.4826 -0.0351  0.4058
  845MOL0     C11426  -1.175   9.073   4.154 -0.2460  0.8656 -0.0735
  845MOL0     C11427  -1.257   9.163   4.100 -0.0758  0.1192 -0.6035
  845MOL0     C11428  -1.268   9.297   4.151 -0.1066 -0.7565  0.3208
  845MOL0     C11429  -1.147   9.397   4.122 -0.3167  0.7917  0.1119
  845MOL0     C11430  -1.158   9.464   3.982  0.9100 -0.2309  1.0785
  845MOL0     C11431  -1.038   9.521   3.917  0.2067  0.6494  0.1936
  845MOL0     O11432  -0.925   9.526   4.007  0.4965  0.9236 -0.2482
  845MOL0     C11433  -0.799   9.564   3.958  0.0309  0.0525 -0.6748
  845MOL0     C11434  -0.770   9.617   3.825  0.2062  0.7525  0.1213
  845MOL0     C11435  -0.636   9.651   3.802 -0.4135 -0.3384 -0.7462
  845MOL0     C11436  -0.532   9.650   3.897  0.3169  0.8875  0.2556
  845MOL0     C11437  -0.396   9.687   3.867  0.5637  0.0377  1.0556
  845MOL0     O11438  -0.341   9.644   3.752 -0.5326 -0.0694  0.0563
  845MOL0     C11439  -0.207   9.654   3.748  0.9737 -0.5389  0.7888
  845MOL0     C11440  -0.123   9.551   3.771  0.9959  0.6167  0.3492
  845MOL0     C11441   0.021   9.553   3.760  0.2206  0.2144  0.6140
  845MOL0     C11442   0.075   9.663   3.698  0.5924  0.1754 -0.3385
  845MOL0     O11443   0.201   9.692   3.662 -0.2857  0.2553  0.1469
  845MOL0     C11444   0.300   9.600   3.719 -0.1690 -0.7471  0.0032
  845MOL0     C11445   0.428   9.681   3.706  0.2198  0.2435 -0.3591
  845MOL0     C11446   0.541   9.614   3.780  0.8485 -0.7660 -0.0007
  845MOL0     C11447   0.669   9.686   3.758 -0.2417  0.1433 -0.0795
  845MOL0     C11448   0.791   9.603   3.801 -0.1237  0.4518  0.5125
  845MOL0     C11449   0.939   9.671   3.770 -0.5087 -0.3436  0.0165
  845MOL0     C11450   1.046   9.600   3.857  0.2957  1.3119 -0.3690
  845MOL0     C11451   1.190   9.653   3.831 -0.3758  0.4914 -0.0726
  845MOL0    Cl11452   1.294   9.646   3.985  0.0690  0.0240 -0.4403
  845MOL0     C11453  -0.013   9.769   3.660 -0.6087 -0.3014  0.5882
  845MOL0     C11454  -0.153   9.763   3.687  0.0652 -0.2594 -0.8575
  845MOL0     O11455  -0.344   9.745   3.955  0.1373  0.2481  0.0506
  845MOL0     C11456  -0.566   9.602   4.019 -0.4356  0.2514 -0.3983
  845MOL0     C11457  -0.693   9.559   4.052  0.3055  0.9647 -0.1746
  845MOL0     N11458  -1.332   9.102   4.007  0.7622  0.1309  0.0658
  845MOL0     N11459  -1.300   8.977   3.993  0.0150  0.4559  0.9039
  845MOL0     C11460  -0.134   9.452   4.138  0.4810  0.4554 -0.2540
  845MOL0     C11461   0.005   9.445   4.131 -0.4523  0.2816 -0.3940
  845MOL0     C11462   0.440   9.293   3.997  0.5244  0.3198 -1.2504
  845MOL0     C11463   0.527   9.247   3.892  0.3342 -0.3617 -0.3047
  845MOL0     C11464   0.666   9.205   3.913  0.5965 -0.6922  0.0337
  845MOL0     C11465   0.722   9.218   4.044  0.8044  0.6341  0.4402
  845MOL0     O11466   0.837   9.168   4.079  0.0808 -0.4903  0.3177
  845MOL0     C11467   0.941   9.189   3.979  0.1391  0.7514 -0.4262
  845MOL0     C11468   1.069   9.221   4.060  0.7040  0.6017 -0.1894
  845MOL0     C11469   1.195   9.194   3.975  0.5737 -0.0779  0.2613
  845MOL0     C11470   1.322   9.229   4.063  0.3273 -0.1400  0.2755
  845MOL0     C11471   1.462   9.201   4.007  0.1276  0.0968 -0.1229
  845MOL0     C11472   1.566   9.159   3.955 -0.1228 -0.3018 -0.2805
  845MOL0     C11473   0.639   9.274   4.144  0.7843 -0.8828 -1.4852
  845MOL0     C11474   0.504   9.311   4.122  0.2536  0.4729  0.2396
  845MOL0     H11475   0.032   9.173   3.938 -0.6722 -0.1797  0.5224
  845MOL0     H11476  -0.200   9.182   3.946  1.3148  1.0883 -2.2758
  845MOL0     H11477  -0.502   9.264   4.126 -0.1145 -1.4006  1.0114
  845MOL0     H11478  -0.371   9.179   4.086  0.5148 -0.2784 -2.3657
  845MOL0     H11479  -0.397   9.244   3.829 -0.1035  1.9327 -1.1321
  845MOL0     H11480  -0.520   9.358   3.880  2.6410  2.1588  0.6836
  845MOL0     H11481  -0.502   9.048   3.908 -0.3650 -0.5318  0.5895
  845MOL0     H11482  -0.586   9.142   3.782  1.9093 -0.8122 -0.2486
  845MOL0     H11483  -0.680   9.139   4.072  0.0842 -0.8445 -0.0318
  845MOL0     H11484  -0.750   9.221   3.930  1.3363 -0.8072 -1.3768
  845MOL0     H11485  -0.705   8.918   3.967  2.0111  1.3106 -0.6271
  845MOL0     H11486  -0.792   8.992   3.830  0.5309  1.8099  0.0587
  845MOL0     H11487  -0.974   9.071   3.976  0.0276 -0.5283 -1.9228
  845MOL0     H11488  -0.894   8.993   4.114  0.3211  2.7342  0.3693
  845MOL0     H11489  -1.007   8.863   3.873  2.6244  1.4294 -0.4884
  845MOL0     H11490  -0.925   8.766   3.986  0.0411 -0.6597  0.2940
  845MOL0     H11491  -1.090   8.817   4.168  1.1793 -0.4826 -0.2019
  845MOL0     H11492  -1.173   8.767   4.016  1.0420 -1.1266 -0.1170
  845MOL0     H11493  -1.096   9.083   4.228 -0.3034  0.1750  0.0869
  845MOL0     H11494  -1.282   9.290   4.259 -4.0166  2.5419  0.2951
  845MOL0     H11495  -1.357   9.343   4.105 -1.3584 -1.8056  1.5837
  845MOL0     H11496  -1.049   9.349   4.132 -0.0721  1.0486 -0.9051
  845MOL0     H11497  -1.146   9.482   4.191  2.0851  0.2655  0.8062
  845MOL0     H11498  -1.204   9.392   3.914 -0.3676 -0.0423  1.6986
  845MOL0     H11499  -1.233   9.542   4.000 -1.2039 -1.6190 -1.1007
  845MOL0     H11500  -1.054   9.623   3.881 -1.2348  1.0627  1.8716
  845MOL0     H11501  -1.026   9.463   3.825 -1.4001 -0.3996  0.5949
  845MOL0     H11502  -0.848   9.612   3.750 -0.9089 -0.7631  1.3385
  845MOL0     H11503  -0.631   9.693   3.702  0.6739  1.0914 -0.1164
  845MOL0     H11504  -0.159   9.457   3.809  2.3211  0.9667  2.6554
  845MOL0     H11505   0.080   9.464   3.780 -1.4252 -0.6706  1.7758
  845MOL0     H11506   0.302   9.514   3.651  1.9059 -1.8169  1.3151
  845MOL0     H11507   0.276   9.565   3.820 -0.7689 -1.0169 -0.2304
  845MOL0     H11508   0.404   9.776   3.754 -4.6150 -1.8578  2.1596
  845MOL0     H11509   0.469   9.689   3.606  3.1482  1.4189  0.8286
  845MOL0     H11510   0.554   9.517   3.731 -1.0772 -1.0206 -0.0802
  845MOL0     H11511   0.520   9.598   3.886  2.8224  1.3419  0.7806
  845MOL0     H11512   0.687   9.705   3.652 -1.1395  2.2390  0.1037
  845MOL0     H11513   0.680   9.783   3.808  1.2280 -0.1099  0.1365
  845MOL0     H11514   0.788   9.507   3.748 -1.3737 -0.6383  2.4246
  845MOL0     H11515   0.784   9.588   3.909  2.4692 -2.4471  0.4217
  845MOL0     H11516   0.935   9.777   3.795 -1.1187 -0.0756 -1.1741
  845MOL0     H11517   0.976   9.650   3.669  2.3710  0.3433  0.8356
  845MOL0     H11518   1.018   9.619   3.961 -2.2200 -1.3056 -0.4327
  845MOL0     H11519   1.056   9.492   3.843 -1.9364  1.0386 -0.2188
  845MOL0     H11520   1.180   9.760   3.807  2.9479  1.0915  0.6654
  845MOL0     H11521   1.238   9.610   3.742  1.4562 -0.8869  1.4969
  845MOL0     H11522   0.028   9.861   3.620 -1.9562  0.4394  0.8488
  845MOL0     H11523  -0.230   9.832   3.655 -0.3484  0.2735  1.1373
  845MOL0     H11524  -0.490   9.596   4.096  0.3682 -1.4260 -1.2604
  845MOL0     H11525  -0.721   9.524   4.151 -0.4279 -1.5922 -1.1969
  845MOL0     H11526  -0.186   9.524   4.201 -2.9978 -2.2836  0.3539
  845MOL0     H11527   0.067   9.517   4.182 -0.8633  2.3240 -2.5751
  845MOL0     H11528   0.489   9.232   3.791  0.7708  0.0547 -0.5375
  845MOL0     H11529   0.719   9.170   3.825 -1.2846 -1.4594 -0.8336
  845MOL0     H11530   0.942   9.288   3.933  2.2793  1.3284  0.7399
  845MOL0     H11531   0.951   9.109   3.905  2.7080  0.9725 -0.3956
  845MOL0     H11532   1.065   9.327   4.089  2.3618 -0.1721  3.5312
  845MOL0     H11533   1.068   9.159   4.150  1.1503 -1.3328 -1.4563
  845MOL0     H11534   1.194   9.261   3.889 -3.4813 -2.1847 -1.6173
  845MOL0     H11535   1.197   9.091   3.938 -1.8805 -0.4544  1.0056
  845MOL0     H11536   1.316   9.332   4.098  2.8697 -1.5548  5.9758
  845MOL0     H11537   1.315   9.173   4.157  0.8442 -1.3804 -0.3911
  845MOL0     H11538   1.654   9.124   3.907 -0.1763 -0.1320 -0.5057
  845MOL0     H11539   0.678   9.271   4.245  1.2733 -0.7591 -1.6667
  845MOL0     H11540   0.430   9.347   4.193 -0.0361  0.3639 -0.0027
  846MOL0     O11541   1.650   1.715  10.287 -0.4627 -0.2739 -0.4027
  846MOL0     C11542   1.715   1.663  10.198 -0.4717 -0.8721  0.4003
  846MOL0     O11543   1.668   1.594  10.092 -0.4038  0.4299  0.1147
  846MOL0     C11544   1.539   1.596  10.047  0.2043 -0.4275 -0.3986
  846MOL0     C11545   1.514   1.499   9.951  0.6419 -1.3918  0.7816
  846MOL0     C11546   1.385   1.507   9.884  0.4302 -0.2474  0.3747
  846MOL0     C11547   1.287   1.603   9.910 -1.1410  0.0882  0.4175
  846MOL0     O11548   1.184   1.604   9.824 -0.4313 -0.4022  0.4009
  846MOL0     C11549   1.069   1.535   9.878  0.5334 -0.0818  0.0915
  846MOL0     C11550   1.012   1.424   9.788 -1.2193  0.2018 -0.2004
  846MOL0     C11551   0.869   1.408   9.806  0.2098  0.7321  0.6145
  846MOL0     C11552   0.822   1.292   9.729 -0.4336  0.0045  0.4276
  846MOL0     C11553   0.665   1.290   9.712  1.2449  0.7712 -0.6693
  846MOL0     C11554   0.581   1.251   9.837 -0.8021 -0.6797  0.0192
  846MOL0     C11555   0.422   1.249   9.821 -0.6118 -0.6255  0.6875
  846MOL0     C11556   0.359   1.195   9.945 -0.1493  0.6073 -0.2830
  846MOL0     N11557   0.215   1.225   9.954  0.0494 -1.2093 -0.4441
  846MOL0     C11558   0.152   1.338  10.011 -0.1915  0.6645 -0.0373
  846MOL0     C11559   0.020   1.315  10.002  0.1131 -0.8850 -0.3919
  846MOL0     C11560  -0.092   1.411  10.045  0.4233  0.1669 -0.2424
  846MOL0     C11561  -0.227   1.347  10.064  1.1707 -1.0896 -0.4456
  846MOL0     C11562  -0.335   1.448  10.083 -0.1855  0.1811 -0.0850
  846MOL0     C11563  -0.314   1.552  10.199  0.1937 -0.7886 -0.9089
  846MOL0     O11564  -0.315   1.489  10.332  0.4049  0.2058 -0.2311
  846MOL0     C11565  -0.426   1.525  10.409  0.4559 -0.5349 -0.8755
  846MOL0     C11566  -0.550   1.582  10.355 -0.0275  0.6558  0.2752
  846MOL0     C11567  -0.650   1.637  10.437 -0.4135  0.1185 -0.2008
  846MOL0     C11568  -0.638   1.628  10.572  1.2288 -0.2652 -0.5865
  846MOL0     C11569  -0.738   1.695  10.661 -0.3204 -0.5111  0.2357
  846MOL0     O11570  -0.704   1.718  10.794  0.5514 -0.2073  0.1502
  846MOL0     C11571  -0.795   1.776  10.884  0.5518  0.7859  0.0742
  846MOL0     C11572  -0.941   1.800  10.864  0.1338 -0.4370  0.9206
  846MOL0     C11573  -1.009   1.862  10.971 -0.2985 -0.0800  0.8930
  846MOL0     C11574  -0.950   1.907  11.088 -0.4443 -0.0689 -0.2833
  846MOL0     O11575  -1.039   1.960  11.182 -0.3466 -0.8559  0.1475
  846MOL0     C11576  -0.978   2.002  11.306 -0.5001 -0.0777  0.9104
  846MOL0     C11577  -1.087   2.055  11.395  0.2864  0.1953  0.5138
  846MOL0     C11578  -1.151   1.935  11.467  0.2079  0.3416  0.2999
  846MOL0     C11579  -1.281   1.962  11.546  0.3578 -0.6915 -0.0066
  846MOL0     C11580  -1.367   1.839  11.579 -0.3295 -0.6069  0.0891
  846MOL0     C11581  -1.495   1.830  11.491  0.1184  1.2268 -0.0776
  846MOL0     C11582  -1.575   1.718  11.551  0.4991 -0.4888  0.1364
  846MOL0     C11583  -1.688   1.684  11.451 -1.0507  0.3213 -0.2094
  846MOL0    Cl11584  -1.634   1.615  11.281 -0.3058 -0.2369 -0.1102
  846MOL0     C11585  -0.813   1.877  11.098  0.3325  0.5044  0.2929
  846MOL0     C11586  -0.744   1.807  11.008  0.8149  0.5310 -0.2192
  846MOL0     O11587  -0.833   1.740  10.600  0.1506 -0.4140 -0.1506
  846MOL0     C11588  -0.523   1.565  10.634  1.3198 -0.8456  0.4142
  846MOL0     C11589  -0.421   1.505  10.549 -0.8554 -0.1005 -0.4140
  846MOL0     N11590   0.009   1.190   9.942  0.1471  0.3630 -0.7263
  846MOL0     N11591   0.122   1.141   9.906 -0.1172  0.5135  0.2738
  846MOL0     C11592   1.315   1.698  10.009  0.5474  0.3456  0.8755
  846MOL0     C11593   1.436   1.689  10.080 -0.2791 -0.7566  0.5738
  846MOL0     C11594   1.863   1.666  10.206 -0.3778  0.0241 -0.1804
  846MOL0     C11595   1.939   1.780  10.247  0.7268  0.4982 -0.1264
  846MOL0     C11596   2.078   1.786  10.251 -0.4732  0.7417  0.3133
  846MOL0     C11597   2.145   1.665  10.238 -0.7795  0.2252 -0.4260
  846MOL0     O11598   2.269   1.663  10.293  0.2174  1.1394  0.0524
  846MOL0     C11599   2.324   1.539  10.345 -0.0123 -0.0515 -0.2851
  846MOL0     C11600   2.257   1.480  10.470  0.1452  0.4278 -0.3479
  846MOL0     C11601   2.309   1.341  10.529 -0.3329  0.5034 -0.5095
  846MOL0     C11602   2.241   1.320  10.667 -0.2891  0.0597  1.3038
  846MOL0     C11603   2.253   1.174  10.695  0.2397 -0.2991  0.3509
  846MOL0     C11604   2.259   1.057  10.718  0.0435  1.1741 -0.6160
  846MOL0     C11605   2.081   1.556  10.192 -0.1680 -0.8108  0.7790
  846MOL0     C11606   1.945   1.556  10.166  0.0411  0.1477  0.0101
  846MOL0     H11607   1.587   1.430   9.909 -0.1261 -0.3360 -2.5929
  846MOL0     H11608   1.362   1.442   9.801  0.8093 -0.4757  0.4505
  846MOL0     H11609   0.998   1.617   9.893  2.0709  1.2477  0.3303
  846MOL0     H11610   1.085   1.492   9.977 -0.4200 -2.7542 -0.8140
  846MOL0     H11611   1.065   1.335   9.823  1.4630  1.7412 -0.1086
  846MOL0     H11612   1.050   1.448   9.689  1.2917  0.0584  0.6519
  846MOL0     H11613   0.804   1.492   9.780  0.8069  0.6675 -1.2690
  846MOL0     H11614   0.847   1.392   9.912  1.5222 -2.1994  0.5620
  846MOL0     H11615   0.869   1.288   9.630  0.6597  1.2581  0.8645
  846MOL0     H11616   0.852   1.201   9.781 -0.7148  0.6694  1.8016
  846MOL0     H11617   0.644   1.214   9.636 -0.1967  2.0177 -1.5731
  846MOL0     H11618   0.619   1.383   9.677  2.4201  3.0512  3.2002
  846MOL0     H11619   0.604   1.323   9.916  1.2273 -2.3684  1.0397
  846MOL0     H11620   0.626   1.159   9.875  0.3885 -0.2623 -0.3579
  846MOL0     H11621   0.385   1.352   9.819 -0.3214 -0.4225  2.8167
  846MOL0     H11622   0.391   1.185   9.739 -1.9591 -1.3936  1.7630
  846MOL0     H11623   0.404   1.244  10.032 -1.5216  2.8139 -0.7268
  846MOL0     H11624   0.378   1.087   9.942  0.9783  0.7212  1.3506
  846MOL0     H11625   0.203   1.426  10.048 -1.4192  1.4966 -0.2462
  846MOL0     H11626  -0.098   1.500   9.980 -0.5883 -0.1718 -0.6334
  846MOL0     H11627  -0.060   1.444  10.144 -0.2143  1.4632 -0.4370
  846MOL0     H11628  -0.223   1.281  10.151  1.5876 -0.7517 -0.2063
  846MOL0     H11629  -0.254   1.272   9.989  1.0749 -1.4895 -0.0139
  846MOL0     H11630  -0.332   1.510   9.993 -3.9779 -1.3711 -1.4684
  846MOL0     H11631  -0.431   1.397  10.093  0.1313 -0.0363  2.6535
  846MOL0     H11632  -0.378   1.641  10.195  0.1902 -0.7147  0.3844
  846MOL0     H11633  -0.215   1.594  10.185  1.9158 -4.6009 -1.4670
  846MOL0     H11634  -0.556   1.589  10.247  2.4132  0.5444  0.0850
  846MOL0     H11635  -0.732   1.669  10.374 -0.8367  0.1469  0.3585
  846MOL0     H11636  -0.983   1.787  10.765 -2.0878  0.9137  1.6138
  846MOL0     H11637  -1.107   1.904  10.951  0.1992  1.0306  0.7250
  846MOL0     H11638  -0.912   2.089  11.294 -1.0584  0.2437  0.0987
  846MOL0     H11639  -0.929   1.917  11.355 -3.2903 -2.3942  0.0120
  846MOL0     H11640  -1.164   2.114  11.345  0.6693  2.1792  2.1359
  846MOL0     H11641  -1.044   2.115  11.476  1.2733 -0.5432  0.5611
  846MOL0     H11642  -1.080   1.878  11.526 -1.1746 -4.0417 -1.8293
  846MOL0     H11643  -1.188   1.866  11.390 -4.0493  0.9919  1.4938
  846MOL0     H11644  -1.241   2.020  11.630  0.9781  3.6643 -2.9485
  846MOL0     H11645  -1.344   2.029  11.486 -1.0912 -1.0633  1.0475
  846MOL0     H11646  -1.390   1.838  11.686  2.2217  0.8651  0.7284
  846MOL0     H11647  -1.309   1.747  11.567 -0.0316 -0.5969  1.3613
  846MOL0     H11648  -1.477   1.814  11.384 -1.0128  2.5271 -0.4863
  846MOL0     H11649  -1.548   1.926  11.489 -4.3173 -0.9640 -0.3487
  846MOL0     H11650  -1.515   1.627  11.561 -0.0423 -0.9738 -0.8819
  846MOL0     H11651  -1.627   1.750  11.642 -3.6398  0.5230 -2.2930
  846MOL0     H11652  -1.755   1.771  11.448  0.2697  1.3323 -2.0407
  846MOL0     H11653  -1.751   1.607  11.498  0.3559 -0.7287  0.0328
  846MOL0     H11654  -0.747   1.930  11.166  1.5136  1.0019 -1.2058
  846MOL0     H11655  -0.640   1.779  11.021  0.4481 -0.1266  1.4519
  846MOL0     H11656  -0.517   1.549  10.741 -1.8246 -3.9402  0.3107
  846MOL0     H11657  -0.340   1.462  10.608  0.4796  2.8939  0.0820
  846MOL0     H11658   1.235   1.770  10.022 -2.4735 -1.8885 -3.1560
  846MOL0     H11659   1.460   1.768  10.151  1.6657  2.5132 -3.3005
  846MOL0     H11660   1.885   1.862  10.292 -0.4178 -0.4274  0.2158
  846MOL0     H11661   2.135   1.866  10.296  0.7715 -0.0687  0.2374
  846MOL0     H11662   2.430   1.552  10.372 -0.0783  2.5075 -0.9676
  846MOL0     H11663   2.313   1.465  10.266  2.4890  0.4395 -1.2069
  846MOL0     H11664   2.259   1.559  10.545  0.4527 -1.2610  1.4888
  846MOL0     H11665   2.152   1.475  10.439 -0.5689  2.5493  1.4893
  846MOL0     H11666   2.415   1.338  10.555  0.6393 -1.1168 -4.0498
  846MOL0     H11667   2.280   1.256  10.466 -4.6369 -0.7442  2.7476
  846MOL0     H11668   2.274   1.380  10.752 -0.2437  1.6720  0.2060
  846MOL0     H11669   2.139   1.356  10.652  0.3471  1.4615  0.1273
  846MOL0     H11670   2.265   0.953  10.744  3.3264  1.5610  0.7171
  846MOL0     H11671   2.137   1.464  10.176  2.5475  0.6782  1.1910
  846MOL0     H11672   1.912   1.460  10.127  1.0308 -0.4648  0.6213
  847MOL0     O11673   3.703   0.434   1.996  0.4037 -0.4455 -0.5698
  847MOL0     C11674   3.697   0.467   2.115 -0.4907 -0.6375 -0.1136
  847MOL0     O11675   3.604   0.546   2.178  0.6160  0.3418 -0.7420
  847MOL0     C11676   3.509   0.622   2.121 -0.3740 -1.2525 -0.2367
  847MOL0     C11677   3.397   0.672   2.203  0.6668  1.2909 -1.3766
  847MOL0     C11678   3.289   0.740   2.146 -0.1954 -0.2563  0.6393
  847MOL0     C11679   3.293   0.776   2.008  0.4344 -0.0672  0.1980
  847MOL0     O11680   3.185   0.831   1.944  0.3194  0.2585  0.3039
  847MOL0     C11681   3.065   0.865   2.004  0.4220  0.1475 -0.6630
  847MOL0     C11682   2.970   0.749   1.996  0.4617 -0.4224 -0.6695
  847MOL0     C11683   2.822   0.782   1.991  0.1387 -0.3750  0.7044
  847MOL0     C11684   2.785   0.845   2.127  0.0208 -0.1200  0.0898
  847MOL0     C11685   2.636   0.887   2.147 -0.8906  1.2330  0.3552
  847MOL0     C11686   2.617   1.022   2.065  0.2839  0.5551  0.8400
  847MOL0     C11687   2.477   1.070   2.090 -0.1502  0.0290 -0.3904
  847MOL0     C11688   2.446   1.206   2.020  0.4567  0.3882 -1.0528
  847MOL0     N11689   2.310   1.246   2.062  0.3010 -0.0579 -0.6525
  847MOL0     C11690   2.202   1.209   1.998 -0.2746 -0.2651  0.3867
  847MOL0     C11691   2.122   1.313   1.991  0.1786  0.3215  0.0756
  847MOL0     C11692   1.996   1.338   1.912 -0.0499 -0.3334 -0.3986
  847MOL0     C11693   2.014   1.465   1.823 -0.8032  0.4303  0.7291
  847MOL0     C11694   1.905   1.473   1.710  0.0221 -0.4674 -0.1220
  847MOL0     C11695   1.762   1.475   1.760  1.0810  0.3874  0.1087
  847MOL0     O11696   1.741   1.536   1.892  0.1675 -0.3635  0.1379
  847MOL0     C11697   1.605   1.554   1.932 -0.1892 -0.0759  1.0187
  847MOL0     C11698   1.488   1.538   1.854  0.5760  0.2813 -0.0073
  847MOL0     C11699   1.361   1.558   1.913 -0.0560 -0.1528  0.2350
  847MOL0     C11700   1.351   1.596   2.047  0.2354  0.0240 -0.3295
  847MOL0     C11701   1.214   1.612   2.111  0.2427  0.9983 -0.1576
  847MOL0     O11702   1.103   1.574   2.040  0.5265 -0.2846  0.1865
  847MOL0     C11703   0.981   1.586   2.096 -0.2586 -0.6046  0.3267
  847MOL0     C11704   0.947   1.492   2.193  1.0774  0.3939  0.0087
  847MOL0     C11705   0.830   1.500   2.273 -0.5897 -0.0687  0.0454
  847MOL0     C11706   0.753   1.615   2.250 -0.0082  0.6395  0.1021
  847MOL0     O11707   0.638   1.649   2.324 -0.8469  0.4279 -0.1919
  847MOL0     C11708   0.667   1.691   2.454 -0.9901 -0.8397 -0.0197
  847MOL0     C11709   0.535   1.700   2.539 -0.2737  1.0816  0.0748
  847MOL0     C11710   0.500   1.843   2.566  0.7138  0.0837 -0.3716
  847MOL0     C11711   0.370   1.862   2.652  0.4843 -1.0735  0.4115
  847MOL0     C11712   0.315   2.002   2.646  0.2520 -0.6019 -0.1011
  847MOL0     C11713   0.182   2.035   2.714 -0.6946 -0.2982  0.4259
  847MOL0     C11714   0.168   2.183   2.695  0.0894 -0.4196  0.9442
  847MOL0     C11715   0.051   2.229   2.780  0.3924 -0.0284 -0.7979
  847MOL0    Cl11716  -0.006   2.394   2.772 -0.4447  0.1795 -0.0609
  847MOL0     C11717   0.780   1.706   2.146 -0.4702  0.1449 -0.9170
  847MOL0     C11718   0.897   1.692   2.066 -0.5531 -0.4924  0.1693
  847MOL0     O11719   1.214   1.667   2.219  0.2190  0.5873 -0.6471
  847MOL0     C11720   1.467   1.604   2.122 -1.0174 -0.1712  0.4940
  847MOL0     C11721   1.595   1.576   2.069 -0.4052 -0.5840  0.3493
  847MOL0     N11722   2.182   1.414   2.058 -0.5799 -0.7769  0.3650
  847MOL0     N11723   2.297   1.376   2.109  0.2461 -0.1236 -0.8052
  847MOL0     C11724   3.401   0.745   1.932 -1.0119 -0.0481  0.3215
  847MOL0     C11725   3.509   0.669   1.981  0.4347 -0.8403 -0.8997
  847MOL0     C11726   3.779   0.404   2.207  1.2264 -0.5990  0.1395
  847MOL0     C11727   3.801   0.459   2.341 -1.0731  0.0433 -0.3063
  847MOL0     C11728   3.896   0.402   2.433 -0.4083 -0.4874 -0.0248
  847MOL0     C11729   3.970   0.285   2.398  0.2522 -0.9710  0.5629
  847MOL0     O11730   4.068   0.248   2.487 -0.2214 -0.0182  0.1457
  847MOL0     C11731   4.163   0.153   2.435  0.2839  0.6240 -0.3376
  847MOL0     C11732   4.276   0.119   2.531 -0.7837  0.3684  0.8184
  847MOL0     C11733   4.332   0.256   2.563 -0.7718 -1.0141 -0.0453
  847MOL0     C11734   4.459   0.240   2.660  0.0743  0.0199  0.9741
  847MOL0     C11735   4.546   0.359   2.661 -0.0226 -0.1084  0.3856
  847MOL0     C11736   4.645   0.429   2.679 -0.0032  0.4967  0.5441
  847MOL0     C11737   3.957   0.237   2.260  0.1763 -0.5663  0.3735
  847MOL0     C11738   3.856   0.292   2.180  0.0665  0.2854 -0.3274
  847MOL0     H11739   3.388   0.642   2.307 -2.0381  0.0261 -1.8962
  847MOL0     H11740   3.204   0.766   2.208 -0.3227 -1.0565  0.8081
  847MOL0     H11741   3.031   0.955   1.952  0.4480 -0.1453 -1.1995
  847MOL0     H11742   3.073   0.903   2.106  2.7569 -0.7822 -0.4330
  847MOL0     H11743   2.997   0.677   2.074 -0.4996  0.9066  0.9455
  847MOL0     H11744   2.983   0.697   1.901  3.0614 -1.2474  0.0614
  847MOL0     H11745   2.748   0.702   1.984 -1.0254  0.6302  1.0583
  847MOL0     H11746   2.801   0.851   1.909  1.5847  0.0330  0.6595
  847MOL0     H11747   2.812   0.774   2.205 -0.0063 -0.7019 -0.4157
  847MOL0     H11748   2.842   0.939   2.131 -0.9481  0.4944 -0.1478
  847MOL0     H11749   2.616   0.905   2.253  0.4896 -0.6838  0.9891
  847MOL0     H11750   2.561   0.816   2.112 -1.3229  1.0395  1.6494
  847MOL0     H11751   2.622   0.988   1.962 -1.4619 -4.8776  2.2083
  847MOL0     H11752   2.691   1.100   2.085  1.4462 -0.5083  0.8434
  847MOL0     H11753   2.410   0.994   2.049 -1.7014  0.2195  1.6030
  847MOL0     H11754   2.457   1.080   2.198 -2.0822  3.6245 -0.9041
  847MOL0     H11755   2.452   1.191   1.912  1.6788 -4.3286 -0.5665
  847MOL0     H11756   2.524   1.278   2.044 -0.5807  1.3170 -0.3839
  847MOL0     H11757   2.200   1.117   1.940 -2.5060  2.3002 -4.1837
  847MOL0     H11758   1.902   1.323   1.967  0.5987 -7.0892 -0.2805
  847MOL0     H11759   1.991   1.252   1.845  3.4498 -0.3738 -0.7617
  847MOL0     H11760   2.115   1.468   1.781 -0.8128 -1.8847  0.4036
  847MOL0     H11761   2.010   1.557   1.881  0.3071  1.9432 -1.4803
  847MOL0     H11762   1.925   1.563   1.651  3.0201 -0.9274  0.0738
  847MOL0     H11763   1.924   1.386   1.647  1.3756  0.0884 -0.5062
  847MOL0     H11764   1.728   1.371   1.768 -2.3627  1.0711 -3.0451
  847MOL0     H11765   1.703   1.529   1.686 -1.1929  0.2067  1.6892
  847MOL0     H11766   1.501   1.529   1.747 -0.2092  0.7168 -0.1463
  847MOL0     H11767   1.279   1.555   1.842 -1.1103  0.3280  1.3904
  847MOL0     H11768   0.998   1.398   2.210 -2.2000 -1.4234  0.6354
  847MOL0     H11769   0.812   1.426   2.351  0.4842 -1.9637 -1.4296
  847MOL0     H11770   0.711   1.792   2.449 -0.5851 -0.9339  1.3825
  847MOL0     H11771   0.730   1.626   2.514  0.7697  1.3792  0.6989
  847MOL0     H11772   0.552   1.638   2.627 -4.0593  0.2056  0.3693
  847MOL0     H11773   0.454   1.653   2.482 -0.5385  1.6642 -0.0356
  847MOL0     H11774   0.481   1.881   2.465 -0.3376  2.0338  0.4939
  847MOL0     H11775   0.588   1.893   2.607 -1.0048  1.4406  1.8835
  847MOL0     H11776   0.291   1.792   2.625  0.7618 -0.9539 -0.7661
  847MOL0     H11777   0.397   1.851   2.757 -1.8699  4.2157  1.9207
  847MOL0     H11778   0.301   2.025   2.540 -3.7561 -1.1027  0.1337
  847MOL0     H11779   0.394   2.063   2.691 -0.0873 -0.5900  0.4870
  847MOL0     H11780   0.183   2.007   2.819 -1.1755  0.6302  0.6871
  847MOL0     H11781   0.100   1.984   2.663 -1.4502  0.9794  0.3394
  847MOL0     H11782   0.261   2.231   2.726 -0.5049  1.8602 -0.5402
  847MOL0     H11783   0.144   2.203   2.590  0.8382 -3.1575  0.1827
  847MOL0     H11784   0.069   2.217   2.887 -0.4192  3.3760 -0.1796
  847MOL0     H11785  -0.032   2.161   2.756 -0.3914  1.1348 -1.5166
  847MOL0     H11786   0.724   1.795   2.119 -0.0877  0.5033 -0.5479
  847MOL0     H11787   0.924   1.761   1.986 -1.3670  1.2852  1.3471
  847MOL0     H11788   1.445   1.613   2.228 -4.2773 -1.5882  0.0562
  847MOL0     H11789   1.686   1.587   2.128 -0.8897 -2.4156  1.4918
  847MOL0     H11790   3.409   0.761   1.825  1.4549  2.1918  0.7417
  847MOL0     H11791   3.582   0.624   1.915  1.2432  1.2720 -1.5592
  847MOL0     H11792   3.759   0.556   2.366 -2.9326 -1.1664  1.5810
  847MOL0     H11793   3.912   0.445   2.532  1.4148  0.2595 -0.5956
  847MOL0     H11794   4.209   0.181   2.340 -1.0200 -0.7538 -1.4137
  847MOL0     H11795   4.113   0.057   2.421  2.4217 -0.6510  0.2537
  847MOL0     H11796   4.234   0.082   2.625  2.0767 -0.1586  2.0028
  847MOL0     H11797   4.342   0.054   2.471 -1.8431  1.7234 -2.0110
  847MOL0     H11798   4.265   0.326   2.613  0.8217  0.2398  0.4301
  847MOL0     H11799   4.360   0.307   2.471  0.3003 -0.6703  0.4583
  847MOL0     H11800   4.423   0.212   2.760  0.4874 -0.7450  0.9120
  847MOL0     H11801   4.522   0.159   2.623  2.5509  3.0574 -2.1027
  847MOL0     H11802   4.721   0.505   2.686 -0.3071  1.2316 -2.6515
  847MOL0     H11803   4.013   0.152   2.222  2.6178  0.7521  0.7785
  847MOL0     H11804   3.860   0.246   2.081  3.4821 -0.8517  0.2252
  848MOL0     O11805   9.702  10.091  10.093 -0.3916  0.5527  0.5786
  848MOL0     C11806   9.789  10.021  10.041 -0.0454  1.0398 -0.4689
  848MOL0     O11807   9.770   9.902   9.982 -0.4638  0.3501  0.1585
  848MOL0     C11808   9.648   9.847   9.964 -0.1912  0.4318 -0.1481
  848MOL0     C11809   9.612   9.831   9.833 -0.2251  0.7215  0.9515
  848MOL0     C11810   9.495   9.768   9.791  0.1217 -0.7925 -0.0510
  848MOL0     C11811   9.408   9.713   9.881 -0.2118 -0.3556  0.7124
  848MOL0     O11812   9.299   9.651   9.843  0.1693  0.3566  0.1908
  848MOL0     C11813   9.205   9.713   9.752 -0.0734 -0.6933 -0.2856
  848MOL0     C11814   9.063   9.705   9.803 -0.7449 -0.8975 -0.7830
  848MOL0     C11815   8.962   9.754   9.699  0.8403  0.3807 -0.1581
  848MOL0     C11816   8.923   9.643   9.598  0.1565  0.4733  0.6898
  848MOL0     C11817   8.834   9.707   9.496  0.3197  1.2153 -0.0419
  848MOL0     C11818   8.761   9.611   9.391  0.0300 -0.8074 -1.0329
  848MOL0     C11819   8.620   9.571   9.419  0.3368  0.5354 -0.7695
  848MOL0     C11820   8.582   9.496   9.561 -0.1594  0.7002 -0.4365
  848MOL0     N11821   8.670   9.377   9.566 -1.3428 -0.2897  0.7411
  848MOL0     C11822   8.741   9.334   9.670 -0.6063  0.8128 -0.5133
  848MOL0     C11823   8.803   9.226   9.639 -0.2983 -0.5030  0.2054
  848MOL0     C11824   8.884   9.142   9.727  0.8520  1.1565  0.2463
  848MOL0     C11825   8.972   9.213   9.831  0.4546  0.6375 -0.1532
  848MOL0     C11826   9.073   9.313   9.782  0.4740 -0.2586 -0.4500
  848MOL0     C11827   9.191   9.335   9.873  0.7931 -0.8831 -0.2089
  848MOL0     O11828   9.148   9.422   9.988  0.2472  0.3576  0.9282
  848MOL0     C11829   9.245   9.447  10.088  0.5973 -0.6399 -0.2257
  848MOL0     C11830   9.374   9.408  10.086  0.1771 -0.7135  0.3519
  848MOL0     C11831   9.450   9.415  10.203  0.4033  0.0370  0.5241
  848MOL0     C11832   9.393   9.470  10.318 -0.3569  0.0679 -0.6200
  848MOL0     C11833   9.475   9.491  10.441 -0.2176 -0.4328  0.0916
  848MOL0     O11834   9.435   9.593  10.531 -0.3534 -0.1483 -0.4667
  848MOL0     C11835   9.500   9.613  10.654 -0.7546 -1.1908  0.2713
  848MOL0     C11836   9.429   9.674  10.770 -0.1391 -0.1720  0.0352
  848MOL0     C11837   9.494   9.709  10.884 -0.1952  0.3787 -1.1656
  848MOL0     C11838   9.624   9.666  10.909 -0.1712  0.9362 -0.6109
  848MOL0     O11839   9.693   9.668  11.029  0.2655  0.5112  0.6103
  848MOL0     C11840   9.693   9.549  11.103  0.0162  0.3414 -1.0363
  848MOL0     C11841   9.822   9.455  11.084  0.3913 -0.0116 -0.1549
  848MOL0     C11842   9.941   9.554  11.071  0.0417 -0.5428  0.5054
  848MOL0     C11843  10.070   9.466  11.088 -0.2761  0.5280  0.1838
  848MOL0     C11844  10.191   9.565  11.119 -0.6205 -0.0618  0.3824
  848MOL0     C11845  10.309   9.496  11.173 -0.1119 -0.0599 -0.2123
  848MOL0     C11846  10.439   9.580  11.160  0.2251  1.0270  0.5291
  848MOL0     C11847  10.541   9.516  11.256 -0.3590  0.5572  0.4203
  848MOL0    Cl11848  10.702   9.568  11.236  0.1433  0.1153  0.3764
  848MOL0     C11849   9.694   9.599  10.801  0.0388  0.2331 -0.3045
  848MOL0     C11850   9.635   9.576  10.676 -0.7702  0.4887  1.1304
  848MOL0     O11851   9.581   9.427  10.446  0.3626  0.0046  0.4404
  848MOL0     C11852   9.268   9.527  10.310  0.3565 -0.5041  0.1784
  848MOL0     C11853   9.185   9.506  10.202 -0.1848  0.3589 -0.1775
  848MOL0     N11854   8.795   9.210   9.505 -0.6006 -0.6011 -0.0136
  848MOL0     N11855   8.717   9.304   9.460 -0.0599  0.0853 -0.2522
  848MOL0     C11856   9.451   9.725  10.015 -0.5901 -0.5305  0.5454
  848MOL0     C11857   9.572   9.789  10.056  0.0919 -0.3731  0.6493
  848MOL0     C11858   9.937  10.059  10.061  0.3280 -0.0052 -1.2008
  848MOL0     C11859  10.042  10.004   9.987  0.3133  0.0446  0.0023
  848MOL0     C11860  10.174  10.050  10.001 -0.8314  0.1948 -0.3147
  848MOL0     C11861  10.202  10.162  10.080  0.0611 -0.0024  0.7134
  848MOL0     O11862  10.328  10.218  10.080  0.1570  0.2163 -0.0278
  848MOL0     C11863  10.367  10.312  10.176  0.8245  0.7232  0.9788
  848MOL0     C11864  10.520  10.330  10.150  1.0186 -0.1108  0.5708
  848MOL0     C11865  10.585  10.444  10.241  0.5326 -0.1031 -0.0645
  848MOL0     C11866  10.724  10.411  10.279 -0.0263  0.2466 -0.1982
  848MOL0     C11867  10.785  10.510  10.357 -0.1243  0.1073  0.0388
  848MOL0     C11868  10.833  10.592  10.438 -0.7335 -0.2633  0.8990
  848MOL0     C11869  10.107  10.219  10.158 -0.1200  1.0693 -0.2291
  848MOL0     C11870   9.972  10.172  10.144  0.8531 -0.3626  0.1616
  848MOL0     H11871   9.689   9.862   9.762 -1.1856  0.5351 -0.2010
  848MOL0     H11872   9.480   9.779   9.684 -0.4051  0.8811  0.1602
  848MOL0     H11873   9.220   9.671   9.652 -1.6097 -3.4016  0.5173
  848MOL0     H11874   9.232   9.819   9.743  3.4857 -1.1295  2.5977
  848MOL0     H11875   9.057   9.777   9.886 -1.1671  1.3077 -2.6127
  848MOL0     H11876   9.042   9.605   9.842 -1.3197 -0.0242  1.3023
  848MOL0     H11877   9.003   9.841   9.647  0.9590  0.8123  0.6358
  848MOL0     H11878   8.871   9.769   9.758  0.8281  0.4414 -0.1934
  848MOL0     H11879   9.000   9.600   9.532 -2.8698  0.0156 -2.8888
  848MOL0     H11880   8.866   9.569   9.655  3.0923 -1.9958  0.7277
  848MOL0     H11881   8.900   9.774   9.440  2.0604 -0.4853 -0.1580
  848MOL0     H11882   8.761   9.770   9.548 -2.4413 -1.7565 -0.0279
  848MOL0     H11883   8.808   9.513   9.374 -3.0228 -2.4131 -0.9054
  848MOL0     H11884   8.760   9.667   9.297 -0.0117  3.4982  1.2831
  848MOL0     H11885   8.553   9.656   9.407  0.7661  0.9891 -0.0113
  848MOL0     H11886   8.596   9.508   9.332  2.0502 -0.9741 -0.2272
  848MOL0     H11887   8.482   9.454   9.553  1.0182 -2.1128 -1.3398
  848MOL0     H11888   8.607   9.559   9.648  1.9603 -1.5539  0.7215
  848MOL0     H11889   8.732   9.363   9.774 -1.8619  1.2349 -0.7148
  848MOL0     H11890   8.961   9.087   9.671 -0.6378  0.2115 -0.9421
  848MOL0     H11891   8.817   9.073   9.779 -0.0589  1.6172 -0.2905
  848MOL0     H11892   9.039   9.140   9.877 -0.6849 -1.8402 -2.1464
  848MOL0     H11893   8.913   9.252   9.914  0.2433 -0.1234  0.0667
  848MOL0     H11894   9.105   9.293   9.680 -1.4538 -1.3018 -0.8930
  848MOL0     H11895   9.013   9.402   9.760 -0.2862 -0.5470  0.3614
  848MOL0     H11896   9.275   9.377   9.816 -1.8828  1.6381 -2.5798
  848MOL0     H11897   9.217   9.240   9.920 -1.4519 -0.8640  1.2146
  848MOL0     H11898   9.428   9.371  10.000 -1.5438 -2.6639  0.0364
  848MOL0     H11899   9.553   9.381  10.197  0.3042 -0.0535 -1.1444
  848MOL0     H11900   9.324   9.700  10.761  0.0648  0.9817  0.7448
  848MOL0     H11901   9.439   9.766  10.959  0.1164  3.3183 -3.0253
  848MOL0     H11902   9.601   9.491  11.088  0.4092 -1.1580  1.7417
  848MOL0     H11903   9.688   9.581  11.208 -0.6598 -1.0786 -0.6090
  848MOL0     H11904   9.815   9.376  11.009 -0.8076 -1.6695  1.6030
  848MOL0     H11905   9.834   9.400  11.178  3.2109 -2.0588 -1.5336
  848MOL0     H11906   9.938   9.620  11.157 -0.6061 -0.4197  0.3923
  848MOL0     H11907   9.933   9.618  10.982  0.0962 -1.7020 -0.3628
  848MOL0     H11908  10.044   9.393  11.166 -1.5469 -1.6476 -2.1365
  848MOL0     H11909  10.090   9.406  10.999 -0.6195 -2.9484  2.2675
  848MOL0     H11910  10.162   9.645  11.188 -0.7524 -0.3309  0.6392
  848MOL0     H11911  10.221   9.611  11.025  2.4259 -1.2073  0.6624
  848MOL0     H11912  10.303   9.399  11.123 -0.9281  0.7901 -1.8183
  848MOL0     H11913  10.293   9.475  11.280 -0.3193 -0.8595 -0.3906
  848MOL0     H11914  10.476   9.576  11.057  0.5758 -2.2837  0.6738
  848MOL0     H11915  10.435   9.685  11.190  3.1827  1.6683 -0.9003
  848MOL0     H11916  10.540   9.410  11.230  0.1178  1.2375 -2.7430
  848MOL0     H11917  10.502   9.546  11.354 -1.7963  1.7163 -0.4689
  848MOL0     H11918   9.799   9.577  10.815  0.9037  4.0292  0.0107
  848MOL0     H11919   9.696   9.543  10.592 -1.5202 -1.2302  1.2327
  848MOL0     H11920   9.207   9.564  10.392 -1.9187  0.6417 -1.8938
  848MOL0     H11921   9.084   9.546  10.207 -1.0756 -1.8759  1.2367
  848MOL0     H11922   9.381   9.690  10.091 -2.0197 -2.8904 -1.6985
  848MOL0     H11923   9.591   9.804  10.162  0.4619  2.6519  0.2473
  848MOL0     H11924  10.039   9.923   9.916  0.4284 -1.4038  1.5906
  848MOL0     H11925  10.245  10.003   9.934  0.6448  3.9815 -1.6868
  848MOL0     H11926  10.342  10.289  10.280 -1.8803  2.4401  0.7957
  848MOL0     H11927  10.320  10.404  10.141  1.0497  1.3731  2.3213
  848MOL0     H11928  10.572  10.233  10.152 -1.0640 -1.3091 -0.3679
  848MOL0     H11929  10.533  10.364  10.046 -0.4288 -2.6212 -0.5298
  848MOL0     H11930  10.520  10.457  10.327 -0.5109  1.0529 -0.9838
  848MOL0     H11931  10.592  10.537  10.183 -2.8504  0.5578  0.4093
  848MOL0     H11932  10.729  10.320  10.340 -2.1591  0.9172  1.0926
  848MOL0     H11933  10.788  10.394  10.191  1.7418  2.5488  0.5340
  848MOL0     H11934  10.875  10.662  10.509 -0.5208 -0.1539  0.6664
  848MOL0     H11935  10.126  10.297  10.232  2.4207  0.9609 -0.6796
  848MOL0     H11936   9.889  10.206  10.204  0.8186  2.0966 -1.1327
  849MOL0     O11937  10.861   0.510   3.034 -0.5042 -0.2935 -0.9318
  849MOL0     C11938  10.916   0.408   3.068 -0.2761 -0.5841  0.1190
  849MOL0     O11939  10.862   0.279   3.063  0.8693 -0.5143 -0.4274
  849MOL0     C11940  10.752   0.256   2.988 -1.4180  0.4902 -0.3991
  849MOL0     C11941  10.709   0.320   2.873  0.4859 -0.5334  0.5603
  849MOL0     C11942  10.593   0.272   2.811  0.0259 -0.0952  0.5485
  849MOL0     C11943  10.518   0.159   2.856 -0.3094 -0.7868  0.0596
  849MOL0     O11944  10.412   0.127   2.782 -0.0807 -0.1651  0.4110
  849MOL0     C11945  10.343   0.008   2.812  0.3034  0.3086  0.0724
  849MOL0     C11946  10.395  -0.103   2.707  0.0867 -0.5518 -0.1956
  849MOL0     C11947  10.518  -0.174   2.754 -0.5359  0.1829  0.3510
  849MOL0     C11948  10.642  -0.131   2.682 -0.1083 -0.2682 -0.3154
  849MOL0     C11949  10.775  -0.204   2.737  0.8043 -0.5800  0.0372
  849MOL0     C11950  10.912  -0.116   2.735  0.3221  0.6832 -0.2892
  849MOL0     C11951  10.892   0.021   2.805  0.3431 -1.0492  0.6668
  849MOL0     C11952  11.032   0.098   2.805  0.4079  0.6515  0.0272
  849MOL0     N11953  11.124   0.009   2.884 -0.2494 -0.6622 -0.1782
  849MOL0     C11954  11.209  -0.081   2.843 -1.6800 -0.2651  0.0429
  849MOL0     C11955  11.278  -0.121   2.951 -0.1676  0.1998  0.1639
  849MOL0     C11956  11.376  -0.234   2.955 -0.5737 -0.4731  0.0832
  849MOL0     C11957  11.329  -0.340   3.053  0.3207 -0.3001  0.0175
  849MOL0     C11958  11.225  -0.421   2.979 -0.1791  0.3343  0.1664
  849MOL0     C11959  11.087  -0.382   3.033 -0.6441  0.6766 -0.2478
  849MOL0     O11960  10.991  -0.471   2.966 -0.0193 -0.9598  0.0225
  849MOL0     C11961  10.867  -0.436   2.970  0.5073  0.2722  0.2681
  849MOL0     C11962  10.781  -0.515   2.884  0.3765  0.0175 -0.9094
  849MOL0     C11963  10.641  -0.496   2.897  0.3358 -0.4191  0.3398
  849MOL0     C11964  10.574  -0.412   2.988 -0.5015 -0.0244 -0.2057
  849MOL0     C11965  10.433  -0.412   3.007 -0.3714  0.5306 -0.2337
  849MOL0     O11966  10.388  -0.303   3.071 -0.0101 -0.2876 -0.4177
  849MOL0     C11967  10.258  -0.288   3.101 -0.6330 -0.0943 -0.2893
  849MOL0     C11968  10.167  -0.259   2.996  0.2072 -0.4062  0.1673
  849MOL0     C11969  10.033  -0.237   3.020  0.2241 -0.2486  0.0296
  849MOL0     C11970   9.985  -0.242   3.150  0.6947 -0.0512 -0.3835
  849MOL0     O11971   9.853  -0.228   3.189  0.1887  0.2528 -0.8394
  849MOL0     C11972   9.755  -0.235   3.092  0.6106  1.2151 -0.0281
  849MOL0     C11973   9.732  -0.382   3.046 -0.1967 -0.3636 -0.8245
  849MOL0     C11974   9.602  -0.394   2.962 -0.2564  0.0140  1.0138
  849MOL0     C11975   9.590  -0.538   2.916  0.2070 -0.2134 -0.1668
  849MOL0     C11976   9.446  -0.569   2.883  0.4212  0.6164  0.4580
  849MOL0     C11977   9.435  -0.722   2.853  0.5968  0.6748 -0.2109
  849MOL0     C11978   9.291  -0.772   2.889  0.2772 -0.4931  0.0542
  849MOL0     C11979   9.279  -0.927   2.905  0.0124 -0.1376 -0.3192
  849MOL0    Cl11980   9.108  -0.961   2.932  0.1604 -0.0639 -0.7916
  849MOL0     C11981  10.067  -0.278   3.250 -0.4747  0.3103  0.1916
  849MOL0     C11982  10.206  -0.302   3.230 -0.5909 -0.1751  0.1401
  849MOL0     O11983  10.365  -0.506   2.970  0.2584 -0.2998  0.2500
  849MOL0     C11984  10.666  -0.348   3.070  0.1643 -1.6019  0.6527
  849MOL0     C11985  10.807  -0.354   3.063 -0.3759 -0.9359 -0.6326
  849MOL0     N11986  11.227  -0.050   3.057  0.3272  1.0632 -0.8019
  849MOL0     N11987  11.145   0.035   3.011 -0.6356  0.0336  0.5206
  849MOL0     C11988  10.577   0.095   2.969  0.1157  0.3990 -0.5848
  849MOL0     C11989  10.693   0.147   3.030 -0.4082  0.7157 -0.3524
  849MOL0     C11990  11.054   0.432   3.118 -0.1464 -0.0738 -0.7820
  849MOL0     C11991  11.135   0.327   3.169  0.3151  1.3099 -0.7284
  849MOL0     C11992  11.266   0.350   3.204  0.9257  0.1657 -1.0694
  849MOL0     C11993  11.319   0.483   3.192 -0.1916  0.2125  0.0697
  849MOL0     O11994  11.449   0.510   3.230 -0.0838  1.1409  0.0677
  849MOL0     C11995  11.545   0.405   3.255  1.3236 -0.1890 -0.2652
  849MOL0     C11996  11.665   0.469   3.321  0.1517 -0.0431  0.6377
  849MOL0     C11997  11.776   0.516   3.212  0.1173 -0.7687 -0.4470
  849MOL0     C11998  11.917   0.525   3.276 -0.2093  0.5572 -0.2232
  849MOL0     C11999  12.027   0.558   3.178  0.0815 -0.6024  0.4738
  849MOL0     C12000  12.113   0.598   3.101 -1.1424  0.2670  0.3246
  849MOL0     C12001  11.240   0.581   3.135 -0.1775 -0.6322  0.5072
  849MOL0     C12002  11.113   0.553   3.090 -0.3036  0.3722 -0.5206
  849MOL0     H12003  10.771   0.400   2.834 -0.4471 -0.1850 -0.2426
  849MOL0     H12004  10.562   0.328   2.724  1.8606  1.4792  0.8433
  849MOL0     H12005  10.238   0.022   2.784  0.6844  1.8530 -0.6494
  849MOL0     H12006  10.342  -0.018   2.919  1.4529 -2.1403 -0.4350
  849MOL0     H12007  10.422  -0.044   2.620  1.7111  1.4481  1.5557
  849MOL0     H12008  10.321  -0.182   2.692 -1.0648  0.4428  0.0827
  849MOL0     H12009  10.511  -0.281   2.736  0.0377 -0.0175  1.2499
  849MOL0     H12010  10.518  -0.159   2.863  4.3622  1.5227  0.3725
  849MOL0     H12011  10.628  -0.140   2.573  0.3719  3.2920 -0.8088
  849MOL0     H12012  10.652  -0.024   2.702  0.1717 -0.3857  0.1784
  849MOL0     H12013  10.793  -0.295   2.680 -0.8613 -1.0396  0.1895
  849MOL0     H12014  10.755  -0.224   2.843  1.7343 -1.8376  0.0046
  849MOL0     H12015  10.942  -0.102   2.631 -0.0590  0.7781 -0.3899
  849MOL0     H12016  10.983  -0.182   2.785 -0.6952 -0.2237  0.0241
  849MOL0     H12017  10.825   0.091   2.754 -0.1158  0.5721  3.3089
  849MOL0     H12018  10.855   0.008   2.907 -1.3352  1.2148  0.4311
  849MOL0     H12019  11.032   0.191   2.863 -1.5835 -0.3493  1.7882
  849MOL0     H12020  11.069   0.109   2.702  3.4158 -1.9637  0.6751
  849MOL0     H12021  11.212  -0.131   2.747 -1.2205 -3.1941  1.4617
  849MOL0     H12022  11.479  -0.205   2.978 -0.1614 -1.0394 -0.9543
  849MOL0     H12023  11.386  -0.283   2.857  0.9389 -1.3987  0.6731
  849MOL0     H12024  11.285  -0.295   3.143 -1.8539  0.6767 -1.4472
  849MOL0     H12025  11.413  -0.404   3.083 -1.1090 -1.8536  0.9082
  849MOL0     H12026  11.227  -0.411   2.870 -0.3675 -0.1870  0.1133
  849MOL0     H12027  11.247  -0.525   3.001 -1.2534  0.8534  4.7555
  849MOL0     H12028  11.074  -0.276   3.007  0.2493  0.4413 -1.8330
  849MOL0     H12029  11.074  -0.399   3.140  0.2882 -0.2841 -0.2696
  849MOL0     H12030  10.817  -0.598   2.823  1.0071 -1.2788  1.1276
  849MOL0     H12031  10.584  -0.564   2.835  0.0375  0.1714 -0.0356
  849MOL0     H12032  10.207  -0.238   2.898 -0.9210 -0.2656 -0.2748
  849MOL0     H12033   9.975  -0.210   2.932 -0.0898  0.8934  0.5701
  849MOL0     H12034   9.774  -0.164   3.011  0.8480  0.3697 -0.7242
  849MOL0     H12035   9.668  -0.201   3.149  1.7995  2.3554  1.1641
  849MOL0     H12036   9.718  -0.451   3.130  2.6253 -0.2416 -0.1194
  849MOL0     H12037   9.825  -0.401   2.990  1.0951 -1.2529  1.4620
  849MOL0     H12038   9.602  -0.326   2.876  0.3170 -0.0455  0.9622
  849MOL0     H12039   9.529  -0.376   3.041 -0.9835 -1.7100  0.7888
  849MOL0     H12040   9.652  -0.553   2.827 -2.8102  1.1565 -2.6811
  849MOL0     H12041   9.629  -0.604   2.994 -0.6280  1.2601  1.5714
  849MOL0     H12042   9.421  -0.520   2.788  2.3304  0.8491  0.0303
  849MOL0     H12043   9.371  -0.534   2.954 -0.0086 -0.0891  0.3692
  849MOL0     H12044   9.509  -0.777   2.912  2.0983  1.6565 -1.1167
  849MOL0     H12045   9.445  -0.747   2.747 -0.0977 -1.0041  0.0748
  849MOL0     H12046   9.249  -0.728   2.980 -0.9209 -1.8055  0.1593
  849MOL0     H12047   9.223  -0.740   2.809  0.1157 -0.6664  0.1231
  849MOL0     H12048   9.330  -0.967   2.994 -0.4394  1.6891  0.8139
  849MOL0     H12049   9.313  -0.975   2.813 -2.3327  0.5552 -1.6085
  849MOL0     H12050  10.034  -0.275   3.353 -2.3713  4.4758 -0.3031
  849MOL0     H12051  10.276  -0.323   3.310  1.1854  0.2230 -1.2647
  849MOL0     H12052  10.621  -0.270   3.130 -0.4940 -1.4412 -0.0391
  849MOL0     H12053  10.867  -0.298   3.133  2.2085 -2.9069 -1.1112
  849MOL0     H12054  10.528   0.005   3.004 -0.4537  1.1964  0.7684
  849MOL0     H12055  10.740   0.095   3.113  0.7425 -1.5392 -2.2958
  849MOL0     H12056  11.088   0.230   3.185 -2.4932  2.8699  1.3695
  849MOL0     H12057  11.320   0.274   3.258  1.1914  0.7411 -0.5160
  849MOL0     H12058  11.576   0.349   3.166  0.0701 -0.4454 -0.5492
  849MOL0     H12059  11.511   0.328   3.324 -2.3510  0.1539 -1.5128
  849MOL0     H12060  11.641   0.556   3.383  3.0163  1.1466  0.2329
  849MOL0     H12061  11.708   0.394   3.388  2.6741  2.1812  1.6720
  849MOL0     H12062  11.741   0.616   3.184 -1.9885 -0.9795  1.2074
  849MOL0     H12063  11.795   0.459   3.120  1.0531  2.7105 -2.6376
  849MOL0     H12064  11.913   0.602   3.354 -0.3991 -1.1613  1.5288
  849MOL0     H12065  11.944   0.431   3.325  4.1704  2.1451  0.9070
  849MOL0     H12066  12.201   0.619   3.043 -0.6008  0.2309  1.1127
  849MOL0     H12067  11.289   0.675   3.113  1.0125 -1.4796 -0.6757
  849MOL0     H12068  11.064   0.630   3.032 -0.8655 -0.8858 -1.7841
  850MOL0     O12069   2.385   9.665   8.403 -0.0025 -0.2866 -0.1336
  850MOL0     C12070   2.430   9.643   8.295  0.1758 -0.4945 -0.0795
  850MOL0     O12071   2.360   9.603   8.183  0.3332 -0.0296 -0.0409
  850MOL0     C12072   2.232   9.562   8.186  0.8104  0.0366  0.6885
  850MOL0     C12073   2.130   9.650   8.207  1.2720  0.0916  0.3923
  850MOL0     C12074   1.997   9.606   8.204  0.5087  0.2437 -0.1231
  850MOL0     C12075   1.956   9.469   8.183  0.0137 -0.3640 -0.4170
  850MOL0     O12076   1.825   9.424   8.179 -0.3080 -0.4836  0.2471
  850MOL0     C12077   1.719   9.523   8.185  0.3747  1.3630  0.3262
  850MOL0     C12078   1.584   9.463   8.205 -0.0435  0.4109  0.6262
  850MOL0     C12079   1.486   9.580   8.179  0.3542 -0.4032 -0.7549
  850MOL0     C12080   1.350   9.506   8.212 -0.7654 -0.4390  0.4504
  850MOL0     C12081   1.230   9.597   8.235  0.5357  0.2233 -0.1765
  850MOL0     C12082   1.117   9.487   8.252  0.0698  0.4085  0.3005
  850MOL0     C12083   0.983   9.561   8.276 -0.1762  0.6848  0.5660
  850MOL0     C12084   0.874   9.469   8.331  0.1067 -0.4866 -0.4950
  850MOL0     N12085   0.743   9.530   8.324  0.3237 -0.9311  0.0995
  850MOL0     C12086   0.700   9.661   8.298 -0.2537 -0.3871  0.1702
  850MOL0     C12087   0.565   9.652   8.309  0.0355  0.5638  0.3170
  850MOL0     C12088   0.454   9.757   8.312 -0.4765 -0.2440 -0.3242
  850MOL0     C12089   0.426   9.799   8.167 -0.2872 -0.0002 -0.6203
  850MOL0     C12090   0.530   9.898   8.116 -0.1645  0.0090  0.4416
  850MOL0     C12091   0.519   9.945   7.972  0.4113  1.9560  0.0527
  850MOL0     O12092   0.404  10.025   7.961  0.2148 -0.1782  0.3716
  850MOL0     C12093   0.341  10.033   7.845 -0.5423  0.0577  0.4331
  850MOL0     C12094   0.344  10.150   7.771  0.1212 -0.4274  1.5584
  850MOL0     C12095   0.272  10.166   7.649  0.2095  0.0946 -1.3239
  850MOL0     C12096   0.200  10.060   7.596 -0.4327  0.4872  0.3686
  850MOL0     C12097   0.116  10.069   7.476 -0.1340 -0.3302 -1.0521
  850MOL0     O12098   0.040   9.951   7.454 -0.0880 -0.7805 -0.2930
  850MOL0     C12099  -0.025   9.920   7.340  0.2627 -0.5577 -0.3208
  850MOL0     C12100  -0.012   9.824   7.238  0.1909 -0.1145 -0.1682
  850MOL0     C12101  -0.115   9.795   7.138  0.2356 -0.9796 -0.0311
  850MOL0     C12102  -0.232   9.876   7.142 -0.0851  0.5149  0.6916
  850MOL0     O12103  -0.324   9.853   7.049  1.3903  0.0697  0.4658
  850MOL0     C12104  -0.422   9.954   7.024  0.3841  0.3302 -0.3580
  850MOL0     C12105  -0.464   9.960   6.876  1.0440  0.9212  0.1878
  850MOL0     C12106  -0.575  10.065   6.869  0.0405  0.4412  0.4421
  850MOL0     C12107  -0.599  10.102   6.724 -0.7509  0.1218 -0.1151
  850MOL0     C12108  -0.733  10.176   6.698 -0.7681  0.1457 -0.4623
  850MOL0     C12109  -0.730  10.259   6.570  0.2377 -0.4445 -0.0558
  850MOL0     C12110  -0.857  10.339   6.548  0.1858  0.5017  0.1809
  850MOL0     C12111  -0.887  10.391   6.404  0.5594  0.2784  0.3665
  850MOL0    Cl12112  -0.775  10.509   6.343  0.2588 -0.0120  0.1232
  850MOL0     C12113  -0.253   9.957   7.253  0.7267 -0.1793 -0.1045
  850MOL0     C12114  -0.143   9.985   7.342 -0.4191  0.3011  0.4030
  850MOL0     O12115   0.129  10.161   7.404 -0.6036 -0.5354  0.2268
  850MOL0     C12116   0.194   9.943   7.668 -0.3604 -0.0237 -1.1827
  850MOL0     C12117   0.267   9.924   7.790 -0.7489 -0.2847 -0.3184
  850MOL0     N12118   0.525   9.518   8.312  0.1747 -0.1820  0.2382
  850MOL0     N12119   0.639   9.448   8.316 -0.1591  0.2816 -0.0401
  850MOL0     C12120   2.068   9.385   8.161  0.4145  1.4227 -0.3445
  850MOL0     C12121   2.201   9.432   8.160 -0.3347  0.7200 -0.6198
  850MOL0     C12122   2.569   9.688   8.263 -0.2183 -0.5428 -0.2524
  850MOL0     C12123   2.626   9.787   8.338  0.1821 -0.1930  0.9591
  850MOL0     C12124   2.752   9.844   8.295  0.1140  0.5612  0.0510
  850MOL0     C12125   2.820   9.793   8.187  0.3580  0.0889 -0.0394
  850MOL0     O12126   2.936   9.846   8.129  0.1162  0.0909 -2.3678
  850MOL0     C12127   3.016   9.933   8.208 -0.0013 -0.1648 -0.2120
  850MOL0     C12128   3.157   9.957   8.146 -0.4711  0.8606 -0.9486
  850MOL0     C12129   3.255  10.027   8.242  0.0597 -0.7874  1.6084
  850MOL0     C12130   3.258  10.174   8.253  0.3620  0.1797  0.0863
  850MOL0     C12131   3.399  10.211   8.290  0.7523  0.0520  0.3926
  850MOL0     C12132   3.517  10.237   8.320 -0.2011  1.3699  0.1832
  850MOL0     C12133   2.758   9.692   8.113 -0.2912 -0.2813  0.1209
  850MOL0     C12134   2.640   9.642   8.153 -0.5698  0.0034  0.5786
  850MOL0     H12135   2.146   9.753   8.236 -3.4371  1.0747  0.2595
  850MOL0     H12136   1.935   9.693   8.221  1.2572  1.8020 -4.2414
  850MOL0     H12137   1.722   9.584   8.095 -2.9453  0.8314 -0.2569
  850MOL0     H12138   1.748   9.586   8.270 -1.2513 -0.6424  2.4805
  850MOL0     H12139   1.576   9.431   8.309 -2.6702  1.0508  0.7012
  850MOL0     H12140   1.574   9.384   8.130 -2.1477  0.6271  0.6166
  850MOL0     H12141   1.486   9.625   8.079  0.0355  0.3592 -0.4129
  850MOL0     H12142   1.509   9.651   8.259  2.7067 -0.3506 -1.3981
  850MOL0     H12143   1.325   9.436   8.132  0.6765 -0.7952  0.2962
  850MOL0     H12144   1.357   9.448   8.304 -1.4616 -2.5269 -0.7462
  850MOL0     H12145   1.219   9.661   8.147  3.5578 -1.6125 -2.0478
  850MOL0     H12146   1.239   9.651   8.329  0.9570 -1.2777  0.6866
  850MOL0     H12147   1.137   9.423   8.338  0.3914  1.2474  0.8663
  850MOL0     H12148   1.102   9.416   8.170  1.2031  0.9395 -0.3913
  850MOL0     H12149   0.991   9.651   8.337 -2.3011  1.9511 -0.8708
  850MOL0     H12150   0.958   9.603   8.178  1.2365  0.9251  0.2854
  850MOL0     H12151   0.897   9.448   8.435 -0.6822  0.7806 -0.0423
  850MOL0     H12152   0.878   9.376   8.273  2.8255 -0.4124 -0.5206
  850MOL0     H12153   0.752   9.756   8.306 -1.2581  0.1950 -0.0634
  850MOL0     H12154   0.468   9.845   8.376 -2.3209  0.5802 -0.9750
  850MOL0     H12155   0.359   9.712   8.344 -1.1380  2.2039  1.4905
  850MOL0     H12156   0.330   9.851   8.164 -1.0599 -1.4008 -0.9885
  850MOL0     H12157   0.422   9.716   8.096 -2.0244 -0.3373 -0.1632
  850MOL0     H12158   0.537   9.979   8.189 -1.1492  0.9727 -0.4963
  850MOL0     H12159   0.626   9.846   8.119  0.2479  0.7820  0.9356
  850MOL0     H12160   0.507   9.863   7.901 -0.6852  2.1644 -0.0275
  850MOL0     H12161   0.609   9.992   7.933  0.4589  0.5188 -1.6544
  850MOL0     H12162   0.392  10.240   7.807 -1.4063  0.7039  0.9039
  850MOL0     H12163   0.268  10.261   7.596 -1.5558  0.2291 -1.0209
  850MOL0     H12164   0.078   9.766   7.253 -1.7997 -3.6113 -0.6722
  850MOL0     H12165  -0.096   9.732   7.052  2.0615 -0.8330  0.2311
  850MOL0     H12166  -0.360  10.042   7.044  1.9982 -0.9197  0.4810
  850MOL0     H12167  -0.498   9.952   7.102  2.5609  2.1079  1.9723
  850MOL0     H12168  -0.510   9.869   6.839 -0.1740  0.8113  1.8556
  850MOL0     H12169  -0.382   9.986   6.809  1.5534 -0.5248  0.2264
  850MOL0     H12170  -0.538  10.158   6.912  1.1787  0.9812 -1.5629
  850MOL0     H12171  -0.667  10.046   6.925  1.0225 -2.0395  1.3252
  850MOL0     H12172  -0.517  10.168   6.694 -0.1491 -1.4711 -2.1488
  850MOL0     H12173  -0.596  10.010   6.665  5.0035 -1.1021  1.5062
  850MOL0     H12174  -0.733  10.242   6.785  2.6310 -0.5655  0.2103
  850MOL0     H12175  -0.821  10.112   6.707  0.8699 -2.2668 -0.7060
  850MOL0     H12176  -0.715  10.207   6.475 -1.4084 -0.5371 -0.2984
  850MOL0     H12177  -0.649  10.332   6.573  0.3471 -0.5958  1.0148
  850MOL0     H12178  -0.941  10.273   6.573  1.3786 -0.5042  1.7697
  850MOL0     H12179  -0.870  10.416   6.624 -2.3310 -1.2324  1.6732
  850MOL0     H12180  -0.989  10.429   6.401  0.3888 -0.1665  0.4597
  850MOL0     H12181  -0.882  10.304   6.337 -0.2679  1.9347 -1.9861
  850MOL0     H12182  -0.349  10.001   7.275  1.1111  1.2518 -1.1418
  850MOL0     H12183  -0.168  10.051   7.425 -1.6799 -0.1859  0.4278
  850MOL0     H12184   0.136   9.862   7.627  1.8708 -2.5346  0.2890
  850MOL0     H12185   0.270   9.836   7.853  3.3661 -1.4285 -1.7629
  850MOL0     H12186   2.040   9.280   8.163 -2.9445  2.1895 -0.1260
  850MOL0     H12187   2.277   9.358   8.137 -1.2604  0.0412 -1.6447
  850MOL0     H12188   2.573   9.815   8.428 -0.9639 -0.9527  0.5411
  850MOL0     H12189   2.795   9.923   8.356  1.7814 -0.5441  0.3869
  850MOL0     H12190   3.042   9.894   8.307 -0.6137 -2.2049 -0.8140
  850MOL0     H12191   2.974  10.035   8.213 -0.7409 -0.4208 -0.9343
  850MOL0     H12192   3.197   9.858   8.123 -1.0038  0.5508 -0.5411
  850MOL0     H12193   3.159  10.012   8.051  2.9492  3.1365  0.2441
  850MOL0     H12194   3.354  10.004   8.203  0.5293  2.7806  0.2898
  850MOL0     H12195   3.241   9.996   8.346 -1.2433  2.0703  2.3921
  850MOL0     H12196   3.248  10.213   8.151 -1.5449  0.4761  0.3632
  850MOL0     H12197   3.171  10.202   8.313 -0.0190  0.6221 -0.6588
  850MOL0     H12198   3.615  10.270   8.350  0.8159 -1.5688  0.4439
  850MOL0     H12199   2.795   9.660   8.016  0.6042 -0.5002  0.5161
  850MOL0     H12200   2.597   9.581   8.074  2.9484 -0.7503 -0.9227
  851MOL0     O12201   9.391   3.075   5.583 -0.3315  1.0371  0.5747
  851MOL0     C12202   9.489   3.033   5.524  0.1173 -0.2329  1.0795
  851MOL0     O12203   9.503   2.947   5.417  0.0537  0.0162 -0.1783
  851MOL0     C12204   9.394   2.908   5.351 -0.0951  0.5384  0.3332
  851MOL0     C12205   9.292   2.986   5.304  0.5971 -0.5658  0.7403
  851MOL0     C12206   9.180   2.930   5.242 -0.2399  0.5151 -0.3700
  851MOL0     C12207   9.178   2.793   5.208  0.1153  0.4534 -0.3621
  851MOL0     O12208   9.069   2.738   5.142  0.0766 -0.1504 -0.0058
  851MOL0     C12209   9.116   2.701   4.998 -0.2404 -0.2310 -1.3804
  851MOL0     C12210   9.005   2.678   4.903 -0.4751 -0.0415 -0.3695
  851MOL0     C12211   8.956   2.804   4.847  0.2823 -0.4761 -0.3519
  851MOL0     C12212   8.837   2.798   4.747  1.1392  0.5031 -0.5552
  851MOL0     C12213   8.844   2.922   4.661  0.1446  0.5798  0.4895
  851MOL0     C12214   8.775   2.905   4.525  0.5594 -1.6234  0.9082
  851MOL0     C12215   8.628   2.904   4.542 -1.2130 -0.3540 -0.1255
  851MOL0     C12216   8.556   2.923   4.408 -0.7927  0.8220 -1.0561
  851MOL0     N12217   8.415   2.915   4.416 -0.0973  0.0775  0.2663
  851MOL0     C12218   8.332   2.810   4.421 -0.0841 -0.5820 -0.3200
  851MOL0     C12219   8.209   2.859   4.456  0.3955  0.0250  0.4801
  851MOL0     C12220   8.081   2.774   4.477  0.2731  0.5173 -0.5819
  851MOL0     C12221   7.971   2.862   4.503 -0.0830 -0.4204 -0.6853
  851MOL0     C12222   7.849   2.778   4.528 -0.9094  0.5737 -0.7137
  851MOL0     C12223   7.731   2.875   4.519 -0.2034  0.1511 -0.3975
  851MOL0     O12224   7.617   2.788   4.507  0.2074  0.2878  0.1287
  851MOL0     C12225   7.490   2.833   4.477 -0.3048  0.3101  0.5640
  851MOL0     C12226   7.391   2.740   4.506 -0.1664 -0.5137  0.3538
  851MOL0     C12227   7.260   2.773   4.493 -0.1558  0.2051 -0.2573
  851MOL0     C12228   7.218   2.902   4.469 -0.0415 -0.0845  1.3426
  851MOL0     C12229   7.075   2.927   4.469  0.4549 -0.6956 -0.1551
  851MOL0     O12230   7.022   3.004   4.372 -0.6630  0.3577  0.1318
  851MOL0     C12231   6.904   3.064   4.410 -0.0728  0.0646  0.5468
  851MOL0     C12232   6.782   3.058   4.335 -0.2375  0.1738 -1.0356
  851MOL0     C12233   6.665   3.126   4.375  0.3902 -0.1817  0.1645
  851MOL0     C12234   6.674   3.201   4.491  0.2351  0.1336 -0.0835
  851MOL0     O12235   6.567   3.258   4.555 -0.9944  0.4249  0.0867
  851MOL0     C12236   6.437   3.210   4.532  0.2865  0.3128  0.2053
  851MOL0     C12237   6.346   3.322   4.603 -0.2288  0.2658 -0.6620
  851MOL0     C12238   6.193   3.281   4.603 -0.6504 -0.0929 -0.1758
  851MOL0     C12239   6.110   3.401   4.629  0.5394  0.5900  0.3611
  851MOL0     C12240   5.957   3.390   4.614  0.5215 -0.5071  0.7229
  851MOL0     C12241   5.888   3.512   4.552 -0.0854 -0.8785  0.1727
  851MOL0     C12242   5.738   3.523   4.526 -0.3099  0.9377  0.4642
  851MOL0     C12243   5.652   3.567   4.642  0.6336  0.2821  0.2452
  851MOL0    Cl12244   5.676   3.470   4.791 -0.2140  0.0819 -0.2064
  851MOL0     C12245   6.793   3.215   4.559  0.4189  0.6742 -0.9740
  851MOL0     C12246   6.911   3.160   4.513 -0.3750 -0.0337  0.1187
  851MOL0     O12247   7.002   2.872   4.558 -0.0256 -0.0338 -0.2444
  851MOL0     C12248   7.312   2.997   4.442  0.9417 -0.1910  0.6693
  851MOL0     C12249   7.449   2.960   4.448  0.1439  0.3209  0.2278
  851MOL0     N12250   8.222   2.997   4.473 -0.1594  0.6391 -0.8308
  851MOL0     N12251   8.349   3.025   4.455  0.0791 -0.6184 -0.7656
  851MOL0     C12252   9.274   2.716   5.264 -0.2158  0.2060 -0.9965
  851MOL0     C12253   9.381   2.773   5.332 -0.9172  0.5793  0.9766
  851MOL0     C12254   9.623   3.075   5.576 -0.1191  0.1728  0.4271
  851MOL0     C12255   9.644   3.107   5.710  1.3746 -0.6874 -0.1650
  851MOL0     C12256   9.765   3.142   5.763 -0.1182  0.3810 -0.3789
  851MOL0     C12257   9.873   3.157   5.678  0.1024 -0.4230  0.9916
  851MOL0     O12258   9.994   3.206   5.729  0.2491  0.4115 -0.0037
  851MOL0     C12259  10.104   3.195   5.645 -0.6830  0.0422  0.9759
  851MOL0     C12260  10.233   3.252   5.707  0.9184 -0.3582 -0.1272
  851MOL0     C12261  10.358   3.243   5.624  0.3583  1.1865  0.0774
  851MOL0     C12262  10.484   3.303   5.691  0.1710 -0.1804  0.5147
  851MOL0     C12263  10.606   3.276   5.611  0.8725 -0.5473  1.2638
  851MOL0     C12264  10.709   3.266   5.550  0.3708 -0.0637  0.0618
  851MOL0     C12265   9.855   3.118   5.542  0.0993  1.0550 -0.1077
  851MOL0     C12266   9.729   3.076   5.486  0.3697 -0.4098 -0.0437
  851MOL0     H12267   9.308   3.093   5.308  2.2409 -0.6508 -1.6888
  851MOL0     H12268   9.102   2.989   5.195 -0.5453 -1.0502 -1.9104
  851MOL0     H12269   9.187   2.617   5.005  0.6897  0.6438  0.3666
  851MOL0     H12270   9.183   2.777   4.957  0.1168  0.4007  0.2671
  851MOL0     H12271   8.921   2.626   4.951 -1.5547  2.1922  0.3072
  851MOL0     H12272   9.027   2.606   4.823 -0.4795  0.3153 -0.6909
  851MOL0     H12273   9.033   2.870   4.807 -0.4318  3.1497  3.5250
  851MOL0     H12274   8.928   2.841   4.946  2.8766 -1.4332  0.8514
  851MOL0     H12275   8.847   2.703   4.695 -1.1232 -1.1131  1.7485
  851MOL0     H12276   8.742   2.797   4.802  1.1191  1.5260 -0.5359
  851MOL0     H12277   8.950   2.936   4.639 -0.0222  2.4101  0.6597
  851MOL0     H12278   8.818   3.015   4.713 -0.7251  0.3087  0.5517
  851MOL0     H12279   8.807   2.813   4.476  3.8967  0.7874 -1.9434
  851MOL0     H12280   8.807   2.987   4.461 -3.2225  0.2722  1.1405
  851MOL0     H12281   8.597   2.802   4.568 -1.4583 -1.5973 -4.5055
  851MOL0     H12282   8.592   2.980   4.612 -0.2479 -0.1134  0.1166
  851MOL0     H12283   8.594   2.845   4.342  1.2452 -2.3935  3.4238
  851MOL0     H12284   8.575   3.025   4.373  0.7033  0.9806  0.1187
  851MOL0     H12285   8.368   2.711   4.397  0.5946 -1.3325  3.1707
  851MOL0     H12286   8.105   2.719   4.568 -0.5573  1.9896  0.5519
  851MOL0     H12287   8.061   2.708   4.391  2.5460 -0.2957 -0.5595
  851MOL0     H12288   7.955   2.937   4.426  0.9545 -2.0691 -2.6105
  851MOL0     H12289   8.004   2.905   4.598 -0.2523 -0.5332 -0.5761
  851MOL0     H12290   7.851   2.700   4.451 -1.0705  1.7268 -1.9330
  851MOL0     H12291   7.857   2.724   4.623 -1.7558  0.7641 -0.5225
  851MOL0     H12292   7.722   2.938   4.430 -1.2905  0.5071 -0.0483
  851MOL0     H12293   7.735   2.929   4.614  2.4215 -0.6590  0.0439
  851MOL0     H12294   7.426   2.644   4.543 -3.5643 -1.7683  0.6024
  851MOL0     H12295   7.184   2.697   4.511 -0.7410  0.7643 -0.3621
  851MOL0     H12296   6.775   2.989   4.251  1.7364 -0.3393 -0.8256
  851MOL0     H12297   6.578   3.128   4.310 -0.6091  2.0215  1.4047
  851MOL0     H12298   6.412   3.115   4.578 -1.2302  1.5394  2.0773
  851MOL0     H12299   6.417   3.206   4.424 -0.8412 -2.9812  0.4333
  851MOL0     H12300   6.360   3.415   4.547 -2.0638  2.0097  1.6020
  851MOL0     H12301   6.385   3.332   4.705 -1.8137 -1.5613  0.1807
  851MOL0     H12302   6.171   3.198   4.670 -2.1412  0.2346 -0.2354
  851MOL0     H12303   6.166   3.262   4.499 -0.2201 -2.3159  0.0668
  851MOL0     H12304   6.133   3.442   4.728  2.5130  0.8433 -0.1508
  851MOL0     H12305   6.146   3.473   4.555  2.3937 -1.2839 -0.6619
  851MOL0     H12306   5.923   3.369   4.716  2.3254 -1.8348  1.1135
  851MOL0     H12307   5.929   3.303   4.554 -0.8067  0.3587  0.0535
  851MOL0     H12308   5.943   3.549   4.465 -0.0519  1.9118  1.2592
  851MOL0     H12309   5.908   3.598   4.617 -1.3606  2.9784 -4.0402
  851MOL0     H12310   5.718   3.591   4.443 -2.4631  1.9575  1.7042
  851MOL0     H12311   5.695   3.430   4.489  0.1825  1.6065 -1.9070
  851MOL0     H12312   5.547   3.569   4.610  1.2942  0.4233 -2.0730
  851MOL0     H12313   5.682   3.669   4.667 -0.2216  0.9501 -1.3291
  851MOL0     H12314   6.784   3.273   4.651  1.8249 -3.1853  1.9141
  851MOL0     H12315   7.001   3.185   4.568  0.7022 -1.1243 -1.0889
  851MOL0     H12316   7.273   3.096   4.422 -2.9660 -1.7140 -0.0729
  851MOL0     H12317   7.519   3.039   4.425  0.1492  0.2011 -0.1790
  851MOL0     H12318   9.273   2.609   5.245 -1.2770  0.4970 -2.7427
  851MOL0     H12319   9.461   2.703   5.357 -0.5591  0.4695 -0.4085
  851MOL0     H12320   9.554   3.100   5.771  1.2452 -5.2018 -0.5444
  851MOL0     H12321   9.772   3.170   5.868  0.2034  1.2838 -0.6334
  851MOL0     H12322  10.088   3.239   5.547  0.4103 -3.6810 -1.0731
  851MOL0     H12323  10.114   3.087   5.633  1.3822  0.2078  0.8453
  851MOL0     H12324  10.203   3.355   5.732  0.1291 -0.2730 -1.3437
  851MOL0     H12325  10.267   3.209   5.802  0.1844  3.5197  2.1417
  851MOL0     H12326  10.344   3.297   5.530  1.0616 -2.6821 -2.4579
  851MOL0     H12327  10.379   3.139   5.600 -1.7883  0.0814  2.5317
  851MOL0     H12328  10.479   3.410   5.715  1.9822 -0.2582  1.3956
  851MOL0     H12329  10.489   3.258   5.791  0.4372 -2.3549 -0.4333
  851MOL0     H12330  10.805   3.278   5.504 -0.1996 -1.8863 -1.7442
  851MOL0     H12331   9.937   3.120   5.471 -1.0085 -2.2513 -1.6944
  851MOL0     H12332   9.734   3.059   5.379 -0.4275 -3.2479  0.3024
  852MOL0     O12333   2.693   0.624   8.122 -0.9922  0.1303  0.2361
  852MOL0     C12334   2.781   0.573   8.192  0.3954  0.4609 -0.6392
  852MOL0     O12335   2.760   0.481   8.290  0.3492  0.9056 -0.0155
  852MOL0     C12336   2.633   0.450   8.334 -0.7816  0.4281  0.2453
  852MOL0     C12337   2.571   0.324   8.298 -1.1666 -0.8940 -0.8013
  852MOL0     C12338   2.448   0.293   8.348  0.4548 -0.4670  0.4346
  852MOL0     C12339   2.375   0.384   8.427  0.3180  0.3848 -0.2277
  852MOL0     O12340   2.267   0.344   8.505 -0.3860  0.1532 -0.0894
  852MOL0     C12341   2.299   0.242   8.606  0.2678 -0.2620 -0.1945
  852MOL0     C12342   2.181   0.144   8.642  0.3300  0.7071 -0.6901
  852MOL0     C12343   2.121   0.078   8.512  0.0681  0.0925  0.3701
  852MOL0     C12344   2.004  -0.008   8.542  0.8578 -0.1172 -0.0040
  852MOL0     C12345   2.022  -0.107   8.658  0.1772  0.3757  0.8878
  852MOL0     C12346   1.912  -0.210   8.660  0.1094  0.6122 -0.3834
  852MOL0     C12347   1.781  -0.150   8.686 -0.6732 -0.0880 -0.2023
  852MOL0     C12348   1.664  -0.248   8.705 -0.2409 -0.0656  0.9804
  852MOL0     N12349   1.527  -0.188   8.712  0.3875  0.8811 -1.2824
  852MOL0     C12350   1.499  -0.068   8.770  0.8266 -0.0060 -0.1944
  852MOL0     C12351   1.365  -0.043   8.730 -1.3212 -1.1976 -0.4245
  852MOL0     C12352   1.285   0.070   8.794  0.6870  0.6669 -0.2196
  852MOL0     C12353   1.178   0.133   8.701  0.3285  0.1947  0.1585
  852MOL0     C12354   1.139   0.271   8.765 -0.9825  0.4302 -0.7899
  852MOL0     C12355   1.049   0.251   8.884 -0.7742  0.1105 -0.6038
  852MOL0     O12356   0.933   0.169   8.842 -0.3450 -0.1815  0.4778
  852MOL0     C12357   0.818   0.199   8.905  0.3163  0.1482  0.6518
  852MOL0     C12358   0.791   0.269   9.026 -0.2407  0.7437 -0.0823
  852MOL0     C12359   0.660   0.308   9.069  0.7055  0.2617  0.7716
  852MOL0     C12360   0.550   0.263   8.987 -0.2117 -0.2048 -0.9892
  852MOL0     C12361   0.398   0.282   9.024 -0.5833  0.7572  0.2578
  852MOL0     O12362   0.306   0.220   8.950  0.1820  0.3103 -0.8441
  852MOL0     C12363   0.169   0.205   8.997 -0.6023 -0.0140  0.3509
  852MOL0     C12364   0.069   0.218   8.900 -0.1171  0.6316 -1.1053
  852MOL0     C12365  -0.067   0.199   8.931 -0.6938  0.3708 -0.4372
  852MOL0     C12366  -0.101   0.160   9.057  0.7539  1.2193  1.6653
  852MOL0     O12367  -0.233   0.138   9.071 -0.0569  0.3739  0.4520
  852MOL0     C12368  -0.286   0.068   9.181  0.0446  0.3705 -0.5978
  852MOL0     C12369  -0.437   0.063   9.179  0.4704  0.7238 -0.2440
  852MOL0     C12370  -0.510  -0.044   9.275  0.1017 -0.0646 -0.2609
  852MOL0     C12371  -0.446  -0.040   9.415 -0.2793  0.5734  0.8151
  852MOL0     C12372  -0.515  -0.155   9.496 -0.5852 -0.1740 -0.7304
  852MOL0     C12373  -0.431  -0.181   9.620 -0.5793  0.0616 -0.7679
  852MOL0     C12374  -0.502  -0.293   9.698 -1.0442 -0.1339  0.4127
  852MOL0     C12375  -0.433  -0.344   9.833  0.2689 -0.0805  0.4969
  852MOL0    Cl12376  -0.286  -0.428   9.775  0.4266  0.1837 -0.2957
  852MOL0     C12377  -0.007   0.141   9.161 -0.6014 -0.5137  0.1113
  852MOL0     C12378   0.137   0.163   9.127 -0.2888  0.0476  0.4094
  852MOL0     O12379   0.370   0.349   9.123 -0.1905  0.0062 -0.1484
  852MOL0     C12380   0.577   0.191   8.874 -0.3386 -0.9246 -0.3541
  852MOL0     C12381   0.707   0.161   8.832 -0.8627  0.3575 -1.2529
  852MOL0     N12382   1.330  -0.137   8.636  0.3144  0.2184 -0.7083
  852MOL0     N12383   1.428  -0.225   8.627  0.4724 -0.1290 -0.3675
  852MOL0     C12384   2.430   0.506   8.451  0.6518 -0.3723 -0.6825
  852MOL0     C12385   2.560   0.538   8.415 -0.7255  0.3512  1.1752
  852MOL0     C12386   2.925   0.612   8.186 -1.0294 -0.4192  0.5537
  852MOL0     C12387   2.955   0.687   8.068  0.2377 -0.5622 -0.2085
  852MOL0     C12388   3.093   0.706   8.043 -0.3940  0.1604 -0.0265
  852MOL0     C12389   3.195   0.666   8.131  0.1151 -0.4188 -0.0766
  852MOL0     O12390   3.325   0.670   8.091 -0.2239  0.5870  0.3457
  852MOL0     C12391   3.384   0.792   8.147  0.5585  1.0036 -0.3097
  852MOL0     C12392   3.528   0.785   8.127 -1.0673 -0.8729 -0.8846
  852MOL0     C12393   3.576   0.775   7.978  1.0580  0.4985 -1.1817
  852MOL0     C12394   3.730   0.767   7.969 -0.2511 -0.4975  0.5760
  852MOL0     C12395   3.778   0.722   7.839 -0.2796  0.4531  1.2120
  852MOL0     C12396   3.843   0.707   7.738  0.0308 -0.3397 -0.1333
  852MOL0     C12397   3.168   0.596   8.249 -0.0332  0.1459  0.4875
  852MOL0     C12398   3.027   0.567   8.280  0.0226  0.0766 -0.0977
  852MOL0     H12399   2.637   0.257   8.244 -0.5948 -1.7969  0.9326
  852MOL0     H12400   2.386   0.213   8.308 -2.7958  2.2937 -0.5295
  852MOL0     H12401   2.327   0.296   8.697  2.9659  1.8078 -2.0777
  852MOL0     H12402   2.391   0.190   8.577  1.3826  0.9402  1.0420
  852MOL0     H12403   2.103   0.207   8.686  2.7904  1.2729  3.4646
  852MOL0     H12404   2.229   0.082   8.718  0.5541  1.4108 -0.2449
  852MOL0     H12405   2.192   0.021   8.452  1.2710  0.0035  1.8161
  852MOL0     H12406   2.093   0.155   8.439  0.4292 -1.4117 -1.4193
  852MOL0     H12407   1.909   0.047   8.550  2.0977  2.0609  0.8935
  852MOL0     H12408   1.979  -0.063   8.451 -0.5009 -0.1340  0.3526
  852MOL0     H12409   2.053  -0.057   8.750  0.8685  0.5348  0.5744
  852MOL0     H12410   2.108  -0.166   8.626 -0.2320  1.1610 -1.9191
  852MOL0     H12411   1.948  -0.283   8.733  1.5748 -0.1251 -1.7608
  852MOL0     H12412   1.896  -0.272   8.572 -0.2733 -0.6753  0.5583
  852MOL0     H12413   1.774  -0.080   8.770 -3.5151 -1.3587  0.7401
  852MOL0     H12414   1.763  -0.094   8.594  1.9235  1.1074 -0.0705
  852MOL0     H12415   1.682  -0.298   8.800 -0.8146 -0.8983  0.6635
  852MOL0     H12416   1.665  -0.328   8.630 -4.2502  1.4948 -1.0903
  852MOL0     H12417   1.558  -0.015   8.844 -0.2833  1.2589 -0.1632
  852MOL0     H12418   1.352   0.148   8.834  0.2833  1.7574 -1.5819
  852MOL0     H12419   1.228   0.025   8.875 -1.7441  3.2067 -0.3563
  852MOL0     H12420   1.083   0.083   8.682 -1.3370  3.6515 -1.5773
  852MOL0     H12421   1.225   0.150   8.603 -0.5268 -2.4551 -0.7863
  852MOL0     H12422   1.234   0.324   8.783 -0.6812  0.5439 -2.5324
  852MOL0     H12423   1.093   0.335   8.689  1.5531  1.8515 -1.2517
  852MOL0     H12424   1.020   0.346   8.929  0.5217  0.5773 -0.6900
  852MOL0     H12425   1.102   0.193   8.960  0.2629  3.6597  1.5888
  852MOL0     H12426   0.869   0.297   9.096 -1.1410  1.8180  0.5285
  852MOL0     H12427   0.649   0.378   9.152  4.1130  3.4420 -1.1342
  852MOL0     H12428   0.098   0.247   8.799 -2.0774  2.5183 -1.1898
  852MOL0     H12429  -0.145   0.208   8.856 -1.3160 -2.6231 -0.2759
  852MOL0     H12430  -0.240   0.086   9.278 -1.0432  0.7133 -0.1300
  852MOL0     H12431  -0.253  -0.034   9.159 -0.7894  0.0988 -0.6393
  852MOL0     H12432  -0.463   0.049   9.073 -2.5244  0.4394  0.4325
  852MOL0     H12433  -0.473   0.163   9.207 -2.8312 -0.0891 -1.1682
  852MOL0     H12434  -0.507  -0.146   9.235 -0.3561  0.9990 -3.2614
  852MOL0     H12435  -0.610  -0.002   9.285  0.6229  0.9707  0.8373
  852MOL0     H12436  -0.341  -0.059   9.394 -0.7736 -0.7399 -0.7055
  852MOL0     H12437  -0.461   0.058   9.461 -0.8583  0.1894  1.4599
  852MOL0     H12438  -0.510  -0.253   9.449  4.4164 -1.6231  2.1114
  852MOL0     H12439  -0.619  -0.137   9.525  0.2262  1.4855  1.4763
  852MOL0     H12440  -0.438  -0.085   9.672 -1.8161 -1.3079  1.7981
  852MOL0     H12441  -0.329  -0.218   9.607 -0.4901 -0.5223  1.1736
  852MOL0     H12442  -0.600  -0.260   9.733 -1.3858  0.0897 -0.7394
  852MOL0     H12443  -0.514  -0.387   9.643  0.0957 -0.2088  0.2658
  852MOL0     H12444  -0.499  -0.413   9.886 -2.8733  3.1087  1.1015
  852MOL0     H12445  -0.413  -0.257   9.896  3.8777 -0.3405 -0.0337
  852MOL0     H12446  -0.037   0.112   9.262  0.6105  1.1672  1.0130
  852MOL0     H12447   0.218   0.144   9.197  0.1086  0.8011  0.1642
  852MOL0     H12448   0.490   0.149   8.826 -2.6027 -1.4863  3.7977
  852MOL0     H12449   0.717   0.111   8.736  0.3000 -0.2090 -0.8543
  852MOL0     H12450   2.375   0.568   8.520  2.2383 -0.8107  1.0476
  852MOL0     H12451   2.622   0.624   8.440  1.8038 -1.0064 -0.0249
  852MOL0     H12452   2.895   0.718   7.983 -0.3513 -1.4013 -0.1131
  852MOL0     H12453   3.135   0.763   7.960 -0.5357  1.4623  0.7817
  852MOL0     H12454   3.368   0.791   8.255  1.4945 -1.6934 -0.1358
  852MOL0     H12455   3.329   0.880   8.112 -0.2095 -0.8310 -4.3186
  852MOL0     H12456   3.557   0.881   8.171 -5.1990 -0.3691  1.2199
  852MOL0     H12457   3.564   0.701   8.187  0.6161 -0.7536 -1.6518
  852MOL0     H12458   3.548   0.869   7.931  2.2581  2.3570  1.5711
  852MOL0     H12459   3.529   0.690   7.927  0.2432  0.1263  0.1395
  852MOL0     H12460   3.772   0.865   7.995 -2.4202  0.2139  1.6606
  852MOL0     H12461   3.778   0.708   8.047  1.0123 -0.4118 -0.1150
  852MOL0     H12462   3.894   0.683   7.647  1.9138  0.0363  0.7679
  852MOL0     H12463   3.248   0.568   8.316 -0.9864  0.7863  1.9673
  852MOL0     H12464   3.001   0.506   8.366  2.3297  2.0214  2.1239
  853MOL0     O12465   5.965   2.105  10.539 -0.1470  0.3110 -0.2632
  853MOL0     C12466   5.882   2.071  10.623 -0.0118 -0.1144 -0.0730
  853MOL0     O12467   5.895   1.972  10.716  0.2945 -0.2335 -0.5299
  853MOL0     C12468   6.008   1.895  10.715 -0.1475  0.3310 -0.3068
  853MOL0     C12469   6.036   1.809  10.616 -0.1639  0.8885 -0.2936
  853MOL0     C12470   6.163   1.750  10.603 -0.6409  0.3295 -0.2318
  853MOL0     C12471   6.251   1.757  10.706  0.9976  0.4135 -0.3542
  853MOL0     O12472   6.376   1.690  10.698  0.2896  0.0840 -0.0091
  853MOL0     C12473   6.457   1.713  10.588  0.3762 -0.6598  0.9149
  853MOL0     C12474   6.595   1.767  10.613 -0.5882 -0.0676 -0.8693
  853MOL0     C12475   6.678   1.694  10.721  0.1974 -0.4498 -0.1425
  853MOL0     C12476   6.818   1.756  10.755  0.2076 -0.3048 -0.1573
  853MOL0     C12477   6.888   1.798  10.629 -0.3387  0.3617  0.1730
  853MOL0     C12478   7.041   1.842  10.625 -1.0341  0.5500 -0.3212
  853MOL0     C12479   7.136   1.723  10.685  0.7215 -0.6094  1.0381
  853MOL0     C12480   7.283   1.737  10.645  0.0756  0.3726  0.2512
  853MOL0     N12481   7.338   1.862  10.699 -0.1827 -0.4913  0.0070
  853MOL0     C12482   7.345   1.904  10.834  0.0699 -0.2961 -0.5197
  853MOL0     C12483   7.396   2.026  10.827  0.1796  0.5405  0.4642
  853MOL0     C12484   7.413   2.108  10.954 -1.1158 -0.5279  0.2619
  853MOL0     C12485   7.551   2.107  11.019 -0.8168  1.8224 -0.5703
  853MOL0     C12486   7.594   1.967  11.053  1.2451 -0.1175  0.5039
  853MOL0     C12487   7.520   1.901  11.170 -0.6178  0.4966  0.4818
  853MOL0     O12488   7.555   1.763  11.201 -0.1540  0.2270  0.5657
  853MOL0     C12489   7.673   1.744  11.269  0.4128 -1.1372  0.3145
  853MOL0     C12490   7.694   1.818  11.392 -0.7772  0.0453  0.2700
  853MOL0     C12491   7.808   1.812  11.471  0.2577 -0.1590  0.0747
  853MOL0     C12492   7.911   1.729  11.425 -0.0484  0.7124 -0.3164
  853MOL0     C12493   8.021   1.702  11.510  1.0363  0.0246 -1.1620
  853MOL0     O12494   8.058   1.814  11.582  0.4194 -0.1101 -0.2202
  853MOL0     C12495   8.138   1.798  11.692 -0.2784 -0.4879 -0.1281
  853MOL0     C12496   8.114   1.699  11.788  1.3642 -0.1757 -0.6215
  853MOL0     C12497   8.196   1.686  11.900 -0.0261 -1.0636 -0.3464
  853MOL0     C12498   8.286   1.788  11.930  0.3955 -0.3521 -0.1144
  853MOL0     O12499   8.348   1.785  12.050  0.0038 -0.1534 -0.0633
  853MOL0     C12500   8.422   1.661  12.060 -0.7375 -0.0703  0.2237
  853MOL0     C12501   8.511   1.666  12.182  0.1524  0.4031 -0.2794
  853MOL0     C12502   8.616   1.561  12.173  0.0202 -0.9518  0.9795
  853MOL0     C12503   8.565   1.421  12.211  0.2938 -0.6534 -0.2833
  853MOL0     C12504   8.675   1.319  12.175  0.4397 -0.1952  0.1555
  853MOL0     C12505   8.809   1.348  12.243 -0.6136  0.7198 -0.1945
  853MOL0     C12506   8.896   1.224  12.230 -0.5529 -0.9128 -0.8897
  853MOL0     C12507   9.042   1.238  12.302  0.4924  0.4237  1.1825
  853MOL0    Cl12508   9.098   1.403  12.262 -0.0886  0.1889  0.1721
  853MOL0     C12509   8.313   1.893  11.834  0.0746  1.0820 -0.8481
  853MOL0     C12510   8.226   1.904  11.726 -0.0363  0.2773  0.0788
  853MOL0     O12511   8.078   1.594  11.518  0.6319 -0.4843 -0.1246
  853MOL0     C12512   7.883   1.647  11.315  1.6026 -0.3529  0.0209
  853MOL0     C12513   7.772   1.654  11.239  0.5321  0.0676 -0.4788
  853MOL0     N12514   7.417   2.063  10.697 -0.2794 -0.2091 -0.1953
  853MOL0     N12515   7.378   1.971  10.620 -0.0385  0.4470 -0.2509
  853MOL0     C12516   6.223   1.836  10.817  0.0788  0.8655 -0.8838
  853MOL0     C12517   6.096   1.901  10.824 -0.6337  0.1054 -0.1292
  853MOL0     C12518   5.757   2.138  10.586 -0.1465  0.0587 -0.5069
  853MOL0     C12519   5.637   2.070  10.616 -0.8899 -0.3308  0.1157
  853MOL0     C12520   5.515   2.130  10.582 -0.3520 -0.0450 -0.0108
  853MOL0     C12521   5.505   2.251  10.520  0.6889  0.7412  0.2600
  853MOL0     O12522   5.378   2.295  10.498 -0.7834  0.6604  0.4426
  853MOL0     C12523   5.359   2.434  10.471  0.4948 -0.1682 -0.7091
  853MOL0     C12524   5.216   2.462  10.484  0.7682 -0.5649 -0.1691
  853MOL0     C12525   5.174   2.607  10.453  0.2398  0.3225  0.0480
  853MOL0     C12526   5.034   2.625  10.376 -0.1975  0.1462 -0.7638
  853MOL0     C12527   4.925   2.550  10.449  0.0723 -0.6800 -0.8447
  853MOL0     C12528   4.846   2.483  10.502  1.7419 -0.5537 -0.2497
  853MOL0     C12529   5.618   2.328  10.493  0.2653 -0.1571  0.8427
  853MOL0     C12530   5.747   2.273  10.529 -0.6676 -0.6577  0.5093
  853MOL0     H12531   5.980   1.807  10.523  0.5980 -2.6930 -0.8154
  853MOL0     H12532   6.187   1.689  10.516  0.9289  0.2106  0.2517
  853MOL0     H12533   6.411   1.781  10.516 -0.4622 -0.1502  1.9157
  853MOL0     H12534   6.463   1.617  10.536 -1.1847  0.5088 -1.5931
  853MOL0     H12535   6.587   1.872  10.640  0.8900  0.3116 -1.8113
  853MOL0     H12536   6.652   1.768  10.520  0.5942  1.7515 -0.1743
  853MOL0     H12537   6.688   1.593  10.679  0.2560 -0.4963 -0.0163
  853MOL0     H12538   6.620   1.694  10.813 -1.6834  0.1202 -1.2810
  853MOL0     H12539   6.808   1.845  10.818 -2.1260 -1.7441  1.6719
  853MOL0     H12540   6.870   1.675  10.807 -1.7447 -3.0529 -2.1400
  853MOL0     H12541   6.823   1.875  10.586 -0.8668  0.9318  1.9153
  853MOL0     H12542   6.898   1.716  10.557  2.9089 -0.4471  1.3934
  853MOL0     H12543   7.065   1.934  10.681 -0.0554 -0.1871  0.5167
  853MOL0     H12544   7.066   1.867  10.522  0.0859 -0.5785 -0.3405
  853MOL0     H12545   7.121   1.715  10.793 -2.5943  2.3957  0.9700
  853MOL0     H12546   7.106   1.626  10.645  0.4642  0.4697 -1.5841
  853MOL0     H12547   7.291   1.734  10.536 -2.8417 -1.0501 -0.0313
  853MOL0     H12548   7.356   1.666  10.687  0.1617  0.7017  0.6685
  853MOL0     H12549   7.321   1.850  10.926 -0.9537  1.7032  0.4529
  853MOL0     H12550   7.337   2.092  11.031 -2.1622 -0.7076 -0.7807
  853MOL0     H12551   7.390   2.212  10.931 -0.5140 -0.2641  0.8261
  853MOL0     H12552   7.538   2.163  11.113 -3.0423 -0.4097  0.5918
  853MOL0     H12553   7.617   2.159  10.949 -0.1956 -0.8802 -2.1074
  853MOL0     H12554   7.581   1.917  10.957 -1.0608  2.2698 -0.5519
  853MOL0     H12555   7.695   1.940  11.084  1.7541  3.3098  2.2927
  853MOL0     H12556   7.416   1.901  11.136 -0.9529  1.1158  1.4561
  853MOL0     H12557   7.521   1.961  11.261  1.4187  2.7825 -0.9168
  853MOL0     H12558   7.628   1.894  11.433  0.2761  0.7394  0.7418
  853MOL0     H12559   7.820   1.874  11.559 -1.8720 -1.6525  1.5181
  853MOL0     H12560   8.052   1.614  11.763  0.4843  0.3552 -0.2932
  853MOL0     H12561   8.190   1.601  11.967  0.3089 -0.1390  0.9009
  853MOL0     H12562   8.470   1.626  11.968 -1.1706 -0.4011  0.1207
  853MOL0     H12563   8.348   1.590  12.096 -0.4268  0.3333  1.7344
  853MOL0     H12564   8.457   1.654  12.276 -0.5340 -1.8197 -0.9018
  853MOL0     H12565   8.561   1.763  12.192 -2.4002  1.8425 -0.7542
  853MOL0     H12566   8.691   1.593  12.246  3.6223 -1.6416 -2.0873
  853MOL0     H12567   8.663   1.555  12.075 -0.8317  0.1305  0.4817
  853MOL0     H12568   8.539   1.406  12.316  2.0525  0.0161  0.2730
  853MOL0     H12569   8.470   1.409  12.157 -0.7980  0.2704  1.3239
  853MOL0     H12570   8.696   1.303  12.069  1.3795 -0.3915  0.3584
  853MOL0     H12571   8.641   1.220  12.208 -3.2257 -0.3899 -3.4235
  853MOL0     H12572   8.787   1.372  12.348 -2.1195  0.7847 -0.5142
  853MOL0     H12573   8.859   1.432  12.194  1.6854  0.2333  1.1055
  853MOL0     H12574   8.836   1.144  12.276  0.4800 -1.3060 -0.2018
  853MOL0     H12575   8.921   1.204  12.126  1.0519  2.9845 -1.4115
  853MOL0     H12576   9.114   1.160  12.275 -0.7403 -0.2355 -0.3290
  853MOL0     H12577   9.020   1.216  12.407 -1.8915  2.3916  1.1905
  853MOL0     H12578   8.385   1.974  11.843 -0.0620  1.0867  0.3996
  853MOL0     H12579   8.229   1.984  11.653 -3.3288 -0.4466 -1.0070
  853MOL0     H12580   7.966   1.585  11.287  2.9054  1.5640 -0.5748
  853MOL0     H12581   7.749   1.588  11.156 -0.1971 -1.5956  0.9666
  853MOL0     H12582   6.298   1.829  10.896 -1.6894 -0.3958  0.7700
  853MOL0     H12583   6.079   1.956  10.916 -0.8204  0.5960 -0.4538
  853MOL0     H12584   5.642   1.964  10.641  2.5083 -0.5033 -0.7694
  853MOL0     H12585   5.424   2.078  10.609  0.4785 -1.4060  0.2716
  853MOL0     H12586   5.390   2.457  10.369 -1.0884 -0.8590 -1.3928
  853MOL0     H12587   5.417   2.489  10.545  3.1609 -2.5828 -0.8099
  853MOL0     H12588   5.168   2.399  10.410  0.8915  0.9986 -1.6474
  853MOL0     H12589   5.180   2.445  10.586  3.8559  1.3070  1.3759
  853MOL0     H12590   5.244   2.654  10.384  1.1008  0.8146  1.2192
  853MOL0     H12591   5.161   2.672  10.540  1.0628  1.1829 -0.4508
  853MOL0     H12592   5.011   2.729  10.354  3.1341  0.7331 -2.1268
  853MOL0     H12593   5.053   2.578  10.279  2.5268 -0.6411  0.0401
  853MOL0     H12594   4.783   2.415  10.557  1.0317 -0.7829 -1.3072
  853MOL0     H12595   5.626   2.426  10.447  1.1465 -0.5456  0.1243
  853MOL0     H12596   5.834   2.337  10.519  0.5913 -2.3770 -0.0015
  854MOL0     O12597   6.054   2.822  11.170  0.1174  1.0426  0.2001
  854MOL0     C12598   6.160   2.879  11.197 -0.3230  1.0614  0.2680
  854MOL0     O12599   6.166   3.001  11.236 -0.2437 -0.7666  0.2156
  854MOL0     C12600   6.053   3.073  11.235 -0.1814  0.3403  0.0313
  854MOL0     C12601   5.960   3.096  11.136  0.6693 -0.0526 -0.0223
  854MOL0     C12602   5.841   3.176  11.154  0.8195 -0.0585 -0.2327
  854MOL0     C12603   5.828   3.254  11.269  0.5688  0.3978  0.4355
  854MOL0     O12604   5.742   3.365  11.286 -0.0706  0.0431  0.2577
  854MOL0     C12605   5.609   3.339  11.223 -1.2816 -0.2011  0.0610
  854MOL0     C12606   5.514   3.453  11.262 -0.6238  0.0137 -0.1551
  854MOL0     C12607   5.489   3.466  11.410 -0.1138 -0.5188  0.5150
  854MOL0     C12608   5.409   3.592  11.447  0.4641 -0.4321  0.9151
  854MOL0     C12609   5.403   3.626  11.594  0.7772 -0.7941  0.5894
  854MOL0     C12610   5.296   3.737  11.619  0.1150 -0.4602  0.0250
  854MOL0     C12611   5.329   3.869  11.556  0.0242 -0.9190  0.7127
  854MOL0     C12612   5.242   3.984  11.610  0.8187  0.2697  0.1726
  854MOL0     N12613   5.102   3.966  11.591 -0.0554 -0.3891 -0.3153
  854MOL0     C12614   5.014   3.928  11.692 -0.4578 -1.3941 -0.3825
  854MOL0     C12615   4.894   3.916  11.628 -0.0511  0.5917  0.3811
  854MOL0     C12616   4.764   3.905  11.693  0.6484  1.2530  0.0728
  854MOL0     C12617   4.754   3.779  11.778  0.1065  0.1820  0.2642
  854MOL0     C12618   4.761   3.642  11.707 -0.4792  0.2288  0.6480
  854MOL0     C12619   4.656   3.623  11.591 -1.1021  0.7228 -0.2082
  854MOL0     O12620   4.683   3.504  11.524  0.2012 -0.2161  0.1917
  854MOL0     C12621   4.598   3.447  11.433  0.4758  0.1632  0.8230
  854MOL0     C12622   4.642   3.358  11.330  0.3398  0.6302 -0.3991
  854MOL0     C12623   4.574   3.289  11.231  0.7761 -0.9546 -0.4056
  854MOL0     C12624   4.434   3.303  11.240  0.4533  0.0214  0.4585
  854MOL0     C12625   4.346   3.249  11.137 -0.0012  0.1524 -0.0629
  854MOL0     O12626   4.209   3.256  11.162  0.0572  0.2298 -0.1179
  854MOL0     C12627   4.127   3.229  11.054  0.3738  0.4329 -0.4431
  854MOL0     C12628   4.125   3.300  10.934 -0.3894  0.1859  0.3249
  854MOL0     C12629   4.026   3.276  10.838 -1.1634 -0.3642 -0.0338
  854MOL0     C12630   3.930   3.182  10.859  0.2861  0.0984 -0.3763
  854MOL0     O12631   3.838   3.155  10.769 -0.0638  0.0560  0.1308
  854MOL0     C12632   3.730   3.240  10.798  0.1312  0.1255  0.6236
  854MOL0     C12633   3.692   3.329  10.675  0.2139  0.1984  0.0030
  854MOL0     C12634   3.636   3.261  10.543  0.3577  0.2555  0.2266
  854MOL0     C12635   3.736   3.172  10.466  0.2074  0.4516  0.2904
  854MOL0     C12636   3.857   3.251  10.426 -0.6897 -0.8029  0.4854
  854MOL0     C12637   3.836   3.321  10.305  0.1760 -0.3067 -0.6560
  854MOL0     C12638   3.966   3.391  10.256  0.2014  0.2617 -0.5397
  854MOL0     C12639   4.039   3.483  10.349 -0.6866  0.3658  0.1267
  854MOL0    Cl12640   4.138   3.587  10.233  0.0985  0.6096 -0.3431
  854MOL0     C12641   3.934   3.111  10.980  0.3301 -0.0395  0.0671
  854MOL0     C12642   4.037   3.123  11.077  0.2875  0.2199 -0.0814
  854MOL0     O12643   4.407   3.206  11.039  0.4388  0.5437  0.2517
  854MOL0     C12644   4.383   3.381  11.345 -0.4612  0.1142  0.9444
  854MOL0     C12645   4.458   3.458  11.441 -0.3174 -0.2249  1.0086
  854MOL0     N12646   4.910   3.949  11.493  0.1005 -0.2846 -0.4233
  854MOL0     N12647   5.039   3.969  11.476 -0.5284  0.3730  0.1051
  854MOL0     C12648   5.920   3.234  11.371  0.3367  0.1923 -0.1204
  854MOL0     C12649   6.028   3.152  11.345  0.0350 -0.4776 -0.0687
  854MOL0     C12650   6.285   2.787  11.202  0.5391  0.6100  0.2336
  854MOL0     C12651   6.270   2.648  11.175  0.3059 -0.2525 -0.0533
  854MOL0     C12652   6.381   2.562  11.190  0.9240 -1.3857 -0.6745
  854MOL0     C12653   6.512   2.624  11.193 -0.4984  0.2216 -0.5480
  854MOL0     O12654   6.609   2.525  11.181 -0.4495 -0.0819  0.0056
  854MOL0     C12655   6.750   2.567  11.194  0.3880  0.0549 -0.2404
  854MOL0     C12656   6.789   2.582  11.342 -0.5277  0.6817  0.4868
  854MOL0     C12657   6.736   2.472  11.438 -0.3310 -0.0466 -0.3408
  854MOL0     C12658   6.769   2.324  11.401  0.0156  0.6513 -0.7084
  854MOL0     C12659   6.911   2.282  11.373  0.7778  0.5812 -0.6680
  854MOL0     C12660   7.025   2.254  11.345  0.2856  0.5169  0.0646
  854MOL0     C12661   6.528   2.757  11.212 -0.1930 -0.8005  0.5495
  854MOL0     C12662   6.412   2.842  11.220  0.6853  0.1995 -0.0290
  854MOL0     H12663   5.973   3.045  11.041 -0.0220 -0.2285 -0.0240
  854MOL0     H12664   5.780   3.178  11.064  0.5111  1.3124 -0.0049
  854MOL0     H12665   5.566   3.243  11.252  0.0068 -0.3478  1.6444
  854MOL0     H12666   5.617   3.333  11.114  2.8729  2.0702  0.0144
  854MOL0     H12667   5.418   3.442  11.210 -0.7908  2.9901 -0.6108
  854MOL0     H12668   5.574   3.539  11.233 -0.0783  0.5053  2.2438
  854MOL0     H12669   5.578   3.480  11.471 -0.1676  2.2709  0.0778
  854MOL0     H12670   5.435   3.375  11.438  2.2329 -1.9234  0.7828
  854MOL0     H12671   5.452   3.680  11.398 -2.9913  0.3018 -1.2100
  854MOL0     H12672   5.310   3.589  11.400  1.8738  0.1931 -2.3245
  854MOL0     H12673   5.498   3.670  11.624  0.8954  1.0288 -2.0969
  854MOL0     H12674   5.382   3.527  11.635 -0.2473 -2.0107 -2.5522
  854MOL0     H12675   5.288   3.743  11.728  0.6098 -1.3522  0.1231
  854MOL0     H12676   5.201   3.703  11.576  0.4651  1.6758 -2.6434
  854MOL0     H12677   5.432   3.893  11.585  0.4732 -0.3929 -1.1949
  854MOL0     H12678   5.317   3.868  11.448  0.0505  0.8519  0.6744
  854MOL0     H12679   5.271   4.078  11.562  0.1610  2.0327  2.9670
  854MOL0     H12680   5.262   3.996  11.717  0.8383 -2.0281  0.4627
  854MOL0     H12681   5.030   3.919  11.799  1.0276 -3.4104 -0.7051
  854MOL0     H12682   4.691   3.896  11.611  2.3645 -1.9292 -1.2978
  854MOL0     H12683   4.755   3.998  11.750  0.9686  1.3743 -0.0708
  854MOL0     H12684   4.659   3.788  11.831  0.3192  1.6882  0.4171
  854MOL0     H12685   4.830   3.794  11.855  0.0212  0.2245  0.3400
  854MOL0     H12686   4.861   3.620  11.668 -0.5981 -0.9625  0.9870
  854MOL0     H12687   4.743   3.566  11.783  2.5505 -0.3467  0.9352
  854MOL0     H12688   4.670   3.702  11.516 -1.2922 -0.4364 -1.5031
  854MOL0     H12689   4.555   3.615  11.631 -1.8687 -0.1859 -2.1734
  854MOL0     H12690   4.749   3.343  11.324  0.1801 -0.7525 -0.1651
  854MOL0     H12691   4.627   3.223  11.163  1.2128 -3.9493  2.5800
  854MOL0     H12692   4.189   3.387  10.925  0.4079 -0.3346  0.8994
  854MOL0     H12693   4.041   3.342  10.753 -1.1439 -0.6932 -0.2923
  854MOL0     H12694   3.730   3.306  10.885 -0.9884 -0.5460  1.1453
  854MOL0     H12695   3.647   3.174  10.824  0.9680 -0.0034  3.2905
  854MOL0     H12696   3.779   3.391  10.654 -0.4153  0.3081 -2.6218
  854MOL0     H12697   3.615   3.398  10.711 -0.1597 -1.2702  2.2111
  854MOL0     H12698   3.597   3.344  10.483 -2.1729 -1.1631 -0.2361
  854MOL0     H12699   3.544   3.209  10.569 -0.2298  1.7479  1.2446
  854MOL0     H12700   3.763   3.088  10.531 -1.5076 -3.8840 -3.9537
  854MOL0     H12701   3.694   3.127  10.375  2.7878 -0.8111 -0.3703
  854MOL0     H12702   3.943   3.186  10.407  1.2598  1.6760  0.3249
  854MOL0     H12703   3.892   3.319  10.504  2.5472 -1.7075 -0.0286
  854MOL0     H12704   3.764   3.401  10.323 -0.1553  0.0519 -3.1842
  854MOL0     H12705   3.793   3.264  10.222 -0.9909 -0.5195  0.0876
  854MOL0     H12706   4.035   3.309  10.232  1.6838  1.5345 -0.7524
  854MOL0     H12707   3.949   3.444  10.163 -0.8844 -0.4123 -0.7423
  854MOL0     H12708   4.107   3.431  10.417  0.5463 -0.3495 -1.5816
  854MOL0     H12709   3.969   3.541  10.411 -0.2817 -1.3305  2.3094
  854MOL0     H12710   3.851   3.044  11.000 -1.0619  1.4638 -0.4010
  854MOL0     H12711   4.041   3.056  11.162  0.5246 -0.2848 -0.4870
  854MOL0     H12712   4.276   3.394  11.352 -0.5764 -1.4483  3.0923
  854MOL0     H12713   4.412   3.517  11.520 -1.8425 -0.7654  0.5582
  854MOL0     H12714   5.907   3.288  11.464  3.3427  1.3846 -0.2925
  854MOL0     H12715   6.098   3.138  11.427  0.7961 -1.5650 -0.8708
  854MOL0     H12716   6.174   2.604  11.149  0.1542 -2.2426  3.3398
  854MOL0     H12717   6.370   2.454  11.194  0.6978 -1.3545 -0.4278
  854MOL0     H12718   6.762   2.655  11.129  0.8207  0.2985  0.1631
  854MOL0     H12719   6.825   2.493  11.165  3.1250  1.0544  3.5484
  854MOL0     H12720   6.898   2.576  11.347 -0.4510  1.6481  0.0746
  854MOL0     H12721   6.769   2.684  11.376 -0.5727  1.3013 -1.2761
  854MOL0     H12722   6.628   2.472  11.421 -0.1323 -2.8611 -2.3004
  854MOL0     H12723   6.753   2.488  11.545 -1.0754 -3.3544  0.3823
  854MOL0     H12724   6.728   2.263  11.481  0.7105 -1.8804 -2.1877
  854MOL0     H12725   6.713   2.305  11.309 -0.6862  3.8246 -1.0573
  854MOL0     H12726   7.125   2.232  11.313  0.4492  1.8232 -0.3519
  854MOL0     H12727   6.621   2.814  11.222 -0.1448 -0.8496  0.3839
  854MOL0     H12728   6.434   2.948  11.222 -2.2088  0.9275  3.7248
  855MOL0     O12729   2.452   8.504   4.359 -0.4026  0.5876 -0.5083
  855MOL0     C12730   2.401   8.416   4.434  0.6736  0.4150  0.2092
  855MOL0     O12731   2.266   8.389   4.449 -0.2844 -0.2986  0.4066
  855MOL0     C12732   2.178   8.399   4.340 -1.4271  0.4763 -0.0548
  855MOL0     C12733   2.209   8.377   4.204  0.2994  0.8779  0.4248
  855MOL0     C12734   2.112   8.393   4.108  0.1035  0.8984  0.7310
  855MOL0     C12735   1.977   8.401   4.148 -0.2303 -0.0591 -0.1169
  855MOL0     O12736   1.881   8.417   4.053 -0.4220  0.1309  0.7486
  855MOL0     C12737   1.893   8.322   3.941  0.0131  0.4324  0.2888
  855MOL0     C12738   1.775   8.333   3.841 -0.2478  0.2650  0.1331
  855MOL0     C12739   1.640   8.319   3.913 -0.4076  0.5528  0.6023
  855MOL0     C12740   1.534   8.344   3.812 -0.1120  0.3896 -0.0813
  855MOL0     C12741   1.391   8.281   3.859  0.0164 -0.9332 -0.5047
  855MOL0     C12742   1.293   8.317   3.742 -0.3381 -0.2140 -0.3303
  855MOL0     C12743   1.161   8.376   3.803  0.3361  0.8139  0.5079
  855MOL0     C12744   1.045   8.369   3.698  0.4735  0.6135 -0.3880
  855MOL0     N12745   0.912   8.375   3.763  0.8337  0.5408 -0.6206
  855MOL0     C12746   0.820   8.473   3.741 -0.2312  1.0768  0.6076
  855MOL0     C12747   0.703   8.434   3.791  0.8810  0.4736  0.0097
  855MOL0     C12748   0.570   8.511   3.792  0.2411  0.3237  0.6413
  855MOL0     C12749   0.459   8.425   3.751  0.2563 -0.4433  0.1846
  855MOL0     C12750   0.341   8.514   3.748 -0.2453  0.1254 -0.1922
  855MOL0     C12751   0.212   8.447   3.712  0.3032 -1.1623 -0.8417
  855MOL0     O12752   0.212   8.398   3.576 -0.6948  0.7716 -0.0302
  855MOL0     C12753   0.099   8.326   3.542 -0.6086  0.6742  0.5272
  855MOL0     C12754   0.116   8.228   3.448 -0.1632 -0.8192 -0.6539
  855MOL0     C12755   0.011   8.165   3.388  0.4209 -0.5722  0.2860
  855MOL0     C12756  -0.119   8.199   3.423  0.2881 -0.4973 -0.9587
  855MOL0     C12757  -0.238   8.146   3.366  0.2022  0.6223  0.6743
  855MOL0     O12758  -0.214   8.064   3.248  1.0312 -0.9622 -0.5556
  855MOL0     C12759  -0.311   7.964   3.241  0.0619  0.1952  1.3975
  855MOL0     C12760  -0.378   7.944   3.111 -0.2628  0.2223  0.5218
  855MOL0     C12761  -0.464   7.845   3.096  0.1800  0.2635  0.5782
  855MOL0     C12762  -0.491   7.750   3.201 -0.0110  0.5449 -0.1548
  855MOL0     O12763  -0.575   7.639   3.188  0.7251  0.3774 -0.2147
  855MOL0     C12764  -0.700   7.666   3.260  0.2268 -0.0311 -0.2680
  855MOL0     C12765  -0.797   7.559   3.226 -0.7310  0.6913 -0.8267
  855MOL0     C12766  -0.932   7.566   3.303 -0.2046  0.1269 -0.1635
  855MOL0     C12767  -1.008   7.690   3.276 -0.1016 -0.3111  0.5921
  855MOL0     C12768  -1.152   7.675   3.322  0.1422  0.4086  0.3343
  855MOL0     C12769  -1.232   7.800   3.300 -0.0393  0.9392 -0.1362
  855MOL0     C12770  -1.369   7.761   3.365 -0.9600 -0.0724 -0.9056
  855MOL0     C12771  -1.470   7.872   3.342 -0.5479  0.2585  0.6912
  855MOL0    Cl12772  -1.499   7.867   3.163 -0.5879 -0.0229 -0.4988
  855MOL0     C12773  -0.421   7.765   3.323 -0.0092  0.2386  0.3657
  855MOL0     C12774  -0.329   7.872   3.344  0.2220 -0.1377  0.0654
  855MOL0     O12775  -0.349   8.164   3.422  0.4204 -0.0196  0.1264
  855MOL0     C12776  -0.139   8.290   3.535  0.4444  0.5915 -0.1549
  855MOL0     C12777  -0.032   8.357   3.591  0.1715 -1.3116 -0.1655
  855MOL0     N12778   0.723   8.313   3.866  0.5343 -0.9576 -0.7835
  855MOL0     N12779   0.850   8.283   3.847 -0.2020 -0.1981  0.0280
  855MOL0     C12780   1.948   8.420   4.280 -0.5880 -0.3780 -0.6980
  855MOL0     C12781   2.048   8.418   4.377  0.4498 -0.3388  1.5186
  855MOL0     C12782   2.499   8.343   4.523 -0.1704  0.0876 -0.7316
  855MOL0     C12783   2.462   8.248   4.623  0.2980 -0.9231 -0.2995
  855MOL0     C12784   2.563   8.186   4.693  1.3017 -0.3089  0.1260
  855MOL0     C12785   2.693   8.202   4.678 -0.2004 -0.2929 -0.5203
  855MOL0     O12786   2.781   8.127   4.757 -0.0175  0.3128  0.2353
  855MOL0     C12787   2.912   8.106   4.718 -0.4369 -0.6225 -0.0981
  855MOL0     C12788   2.915   8.052   4.577  0.1457 -0.8654  0.4693
  855MOL0     C12789   3.052   7.993   4.543 -0.4573  0.7062 -0.0020
  855MOL0     C12790   3.056   7.921   4.408  0.2405 -0.1780  0.2061
  855MOL0     C12791   3.003   7.789   4.430  0.1460 -0.0188  0.5797
  855MOL0     C12792   2.969   7.673   4.440 -0.4922  0.6052  0.1537
  855MOL0     C12793   2.737   8.299   4.588  0.6423  0.4314 -0.2928
  855MOL0     C12794   2.638   8.369   4.511  0.9711  0.0211  0.4217
  855MOL0     H12795   2.309   8.358   4.168 -0.1042 -0.1232 -0.2078
  855MOL0     H12796   2.147   8.390   4.005 -1.0491  1.3963  0.3168
  855MOL0     H12797   1.901   8.225   3.993  0.4633  0.6610  0.6525
  855MOL0     H12798   1.986   8.339   3.886 -1.2704  2.9874 -1.2713
  855MOL0     H12799   1.770   8.248   3.772 -1.2193  0.0867  0.4099
  855MOL0     H12800   1.777   8.432   3.797  0.0519  2.1083  3.8711
  855MOL0     H12801   1.642   8.388   3.998  5.3767  0.9320  0.5852
  855MOL0     H12802   1.631   8.219   3.957 -1.1997  0.7938  1.0092
  855MOL0     H12803   1.510   8.451   3.801  1.6078  0.8773  0.6615
  855MOL0     H12804   1.567   8.295   3.720  1.5812  2.1623 -0.4842
  855MOL0     H12805   1.365   8.332   3.952 -0.2365  0.4950 -1.3326
  855MOL0     H12806   1.404   8.173   3.867  2.0778 -0.9489 -2.8351
  855MOL0     H12807   1.293   8.228   3.679  0.3073 -1.7653  1.7629
  855MOL0     H12808   1.341   8.393   3.678 -2.1341  0.0485 -1.4363
  855MOL0     H12809   1.123   8.314   3.884  0.2421  0.1226 -0.0593
  855MOL0     H12810   1.188   8.476   3.840  2.1292  0.1238  1.1721
  855MOL0     H12811   1.039   8.273   3.647 -0.6330  0.2705  0.3559
  855MOL0     H12812   1.056   8.456   3.631 -0.0839  2.1373  1.4046
  855MOL0     H12813   0.835   8.567   3.688  0.5872  0.4689 -0.2710
  855MOL0     H12814   0.580   8.607   3.740 -1.2094 -0.6425 -1.5773
  855MOL0     H12815   0.553   8.529   3.899 -1.6473  1.4217  0.1993
  855MOL0     H12816   0.445   8.344   3.823 -2.3413 -0.5926 -0.3858
  855MOL0     H12817   0.471   8.385   3.650  0.1592  1.7022 -0.7509
  855MOL0     H12818   0.325   8.569   3.841  2.4804 -2.2176  1.8384
  855MOL0     H12819   0.348   8.582   3.662 -0.8715  1.1428  0.5392
  855MOL0     H12820   0.139   8.528   3.708  0.9681 -0.5043 -0.1147
  855MOL0     H12821   0.186   8.367   3.782 -0.2583  0.8709  1.4207
  855MOL0     H12822   0.219   8.207   3.420 -0.6159 -3.6085 -0.5749
  855MOL0     H12823   0.031   8.097   3.306 -1.8817  0.7772 -1.5238
  855MOL0     H12824  -0.360   8.015   3.032 -1.1649  2.2728  2.0633
  855MOL0     H12825  -0.504   7.824   2.997  0.7727  0.3411  0.3204
  855MOL0     H12826  -0.736   7.760   3.219 -1.5298  0.0831  1.4061
  855MOL0     H12827  -0.685   7.684   3.367  1.8540  1.0762 -0.6348
  855MOL0     H12828  -0.753   7.461   3.246 -1.2265  0.5301 -0.4852
  855MOL0     H12829  -0.814   7.559   3.118  0.2126 -1.7949 -1.0478
  855MOL0     H12830  -0.909   7.554   3.409 -2.9178 -2.1688  0.2869
  855MOL0     H12831  -0.992   7.480   3.273 -2.1105  0.7259  1.6737
  855MOL0     H12832  -0.953   7.773   3.322 -0.3242 -0.4403  1.0986
  855MOL0     H12833  -1.010   7.711   3.168 -0.2391 -0.3229  0.5914
  855MOL0     H12834  -1.132   7.654   3.427  2.1060 -2.5482 -0.4897
  855MOL0     H12835  -1.201   7.591   3.273  0.0678 -0.8369  2.4364
  855MOL0     H12836  -1.221   7.829   3.195 -2.7276  1.6548 -0.2945
  855MOL0     H12837  -1.191   7.884   3.357 -0.0331  2.0531 -1.7250
  855MOL0     H12838  -1.406   7.672   3.312 -2.5953  1.2268 -2.0411
  855MOL0     H12839  -1.370   7.736   3.471 -4.2397 -1.4317 -1.1232
  855MOL0     H12840  -1.419   7.964   3.373 -1.8694  0.3195  2.8544
  855MOL0     H12841  -1.559   7.861   3.404 -0.4384 -0.9730  0.6535
  855MOL0     H12842  -0.450   7.699   3.405  0.9603  0.2596  0.7347
  855MOL0     H12843  -0.272   7.897   3.432  1.1399 -0.1917 -0.5007
  855MOL0     H12844  -0.238   8.325   3.562  0.6964  0.7299  0.5946
  855MOL0     H12845  -0.051   8.440   3.658 -1.8742 -1.1010 -0.9259
  855MOL0     H12846   1.847   8.441   4.311 -0.7813 -2.0914 -0.0716
  855MOL0     H12847   2.017   8.413   4.481 -0.8667 -0.7969  1.1280
  855MOL0     H12848   2.360   8.218   4.643  0.7848 -1.7409  1.0743
  855MOL0     H12849   2.524   8.119   4.768  1.2129 -0.0966  0.2708
  855MOL0     H12850   2.950   8.024   4.780  2.6711 -2.7803 -4.3299
  855MOL0     H12851   2.963   8.202   4.725 -2.7661  0.9735 -2.7371
  855MOL0     H12852   2.840   7.974   4.572 -0.0435 -0.5943 -2.2940
  855MOL0     H12853   2.887   8.114   4.491  1.6211  0.3854  0.8374
  855MOL0     H12854   3.073   7.921   4.623 -1.1901  1.2422  0.6863
  855MOL0     H12855   3.120   8.077   4.557 -1.5434  1.9367 -1.7462
  855MOL0     H12856   3.000   7.983   4.338 -0.5967 -2.2022 -0.9841
  855MOL0     H12857   3.160   7.908   4.377 -0.0829 -1.7823 -0.3039
  855MOL0     H12858   2.953   7.570   4.462  2.0006  0.2705  0.6905
  855MOL0     H12859   2.840   8.326   4.567  0.2387  2.8667  0.4703
  855MOL0     H12860   2.670   8.454   4.451  1.5652  0.4362  1.2881
  856MOL0     O12861   1.990   6.439   5.548  0.7814 -0.9903  0.8168
  856MOL0     C12862   2.067   6.372   5.482 -0.1018 -0.3579 -0.3157
  856MOL0     O12863   2.040   6.254   5.414 -0.1958 -0.7543 -0.4056
  856MOL0     C12864   1.912   6.214   5.389  0.3543  0.5262  0.2827
  856MOL0     C12865   1.817   6.215   5.500 -0.0442  0.0267 -0.4255
  856MOL0     C12866   1.684   6.177   5.472 -0.5143  0.4007 -0.4949
  856MOL0     C12867   1.641   6.129   5.349  0.3364 -0.4088 -0.4141
  856MOL0     O12868   1.514   6.086   5.347 -0.1937  0.3305 -0.4848
  856MOL0     C12869   1.437   6.094   5.232  0.0154 -1.1237 -0.2630
  856MOL0     C12870   1.330   5.988   5.224  0.2742  0.2186 -0.3160
  856MOL0     C12871   1.228   6.011   5.117  0.1015  0.0350 -0.4488
  856MOL0     C12872   1.128   5.881   5.097 -0.4421 -0.1068 -0.1373
  856MOL0     C12873   0.983   5.929   5.085 -0.8319  0.7876  0.5060
  856MOL0     C12874   0.968   6.010   4.943  0.0350 -0.1967  0.9044
  856MOL0     C12875   0.818   5.988   4.883  0.8866  0.1960  0.5389
  856MOL0     C12876   0.712   6.021   4.977 -0.3847  0.1657  0.0493
  856MOL0     N12877   0.579   5.997   4.910  0.0494  0.7340 -0.0530
  856MOL0     C12878   0.488   5.904   4.934 -0.4389  0.2389 -0.0502
  856MOL0     C12879   0.388   5.924   4.848  0.4177 -0.3654  0.1636
  856MOL0     C12880   0.252   5.860   4.838 -0.4406  0.7884  0.5188
  856MOL0     C12881   0.141   5.958   4.861  0.3567  0.0986 -0.1435
  856MOL0     C12882   0.011   5.906   4.813 -0.6374  0.1919  0.0174
  856MOL0     C12883  -0.115   5.980   4.871 -0.3282 -0.0310  0.3044
  856MOL0     O12884  -0.232   5.937   4.793 -0.1177 -0.1373 -1.0937
  856MOL0     C12885  -0.361   5.981   4.828  0.9286 -0.3918 -0.5487
  856MOL0     C12886  -0.409   6.016   4.956  0.0693 -0.8642 -0.3512
  856MOL0     C12887  -0.542   6.040   4.976 -0.3824 -0.3342 -0.2619
  856MOL0     C12888  -0.631   6.043   4.866 -0.6177  0.6692 -0.1996
  856MOL0     C12889  -0.768   6.078   4.887  0.0594  0.5792 -0.3734
  856MOL0     O12890  -0.855   6.063   4.782 -0.5351  0.0885  0.0842
  856MOL0     C12891  -0.983   6.098   4.807 -0.6014 -0.7955 -0.2992
  856MOL0     C12892  -1.032   6.232   4.811  0.5736 -0.1708 -0.5949
  856MOL0     C12893  -1.169   6.247   4.831  0.3726  0.9684 -0.1744
  856MOL0     C12894  -1.249   6.139   4.870  0.4830 -1.2029 -0.7737
  856MOL0     O12895  -1.383   6.152   4.895  0.4477  0.2297  0.0551
  856MOL0     C12896  -1.483   6.065   4.840 -0.4601  0.3144  1.1204
  856MOL0     C12897  -1.628   6.133   4.852  0.2728  0.1365  0.5054
  856MOL0     C12898  -1.652   6.216   4.722  0.3340  0.6588  0.1362
  856MOL0     C12899  -1.792   6.272   4.716 -0.0454 -0.1642  0.6064
  856MOL0     C12900  -1.816   6.414   4.667  0.0132 -0.8049 -0.2771
  856MOL0     C12901  -1.960   6.438   4.630 -0.0993 -0.2633  0.5818
  856MOL0     C12902  -1.987   6.580   4.567  0.5299  0.3534  0.3462
  856MOL0     C12903  -2.119   6.659   4.600 -0.3192 -0.2838  0.7395
  856MOL0    Cl12904  -2.082   6.759   4.741 -0.1049  0.8575 -0.0884
  856MOL0     C12905  -1.189   6.018   4.873  0.5368  0.1401 -0.9150
  856MOL0     C12906  -1.059   5.993   4.842  0.7578 -0.3533  0.2882
  856MOL0     O12907  -0.806   6.116   5.004  0.1598  0.1263  0.4795
  856MOL0     C12908  -0.588   6.002   4.741 -0.5335 -1.2384  0.5661
  856MOL0     C12909  -0.454   5.977   4.725 -0.3241 -0.2764  0.1470
  856MOL0     N12910   0.421   6.029   4.767 -0.5120  0.5939 -0.0015
  856MOL0     N12911   0.533   6.076   4.800 -0.1106 -0.0192  0.3080
  856MOL0     C12912   1.734   6.120   5.242 -0.1174 -0.8055  0.5113
  856MOL0     C12913   1.872   6.161   5.266  0.4824 -0.5610 -0.2881
  856MOL0     C12914   2.198   6.437   5.461  0.7901 -1.1746  0.8431
  856MOL0     C12915   2.310   6.359   5.438  0.1924  0.1008  0.1061
  856MOL0     C12916   2.435   6.412   5.426 -0.0291 -0.2651  0.1622
  856MOL0     C12917   2.456   6.548   5.437 -0.5912 -0.7031  0.1892
  856MOL0     O12918   2.585   6.595   5.437  0.8690  0.5196 -0.1837
  856MOL0     C12919   2.628   6.715   5.374  0.1023 -0.3075 -0.9844
  856MOL0     C12920   2.748   6.785   5.449  0.2952 -0.9256  0.5324
  856MOL0     C12921   2.877   6.689   5.441  0.5029 -0.2665  0.0362
  856MOL0     C12922   2.949   6.718   5.307  0.9327  0.6563  0.1203
  856MOL0     C12923   3.082   6.667   5.332 -0.5389 -0.4959  0.5806
  856MOL0     C12924   3.190   6.612   5.357  0.0231  0.0099 -0.3311
  856MOL0     C12925   2.353   6.631   5.470  0.9774 -0.1337 -0.3732
  856MOL0     C12926   2.225   6.578   5.481  0.1256  0.6476 -0.0264
  856MOL0     H12927   1.834   6.254   5.600  0.4914  2.9870 -1.5671
  856MOL0     H12928   1.616   6.173   5.557  0.7482 -1.2981  0.5167
  856MOL0     H12929   1.500   6.100   5.143  0.8423  1.3680  0.4139
  856MOL0     H12930   1.390   6.192   5.245  0.2807 -0.6984 -2.1531
  856MOL0     H12931   1.269   5.977   5.314 -0.5459 -1.7202 -1.0420
  856MOL0     H12932   1.373   5.888   5.209  2.1864  0.7773  1.0846
  856MOL0     H12933   1.282   6.045   5.028 -1.4511  5.6978  0.3197
  856MOL0     H12934   1.169   6.093   5.161  0.7299 -0.2606  1.0109
  856MOL0     H12935   1.159   5.832   5.005  0.5585  2.1339 -1.0702
  856MOL0     H12936   1.128   5.808   5.178  0.7202  1.2783  1.1761
  856MOL0     H12937   0.957   5.977   5.180  1.9465 -1.6104  2.6586
  856MOL0     H12938   0.945   5.828   5.071 -1.2733  0.6805  2.2709
  856MOL0     H12939   1.048   5.970   4.880 -0.2771  0.1214  0.2988
  856MOL0     H12940   0.994   6.112   4.972 -0.4524 -0.1893  1.3245
  856MOL0     H12941   0.797   6.053   4.797 -0.5656  2.8551  2.7338
  856MOL0     H12942   0.812   5.888   4.839 -0.2111  1.1474 -1.6558
  856MOL0     H12943   0.728   6.126   4.999 -0.8936  0.8365 -2.4126
  856MOL0     H12944   0.732   5.970   5.071 -1.2772  3.4003  2.1245
  856MOL0     H12945   0.494   5.831   5.013  0.6032  0.3317 -0.0356
  856MOL0     H12946   0.248   5.786   4.919  1.0486  1.3216  1.1143
  856MOL0     H12947   0.253   5.815   4.738 -1.6406 -0.2069  0.9227
  856MOL0     H12948   0.169   6.057   4.824  3.7154  0.2287  2.2534
  856MOL0     H12949   0.136   5.977   4.969  3.6645  0.3850  0.0611
  856MOL0     H12950   0.021   5.918   4.705  3.3619  1.1572  0.3283
  856MOL0     H12951   0.004   5.802   4.845 -0.8550  0.2394  0.1247
  856MOL0     H12952  -0.110   6.086   4.845  0.5582 -0.0417  0.4127
  856MOL0     H12953  -0.116   5.965   4.979 -0.3352 -0.5697  0.2317
  856MOL0     H12954  -0.342   6.020   5.040  0.8307 -0.5324 -0.9611
  856MOL0     H12955  -0.580   6.078   5.071 -1.7289  0.2354 -0.9982
  856MOL0     H12956  -0.962   6.312   4.792  0.0296  0.5662  0.3948
  856MOL0     H12957  -1.209   6.344   4.803 -0.1660  0.6012 -0.6820
  856MOL0     H12958  -1.483   5.965   4.885  0.4647 -0.4184 -0.4107
  856MOL0     H12959  -1.456   6.036   4.738 -1.5473  0.2583  0.8389
  856MOL0     H12960  -1.626   6.206   4.933  1.3982 -0.4087  0.9968
  856MOL0     H12961  -1.694   6.047   4.865  1.0615 -0.3744  1.3398
  856MOL0     H12962  -1.628   6.154   4.635 -0.0274 -0.1579  0.6028
  856MOL0     H12963  -1.585   6.301   4.735  0.3063  0.4402  1.8560
  856MOL0     H12964  -1.851   6.209   4.649 -3.2055 -0.6531  3.6318
  856MOL0     H12965  -1.837   6.261   4.815  0.7089 -3.4420  0.6704
  856MOL0     H12966  -1.741   6.439   4.592  0.8078 -1.2290  0.3621
  856MOL0     H12967  -1.795   6.475   4.756 -1.3131 -4.9462  3.2214
  856MOL0     H12968  -2.026   6.431   4.717  0.1901  2.1819  1.0714
  856MOL0     H12969  -1.997   6.365   4.558 -4.4885  0.5234  1.7779
  856MOL0     H12970  -1.894   6.634   4.587  1.0659  0.1184 -1.3078
  856MOL0     H12971  -2.005   6.568   4.460 -1.3201 -0.6937  0.7313
  856MOL0     H12972  -2.212   6.602   4.609  0.2767 -1.3529  0.3701
  856MOL0     H12973  -2.133   6.732   4.520 -1.4152  0.8728  1.9452
  856MOL0     H12974  -1.259   5.939   4.898 -1.2501  0.9660 -3.0005
  856MOL0     H12975  -1.021   5.891   4.837 -0.0610 -0.6191 -1.0884
  856MOL0     H12976  -0.648   6.005   4.651  2.0890 -0.3235 -1.2733
  856MOL0     H12977  -0.411   5.942   4.632  0.2954  0.1125  0.2802
  856MOL0     H12978   1.701   6.076   5.148 -0.7857 -0.0793  0.3909
  856MOL0     H12979   1.945   6.160   5.186  0.0605 -1.9943 -0.6870
  856MOL0     H12980   2.310   6.253   5.416 -0.6738  0.3687 -1.2975
  856MOL0     H12981   2.519   6.357   5.385  1.6013  0.8798  1.8454
  856MOL0     H12982   2.549   6.790   5.366 -0.5111 -0.5953  1.5300
  856MOL0     H12983   2.672   6.692   5.277  3.7499  2.6292 -0.2815
  856MOL0     H12984   2.761   6.873   5.384 -0.8204 -1.3474 -0.2864
  856MOL0     H12985   2.722   6.807   5.553  0.6956  0.2201  0.4113
  856MOL0     H12986   2.858   6.582   5.454  2.4629 -0.5338  1.1174
  856MOL0     H12987   2.948   6.728   5.515  0.2475  1.0077 -0.3705
  856MOL0     H12988   2.904   6.689   5.212  1.8064  0.6927 -0.3219
  856MOL0     H12989   2.953   6.827   5.313 -1.0008  0.8018 -0.6849
  856MOL0     H12990   3.288   6.570   5.363 -0.4162 -1.0245 -0.1150
  856MOL0     H12991   2.385   6.727   5.507 -0.6814 -1.4777  5.5848
  856MOL0     H12992   2.147   6.646   5.515 -2.1256 -2.3675  1.3441
  857MOL0     O12993   1.125   3.875   2.433 -0.6673 -0.1166 -0.2432
  857MOL0     C12994   1.079   3.893   2.322  0.5178 -0.2268 -0.8505
  857MOL0     O12995   0.945   3.860   2.284 -0.0253  0.1179 -0.8134
  857MOL0     C12996   0.844   3.825   2.377  0.0506 -0.0847 -0.9491
  857MOL0     C12997   0.716   3.832   2.317  0.1992  0.0519  0.0475
  857MOL0     C12998   0.604   3.792   2.392 -0.1682  0.1409 -0.5095
  857MOL0     C12999   0.615   3.747   2.527 -0.2919 -0.1473 -0.1274
  857MOL0     O13000   0.501   3.710   2.597 -0.0906  0.9311 -0.1776
  857MOL0     C13001   0.497   3.710   2.744  0.4203 -0.3666 -0.6370
  857MOL0     C13002   0.366   3.634   2.773 -0.6594 -0.0175 -0.4320
  857MOL0     C13003   0.328   3.638   2.914  0.3695 -0.0362 -0.3022
  857MOL0     C13004   0.180   3.597   2.932 -0.3407 -0.0087 -0.7912
  857MOL0     C13005   0.161   3.582   3.083  0.7831 -0.2466 -0.9605
  857MOL0     C13006   0.007   3.577   3.113  0.5448  0.3362  0.4398
  857MOL0     C13007  -0.011   3.518   3.253 -0.7877 -0.0433  0.5840
  857MOL0     C13008  -0.154   3.494   3.278 -0.5506  0.5387  0.3114
  857MOL0     N13009  -0.244   3.615   3.286 -0.0238 -0.1106 -0.5287
  857MOL0     C13010  -0.206   3.737   3.324 -0.4937  0.4179  0.1536
  857MOL0     C13011  -0.316   3.809   3.344  0.3011  0.6966  0.6707
  857MOL0     C13012  -0.343   3.953   3.384  0.0993 -0.0108 -0.2974
  857MOL0     C13013  -0.354   3.980   3.537 -0.1052  0.2755  0.5337
  857MOL0     C13014  -0.419   4.118   3.560  0.0866 -0.2374  0.8140
  857MOL0     C13015  -0.413   4.152   3.706 -0.2512 -0.9670  0.5307
  857MOL0     O13016  -0.462   4.037   3.786 -0.4857 -0.7049 -0.5040
  857MOL0     C13017  -0.593   4.028   3.811  0.7102  0.1268 -0.7438
  857MOL0     C13018  -0.699   4.119   3.758  1.0204  0.2745  0.9496
  857MOL0     C13019  -0.834   4.104   3.798 -0.6743  0.9579 -0.4809
  857MOL0     C13020  -0.874   3.999   3.891  0.6063 -0.6653  1.1761
  857MOL0     C13021  -1.014   3.972   3.928 -0.1496 -0.0330 -0.0020
  857MOL0     O13022  -1.096   4.045   3.856 -0.3212  0.6751  0.2152
  857MOL0     C13023  -1.232   4.052   3.863  0.2278 -1.0879 -0.4800
  857MOL0     C13024  -1.285   4.179   3.859 -0.6436  0.4599 -0.0364
  857MOL0     C13025  -1.422   4.203   3.863  0.6407  0.4497  0.3529
  857MOL0     C13026  -1.514   4.090   3.866 -0.1112  0.2050 -0.9827
  857MOL0     O13027  -1.661   4.098   3.862  0.0682 -0.1927 -0.1048
  857MOL0     C13028  -1.743   4.222   3.867  0.1335  0.7328  0.5842
  857MOL0     C13029  -1.731   4.293   4.004  0.2540  0.1648 -0.5202
  857MOL0     C13030  -1.776   4.444   4.000  0.1340  0.2197 -0.2851
  857MOL0     C13031  -1.921   4.454   3.958 -0.1290 -0.4145 -0.0537
  857MOL0     C13032  -1.968   4.598   3.998  0.5764 -1.2107  0.2616
  857MOL0     C13033  -2.102   4.634   3.939  0.2150 -0.1146 -0.6345
  857MOL0     C13034  -2.155   4.773   3.959 -0.0872  0.6199 -0.1704
  857MOL0     C13035  -2.124   4.819   4.103 -0.4167  0.0325 -0.0745
  857MOL0    Cl13036  -2.226   4.974   4.126 -0.2252  0.1076  0.2050
  857MOL0     C13037  -1.458   3.959   3.878 -0.4836  0.9529 -0.2665
  857MOL0     C13038  -1.319   3.945   3.877 -0.2765  1.2018  0.2993
  857MOL0     O13039  -1.048   3.897   4.016 -0.2588 -0.4056  0.3757
  857MOL0     C13040  -0.774   3.906   3.922  0.7816  0.4330 -0.9025
  857MOL0     C13041  -0.636   3.931   3.903 -0.7134 -0.4104 -0.2323
  857MOL0     N13042  -0.425   3.720   3.334  0.1249 -0.6158  0.4173
  857MOL0     N13043  -0.377   3.605   3.302  0.6445  0.0773 -0.2415
  857MOL0     C13044   0.746   3.741   2.576  0.4104 -0.2779 -0.4215
  857MOL0     C13045   0.858   3.783   2.510  0.2121  0.2814 -0.3854
  857MOL0     C13046   1.168   3.933   2.210 -0.9299 -0.0460  0.1976
  857MOL0     C13047   1.116   3.960   2.085  0.6270 -0.4475  0.5345
  857MOL0     C13048   1.189   3.991   1.970 -0.4589  0.3375 -0.1143
  857MOL0     C13049   1.332   3.987   1.986  0.5937 -0.2647  0.4562
  857MOL0     O13050   1.414   3.990   1.877  0.0470  0.7069 -0.3389
  857MOL0     C13051   1.362   4.017   1.747  0.1054  0.5858  0.6214
  857MOL0     C13052   1.336   4.162   1.736 -0.0261 -0.4442  0.9967
  857MOL0     C13053   1.456   4.254   1.685 -0.4166  0.3173  0.2463
  857MOL0     C13054   1.577   4.248   1.782 -0.4044  0.0223  0.8201
  857MOL0     C13055   1.681   4.320   1.710 -0.3673  0.2570 -1.1199
  857MOL0     C13056   1.765   4.385   1.652  0.2489  0.3897 -0.1610
  857MOL0     C13057   1.390   3.969   2.118 -0.1319  0.0942 -0.3724
  857MOL0     C13058   1.305   3.931   2.223 -0.1211 -0.3862 -0.3620
  857MOL0     H13059   0.699   3.864   2.215  1.0111 -2.6998 -1.0169
  857MOL0     H13060   0.504   3.801   2.351 -0.4387 -2.4045 -0.5201
  857MOL0     H13061   0.506   3.816   2.772  0.4375  0.3931 -3.2962
  857MOL0     H13062   0.587   3.662   2.784 -0.3886 -1.1855  0.2827
  857MOL0     H13063   0.389   3.529   2.757  0.5621 -0.2331  2.2048
  857MOL0     H13064   0.288   3.660   2.701  1.5015 -1.3245 -3.4654
  857MOL0     H13065   0.362   3.731   2.959 -0.0933  1.9671 -3.7894
  857MOL0     H13066   0.397   3.567   2.961  1.0835 -1.3361 -3.0701
  857MOL0     H13067   0.112   3.672   2.891 -3.2090 -1.1592  1.4424
  857MOL0     H13068   0.143   3.504   2.887  1.6568 -1.0379 -0.4287
  857MOL0     H13069   0.206   3.656   3.150 -0.6170 -0.5693  0.3911
  857MOL0     H13070   0.202   3.486   3.117 -1.4448 -0.1865  2.3952
  857MOL0     H13071  -0.032   3.502   3.043  0.2070  2.3234 -1.6154
  857MOL0     H13072  -0.047   3.665   3.079  0.3220  0.1731  0.3649
  857MOL0     H13073   0.054   3.432   3.269  0.2830  0.5446 -0.3999
  857MOL0     H13074   0.022   3.594   3.325  1.9109  1.0815 -1.6662
  857MOL0     H13075  -0.173   3.432   3.366  1.9616 -0.9103 -0.0738
  857MOL0     H13076  -0.186   3.434   3.192  0.5150 -1.5533  1.3030
  857MOL0     H13077  -0.107   3.780   3.335  0.1426 -1.3241  1.6659
  857MOL0     H13078  -0.436   3.980   3.334  0.5021  1.1386 -0.4772
  857MOL0     H13079  -0.260   4.016   3.349  1.6215 -1.0427  1.2619
  857MOL0     H13080  -0.257   3.956   3.581 -0.6251 -1.7067  0.6687
  857MOL0     H13081  -0.427   3.905   3.569  0.4722 -2.6293 -4.0810
  857MOL0     H13082  -0.369   4.197   3.503 -0.6370  1.8569  2.8944
  857MOL0     H13083  -0.525   4.110   3.535  0.4055  2.4606 -2.0552
  857MOL0     H13084  -0.464   4.246   3.727 -0.6155 -0.0778 -3.5016
  857MOL0     H13085  -0.308   4.171   3.727 -0.2292 -2.7779  2.3826
  857MOL0     H13086  -0.675   4.208   3.701 -1.3251  1.3556  1.5414
  857MOL0     H13087  -0.907   4.177   3.763 -3.1369  0.7407  3.5622
  857MOL0     H13088  -1.214   4.261   3.858  0.7907 -0.6668  1.9201
  857MOL0     H13089  -1.454   4.306   3.865 -0.0842  0.2274  1.9223
  857MOL0     H13090  -1.842   4.184   3.843  0.0809  0.6718  0.8889
  857MOL0     H13091  -1.703   4.287   3.789 -1.1187 -0.2598 -0.9263
  857MOL0     H13092  -1.627   4.291   4.037  0.6126 -1.0431 -1.6490
  857MOL0     H13093  -1.801   4.249   4.075  0.8991 -2.8977 -1.6363
  857MOL0     H13094  -1.719   4.482   3.915 -1.2820  0.6486 -1.0601
  857MOL0     H13095  -1.755   4.493   4.095 -1.2022  3.0545 -1.3396
  857MOL0     H13096  -1.926   4.447   3.849  3.1617 -0.6646 -0.3055
  857MOL0     H13097  -1.983   4.375   4.001  0.2302 -3.1065 -3.9498
  857MOL0     H13098  -1.888   4.669   3.975 -0.3269  0.2932  1.6152
  857MOL0     H13099  -1.989   4.593   4.105 -3.9436  0.4657 -0.3368
  857MOL0     H13100  -2.177   4.565   3.980  0.8825  0.3118  1.4451
  857MOL0     H13101  -2.093   4.609   3.833 -0.0572 -1.2100 -0.4164
  857MOL0     H13102  -2.118   4.836   3.878  0.1416  0.2233 -0.3742
  857MOL0     H13103  -2.263   4.771   3.944  0.2694  0.1478 -3.1935
  857MOL0     H13104  -2.020   4.839   4.128  0.2919 -3.6623  0.6170
  857MOL0     H13105  -2.149   4.741   4.176 -0.5000 -0.2515 -0.4044
  857MOL0     H13106  -1.521   3.871   3.873 -1.6473  1.6956  0.6184
  857MOL0     H13107  -1.278   3.845   3.887  0.7666  1.7044  1.3388
  857MOL0     H13108  -0.814   3.827   3.984 -0.0241  4.3165  4.1821
  857MOL0     H13109  -0.562   3.863   3.943  1.2358 -1.1984 -4.5497
  857MOL0     H13110   0.755   3.708   2.679 -0.8633 -1.9680 -0.8097
  857MOL0     H13111   0.955   3.778   2.557 -0.3897 -0.3627  0.8439
  857MOL0     H13112   1.008   3.956   2.075  0.4426 -1.9487  2.4779
  857MOL0     H13113   1.144   4.012   1.874  2.1066  2.0589 -1.0630
  857MOL0     H13114   1.270   3.962   1.723  2.0617 -1.4586 -3.0551
  857MOL0     H13115   1.436   3.988   1.672 -2.2678 -1.7024 -1.0017
  857MOL0     H13116   1.266   4.169   1.653  0.1063 -0.2390  0.9035
  857MOL0     H13117   1.299   4.197   1.833 -0.9647 -1.5095  1.0454
  857MOL0     H13118   1.426   4.359   1.682  1.1361  0.7723 -0.5903
  857MOL0     H13119   1.489   4.232   1.583 -2.4771  2.2184 -0.9287
  857MOL0     H13120   1.553   4.302   1.874 -1.6531 -1.8946  1.6766
  857MOL0     H13121   1.598   4.142   1.795 -2.5748 -0.6925 -0.8557
  857MOL0     H13122   1.823   4.458   1.598 -1.6815 -0.7371 -4.1466
  857MOL0     H13123   1.498   3.962   2.131 -0.4638 -1.0363  2.6411
  857MOL0     H13124   1.347   3.895   2.316  4.3304  2.4156 -0.9694
  858MOL0     O13125  10.038   6.450   6.942  0.4421 -0.4692  0.8836
  858MOL0     C13126  10.087   6.401   6.846  0.6583 -0.6658 -1.0142
  858MOL0     O13127  10.012   6.341   6.752  0.1625 -0.4324 -0.2143
  858MOL0     C13128   9.871   6.350   6.750 -0.7958  0.2121  0.3424
  858MOL0     C13129   9.805   6.265   6.657 -0.4617 -0.2292 -0.0474
  858MOL0     C13130   9.674   6.286   6.614  0.1117  0.3846  0.9095
  858MOL0     C13131   9.591   6.377   6.681  0.0392 -0.0874 -0.6336
  858MOL0     O13132   9.458   6.399   6.658 -0.0504 -0.0427 -0.8295
  858MOL0     C13133   9.384   6.284   6.613 -1.0591 -0.3565 -0.5347
  858MOL0     C13134   9.243   6.320   6.654 -0.1894  0.3426  0.4542
  858MOL0     C13135   9.129   6.244   6.603  0.6204  0.6668  0.3402
  858MOL0     C13136   8.996   6.276   6.672 -0.0850  0.2311 -0.9390
  858MOL0     C13137   8.894   6.162   6.688 -0.8743 -0.6280 -0.1822
  858MOL0     C13138   8.866   6.087   6.550  0.4097  0.5866  0.3533
  858MOL0     C13139   8.747   5.990   6.568 -0.1308 -0.0306 -0.5714
  858MOL0     C13140   8.785   5.855   6.632  0.2620 -1.1559  0.7629
  858MOL0     N13141   8.683   5.754   6.625 -0.5628  0.7311 -0.1713
  858MOL0     C13142   8.558   5.772   6.658 -0.2129 -0.7264 -0.5939
  858MOL0     C13143   8.507   5.647   6.629 -0.1828 -0.3838  0.4531
  858MOL0     C13144   8.362   5.616   6.638  0.0412  0.1581  0.7357
  858MOL0     C13145   8.323   5.508   6.748  0.0685 -0.4638 -0.4568
  858MOL0     C13146   8.171   5.469   6.725 -1.0130 -0.0809  0.5830
  858MOL0     C13147   8.086   5.598   6.772  0.0688  0.7969  0.8149
  858MOL0     O13148   7.942   5.561   6.756 -0.6557 -0.1127  0.2956
  858MOL0     C13149   7.840   5.638   6.814  0.5663 -0.2109 -0.8681
  858MOL0     C13150   7.717   5.583   6.823  0.3402 -1.1710  0.5613
  858MOL0     C13151   7.613   5.655   6.886  0.0976 -0.7466 -0.6910
  858MOL0     C13152   7.635   5.780   6.945 -0.1926 -0.0803 -0.1265
  858MOL0     C13153   7.520   5.845   7.006  0.8916  0.3488  1.5200
  858MOL0     O13154   7.398   5.797   6.976 -0.0761  0.0516  0.2570
  858MOL0     C13155   7.300   5.856   7.051  0.7314 -0.1434  0.3394
  858MOL0     C13156   7.188   5.911   6.985 -0.6329 -0.6764  0.1426
  858MOL0     C13157   7.086   5.959   7.068 -0.4434 -1.1720 -0.9158
  858MOL0     C13158   7.101   5.977   7.205  0.0766  0.2339 -0.2154
  858MOL0     O13159   6.988   6.015   7.274  0.3311 -0.0956  0.9756
  858MOL0     C13160   6.999   6.058   7.406  0.1828 -0.1833  0.1715
  858MOL0     C13161   6.882   6.170   7.430  0.2243  0.6330 -0.0755
  858MOL0     C13162   6.896   6.259   7.561 -0.5835  0.2137 -0.6434
  858MOL0     C13163   6.777   6.349   7.561 -0.4718 -0.1768  0.1732
  858MOL0     C13164   6.759   6.405   7.698  0.7056 -0.0787  0.4553
  858MOL0     C13165   6.622   6.458   7.706  0.1717 -1.0102 -0.5532
  858MOL0     C13166   6.615   6.592   7.627 -0.2770 -0.4334  0.9417
  858MOL0     C13167   6.473   6.649   7.634 -0.6893  0.3827  0.4978
  858MOL0    Cl13168   6.427   6.667   7.814 -0.2980  0.9177 -0.2968
  858MOL0     C13169   7.209   5.924   7.270  0.0332 -0.3727  0.3184
  858MOL0     C13170   7.313   5.861   7.191 -0.5305  0.3073  0.4426
  858MOL0     O13171   7.544   5.950   7.065  0.3074  0.1350  0.4267
  858MOL0     C13172   7.770   5.833   6.932  0.7453 -0.2613  0.0643
  858MOL0     C13173   7.873   5.762   6.874  0.6908  0.0770  0.0972
  858MOL0     N13174   8.602   5.558   6.587 -0.1988 -0.8698 -0.9959
  858MOL0     N13175   8.713   5.626   6.587  0.3951  0.5960  0.7861
  858MOL0     C13176   9.644   6.442   6.796 -0.1561  0.5312  0.3000
  858MOL0     C13177   9.778   6.425   6.828  0.3754 -0.0730  0.3082
  858MOL0     C13178  10.236   6.402   6.842 -0.0207 -0.3129 -1.2419
  858MOL0     C13179  10.300   6.346   6.732 -0.2911 -0.6674 -0.3156
  858MOL0     C13180  10.442   6.367   6.710  0.1081  0.1790 -1.0395
  858MOL0     C13181  10.524   6.416   6.811 -0.4606 -0.5109  0.4661
  858MOL0     O13182  10.662   6.413   6.796 -0.0893 -0.0605  0.3798
  858MOL0     C13183  10.734   6.505   6.878 -0.1566  0.5707 -0.3342
  858MOL0     C13184  10.885   6.512   6.846  0.6176  0.2114 -0.2236
  858MOL0     C13185  10.944   6.649   6.881 -0.7225 -0.5787 -0.3626
  858MOL0     C13186  11.093   6.641   6.888 -0.4409  0.6192 -0.5542
  858MOL0     C13187  11.160   6.706   6.994 -0.0106  0.2769  0.5680
  858MOL0     C13188  11.205   6.760   7.097 -0.3924 -0.0098 -0.1625
  858MOL0     C13189  10.456   6.468   6.924  0.0203  0.6301  0.3979
  858MOL0     C13190  10.316   6.461   6.946 -0.0621  0.4821  0.7595
  858MOL0     H13191   9.855   6.187   6.601 -2.1847 -2.2272  1.0567
  858MOL0     H13192   9.647   6.230   6.525  0.1080 -0.9201  1.7170
  858MOL0     H13193   9.410   6.189   6.661 -3.5660 -0.3716  0.9639
  858MOL0     H13194   9.395   6.286   6.504  0.4036  0.2596 -0.4006
  858MOL0     H13195   9.221   6.425   6.633  1.9497  1.2531  2.3709
  858MOL0     H13196   9.242   6.311   6.763  0.2418  1.5587  0.5733
  858MOL0     H13197   9.151   6.137   6.606 -4.8609 -0.7693  1.7359
  858MOL0     H13198   9.124   6.264   6.496  0.2351  1.8536  0.5572
  858MOL0     H13199   9.007   6.315   6.774  4.2021 -3.3724  0.3055
  858MOL0     H13200   8.955   6.355   6.609  0.4667  4.1740  3.1004
  858MOL0     H13201   8.800   6.207   6.723  1.0140  3.8145 -0.1782
  858MOL0     H13202   8.926   6.082   6.755  1.7173 -1.8863 -2.6842
  858MOL0     H13203   8.943   6.017   6.516 -1.6040 -0.6746 -1.9167
  858MOL0     H13204   8.840   6.157   6.470 -0.4855 -0.8337 -0.6584
  858MOL0     H13205   8.668   6.043   6.622  1.5853  0.5073  1.5653
  858MOL0     H13206   8.710   5.962   6.469  0.7723 -1.0970 -0.6373
  858MOL0     H13207   8.805   5.870   6.738 -1.7338 -0.6587  1.1002
  858MOL0     H13208   8.874   5.817   6.581 -0.0966 -0.4364 -0.4209
  858MOL0     H13209   8.509   5.861   6.697  0.6280 -0.7712  0.5856
  858MOL0     H13210   8.321   5.600   6.538  0.1672 -0.3547  0.7629
  858MOL0     H13211   8.317   5.711   6.668 -0.1695  0.4936 -0.5930
  858MOL0     H13212   8.336   5.542   6.851 -0.2218 -0.2871 -0.4773
  858MOL0     H13213   8.386   5.420   6.731  1.3083  0.0875  1.0241
  858MOL0     H13214   8.158   5.453   6.617  3.1908 -0.9659  0.0619
  858MOL0     H13215   8.144   5.380   6.784  0.3308  0.0704  1.4578
  858MOL0     H13216   8.105   5.687   6.710 -0.5287  2.1698  2.5232
  858MOL0     H13217   8.123   5.610   6.874  2.1551  1.0349  0.0816
  858MOL0     H13218   7.700   5.484   6.781 -1.4403 -0.8567  0.4705
  858MOL0     H13219   7.517   5.606   6.898  0.3424 -1.0174  0.2344
  858MOL0     H13220   7.184   5.912   6.877 -0.8142 -1.7187  0.1287
  858MOL0     H13221   6.992   5.990   7.025  0.2802  1.6135 -0.6769
  858MOL0     H13222   7.096   6.108   7.422 -0.0651 -0.4861  3.1040
  858MOL0     H13223   6.986   5.979   7.480  3.6567 -0.5172  0.6101
  858MOL0     H13224   6.787   6.117   7.419  0.4480  0.6420 -2.6973
  858MOL0     H13225   6.887   6.243   7.348 -0.4028  4.6859  3.1753
  858MOL0     H13226   6.989   6.316   7.558  0.0172 -0.6514  0.9526
  858MOL0     H13227   6.897   6.204   7.655  0.2724  3.0637  1.1086
  858MOL0     H13228   6.790   6.427   7.486 -0.8505  0.6396  0.9428
  858MOL0     H13229   6.684   6.299   7.532  0.2985 -2.5309  1.5042
  858MOL0     H13230   6.826   6.491   7.707 -1.0040  1.5194 -1.1780
  858MOL0     H13231   6.770   6.327   7.774  0.3103 -0.8755 -0.2900
  858MOL0     H13232   6.600   6.481   7.811  2.1057 -1.0079 -0.1118
  858MOL0     H13233   6.545   6.389   7.669 -0.2194 -0.3497 -0.9978
  858MOL0     H13234   6.689   6.657   7.673 -1.5357  0.8713  1.1839
  858MOL0     H13235   6.633   6.582   7.519 -0.8422  1.0062  0.6888
  858MOL0     H13236   6.399   6.592   7.576 -0.9761  0.3619  0.8738
  858MOL0     H13237   6.478   6.750   7.593  2.0422  0.4553  0.8199
  858MOL0     H13238   7.214   5.901   7.376 -1.2575  3.6125  1.4111
  858MOL0     H13239   7.399   5.814   7.237  0.7398 -0.4832 -2.5436
  858MOL0     H13240   7.796   5.927   6.978 -2.7065  0.0666  1.6260
  858MOL0     H13241   7.965   5.818   6.867  0.1357  0.8844 -1.0329
  858MOL0     H13242   9.584   6.512   6.852 -2.1718 -1.5345  0.8582
  858MOL0     H13243   9.819   6.485   6.908 -0.0432  0.9889 -0.2480
  858MOL0     H13244  10.233   6.299   6.661 -2.6447  2.7772 -0.6732
  858MOL0     H13245  10.491   6.326   6.622  3.8865  1.9952  0.0040
  858MOL0     H13246  10.709   6.470   6.979 -0.6741 -0.1270 -0.6999
  858MOL0     H13247  10.689   6.605   6.869 -2.7702 -0.4028  1.0318
  858MOL0     H13248  10.924   6.425   6.899 -1.6789 -0.3473  0.6455
  858MOL0     H13249  10.905   6.513   6.738 -2.1959 -0.6925 -0.8480
  858MOL0     H13250  10.922   6.692   6.979  2.9322  2.4460 -0.6688
  858MOL0     H13251  10.914   6.731   6.815  0.0154  0.4582  0.5683
  858MOL0     H13252  11.131   6.539   6.896  2.3804  1.7203  2.9962
  858MOL0     H13253  11.137   6.685   6.798 -2.0204  3.6084 -0.0314
  858MOL0     H13254  11.257   6.808   7.178 -0.1511  0.4639 -0.5879
  858MOL0     H13255  10.519   6.491   7.009  0.4822  3.9039 -0.6881
  858MOL0     H13256  10.275   6.478   7.045  0.0139 -2.5880  1.4174
  859MOL0     O13257   8.618   0.083   2.227 -0.0612  0.1526 -0.4170
  859MOL0     C13258   8.666   0.073   2.342 -0.5507  0.6673 -0.2482
  859MOL0     O13259   8.617   0.131   2.457  0.0512  0.0729  0.4678
  859MOL0     C13260   8.482   0.171   2.462  0.0372 -0.2481  0.3948
  859MOL0     C13261   8.378   0.102   2.395 -0.4501 -0.5299  0.3766
  859MOL0     C13262   8.251   0.126   2.411  0.7836 -0.5990 -0.0954
  859MOL0     C13263   8.218   0.235   2.501  0.4412  0.9537 -0.3370
  859MOL0     O13264   8.084   0.280   2.493 -0.3127 -0.7876 -0.3838
  859MOL0     C13265   8.042   0.404   2.553 -0.2809 -0.0707  0.7432
  859MOL0     C13266   7.912   0.463   2.496  0.0390  0.3427 -0.5704
  859MOL0     C13267   7.861   0.596   2.560 -0.2289 -0.3922  0.3676
  859MOL0     C13268   7.732   0.647   2.503  1.4400 -0.3914 -0.6993
  859MOL0     C13269   7.677   0.764   2.580  0.3869 -0.5524  0.0215
  859MOL0     C13270   7.535   0.797   2.543  0.3220  0.2696  0.6738
  859MOL0     C13271   7.501   0.938   2.585  0.2642  0.7549 -0.2992
  859MOL0     C13272   7.544   1.047   2.484  0.3667 -0.4906  0.6795
  859MOL0     N13273   7.442   1.062   2.377  0.4301 -0.0536  0.6863
  859MOL0     C13274   7.396   1.190   2.342 -0.3004  0.1272 -0.4080
  859MOL0     C13275   7.320   1.158   2.233  0.0621  0.8281  0.3557
  859MOL0     C13276   7.245   1.274   2.167 -0.6017 -0.2219 -0.5735
  859MOL0     C13277   7.115   1.313   2.244  0.3382  0.2405 -0.0477
  859MOL0     C13278   7.030   1.198   2.284 -0.3178  0.8691 -0.5640
  859MOL0     C13279   6.902   1.246   2.343  0.4689 -0.6581  1.2861
  859MOL0     O13280   6.829   1.142   2.410  0.5072 -0.0187 -0.3108
  859MOL0     C13281   6.697   1.170   2.435 -0.3506 -0.2677  0.0585
  859MOL0     C13282   6.595   1.131   2.348 -0.1859 -0.9538 -0.3643
  859MOL0     C13283   6.461   1.161   2.372  0.2473 -0.4349  0.7387
  859MOL0     C13284   6.428   1.227   2.493  0.1857  0.8244  0.1457
  859MOL0     C13285   6.292   1.245   2.518  1.4129  0.4411 -0.2082
  859MOL0     O13286   6.198   1.177   2.449  0.6587 -0.1406 -0.2258
  859MOL0     C13287   6.067   1.211   2.461  0.1657 -0.9883 -0.2245
  859MOL0     C13288   6.034   1.340   2.425 -0.1315  0.0523 -0.3178
  859MOL0     C13289   5.905   1.388   2.445  0.3190 -0.5592  0.9201
  859MOL0     C13290   5.807   1.299   2.497 -0.6143 -1.4624 -0.4641
  859MOL0     O13291   5.677   1.348   2.494 -0.2543  0.0363 -0.2878
  859MOL0     C13292   5.584   1.265   2.427  0.2089 -0.1172 -0.9984
  859MOL0     C13293   5.436   1.310   2.439 -0.2623  1.5541 -0.0737
  859MOL0     C13294   5.369   1.308   2.301 -0.1057  0.0227  0.7840
  859MOL0     C13295   5.217   1.291   2.310 -0.1306 -1.2972  0.2883
  859MOL0     C13296   5.152   1.377   2.420 -0.5903 -0.6957  0.0076
  859MOL0     C13297   5.000   1.380   2.403 -0.1046  1.1896  0.0430
  859MOL0     C13298   4.938   1.446   2.531 -0.3339  0.4339 -0.5430
  859MOL0     C13299   4.973   1.588   2.560  0.3115  0.2137 -0.2456
  859MOL0    Cl13300   4.844   1.678   2.645  0.0236  0.5780  0.0560
  859MOL0     C13301   5.850   1.179   2.533  1.0009 -0.3853  0.1817
  859MOL0     C13302   5.974   1.130   2.513 -0.0194  0.2297  0.0800
  859MOL0     O13303   6.264   1.329   2.598 -0.0323 -0.5692 -0.0193
  859MOL0     C13304   6.526   1.284   2.572 -0.4790  0.0728  1.2235
  859MOL0     C13305   6.663   1.248   2.547  0.0312  0.3931  0.0671
  859MOL0     N13306   7.318   1.025   2.197  0.0027  0.2923 -0.5662
  859MOL0     N13307   7.384   0.967   2.290 -0.0064 -0.0266  0.2774
  859MOL0     C13308   8.308   0.299   2.578 -0.1444 -0.7397  0.2558
  859MOL0     C13309   8.443   0.260   2.562  0.0546 -0.4860  1.1099
  859MOL0     C13310   8.791   0.005   2.363 -0.2053 -0.3375  1.1916
  859MOL0     C13311   8.847  -0.008   2.492 -0.0396  0.7282 -0.1678
  859MOL0     C13312   8.981  -0.058   2.496 -0.7764  0.2999  0.6322
  859MOL0     C13313   9.056  -0.092   2.378 -0.1388 -0.6666  0.9937
  859MOL0     O13314   9.188  -0.132   2.376 -0.1498 -0.6236  0.3462
  859MOL0     C13315   9.259  -0.144   2.500  0.0897 -0.2486  0.3267
  859MOL0     C13316   9.244  -0.289   2.549  0.8623 -0.1026  0.0759
  859MOL0     C13317   9.322  -0.379   2.441  0.6109  0.5413  0.4416
  859MOL0     C13318   9.256  -0.511   2.423  0.2121  0.4071 -0.0678
  859MOL0     C13319   9.331  -0.588   2.316 -0.1720 -0.4986  0.0159
  859MOL0     C13320   9.386  -0.639   2.224  0.2320 -0.3468  0.2762
  859MOL0     C13321   8.991  -0.083   2.256 -0.1307  0.6167 -0.3379
  859MOL0     C13322   8.862  -0.043   2.249 -0.0314  0.4179 -0.4672
  859MOL0     H13323   8.404   0.009   2.345 -1.7359 -0.9512  0.4629
  859MOL0     H13324   8.170   0.079   2.355 -1.5956  2.0876  0.7935
  859MOL0     H13325   8.120   0.472   2.518 -0.1888 -0.4810  0.1429
  859MOL0     H13326   8.043   0.407   2.662 -0.6146 -0.1127  0.7487
  859MOL0     H13327   7.834   0.387   2.513 -0.4781  1.4830  3.1240
  859MOL0     H13328   7.931   0.482   2.391  1.0216  1.0559 -0.2698
  859MOL0     H13329   7.939   0.673   2.556 -1.2833  0.8039  2.0462
  859MOL0     H13330   7.859   0.583   2.668  1.5531  1.4663  0.7043
  859MOL0     H13331   7.741   0.672   2.397 -4.9639  0.2104 -1.5025
  859MOL0     H13332   7.656   0.569   2.493  1.0529 -0.2574  0.8913
  859MOL0     H13333   7.744   0.848   2.556 -1.1252  0.1185 -2.1170
  859MOL0     H13334   7.687   0.741   2.687 -2.5829 -0.4567  0.4051
  859MOL0     H13335   7.459   0.735   2.591 -0.2052 -1.0713 -1.7275
  859MOL0     H13336   7.524   0.777   2.436  1.9523 -1.0213  0.7117
  859MOL0     H13337   7.394   0.955   2.601 -0.1554  0.9230 -2.8051
  859MOL0     H13338   7.551   0.960   2.680 -0.6799  0.4038  0.2881
  859MOL0     H13339   7.642   1.015   2.447 -0.5611 -0.7221 -1.7672
  859MOL0     H13340   7.538   1.139   2.542 -3.3600  0.9731 -1.6862
  859MOL0     H13341   7.423   1.288   2.379  2.1304  0.3198 -2.3866
  859MOL0     H13342   7.236   1.246   2.062  1.3923  0.6321 -1.0177
  859MOL0     H13343   7.316   1.357   2.170  1.6121 -1.8220 -3.2823
  859MOL0     H13344   7.062   1.378   2.174  0.1207 -1.5658 -1.6416
  859MOL0     H13345   7.143   1.366   2.336  1.3065 -0.0267 -0.1854
  859MOL0     H13346   7.019   1.126   2.202  1.0168 -2.4130  1.8933
  859MOL0     H13347   7.075   1.144   2.369 -2.1624  0.3636  0.1343
  859MOL0     H13348   6.833   1.285   2.267 -1.4282 -1.7661  2.3415
  859MOL0     H13349   6.910   1.331   2.410 -1.4354  0.2071  0.4983
  859MOL0     H13350   6.635   1.081   2.261 -0.2554 -0.2301 -0.8192
  859MOL0     H13351   6.384   1.123   2.306 -0.7827  1.6849  0.6537
  859MOL0     H13352   6.113   1.402   2.382  0.9342 -2.0112 -1.4576
  859MOL0     H13353   5.860   1.479   2.406 -1.4064 -2.0290 -0.7556
  859MOL0     H13354   5.603   1.162   2.457  1.4116 -0.1716 -1.8460
  859MOL0     H13355   5.619   1.276   2.324 -0.8791 -3.8202 -1.9068
  859MOL0     H13356   5.425   1.409   2.482  0.3580  0.5451  2.5595
  859MOL0     H13357   5.386   1.236   2.502  1.8287  0.1849  0.0925
  859MOL0     H13358   5.411   1.231   2.236 -1.8152  0.6209 -1.1293
  859MOL0     H13359   5.394   1.400   2.247  0.4596 -1.2455 -1.2271
  859MOL0     H13360   5.168   1.323   2.218  0.2051  0.6722  0.7431
  859MOL0     H13361   5.194   1.186   2.331  0.6006 -1.6657 -0.6997
  859MOL0     H13362   5.189   1.479   2.407 -1.3847 -0.2017  1.4742
  859MOL0     H13363   5.185   1.339   2.517 -1.6622 -1.0263  0.2513
  859MOL0     H13364   4.965   1.276   2.407 -0.2468  1.2375  0.0438
  859MOL0     H13365   4.970   1.418   2.305  0.0482 -1.5612 -1.1742
  859MOL0     H13366   4.829   1.443   2.519 -0.0663 -3.5561 -4.7156
  859MOL0     H13367   4.972   1.382   2.613  0.5001  0.7219 -0.6496
  859MOL0     H13368   5.003   1.629   2.463  4.3488 -2.3433 -0.3026
  859MOL0     H13369   5.070   1.591   2.610  0.1830  6.5939  0.4874
  859MOL0     H13370   5.780   1.105   2.569  0.0522  1.1565  1.6336
  859MOL0     H13371   6.007   1.034   2.550 -0.4285  0.5041  1.1865
  859MOL0     H13372   6.520   1.348   2.660  2.0020  0.3777  1.2334
  859MOL0     H13373   6.740   1.294   2.608  1.6422  2.3734 -3.1732
  859MOL0     H13374   8.284   0.380   2.646 -0.2606 -0.4695 -0.0994
  859MOL0     H13375   8.514   0.329   2.606 -0.4985  0.4782  0.5256
  859MOL0     H13376   8.791   0.026   2.579 -1.4934  0.0767 -0.8104
  859MOL0     H13377   9.030  -0.096   2.585 -0.7757 -0.9690  0.1023
  859MOL0     H13378   9.222  -0.076   2.578 -1.9710 -0.8259 -0.0995
  859MOL0     H13379   9.352  -0.096   2.471 -1.8081  4.4396  1.0848
  859MOL0     H13380   9.298  -0.307   2.643  2.5289 -5.6687 -1.5519
  859MOL0     H13381   9.140  -0.320   2.561  1.4885 -2.1574  0.5863
  859MOL0     H13382   9.430  -0.378   2.451  0.6190 -1.8946  1.3935
  859MOL0     H13383   9.303  -0.328   2.346 -3.0285  1.4436  1.4956
  859MOL0     H13384   9.246  -0.573   2.513  0.1168  1.2229  0.4962
  859MOL0     H13385   9.156  -0.493   2.383  0.3337  1.1845 -0.0283
  859MOL0     H13386   9.421  -0.684   2.134  0.5973 -0.0398  0.2610
  859MOL0     H13387   9.043  -0.112   2.165  1.3594  0.4458  0.5269
  859MOL0     H13388   8.827  -0.033   2.147  2.8283  0.7599 -1.5065
  860MOL0     O13389   1.338   5.819   8.537 -0.6134 -0.5455 -0.7820
  860MOL0     C13390   1.336   5.754   8.429  0.0184  0.1600 -0.2130
  860MOL0     O13391   1.402   5.796   8.317  0.1101  0.5030 -0.1297
  860MOL0     C13392   1.516   5.868   8.319  0.6730 -0.0836  0.5925
  860MOL0     C13393   1.611   5.871   8.423 -0.4087 -0.2426  0.6234
  860MOL0     C13394   1.719   5.961   8.418 -0.6286  0.4017 -0.0632
  860MOL0     C13395   1.743   6.046   8.314 -0.0292  0.0363 -0.2859
  860MOL0     O13396   1.836   6.141   8.322  0.0307  0.1268 -0.2526
  860MOL0     C13397   1.964   6.103   8.261 -0.2247  0.0135  0.1815
  860MOL0     C13398   2.037   6.218   8.191  0.3956 -0.5315 -0.1009
  860MOL0     C13399   2.103   6.334   8.282  0.1519 -0.4119 -0.1738
  860MOL0     C13400   2.138   6.446   8.194 -0.4349 -0.5020 -0.4093
  860MOL0     C13401   2.229   6.562   8.251  0.7039 -0.1466  0.0816
  860MOL0     C13402   2.151   6.638   8.361  0.1439 -0.9522  0.0382
  860MOL0     C13403   2.244   6.754   8.406  0.6044 -0.2468  0.6542
  860MOL0     C13404   2.170   6.849   8.489  0.5567  0.1327 -0.9007
  860MOL0     N13405   2.076   6.778   8.580 -0.2582  0.3051  0.7233
  860MOL0     C13406   1.939   6.780   8.565  0.0570  0.6495 -0.3158
  860MOL0     C13407   1.889   6.739   8.689 -0.2012 -0.1235  0.0196
  860MOL0     C13408   1.748   6.749   8.741  0.4489 -1.0841 -0.2034
  860MOL0     C13409   1.650   6.775   8.628  0.3882  0.7429 -0.2579
  860MOL0     C13410   1.509   6.759   8.689 -1.1395 -1.2498 -0.3477
  860MOL0     C13411   1.407   6.764   8.577 -0.4520  0.1400  0.5535
  860MOL0     O13412   1.280   6.773   8.629  0.3360  0.2117  0.6408
  860MOL0     C13413   1.215   6.655   8.640 -0.2354  0.2706 -0.9347
  860MOL0     C13414   1.076   6.669   8.627  0.2045  0.1144 -1.1769
  860MOL0     C13415   0.989   6.557   8.638 -0.2015  0.0189  1.0189
  860MOL0     C13416   1.038   6.432   8.675 -0.7380  0.2008  0.5039
  860MOL0     C13417   0.948   6.316   8.700  0.1730 -0.2787  0.4637
  860MOL0     O13418   0.810   6.327   8.705  0.9859  0.4225 -0.4194
  860MOL0     C13419   0.732   6.235   8.767  0.2237  0.6565 -0.5714
  860MOL0     C13420   0.756   6.195   8.903 -1.2914 -1.0433 -0.9794
  860MOL0     C13421   0.655   6.118   8.963  0.1915 -0.1219  0.1747
  860MOL0     C13422   0.545   6.071   8.889 -0.2153 -0.4445 -0.3525
  860MOL0     O13423   0.442   6.000   8.939  0.1230 -0.0786  0.6304
  860MOL0     C13424   0.435   5.970   9.081 -0.5773 -0.4664  0.1964
  860MOL0     C13425   0.301   5.901   9.110  1.3045  0.0529 -0.0417
  860MOL0     C13426   0.186   5.909   8.999  0.7178  1.0174 -1.2265
  860MOL0     C13427   0.062   5.843   9.060 -0.5908  0.1630  0.5399
  860MOL0     C13428  -0.061   5.862   8.975  0.2599 -0.7623 -0.4932
  860MOL0     C13429  -0.173   5.764   9.012  0.3801  0.7416 -0.3116
  860MOL0     C13430  -0.298   5.757   8.916  0.7655 -0.5082  0.2258
  860MOL0     C13431  -0.433   5.728   8.981 -0.6853  0.5174 -0.5735
  860MOL0    Cl13432  -0.474   5.867   9.074  0.3032  0.0232 -0.3240
  860MOL0     C13433   0.529   6.111   8.757 -1.0701 -0.1169 -0.4321
  860MOL0     C13434   0.618   6.195   8.694 -0.3084 -0.2518  0.2683
  860MOL0     O13435   1.008   6.215   8.729 -0.1234 -0.5887 -0.2601
  860MOL0     C13436   1.177   6.421   8.693  0.4877 -0.0515 -0.9387
  860MOL0     C13437   1.268   6.535   8.683 -0.0522  0.4199 -0.1285
  860MOL0     N13438   1.995   6.709   8.772 -0.7730 -0.6475  0.7525
  860MOL0     N13439   2.104   6.733   8.702  0.4579 -0.0827 -0.5401
  860MOL0     C13440   1.653   6.038   8.205  0.1254 -0.6647 -0.1079
  860MOL0     C13441   1.553   5.943   8.201  0.2139  0.2849 -0.3943
  860MOL0     C13442   1.280   5.622   8.417  0.7291  0.0240  0.7626
  860MOL0     C13443   1.278   5.552   8.288  0.3241  0.0766 -0.0005
  860MOL0     C13444   1.219   5.424   8.279 -0.0220  0.3482  0.1095
  860MOL0     C13445   1.153   5.373   8.388 -0.7643 -0.0962 -0.4581
  860MOL0     O13446   1.096   5.254   8.359 -0.5880  0.4644 -0.4285
  860MOL0     C13447   1.054   5.169   8.469 -0.3929 -0.0956  0.0621
  860MOL0     C13448   1.014   5.046   8.395  0.0357  0.2508  0.0327
  860MOL0     C13449   0.885   5.047   8.322  0.7465  0.0018  1.2974
  860MOL0     C13450   0.845   4.903   8.270  0.2875  0.1127 -0.3738
  860MOL0     C13451   0.713   4.915   8.211 -0.7247  0.1013 -0.7510
  860MOL0     C13452   0.592   4.927   8.193 -0.6621  0.9520 -0.1293
  860MOL0     C13453   1.135   5.449   8.512  0.9798 -0.7395 -0.0671
  860MOL0     C13454   1.200   5.572   8.522 -0.0233  0.2440 -0.4699
  860MOL0     H13455   1.605   5.818   8.518  3.7218 -0.8485  0.7215
  860MOL0     H13456   1.790   5.976   8.499 -2.8931  1.5301  1.8038
  860MOL0     H13457   1.952   6.031   8.178  0.2225  3.3020 -3.0004
  860MOL0     H13458   2.022   6.062   8.344  0.9074  1.6475  0.2256
  860MOL0     H13459   1.971   6.252   8.111  2.3588  0.0702 -1.5731
  860MOL0     H13460   2.123   6.180   8.135 -0.1101  0.3150 -1.5191
  860MOL0     H13461   2.196   6.296   8.326 -0.0597 -0.4711  0.2264
  860MOL0     H13462   2.035   6.353   8.366 -0.2348 -4.0037  0.4875
  860MOL0     H13463   2.199   6.406   8.112 -1.2324  0.3973 -1.4634
  860MOL0     H13464   2.041   6.477   8.154 -0.0183 -1.1728 -2.0173
  860MOL0     H13465   2.250   6.624   8.164  2.5121 -0.2208  0.4249
  860MOL0     H13466   2.326   6.526   8.285  1.4713  0.3939 -1.4753
  860MOL0     H13467   2.126   6.578   8.449  0.9933 -0.5595  0.5643
  860MOL0     H13468   2.069   6.694   8.316  2.3032  0.6498 -2.1762
  860MOL0     H13469   2.332   6.737   8.469 -0.2092  1.0642  2.2224
  860MOL0     H13470   2.291   6.807   8.323  0.2017 -0.9601 -0.0426
  860MOL0     H13471   2.115   6.922   8.430  0.8946  0.3252 -0.9760
  860MOL0     H13472   2.237   6.910   8.550 -1.1053  0.3176  0.8237
  860MOL0     H13473   1.892   6.822   8.477  1.4612  0.0191 -1.4039
  860MOL0     H13474   1.745   6.838   8.806 -0.6272  0.9054 -2.7830
  860MOL0     H13475   1.706   6.659   8.785 -0.3537 -1.3764 -1.5067
  860MOL0     H13476   1.654   6.708   8.542 -0.8291 -1.2173  1.1399
  860MOL0     H13477   1.658   6.879   8.595 -1.8975  1.5204  1.3777
  860MOL0     H13478   1.506   6.660   8.734 -2.6243 -0.8317  0.5307
  860MOL0     H13479   1.486   6.842   8.757  0.4372 -0.5645 -0.5871
  860MOL0     H13480   1.420   6.682   8.505  0.5464  0.5462  0.2565
  860MOL0     H13481   1.418   6.850   8.510 -1.8870 -0.8260 -1.0321
  860MOL0     H13482   1.033   6.767   8.609  1.6305  0.9255 -0.3734
  860MOL0     H13483   0.881   6.564   8.630 -0.6586 -2.4939  3.5321
  860MOL0     H13484   0.843   6.226   8.960 -2.2899  0.2561 -0.1250
  860MOL0     H13485   0.652   6.092   9.068 -0.2532  2.7966  0.9881
  860MOL0     H13486   0.444   6.058   9.146  0.5680  1.0872 -1.9193
  860MOL0     H13487   0.518   5.903   9.106  0.6354  0.1442 -1.8828
  860MOL0     H13488   0.260   5.944   9.201  2.1842 -3.8123  2.3678
  860MOL0     H13489   0.322   5.795   9.125  1.3479 -0.1707 -1.5204
  860MOL0     H13490   0.213   5.868   8.902 -0.4102 -1.2769 -0.6253
  860MOL0     H13491   0.159   6.014   8.981 -0.2210  1.4184  1.9291
  860MOL0     H13492   0.081   5.735   9.066 -0.8434 -0.0389 -1.5202
  860MOL0     H13493   0.051   5.890   9.158  2.3354  0.7679  0.6562
  860MOL0     H13494  -0.031   5.855   8.870  1.5567  1.1444 -0.2959
  860MOL0     H13495  -0.089   5.967   8.989  0.2656 -0.3697 -2.8953
  860MOL0     H13496  -0.210   5.782   9.113 -3.1082 -1.7125 -0.9896
  860MOL0     H13497  -0.126   5.666   9.026  4.5227  2.6738  1.0158
  860MOL0     H13498  -0.300   5.859   8.875  0.2221  0.9425  3.5155
  860MOL0     H13499  -0.282   5.683   8.837  0.0506 -1.5078  1.0094
  860MOL0     H13500  -0.425   5.641   9.046  0.4301 -0.3535 -1.8331
  860MOL0     H13501  -0.506   5.699   8.906 -1.9526 -1.9823  1.4761
  860MOL0     H13502   0.438   6.081   8.707  0.2651  0.1888 -3.2565
  860MOL0     H13503   0.614   6.211   8.587 -2.6695 -0.8021  0.2167
  860MOL0     H13504   1.214   6.321   8.714 -1.2385 -0.5621 -0.0984
  860MOL0     H13505   1.374   6.519   8.699 -0.4101  0.5027  2.7035
  860MOL0     H13506   1.673   6.102   8.120 -1.4530  0.2249  0.1514
  860MOL0     H13507   1.494   5.929   8.111  3.7405  1.0495 -3.0603
  860MOL0     H13508   1.327   5.588   8.198 -0.1065 -2.8497 -1.5146
  860MOL0     H13509   1.235   5.355   8.196 -0.6895 -3.3273  2.7815
  860MOL0     H13510   0.966   5.216   8.515 -0.9893 -1.0273 -0.0910
  860MOL0     H13511   1.127   5.163   8.549  0.5339  4.5004 -0.1726
  860MOL0     H13512   1.095   5.024   8.326  5.0138  1.7193  4.6996
  860MOL0     H13513   1.016   4.953   8.453  2.4247 -0.6980 -1.4179
  860MOL0     H13514   0.891   5.125   8.245 -0.4972 -1.5062 -0.4085
  860MOL0     H13515   0.819   5.078   8.403  0.7928  2.0246  0.6141
  860MOL0     H13516   0.911   4.874   8.188 -1.7458 -2.8997 -1.1205
  860MOL0     H13517   0.863   4.830   8.350  0.3510  2.1142  1.5189
  860MOL0     H13518   0.487   4.948   8.198 -0.8344  0.0079  0.4990
  860MOL0     H13519   1.058   5.423   8.584 -0.9130  1.5289 -1.1082
  860MOL0     H13520   1.177   5.634   8.609  3.2582 -0.6939  1.2288
  861MOL0     O13521   1.229   2.037   1.440 -0.0107 -0.0998  0.0226
  861MOL0     C13522   1.250   2.151   1.471 -0.4116 -0.4378 -0.2851
  861MOL0     O13523   1.162   2.234   1.530  0.6185 -0.4531 -0.1126
  861MOL0     C13524   1.039   2.187   1.576 -0.0583 -0.8760 -0.4476
  861MOL0     C13525   0.932   2.262   1.547  0.1444  0.2260 -0.4953
  861MOL0     C13526   0.807   2.224   1.594  0.5109  0.7624  0.4428
  861MOL0     C13527   0.798   2.123   1.688  0.4188  0.0032  0.8982
  861MOL0     O13528   0.675   2.074   1.729 -0.0721 -0.2570  0.3254
  861MOL0     C13529   0.647   2.070   1.872 -0.0933 -0.7239  1.1399
  861MOL0     C13530   0.549   1.951   1.897  0.3837 -0.6135  0.1732
  861MOL0     C13531   0.423   1.987   1.815  0.5629  0.4910 -0.5975
  861MOL0     C13532   0.324   1.885   1.813  0.4276 -0.7403  0.9542
  861MOL0     C13533   0.212   1.921   1.718 -0.1085 -0.2067 -0.3446
  861MOL0     C13534   0.101   1.814   1.710  0.2067 -0.0053  0.6640
  861MOL0     C13535  -0.035   1.868   1.659 -0.1953  0.0297 -0.2366
  861MOL0     C13536  -0.148   1.767   1.692  0.6427  0.4560  0.0469
  861MOL0     N13537  -0.261   1.775   1.597 -0.8508 -0.5354 -0.5570
  861MOL0     C13538  -0.363   1.874   1.589 -0.7104 -0.0446  0.3630
  861MOL0     C13539  -0.441   1.823   1.486  0.2719  0.4817  0.3847
  861MOL0     C13540  -0.549   1.906   1.429 -0.7844 -0.4341  0.1540
  861MOL0     C13541  -0.691   1.871   1.477 -0.4632  1.0627  0.3646
  861MOL0     C13542  -0.722   1.952   1.605  0.1441 -0.9748  1.0950
  861MOL0     C13543  -0.781   2.083   1.564 -0.0596 -0.1318 -0.3684
  861MOL0     O13544  -0.849   2.131   1.682 -0.0046  0.1089  0.4219
  861MOL0     C13545  -0.872   2.272   1.682  0.0042 -0.9309  0.5100
  861MOL0     C13546  -0.949   2.317   1.788 -0.3545 -0.6605 -0.4303
  861MOL0     C13547  -0.985   2.452   1.795 -0.1761  0.2405 -1.1571
  861MOL0     C13548  -0.966   2.544   1.695 -0.3500 -1.1145 -0.2568
  861MOL0     C13549  -1.022   2.681   1.703  0.4545 -0.4904 -0.5559
  861MOL0     O13550  -1.113   2.711   1.798 -0.5301  0.3888 -0.5405
  861MOL0     C13551  -1.185   2.829   1.809  0.0164  0.3137  0.3005
  861MOL0     C13552  -1.281   2.833   1.921 -0.6054 -0.4331 -0.1286
  861MOL0     C13553  -1.370   2.941   1.946 -0.3377 -0.1739 -0.1932
  861MOL0     C13554  -1.368   3.054   1.866  0.3398 -0.0335  0.1879
  861MOL0     O13555  -1.449   3.161   1.905 -0.5392 -0.3552  0.5512
  861MOL0     C13556  -1.454   3.286   1.826  0.5544 -0.8475  0.0677
  861MOL0     C13557  -1.567   3.379   1.887  0.1288 -0.2063 -0.2873
  861MOL0     C13558  -1.700   3.309   1.917 -0.2097  0.3293  0.2721
  861MOL0     C13559  -1.815   3.415   1.965  0.6656 -0.4018 -0.9035
  861MOL0     C13560  -1.949   3.344   1.974  0.5278  0.3245 -0.1382
  861MOL0     C13561  -2.024   3.336   1.841 -0.6628 -0.4250 -0.3099
  861MOL0     C13562  -2.104   3.466   1.824  1.2748 -0.4423  0.3841
  861MOL0     C13563  -2.238   3.464   1.894  0.7515 -0.1967  0.1448
  861MOL0    Cl13564  -2.359   3.381   1.784 -0.1489 -0.1573  0.0362
  861MOL0     C13565  -1.278   3.057   1.760 -0.2923 -0.1168 -0.3205
  861MOL0     C13566  -1.195   2.947   1.724  0.2206  0.1809 -0.1770
  861MOL0     O13567  -1.005   2.756   1.608 -0.0208 -0.4960  0.1035
  861MOL0     C13568  -0.893   2.499   1.589 -0.6219  0.8785 -0.0974
  861MOL0     C13569  -0.841   2.369   1.582 -0.5834 -0.5815  0.0237
  861MOL0     N13570  -0.386   1.705   1.429 -0.2073 -0.2893  0.0865
  861MOL0     N13571  -0.285   1.681   1.500 -0.5930  0.1475 -0.1505
  861MOL0     C13572   0.916   2.060   1.727  0.1107 -0.0192  0.5654
  861MOL0     C13573   1.035   2.100   1.683 -0.1775  0.4156  0.4958
  861MOL0     C13574   1.374   2.221   1.415  0.5964 -1.0402 -0.5830
  861MOL0     C13575   1.477   2.158   1.347 -0.1188 -0.0530 -0.4544
  861MOL0     C13576   1.595   2.221   1.313  0.4791  0.5934  1.2098
  861MOL0     C13577   1.627   2.344   1.364 -0.5241  0.0891 -0.4000
  861MOL0     O13578   1.763   2.384   1.344  0.3290 -0.2920 -0.2741
  861MOL0     C13579   1.775   2.519   1.307  1.2807 -0.6085  0.0920
  861MOL0     C13580   1.875   2.591   1.397  1.2162  0.0834 -0.7099
  861MOL0     C13581   2.012   2.538   1.376 -0.0300 -0.2091  0.0463
  861MOL0     C13582   2.075   2.570   1.245 -1.4173 -0.2555  0.1507
  861MOL0     C13583   2.220   2.545   1.241  0.0957 -0.2819 -0.3741
  861MOL0     C13584   2.334   2.519   1.210  0.0401 -0.2045 -0.7837
  861MOL0     C13585   1.521   2.416   1.428 -0.2667  0.2556 -0.7683
  861MOL0     C13586   1.393   2.360   1.434  0.2692  0.5757 -0.9968
  861MOL0     H13587   0.913   2.347   1.482 -2.8730  0.8399  1.0057
  861MOL0     H13588   0.720   2.260   1.540  1.4313 -0.3519 -1.9406
  861MOL0     H13589   0.611   2.163   1.915 -1.1024 -1.2923  1.5598
  861MOL0     H13590   0.739   2.043   1.926  1.1163  2.1860  0.7045
  861MOL0     H13591   0.533   1.937   2.004 -0.1028 -3.4566 -0.1877
  861MOL0     H13592   0.594   1.859   1.859 -0.6572 -1.8717  1.8378
  861MOL0     H13593   0.461   2.008   1.714  2.0244 -0.7490 -0.3397
  861MOL0     H13594   0.380   2.082   1.849  0.9365  1.2750 -2.1753
  861MOL0     H13595   0.378   1.805   1.762 -0.4599 -0.1031 -1.0963
  861MOL0     H13596   0.287   1.850   1.910 -0.3277  1.1014  1.3657
  861MOL0     H13597   0.239   1.956   1.618  1.2160  1.0845  0.4268
  861MOL0     H13598   0.163   2.008   1.764  4.7627  2.6165  0.1389
  861MOL0     H13599   0.092   1.770   1.809 -0.0770 -1.4206  0.0344
  861MOL0     H13600   0.139   1.734   1.647 -1.2866 -0.7038  0.6147
  861MOL0     H13601  -0.047   1.959   1.719  0.2921 -0.3903  0.5112
  861MOL0     H13602  -0.036   1.887   1.551 -2.7701 -0.4313 -0.3562
  861MOL0     H13603  -0.182   1.769   1.796  0.3619 -0.0325 -0.0317
  861MOL0     H13604  -0.107   1.667   1.671 -0.0265  0.4042 -1.0975
  861MOL0     H13605  -0.381   1.960   1.653  4.2751  0.0684  2.0100
  861MOL0     H13606  -0.545   1.887   1.322 -2.9029 -2.5406  0.3749
  861MOL0     H13607  -0.531   2.013   1.443 -2.3490 -0.2927  1.4588
  861MOL0     H13608  -0.693   1.762   1.490  2.1729  1.1593  2.4263
  861MOL0     H13609  -0.762   1.882   1.394  2.7432 -2.2229 -3.2318
  861MOL0     H13610  -0.794   1.893   1.663 -1.4650 -1.2338 -1.0517
  861MOL0     H13611  -0.625   1.968   1.655  0.1234  0.9223  0.6245
  861MOL0     H13612  -0.851   2.067   1.481  0.2933 -0.3047 -0.6349
  861MOL0     H13613  -0.701   2.149   1.529 -1.6821  0.9058 -2.3891
  861MOL0     H13614  -0.981   2.240   1.858 -1.6237  1.2746  1.2377
  861MOL0     H13615  -1.031   2.488   1.886 -0.9618 -1.0817 -0.9982
  861MOL0     H13616  -1.268   2.756   1.997 -0.4215  0.4053  0.7130
  861MOL0     H13617  -1.427   2.934   2.038 -0.5886  0.1527 -0.3214
  861MOL0     H13618  -1.474   3.275   1.719 -1.3080  3.9266 -0.3311
  861MOL0     H13619  -1.361   3.342   1.836  0.0566  0.3566 -1.6018
  861MOL0     H13620  -1.574   3.458   1.812 -1.5753 -1.6527 -1.7573
  861MOL0     H13621  -1.524   3.411   1.983  1.8883 -3.0667 -0.0251
  861MOL0     H13622  -1.685   3.238   1.999 -2.5906 -1.3454 -0.6285
  861MOL0     H13623  -1.735   3.248   1.834 -0.7655  0.8568  0.1060
  861MOL0     H13624  -1.783   3.454   2.061 -1.5887  2.9387 -1.3172
  861MOL0     H13625  -1.822   3.495   1.890 -2.0610 -2.0203 -2.5826
  861MOL0     H13626  -2.003   3.400   2.051 -5.6218 -1.9301 -2.2475
  861MOL0     H13627  -1.942   3.245   2.020  1.7306  0.4445 -0.0346
  861MOL0     H13628  -2.083   3.244   1.842 -2.4339  0.6335 -1.6037
  861MOL0     H13629  -1.947   3.337   1.764 -0.0742 -1.6335  0.2317
  861MOL0     H13630  -2.052   3.556   1.859 -0.2208  0.0803  1.3498
  861MOL0     H13631  -2.131   3.470   1.719 -0.7894 -0.5873  0.8710
  861MOL0     H13632  -2.274   3.567   1.900  0.9794 -0.0338 -1.1444
  861MOL0     H13633  -2.224   3.408   1.987  1.7838 -4.4729 -2.3033
  861MOL0     H13634  -1.273   3.133   1.684 -0.6703 -0.8408 -1.0882
  861MOL0     H13635  -1.148   2.956   1.627 -1.5350  0.6251 -1.0229
  861MOL0     H13636  -0.867   2.567   1.509 -0.2330  1.6159  0.6432
  861MOL0     H13637  -0.779   2.354   1.495 -1.5172  1.6973 -1.1369
  861MOL0     H13638   0.909   1.973   1.792  1.4565  0.1505  0.9659
  861MOL0     H13639   1.129   2.052   1.710 -0.5095  0.4910  1.8929
  861MOL0     H13640   1.468   2.055   1.315 -1.0623 -0.5691  1.3540
  861MOL0     H13641   1.676   2.166   1.266 -1.5749  0.6709 -2.9544
  861MOL0     H13642   1.680   2.571   1.323  0.4129 -1.8564 -0.8088
  861MOL0     H13643   1.792   2.528   1.200 -0.4478  2.3048 -0.0265
  861MOL0     H13644   1.872   2.695   1.364 -2.1267 -0.0443 -1.0626
  861MOL0     H13645   1.840   2.578   1.499 -1.2034 -0.8188 -1.5874
  861MOL0     H13646   2.012   2.429   1.386 -1.7582 -0.3211 -0.8763
  861MOL0     H13647   2.076   2.584   1.453 -0.8681 -0.5124  0.9482
  861MOL0     H13648   2.031   2.506   1.168 -0.4588 -0.2740 -0.3957
  861MOL0     H13649   2.054   2.674   1.215 -0.9926  1.0244  3.8338
  861MOL0     H13650   2.425   2.478   1.171  0.7508 -0.3983  0.9670
  861MOL0     H13651   1.533   2.509   1.483 -1.6934  0.9383 -1.5478
  861MOL0     H13652   1.315   2.426   1.469  2.7438  2.1320  2.1221
  862MOL0     O13653   0.765   2.377   6.746 -0.0216  0.6013 -0.0638
  862MOL0     C13654   0.803   2.495   6.752  0.9882  0.1072 -0.1973
  862MOL0     O13655   0.723   2.597   6.776 -0.2179 -0.4723 -0.3005
  862MOL0     C13656   0.590   2.575   6.804  0.1232  0.0232  0.2884
  862MOL0     C13657   0.535   2.487   6.896  0.5047  0.1534  0.7963
  862MOL0     C13658   0.390   2.484   6.913 -0.4551  0.1891 -0.0976
  862MOL0     C13659   0.309   2.572   6.844  0.7823 -0.2679 -0.0489
  862MOL0     O13660   0.175   2.561   6.869 -0.1761  0.7741  0.6587
  862MOL0     C13661   0.090   2.676   6.866  0.6150 -0.1259  0.9437
  862MOL0     C13662  -0.055   2.640   6.919  0.2015 -0.3432  0.0313
  862MOL0     C13663  -0.130   2.763   6.966 -0.0709 -0.3730 -0.5408
  862MOL0     C13664  -0.246   2.722   7.057  0.0459 -0.1230 -0.1493
  862MOL0     C13665  -0.305   2.854   7.102  0.2729 -0.1783 -0.3478
  862MOL0     C13666  -0.429   2.835   7.185  0.3523 -1.0543 -0.8618
  862MOL0     C13667  -0.461   2.968   7.260 -0.5865 -0.7873 -0.4685
  862MOL0     C13668  -0.606   2.968   7.297 -0.4540  0.0151  0.7044
  862MOL0     N13669  -0.638   3.066   7.395 -0.0097 -0.0666 -0.6084
  862MOL0     C13670  -0.652   3.200   7.386  1.3202 -0.9100  0.5440
  862MOL0     C13671  -0.679   3.248   7.511 -0.7915  0.0372 -0.7097
  862MOL0     C13672  -0.710   3.388   7.562  0.2845 -1.0310 -0.4651
  862MOL0     C13673  -0.865   3.422   7.552  0.0883 -0.3572 -1.2161
  862MOL0     C13674  -0.878   3.557   7.605  1.2420  0.7244  0.2634
  862MOL0     C13675  -1.031   3.596   7.616  0.6464  0.2229 -0.0104
  862MOL0     O13676  -1.060   3.734   7.623  0.2769 -0.4142 -0.2976
  862MOL0     C13677  -1.188   3.763   7.672 -0.2780  0.1063 -0.6117
  862MOL0     C13678  -1.199   3.846   7.779 -0.5170  0.2090 -0.1848
  862MOL0     C13679  -1.327   3.893   7.826 -0.1212 -0.1514  0.0366
  862MOL0     C13680  -1.442   3.858   7.747  0.2591 -0.2393 -0.6955
  862MOL0     C13681  -1.569   3.924   7.784 -0.3220 -0.4752  0.0365
  862MOL0     O13682  -1.587   3.953   7.923  0.7151  0.1079  0.4309
  862MOL0     C13683  -1.722   3.996   7.951 -0.4484  0.1814 -0.6499
  862MOL0     C13684  -1.729   4.106   8.037  0.1297  0.1065  0.0814
  862MOL0     C13685  -1.843   4.178   8.061  0.5949  0.3483 -0.0372
  862MOL0     C13686  -1.966   4.141   8.003  0.7614 -0.3343 -0.9076
  862MOL0     O13687  -2.093   4.202   8.018 -0.5818  0.1514 -0.4930
  862MOL0     C13688  -2.082   4.334   8.089 -0.7852 -0.1227  0.2002
  862MOL0     C13689  -2.221   4.403   8.085 -0.8827  0.7193 -0.4804
  862MOL0     C13690  -2.222   4.529   8.181  0.4563  0.3260  0.0296
  862MOL0     C13691  -2.367   4.552   8.212  0.8887 -0.2695 -0.1959
  862MOL0     C13692  -2.376   4.674   8.305  0.3545  0.5712 -0.9438
  862MOL0     C13693  -2.528   4.717   8.336 -0.4634  0.0038  0.0801
  862MOL0     C13694  -2.528   4.875   8.371 -0.0516  0.0194  0.4779
  862MOL0     C13695  -2.670   4.937   8.398  0.6608  0.6465  0.0149
  862MOL0    Cl13696  -2.678   5.044   8.533  0.1298 -0.1278  0.1245
  862MOL0     C13697  -1.953   4.030   7.921  0.8330 -0.5392  0.5756
  862MOL0     C13698  -1.842   3.956   7.898  1.3528  0.0806  0.4560
  862MOL0     O13699  -1.653   3.947   7.699  0.4591  0.8430  0.4219
  862MOL0     C13700  -1.431   3.771   7.644 -0.1048  0.3478 -0.1981
  862MOL0     C13701  -1.307   3.719   7.605  0.1287  0.6459 -0.1962
  862MOL0     N13702  -0.689   3.138   7.593 -0.4390 -0.3132 -0.4078
  862MOL0     N13703  -0.653   3.037   7.528  0.9030 -0.5317  0.5214
  862MOL0     C13704   0.363   2.654   6.746  0.7011  0.0750  0.1586
  862MOL0     C13705   0.506   2.656   6.726  0.1444 -0.5822 -0.8838
  862MOL0     C13706   0.938   2.522   6.737  0.1414 -0.3835  0.7976
  862MOL0     C13707   0.979   2.650   6.684  0.2154  0.5438  0.4716
  862MOL0     C13708   1.114   2.678   6.666  0.6216 -0.5877  0.8875
  862MOL0     C13709   1.210   2.586   6.679 -0.7161  0.0886  0.2581
  862MOL0     O13710   1.342   2.620   6.657 -0.2950 -0.4432  0.1838
  862MOL0     C13711   1.445   2.518   6.640 -0.1870 -0.6451  0.0494
  862MOL0     C13712   1.572   2.605   6.611 -0.4774  0.5971 -0.3766
  862MOL0     C13713   1.644   2.662   6.741 -0.6438 -0.5461 -0.6748
  862MOL0     C13714   1.644   2.803   6.757  0.1871  0.3670  0.3379
  862MOL0     C13715   1.714   2.840   6.880 -0.1482 -0.3013  0.2639
  862MOL0     C13716   1.768   2.864   6.985 -0.2366  0.3649  0.1491
  862MOL0     C13717   1.168   2.457   6.717 -0.6282 -0.2961 -0.4670
  862MOL0     C13718   1.037   2.423   6.748 -0.3439 -0.0677  0.6581
  862MOL0     H13719   0.607   2.424   6.946  1.2472 -0.5514 -1.0606
  862MOL0     H13720   0.356   2.411   6.984  1.0129 -0.1007  0.3415
  862MOL0     H13721   0.073   2.722   6.767 -1.1897 -0.5686  1.0121
  862MOL0     H13722   0.117   2.758   6.933 -2.4120  1.4006  0.5130
  862MOL0     H13723  -0.057   2.562   6.995 -2.1524 -0.0942  0.3023
  862MOL0     H13724  -0.110   2.605   6.831 -1.7222  1.6367  0.3541
  862MOL0     H13725  -0.163   2.822   6.880 -2.1695 -1.7265 -0.7419
  862MOL0     H13726  -0.066   2.823   7.030 -0.7180 -2.6754  2.5353
  862MOL0     H13727  -0.317   2.672   6.991 -0.2976 -0.2234  0.2956
  862MOL0     H13728  -0.213   2.654   7.136 -1.0404  1.3938  1.6992
  862MOL0     H13729  -0.342   2.906   7.013  1.6751  1.4547 -0.0259
  862MOL0     H13730  -0.235   2.924   7.148 -4.3549  2.2483  4.0878
  862MOL0     H13731  -0.413   2.766   7.268  0.4491  1.7648  1.6074
  862MOL0     H13732  -0.518   2.795   7.134 -1.5091 -0.0774  1.3937
  862MOL0     H13733  -0.406   2.968   7.355 -0.9566 -3.4455 -0.1770
  862MOL0     H13734  -0.440   3.045   7.186 -1.2300 -1.8186 -1.7664
  862MOL0     H13735  -0.621   2.869   7.342 -2.4806  0.5847  1.3763
  862MOL0     H13736  -0.670   2.973   7.208  0.8732  5.3193 -0.2644
  862MOL0     H13737  -0.642   3.265   7.299  0.8770  2.2364  2.6654
  862MOL0     H13738  -0.658   3.469   7.510 -2.7745  2.6540  1.6763
  862MOL0     H13739  -0.686   3.394   7.668  1.3436  1.9427 -0.7802
  862MOL0     H13740  -0.927   3.364   7.621 -0.4612  1.7037  0.1005
  862MOL0     H13741  -0.893   3.421   7.447 -0.3983 -0.6416 -1.0854
  862MOL0     H13742  -0.835   3.571   7.705 -0.5646  0.3162  1.1274
  862MOL0     H13743  -0.835   3.631   7.537  0.5488 -0.1250 -1.1258
  862MOL0     H13744  -1.091   3.545   7.692 -0.0116  0.1185 -0.5860
  862MOL0     H13745  -1.076   3.552   7.526 -0.7659 -1.0283  1.2430
  862MOL0     H13746  -1.103   3.864   7.827  0.3899 -3.0792 -0.5125
  862MOL0     H13747  -1.341   3.961   7.910  2.1364 -1.5680  1.6889
  862MOL0     H13748  -1.630   4.134   8.071 -0.1968  0.1839  0.9988
  862MOL0     H13749  -1.841   4.263   8.128  0.7490  0.3923 -0.0975
  862MOL0     H13750  -2.017   4.403   8.033 -1.3526  1.7876  1.7930
  862MOL0     H13751  -2.047   4.336   8.192 -0.7158  0.7407  0.1716
  862MOL0     H13752  -2.296   4.331   8.119 -0.4837  1.5901  2.4988
  862MOL0     H13753  -2.242   4.432   7.981 -1.4832  1.3647 -0.1861
  862MOL0     H13754  -2.173   4.612   8.129 -1.5119  2.4606  1.3831
  862MOL0     H13755  -2.175   4.511   8.279  0.8913 -0.0334 -0.2405
  862MOL0     H13756  -2.426   4.564   8.121  0.9440  1.3565 -0.0359
  862MOL0     H13757  -2.397   4.462   8.267 -1.0515  1.1320  1.2066
  862MOL0     H13758  -2.330   4.761   8.257  1.7186  0.8176  0.7391
  862MOL0     H13759  -2.315   4.652   8.393 -2.1865 -1.7855  0.3978
  862MOL0     H13760  -2.558   4.651   8.418 -1.7196  0.3316 -0.1001
  862MOL0     H13761  -2.594   4.694   8.252  0.6250  0.2802 -0.8917
  862MOL0     H13762  -2.478   4.882   8.468  0.0031 -3.2645  0.7967
  862MOL0     H13763  -2.471   4.930   8.296 -1.8061  0.4988 -0.5604
  862MOL0     H13764  -2.730   4.845   8.408  1.5436  0.0155 -0.3754
  862MOL0     H13765  -2.710   4.986   8.308 -1.9239 -2.0933 -0.5078
  862MOL0     H13766  -2.042   3.996   7.869  1.9086 -0.5909 -1.3130
  862MOL0     H13767  -1.838   3.868   7.835  0.4753 -1.0904  1.9473
  862MOL0     H13768  -1.522   3.723   7.610  0.6244 -0.5996 -0.8868
  862MOL0     H13769  -1.317   3.651   7.522  1.2389 -4.0611  3.1050
  862MOL0     H13770   0.286   2.706   6.689  2.3989 -0.7196 -3.1386
  862MOL0     H13771   0.538   2.727   6.651 -0.9265 -1.4792 -2.2361
  862MOL0     H13772   0.912   2.730   6.654  1.1710  1.2768  0.2467
  862MOL0     H13773   1.146   2.780   6.650 -2.9867  1.2681  3.9867
  862MOL0     H13774   1.447   2.459   6.548 -1.4671  0.8834 -0.9930
  862MOL0     H13775   1.453   2.454   6.729 -0.6923  2.1854  2.2713
  862MOL0     H13776   1.641   2.529   6.574 -0.9588  0.2631 -0.5994
  862MOL0     H13777   1.557   2.687   6.540 -2.1334  1.8102  1.2493
  862MOL0     H13778   1.746   2.621   6.736 -1.0931 -1.9022  0.6170
  862MOL0     H13779   1.593   2.610   6.823 -2.1550 -2.8685 -2.9416
  862MOL0     H13780   1.690   2.841   6.666 -2.8406 -0.0221 -1.4707
  862MOL0     H13781   1.537   2.825   6.765  0.6059  2.3493  1.2599
  862MOL0     H13782   1.806   2.900   7.079 -2.6298 -0.3621  1.4717
  862MOL0     H13783   1.236   2.376   6.741  3.9501  1.8952 -4.2204
  862MOL0     H13784   1.010   2.322   6.775 -4.0470  1.4005  3.1665
  863MOL0     O13785  10.615   3.033  10.978 -0.4045 -0.0889 -0.2842
  863MOL0     C13786  10.687   2.992  10.891  0.9235  0.1822 -0.1869
  863MOL0     O13787  10.655   2.981  10.759  0.0645  0.2796  0.1106
  863MOL0     C13788  10.567   3.062  10.695  0.4139  0.1603 -0.6414
  863MOL0     C13789  10.596   3.131  10.582  0.3957  0.3667 -0.6679
  863MOL0     C13790  10.488   3.191  10.503 -1.0240  1.1632 -0.1331
  863MOL0     C13791  10.353   3.203  10.548 -0.3999 -0.4785 -0.6585
  863MOL0     O13792  10.269   3.287  10.476 -0.5982 -0.2400  0.5182
  863MOL0     C13793  10.154   3.343  10.546  0.5027  1.2889  0.3028
  863MOL0     C13794  10.098   3.460  10.463  0.2832  0.6611  0.2104
  863MOL0     C13795  10.021   3.571  10.538 -0.2289  0.3747 -0.2192
  863MOL0     C13796   9.887   3.521  10.606 -0.6186  0.3566 -0.2575
  863MOL0     C13797   9.786   3.631  10.640  0.3768 -0.8809 -0.1502
  863MOL0     C13798   9.700   3.677  10.526  0.1772  0.2098  0.2347
  863MOL0     C13799   9.597   3.783  10.569 -0.4628 -0.2065 -0.6963
  863MOL0     C13800   9.457   3.727  10.599 -0.3528  0.0131 -0.4828
  863MOL0     N13801   9.358   3.832  10.611  0.3266 -1.1083 -0.5715
  863MOL0     C13802   9.302   3.925  10.524 -0.3422 -0.1086  1.0780
  863MOL0     C13803   9.201   3.988  10.594  0.3720  0.0809  0.6083
  863MOL0     C13804   9.117   4.102  10.535 -0.1777  0.7753 -0.1531
  863MOL0     C13805   9.005   4.050  10.430  0.6334 -0.5138  0.8345
  863MOL0     C13806   8.876   3.961  10.475 -0.6235 -0.5900 -0.5355
  863MOL0     C13807   8.839   4.016  10.616  0.3040 -0.4899 -0.2558
  863MOL0     O13808   8.745   3.933  10.688  0.4226 -0.3895 -0.9168
  863MOL0     C13809   8.609   3.956  10.675 -0.3311  0.0409 -0.0804
  863MOL0     C13810   8.521   3.874  10.755 -0.4517  0.3393  0.2400
  863MOL0     C13811   8.384   3.888  10.753  1.3326  0.2241 -0.5341
  863MOL0     C13812   8.324   3.995  10.673  0.0892 -0.1297  0.6744
  863MOL0     C13813   8.190   4.040  10.677  0.4728 -0.0185  0.3325
  863MOL0     O13814   8.155   4.138  10.584  0.3432  0.4581 -0.1567
  863MOL0     C13815   8.030   4.185  10.559 -0.2251 -0.7725  0.5401
  863MOL0     C13816   7.934   4.221  10.645  0.0545 -1.1906  0.5718
  863MOL0     C13817   7.810   4.277  10.603  0.2525 -0.5427 -0.3271
  863MOL0     C13818   7.788   4.313  10.468  0.3150 -0.7284 -0.0740
  863MOL0     O13819   7.675   4.382  10.421  0.4260 -0.0619 -0.9754
  863MOL0     C13820   7.566   4.420  10.516  0.2126  0.3385  0.7128
  863MOL0     C13821   7.451   4.485  10.434 -0.0732  0.1760 -0.2080
  863MOL0     C13822   7.341   4.536  10.519 -0.3611 -0.5458  1.1519
  863MOL0     C13823   7.233   4.593  10.418 -0.1317 -0.0347  0.0651
  863MOL0     C13824   7.104   4.649  10.478  0.2859  0.0158 -0.0866
  863MOL0     C13825   7.112   4.802  10.523 -0.2642 -0.0550 -0.6366
  863MOL0     C13826   6.989   4.862  10.599 -0.1890 -0.7744  0.2540
  863MOL0     C13827   6.973   5.017  10.592 -0.2784  1.5757 -1.3150
  863MOL0    Cl13828   6.799   5.054  10.592  0.0093  0.0506  0.2493
  863MOL0     C13829   7.890   4.281  10.376 -0.2726 -0.3052 -0.2925
  863MOL0     C13830   8.006   4.216  10.421  0.3744  0.4875  0.0070
  863MOL0     O13831   8.114   3.980  10.756  0.0687 -0.1387 -0.0949
  863MOL0     C13832   8.406   4.057  10.579 -0.0733 -0.3848  0.6085
  863MOL0     C13833   8.545   4.041  10.582 -0.1706  0.7421 -0.2320
  863MOL0     N13834   9.187   3.941  10.724 -0.1697  0.1480  0.0085
  863MOL0     N13835   9.281   3.850  10.724  0.2683  0.4215  0.4888
  863MOL0     C13836  10.331   3.140  10.674 -0.2093 -0.7343  0.6736
  863MOL0     C13837  10.430   3.078  10.744 -0.4453  0.4495 -0.2868
  863MOL0     C13838  10.812   2.934  10.918  0.1742  0.1516 -0.0346
  863MOL0     C13839  10.909   3.003  10.997 -0.3168 -0.2286  0.1948
  863MOL0     C13840  11.041   2.956  11.003  0.3254 -0.3885 -0.7630
  863MOL0     C13841  11.086   2.860  10.914  0.0622  0.2471 -1.1075
  863MOL0     O13842  11.215   2.821  10.897  0.0607  0.3619 -1.4116
  863MOL0     C13843  11.312   2.880  10.990 -0.7960  0.9579  0.4430
  863MOL0     C13844  11.459   2.834  10.962 -0.1035 -0.4944 -0.9526
  863MOL0     C13845  11.458   2.683  10.985  0.7568  0.6101  0.5744
  863MOL0     C13846  11.603   2.622  10.974  0.4824 -0.1064  0.8053
  863MOL0     C13847  11.599   2.486  11.033  0.1257 -0.4061 -0.3265
  863MOL0     C13848  11.595   2.373  11.087 -0.0900 -1.0428 -0.2274
  863MOL0     C13849  10.990   2.791  10.839  1.1816 -0.2134 -0.9564
  863MOL0     C13850  10.855   2.824  10.827 -0.3697  0.2549 -0.5978
  863MOL0     H13851  10.696   3.144  10.542  0.9171  0.1743  0.5318
  863MOL0     H13852  10.523   3.223  10.406 -3.1460 -3.8996 -2.9629
  863MOL0     H13853  10.185   3.366  10.649  0.5136 -1.9381  1.1555
  863MOL0     H13854  10.073   3.270  10.552 -1.5958  3.5011  0.2166
  863MOL0     H13855  10.025   3.415  10.395 -0.6331  1.4493  0.6466
  863MOL0     H13856  10.181   3.506  10.408  0.0945 -0.5242 -1.1289
  863MOL0     H13857  10.002   3.651  10.466  1.5933  1.6765  0.6763
  863MOL0     H13858  10.081   3.622  10.614 -0.8790  0.3931  0.2903
  863MOL0     H13859   9.844   3.438  10.549 -0.1655  1.1107 -1.7510
  863MOL0     H13860   9.930   3.484  10.699  1.0625  0.9960 -0.7415
  863MOL0     H13861   9.830   3.720  10.687 -1.0350 -0.6836  0.8608
  863MOL0     H13862   9.718   3.586  10.713  2.4352 -3.0766  0.5469
  863MOL0     H13863   9.657   3.598  10.465 -1.1086  2.4652 -1.9528
  863MOL0     H13864   9.772   3.713  10.451  0.2457 -2.1339 -0.9110
  863MOL0     H13865   9.622   3.855  10.648 -0.9866 -0.5223 -0.2362
  863MOL0     H13866   9.583   3.836  10.474 -0.1720 -0.8520 -1.1071
  863MOL0     H13867   9.446   3.671  10.692  2.5518 -0.4072 -0.3165
  863MOL0     H13868   9.434   3.654  10.520  1.7316 -0.5599 -0.6243
  863MOL0     H13869   9.334   3.961  10.427 -3.1659  1.0831  0.5223
  863MOL0     H13870   9.187   4.171  10.485  0.7074 -2.1459 -3.3697
  863MOL0     H13871   9.077   4.170  10.611 -1.0271 -0.1114  0.2117
  863MOL0     H13872   9.059   3.994  10.353 -0.1566  1.0704 -0.9471
  863MOL0     H13873   8.960   4.142  10.391  1.0433 -0.8183 -0.4014
  863MOL0     H13874   8.787   3.963  10.412  0.8489 -0.5905 -2.7191
  863MOL0     H13875   8.905   3.856  10.484 -0.4322 -0.4519  0.6578
  863MOL0     H13876   8.802   4.119  10.613  0.0047 -0.5758  0.2874
  863MOL0     H13877   8.932   4.017  10.674 -0.4351 -1.3567  0.9799
  863MOL0     H13878   8.572   3.800  10.815 -0.3742  0.5867  0.4809
  863MOL0     H13879   8.326   3.833  10.826  1.1425  2.0618  0.7685
  863MOL0     H13880   7.939   4.202  10.751 -0.6069 -0.5329  0.7320
  863MOL0     H13881   7.727   4.290  10.671  1.0283 -0.4841  0.6271
  863MOL0     H13882   7.600   4.491  10.592 -1.5293  0.8937  1.0193
  863MOL0     H13883   7.529   4.335  10.574 -0.3394  0.2135  0.1831
  863MOL0     H13884   7.416   4.403  10.370  0.0942 -2.0086  2.3495
  863MOL0     H13885   7.496   4.565  10.374 -1.0542  0.3922 -0.6699
  863MOL0     H13886   7.382   4.617  10.580  1.2813  0.1370 -0.7476
  863MOL0     H13887   7.290   4.454  10.570 -1.1698 -1.7599 -1.4046
  863MOL0     H13888   7.287   4.668  10.359 -1.5936  2.3867  1.6245
  863MOL0     H13889   7.200   4.509  10.355 -0.1895 -1.7967  2.3159
  863MOL0     H13890   7.071   4.598  10.568  0.3263 -1.2396 -0.7617
  863MOL0     H13891   7.025   4.651  10.402 -0.4923  1.4101  0.7289
  863MOL0     H13892   7.141   4.870  10.442  2.1801 -0.9973 -0.6313
  863MOL0     H13893   7.201   4.810  10.586  0.7104 -1.5021 -1.7603
  863MOL0     H13894   6.898   4.812  10.566 -4.2998  2.0812  5.8030
  863MOL0     H13895   6.985   4.828  10.703 -2.7139 -0.7458  0.2113
  863MOL0     H13896   7.020   5.048  10.498  0.4698  0.5242 -1.3113
  863MOL0     H13897   7.015   5.075  10.675 -2.8558 -1.4375  2.4362
  863MOL0     H13898   7.868   4.296  10.271 -0.9270  2.2102  0.1347
  863MOL0     H13899   8.082   4.192  10.347 -1.1052 -0.1323 -1.3467
  863MOL0     H13900   8.384   4.138  10.510 -0.5103 -0.1606  1.0067
  863MOL0     H13901   8.607   4.094  10.510  1.5440  0.7334  1.1818
  863MOL0     H13902  10.232   3.148  10.719 -0.3637 -2.4024  0.7000
  863MOL0     H13903  10.408   3.029  10.838  0.8376  0.2230 -0.0858
  863MOL0     H13904  10.897   3.099  11.047 -0.5646 -0.6604  0.9694
  863MOL0     H13905  11.103   3.017  11.069  0.5903  0.4753 -1.7872
  863MOL0     H13906  11.288   2.837  11.088  0.9535 -3.3569 -0.8095
  863MOL0     H13907  11.313   2.989  10.994  3.9200  1.1834 -1.1661
  863MOL0     H13908  11.485   2.858  10.858 -2.6005 -0.3303 -1.5953
  863MOL0     H13909  11.522   2.884  11.036 -2.4282  2.1260 -0.5791
  863MOL0     H13910  11.390   2.638  10.912 -0.4818  0.1404  1.9713
  863MOL0     H13911  11.405   2.657  11.077 -0.8946 -0.4232 -0.6226
  863MOL0     H13912  11.618   2.603  10.867 -3.0057  1.7906 -0.1934
  863MOL0     H13913  11.678   2.686  11.020  2.7401 -0.9401 -1.4859
  863MOL0     H13914  11.595   2.277  11.134  0.7228 -0.8774  0.1303
  863MOL0     H13915  11.033   2.710  10.781 -0.1595 -1.6762  0.0015
  863MOL0     H13916  10.794   2.761  10.762 -1.8918 -1.9400  2.6880
  864MOL0     O13917  10.751   6.661  11.284 -0.0735  0.4576 -0.1080
  864MOL0     C13918  10.770   6.781  11.333  0.1478  0.5472 -1.4765
  864MOL0     O13919  10.674   6.880  11.343 -0.2751  0.7402 -0.1777
  864MOL0     C13920  10.540   6.868  11.298 -0.9563  0.8328 -1.0828
  864MOL0     C13921  10.498   6.768  11.203  0.3247  0.1490 -0.2194
  864MOL0     C13922  10.365   6.756  11.164 -0.2783 -0.2467 -0.8691
  864MOL0     C13923  10.264   6.847  11.222 -0.2979 -0.3422 -0.0136
  864MOL0     O13924  10.127   6.837  11.188  0.1371  0.5207  0.1328
  864MOL0     C13925  10.077   6.712  11.140  0.1085 -0.4864  0.1599
  864MOL0     C13926   9.936   6.713  11.101 -0.5224 -0.2928  0.7735
  864MOL0     C13927   9.849   6.736  11.218  1.1810  0.4309 -0.1168
  864MOL0     C13928   9.706   6.781  11.173  0.3055  0.1991  0.1812
  864MOL0     C13929   9.608   6.784  11.283  0.6200  0.4670  0.9098
  864MOL0     C13930   9.473   6.846  11.261 -0.7326 -0.1890 -0.3513
  864MOL0     C13931   9.481   6.998  11.239 -0.4694 -0.0540 -0.4778
  864MOL0     C13932   9.358   7.062  11.194 -0.6015  0.0753  0.0126
  864MOL0     N13933   9.238   7.042  11.280  0.1103 -0.3673  0.0737
  864MOL0     C13934   9.226   7.093  11.409  0.4764  0.9446  0.2381
  864MOL0     C13935   9.107   7.051  11.450  0.3405  0.4458 -0.1690
  864MOL0     C13936   9.041   7.066  11.587  0.3900 -0.5373  0.7055
  864MOL0     C13937   9.089   6.974  11.698 -0.3712  0.1944  0.0540
  864MOL0     C13938   9.062   6.829  11.666  0.2722 -0.6880  0.0913
  864MOL0     C13939   8.911   6.798  11.652 -0.4789  0.5951  0.1478
  864MOL0     O13940   8.839   6.834  11.774 -0.2620  0.5985  0.1554
  864MOL0     C13941   8.712   6.775  11.780 -0.2711 -0.1105 -0.4195
  864MOL0     C13942   8.657   6.755  11.905 -0.1460 -1.2325  0.4618
  864MOL0     C13943   8.541   6.677  11.921  0.2009  0.7024 -0.0269
  864MOL0     C13944   8.460   6.638  11.809 -0.4050  0.5339 -0.7819
  864MOL0     C13945   8.336   6.568  11.827 -0.2897  0.4334  0.5123
  864MOL0     O13946   8.294   6.547  11.959  0.6907  0.9969 -0.4925
  864MOL0     C13947   8.160   6.520  11.976  0.0880 -0.9574 -0.3115
  864MOL0     C13948   8.130   6.435  12.082 -0.2463  0.3930 -0.1408
  864MOL0     C13949   8.001   6.403  12.121  0.6372 -0.1016 -1.0522
  864MOL0     C13950   7.894   6.479  12.064 -0.8565 -0.1800  0.2933
  864MOL0     O13951   7.761   6.465  12.090  0.6162  0.2786 -0.1062
  864MOL0     C13952   7.699   6.360  12.171 -1.3032  0.6174 -0.6359
  864MOL0     C13953   7.557   6.333  12.156  0.4351  0.0773  0.2515
  864MOL0     C13954   7.472   6.466  12.175 -0.0186 -0.3482 -0.0894
  864MOL0     C13955   7.328   6.404  12.209 -0.8591  0.5531 -0.1909
  864MOL0     C13956   7.214   6.506  12.223  0.7820 -0.8317 -0.2025
  864MOL0     C13957   7.240   6.606  12.341  0.2443  0.0490 -0.8307
  864MOL0     C13958   7.253   6.560  12.488  0.0814 -0.0368  1.3091
  864MOL0     C13959   7.312   6.659  12.593  0.1376 -1.3219  0.9128
  864MOL0    Cl13960   7.466   6.612  12.665 -0.0913  0.1059  0.1967
  864MOL0     C13961   7.922   6.575  11.956 -0.8721  0.4569 -0.4093
  864MOL0     C13962   8.059   6.595  11.925 -0.3246 -0.3285  1.1696
  864MOL0     O13963   8.260   6.550  11.730  0.6554  0.2864 -0.0284
  864MOL0     C13964   8.518   6.663  11.679  0.2110  0.7639  0.5476
  864MOL0     C13965   8.637   6.723  11.669 -0.6042  1.0059  0.0189
  864MOL0     N13966   9.050   6.977  11.348  0.0379  0.7051  0.2970
  864MOL0     N13967   9.137   6.970  11.245 -0.4209  0.0811 -0.3671
  864MOL0     C13968  10.311   6.944  11.299 -0.7523  0.4403 -0.0185
  864MOL0     C13969  10.445   6.955  11.336  0.1566 -0.2503 -0.7190
  864MOL0     C13970  10.913   6.812  11.379  0.5931 -0.0197  0.9370
  864MOL0     C13971  10.967   6.939  11.362  0.6281 -0.5496 -0.0196
  864MOL0     C13972  11.105   6.961  11.394  0.4075  0.0106  0.3391
  864MOL0     C13973  11.182   6.859  11.444 -0.6065 -0.3541 -0.3666
  864MOL0     O13974  11.318   6.872  11.477 -0.0895  0.1655  0.0442
  864MOL0     C13975  11.386   6.991  11.437 -0.5631 -0.4037  0.5216
  864MOL0     C13976  11.528   6.963  11.478  0.5183 -0.4597 -0.3762
  864MOL0     C13977  11.536   7.002  11.626 -0.5563 -0.0858  0.3120
  864MOL0     C13978  11.663   6.945  11.692  0.5043  0.0432 -0.0062
  864MOL0     C13979  11.779   7.025  11.665 -0.0880  0.4754 -0.1764
  864MOL0     C13980  11.885   7.080  11.638  0.4841 -0.5043  0.3126
  864MOL0     C13981  11.131   6.729  11.461 -0.8703  0.0432 -0.1685
  864MOL0     C13982  10.999   6.707  11.420 -0.2623  0.3501  0.3799
  864MOL0     H13983  10.569   6.699  11.156  1.5599  0.1118  1.6140
  864MOL0     H13984  10.339   6.666  11.108 -1.2643  0.3687 -1.4178
  864MOL0     H13985  10.096   6.633  11.214 -0.3112 -1.0267 -0.2964
  864MOL0     H13986  10.120   6.691  11.042 -1.6192  1.0884 -0.9944
  864MOL0     H13987   9.912   6.620  11.049  0.3486 -0.5286  0.7712
  864MOL0     H13988   9.927   6.795  11.029 -0.1236 -0.1623  0.8665
  864MOL0     H13989   9.887   6.814  11.284 -0.6410  2.3605 -1.2089
  864MOL0     H13990   9.847   6.639  11.269  1.1600  0.1601 -0.6305
  864MOL0     H13991   9.717   6.878  11.124 -1.7186  0.3177 -0.1122
  864MOL0     H13992   9.665   6.718  11.093  3.2980 -1.3975 -0.2583
  864MOL0     H13993   9.663   6.826  11.368  2.5997  1.4907 -0.7733
  864MOL0     H13994   9.576   6.682  11.305  1.9247 -0.0610  0.4750
  864MOL0     H13995   9.404   6.826  11.343 -1.2164 -1.1338 -0.9629
  864MOL0     H13996   9.430   6.789  11.178 -0.8394 -2.5931  1.2664
  864MOL0     H13997   9.500   7.055  11.330 -1.7097 -0.5112  0.0771
  864MOL0     H13998   9.559   7.026  11.167  0.8850 -1.3989  0.3970
  864MOL0     H13999   9.339   7.017  11.096  0.1383  0.7727 -0.4613
  864MOL0     H14000   9.379   7.169  11.186 -2.0567  0.3113 -1.2272
  864MOL0     H14001   9.302   7.142  11.469  0.3697 -1.6062  2.6257
  864MOL0     H14002   8.933   7.063  11.570  0.1322  0.8352  1.8556
  864MOL0     H14003   9.056   7.169  11.619 -1.4074  0.1378 -0.4598
  864MOL0     H14004   9.040   7.005  11.790 -3.6777 -0.4688 -1.3479
  864MOL0     H14005   9.197   6.988  11.711 -0.6300  0.0908  2.7781
  864MOL0     H14006   9.111   6.793  11.575 -0.1153 -0.2108 -0.3053
  864MOL0     H14007   9.110   6.765  11.742 -3.4504 -1.9612  1.6129
  864MOL0     H14008   8.916   6.695  11.615  0.0219  0.1132  1.4785
  864MOL0     H14009   8.865   6.854  11.570  2.7683  2.7636 -0.3759
  864MOL0     H14010   8.700   6.780  12.002 -0.0279  0.2958  0.0445
  864MOL0     H14011   8.506   6.650  12.020  0.3509 -1.2223 -0.4696
  864MOL0     H14012   8.209   6.386  12.139  0.0342  0.8846 -0.0993
  864MOL0     H14013   7.990   6.338  12.207  0.1707  0.7429 -0.4618
  864MOL0     H14014   7.718   6.388  12.275 -1.1962 -1.9041  0.0937
  864MOL0     H14015   7.745   6.261  12.165 -1.6061 -0.1055  4.4925
  864MOL0     H14016   7.528   6.262  12.234  2.7976  1.2597  2.3511
  864MOL0     H14017   7.532   6.295  12.056 -2.4133  0.0673  0.8848
  864MOL0     H14018   7.470   6.528  12.085 -1.2928 -0.8296 -0.4219
  864MOL0     H14019   7.517   6.519  12.260  0.6825 -0.2187 -0.5378
  864MOL0     H14020   7.310   6.340  12.123  0.0989  0.3696 -0.2572
  864MOL0     H14021   7.318   6.344  12.300 -1.3125  2.0830  0.8180
  864MOL0     H14022   7.119   6.452  12.230  2.0694 -2.9782  2.8867
  864MOL0     H14023   7.211   6.573  12.137 -2.4606  2.8993  2.4640
  864MOL0     H14024   7.166   6.685  12.324 -0.0405  0.2373  1.0719
  864MOL0     H14025   7.337   6.651  12.317  0.3801  1.1791  1.5621
  864MOL0     H14026   7.147   6.548  12.510  0.1128  0.1380  1.5562
  864MOL0     H14027   7.317   6.471  12.486  0.3711  0.1775 -0.6507
  864MOL0     H14028   7.239   6.688  12.669  1.0933 -0.6605  1.5962
  864MOL0     H14029   7.328   6.746  12.528  0.8574 -0.6254  1.9788
  864MOL0     H14030   7.841   6.630  11.909 -0.7457  0.6407 -0.4107
  864MOL0     H14031   8.082   6.678  11.858 -1.0554 -1.2433 -0.2548
  864MOL0     H14032   8.461   6.662  11.587  2.6574  1.5584 -1.0796
  864MOL0     H14033   8.671   6.735  11.566  0.3684 -2.2218 -0.1515
  864MOL0     H14034  10.240   7.015  11.340 -0.3451  1.4019 -0.9449
  864MOL0     H14035  10.472   7.042  11.396 -0.2101  0.3118 -1.3552
  864MOL0     H14036  10.915   7.019  11.310  0.6906  0.2802  1.1584
  864MOL0     H14037  11.154   7.056  11.378  0.3565 -0.1193 -0.6617
  864MOL0     H14038  11.341   7.075  11.490 -2.0044 -1.2595  0.7076
  864MOL0     H14039  11.391   7.004  11.328 -0.9351 -3.4884  0.0518
  864MOL0     H14040  11.563   6.861  11.459  1.5402 -0.0741 -0.6319
  864MOL0     H14041  11.575   7.037  11.413 -2.2035  1.6896 -0.1003
  864MOL0     H14042  11.458   6.956  11.687 -0.3730  1.6012  1.9059
  864MOL0     H14043  11.546   7.110  11.642  0.6590 -0.4189  2.0373
  864MOL0     H14044  11.657   6.937  11.800  2.3765 -3.8588 -0.0354
  864MOL0     H14045  11.693   6.848  11.652  1.0818  0.4931 -0.7092
  864MOL0     H14046  11.985   7.116  11.632 -0.0710  1.1790  0.6649
  864MOL0     H14047  11.210   6.668  11.503 -1.3416  0.0115  0.7132
  864MOL0     H14048  10.968   6.604  11.433  2.9274 -0.9049 -1.0331
  865MOL0     O14049   7.006   3.325  11.096 -0.7974  0.6548  0.4533
  865MOL0     C14050   7.032   3.262  10.992 -1.1016 -0.1624 -0.5634
  865MOL0     O14051   6.956   3.259  10.876 -0.6921 -0.6415 -0.6944
  865MOL0     C14052   6.853   3.346  10.884 -0.3290 -0.4071  1.0215
  865MOL0     C14053   6.729   3.317  10.941  0.0137  0.2738  0.1556
  865MOL0     C14054   6.623   3.412  10.945 -0.2600  0.4755 -0.1143
  865MOL0     C14055   6.646   3.539  10.887 -1.4895  0.4195  0.4705
  865MOL0     O14056   6.533   3.615  10.882 -0.4839 -0.6194  0.3382
  865MOL0     C14057   6.516   3.713  10.772  0.0197 -0.4485  0.2009
  865MOL0     C14058   6.391   3.794  10.792 -0.3589  0.3936 -0.0984
  865MOL0     C14059   6.385   3.922  10.701  0.5020 -0.6608  0.0652
  865MOL0     C14060   6.245   3.986  10.693  0.5923 -0.4960 -1.1125
  865MOL0     C14061   6.254   4.131  10.632  0.1833 -0.2219  0.3042
  865MOL0     C14062   6.120   4.207  10.632 -0.4575  0.8814 -0.2817
  865MOL0     C14063   6.132   4.360  10.594 -0.7517 -0.1042 -1.0841
  865MOL0     C14064   6.012   4.426  10.537 -0.2994 -0.3703 -0.2819
  865MOL0     N14065   6.020   4.570  10.528 -0.3340 -0.7003  0.1627
  865MOL0     C14066   5.930   4.656  10.466  0.2437  0.0921  0.2726
  865MOL0     C14067   5.996   4.777  10.475 -0.4961 -1.2155 -0.2372
  865MOL0     C14068   5.956   4.912  10.410 -0.0073  0.5530 -0.7344
  865MOL0     C14069   5.993   4.914  10.267 -0.5916  0.8814 -0.4745
  865MOL0     C14070   5.883   4.960  10.177  0.7363 -0.0723  0.0365
  865MOL0     C14071   5.799   4.834  10.128 -0.5524 -0.7411  0.8479
  865MOL0     O14072   5.732   4.763  10.231 -0.4582 -1.0920 -0.2438
  865MOL0     C14073   5.609   4.823  10.264 -0.1245  0.3004 -0.3953
  865MOL0     C14074   5.545   4.942  10.225  0.7068 -0.7846 -1.0148
  865MOL0     C14075   5.411   4.983  10.266  0.4816  0.3793  0.0797
  865MOL0     C14076   5.343   4.893  10.360 -0.9591 -0.3487  0.3247
  865MOL0     C14077   5.206   4.926  10.400 -0.1635  0.1775 -0.5437
  865MOL0     O14078   5.165   5.057  10.375  0.3869  0.0155  0.1839
  865MOL0     C14079   5.057   5.117  10.440 -0.0029  0.4677  0.3205
  865MOL0     C14080   5.023   5.109  10.579  0.4348  0.3097 -0.6519
  865MOL0     C14081   4.916   5.181  10.639 -0.7697  0.1606  0.6608
  865MOL0     C14082   4.826   5.249  10.555  0.0553 -0.8100  0.2442
  865MOL0     O14083   4.718   5.330  10.585 -0.2649 -0.5916 -0.3912
  865MOL0     C14084   4.641   5.258  10.678 -0.0790 -0.4991  0.0837
  865MOL0     C14085   4.505   5.331  10.687  0.2957  0.4323  0.5369
  865MOL0     C14086   4.395   5.256  10.759 -0.6087  0.1258  1.0014
  865MOL0     C14087   4.271   5.339  10.795 -0.1501 -0.1451 -0.3719
  865MOL0     C14088   4.139   5.263  10.819 -0.0693  0.2099  1.0026
  865MOL0     C14089   4.027   5.361  10.837  0.7751 -0.0925 -0.0720
  865MOL0     C14090   3.983   5.424  10.700  0.2313 -0.7787  0.6628
  865MOL0     C14091   3.963   5.579  10.712  0.7988 -0.6745 -1.0188
  865MOL0    Cl14092   3.794   5.605  10.782 -0.2064 -0.3064  0.2539
  865MOL0     C14093   4.853   5.256  10.422 -0.6348  0.2661  0.0730
  865MOL0     C14094   4.974   5.204  10.360  0.1221  0.5946 -0.3304
  865MOL0     O14095   5.151   4.850  10.479  0.7209 -1.0515 -0.3267
  865MOL0     C14096   5.413   4.781  10.402  0.3699 -0.8060 -0.1760
  865MOL0     C14097   5.540   4.750  10.363  0.5349 -0.3166  0.0328
  865MOL0     N14098   6.118   4.761  10.536  0.1495 -0.7967  0.1935
  865MOL0     N14099   6.133   4.639  10.579 -0.8509  0.1268  0.0189
  865MOL0     C14100   6.778   3.573  10.838  1.0894 -0.3404 -0.6316
  865MOL0     C14101   6.881   3.478  10.836 -0.9932  0.0458  0.5657
  865MOL0     C14102   7.157   3.181  10.980 -0.0088  0.5053 -0.0481
  865MOL0     C14103   7.223   3.162  10.852  0.5366 -0.8435 -0.1842
  865MOL0     C14104   7.339   3.074  10.839 -0.6740 -0.5496  0.4904
  865MOL0     C14105   7.396   3.016  10.956  0.3330 -0.4102  0.5586
  865MOL0     O14106   7.510   2.936  10.949 -1.0095  0.5326  0.0250
  865MOL0     C14107   7.632   2.999  10.906 -0.1016  0.0526 -0.6916
  865MOL0     C14108   7.744   2.929  10.980 -0.4583  0.0568  0.0303
  865MOL0     C14109   7.795   2.793  10.919 -0.7394 -0.3878  0.3226
  865MOL0     C14110   7.949   2.775  10.899 -0.5339  0.2893 -0.0456
  865MOL0     C14111   8.008   2.764  11.028  0.4566 -0.0039 -0.1616
  865MOL0     C14112   8.059   2.761  11.134  0.9944 -0.3931  0.3844
  865MOL0     C14113   7.339   3.053  11.080 -0.1681  0.4182  0.0386
  865MOL0     C14114   7.217   3.125  11.094 -0.5349 -0.6249  0.4846
  865MOL0     H14115   6.707   3.213  10.965  2.6224 -1.0780 -2.6070
  865MOL0     H14116   6.526   3.385  10.985 -1.0308  1.0714 -1.5217
  865MOL0     H14117   6.505   3.652  10.681 -3.7085 -0.6111  0.5939
  865MOL0     H14118   6.598   3.784  10.765 -0.6820  0.2130 -3.2541
  865MOL0     H14119   6.386   3.824  10.897 -1.5334 -1.5118  0.4407
  865MOL0     H14120   6.303   3.732  10.773 -0.0928 -0.6131  1.7070
  865MOL0     H14121   6.413   3.897  10.598 -0.5010  0.2512 -0.4602
  865MOL0     H14122   6.456   3.995  10.743 -1.6140  0.9455  1.0222
  865MOL0     H14123   6.168   3.927  10.642 -2.0780  0.8549  1.1137
  865MOL0     H14124   6.205   4.009  10.792 -1.0270 -0.9194 -1.6363
  865MOL0     H14125   6.274   4.112  10.527  0.3414  1.3349  0.0328
  865MOL0     H14126   6.334   4.186  10.683  0.5081  0.7469 -1.1967
  865MOL0     H14127   6.076   4.201  10.731 -1.5134 -1.6119 -0.8428
  865MOL0     H14128   6.047   4.156  10.569 -2.5097  1.2402  1.6902
  865MOL0     H14129   6.148   4.406  10.692 -0.6453 -0.1649 -1.0732
  865MOL0     H14130   6.225   4.382  10.540  1.1010  0.1771  1.9505
  865MOL0     H14131   5.922   4.398  10.592 -1.6829  1.5584 -1.4157
  865MOL0     H14132   5.983   4.391  10.437 -1.7733 -0.1845  0.0638
  865MOL0     H14133   5.834   4.634  10.422  0.1900  0.1931  0.3416
  865MOL0     H14134   6.019   4.985  10.463  1.8090 -1.7371  0.4078
  865MOL0     H14135   5.849   4.910  10.432 -0.2283 -0.2001 -1.8094
  865MOL0     H14136   6.018   4.812  10.236  0.4745  0.6950  0.9137
  865MOL0     H14137   6.083   4.972  10.246  1.7711 -1.8615  1.3124
  865MOL0     H14138   5.818   5.030  10.230  0.1067 -0.6810  0.0911
  865MOL0     H14139   5.917   5.004  10.083  4.3863 -0.2981  1.1173
  865MOL0     H14140   5.870   4.765  10.080  0.1764  1.4706 -1.4209
  865MOL0     H14141   5.737   4.862  10.043 -1.4670 -0.1233  1.6952
  865MOL0     H14142   5.593   5.018  10.164 -1.5812  0.3499 -1.5222
  865MOL0     H14143   5.365   5.073  10.227  0.1448 -0.9637 -2.8417
  865MOL0     H14144   5.089   5.057  10.647  6.8434  3.7330 -3.3229
  865MOL0     H14145   4.920   5.185  10.747  1.5077  0.8732  0.6135
  865MOL0     H14146   4.696   5.252  10.772  0.7183 -0.0901 -0.3495
  865MOL0     H14147   4.625   5.160  10.633 -1.5354  0.6457 -2.0651
  865MOL0     H14148   4.463   5.361  10.590 -2.1369  0.9553  1.6728
  865MOL0     H14149   4.511   5.428  10.738 -1.1955 -0.2460  2.1279
  865MOL0     H14150   4.443   5.228  10.854  1.7653 -1.2224 -0.5165
  865MOL0     H14151   4.369   5.171  10.695 -1.5175  0.9747  0.2134
  865MOL0     H14152   4.281   5.392  10.890 -1.9730 -4.2665  2.4054
  865MOL0     H14153   4.261   5.407  10.710  1.0529  0.0003 -0.4182
  865MOL0     H14154   4.153   5.204  10.910  4.1022  1.8922  1.6547
  865MOL0     H14155   4.117   5.193  10.737  1.1898 -0.3153  1.0916
  865MOL0     H14156   4.063   5.441  10.902  0.2295 -0.3205  0.5199
  865MOL0     H14157   3.937   5.318  10.881  0.5518  1.6278  1.2761
  865MOL0     H14158   4.060   5.402  10.625 -3.3077 -1.2210 -3.1822
  865MOL0     H14159   3.896   5.374  10.656  2.3510 -2.8254 -1.4879
  865MOL0     H14160   3.963   5.633  10.616 -1.8849  0.2372 -0.5958
  865MOL0     H14161   4.034   5.629  10.778  2.0812 -1.8359 -1.4909
  865MOL0     H14162   4.780   5.315  10.367 -1.7784 -0.6040  0.6197
  865MOL0     H14163   5.011   5.218  10.259 -0.5849  1.4015 -0.4927
  865MOL0     H14164   5.379   4.726  10.490  0.6830  1.3779  1.4033
  865MOL0     H14165   5.574   4.660  10.413  0.5949  0.6581  1.8414
  865MOL0     H14166   6.796   3.676  10.809 -0.2810  0.6540  1.7429
  865MOL0     H14167   6.976   3.516  10.801 -1.3002  0.9826  0.7013
  865MOL0     H14168   7.177   3.200  10.761 -1.5172 -1.1199  0.6711
  865MOL0     H14169   7.383   3.062  10.741 -0.9664  2.2904 -0.0967
  865MOL0     H14170   7.633   3.104  10.937  0.4955 -0.0798 -0.2517
  865MOL0     H14171   7.644   2.988  10.798  1.7241 -0.3851 -0.4670
  865MOL0     H14172   7.818   3.008  11.001 -3.0243  2.7412 -0.3777
  865MOL0     H14173   7.717   2.893  11.080  2.6742  1.7226  1.6527
  865MOL0     H14174   7.756   2.776  10.819  2.7440  2.6727 -1.8075
  865MOL0     H14175   7.761   2.708  10.980 -0.4197  1.1765  2.8241
  865MOL0     H14176   7.972   2.681  10.849 -3.7440 -1.6757  1.8141
  865MOL0     H14177   7.982   2.864  10.845  1.7282  0.7736  1.9453
  865MOL0     H14178   8.097   2.774  11.233 -1.2754 -2.5656  1.6611
  865MOL0     H14179   7.384   3.009  11.168  1.7691  2.0979 -0.0425
  865MOL0     H14180   7.179   3.141  11.195 -0.3891  1.4961  0.2473
  866MOL0     O14181   5.590   3.936   1.287  0.4385  0.2849  0.7247
  866MOL0     C14182   5.567   3.923   1.169  0.6525  0.5862 -0.5204
  866MOL0     O14183   5.448   3.961   1.111  0.2112 -0.5682  0.7059
  866MOL0     C14184   5.353   4.025   1.187 -0.1364  0.3372  0.3936
  866MOL0     C14185   5.372   4.158   1.230 -0.0959  0.3040  0.8682
  866MOL0     C14186   5.283   4.228   1.320  0.4419  0.2759  0.8666
  866MOL0     C14187   5.166   4.158   1.362  0.1886 -0.6913  0.0042
  866MOL0     O14188   5.069   4.225   1.436 -0.1381  0.4491  0.0125
  866MOL0     C14189   4.934   4.180   1.449  1.0974  0.0945  0.1502
  866MOL0     C14190   4.853   4.241   1.567 -0.1798  0.2343 -0.2920
  866MOL0     C14191   4.722   4.160   1.563  0.1501  0.8006  0.3961
  866MOL0     C14192   4.633   4.208   1.678  0.2960  0.2478 -0.5395
  866MOL0     C14193   4.483   4.163   1.669 -0.2689 -1.0469  0.7884
  866MOL0     C14194   4.403   4.225   1.782 -0.7865 -0.2751  0.6172
  866MOL0     C14195   4.422   4.152   1.919  0.5040 -1.0681  0.2418
  866MOL0     C14196   4.357   4.016   1.936  0.4434  0.7372 -0.3546
  866MOL0     N14197   4.217   4.017   1.971  0.4799  0.4559  0.3023
  866MOL0     C14198   4.126   3.934   1.908  0.3173 -0.4746  0.9462
  866MOL0     C14199   4.018   3.944   1.996 -0.6523  1.1808 -0.5452
  866MOL0     C14200   3.894   3.869   1.967 -0.0033  0.2428 -0.9720
  866MOL0     C14201   3.773   3.956   1.990  0.9957 -0.1097  0.0489
  866MOL0     C14202   3.734   3.962   2.140  0.1484  0.1399 -0.6113
  866MOL0     C14203   3.592   4.020   2.171 -0.3748  0.0475  0.8270
  866MOL0     O14204   3.484   3.948   2.105 -0.3781  0.6651  0.3732
  866MOL0     C14205   3.361   3.990   2.129 -1.0517  0.1576 -0.1574
  866MOL0     C14206   3.263   3.916   2.060 -0.6231  0.2124  0.5921
  866MOL0     C14207   3.126   3.954   2.066  0.0096 -0.3716  0.3138
  866MOL0     C14208   3.077   4.051   2.155  0.0900 -1.0100  0.3769
  866MOL0     C14209   2.936   4.083   2.166 -0.0812  0.7053  0.6476
  866MOL0     O14210   2.897   4.123   2.286  0.1671 -0.2610  0.0850
  866MOL0     C14211   2.773   4.180   2.310  0.6955  0.9598  0.5049
  866MOL0     C14212   2.650   4.130   2.261 -0.0563 -0.1867 -0.4288
  866MOL0     C14213   2.523   4.188   2.299  0.7816 -0.8331 -0.9448
  866MOL0     C14214   2.508   4.283   2.401  1.2572  0.2403  0.5548
  866MOL0     O14215   2.387   4.331   2.421  0.0583 -0.4623 -0.4354
  866MOL0     C14216   2.365   4.377   2.557 -0.2538  0.1492 -0.4236
  866MOL0     C14217   2.214   4.392   2.581  0.2504  0.1621 -0.3160
  866MOL0     C14218   2.145   4.255   2.593  0.1317 -0.1725 -0.4441
  866MOL0     C14219   1.997   4.292   2.626  0.8529  0.6618 -0.4898
  866MOL0     C14220   1.918   4.163   2.613  0.6753 -0.6349 -0.5887
  866MOL0     C14221   1.980   4.038   2.686  0.3138 -0.6312  0.7988
  866MOL0     C14222   1.874   3.927   2.662 -0.3500  0.0797  0.3243
  866MOL0     C14223   1.902   3.800   2.734 -0.9102 -0.5484  0.2228
  866MOL0    Cl14224   2.037   3.723   2.653 -0.3936  0.0640  0.5931
  866MOL0     C14225   2.630   4.318   2.460  0.5350  0.8761  0.4646
  866MOL0     C14226   2.752   4.265   2.410 -0.6428 -0.7789  0.3791
  866MOL0     O14227   2.876   4.086   2.059 -0.2400  0.7026  0.0712
  866MOL0     C14228   3.181   4.106   2.239  0.3959 -0.0903 -0.4660
  866MOL0     C14229   3.316   4.078   2.227 -0.8860 -0.3169  0.0870
  866MOL0     N14230   4.045   4.036   2.093  0.0597 -0.8270  0.2497
  866MOL0     N14231   4.165   4.089   2.079 -0.3012  0.0432 -0.1222
  866MOL0     C14232   5.143   4.026   1.318 -0.4274  0.3162  1.0101
  866MOL0     C14233   5.242   3.961   1.232  0.7356  0.1842 -0.6266
  866MOL0     C14234   5.666   3.858   1.088  0.7218 -0.5153  0.1587
  866MOL0     C14235   5.636   3.827   0.954  0.1547 -0.2012  0.0129
  866MOL0     C14236   5.718   3.737   0.882 -1.8335 -0.5732 -0.6477
  866MOL0     C14237   5.845   3.704   0.928  0.1047  1.0172  0.0017
  866MOL0     O14238   5.950   3.626   0.868 -0.2400  0.2635  0.2860
  866MOL0     C14239   5.934   3.593   0.730  0.2048 -0.0256  0.9114
  866MOL0     C14240   5.870   3.448   0.743  0.4682 -0.0713 -0.0825
  866MOL0     C14241   5.982   3.345   0.767 -0.2816 -0.1006 -0.0522
  866MOL0     C14242   5.914   3.206   0.753 -0.1171  0.0742 -0.3826
  866MOL0     C14243   6.015   3.103   0.776  0.5093 -0.4339  0.4255
  866MOL0     C14244   6.093   3.011   0.798  0.3715  0.4480  0.5964
  866MOL0     C14245   5.882   3.752   1.058  0.1969 -0.4344 -0.3594
  866MOL0     C14246   5.787   3.821   1.131 -0.1501 -0.0659 -0.3333
  866MOL0     H14247   5.454   4.211   1.182 -1.9778 -0.3375 -3.4931
  866MOL0     H14248   5.298   4.329   1.358 -0.5843  0.6579  0.3059
  866MOL0     H14249   4.940   4.072   1.465  0.7842 -0.0152 -0.4295
  866MOL0     H14250   4.876   4.210   1.362  1.1454  0.1429  0.1352
  866MOL0     H14251   4.841   4.349   1.558  0.3221  0.2417 -0.9416
  866MOL0     H14252   4.898   4.228   1.666 -0.4612 -0.9294 -0.3046
  866MOL0     H14253   4.727   4.051   1.571 -2.2335  0.4002 -2.1059
  866MOL0     H14254   4.674   4.169   1.465  1.0666  0.7611 -0.0731
  866MOL0     H14255   4.670   4.184   1.778  0.7546  1.2158 -0.4656
  866MOL0     H14256   4.635   4.317   1.670  0.0983  0.1215 -3.5055
  866MOL0     H14257   4.483   4.055   1.681 -3.1583 -1.1529  0.4795
  866MOL0     H14258   4.455   4.195   1.568  0.9774 -1.2030  0.3790
  866MOL0     H14259   4.295   4.215   1.763 -1.2596 -0.8895  3.2657
  866MOL0     H14260   4.433   4.330   1.788  0.7828 -0.5347 -1.5568
  866MOL0     H14261   4.531   4.151   1.925  0.6164 -2.4707 -1.1668
  866MOL0     H14262   4.380   4.213   1.999 -2.7977 -0.9164 -1.4049
  866MOL0     H14263   4.413   3.955   2.007  0.8522  0.3470 -1.0033
  866MOL0     H14264   4.368   3.971   1.838  1.4494 -1.3602  0.6661
  866MOL0     H14265   4.149   3.865   1.827  3.5786 -0.4307  1.6897
  866MOL0     H14266   3.894   3.780   2.031 -3.7798  1.7459  1.5098
  866MOL0     H14267   3.905   3.833   1.865 -1.3308  0.6151 -1.2674
  866MOL0     H14268   3.690   3.893   1.956 -0.4903  1.1035  1.2439
  866MOL0     H14269   3.783   4.056   1.946  0.9227 -0.5129 -0.9042
  866MOL0     H14270   3.738   3.861   2.183  0.7827  1.0601  1.6639
  866MOL0     H14271   3.809   4.015   2.200  2.1263 -1.7428 -1.2615
  866MOL0     H14272   3.581   4.122   2.133 -1.7695  0.5726  2.4709
  866MOL0     H14273   3.584   4.006   2.279  2.4837  1.6462  1.3330
  866MOL0     H14274   3.293   3.842   1.987 -1.0272 -1.0466  1.6684
  866MOL0     H14275   3.058   3.895   2.006 -2.5410  2.4046  0.2780
  866MOL0     H14276   2.651   4.049   2.189 -2.9160 -1.6214  1.0146
  866MOL0     H14277   2.430   4.162   2.250 -1.5816  1.1417  2.0778
  866MOL0     H14278   2.404   4.477   2.579  0.9236 -0.2352 -0.6606
  866MOL0     H14279   2.405   4.304   2.627 -1.0972  0.9496  0.9303
  866MOL0     H14280   2.178   4.447   2.493  0.3086  0.2095 -0.3105
  866MOL0     H14281   2.195   4.456   2.668  1.8098  0.4014 -0.1326
  866MOL0     H14282   2.190   4.178   2.657 -4.1874 -1.1716  1.8044
  866MOL0     H14283   2.150   4.203   2.497 -0.3298 -0.8728 -0.0952
  866MOL0     H14284   1.982   4.342   2.723  2.1073  0.3929 -0.1305
  866MOL0     H14285   1.975   4.370   2.552  2.8915  1.8981  0.1056
  866MOL0     H14286   1.908   4.154   2.504  1.2678  1.4030 -0.8555
  866MOL0     H14287   1.817   4.184   2.650  0.2338 -0.1174 -2.0391
  866MOL0     H14288   2.000   4.070   2.789 -0.6179  3.3771 -0.0856
  866MOL0     H14289   2.074   4.008   2.640 -0.4971  1.0372 -2.1796
  866MOL0     H14290   1.779   3.958   2.706  0.0372  0.5200  0.8584
  866MOL0     H14291   1.871   3.894   2.558  1.8176 -1.2191  0.6185
  866MOL0     H14292   1.825   3.729   2.701 -1.2320  0.4059 -1.1890
  866MOL0     H14293   1.917   3.804   2.842  0.0062 -4.2872  0.3907
  866MOL0     H14294   2.619   4.380   2.547 -2.1605 -1.8868  2.2966
  866MOL0     H14295   2.846   4.275   2.464  0.0294  1.8114 -1.1017
  866MOL0     H14296   3.155   4.188   2.305  1.3388  0.1539 -0.3887
  866MOL0     H14297   3.381   4.144   2.282  0.1231 -0.8336 -0.4562
  866MOL0     H14298   5.052   3.970   1.334  0.1158 -0.1936  2.5304
  866MOL0     H14299   5.221   3.856   1.214  0.6554  0.3549 -1.6220
  866MOL0     H14300   5.552   3.875   0.905  1.5839  1.1388 -1.2347
  866MOL0     H14301   5.685   3.712   0.782 -0.0046  1.2732 -1.8163
  866MOL0     H14302   6.029   3.575   0.678 -1.4674  0.7205 -2.7219
  866MOL0     H14303   5.877   3.666   0.672  1.8028 -0.1566 -0.9393
  866MOL0     H14304   5.797   3.446   0.825  1.3559 -1.5949  0.7137
  866MOL0     H14305   5.818   3.420   0.650  1.3174 -1.5422 -0.1493
  866MOL0     H14306   6.031   3.355   0.864 -0.4102  1.4479 -0.1281
  866MOL0     H14307   6.056   3.359   0.688  1.4979  1.0728  1.7441
  866MOL0     H14308   5.834   3.208   0.827 -1.8705 -0.2378 -2.1943
  866MOL0     H14309   5.870   3.189   0.654 -1.2252  0.3402  0.0522
  866MOL0     H14310   6.144   2.928   0.841  0.7721  0.1266 -0.4688
  866MOL0     H14311   5.981   3.734   1.098  1.4313 -0.5189 -3.1495
  866MOL0     H14312   5.808   3.832   1.237 -1.4245  2.3103 -0.2771
  867MOL0     O14313   1.443   7.477   3.651 -0.0390 -0.2059 -0.5212
  867MOL0     C14314   1.464   7.378   3.720  0.2244 -0.0884 -0.0284
  867MOL0     O14315   1.372   7.297   3.771 -0.2054  0.2205  0.2056
  867MOL0     C14316   1.235   7.326   3.772 -0.1099  0.4372 -0.5914
  867MOL0     C14317   1.175   7.357   3.643 -0.0537  0.2241 -0.7624
  867MOL0     C14318   1.037   7.379   3.637 -0.0683 -0.0889 -0.4844
  867MOL0     C14319   0.956   7.355   3.754 -0.7189 -1.0158 -0.3231
  867MOL0     O14320   0.824   7.381   3.735 -0.1880 -0.3948  0.0032
  867MOL0     C14321   0.738   7.433   3.834  0.3094 -0.0318  0.5184
  867MOL0     C14322   0.765   7.583   3.855 -0.1460  0.4264  0.6121
  867MOL0     C14323   0.649   7.667   3.907 -1.2456  0.2950 -0.2326
  867MOL0     C14324   0.545   7.701   3.801 -0.1863 -0.5056 -0.4065
  867MOL0     C14325   0.468   7.829   3.828 -0.8780 -0.6190  0.3650
  867MOL0     C14326   0.373   7.852   3.717  0.4019  0.0562  0.4505
  867MOL0     C14327   0.297   7.980   3.723  0.4196  0.7427  0.5943
  867MOL0     C14328   0.161   7.961   3.671  0.3905 -0.2737 -0.1266
  867MOL0     N14329   0.174   7.887   3.538 -0.1512 -0.5180 -0.2906
  867MOL0     C14330   0.111   7.773   3.504  0.0561  0.8855 -0.0162
  867MOL0     C14331   0.133   7.757   3.372  0.2346 -0.1532  0.1453
  867MOL0     C14332   0.110   7.647   3.285  0.6425  0.2063  0.6844
  867MOL0     C14333  -0.031   7.642   3.224  0.5091 -0.6811  0.0123
  867MOL0     C14334  -0.025   7.601   3.076 -0.0043 -0.9264 -0.3109
  867MOL0     C14335  -0.170   7.603   3.019  0.6295  0.0407 -0.1042
  867MOL0     O14336  -0.162   7.521   2.902  0.4335  0.8842  0.3319
  867MOL0     C14337  -0.278   7.501   2.829 -0.1822 -0.3397 -0.7294
  867MOL0     C14338  -0.405   7.520   2.878  0.1686 -0.2402  0.0722
  867MOL0     C14339  -0.515   7.506   2.792 -0.4547 -1.0760 -0.3894
  867MOL0     C14340  -0.491   7.468   2.653  0.6447 -0.3603  0.2438
  867MOL0     C14341  -0.606   7.451   2.563 -0.5893 -0.2304 -0.3439
  867MOL0     O14342  -0.580   7.421   2.436  0.1484  0.7069  0.0157
  867MOL0     C14343  -0.682   7.397   2.346  0.8333  0.2216 -0.1935
  867MOL0     C14344  -0.675   7.277   2.273  0.5005 -0.1866 -0.2148
  867MOL0     C14345  -0.778   7.233   2.185  0.0495 -0.6250  0.6174
  867MOL0     C14346  -0.898   7.308   2.173  0.5928 -0.8121  0.0612
  867MOL0     O14347  -1.021   7.277   2.104 -0.4004 -0.0931 -0.5517
  867MOL0     C14348  -1.028   7.152   2.041  0.0166  0.5040  0.8419
  867MOL0     C14349  -1.067   7.051   2.152  0.3482  0.8155  0.5883
  867MOL0     C14350  -1.075   6.909   2.088 -0.3385  0.7546 -0.0837
  867MOL0     C14351  -1.132   6.804   2.185 -0.4707  0.6961 -0.0502
  867MOL0     C14352  -1.041   6.778   2.302  0.3752 -0.3013 -0.3453
  867MOL0     C14353  -1.122   6.685   2.394 -0.2278  0.8338 -0.1419
  867MOL0     C14354  -1.062   6.683   2.532 -0.9173 -0.0839  0.9533
  867MOL0     C14355  -1.156   6.605   2.625  0.5571  0.5484  0.2914
  867MOL0    Cl14356  -1.152   6.427   2.586  0.2824  0.3546 -0.0323
  867MOL0     C14357  -0.892   7.440   2.231 -0.1333  0.8657 -0.5421
  867MOL0     C14358  -0.789   7.483   2.318 -0.2294 -0.4072 -0.6029
  867MOL0     O14359  -0.713   7.482   2.605 -0.0808  0.3031  0.2149
  867MOL0     C14360  -0.365   7.451   2.601  0.1705 -0.8419  0.3811
  867MOL0     C14361  -0.263   7.466   2.701 -0.5562 -0.4632 -0.2619
  867MOL0     N14362   0.209   7.869   3.332  0.1949  0.7002  0.3075
  867MOL0     N14363   0.232   7.947   3.429  0.9754 -0.5080 -0.0657
  867MOL0     C14364   1.015   7.317   3.873 -0.1105 -0.7402  0.1345
  867MOL0     C14365   1.158   7.317   3.883  0.0744  0.8648 -1.8242
  867MOL0     C14366   1.601   7.337   3.756  1.8375  0.2007 -0.3934
  867MOL0     C14367   1.709   7.361   3.671 -0.1249  0.6503  0.7983
  867MOL0     C14368   1.832   7.312   3.694  0.4146  0.7290 -0.8311
  867MOL0     C14369   1.862   7.243   3.815  1.1155 -0.4284 -0.4262
  867MOL0     O14370   1.986   7.196   3.852 -0.0936 -0.1379  0.6008
  867MOL0     C14371   2.081   7.179   3.743 -1.0288 -0.1709 -0.7928
  867MOL0     C14372   2.193   7.079   3.775 -0.2206 -0.4495  0.9925
  867MOL0     C14373   2.264   7.047   3.635  0.4614 -0.4901 -0.6451
  867MOL0     C14374   2.366   6.937   3.669  0.3515 -0.4248 -0.0061
  867MOL0     C14375   2.299   6.811   3.680 -0.3681 -0.0238 -0.2790
  867MOL0     C14376   2.244   6.709   3.697  0.6866  0.0381  0.5948
  867MOL0     C14377   1.750   7.228   3.903 -0.3968 -0.4388  0.0385
  867MOL0     C14378   1.624   7.283   3.884  0.7894  0.9354 -0.2684
  867MOL0     H14379   1.238   7.371   3.557 -0.8233 -3.9184 -2.2662
  867MOL0     H14380   0.990   7.403   3.542 -0.8834  0.1723 -0.0238
  867MOL0     H14381   0.759   7.388   3.932  1.4354  0.8601  0.7008
  867MOL0     H14382   0.641   7.415   3.787  0.9851 -0.6415 -0.7103
  867MOL0     H14383   0.777   7.631   3.758  3.6801 -0.3177  0.5389
  867MOL0     H14384   0.865   7.589   3.899  1.0300 -3.2692 -1.1463
  867MOL0     H14385   0.695   7.759   3.945  1.7044 -1.1626 -0.0445
  867MOL0     H14386   0.603   7.620   3.994 -2.0288  1.1754 -0.1532
  867MOL0     H14387   0.597   7.734   3.711 -1.5315  1.5003 -0.5216
  867MOL0     H14388   0.490   7.609   3.780  0.2806 -1.0477  0.6395
  867MOL0     H14389   0.524   7.922   3.845 -0.2230 -0.8742 -0.3407
  867MOL0     H14390   0.407   7.812   3.917  1.6935 -1.1975  2.1396
  867MOL0     H14391   0.300   7.771   3.717  0.4815 -0.0236 -0.5803
  867MOL0     H14392   0.421   7.848   3.619 -0.9028  1.5391 -0.3089
  867MOL0     H14393   0.300   8.030   3.820 -2.0563  0.6758  0.7758
  867MOL0     H14394   0.356   8.045   3.658 -0.4541 -0.1874 -1.2243
  867MOL0     H14395   0.109   8.056   3.653  0.4912 -0.0664  0.6583
  867MOL0     H14396   0.093   7.911   3.740 -1.1035  2.0001  0.1536
  867MOL0     H14397   0.054   7.710   3.571  1.4200 -1.2468 -0.7286
  867MOL0     H14398   0.121   7.553   3.341 -1.5383 -0.1586  0.5981
  867MOL0     H14399   0.182   7.653   3.202  0.7306 -1.3802  0.6051
  867MOL0     H14400  -0.073   7.743   3.228 -1.2414 -1.3362 -0.8635
  867MOL0     H14401  -0.094   7.575   3.284 -1.2418 -1.0806 -2.1615
  867MOL0     H14402   0.037   7.669   3.018  2.3025 -1.4823  1.3844
  867MOL0     H14403   0.034   7.510   3.074  1.6553  0.1139 -0.1810
  867MOL0     H14404  -0.206   7.701   2.988 -0.2800  0.5736  2.3584
  867MOL0     H14405  -0.239   7.565   3.095  0.5372  0.5104  0.0510
  867MOL0     H14406  -0.418   7.533   2.985  0.6778 -1.4787  0.2990
  867MOL0     H14407  -0.619   7.509   2.823 -1.2767  1.7491 -2.9635
  867MOL0     H14408  -0.595   7.210   2.304  1.1128  0.4186 -0.4393
  867MOL0     H14409  -0.759   7.139   2.134  0.1307 -1.5457  2.2719
  867MOL0     H14410  -0.937   7.116   1.993 -0.1451  0.1228  0.8228
  867MOL0     H14411  -1.107   7.153   1.965  1.0331  1.3702 -0.2460
  867MOL0     H14412  -1.163   7.080   2.194 -1.4771 -1.1773 -1.8580
  867MOL0     H14413  -0.990   7.050   2.229 -0.3701  1.9142  1.3565
  867MOL0     H14414  -0.979   6.872   2.052  0.0084  2.0563 -0.5310
  867MOL0     H14415  -1.136   6.913   1.997 -3.3563  0.8209  1.7932
  867MOL0     H14416  -1.225   6.856   2.209 -0.6073  1.4053 -1.9406
  867MOL0     H14417  -1.157   6.709   2.138 -0.1656 -0.3810  1.8699
  867MOL0     H14418  -1.016   6.873   2.349 -0.3971 -0.5063  0.4985
  867MOL0     H14419  -0.944   6.738   2.270  1.5013  3.9655 -3.0754
  867MOL0     H14420  -1.132   6.582   2.358 -1.2591  0.1280  1.9452
  867MOL0     H14421  -1.224   6.723   2.395 -2.6075 -4.6011 -1.5645
  867MOL0     H14422  -0.962   6.641   2.533 -1.8087 -2.2931  1.8345
  867MOL0     H14423  -1.060   6.788   2.566 -0.9380  0.9641 -1.9835
  867MOL0     H14424  -1.255   6.652   2.618 -0.2158 -0.4236  3.2285
  867MOL0     H14425  -1.134   6.619   2.732 -2.9956  0.5822  1.1347
  867MOL0     H14426  -0.972   7.511   2.217 -1.3219  0.0036  1.4845
  867MOL0     H14427  -0.788   7.586   2.353  0.3094  0.3381 -2.6508
  867MOL0     H14428  -0.345   7.417   2.500 -4.7674 -2.2941 -0.3859
  867MOL0     H14429  -0.161   7.443   2.670 -1.7450 -2.1393 -3.3421
  867MOL0     H14430   0.967   7.314   3.971  3.1596 -0.3005  1.8908
  867MOL0     H14431   1.205   7.295   3.979 -0.2708 -0.7484 -1.9869
  867MOL0     H14432   1.694   7.402   3.572  0.1159  1.3818  1.0533
  867MOL0     H14433   1.910   7.345   3.627 -0.4699  0.0845 -2.2280
  867MOL0     H14434   2.127   7.276   3.725  0.2580 -0.4016  0.9220
  867MOL0     H14435   2.032   7.142   3.652 -1.2938 -0.4661 -0.5361
  867MOL0     H14436   2.271   7.128   3.834 -0.6085  1.2722  0.1493
  867MOL0     H14437   2.152   6.993   3.828  0.1479 -1.2879 -0.0392
  867MOL0     H14438   2.321   7.129   3.590  0.8025 -0.0186  0.5967
  867MOL0     H14439   2.187   7.016   3.564 -3.0941  1.3937  2.0595
  867MOL0     H14440   2.431   6.927   3.581 -1.1617  0.8095 -1.3150
  867MOL0     H14441   2.417   6.969   3.761 -0.6887 -0.4046  0.5720
  867MOL0     H14442   2.186   6.623   3.724  1.8199 -0.3409  1.9162
  867MOL0     H14443   1.770   7.191   4.003  1.1583  2.5754  0.9836
  867MOL0     H14444   1.558   7.276   3.969  2.0419 -0.7151  0.6233
  868MOL0     O14445   4.920   1.160   3.753  0.3257 -0.2517 -0.1576
  868MOL0     C14446   5.010   1.230   3.802 -0.1303 -0.3673  0.2332
  868MOL0     O14447   4.995   1.324   3.897 -0.3077 -0.0661 -0.8192
  868MOL0     C14448   4.865   1.348   3.934  0.5002  0.3552 -0.0300
  868MOL0     C14449   4.788   1.461   3.900  0.3846  0.2823  0.8685
  868MOL0     C14450   4.651   1.471   3.924 -0.6162  0.2142 -0.5594
  868MOL0     C14451   4.594   1.376   4.013  0.5894  0.3174  0.4298
  868MOL0     O14452   4.462   1.385   4.036 -0.7348  0.2487 -0.1492
  868MOL0     C14453   4.412   1.506   4.094  0.0638 -0.2941  0.0428
  868MOL0     C14454   4.286   1.490   4.172 -0.5841  0.1417  0.9282
  868MOL0     C14455   4.238   1.610   4.259  0.5383  0.2841 -0.3200
  868MOL0     C14456   4.125   1.568   4.360 -0.0308 -0.3617 -0.6091
  868MOL0     C14457   4.085   1.679   4.466 -0.8724 -1.1360  0.6576
  868MOL0     C14458   4.005   1.791   4.386  0.6197 -0.5549  0.7183
  868MOL0     C14459   3.862   1.761   4.373  0.6042  0.4411 -0.8750
  868MOL0     C14460   3.786   1.797   4.502 -0.0315  0.9505 -0.2977
  868MOL0     N14461   3.644   1.805   4.489 -0.1469  0.4370 -0.2460
  868MOL0     C14462   3.559   1.906   4.440  0.5584 -0.2109 -0.2830
  868MOL0     C14463   3.430   1.872   4.461  0.0869 -0.9586  0.2864
  868MOL0     C14464   3.307   1.948   4.405  0.7409  0.3339 -0.4619
  868MOL0     C14465   3.294   2.084   4.480  0.1987 -0.1003  0.5400
  868MOL0     C14466   3.204   2.180   4.413 -0.2982 -0.4983  0.7378
  868MOL0     C14467   3.197   2.325   4.465 -0.6156 -0.0542  0.6021
  868MOL0     O14468   3.089   2.403   4.418  0.0819  0.5654  0.4812
  868MOL0     C14469   3.055   2.521   4.478 -0.6752 -0.9499  0.7641
  868MOL0     C14470   3.152   2.596   4.549 -0.4412  0.8576  0.3071
  868MOL0     C14471   3.122   2.722   4.603 -0.1874  0.1585 -0.4620
  868MOL0     C14472   2.980   2.763   4.595 -0.4920 -0.7778 -0.6039
  868MOL0     C14473   2.920   2.886   4.649  0.0333 -0.3165 -0.1733
  868MOL0     O14474   2.801   2.921   4.592 -0.2276  0.4595  0.2798
  868MOL0     C14475   2.742   3.037   4.626  0.1865 -0.7715  0.2879
  868MOL0     C14476   2.722   3.085   4.758 -0.5481  0.0876  0.3730
  868MOL0     C14477   2.650   3.197   4.787 -0.2357 -0.0743  0.0955
  868MOL0     C14478   2.568   3.253   4.684  0.2962 -0.6588  0.5992
  868MOL0     O14479   2.488   3.369   4.689 -0.4710  0.2228 -0.2005
  868MOL0     C14480   2.442   3.421   4.810  0.1748  0.0509 -0.7667
  868MOL0     C14481   2.303   3.376   4.829  0.5533  0.4630 -0.7005
  868MOL0     C14482   2.248   3.410   4.963 -0.0482  0.4636  0.2120
  868MOL0     C14483   2.126   3.318   5.010  0.0346 -0.2930  0.1622
  868MOL0     C14484   2.073   3.361   5.154 -0.6978 -0.5414  0.5086
  868MOL0     C14485   1.923   3.327   5.170 -1.2930  0.1174  0.0064
  868MOL0     C14486   1.879   3.385   5.300  0.7504  0.7336  0.4113
  868MOL0     C14487   1.732   3.370   5.307  1.0321 -0.3449  0.4191
  868MOL0    Cl14488   1.663   3.428   5.468  0.0402 -0.0609 -0.4824
  868MOL0     C14489   2.575   3.207   4.557  0.0689  0.3253  0.8086
  868MOL0     C14490   2.673   3.110   4.517 -0.9872  0.2596  0.3249
  868MOL0     O14491   2.987   2.949   4.732 -0.7633 -0.4651  0.2818
  868MOL0     C14492   2.879   2.667   4.536  0.1128  0.1981  0.1531
  868MOL0     C14493   2.922   2.546   4.484 -0.1702 -0.7822  0.2818
  868MOL0     N14494   3.428   1.757   4.536  0.1450 -0.6692  0.1542
  868MOL0     N14495   3.557   1.719   4.560 -0.2528  0.2129 -0.0432
  868MOL0     C14496   4.664   1.269   4.052  0.4709  0.3635  0.5812
  868MOL0     C14497   4.799   1.248   4.009 -0.1580 -0.3313 -0.4766
  868MOL0     C14498   5.143   1.210   3.743 -0.7792  0.2906  0.3308
  868MOL0     C14499   5.259   1.285   3.776 -0.4790 -0.1003 -0.2570
  868MOL0     C14500   5.383   1.263   3.721 -0.1611  0.3400 -0.4355
  868MOL0     C14501   5.405   1.158   3.632  0.6315  0.2322 -0.7494
  868MOL0     O14502   5.520   1.106   3.573  0.7428  0.0748 -0.0694
  868MOL0     C14503   5.637   1.189   3.565 -0.5724  0.7271  0.7307
  868MOL0     C14504   5.735   1.130   3.465  0.3868  0.1095  0.5113
  868MOL0     C14505   5.856   1.219   3.479  0.3358  0.5307 -0.0704
  868MOL0     C14506   5.955   1.186   3.364 -0.6734  0.0549 -0.1506
  868MOL0     C14507   5.955   1.256   3.242 -0.4945  0.2784  0.2141
  868MOL0     C14508   5.954   1.301   3.131 -1.0534 -1.1525 -0.5005
  868MOL0     C14509   5.293   1.078   3.604 -0.2323  0.2480  0.0047
  868MOL0     C14510   5.168   1.106   3.645 -0.5053 -0.0945  0.9829
  868MOL0     H14511   4.849   1.531   3.844  0.9049  0.3177  1.4547
  868MOL0     H14512   4.589   1.550   3.882  0.1941  0.3794 -1.4672
  868MOL0     H14513   4.387   1.582   4.020 -0.2501 -0.0455  0.3932
  868MOL0     H14514   4.488   1.548   4.160  2.9311 -1.1008 -2.5501
  868MOL0     H14515   4.300   1.405   4.239  0.4148  0.8534  1.6543
  868MOL0     H14516   4.203   1.460   4.108  2.1016 -2.8845 -1.4919
  868MOL0     H14517   4.197   1.682   4.188 -2.6935 -1.0085  0.0873
  868MOL0     H14518   4.319   1.650   4.321  1.3050 -0.7316 -0.6389
  868MOL0     H14519   4.032   1.527   4.319 -1.1532 -0.0114  1.4159
  868MOL0     H14520   4.167   1.488   4.420  1.3732  2.6764  2.8364
  868MOL0     H14521   4.173   1.732   4.503 -2.2920  1.7102  0.2862
  868MOL0     H14522   4.032   1.641   4.554  1.4691  1.2920  3.3380
  868MOL0     H14523   4.037   1.811   4.284  0.0020  2.4166  1.0008
  868MOL0     H14524   4.020   1.891   4.428  0.9202 -0.5900  0.7049
  868MOL0     H14525   3.819   1.821   4.291 -1.5864  0.6092  0.3142
  868MOL0     H14526   3.864   1.653   4.355  0.4011  0.2450  0.2530
  868MOL0     H14527   3.827   1.890   4.541  0.2622 -0.1064  2.1052
  868MOL0     H14528   3.795   1.720   4.579  0.9917  1.4450  0.0936
  868MOL0     H14529   3.595   1.988   4.378 -0.1433 -0.6680 -1.3233
  868MOL0     H14530   3.214   1.892   4.417 -0.3401  2.4337  1.8045
  868MOL0     H14531   3.329   1.959   4.298 -0.8939 -6.8946 -2.0744
  868MOL0     H14532   3.389   2.138   4.489 -0.4879  0.8889  7.2695
  868MOL0     H14533   3.267   2.081   4.586 -4.0556 -2.3063 -0.3861
  868MOL0     H14534   3.229   2.189   4.307 -0.3947  1.7565  0.8736
  868MOL0     H14535   3.103   2.142   4.429 -0.9392  0.0118 -1.7506
  868MOL0     H14536   3.293   2.371   4.438 -0.9483 -1.0738 -2.7825
  868MOL0     H14537   3.183   2.314   4.573  2.6279 -2.7931  0.9073
  868MOL0     H14538   3.250   2.555   4.567 -0.0471  2.3582  1.9481
  868MOL0     H14539   3.192   2.795   4.640 -1.8511  3.2672 -2.8718
  868MOL0     H14540   2.761   3.031   4.844  0.3612 -0.6521 -0.4809
  868MOL0     H14541   2.647   3.238   4.888 -4.7604 -0.8604  0.4998
  868MOL0     H14542   2.458   3.529   4.804 -3.3440  0.9508  2.6773
  868MOL0     H14543   2.505   3.377   4.888 -0.1657  0.1818 -0.4149
  868MOL0     H14544   2.301   3.266   4.829 -0.3871  0.4096 -3.3263
  868MOL0     H14545   2.237   3.408   4.748  0.8992 -0.8689 -1.5331
  868MOL0     H14546   2.223   3.516   4.954 -0.5307  0.3514  0.2009
  868MOL0     H14547   2.327   3.397   5.037 -1.1445 -5.5611  0.8288
  868MOL0     H14548   2.044   3.325   4.939  0.4634 -1.0633 -0.4231
  868MOL0     H14549   2.157   3.214   5.025 -0.1983 -0.3298  0.3982
  868MOL0     H14550   2.093   3.466   5.175  2.3556 -1.1141  0.9470
  868MOL0     H14551   2.129   3.310   5.233 -0.0924 -0.9538 -0.1645
  868MOL0     H14552   1.902   3.220   5.172  0.2447 -0.2241 -0.2498
  868MOL0     H14553   1.866   3.382   5.095 -3.1505 -3.9560 -1.8112
  868MOL0     H14554   1.929   3.331   5.381  3.3974  2.6816  0.2185
  868MOL0     H14555   1.900   3.492   5.315 -4.2903  1.8456  1.4297
  868MOL0     H14556   1.706   3.264   5.300 -1.1558  0.1258  0.4285
  868MOL0     H14557   1.681   3.421   5.224  1.4190 -1.2081 -0.3673
  868MOL0     H14558   2.504   3.243   4.483  0.2593 -0.8568  0.0421
  868MOL0     H14559   2.687   3.076   4.415 -0.0302 -2.2305  1.2150
  868MOL0     H14560   2.771   2.676   4.533  0.0444 -0.6304 -0.1109
  868MOL0     H14561   2.858   2.478   4.427  0.5545  0.4722 -2.1855
  868MOL0     H14562   4.610   1.198   4.114 -2.5872  1.6718 -0.4153
  868MOL0     H14563   4.857   1.165   4.048  0.2737  1.9433  4.3599
  868MOL0     H14564   5.257   1.364   3.851  1.1243  0.0435 -0.3288
  868MOL0     H14565   5.468   1.325   3.746 -1.0846  0.7447  1.9584
  868MOL0     H14566   5.687   1.205   3.661 -1.1854 -0.0844  1.1951
  868MOL0     H14567   5.594   1.283   3.530 -0.2413  0.5171 -0.2919
  868MOL0     H14568   5.762   1.026   3.481  2.3985  0.3810 -0.6910
  868MOL0     H14569   5.689   1.140   3.366 -2.0836 -0.7442  1.5129
  868MOL0     H14570   5.908   1.188   3.570  1.6897 -1.1583 -1.3486
  868MOL0     H14571   5.834   1.325   3.494  0.1501  0.3923  0.7044
  868MOL0     H14572   6.053   1.198   3.410 -0.3120 -0.3927 -0.7894
  868MOL0     H14573   5.951   1.078   3.347  0.3738  0.3849 -2.9744
  868MOL0     H14574   5.943   1.338   3.031  0.0535 -0.4059 -0.3528
  868MOL0     H14575   5.312   0.991   3.542  3.1063 -0.8354  2.2682
  868MOL0     H14576   5.087   1.049   3.602 -1.5171  1.9672  0.0589
  869MOL0     O14577   5.337   8.966   6.355  0.0753  0.0819  0.4329
  869MOL0     C14578   5.405   9.049   6.408  0.0067 -0.6100 -0.7599
  869MOL0     O14579   5.386   9.083   6.542  1.3683  0.2158  0.3396
  869MOL0     C14580   5.288   9.031   6.629  0.9374  0.4020 -0.6786
  869MOL0     C14581   5.160   8.981   6.591 -0.0056  0.4001 -0.0834
  869MOL0     C14582   5.071   8.935   6.689  0.3891 -0.5028 -0.0510
  869MOL0     C14583   5.108   8.931   6.827 -0.3222  1.2736 -0.3297
  869MOL0     O14584   5.017   8.869   6.906  0.0250  0.3521  0.4988
  869MOL0     C14585   4.881   8.906   6.885 -0.1118  0.1970  0.9026
  869MOL0     C14586   4.801   8.848   7.000  0.0323 -1.6951 -0.7345
  869MOL0     C14587   4.804   8.688   7.007  0.5129  0.3751 -0.1053
  869MOL0     C14588   4.729   8.645   7.129  0.2342  0.4111 -0.5925
  869MOL0     C14589   4.716   8.488   7.145 -0.2668  0.1767 -0.0060
  869MOL0     C14590   4.676   8.453   7.282  0.4640  0.1324  0.2997
  869MOL0     C14591   4.597   8.325   7.276  0.0248  0.6969  0.2841
  869MOL0     C14592   4.565   8.271   7.417  0.2074 -0.4684  0.4287
  869MOL0     N14593   4.473   8.162   7.407 -0.2002  0.8207  0.4894
  869MOL0     C14594   4.386   8.128   7.507  0.5587 -0.1807 -0.2465
  869MOL0     C14595   4.326   8.005   7.460 -0.6441  0.2380  0.3515
  869MOL0     C14596   4.222   7.937   7.549 -0.3703 -0.5474 -0.6354
  869MOL0     C14597   4.082   7.937   7.475 -0.3281  0.2668  1.5163
  869MOL0     C14598   3.982   7.861   7.566  0.6595  0.3485 -0.0835
  869MOL0     C14599   3.841   7.860   7.505 -0.0476  0.7005  0.4360
  869MOL0     O14600   3.845   7.773   7.390  0.8183  0.1075  0.5907
  869MOL0     C14601   3.719   7.736   7.336  0.2155  0.3768  0.5281
  869MOL0     C14602   3.595   7.787   7.382  0.9727  1.5525  0.2359
  869MOL0     C14603   3.476   7.728   7.346 -0.3352  0.3503  0.1767
  869MOL0     C14604   3.471   7.622   7.248 -0.8809  0.0153 -0.1942
  869MOL0     C14605   3.347   7.545   7.222  0.5053  0.3224  0.1302
  869MOL0     O14606   3.257   7.531   7.325 -0.1569 -0.3459 -0.6533
  869MOL0     C14607   3.133   7.481   7.306 -0.0157  0.2295  1.1315
  869MOL0     C14608   3.095   7.362   7.367 -0.2824  0.1569 -0.4297
  869MOL0     C14609   2.964   7.313   7.349 -0.4419 -0.2115  0.6247
  869MOL0     C14610   2.864   7.386   7.275 -0.6905 -0.3301 -0.8047
  869MOL0     O14611   2.727   7.347   7.276 -0.7903  0.3325  0.3405
  869MOL0     C14612   2.637   7.411   7.178  0.4676  0.4689 -0.2975
  869MOL0     C14613   2.674   7.380   7.035  0.7441  1.0490 -0.5516
  869MOL0     C14614   2.613   7.454   6.922 -0.0391 -0.1071  0.4424
  869MOL0     C14615   2.468   7.424   6.913 -0.0518  0.1423  0.1290
  869MOL0     C14616   2.405   7.485   6.786  0.5978  0.1338  1.6426
  869MOL0     C14617   2.253   7.472   6.769  0.7754  0.0119  0.1568
  869MOL0     C14618   2.206   7.336   6.724  0.0736 -0.8770 -0.2276
  869MOL0     C14619   2.050   7.332   6.704  0.7317 -0.4005  0.4120
  869MOL0    Cl14620   2.006   7.471   6.597 -0.0109  0.2451  0.1015
  869MOL0     C14621   2.908   7.501   7.219 -0.8538  1.1112  0.7515
  869MOL0     C14622   3.037   7.553   7.229 -0.1505  0.7056 -0.0924
  869MOL0     O14623   3.339   7.483   7.115  0.9310  0.5201 -0.4544
  869MOL0     C14624   3.595   7.576   7.200 -0.1923  0.5547 -0.6129
  869MOL0     C14625   3.721   7.630   7.237  0.4146 -0.0777 -0.3142
  869MOL0     N14626   4.387   7.966   7.343  0.2864 -0.1573 -0.8643
  869MOL0     N14627   4.483   8.058   7.321 -0.3504 -0.0571 -0.5172
  869MOL0     C14628   5.236   8.967   6.869  0.2145 -0.2905  0.3721
  869MOL0     C14629   5.320   9.018   6.764  0.3462 -1.0373 -0.3090
  869MOL0     C14630   5.503   9.122   6.327 -0.2039  0.3572 -0.7188
  869MOL0     C14631   5.546   9.073   6.206  0.9711  0.1319  0.6177
  869MOL0     C14632   5.646   9.131   6.133 -0.4936  0.6714 -0.0320
  869MOL0     C14633   5.694   9.263   6.167  0.5446 -0.3379 -0.0224
  869MOL0     O14634   5.761   9.360   6.082  0.3996  0.5236 -0.7359
  869MOL0     C14635   5.854   9.315   5.983  0.7709  0.4176  0.0941
  869MOL0     C14636   5.909   9.449   5.914  0.4514  0.1691 -0.0711
  869MOL0     C14637   5.808   9.494   5.818  0.1556  0.1099 -0.4547
  869MOL0     C14638   5.855   9.608   5.729  1.9819 -0.2522 -0.1598
  869MOL0     C14639   5.758   9.626   5.620  0.1832  0.6802  1.0593
  869MOL0     C14640   5.700   9.661   5.521  0.6091 -0.2714 -1.1671
  869MOL0     C14641   5.643   9.313   6.287 -0.5677  0.8112 -0.3792
  869MOL0     C14642   5.556   9.249   6.368  0.2506  0.4683  0.2838
  869MOL0     H14643   5.113   8.981   6.493 -3.3155  0.4245  1.3458
  869MOL0     H14644   4.974   8.904   6.651 -1.2764  4.0911 -0.2031
  869MOL0     H14645   4.840   8.867   6.791  2.4715  2.0138 -1.1018
  869MOL0     H14646   4.853   9.011   6.880 -0.5745  0.0274 -0.3423
  869MOL0     H14647   4.698   8.878   6.979  0.3303 -2.0898 -3.0328
  869MOL0     H14648   4.836   8.893   7.094 -2.0801 -0.2536 -0.5800
  869MOL0     H14649   4.907   8.652   7.006  0.7665  0.9919 -2.8879
  869MOL0     H14650   4.752   8.670   6.913 -1.0626  3.2331  0.0888
  869MOL0     H14651   4.791   8.685   7.209  5.0523 -2.1887 -2.6311
  869MOL0     H14652   4.627   8.686   7.130 -1.5290 -3.4230  0.0764
  869MOL0     H14653   4.813   8.442   7.126 -0.0307 -0.9415  3.2435
  869MOL0     H14654   4.636   8.456   7.077  0.8102  0.8910 -1.6757
  869MOL0     H14655   4.601   8.524   7.318  0.1131  0.8502 -1.7392
  869MOL0     H14656   4.758   8.434   7.352 -0.3473  1.4327  1.6720
  869MOL0     H14657   4.507   8.345   7.218 -0.8687 -0.0503  1.3787
  869MOL0     H14658   4.647   8.239   7.231 -1.4263  0.1932 -0.4179
  869MOL0     H14659   4.516   8.353   7.471 -0.0504  0.1153 -0.6612
  869MOL0     H14660   4.661   8.241   7.461  1.1942  2.4303  0.4545
  869MOL0     H14661   4.363   8.190   7.593 -0.3109 -0.9064  0.0601
  869MOL0     H14662   4.199   7.981   7.647 -1.8479 -0.7766 -0.8642
  869MOL0     H14663   4.257   7.834   7.563  1.0619 -0.7355 -4.4527
  869MOL0     H14664   4.084   7.880   7.382 -2.5075 -0.1338  1.6639
  869MOL0     H14665   4.052   8.041   7.457  0.5532  0.2572 -0.2421
  869MOL0     H14666   4.001   7.754   7.571 -0.9572 -0.0519 -1.4726
  869MOL0     H14667   3.983   7.892   7.671  0.4401 -2.6271  0.8708
  869MOL0     H14668   3.827   7.963   7.472  2.0825  1.2312  1.0188
  869MOL0     H14669   3.769   7.821   7.577  0.4372 -1.8117 -0.3150
  869MOL0     H14670   3.589   7.868   7.453  0.9281  1.8609 -0.1172
  869MOL0     H14671   3.392   7.774   7.396  0.4973  1.5918  0.4938
  869MOL0     H14672   3.169   7.305   7.421 -0.1368  0.6813 -0.0717
  869MOL0     H14673   2.947   7.221   7.404 -0.0677  0.2586  1.5550
  869MOL0     H14674   2.635   7.520   7.174 -1.0886  0.4590 -0.6314
  869MOL0     H14675   2.536   7.376   7.200 -0.0824  1.5072 -1.1003
  869MOL0     H14676   2.665   7.272   7.024  1.4195  1.0559 -1.1901
  869MOL0     H14677   2.779   7.401   7.012  0.4987 -0.0266 -2.8765
  869MOL0     H14678   2.651   7.416   6.826 -2.1488 -1.4318  0.0595
  869MOL0     H14679   2.636   7.560   6.911  0.9215 -0.4701 -1.4495
  869MOL0     H14680   2.462   7.315   6.908  0.4946  0.0816  0.7135
  869MOL0     H14681   2.416   7.448   7.006 -0.2870 -0.3454  0.1272
  869MOL0     H14682   2.451   7.456   6.691  1.4045 -0.3650  2.1795
  869MOL0     H14683   2.419   7.593   6.781 -2.1862  0.4943 -0.5882
  869MOL0     H14684   2.221   7.537   6.687 -0.5155 -2.1719 -1.1918
  869MOL0     H14685   2.200   7.492   6.863 -0.0263 -0.6407 -0.1406
  869MOL0     H14686   2.268   7.318   6.635 -0.5062  0.2556 -0.8988
  869MOL0     H14687   2.234   7.265   6.802 -0.4048  1.8415  2.6187
  869MOL0     H14688   2.000   7.361   6.797 -2.7010  4.4532 -2.4808
  869MOL0     H14689   2.017   7.234   6.668  0.3330  0.2784 -1.1648
  869MOL0     H14690   2.843   7.553   7.149 -0.5743  0.6971  0.1690
  869MOL0     H14691   3.071   7.643   7.179  3.0125  0.3829  1.2550
  869MOL0     H14692   3.606   7.495   7.128  1.5943 -1.4646  1.7779
  869MOL0     H14693   3.812   7.590   7.194  1.9505  1.6084  1.1769
  869MOL0     H14694   5.269   8.943   6.970 -1.4980  0.2925  1.1208
  869MOL0     H14695   5.424   9.031   6.792  0.4401 -2.0292 -0.1565
  869MOL0     H14696   5.499   8.981   6.174  1.5591  0.5718 -1.6694
  869MOL0     H14697   5.666   9.098   6.032 -0.1979  2.7107 -0.6807
  869MOL0     H14698   5.796   9.259   5.910 -2.0208  2.1463  0.8507
  869MOL0     H14699   5.940   9.255   6.014 -0.2416 -1.0717  0.1233
  869MOL0     H14700   5.915   9.531   5.986 -3.7844  1.8617 -1.3370
  869MOL0     H14701   6.004   9.423   5.866 -1.1004 -1.1598 -2.5921
  869MOL0     H14702   5.729   9.544   5.874  0.1598 -0.8139  0.4236
  869MOL0     H14703   5.772   9.411   5.756 -0.0643  0.9086 -1.4220
  869MOL0     H14704   5.865   9.699   5.787  1.3861 -0.0985 -0.2900
  869MOL0     H14705   5.953   9.565   5.705  2.2259 -0.5039  1.2297
  869MOL0     H14706   5.649   9.691   5.431  1.7816  3.2422 -0.7877
  869MOL0     H14707   5.679   9.411   6.315  0.1692  0.1047  1.3270
  869MOL0     H14708   5.528   9.291   6.464  0.5929 -0.4035  0.7793
  870MOL0     O14709   1.766   1.871   9.216 -0.2311  0.0467  0.2681
  870MOL0     C14710   1.724   1.766   9.171  0.2347  0.1471  0.1792
  870MOL0     O14711   1.795   1.667   9.112 -0.1847  0.0507  0.3392
  870MOL0     C14712   1.928   1.685   9.075  0.6323 -0.1564  0.1234
  870MOL0     C14713   2.035   1.627   9.139  0.1265  0.6384 -0.0771
  870MOL0     C14714   2.169   1.648   9.088  0.8654  0.1124  0.3879
  870MOL0     C14715   2.183   1.704   8.957  0.3520 -0.8405 -0.8498
  870MOL0     O14716   2.300   1.733   8.901 -0.2559 -0.0167  0.1161
  870MOL0     C14717   2.383   1.618   8.888  1.0139  0.0319 -0.2628
  870MOL0     C14718   2.487   1.668   8.787 -0.9142 -0.4667 -0.0786
  870MOL0     C14719   2.607   1.579   8.782  0.3014 -0.4399 -0.4069
  870MOL0     C14720   2.714   1.614   8.677  0.8023  0.0003  0.2156
  870MOL0     C14721   2.690   1.551   8.541 -0.4094  0.6149 -1.1785
  870MOL0     C14722   2.798   1.599   8.452  0.1596  0.2628  0.4781
  870MOL0     C14723   2.842   1.504   8.335 -0.0367  0.2933 -0.3729
  870MOL0     C14724   2.736   1.470   8.220 -0.4367  0.4371 -0.1935
  870MOL0     N14725   2.598   1.445   8.263  0.2398  0.0374 -0.0028
  870MOL0     C14726   2.556   1.336   8.332 -0.0916 -0.4204 -0.0857
  870MOL0     C14727   2.426   1.356   8.364  0.2716  1.2048  0.1355
  870MOL0     C14728   2.357   1.263   8.454  0.6637  0.2487  0.0610
  870MOL0     C14729   2.444   1.243   8.583  0.4191 -0.5276  0.9292
  870MOL0     C14730   2.368   1.146   8.681  1.0257  0.4588  0.0924
  870MOL0     C14731   2.239   1.212   8.732 -1.0060 -0.2230 -0.7982
  870MOL0     O14732   2.123   1.167   8.664  0.2167  0.4209 -0.0838
  870MOL0     C14733   2.002   1.222   8.698  0.6834 -0.3973 -0.4635
  870MOL0     C14734   1.986   1.321   8.799  0.8453  0.2309 -0.1137
  870MOL0     C14735   1.857   1.368   8.833 -0.6751 -0.9858 -1.0690
  870MOL0     C14736   1.748   1.328   8.765 -0.9774  0.0209 -0.0683
  870MOL0     C14737   1.608   1.371   8.783 -1.3259 -0.6281 -0.3357
  870MOL0     O14738   1.513   1.274   8.800 -0.6743 -0.2004 -0.0961
  870MOL0     C14739   1.388   1.313   8.769 -0.2253  0.5759 -1.2175
  870MOL0     C14740   1.289   1.272   8.862  0.4426  0.1845  0.0921
  870MOL0     C14741   1.148   1.297   8.828 -0.8122 -0.5455 -0.4910
  870MOL0     C14742   1.119   1.383   8.720 -0.1870  0.3911 -0.0329
  870MOL0     O14743   0.986   1.423   8.707  0.1323 -0.4595  0.0487
  870MOL0     C14744   0.958   1.568   8.699  0.1424  0.5490 -0.2434
  870MOL0     C14745   0.806   1.589   8.726 -0.4470  0.6044  0.0470
  870MOL0     C14746   0.732   1.483   8.812 -0.7452 -0.4002  0.8223
  870MOL0     C14747   0.585   1.526   8.818  0.0775  0.3830 -0.8034
  870MOL0     C14748   0.509   1.424   8.910 -0.1278  0.3957 -0.1443
  870MOL0     C14749   0.377   1.470   8.959 -0.1129  0.4231  0.2721
  870MOL0     C14750   0.324   1.362   9.045 -0.2020 -0.6831  0.1802
  870MOL0     C14751   0.203   1.414   9.126 -0.5477 -0.1735  0.0091
  870MOL0    Cl14752   0.069   1.428   9.015 -0.4692  0.4288  0.0165
  870MOL0     C14753   1.224   1.431   8.640  0.0741 -0.8000  0.2008
  870MOL0     C14754   1.359   1.400   8.662  0.7743 -0.7561  0.9389
  870MOL0     O14755   1.604   1.497   8.799 -0.4965  0.4089  0.2895
  870MOL0     C14756   1.765   1.231   8.662  0.5216  0.7527 -0.3195
  870MOL0     C14757   1.887   1.179   8.635 -0.2104  0.1005  1.1048
  870MOL0     N14758   2.384   1.472   8.305 -0.4282 -0.4985  0.5176
  870MOL0     N14759   2.484   1.532   8.246 -1.4509  0.5832 -0.2376
  870MOL0     C14760   2.071   1.746   8.890  0.2645 -0.7497 -0.1226
  870MOL0     C14761   1.949   1.749   8.951 -0.2295  0.0251  0.1012
  870MOL0     C14762   1.574   1.737   9.184 -0.1895 -0.2939 -0.4058
  870MOL0     C14763   1.490   1.823   9.251 -1.6314 -0.4632 -0.0716
  870MOL0     C14764   1.354   1.804   9.252  1.2835  0.4494 -0.0143
  870MOL0     C14765   1.295   1.690   9.189  0.0187  0.4435 -0.0626
  870MOL0     O14766   1.159   1.660   9.196 -0.2615  0.3200 -0.3232
  870MOL0     C14767   1.105   1.533   9.156 -0.9128  0.5115 -0.1653
  870MOL0     C14768   0.949   1.540   9.167  0.4408  0.3091  0.3642
  870MOL0     C14769   0.898   1.394   9.168  0.0989 -0.5857 -0.3373
  870MOL0     C14770   0.952   1.307   9.281  0.9971 -1.0505  0.4667
  870MOL0     C14771   0.852   1.212   9.337  0.4778  0.3389  0.3623
  870MOL0     C14772   0.791   1.126   9.398  0.4409  0.9756 -0.0272
  870MOL0     C14773   1.382   1.605   9.124  0.9098  0.7232 -0.0752
  870MOL0     C14774   1.517   1.626   9.124 -0.7449  0.3436 -0.2952
  870MOL0     H14775   2.013   1.576   9.233 -2.4183  0.3760 -0.7450
  870MOL0     H14776   2.254   1.623   9.150  1.6806 -1.1451 -1.1382
  870MOL0     H14777   2.327   1.528   8.861 -0.4453  0.0169  2.4982
  870MOL0     H14778   2.418   1.590   8.988 -1.4165 -1.7746  0.1756
  870MOL0     H14779   2.525   1.767   8.813  3.7306 -2.3724  1.4979
  870MOL0     H14780   2.446   1.676   8.686 -0.3386  0.2619 -0.2582
  870MOL0     H14781   2.563   1.482   8.759 -3.0436  0.8960 -0.1510
  870MOL0     H14782   2.663   1.578   8.876 -1.3020  0.8699  0.6077
  870MOL0     H14783   2.739   1.720   8.673 -0.8547  0.4226  0.4834
  870MOL0     H14784   2.804   1.571   8.723 -0.0827  0.1726  2.2151
  870MOL0     H14785   2.593   1.584   8.504  0.0547  5.3099  1.0767
  870MOL0     H14786   2.682   1.442   8.550 -1.4111  0.5522 -2.5273
  870MOL0     H14787   2.888   1.617   8.511 -0.1462 -3.8611  2.5376
  870MOL0     H14788   2.762   1.697   8.418 -1.5847  0.0467  1.6007
  870MOL0     H14789   2.927   1.558   8.292  0.2493 -0.1052 -0.3073
  870MOL0     H14790   2.886   1.411   8.370  0.9864  0.2939 -1.5919
  870MOL0     H14791   2.784   1.385   8.170 -0.7788 -0.6801  1.3263
  870MOL0     H14792   2.742   1.549   8.144  1.8245  0.1550 -0.3598
  870MOL0     H14793   2.615   1.246   8.345 -0.6138 -1.1698 -2.4457
  870MOL0     H14794   2.341   1.169   8.401  0.6871  1.3444 -1.9887
  870MOL0     H14795   2.261   1.313   8.467  0.2605 -0.2362 -0.9431
  870MOL0     H14796   2.473   1.339   8.628 -1.0117 -0.7447  2.4400
  870MOL0     H14797   2.538   1.194   8.558 -0.0949 -0.6175 -0.9950
  870MOL0     H14798   2.340   1.056   8.626 -0.2950  1.9740 -1.8466
  870MOL0     H14799   2.438   1.122   8.761 -1.8363 -1.8588  2.0940
  870MOL0     H14800   2.230   1.321   8.729 -3.0426 -0.2830  0.8821
  870MOL0     H14801   2.233   1.180   8.837  1.0186 -0.7495 -0.7849
  870MOL0     H14802   2.066   1.369   8.854  1.6499  0.3514 -1.3387
  870MOL0     H14803   1.837   1.435   8.915  0.4447  0.1693 -1.7035
  870MOL0     H14804   1.318   1.228   8.957  1.0775 -1.7937 -0.9465
  870MOL0     H14805   1.064   1.273   8.892  0.7924 -1.8184  1.2381
  870MOL0     H14806   0.992   1.614   8.606 -1.4819  2.0298 -0.1701
  870MOL0     H14807   1.006   1.628   8.778  2.1380  1.2992 -1.9455
  870MOL0     H14808   0.753   1.600   8.631  5.0993 -0.6118 -3.6416
  870MOL0     H14809   0.799   1.679   8.788 -0.3134  0.5842  0.0898
  870MOL0     H14810   0.781   1.487   8.910 -0.8666 -0.2318  0.8774
  870MOL0     H14811   0.739   1.381   8.774  0.7070 -0.2517  0.6622
  870MOL0     H14812   0.576   1.621   8.872  1.8590 -3.5207  8.1712
  870MOL0     H14813   0.534   1.530   8.722 -2.2196 -1.1679  0.2454
  870MOL0     H14814   0.584   1.403   8.987  2.0273  1.3663 -1.8591
  870MOL0     H14815   0.504   1.326   8.862  1.3418 -0.4373  1.3046
  870MOL0     H14816   0.314   1.494   8.873  0.6789  2.4089  0.1733
  870MOL0     H14817   0.381   1.569   9.007 -1.8380  0.6603 -0.0090
  870MOL0     H14818   0.309   1.268   8.991 -0.2194 -2.1680  2.6289
  870MOL0     H14819   0.396   1.345   9.125 -0.0128 -0.7189  0.0024
  870MOL0     H14820   0.238   1.501   9.182  1.9830 -0.5478 -0.8577
  870MOL0     H14821   0.190   1.342   9.207  2.4822  0.9436  1.6713
  870MOL0     H14822   1.201   1.505   8.564  1.9408  1.4270  1.6991
  870MOL0     H14823   1.425   1.441   8.587 -1.9994  0.9402 -0.7729
  870MOL0     H14824   1.679   1.201   8.603 -0.4847  1.2218  0.8517
  870MOL0     H14825   1.898   1.100   8.563 -3.3486 -0.2602  0.8608
  870MOL0     H14826   2.090   1.788   8.792  0.1442  1.1537  0.6238
  870MOL0     H14827   1.865   1.792   8.897  2.4447  1.5482 -3.2917
  870MOL0     H14828   1.541   1.906   9.298  0.4713 -0.5705 -1.9456
  870MOL0     H14829   1.301   1.881   9.307  2.6631  2.0876 -0.8821
  870MOL0     H14830   1.136   1.456   9.226  1.0871  0.6500 -0.8349
  870MOL0     H14831   1.124   1.502   9.052  1.6726  1.0704  0.0700
  870MOL0     H14832   0.921   1.589   9.261 -0.0555 -1.8635  1.4030
  870MOL0     H14833   0.895   1.585   9.084  1.9872 -1.4026 -1.6743
  870MOL0     H14834   0.924   1.343   9.075  1.1651  1.6306 -1.3508
  870MOL0     H14835   0.789   1.394   9.170  0.0468 -3.0837  1.1745
  870MOL0     H14836   1.044   1.255   9.251  1.5801  0.2276 -0.0443
  870MOL0     H14837   0.987   1.365   9.366 -0.5458 -1.1352  1.1804
  870MOL0     H14838   0.757   1.043   9.457  0.5165 -0.0530 -1.3921
  870MOL0     H14839   1.354   1.516   9.068 -0.3894  1.2242 -0.2512
  870MOL0     H14840   1.578   1.551   9.074  1.7508  1.1061  1.4221
  871MOL0     O14841   4.942   2.745   4.064  0.1094 -0.1060 -0.2437
  871MOL0     C14842   4.891   2.797   4.166  0.0931  0.3833 -0.2985
  871MOL0     O14843   4.958   2.817   4.281  0.1203 -0.2826 -0.1952
  871MOL0     C14844   5.099   2.796   4.274 -0.0335  0.0646  0.1735
  871MOL0     C14845   5.158   2.687   4.338  0.6316 -1.0481  0.5100
  871MOL0     C14846   5.298   2.659   4.332 -0.4288 -0.0804 -0.3015
  871MOL0     C14847   5.382   2.749   4.249  0.9462 -0.1894 -0.4986
  871MOL0     O14848   5.523   2.749   4.235 -0.0146  0.3144 -0.5450
  871MOL0     C14849   5.601   2.643   4.297  0.4498  0.2149 -0.4658
  871MOL0     C14850   5.745   2.680   4.265  0.4703  0.5880 -0.4057
  871MOL0     C14851   5.852   2.602   4.345  0.3089  0.6176 -0.1089
  871MOL0     C14852   5.992   2.615   4.282  0.5144  1.1137  0.5937
  871MOL0     C14853   6.091   2.719   4.329  0.3235 -0.4794 -1.0390
  871MOL0     C14854   6.213   2.725   4.237 -0.1675  0.5829 -0.3040
  871MOL0     C14855   6.330   2.815   4.290 -0.5619  0.6549  0.0505
  871MOL0     C14856   6.470   2.761   4.256 -0.3639 -0.4049 -0.7194
  871MOL0     N14857   6.505   2.806   4.118  0.1631 -0.2347 -0.4931
  871MOL0     C14858   6.450   2.751   4.008  0.0963 -0.0344  0.0974
  871MOL0     C14859   6.506   2.811   3.907  0.4917 -0.6085  0.6842
  871MOL0     C14860   6.476   2.783   3.758 -0.0379 -0.9687  0.6638
  871MOL0     C14861   6.332   2.819   3.709 -0.6019  0.0263  0.5269
  871MOL0     C14862   6.302   2.972   3.721 -0.1299 -0.0105  0.7486
  871MOL0     C14863   6.159   3.007   3.672 -0.1337  0.4484  0.4381
  871MOL0     O14864   6.071   2.974   3.778  0.7650  0.4713  0.5050
  871MOL0     C14865   5.933   2.999   3.764 -1.4380  0.9320  0.3436
  871MOL0     C14866   5.883   3.094   3.677  0.7213 -0.0691  0.1489
  871MOL0     C14867   5.746   3.107   3.664 -1.3572 -0.2364 -0.7247
  871MOL0     C14868   5.652   3.029   3.734  0.4180  0.3320 -0.4787
  871MOL0     C14869   5.512   3.072   3.740  0.6805 -0.5194 -0.5814
  871MOL0     O14870   5.437   3.044   3.845 -0.4542  0.5897 -0.8614
  871MOL0     C14871   5.298   3.072   3.847  0.1948  0.0710 -0.4343
  871MOL0     C14872   5.259   3.203   3.881  0.6344 -0.8036 -0.4449
  871MOL0     C14873   5.122   3.233   3.881  0.3707  0.5836 -0.6994
  871MOL0     C14874   5.028   3.116   3.871 -1.6645 -0.5463 -0.2011
  871MOL0     O14875   4.902   3.154   3.872  0.3293  0.4484 -0.8628
  871MOL0     C14876   4.804   3.085   3.957 -0.8501  0.0962  0.4828
  871MOL0     C14877   4.671   3.168   3.966 -0.1019  0.1960 -0.4698
  871MOL0     C14878   4.630   3.217   3.824 -0.9021 -0.0842 -0.0370
  871MOL0     C14879   4.496   3.294   3.832  0.5112 -0.0081  0.7274
  871MOL0     C14880   4.438   3.335   3.695 -0.8203 -0.8303  0.0774
  871MOL0     C14881   4.296   3.398   3.713 -0.4940 -0.6177  0.1961
  871MOL0     C14882   4.225   3.417   3.576  0.4942  0.1546 -0.2688
  871MOL0     C14883   4.158   3.292   3.515 -0.7204  0.2341 -0.9943
  871MOL0    Cl14884   4.020   3.248   3.616  0.0675 -0.2353 -0.2711
  871MOL0     C14885   5.077   2.982   3.852  0.2951 -0.3514  0.1439
  871MOL0     C14886   5.210   2.970   3.831 -0.3828  0.8285  0.2469
  871MOL0     O14887   5.470   3.126   3.640  0.2343 -0.4575 -0.0060
  871MOL0     C14888   5.701   2.937   3.826 -0.4645 -0.6771 -0.2680
  871MOL0     C14889   5.843   2.918   3.836  0.1411  0.3258  0.1849
  871MOL0     N14890   6.592   2.914   3.954 -0.0255  0.1575 -0.3216
  871MOL0     N14891   6.584   2.908   4.081 -0.0309  0.1696  0.3861
  871MOL0     C14892   5.319   2.862   4.188  0.2386 -0.2048 -0.6173
  871MOL0     C14893   5.184   2.887   4.208  0.0513 -0.4555  0.0638
  871MOL0     C14894   4.745   2.806   4.170  0.4514 -0.1680  0.1491
  871MOL0     C14895   4.677   2.881   4.262 -0.4583 -0.3424 -0.0856
  871MOL0     C14896   4.537   2.902   4.262  0.0573 -0.0215 -0.1437
  871MOL0     C14897   4.457   2.831   4.172 -0.9735  0.9188 -0.6123
  871MOL0     O14898   4.317   2.841   4.173 -0.4556  0.6287  0.4027
  871MOL0     C14899   4.258   2.970   4.208 -0.2820 -0.9840  0.9738
  871MOL0     C14900   4.112   2.969   4.171 -0.7816 -0.0521 -0.1168
  871MOL0     C14901   4.062   3.082   4.072  0.0573  0.3491  0.4968
  871MOL0     C14902   3.914   3.105   4.092  0.1113  0.1351  0.3684
  871MOL0     C14903   3.865   3.151   3.962  0.1172  0.1946 -0.4116
  871MOL0     C14904   3.817   3.178   3.861  0.3072  0.3684  0.5252
  871MOL0     C14905   4.524   2.733   4.084  0.1707  0.2000 -0.7753
  871MOL0     C14906   4.664   2.725   4.088  0.4462  0.1876  0.9457
  871MOL0     H14907   5.091   2.618   4.390  1.2509 -2.8932 -1.0423
  871MOL0     H14908   5.349   2.587   4.395 -1.5645  1.2500  2.2768
  871MOL0     H14909   5.577   2.546   4.253 -0.4564  1.1989 -2.2544
  871MOL0     H14910   5.595   2.650   4.406  1.9277  1.8769 -0.4392
  871MOL0     H14911   5.765   2.787   4.275 -3.8443  1.5300 -0.1118
  871MOL0     H14912   5.742   2.638   4.164  1.3582  1.1751 -0.6813
  871MOL0     H14913   5.832   2.495   4.354  1.2292  0.4796  0.4115
  871MOL0     H14914   5.848   2.640   4.448  2.1997  1.6869 -0.3921
  871MOL0     H14915   6.029   2.513   4.296 -0.4054 -0.1763 -4.3899
  871MOL0     H14916   5.981   2.630   4.174  2.2988  0.0736  0.2169
  871MOL0     H14917   6.119   2.694   4.432 -0.8965 -0.2367 -0.6195
  871MOL0     H14918   6.043   2.818   4.331  2.4570  0.6145  0.6251
  871MOL0     H14919   6.183   2.764   4.139 -1.6946  0.4373  0.0911
  871MOL0     H14920   6.243   2.621   4.223  1.7837  0.9982  0.4231
  871MOL0     H14921   6.327   2.922   4.271  1.7451  0.5925 -0.9680
  871MOL0     H14922   6.323   2.806   4.399 -0.8125  3.1909  0.2997
  871MOL0     H14923   6.465   2.652   4.250 -0.2762 -0.3603 -1.8976
  871MOL0     H14924   6.548   2.794   4.325 -1.6259 -0.0985  0.5798
  871MOL0     H14925   6.372   2.676   4.003 -1.1977  1.2983 -0.5326
  871MOL0     H14926   6.493   2.675   3.750 -0.4404 -1.0496  0.8715
  871MOL0     H14927   6.548   2.828   3.689  0.8344 -2.3575  0.6244
  871MOL0     H14928   6.265   2.776   3.784 -1.3297  0.7319  0.2900
  871MOL0     H14929   6.299   2.768   3.617  0.8988 -3.1638  1.6004
  871MOL0     H14930   6.316   3.000   3.826 -1.9949 -0.6594  1.2121
  871MOL0     H14931   6.377   3.028   3.665 -2.8589  1.3944 -1.7500
  871MOL0     H14932   6.138   2.952   3.579 -1.2506  1.5558  0.0011
  871MOL0     H14933   6.155   3.115   3.656 -3.3085  0.6101  1.4806
  871MOL0     H14934   5.962   3.147   3.625  0.7364 -1.5475 -1.4185
  871MOL0     H14935   5.713   3.188   3.599  2.1460  2.9882  1.1278
  871MOL0     H14936   5.334   3.278   3.905  1.2399 -2.4023  3.3812
  871MOL0     H14937   5.077   3.331   3.891 -0.5168 -0.0142  2.0953
  871MOL0     H14938   4.836   3.071   4.060  1.5456 -1.3919 -0.3526
  871MOL0     H14939   4.776   2.987   3.916 -2.3709  1.5215 -2.1426
  871MOL0     H14940   4.681   3.252   4.036 -3.9497  0.9519 -0.5788
  871MOL0     H14941   4.602   3.099   4.016 -0.4359  1.2452  0.5799
  871MOL0     H14942   4.605   3.128   3.766 -2.0834  1.5186 -2.1176
  871MOL0     H14943   4.705   3.281   3.777 -0.5233  0.8464  1.7523
  871MOL0     H14944   4.420   3.230   3.878  1.9254  0.3371  3.7371
  871MOL0     H14945   4.509   3.373   3.906  2.9998 -1.0324  1.4954
  871MOL0     H14946   4.436   3.256   3.619  0.5218  0.5621 -1.4922
  871MOL0     H14947   4.493   3.421   3.655 -0.7729 -0.3331  1.1684
  871MOL0     H14948   4.304   3.494   3.765 -1.1022 -0.1294 -0.5908
  871MOL0     H14949   4.236   3.339   3.782 -0.6335  0.1776  0.7743
  871MOL0     H14950   4.146   3.492   3.590  0.5820  0.5216 -1.6143
  871MOL0     H14951   4.294   3.448   3.497  0.9687 -2.6726 -1.0726
  871MOL0     H14952   4.229   3.209   3.516 -0.2884  0.5363  1.8706
  871MOL0     H14953   4.136   3.306   3.409  3.0845 -0.7819 -2.0847
  871MOL0     H14954   5.009   2.898   3.852  1.5246 -1.3766  0.1920
  871MOL0     H14955   5.249   2.872   3.807 -1.1144  0.5799  0.0644
  871MOL0     H14956   5.633   2.884   3.892 -0.2570 -2.1260 -1.1717
  871MOL0     H14957   5.888   2.849   3.907 -0.1621 -1.8957 -1.6555
  871MOL0     H14958   5.389   2.923   4.131  0.4254 -0.0557 -0.2345
  871MOL0     H14959   5.142   2.973   4.158  0.6929  0.5203  1.1598
  871MOL0     H14960   4.729   2.950   4.329  1.6778  0.2406 -2.1793
  871MOL0     H14961   4.491   2.965   4.338  0.0080  0.5342 -0.6262
  871MOL0     H14962   4.302   3.055   4.156 -0.1257 -1.4028  0.4135
  871MOL0     H14963   4.269   2.980   4.316  1.9166 -4.5628  1.2585
  871MOL0     H14964   4.089   2.876   4.119  1.3285 -0.5396 -0.2703
  871MOL0     H14965   4.058   2.975   4.267  1.4995  1.4565  1.1629
  871MOL0     H14966   4.085   3.040   3.973  1.3357 -1.1884  1.3988
  871MOL0     H14967   4.113   3.177   4.093  2.1653 -1.3534  4.0103
  871MOL0     H14968   3.857   3.015   4.118  2.3567 -1.3732  0.3255
  871MOL0     H14969   3.894   3.173   4.175 -0.0905 -1.4346  1.6594
  871MOL0     H14970   3.770   3.190   3.765 -0.9904  1.9159  1.3080
  871MOL0     H14971   4.473   2.667   4.014  4.5015 -2.2138 -1.9916
  871MOL0     H14972   4.712   2.655   4.021 -3.7629  0.5257 -2.9090
  872MOL0     O14973   0.787   0.845   4.481  0.0623  0.1217 -0.8262
  872MOL0     C14974   0.681   0.792   4.451  0.1857  1.7909  0.2230
  872MOL0     O14975   0.665   0.665   4.389 -0.1222 -0.4303 -0.1765
  872MOL0     C14976   0.773   0.605   4.336 -0.5812 -0.2737  0.1349
  872MOL0     C14977   0.782   0.578   4.199 -0.1643  0.0424 -0.3545
  872MOL0     C14978   0.891   0.508   4.144  0.5847 -0.0481  0.5307
  872MOL0     C14979   0.990   0.466   4.224 -0.0431  0.0768  0.8976
  872MOL0     O14980   1.111   0.406   4.187  0.4801 -0.5902  0.0874
  872MOL0     C14981   1.146   0.409   4.043 -0.1675  0.2310 -0.8558
  872MOL0     C14982   1.299   0.392   4.018  1.3044  0.5051 -0.8419
  872MOL0     C14983   1.346   0.381   3.869 -0.4827 -0.7137  0.9035
  872MOL0     C14984   1.490   0.405   3.867  0.4678 -0.3139  0.6478
  872MOL0     C14985   1.560   0.343   3.749 -0.1741 -0.4225 -0.5729
  872MOL0     C14986   1.510   0.378   3.608 -0.2633  0.0661  0.1147
  872MOL0     C14987   1.509   0.528   3.584 -0.4467 -0.9156 -0.6116
  872MOL0     C14988   1.435   0.577   3.452  0.3032 -0.0469 -0.4005
  872MOL0     N14989   1.286   0.556   3.448  0.0828 -0.9087  0.5183
  872MOL0     C14990   1.217   0.432   3.458 -0.6035  0.0326 -0.2310
  872MOL0     C14991   1.092   0.464   3.453  0.0231 -0.8732 -0.4439
  872MOL0     C14992   0.972   0.377   3.470  0.6367 -0.3719  0.7192
  872MOL0     C14993   0.932   0.368   3.619  0.0411 -0.1298 -0.2356
  872MOL0     C14994   0.781   0.363   3.654 -0.2398  0.2691  0.0641
  872MOL0     C14995   0.759   0.341   3.805  0.6633 -1.1230 -0.1931
  872MOL0     O14996   0.651   0.414   3.861  0.4845  1.0375  0.3788
  872MOL0     C14997   0.525   0.382   3.827 -0.5349 -0.1763  0.8668
  872MOL0     C14998   0.480   0.253   3.801 -0.3804 -0.6226  0.7435
  872MOL0     C14999   0.356   0.234   3.736  0.1621  0.1398  0.0523
  872MOL0     C15000   0.265   0.344   3.723 -0.7565 -0.2790  0.7425
  872MOL0     C15001   0.123   0.333   3.684 -0.0314  0.3429  0.0976
  872MOL0     O15002   0.053   0.445   3.661 -0.5630 -0.2753  0.0753
  872MOL0     C15003  -0.081   0.426   3.643  0.2671  0.4109  0.3517
  872MOL0     C15004  -0.176   0.360   3.734 -0.8904  0.3386 -0.0128
  872MOL0     C15005  -0.305   0.335   3.710  0.2662 -0.5145 -0.0362
  872MOL0     C15006  -0.354   0.368   3.580  1.2184 -0.6973  0.5629
  872MOL0     O15007  -0.475   0.330   3.524  0.0223  0.5591  0.1404
  872MOL0     C15008  -0.590   0.311   3.615 -0.3320  0.3976 -0.0640
  872MOL0     C15009  -0.721   0.255   3.539  0.0187 -0.0597  0.1660
  872MOL0     C15010  -0.695   0.128   3.468  0.6500 -0.0837 -0.0011
  872MOL0     C15011  -0.805   0.104   3.362  0.3103  0.3745  0.3687
  872MOL0     C15012  -0.820  -0.039   3.318 -0.9674 -0.0933 -0.3008
  872MOL0     C15013  -0.869  -0.138   3.425  0.7823  0.5088  0.1039
  872MOL0     C15014  -0.808  -0.276   3.409  0.1627 -0.0774 -0.5166
  872MOL0     C15015  -0.847  -0.375   3.525  0.0047 -0.3942  0.0260
  872MOL0    Cl15016  -0.810  -0.551   3.493 -0.3553  0.3082 -0.6680
  872MOL0     C15017  -0.269   0.432   3.492 -0.5647  0.3167 -0.1252
  872MOL0     C15018  -0.142   0.473   3.522 -0.3076 -0.3780  0.6692
  872MOL0     O15019   0.081   0.217   3.664 -0.2720 -0.5710  0.2873
  872MOL0     C15020   0.313   0.472   3.752  0.5750 -0.2435 -1.6517
  872MOL0     C15021   0.440   0.488   3.808 -0.3389  0.5149 -0.8662
  872MOL0     N15022   1.077   0.605   3.457 -0.1651 -0.7512 -0.1204
  872MOL0     N15023   1.199   0.657   3.454 -0.2532 -0.2010  0.4877
  872MOL0     C15024   0.982   0.474   4.358  0.1686 -0.0173 -0.0522
  872MOL0     C15025   0.873   0.549   4.418  0.3013 -0.0925 -0.7557
  872MOL0     C15026   0.569   0.879   4.459 -0.3063 -0.3276  0.6535
  872MOL0     C15027   0.590   1.020   4.454 -0.0293 -0.6210 -0.0958
  872MOL0     C15028   0.489   1.115   4.453  0.1714 -0.2898 -0.7028
  872MOL0     C15029   0.354   1.070   4.447 -0.5901  0.7231  0.5874
  872MOL0     O15030   0.267   1.171   4.421  0.3555  0.9678  0.2611
  872MOL0     C15031   0.124   1.145   4.419  0.5757  0.1236 -0.9891
  872MOL0     C15032   0.087   1.103   4.282  0.3903 -0.3930  0.5487
  872MOL0     C15033   0.128   1.195   4.168  0.1874 -0.0936 -0.5017
  872MOL0     C15034   0.042   1.151   4.046  0.4996  1.1290 -0.9365
  872MOL0     C15035   0.023   1.001   4.026  0.6732 -0.3293  0.8416
  872MOL0     C15036   0.007   0.878   4.035  0.6214 -0.2837 -0.2852
  872MOL0     C15037   0.330   0.926   4.458 -0.0747  0.2074  0.3043
  872MOL0     C15038   0.435   0.834   4.471 -1.2674  0.0131 -0.7612
  872MOL0     H15039   0.709   0.624   4.134 -0.2507 -0.8487 -0.9180
  872MOL0     H15040   0.882   0.478   4.040 -4.0283  0.2812  0.6260
  872MOL0     H15041   1.112   0.500   3.991  3.6697  1.3087 -1.8381
  872MOL0     H15042   1.096   0.330   3.987 -2.0878  0.1308  0.8907
  872MOL0     H15043   1.336   0.303   4.071  0.4770  0.2565 -0.6674
  872MOL0     H15044   1.342   0.482   4.062 -2.0727  2.3865 -1.0546
  872MOL0     H15045   1.293   0.460   3.815  2.7011  1.3432  0.5086
  872MOL0     H15046   1.319   0.291   3.812  0.3195 -0.6227  0.3668
  872MOL0     H15047   1.529   0.504   3.895  0.6738 -0.0634 -0.4917
  872MOL0     H15048   1.524   0.346   3.953  0.6383  1.8263  2.1403
  872MOL0     H15049   1.556   0.235   3.765  1.8498 -0.3646  0.6982
  872MOL0     H15050   1.667   0.363   3.757 -0.3820  0.1531  1.1927
  872MOL0     H15051   1.404   0.352   3.594 -0.1495  0.3080 -1.3336
  872MOL0     H15052   1.569   0.327   3.532  1.2252  1.2030  0.4549
  872MOL0     H15053   1.457   0.581   3.665 -1.8359 -2.1522 -0.6695
  872MOL0     H15054   1.612   0.563   3.572 -1.1070  0.5740 -2.3600
  872MOL0     H15055   1.490   0.533   3.368  4.4891  0.4338  1.7888
  872MOL0     H15056   1.450   0.686   3.448  0.6783  0.1637  3.2393
  872MOL0     H15057   1.259   0.334   3.476 -0.1110 -0.2412 -2.5908
  872MOL0     H15058   1.004   0.279   3.434 -0.1082 -0.0712 -0.8223
  872MOL0     H15059   0.899   0.429   3.408  0.4658  0.9989  2.0057
  872MOL0     H15060   0.978   0.455   3.666  1.0768 -0.5952 -0.3645
  872MOL0     H15061   0.983   0.281   3.663  0.2147  1.0991  2.2023
  872MOL0     H15062   0.747   0.462   3.619 -2.5740 -0.5058 -0.0503
  872MOL0     H15063   0.721   0.296   3.592  0.9530 -0.4574 -0.3360
  872MOL0     H15064   0.836   0.399   3.856 -1.6765 -0.8983  3.4592
  872MOL0     H15065   0.755   0.239   3.845 -0.7155  0.2353  3.5842
  872MOL0     H15066   0.537   0.160   3.808  0.0553 -0.6908 -2.4344
  872MOL0     H15067   0.321   0.134   3.714 -1.4605  0.9569 -1.3326
  872MOL0     H15068  -0.147   0.323   3.832 -0.8238  2.1410  0.6750
  872MOL0     H15069  -0.357   0.278   3.786 -0.2044 -0.7939 -0.5530
  872MOL0     H15070  -0.623   0.402   3.665 -2.1073 -0.8435  1.1592
  872MOL0     H15071  -0.572   0.228   3.684 -1.5230 -0.3678 -0.6351
  872MOL0     H15072  -0.760   0.335   3.475  2.4058 -0.9662 -2.6348
  872MOL0     H15073  -0.798   0.240   3.615  0.1589  3.1040  1.0922
  872MOL0     H15074  -0.688   0.043   3.536  1.0446 -1.7866 -2.0835
  872MOL0     H15075  -0.602   0.145   3.414  0.1331  1.7774 -0.3674
  872MOL0     H15076  -0.905   0.130   3.399  0.7825  1.9501  0.5952
  872MOL0     H15077  -0.799   0.176   3.280 -1.5575 -0.4167 -0.5240
  872MOL0     H15078  -0.717  -0.072   3.301 -0.0047  1.7331  1.6035
  872MOL0     H15079  -0.885  -0.053   3.231  0.2546 -0.3908 -1.1907
  872MOL0     H15080  -0.977  -0.126   3.431  0.6720  0.8277 -1.7374
  872MOL0     H15081  -0.842  -0.102   3.525  1.7967 -0.2970  0.1391
  872MOL0     H15082  -0.846  -0.336   3.325  0.3713 -1.8254  0.5909
  872MOL0     H15083  -0.699  -0.283   3.404  0.1216 -1.7671  0.4472
  872MOL0     H15084  -0.954  -0.375   3.545 -0.2349  1.5525 -0.9989
  872MOL0     H15085  -0.795  -0.336   3.613  1.4156 -1.6088 -0.2365
  872MOL0     H15086  -0.316   0.446   3.395 -0.2340 -1.4540 -0.5641
  872MOL0     H15087  -0.077   0.521   3.450  1.1835 -0.1098  2.1257
  872MOL0     H15088   0.250   0.559   3.741 -0.4193 -0.5533  0.8770
  872MOL0     H15089   0.480   0.585   3.835  2.2892 -0.1924 -1.9070
  872MOL0     H15090   1.054   0.417   4.415  2.2306 -0.4454 -2.9213
  872MOL0     H15091   0.866   0.575   4.523 -3.2600 -0.0891 -0.8867
  872MOL0     H15092   0.691   1.057   4.440 -0.0218 -0.9037 -0.8360
  872MOL0     H15093   0.519   1.218   4.440  2.0325 -0.9521 -2.1809
  872MOL0     H15094   0.055   1.229   4.436 -0.1444 -1.1878  5.0128
  872MOL0     H15095   0.088   1.066   4.486  0.8695  0.6992 -0.1247
  872MOL0     H15096   0.133   1.006   4.262 -1.1467 -0.7893 -1.3830
  872MOL0     H15097  -0.022   1.097   4.279  0.4451 -1.2734 -0.5604
  872MOL0     H15098   0.234   1.184   4.141  0.5927 -2.4361  1.6763
  872MOL0     H15099   0.100   1.297   4.196 -1.2047  0.4339 -3.4117
  872MOL0     H15100  -0.060   1.184   4.070  0.8866  0.5635  1.8020
  872MOL0     H15101   0.072   1.204   3.955  2.9622  0.9807 -0.2699
  872MOL0     H15102  -0.006   0.774   4.056 -0.3197  0.1346  1.4271
  872MOL0     H15103   0.230   0.885   4.453  0.3293 -0.9466  1.1172
  872MOL0     H15104   0.424   0.726   4.479 -2.5503  0.2466  1.2735
  873MOL0     O15105  10.560  10.211   4.610  0.5864  0.2940  0.6915
  873MOL0     C15106  10.555  10.092   4.632  0.0044  0.2948  0.5179
  873MOL0     O15107  10.444  10.027   4.673  0.2590  0.0537  0.3013
  873MOL0     C15108  10.317  10.081   4.647  1.4593  0.7516  0.5313
  873MOL0     C15109  10.264  10.198   4.706 -0.6013 -0.1440  0.1764
  873MOL0     C15110  10.132  10.243   4.679 -0.6286 -0.2578  0.2825
  873MOL0     C15111  10.041  10.182   4.588 -0.0086  0.1338 -0.1522
  873MOL0     O15112   9.933  10.239   4.531 -0.7560  0.1865  0.5229
  873MOL0     C15113   9.938  10.367   4.471  0.4054 -0.5628 -0.6126
  873MOL0     C15114   9.782  10.397   4.452 -0.6766  0.9488  0.1946
  873MOL0     C15115   9.693  10.405   4.581 -0.5864  0.4032  0.6283
  873MOL0     C15116   9.546  10.417   4.542 -0.1102 -0.4313 -0.1355
  873MOL0     C15117   9.455  10.484   4.640  0.2769  0.3173  0.2337
  873MOL0     C15118   9.460  10.414   4.776  0.6430 -0.0827  1.4413
  873MOL0     C15119   9.340  10.329   4.778  0.9581  0.2629 -1.2315
  873MOL0     C15120   9.345  10.257   4.912  0.0544  0.1372  0.2145
  873MOL0     N15121   9.241  10.159   4.904 -0.7269  0.6205 -0.4055
  873MOL0     C15122   9.123  10.186   4.963  0.5612 -0.3062 -0.0013
  873MOL0     C15123   9.047  10.092   4.915 -0.1093  0.5846 -0.1633
  873MOL0     C15124   8.905  10.059   4.927  0.2112  0.5525  0.0299
  873MOL0     C15125   8.849  10.063   5.073  0.0681  0.2363  0.0728
  873MOL0     C15126   8.790   9.929   5.121  0.2663  0.5757  0.3280
  873MOL0     C15127   8.772   9.924   5.273  0.1831 -1.3298  0.3564
  873MOL0     O15128   8.654   9.983   5.316  0.6913 -0.6766  0.5637
  873MOL0     C15129   8.600   9.969   5.445  0.1322 -0.7348  0.1266
  873MOL0     C15130   8.685   9.913   5.544 -0.2928  0.2332 -0.7869
  873MOL0     C15131   8.640   9.901   5.673 -0.7976 -0.1286 -0.0586
  873MOL0     C15132   8.511   9.941   5.709  0.6438 -1.0692 -0.0727
  873MOL0     C15133   8.458   9.918   5.845  0.4024  0.1107 -0.2606
  873MOL0     O15134   8.325   9.939   5.870  0.3656 -0.0603 -0.2893
  873MOL0     C15135   8.283   9.923   5.998 -0.1501  0.3396 -1.6388
  873MOL0     C15136   8.264  10.023   6.098 -0.2958  0.0773  0.6034
  873MOL0     C15137   8.227   9.991   6.229 -0.2053  1.1928 -0.1137
  873MOL0     C15138   8.197   9.861   6.266 -0.1036 -0.7687 -0.0934
  873MOL0     O15139   8.133   9.844   6.389 -0.1740  0.0402  0.5058
  873MOL0     C15140   8.190   9.737   6.459 -0.2851  0.6140  0.2776
  873MOL0     C15141   8.168   9.771   6.606  0.4672 -0.4491 -1.2344
  873MOL0     C15142   8.016   9.779   6.638  0.3013 -0.5912  0.3512
  873MOL0     C15143   8.012   9.785   6.786  0.0557  0.3442 -0.3264
  873MOL0     C15144   7.868   9.785   6.830 -0.1467  0.0828 -0.8365
  873MOL0     C15145   7.786   9.918   6.786  0.0507 -0.0338 -0.0254
  873MOL0     C15146   7.643   9.914   6.852 -0.7102  0.6911 -0.8252
  873MOL0     C15147   7.657   9.955   6.999 -0.2790  0.4484  0.3223
  873MOL0    Cl15148   7.548   9.853   7.112  0.0428 -0.1884 -0.4475
  873MOL0     C15149   8.213   9.760   6.170  0.0618 -0.6400  0.6012
  873MOL0     C15150   8.266   9.792   6.048 -0.5408  0.0934  0.1953
  873MOL0     O15151   8.539   9.866   5.923 -0.0492 -0.1566 -0.5436
  873MOL0     C15152   8.426  10.003   5.611 -0.0053  0.0725 -1.2823
  873MOL0     C15153   8.472  10.013   5.481 -0.1373  0.5706  0.4889
  873MOL0     N15154   9.120  10.008   4.835  0.2821 -0.4610 -0.0837
  873MOL0     N15155   9.240  10.047   4.826  0.2235 -0.1069 -0.1456
  873MOL0     C15156  10.099  10.072   4.524 -1.1122  0.0542  0.7431
  873MOL0     C15157  10.228  10.026   4.553  0.5658  0.2059 -0.2190
  873MOL0     C15158  10.675  10.008   4.620 -0.0040 -0.5313 -0.4044
  873MOL0     C15159  10.666   9.867   4.599  0.2713 -0.1302  0.3868
  873MOL0     C15160  10.772   9.794   4.548  0.6419 -0.0067 -0.0722
  873MOL0     C15161  10.901   9.849   4.549  0.0555  0.5939  0.3299
  873MOL0     O15162  10.999   9.776   4.503  0.4391 -0.0427  0.5076
  873MOL0     C15163  11.139   9.809   4.512  0.6464 -0.1300 -1.0037
  873MOL0     C15164  11.219   9.696   4.440 -0.4498 -0.2225 -0.0902
  873MOL0     C15165  11.368   9.711   4.433 -0.3671  0.0671 -0.2431
  873MOL0     C15166  11.434   9.703   4.572 -0.1391  0.2245  0.1533
  873MOL0     C15167  11.578   9.676   4.572  0.6890  0.3607  0.8756
  873MOL0     C15168  11.697   9.653   4.581 -0.0153 -0.3732  1.6588
  873MOL0     C15169  10.910   9.983   4.580  0.7242 -0.0909  0.5592
  873MOL0     C15170  10.799  10.065   4.613 -0.4605  0.5521  0.2955
  873MOL0     H15171  10.331  10.256   4.768 -1.7676 -0.1754  1.5234
  873MOL0     H15172  10.118  10.341   4.723 -1.9637 -0.8382  1.2268
  873MOL0     H15173  10.007  10.360   4.387  2.5073 -1.8306  1.1203
  873MOL0     H15174   9.996  10.432   4.538  0.6932 -3.9744  2.8220
  873MOL0     H15175   9.745  10.326   4.377  1.1765  1.7466 -1.5687
  873MOL0     H15176   9.779  10.491   4.396 -0.2580  0.2007 -1.1252
  873MOL0     H15177   9.722  10.494   4.638  0.9648  2.4289 -3.0010
  873MOL0     H15178   9.711  10.312   4.636 -0.1317  0.7521  1.0730
  873MOL0     H15179   9.544  10.485   4.456 -2.0770 -0.8629 -0.4890
  873MOL0     H15180   9.518  10.320   4.498  0.8172 -2.3896  3.2669
  873MOL0     H15181   9.355  10.486   4.596  1.1400  1.0628 -1.8348
  873MOL0     H15182   9.475  10.590   4.657 -0.5881  0.2053  2.1712
  873MOL0     H15183   9.456  10.502   4.842  1.6764  2.3345 -1.4605
  873MOL0     H15184   9.547  10.352   4.798  2.9289 -0.1136 -5.4765
  873MOL0     H15185   9.245  10.380   4.763  0.9948  0.5917 -0.3680
  873MOL0     H15186   9.345  10.259   4.693  0.8512 -0.8913 -0.3144
  873MOL0     H15187   9.318  10.314   5.001 -1.2450 -0.1866  0.0449
  873MOL0     H15188   9.445  10.213   4.918  0.2626 -0.4066 -3.8472
  873MOL0     H15189   9.090  10.274   5.018 -1.7502 -1.8853  1.3364
  873MOL0     H15190   8.884   9.958   4.891  0.6790  0.9197 -1.3658
  873MOL0     H15191   8.851  10.134   4.867  2.2219  2.0705  0.0032
  873MOL0     H15192   8.774  10.143   5.070 -0.4637 -0.2796 -0.6970
  873MOL0     H15193   8.915  10.094   5.155 -1.5932 -1.7488  2.3213
  873MOL0     H15194   8.695   9.911   5.070 -0.3681 -2.2514  2.3179
  873MOL0     H15195   8.849   9.845   5.084 -1.6419  0.8038 -3.9042
  873MOL0     H15196   8.849   9.975   5.331  0.8518 -0.5251 -1.1581
  873MOL0     H15197   8.767   9.822   5.310 -1.2951 -0.8218  1.6662
  873MOL0     H15198   8.787   9.877   5.535 -0.0235  0.4562  1.0163
  873MOL0     H15199   8.717   9.862   5.739  0.4919  0.8042 -0.9595
  873MOL0     H15200   8.274  10.130   6.080  0.9307 -0.0390  0.5468
  873MOL0     H15201   8.207  10.070   6.300 -2.0325  0.2633  0.4478
  873MOL0     H15202   8.295   9.717   6.435 -0.1153  1.6132  0.1501
  873MOL0     H15203   8.122   9.654   6.441  0.0484  0.0038  1.6330
  873MOL0     H15204   8.220   9.859   6.646 -1.3118 -0.1012  0.4471
  873MOL0     H15205   8.207   9.685   6.661  0.8559 -0.7334 -1.9433
  873MOL0     H15206   7.955   9.696   6.602 -0.9552  0.3151  0.2999
  873MOL0     H15207   7.981   9.872   6.591  1.6459 -0.0897  0.3029
  873MOL0     H15208   8.065   9.704   6.835 -0.9970 -0.5742 -0.6740
  873MOL0     H15209   8.055   9.883   6.810  0.9018  0.3157 -1.5995
  873MOL0     H15210   7.878   9.775   6.938  3.2916 -0.1105 -1.0555
  873MOL0     H15211   7.815   9.697   6.793 -1.1965  0.1006  0.5715
  873MOL0     H15212   7.770   9.922   6.678  0.2648  2.1408 -0.0207
  873MOL0     H15213   7.847  10.001   6.823 -1.3380 -0.3891  3.4242
  873MOL0     H15214   7.585   9.990   6.798 -2.7330 -1.3003 -1.6044
  873MOL0     H15215   7.599   9.814   6.845 -0.1369  0.5330 -3.1020
  873MOL0     H15216   7.618  10.056   7.014  1.3539  0.8824  2.0857
  873MOL0     H15217   7.761   9.970   7.027 -0.3597  5.3916 -1.1685
  873MOL0     H15218   8.198   9.660   6.210 -1.0912  0.3164  2.7225
  873MOL0     H15219   8.289   9.711   5.979 -0.5411 -2.3969  2.9215
  873MOL0     H15220   8.326  10.033   5.641 -0.3816 -0.5725 -1.8453
  873MOL0     H15221   8.409  10.049   5.400  2.0703  1.6225 -0.8788
  873MOL0     H15222  10.033  10.010   4.465 -1.5203  1.0363  0.1491
  873MOL0     H15223  10.249   9.928   4.512 -1.8811 -0.6321  0.3330
  873MOL0     H15224  10.573   9.815   4.619  0.3845 -0.1433  0.9111
  873MOL0     H15225  10.752   9.693   4.515  0.4890  0.0475 -0.1497
  873MOL0     H15226  11.160   9.801   4.619 -0.0710  1.9053 -0.6624
  873MOL0     H15227  11.156   9.910   4.473 -3.4567  0.2147 -2.3450
  873MOL0     H15228  11.200   9.605   4.497  0.3962  0.3264  1.0968
  873MOL0     H15229  11.173   9.691   4.341 -0.0472  1.2809 -0.3719
  873MOL0     H15230  11.394   9.808   4.390 -1.6899  0.9354  0.8465
  873MOL0     H15231  11.411   9.630   4.373 -2.1492 -1.5823  0.6116
  873MOL0     H15232  11.413   9.791   4.632  0.8370  1.8468 -1.7462
  873MOL0     H15233  11.396   9.612   4.620 -0.2969  0.8213  1.1820
  873MOL0     H15234  11.799   9.621   4.575 -1.2775 -4.7918 -0.3339
  873MOL0     H15235  11.005  10.036   4.587  0.6968  0.0938 -0.3452
  873MOL0     H15236  10.815  10.170   4.634  0.9696  0.1401  1.5022
  874MOL0     O15237  10.307   1.010   2.732  1.0307  0.3978 -0.4944
  874MOL0     C15238  10.281   0.938   2.633 -0.2069  0.3654 -0.0758
  874MOL0     O15239  10.354   0.922   2.529  0.0381 -0.4515  1.0299
  874MOL0     C15240  10.482   0.972   2.534 -0.2099 -0.3486  0.2012
  874MOL0     C15241  10.520   1.032   2.409 -0.1019 -0.4528 -0.6257
  874MOL0     C15242  10.650   1.078   2.378 -0.8829  0.1472  0.7891
  874MOL0     C15243  10.752   1.067   2.476 -0.2679  0.9160 -0.6244
  874MOL0     O15244  10.883   1.118   2.469  0.6192 -0.3177  0.3087
  874MOL0     C15245  10.923   1.159   2.338 -0.5917  0.5885 -0.3718
  874MOL0     C15246  11.065   1.197   2.339 -0.0310  0.0385 -0.0648
  874MOL0     C15247  11.145   1.057   2.321  0.6803 -0.4855  0.5027
  874MOL0     C15248  11.292   1.076   2.327 -0.4007 -0.3272 -0.0754
  874MOL0     C15249  11.366   0.935   2.331  0.2008  0.0246  0.1169
  874MOL0     C15250  11.501   0.959   2.399  0.2236  0.5137 -0.3997
  874MOL0     C15251  11.582   0.828   2.421 -0.5077 -0.4957 -0.2042
  874MOL0     C15252  11.726   0.856   2.477  0.4438 -0.4002 -0.2540
  874MOL0     N15253  11.832   0.907   2.389  0.1872 -0.0487  0.1456
  874MOL0     C15254  11.961   0.864   2.393  0.1836  0.0069  0.0202
  874MOL0     C15255  12.025   0.953   2.312 -0.8486  0.0001  0.2730
  874MOL0     C15256  12.172   0.960   2.273  0.0957  0.1729 -1.1970
  874MOL0     C15257  12.244   1.059   2.369  0.7154  0.1342  0.3256
  874MOL0     C15258  12.230   1.029   2.520  0.2811  0.5097 -0.2640
  874MOL0     C15259  12.278   1.148   2.590 -1.2796 -0.8170 -0.1328
  874MOL0     O15260  12.228   1.152   2.724  0.7403 -0.3301 -0.6605
  874MOL0     C15261  12.096   1.182   2.742  0.8349 -0.1763  0.6684
  874MOL0     C15262  12.042   1.159   2.872 -0.1319  0.0318  0.2975
  874MOL0     C15263  11.915   1.180   2.907 -0.5718 -0.3949 -0.6754
  874MOL0     C15264  11.839   1.266   2.825 -0.0545  0.9275 -0.4977
  874MOL0     C15265  11.709   1.307   2.872 -0.0981  0.0709  0.0874
  874MOL0     O15266  11.699   1.312   3.008 -0.3697 -0.0850  0.1958
  874MOL0     C15267  11.590   1.352   3.082  0.7220  0.1891  0.3727
  874MOL0     C15268  11.461   1.342   3.033  0.8268  0.9004  0.0542
  874MOL0     C15269  11.347   1.369   3.112  0.4523  0.2959 -0.2054
  874MOL0     C15270  11.372   1.419   3.246 -0.1524  0.2755  0.6476
  874MOL0     O15271  11.264   1.443   3.319  0.5975  0.3715 -0.4792
  874MOL0     C15272  11.291   1.507   3.450  0.0503 -0.0366  0.4869
  874MOL0     C15273  11.163   1.510   3.527  0.7721  0.3020 -0.1421
  874MOL0     C15274  11.090   1.383   3.551  0.9616  0.4309  0.2058
  874MOL0     C15275  10.983   1.397   3.656  0.0222  0.8448  0.4595
  874MOL0     C15276  10.939   1.253   3.696  1.2901 -0.3336 -0.4030
  874MOL0     C15277  10.852   1.245   3.823 -0.6520  0.5039 -0.6074
  874MOL0     C15278  10.715   1.307   3.804  0.0368 -0.1635 -0.3675
  874MOL0     C15279  10.625   1.267   3.922 -0.5138 -0.0683  0.4702
  874MOL0    Cl15280  10.514   1.408   3.976 -0.2091 -0.0667 -0.7073
  874MOL0     C15281  11.507   1.432   3.291 -0.3114  0.2120  1.0361
  874MOL0     C15282  11.612   1.389   3.214  0.3437  0.2725 -1.3443
  874MOL0     O15283  11.622   1.339   2.796  0.2935 -0.5019  0.1508
  874MOL0     C15284  11.877   1.301   2.693 -0.0523 -0.6147 -0.2758
  874MOL0     C15285  12.007   1.253   2.649  0.2506 -0.0230 -0.3059
  874MOL0     N15286  11.943   1.056   2.272  0.3337  0.2039 -0.3572
  874MOL0     N15287  11.828   1.025   2.321 -0.9286 -0.0715  0.1568
  874MOL0     C15288  10.715   1.016   2.604 -0.4922 -0.1446 -0.5345
  874MOL0     C15289  10.578   0.967   2.638 -0.4188  0.7299  0.7526
  874MOL0     C15290  10.137   0.890   2.637 -0.4298 -0.3534  0.0189
  874MOL0     C15291  10.080   0.827   2.523  0.0436 -0.2462 -0.8661
  874MOL0     C15292   9.940   0.814   2.518 -0.2303 -0.8166  0.0474
  874MOL0     C15293   9.857   0.834   2.631 -0.5157 -0.0200 -0.0410
  874MOL0     O15294   9.720   0.816   2.628 -0.2660 -0.0243  0.4756
  874MOL0     C15295   9.669   0.727   2.519  0.2224 -0.0747  0.0384
  874MOL0     C15296   9.517   0.730   2.534 -0.4078 -0.0808 -0.1194
  874MOL0     C15297   9.450   0.841   2.454 -0.2400  0.0867 -0.2945
  874MOL0     C15298   9.301   0.844   2.481  0.1404  0.8826 -0.5031
  874MOL0     C15299   9.245   0.938   2.389  0.0714 -0.0136 -0.2264
  874MOL0     C15300   9.185   0.992   2.305  0.3394 -0.5284  0.2533
  874MOL0     C15301   9.918   0.891   2.745  0.3029 -0.5305  0.0637
  874MOL0     C15302  10.053   0.927   2.747  0.0995  0.9817  0.2150
  874MOL0     H15303  10.438   1.053   2.341 -1.8253  1.6712  1.9099
  874MOL0     H15304  10.676   1.118   2.281  2.4556  1.2024  1.9593
  874MOL0     H15305  10.863   1.240   2.295  1.2666  2.9831  1.2711
  874MOL0     H15306  10.914   1.074   2.270  0.7512 -0.3736  0.5930
  874MOL0     H15307  11.088   1.247   2.433  0.3224 -2.9117  1.5629
  874MOL0     H15308  11.084   1.257   2.250  0.5926  1.5181  1.0303
  874MOL0     H15309  11.112   1.006   2.230 -0.9915  1.0726  0.1793
  874MOL0     H15310  11.122   0.984   2.399  0.1431 -1.0528 -0.1705
  874MOL0     H15311  11.322   1.135   2.241  3.2012 -0.1305  1.1725
  874MOL0     H15312  11.314   1.137   2.415 -1.1101  0.0414 -0.1451
  874MOL0     H15313  11.378   0.892   2.231 -0.9938 -0.4799  0.1703
  874MOL0     H15314  11.308   0.858   2.383  3.3136 -1.7369  1.2896
  874MOL0     H15315  11.479   1.009   2.494 -3.4054  0.0172 -0.8185
  874MOL0     H15316  11.568   1.027   2.344 -0.1698  2.5048  1.4456
  874MOL0     H15317  11.519   0.756   2.474 -3.1818  0.2047 -2.1971
  874MOL0     H15318  11.599   0.782   2.323 -0.1290  0.4498 -0.5919
  874MOL0     H15319  11.755   0.764   2.528  2.1554 -0.4538 -1.2310
  874MOL0     H15320  11.707   0.921   2.562  2.7459 -0.4013  0.3247
  874MOL0     H15321  12.011   0.775   2.431  5.0834  2.2500 -0.4545
  874MOL0     H15322  12.166   1.002   2.173  0.9392 -0.5372 -1.5584
  874MOL0     H15323  12.218   0.861   2.267  4.1332  1.2715  3.8999
  874MOL0     H15324  12.206   1.160   2.352  2.2193  1.0213  1.9728
  874MOL0     H15325  12.349   1.061   2.338  0.4289  2.5438 -0.7575
  874MOL0     H15326  12.126   1.020   2.553  1.0268 -1.3068  1.8896
  874MOL0     H15327  12.276   0.936   2.555 -0.3785 -0.4612 -1.9109
  874MOL0     H15328  12.241   1.239   2.541  0.1367 -0.0359  0.2017
  874MOL0     H15329  12.386   1.163   2.590 -1.0203 -2.3598  1.4341
  874MOL0     H15330  12.112   1.133   2.951  1.1704 -0.3416 -0.9544
  874MOL0     H15331  11.877   1.150   3.004  2.1914  1.0625  0.9786
  874MOL0     H15332  11.451   1.295   2.935  0.8881 -4.2038  2.1760
  874MOL0     H15333  11.247   1.370   3.070  1.4667 -2.0312 -3.0389
  874MOL0     H15334  11.331   1.608   3.440  1.6956 -0.5592  1.4152
  874MOL0     H15335  11.362   1.448   3.509  1.4137 -0.4042 -1.4316
  874MOL0     H15336  11.099   1.585   3.481 -0.2939  0.2465  1.1958
  874MOL0     H15337  11.194   1.542   3.627 -0.4727 -3.3288  1.5716
  874MOL0     H15338  11.157   1.298   3.573 -2.4669 -2.5160  0.1346
  874MOL0     H15339  11.043   1.346   3.460 -0.2896 -2.7300  1.9858
  874MOL0     H15340  11.023   1.439   3.749  2.6736 -0.1114 -0.1601
  874MOL0     H15341  10.904   1.461   3.617  0.9315 -0.2015 -3.5279
  874MOL0     H15342  11.030   1.194   3.711  0.5040 -0.9200  2.9164
  874MOL0     H15343  10.880   1.211   3.614 -1.3950  0.4515  0.9849
  874MOL0     H15344  10.911   1.284   3.906  2.9623 -2.6926 -1.3936
  874MOL0     H15345  10.847   1.136   3.834 -0.7420  0.6557  1.1584
  874MOL0     H15346  10.739   1.413   3.789  0.9801 -0.1448  0.9880
  874MOL0     H15347  10.666   1.262   3.718  1.4466 -2.4795 -0.0442
  874MOL0     H15348  10.688   1.245   4.009 -0.7547 -0.1733  0.6179
  874MOL0     H15349  10.569   1.177   3.895  1.5210 -0.9504 -1.0739
  874MOL0     H15350  11.515   1.456   3.397 -1.3874  4.1693  0.3884
  874MOL0     H15351  11.709   1.375   3.260 -1.7907 -0.9110  3.3300
  874MOL0     H15352  11.814   1.366   2.634 -0.3837  0.0650  0.7837
  874MOL0     H15353  12.034   1.275   2.547  1.0298  2.4226  0.3788
  874MOL0     H15354  10.794   1.019   2.679 -0.8273  2.5741 -0.2225
  874MOL0     H15355  10.558   0.926   2.736 -2.2571 -0.3597 -0.0384
  874MOL0     H15356  10.146   0.824   2.437  1.5057  2.3995  0.0270
  874MOL0     H15357   9.906   0.771   2.425  0.7876 -4.1274  1.0466
  874MOL0     H15358   9.703   0.624   2.530 -4.2373 -1.7565  0.0451
  874MOL0     H15359   9.700   0.763   2.420  0.5320 -3.0271 -1.0496
  874MOL0     H15360   9.498   0.630   2.495  1.3079 -0.0061 -1.2484
  874MOL0     H15361   9.477   0.734   2.636 -1.8853 -2.5733 -0.5304
  874MOL0     H15362   9.465   0.832   2.346 -0.0588 -0.0825 -0.2554
  874MOL0     H15363   9.496   0.938   2.474 -0.6983  0.3174 -0.3508
  874MOL0     H15364   9.255   0.749   2.453  0.7479  0.8840 -1.5551
  874MOL0     H15365   9.277   0.884   2.580  0.9557  2.8713 -1.0651
  874MOL0     H15366   9.135   1.054   2.233 -1.2445  0.7669  2.3281
  874MOL0     H15367   9.856   0.903   2.834 -1.3079 -1.7908 -0.8364
  874MOL0     H15368  10.097   0.975   2.834 -0.0965  2.0083 -0.2437
  875MOL0     O15369   0.201   1.896   4.253 -0.4962 -0.1131  0.7574
  875MOL0     C15370   0.226   1.984   4.163  0.5497  0.2463  0.5075
  875MOL0     O15371   0.133   2.038   4.071 -1.0426  0.1039  0.5713
  875MOL0     C15372   0.014   1.969   4.058  0.0595  0.6837 -1.2071
  875MOL0     C15373  -0.106   2.011   4.122 -1.0962 -0.4141 -0.0975
  875MOL0     C15374  -0.229   1.960   4.081 -0.3706 -0.2503  0.0412
  875MOL0     C15375  -0.244   1.873   3.975 -0.2629 -0.7064  0.0186
  875MOL0     O15376  -0.362   1.813   3.955  0.2237  0.1018  0.4757
  875MOL0     C15377  -0.385   1.785   3.817  0.2784 -0.5177 -0.3123
  875MOL0     C15378  -0.540   1.767   3.788  0.0861  0.3547 -0.2574
  875MOL0     C15379  -0.625   1.857   3.874  1.0083 -0.3914  0.0375
  875MOL0     C15380  -0.769   1.870   3.825  0.6337 -0.4205  0.3097
  875MOL0     C15381  -0.869   1.879   3.946 -0.3070  0.4265  0.8838
  875MOL0     C15382  -1.015   1.886   3.887  0.4637 -0.2841 -0.0356
  875MOL0     C15383  -1.106   1.914   4.007  0.9656  0.0028  0.3817
  875MOL0     C15384  -1.253   1.894   3.975 -0.2060  0.0468  0.0762
  875MOL0     N15385  -1.350   1.904   4.094 -0.2142 -0.2954  0.2525
  875MOL0     C15386  -1.461   1.982   4.107  0.2271 -1.0982 -0.5052
  875MOL0     C15387  -1.514   1.958   4.234  0.5614  0.4098  0.0356
  875MOL0     C15388  -1.646   2.012   4.293  0.8297 -0.3979 -0.0806
  875MOL0     C15389  -1.770   1.930   4.255  0.1062 -0.4814  0.6989
  875MOL0     C15390  -1.854   1.905   4.384  0.4971  0.2570  1.3757
  875MOL0     C15391  -2.002   1.877   4.353  0.5834  0.0699  0.2299
  875MOL0     O15392  -2.016   1.758   4.273  0.3639 -0.3941 -0.5495
  875MOL0     C15393  -2.140   1.702   4.253  0.1302  0.3214  0.3194
  875MOL0     C15394  -2.138   1.600   4.160 -1.0206  0.1014  0.6457
  875MOL0     C15395  -2.249   1.545   4.115  1.2368 -0.0267  0.3116
  875MOL0     C15396  -2.369   1.573   4.188  0.0736 -0.9105  1.0554
  875MOL0     C15397  -2.498   1.505   4.151 -0.1287 -0.2583  0.3101
  875MOL0     O15398  -2.504   1.462   4.019 -0.9374  0.1161 -0.4404
  875MOL0     C15399  -2.626   1.419   3.973 -0.6805  0.0851  1.3716
  875MOL0     C15400  -2.627   1.301   3.893 -0.3273  0.0989 -0.6541
  875MOL0     C15401  -2.751   1.260   3.839 -0.8218  0.4179 -0.2019
  875MOL0     C15402  -2.870   1.316   3.879 -0.7867  0.2735 -0.7215
  875MOL0     O15403  -2.987   1.260   3.835  0.6288 -0.5671  0.2950
  875MOL0     C15404  -2.982   1.136   3.761 -0.0868 -0.2687  0.5953
  875MOL0     C15405  -3.123   1.077   3.738 -0.0756 -0.3531 -0.2631
  875MOL0     C15406  -3.120   0.928   3.711 -0.2359  0.3141  0.3092
  875MOL0     C15407  -3.041   0.899   3.579  0.5859  0.3266  0.6313
  875MOL0     C15408  -3.032   0.751   3.557 -1.3730 -0.0532  0.4088
  875MOL0     C15409  -3.152   0.690   3.489 -0.5863  0.1936 -0.5415
  875MOL0     C15410  -3.112   0.549   3.438  0.7635 -0.2221  0.9242
  875MOL0     C15411  -3.213   0.478   3.344  0.1659 -0.7348  1.1396
  875MOL0    Cl15412  -3.145   0.387   3.209 -0.2228  0.0256 -0.1065
  875MOL0     C15413  -2.862   1.434   3.959 -0.5764  0.7884  0.5985
  875MOL0     C15414  -2.744   1.481   4.008 -0.1099 -1.0988 -0.0819
  875MOL0     O15415  -2.585   1.500   4.237 -0.3153 -0.7318 -0.2031
  875MOL0     C15416  -2.372   1.681   4.276  0.1523 -0.9125 -0.1490
  875MOL0     C15417  -2.254   1.750   4.313  0.3119  0.4905  0.4214
  875MOL0     N15418  -1.432   1.877   4.306  0.0254 -0.0209  0.2701
  875MOL0     N15419  -1.333   1.847   4.221 -0.4211 -0.0752  0.1835
  875MOL0     C15420  -0.122   1.825   3.922  0.1222  0.2732  0.1907
  875MOL0     C15421   0.002   1.868   3.962 -0.7492  0.4406  0.1017
  875MOL0     C15422   0.354   2.033   4.137 -0.7876  0.5559 -0.4156
  875MOL0     C15423   0.464   1.952   4.176  0.2397 -1.0316  0.8617
  875MOL0     C15424   0.596   1.999   4.176  0.1428 -0.6168  0.8411
  875MOL0     C15425   0.621   2.120   4.112  0.2750 -0.4705  0.4105
  875MOL0     O15426   0.749   2.180   4.109 -0.4572 -0.4389  0.3405
  875MOL0     C15427   0.854   2.088   4.095  0.6489  0.5944  0.2883
  875MOL0     C15428   0.980   2.172   4.069 -0.2356 -0.0059  0.6022
  875MOL0     C15429   0.991   2.227   3.917  0.1828  0.4693  0.2311
  875MOL0     C15430   1.121   2.309   3.892  1.0129  0.5431  0.5510
  875MOL0     C15431   1.092   2.418   3.791  0.6875  0.2312  0.5489
  875MOL0     C15432   1.076   2.499   3.700  0.9247 -0.2804  0.2059
  875MOL0     C15433   0.520   2.190   4.049  0.2470 -0.4241 -0.1935
  875MOL0     C15434   0.387   2.147   4.062 -0.7973 -0.5532  0.5178
  875MOL0     H15435  -0.094   2.086   4.199 -2.0101  0.1390 -0.4825
  875MOL0     H15436  -0.327   1.989   4.117 -0.9241 -0.6603 -1.0954
  875MOL0     H15437  -0.330   1.696   3.783  2.6552  1.1805 -1.1044
  875MOL0     H15438  -0.347   1.866   3.755  1.1563 -0.3458  0.4410
  875MOL0     H15439  -0.553   1.659   3.804 -1.7411  0.7700  1.4962
  875MOL0     H15440  -0.549   1.788   3.682 -1.6784 -3.4215 -1.0346
  875MOL0     H15441  -0.576   1.951   3.848 -2.5681  1.5504 -0.3756
  875MOL0     H15442  -0.612   1.833   3.980 -0.5564  1.5174  0.7138
  875MOL0     H15443  -0.784   1.962   3.768 -0.8737 -2.1060 -2.1994
  875MOL0     H15444  -0.795   1.788   3.758 -4.5483  1.9008 -0.9752
  875MOL0     H15445  -0.843   1.962   4.012 -1.1731 -0.2937  2.1795
  875MOL0     H15446  -0.859   1.781   3.995 -2.4211 -0.3570 -0.1252
  875MOL0     H15447  -1.029   1.786   3.846  1.9421  0.1143 -1.6398
  875MOL0     H15448  -1.029   1.968   3.816  4.8051  0.6738 -0.0448
  875MOL0     H15449  -1.090   1.840   4.086 -4.9450 -3.2901 -0.8566
  875MOL0     H15450  -1.096   2.018   4.038  0.6419 -0.1155  0.8902
  875MOL0     H15451  -1.254   1.790   3.941  0.6698 -0.3966  1.3562
  875MOL0     H15452  -1.289   1.968   3.902 -1.3057  1.4849  1.9791
  875MOL0     H15453  -1.497   2.051   4.031  0.9967 -1.1929 -0.9718
  875MOL0     H15454  -1.671   2.113   4.259  0.0382  0.0352  1.6754
  875MOL0     H15455  -1.624   2.025   4.399  0.3435 -0.5175  0.0352
  875MOL0     H15456  -1.740   1.831   4.218 -1.5653 -0.7540 -0.0614
  875MOL0     H15457  -1.830   1.969   4.172  0.0676 -1.3322  0.3131
  875MOL0     H15458  -1.804   1.825   4.440 -0.5918  1.0095  3.5236
  875MOL0     H15459  -1.851   1.988   4.454 -0.1898  2.2084 -0.7530
  875MOL0     H15460  -2.043   1.968   4.308  1.5233  0.1671 -0.4590
  875MOL0     H15461  -2.052   1.851   4.446  0.3456  1.6918  0.5854
  875MOL0     H15462  -2.045   1.550   4.138  0.0091  1.8638  0.7945
  875MOL0     H15463  -2.234   1.466   4.041  2.8837 -0.3865  1.0004
  875MOL0     H15464  -2.543   1.237   3.866 -1.7497 -0.9389 -2.8417
  875MOL0     H15465  -2.756   1.174   3.772  1.9223 -0.4385  0.5754
  875MOL0     H15466  -2.919   1.064   3.813  1.7506 -0.2469 -1.4278
  875MOL0     H15467  -2.939   1.165   3.664 -3.5205  1.7724 -0.5050
  875MOL0     H15468  -3.172   1.129   3.655 -0.5120 -1.4371 -0.7039
  875MOL0     H15469  -3.174   1.094   3.833  2.7477  0.5031  1.2120
  875MOL0     H15470  -3.223   0.896   3.693 -0.2849  1.0666 -0.8328
  875MOL0     H15471  -3.077   0.877   3.798  0.4921  2.3339  1.1955
  875MOL0     H15472  -3.106   0.936   3.499  0.8903 -1.9954 -0.7863
  875MOL0     H15473  -2.943   0.945   3.570  0.3004  0.8639  0.2333
  875MOL0     H15474  -3.004   0.701   3.650  0.9840 -1.8138 -1.1218
  875MOL0     H15475  -2.942   0.736   3.497 -0.7558 -1.2011  1.5743
  875MOL0     H15476  -3.187   0.757   3.410 -0.3855  1.0939  0.1186
  875MOL0     H15477  -3.238   0.678   3.555 -2.7515  4.4465 -2.1939
  875MOL0     H15478  -3.020   0.556   3.379  0.0085 -0.7687 -0.3531
  875MOL0     H15479  -3.097   0.491   3.530  2.7296  0.8946  1.3665
  875MOL0     H15480  -3.278   0.553   3.299  0.4920 -1.0205  0.1719
  875MOL0     H15481  -3.283   0.423   3.407  1.9104  0.9045  4.8350
  875MOL0     H15482  -2.957   1.474   3.994 -0.3999  0.8714  0.9915
  875MOL0     H15483  -2.749   1.582   4.049 -2.9797 -1.4011  0.5277
  875MOL0     H15484  -2.461   1.717   4.327  0.2806  0.6184 -0.9484
  875MOL0     H15485  -2.256   1.828   4.389 -1.0799  0.3705  0.5414
  875MOL0     H15486  -0.128   1.752   3.842 -0.0942 -2.4685  2.5336
  875MOL0     H15487   0.093   1.840   3.910  1.5584  3.0905  2.4229
  875MOL0     H15488   0.444   1.856   4.221  0.6557 -2.2584 -1.4067
  875MOL0     H15489   0.657   1.920   4.219 -0.5725 -3.1094 -2.3198
  875MOL0     H15490   0.836   2.031   4.003 -0.8806 -1.2488  1.6703
  875MOL0     H15491   0.858   2.022   4.181  2.7892 -0.5379 -0.6126
  875MOL0     H15492   0.988   2.249   4.147  1.1044 -1.7503  2.2558
  875MOL0     H15493   1.066   2.110   4.094  0.1080  0.4711  0.6287
  875MOL0     H15494   0.898   2.268   3.876  0.0797  0.9524  0.9221
  875MOL0     H15495   1.014   2.142   3.852 -0.0405  1.6869 -1.4896
  875MOL0     H15496   1.143   2.358   3.988 -1.7242 -0.1270  1.6474
  875MOL0     H15497   1.209   2.249   3.871  0.2375 -1.1070  1.7467
  875MOL0     H15498   1.090   2.582   3.634  1.3317  1.3104  2.1916
  875MOL0     H15499   0.531   2.280   3.990 -2.9554 -0.9242 -1.7730
  875MOL0     H15500   0.308   2.203   4.014  0.0549  1.4191  1.2928
  876MOL0     O15501   8.315   6.258   1.266  0.5045  0.2498 -0.1337
  876MOL0     C15502   8.349   6.204   1.157  0.7329 -0.0167 -0.1159
  876MOL0     O15503   8.474   6.187   1.111 -0.3994 -0.2466 -0.0096
  876MOL0     C15504   8.579   6.266   1.152  0.5669  0.3937  0.4810
  876MOL0     C15505   8.592   6.320   1.281 -0.5724  0.5373 -0.1627
  876MOL0     C15506   8.687   6.416   1.313 -0.2030 -0.5052  0.1068
  876MOL0     C15507   8.796   6.446   1.221 -0.0919  0.4355 -0.1794
  876MOL0     O15508   8.904   6.532   1.230 -0.4006  0.5076  0.2177
  876MOL0     C15509   8.927   6.588   1.356 -0.0499 -1.4932 -0.1799
  876MOL0     C15510   9.043   6.690   1.340  0.1947 -0.0055  0.1763
  876MOL0     C15511   9.179   6.628   1.320  0.4646 -0.4350 -0.0691
  876MOL0     C15512   9.289   6.742   1.339  0.8873 -0.5790  1.5061
  876MOL0     C15513   9.433   6.700   1.367  0.7471  0.4577  0.0261
  876MOL0     C15514   9.532   6.810   1.408  0.2304 -0.5260  0.3060
  876MOL0     C15515   9.564   6.886   1.280  0.0978  0.2357  0.5740
  876MOL0     C15516   9.685   6.966   1.288 -0.2395  0.1517  0.4125
  876MOL0     N15517   9.661   7.057   1.397 -0.3893  0.1817  0.1117
  876MOL0     C15518   9.556   7.148   1.422 -0.8781  1.0818 -0.1950
  876MOL0     C15519   9.582   7.202   1.543  0.0226  0.3811  0.1215
  876MOL0     C15520   9.508   7.321   1.591  0.1494  0.5145 -0.5440
  876MOL0     C15521   9.538   7.435   1.501  0.4271 -1.3222 -0.1301
  876MOL0     C15522   9.459   7.564   1.527  0.7419  0.9201 -0.8485
  876MOL0     C15523   9.504   7.683   1.442  0.7733 -0.9291 -0.3562
  876MOL0     O15524   9.463   7.666   1.312  0.1876  0.4131 -0.8504
  876MOL0     C15525   9.327   7.686   1.277  1.3867 -0.9662 -0.7880
  876MOL0     C15526   9.222   7.722   1.375  0.2194  0.1027  0.3800
  876MOL0     C15527   9.092   7.747   1.326  0.6462 -0.1670  0.1570
  876MOL0     C15528   9.063   7.760   1.193  0.7384  1.3670  0.5755
  876MOL0     C15529   8.927   7.801   1.141 -0.4559 -0.4139  0.0610
  876MOL0     O15530   8.834   7.830   1.235  0.6879  0.0472  0.3153
  876MOL0     C15531   8.707   7.856   1.178 -0.5655  0.5423 -0.3125
  876MOL0     C15532   8.662   7.992   1.169 -0.6615  0.3907  0.4368
  876MOL0     C15533   8.527   8.016   1.148  1.0594 -0.5909  0.4288
  876MOL0     C15534   8.440   7.913   1.099 -0.3733 -0.1569 -0.9043
  876MOL0     O15535   8.317   7.954   1.060 -0.2479 -0.1125  0.5699
  876MOL0     C15536   8.236   7.870   0.983  0.2753  0.9110  0.0895
  876MOL0     C15537   8.130   7.955   0.906 -0.3518 -0.1183 -0.0958
  876MOL0     C15538   8.048   7.867   0.809  0.1681 -0.6598  0.0103
  876MOL0     C15539   7.984   7.950   0.701 -0.2469 -0.8011 -0.1934
  876MOL0     C15540   8.093   7.989   0.607 -0.6633  0.6289 -0.1652
  876MOL0     C15541   8.036   8.038   0.475 -0.3370 -0.4366  0.1471
  876MOL0     C15542   8.148   8.079   0.374  0.3260  0.5372  0.2960
  876MOL0     C15543   8.224   7.961   0.317 -0.0684 -0.4222  0.2186
  876MOL0    Cl15544   8.368   8.016   0.211  0.3016 -0.0356 -0.1374
  876MOL0     C15545   8.484   7.779   1.101 -0.6162 -0.0746 -0.0794
  876MOL0     C15546   8.620   7.756   1.143 -0.2174  0.2268  0.1079
  876MOL0     O15547   8.909   7.810   1.020 -0.3604  0.3930  0.8164
  876MOL0     C15548   9.166   7.735   1.101  0.0753  0.0474  0.2255
  876MOL0     C15549   9.296   7.702   1.143 -0.6824 -0.0209  0.3661
  876MOL0     N15550   9.695   7.143   1.594  0.6458 -0.3713 -0.1364
  876MOL0     N15551   9.737   7.055   1.512 -0.0707 -0.3694  1.2130
  876MOL0     C15552   8.786   6.393   1.094  0.8788  0.1623  0.3387
  876MOL0     C15553   8.677   6.304   1.055 -0.1419 -0.2053 -0.5021
  876MOL0     C15554   8.245   6.165   1.064  0.5052  0.9519 -0.8802
  876MOL0     C15555   8.266   6.128   0.938  0.1553  0.8508  0.2702
  876MOL0     C15556   8.157   6.088   0.854  0.5102 -0.3923  0.3156
  876MOL0     C15557   8.028   6.092   0.897 -0.2796  0.4806 -1.1157
  876MOL0     O15558   7.925   6.061   0.819  0.5561 -0.4179 -0.1310
  876MOL0     C15559   7.850   5.953   0.870 -0.8359 -0.0766  0.8857
  876MOL0     C15560   7.911   5.825   0.834  0.3090  0.1133  0.5900
  876MOL0     C15561   7.958   5.809   0.689 -0.6307  0.4137 -0.2052
  876MOL0     C15562   7.998   5.663   0.662 -0.3781 -0.4903 -0.1699
  876MOL0     C15563   8.096   5.608   0.749 -0.2050  0.6997 -0.6342
  876MOL0     C15564   8.173   5.557   0.821  0.1745 -0.0232  0.5743
  876MOL0     C15565   8.006   6.130   1.026  0.1240  0.0329 -0.9520
  876MOL0     C15566   8.111   6.186   1.109  0.7150  0.6620  1.1414
  876MOL0     H15567   8.520   6.296   1.359 -0.0034  0.4423  0.3382
  876MOL0     H15568   8.678   6.458   1.413 -1.3451 -0.9938  0.2290
  876MOL0     H15569   8.947   6.513   1.433 -0.4745 -1.4731 -0.0478
  876MOL0     H15570   8.843   6.646   1.393  0.5189 -0.1236 -0.9558
  876MOL0     H15571   9.047   6.757   1.427  5.5489 -0.3811  0.5531
  876MOL0     H15572   9.015   6.748   1.252  3.1657  1.9786  0.4001
  876MOL0     H15573   9.191   6.589   1.219 -0.4218  0.3053 -0.4736
  876MOL0     H15574   9.189   6.556   1.401  2.1795  2.8863  2.9981
  876MOL0     H15575   9.291   6.795   1.244 -3.5133 -0.7638  1.1045
  876MOL0     H15576   9.246   6.810   1.413 -1.3414 -0.8061  0.4973
  876MOL0     H15577   9.467   6.671   1.267 -1.0770  0.9296 -0.7635
  876MOL0     H15578   9.440   6.618   1.440  1.0938 -0.1555 -0.6794
  876MOL0     H15579   9.622   6.768   1.456 -0.0672 -1.5250  0.0244
  876MOL0     H15580   9.501   6.871   1.493  0.9153 -1.3320  1.1658
  876MOL0     H15581   9.576   6.807   1.205 -2.5780 -0.0369  0.3049
  876MOL0     H15582   9.481   6.955   1.260  0.7676  2.3790  4.2891
  876MOL0     H15583   9.697   7.028   1.199 -0.7824 -0.8667 -0.3831
  876MOL0     H15584   9.778   6.907   1.292  0.1458  0.5416 -1.6166
  876MOL0     H15585   9.486   7.177   1.344 -1.2654 -0.9555 -0.6607
  876MOL0     H15586   9.536   7.352   1.692 -0.7369 -0.3150 -0.0307
  876MOL0     H15587   9.403   7.291   1.598  0.6182 -0.9059  0.8187
  876MOL0     H15588   9.533   7.402   1.397 -0.7604 -0.9848 -0.1869
  876MOL0     H15589   9.642   7.462   1.518 -0.6350  2.6470  0.9582
  876MOL0     H15590   9.356   7.538   1.500  0.9881  2.5343 -3.7489
  876MOL0     H15591   9.460   7.586   1.634 -0.8289 -2.1637 -0.1002
  876MOL0     H15592   9.613   7.679   1.445  0.9340  1.7063 -0.8182
  876MOL0     H15593   9.478   7.780   1.486 -2.0401 -2.2780  1.2803
  876MOL0     H15594   9.251   7.732   1.479  0.6052 -1.8068  0.4929
  876MOL0     H15595   9.027   7.779   1.407 -0.7307 -1.9141 -0.1979
  876MOL0     H15596   8.731   8.075   1.180 -0.2969  0.2221 -0.4677
  876MOL0     H15597   8.494   8.119   1.143  0.0214 -0.8441  1.5941
  876MOL0     H15598   8.185   7.802   1.052 -0.2791  2.2669  1.0653
  876MOL0     H15599   8.293   7.809   0.912  1.3596  0.2187  1.4887
  876MOL0     H15600   8.195   8.027   0.856  2.0718 -0.8375  1.8310
  876MOL0     H15601   8.064   8.016   0.968 -1.4032 -0.1360 -1.1765
  876MOL0     H15602   7.974   7.801   0.855 -0.3899 -2.3275 -3.0286
  876MOL0     H15603   8.125   7.792   0.788  0.5686 -1.5684  3.9638
  876MOL0     H15604   7.902   7.893   0.657  0.8875 -4.0115  1.4382
  876MOL0     H15605   7.939   8.035   0.752  0.6287 -1.1535  1.2343
  876MOL0     H15606   8.161   7.906   0.588 -0.0917  0.9274  0.5537
  876MOL0     H15607   8.136   8.080   0.649 -1.1401 -0.0519  1.8652
  876MOL0     H15608   7.969   8.124   0.479 -0.5772 -0.4379 -2.4172
  876MOL0     H15609   7.977   7.954   0.437  0.8675 -1.8975  1.3978
  876MOL0     H15610   8.121   8.153   0.299  1.0536  1.6200  1.0764
  876MOL0     H15611   8.218   8.137   0.435  0.5265 -3.0391  3.9458
  876MOL0     H15612   8.164   7.890   0.260  3.2918 -2.2868 -1.2946
  876MOL0     H15613   8.269   7.910   0.403 -0.4840 -2.3249 -0.6437
  876MOL0     H15614   8.410   7.706   1.071 -0.6565  0.6092 -1.7184
  876MOL0     H15615   8.649   7.652   1.136  0.1360  0.4374 -2.9180
  876MOL0     H15616   9.161   7.751   0.994  0.7654  2.8236  0.5481
  876MOL0     H15617   9.379   7.680   1.076 -3.6773 -0.8768 -3.4443
  876MOL0     H15618   8.860   6.429   1.022 -0.8801  0.7345 -1.2619
  876MOL0     H15619   8.669   6.248   0.962 -4.7596 -1.0122  0.1392
  876MOL0     H15620   8.367   6.129   0.899  0.3473 -1.2879  0.6130
  876MOL0     H15621   8.181   6.076   0.749  2.0952 -1.4495  0.7746
  876MOL0     H15622   7.749   5.954   0.827 -0.1776  1.3125 -0.7397
  876MOL0     H15623   7.844   5.959   0.979  0.2792 -1.2060  1.0381
  876MOL0     H15624   7.984   5.800   0.912 -0.2201 -3.1901  0.1488
  876MOL0     H15625   7.832   5.751   0.848 -2.0266  2.2665 -0.4295
  876MOL0     H15626   8.044   5.872   0.665  0.3196  0.8812  3.7654
  876MOL0     H15627   7.882   5.823   0.611 -0.5631  1.6076 -0.0707
  876MOL0     H15628   7.908   5.605   0.682  1.5336 -2.7123  2.8117
  876MOL0     H15629   8.031   5.663   0.558 -0.5880 -2.7916 -0.2916
  876MOL0     H15630   8.241   5.507   0.888  1.4796  0.6192 -0.2167
  876MOL0     H15631   7.904   6.136   1.063 -0.2495 -0.9775 -1.7561
  876MOL0     H15632   8.083   6.248   1.194 -2.2968  1.8124 -0.5044
  877MOL0     O15633   4.351   3.579   0.933  0.2617 -0.2955  0.1434
  877MOL0     C15634   4.326   3.458   0.942  0.2718  0.2040 -0.0576
  877MOL0     O15635   4.227   3.408   1.024  0.3296 -0.0801  0.2758
  877MOL0     C15636   4.115   3.485   1.049 -0.0668 -0.6422  0.3033
  877MOL0     C15637   4.059   3.572   0.962  0.3741  0.4534  0.9478
  877MOL0     C15638   3.940   3.641   1.005 -0.8154  0.1511  0.1502
  877MOL0     C15639   3.881   3.613   1.133 -0.0975 -0.1666  0.1156
  877MOL0     O15640   3.751   3.658   1.153 -0.7085 -0.1618 -0.0333
  877MOL0     C15641   3.685   3.663   1.280  0.1318  0.5201  0.1409
  877MOL0     C15642   3.571   3.760   1.264  0.8700  0.6013 -0.2671
  877MOL0     C15643   3.609   3.904   1.273 -0.3067  0.0166 -0.5519
  877MOL0     C15644   3.547   3.988   1.159  0.5569  0.3351  1.2230
  877MOL0     C15645   3.606   3.951   1.021  0.5796  0.0062 -0.3677
  877MOL0     C15646   3.540   4.044   0.919  0.7936  0.4107 -0.5950
  877MOL0     C15647   3.587   4.023   0.775 -0.1870  0.9890 -0.3808
  877MOL0     C15648   3.569   3.878   0.712  0.7805 -0.1492  0.4110
  877MOL0     N15649   3.642   3.865   0.590 -0.1664  0.9087 -0.6827
  877MOL0     C15650   3.621   3.929   0.471 -0.3568  0.6004  0.1993
  877MOL0     C15651   3.699   3.857   0.381  0.4399 -0.5748 -0.7142
  877MOL0     C15652   3.692   3.865   0.233 -1.2333  0.2448 -0.2483
  877MOL0     C15653   3.552   3.882   0.178  0.3956  0.1236 -0.4662
  877MOL0     C15654   3.493   3.759   0.124  0.5498  0.6062  0.1712
  877MOL0     C15655   3.341   3.766   0.120 -0.1322 -0.4374  0.0595
  877MOL0     O15656   3.298   3.731   0.251  1.1759 -0.0202 -0.4662
  877MOL0     C15657   3.164   3.721   0.280  0.5882 -0.3585  0.5833
  877MOL0     C15658   3.115   3.708   0.409  0.3842 -0.6989 -0.0440
  877MOL0     C15659   2.981   3.694   0.441 -0.7516 -0.7466 -0.1598
  877MOL0     C15660   2.881   3.687   0.340  0.1574 -0.1337 -0.2923
  877MOL0     C15661   2.748   3.639   0.376  0.0957  1.6703  0.1362
  877MOL0     O15662   2.655   3.607   0.285  0.0796 -0.4278  0.8165
  877MOL0     C15663   2.531   3.557   0.321  0.3216  0.4127  0.5896
  877MOL0     C15664   2.521   3.437   0.399  0.0161 -0.4657  0.2061
  877MOL0     C15665   2.396   3.392   0.425 -0.0098  0.2211 -0.8218
  877MOL0     C15666   2.276   3.452   0.390  0.0359  0.2724 -0.0219
  877MOL0     O15667   2.165   3.399   0.433 -0.1029 -0.6013  0.8875
  877MOL0     C15668   2.044   3.453   0.375  0.2287 -1.0351  0.1911
  877MOL0     C15669   1.934   3.345   0.411  0.2400 -0.1461  0.1495
  877MOL0     C15670   1.984   3.200   0.383 -0.5771  0.1333  0.2931
  877MOL0     C15671   1.877   3.091   0.422 -0.8701 -0.7222  0.0332
  877MOL0     C15672   1.775   3.071   0.310  1.1825  0.8255 -0.2009
  877MOL0     C15673   1.672   2.961   0.345  0.5611 -0.4345  0.1797
  877MOL0     C15674   1.582   2.927   0.231  0.1963 -0.5240  0.1029
  877MOL0     C15675   1.444   2.866   0.279 -0.1249  0.0948  0.3279
  877MOL0    Cl15676   1.368   2.757   0.162 -0.1391  0.1665  0.5686
  877MOL0     C15677   2.289   3.574   0.315  0.0658 -0.6741 -0.0251
  877MOL0     C15678   2.414   3.621   0.274 -0.4834 -0.1488  0.2360
  877MOL0     O15679   2.729   3.618   0.496  0.5285  0.1499  0.8517
  877MOL0     C15680   2.929   3.712   0.211 -0.3517  0.4669 -0.0978
  877MOL0     C15681   3.064   3.734   0.180  0.8548 -0.1406 -0.0068
  877MOL0     N15682   3.764   3.755   0.447  0.4185 -0.4162  0.0646
  877MOL0     N15683   3.728   3.758   0.569 -0.3229 -0.3258 -0.9743
  877MOL0     C15684   3.944   3.523   1.213  0.1836 -0.3158  1.5355
  877MOL0     C15685   4.063   3.459   1.175 -0.2766 -0.0001  0.2182
  877MOL0     C15686   4.390   3.367   0.847 -0.0479  0.0552  0.5972
  877MOL0     C15687   4.395   3.226   0.858 -0.2112 -0.6352  0.0018
  877MOL0     C15688   4.474   3.151   0.767  0.3387 -0.8654  0.3081
  877MOL0     C15689   4.533   3.213   0.659  0.7199 -0.6222 -0.4427
  877MOL0     O15690   4.588   3.133   0.569  0.1686 -0.1339  0.4453
  877MOL0     C15691   4.664   3.192   0.457  0.9114 -0.0184 -1.2219
  877MOL0     C15692   4.724   3.081   0.362 -0.4287 -0.8665  0.5302
  877MOL0     C15693   4.819   2.990   0.444  0.7378  0.4030 -0.3873
  877MOL0     C15694   4.749   2.870   0.525 -0.1268 -0.0948 -0.1700
  877MOL0     C15695   4.851   2.765   0.547 -0.0367  1.2627  1.0008
  877MOL0     C15696   4.942   2.688   0.563  0.5413  0.7812  1.2156
  877MOL0     C15697   4.529   3.347   0.651  0.6529 -0.3975 -0.2707
  877MOL0     C15698   4.465   3.428   0.745  0.3489 -0.2930  0.5554
  877MOL0     H15699   4.099   3.588   0.863 -2.7850 -1.2736 -0.7387
  877MOL0     H15700   3.899   3.711   0.933  0.2128 -3.1409 -4.0197
  877MOL0     H15701   3.752   3.693   1.361 -0.6803  0.9087  0.6826
  877MOL0     H15702   3.636   3.568   1.301 -0.5885  1.2580  1.9441
  877MOL0     H15703   3.495   3.747   1.342  0.4758  3.2593 -0.1029
  877MOL0     H15704   3.529   3.730   1.168 -3.0598  0.8962  1.1970
  877MOL0     H15705   3.719   3.904   1.266 -0.0761  2.7018  1.4852
  877MOL0     H15706   3.581   3.939   1.373  1.6737 -0.0705  0.0795
  877MOL0     H15707   3.438   3.980   1.157  0.6020 -0.3044  1.1110
  877MOL0     H15708   3.565   4.096   1.172  0.6569  0.3743  0.7693
  877MOL0     H15709   3.588   3.844   1.006  2.7082 -1.1391  3.6577
  877MOL0     H15710   3.715   3.958   1.017  0.6403 -1.1420 -1.0978
  877MOL0     H15711   3.576   4.141   0.956  7.2318 -1.4838 -0.5664
  877MOL0     H15712   3.434   4.019   0.923  1.0652 -1.4592 -2.9018
  877MOL0     H15713   3.515   4.078   0.714 -0.4364  0.3433 -0.6739
  877MOL0     H15714   3.685   4.067   0.753  0.0381 -0.2458 -2.0260
  877MOL0     H15715   3.464   3.862   0.688  1.0378 -0.9800 -0.1980
  877MOL0     H15716   3.602   3.803   0.785 -1.5923 -0.1460  1.5629
  877MOL0     H15717   3.560   4.015   0.446  1.1658  1.3277 -1.2382
  877MOL0     H15718   3.742   3.782   0.184 -3.0225 -1.3334  0.4649
  877MOL0     H15719   3.753   3.950   0.203 -0.5023  0.1382  0.8819
  877MOL0     H15720   3.562   3.959   0.101  2.5397  0.3942  0.0287
  877MOL0     H15721   3.490   3.918   0.261 -0.8159 -1.2812 -0.7110
  877MOL0     H15722   3.535   3.741   0.024  3.1952 -0.8226  1.4409
  877MOL0     H15723   3.523   3.673   0.185 -3.8268 -3.2478 -2.4639
  877MOL0     H15724   3.303   3.699   0.042  3.1478  0.2110 -2.2804
  877MOL0     H15725   3.307   3.867   0.094  0.0602 -0.7289 -1.3938
  877MOL0     H15726   3.193   3.712   0.483 -2.3565 -0.2452  3.0611
  877MOL0     H15727   2.946   3.677   0.542  1.1140 -1.7088  0.3743
  877MOL0     H15728   2.610   3.391   0.440  2.0259  1.1538 -2.0288
  877MOL0     H15729   2.377   3.298   0.476 -0.3155  1.1076  0.7484
  877MOL0     H15730   2.042   3.462   0.266 -3.4626 -1.6301  0.0689
  877MOL0     H15731   2.017   3.553   0.410  2.2434  0.5286 -2.3589
  877MOL0     H15732   1.849   3.363   0.344 -0.0312 -0.0484  0.5144
  877MOL0     H15733   1.895   3.361   0.512  0.5076  1.2975  0.0481
  877MOL0     H15734   2.076   3.191   0.441  0.7225  3.3062 -1.0684
  877MOL0     H15735   2.008   3.190   0.277  1.1705  0.2663  0.6536
  877MOL0     H15736   1.940   3.004   0.444  0.2505  0.3086  1.0531
  877MOL0     H15737   1.840   3.118   0.522 -2.1122  0.5057 -0.7249
  877MOL0     H15738   1.820   3.039   0.216 -3.2763 -1.4909 -1.8324
  877MOL0     H15739   1.728   3.167   0.287  1.2162  0.5208 -1.6408
  877MOL0     H15740   1.611   3.002   0.427 -0.5885  4.1837 -2.5944
  877MOL0     H15741   1.715   2.864   0.371 -0.1873 -0.6996  0.4583
  877MOL0     H15742   1.557   3.022   0.185  0.0972 -0.6663 -0.1368
  877MOL0     H15743   1.627   2.851   0.166 -1.8370  0.4311 -2.5887
  877MOL0     H15744   1.374   2.945   0.309 -0.5479 -1.3186  3.4471
  877MOL0     H15745   1.455   2.812   0.374 -2.0574 -0.6084  0.1927
  877MOL0     H15746   2.196   3.618   0.280 -1.4566 -1.3856  2.7792
  877MOL0     H15747   2.413   3.707   0.208  0.9124  0.9742  1.6132
  877MOL0     H15748   2.849   3.721   0.138  0.1701  0.5004 -0.6712
  877MOL0     H15749   3.083   3.731   0.074 -0.4858  0.5294 -0.2868
  877MOL0     H15750   3.897   3.507   1.310  1.1770  1.1580  2.2924
  877MOL0     H15751   4.117   3.390   1.239 -0.0681  0.6827  0.7909
  877MOL0     H15752   4.328   3.178   0.929  0.4740 -2.3969 -0.4739
  877MOL0     H15753   4.482   3.043   0.762 -0.7617 -0.9080 -1.3740
  877MOL0     H15754   4.744   3.256   0.494 -0.7460 -0.0867  3.0743
  877MOL0     H15755   4.598   3.248   0.390 -0.4109 -1.5456 -1.2650
  877MOL0     H15756   4.635   3.036   0.317 -3.6392  1.9174  3.4012
  877MOL0     H15757   4.783   3.143   0.294 -0.1359  0.5064  1.9637
  877MOL0     H15758   4.868   3.056   0.517  3.0051 -1.5375 -0.0549
  877MOL0     H15759   4.899   2.950   0.381 -0.0502  0.3188 -1.3670
  877MOL0     H15760   4.718   2.915   0.620  1.1239  2.3360 -0.8455
  877MOL0     H15761   4.664   2.827   0.471  0.6942 -0.9169 -0.8199
  877MOL0     H15762   5.024   2.622   0.582  1.0980  1.6953  2.0964
  877MOL0     H15763   4.580   3.406   0.575  1.7084  2.3645  2.3742
  877MOL0     H15764   4.484   3.534   0.730  1.7428 -0.8813 -3.1047
  878MOL0     O15765  11.338   9.438  10.464  0.7211 -0.1722  0.2037
  878MOL0     C15766  11.238   9.388  10.516  0.2619  0.3074  0.7893
  878MOL0     O15767  11.235   9.353  10.651 -0.1110 -0.2345  0.5324
  878MOL0     C15768  11.350   9.390  10.720 -0.2175 -0.7979 -0.9497
  878MOL0     C15769  11.412   9.284  10.787  0.8315  0.1134 -0.7081
  878MOL0     C15770  11.527   9.309  10.866 -0.4634 -0.2599 -0.3657
  878MOL0     C15771  11.581   9.443  10.865  0.4071 -0.0983  0.8361
  878MOL0     O15772  11.699   9.477  10.928 -0.2804  0.0252 -0.0007
  878MOL0     C15773  11.802   9.372  10.931 -0.0346  0.1951  0.0616
  878MOL0     C15774  11.912   9.428  11.024 -0.4728  1.3738 -0.8616
  878MOL0     C15775  12.005   9.531  10.960 -0.0299 -0.7428  0.0087
  878MOL0     C15776  12.126   9.561  11.056  0.2071  1.0620  0.3024
  878MOL0     C15777  12.222   9.652  10.975  0.0278 -0.3992 -0.1782
  878MOL0     C15778  12.358   9.692  11.044  0.7819 -0.0947 -0.4920
  878MOL0     C15779  12.468   9.587  11.025  0.2360  0.0387 -0.0263
  878MOL0     C15780  12.601   9.632  11.083  0.7296 -0.0879 -0.3647
  878MOL0     N15781  12.705   9.533  11.071 -0.3063  0.2794  0.0517
  878MOL0     C15782  12.745   9.473  10.946  0.5387  0.3546 -0.5047
  878MOL0     C15783  12.826   9.371  10.977  0.4464  0.4266  0.1483
  878MOL0     C15784  12.873   9.274  10.883  0.2553  0.1014  0.7730
  878MOL0     C15785  12.774   9.206  10.781 -0.3305 -0.0827 -0.2210
  878MOL0     C15786  12.650   9.133  10.835  0.3838  0.9679  1.5388
  878MOL0     C15787  12.582   9.046  10.728 -0.0317  0.4031 -0.2659
  878MOL0     O15788  12.471   8.970  10.781 -0.1952  0.4391  0.1875
  878MOL0     C15789  12.368   8.951  10.693  0.0345 -0.2215 -0.2413
  878MOL0     C15790  12.250   8.901  10.752  0.2685 -0.1687  0.3805
  878MOL0     C15791  12.130   8.886  10.683  0.0001  0.0682 -0.3754
  878MOL0     C15792  12.132   8.897  10.546 -0.5193 -0.6875  0.5120
  878MOL0     C15793  12.002   8.875  10.461 -0.9759  0.1978  0.4725
  878MOL0     O15794  11.903   8.807  10.519  0.6729  0.1865 -0.1160
  878MOL0     C15795  11.784   8.769  10.446 -0.3824 -0.1882  0.2457
  878MOL0     C15796  11.694   8.700  10.527  0.2400  0.7737  0.6945
  878MOL0     C15797  11.573   8.646  10.472 -0.1673  1.0420  0.4490
  878MOL0     C15798  11.534   8.671  10.340 -0.2023 -0.8050  0.3999
  878MOL0     O15799  11.412   8.622  10.300 -0.7600  0.1391  0.2185
  878MOL0     C15800  11.400   8.571  10.163  0.5246 -0.6017  0.4378
  878MOL0     C15801  11.255   8.532  10.140  0.7866  0.2796  0.4225
  878MOL0     C15802  11.235   8.458  10.010  0.2674  0.8115 -0.3173
  878MOL0     C15803  11.083   8.417   9.991  0.2426 -0.2645  0.3905
  878MOL0     C15804  11.031   8.383   9.851 -0.0534  0.0729 -0.0697
  878MOL0     C15805  10.918   8.270   9.854  0.3108  0.3782  0.0747
  878MOL0     C15806  10.916   8.202   9.717  1.2154 -0.5707 -0.1978
  878MOL0     C15807  10.803   8.104   9.701 -0.9618  0.7213  0.4719
  878MOL0    Cl15808  10.644   8.168   9.648 -0.3230 -0.0378 -0.3699
  878MOL0     C15809  11.620   8.750  10.259  0.9036  0.9457 -0.1662
  878MOL0     C15810  11.740   8.808  10.309 -0.4495  0.1756 -0.3597
  878MOL0     O15811  12.001   8.914  10.347  1.0009 -0.2445  0.7428
  878MOL0     C15812  12.254   8.930  10.483 -0.6058  0.3360  0.3831
  878MOL0     C15813  12.370   8.961  10.551 -0.4264  0.2022 -0.1281
  878MOL0     N15814  12.836   9.369  11.113  0.3504 -1.2714  0.3490
  878MOL0     N15815  12.775   9.467  11.168 -0.3498 -0.6479 -0.6279
  878MOL0     C15816  11.520   9.548  10.794  0.5131  0.3104  0.2747
  878MOL0     C15817  11.399   9.522  10.730  1.2446  0.3794 -0.0412
  878MOL0     C15818  11.112   9.366  10.440  0.0160 -0.5462 -0.7956
  878MOL0     C15819  11.088   9.446  10.326 -0.5093  0.3515  0.2627
  878MOL0     C15820  10.958   9.442  10.261 -0.8002 -0.3634  0.0626
  878MOL0     C15821  10.859   9.355  10.300  0.6095  0.6040 -0.4913
  878MOL0     O15822  10.745   9.352  10.236  0.8293  0.5708  0.7475
  878MOL0     C15823  10.638   9.256  10.249  0.1551  0.1830 -0.2723
  878MOL0     C15824  10.532   9.308  10.357 -0.7960  0.4368  0.2300
  878MOL0     C15825  10.484   9.450  10.326  0.4767  0.1456  0.2623
  878MOL0     C15826  10.397   9.469  10.201  0.7087  0.0804  0.5582
  878MOL0     C15827  10.268   9.397  10.212 -0.9106  0.6209  0.1344
  878MOL0     C15828  10.158   9.356  10.199  0.6560 -0.0860 -0.1601
  878MOL0     C15829  10.889   9.269  10.408 -0.3454  0.7922  0.1276
  878MOL0     C15830  11.012   9.273  10.473 -0.4733  0.3928  0.5062
  878MOL0     H15831  11.371   9.183  10.785  2.2510 -0.6264  2.2549
  878MOL0     H15832  11.578   9.237  10.930 -1.9053 -2.3946 -1.4590
  878MOL0     H15833  11.830   9.346  10.829  1.9136  1.5292  0.1990
  878MOL0     H15834  11.762   9.281  10.977  1.7296  0.1556  1.6435
  878MOL0     H15835  11.978   9.345  11.049 -1.7315  1.0825  1.9193
  878MOL0     H15836  11.872   9.467  11.119  1.6487 -1.0449  1.1726
  878MOL0     H15837  11.955   9.620  10.920 -0.8736 -1.2146  0.0150
  878MOL0     H15838  12.049   9.480  10.873 -2.2736 -1.2705 -0.8652
  878MOL0     H15839  12.093   9.619  11.143 -0.8882 -2.2710  2.2808
  878MOL0     H15840  12.164   9.466  11.094 -0.8530 -0.2223 -1.6782
  878MOL0     H15841  12.172   9.737  10.929  0.9362 -1.0943 -2.5821
  878MOL0     H15842  12.250   9.593  10.887 -1.9174 -2.1683  0.2866
  878MOL0     H15843  12.340   9.692  11.152 -2.0024  1.4081 -0.8612
  878MOL0     H15844  12.397   9.791  11.016  0.4038  0.2788  0.2601
  878MOL0     H15845  12.441   9.496  11.080  3.6336 -1.5627 -0.7300
  878MOL0     H15846  12.473   9.568  10.918 -2.1470  2.9241 -0.7914
  878MOL0     H15847  12.596   9.678  11.182  0.9899 -2.9274  1.0705
  878MOL0     H15848  12.634   9.713  11.018  0.4316  1.5145  1.4112
  878MOL0     H15849  12.702   9.496  10.849  2.3340 -0.1172 -1.4475
  878MOL0     H15850  12.909   9.196  10.951 -1.8908 -1.1308  0.6018
  878MOL0     H15851  12.941   9.319  10.811 -0.5423 -0.0186 -0.0684
  878MOL0     H15852  12.845   9.144  10.726 -0.4184 -1.5013  1.2011
  878MOL0     H15853  12.736   9.287  10.717 -1.1995 -0.6020 -0.3720
  878MOL0     H15854  12.679   9.065  10.916 -0.7411  0.0628  1.1986
  878MOL0     H15855  12.582   9.208  10.875  0.3339  1.7715  0.0120
  878MOL0     H15856  12.659   8.977  10.691  1.2106  0.7841  1.4519
  878MOL0     H15857  12.558   9.111  10.644  0.4851 -2.9021 -3.1915
  878MOL0     H15858  12.258   8.865  10.854 -3.1503 -1.0403  0.4592
  878MOL0     H15859  12.037   8.867  10.735  0.4597 -2.0550 -0.2470
  878MOL0     H15860  11.728   8.673  10.626  3.4164  2.0372  0.0811
  878MOL0     H15861  11.502   8.590  10.531  2.9665 -2.1498  1.5233
  878MOL0     H15862  11.455   8.477  10.155  2.7481  0.7102 -0.7168
  878MOL0     H15863  11.443   8.639  10.088 -0.9575 -2.3148 -2.1523
  878MOL0     H15864  11.189   8.619  10.137 -0.8906 -0.9631 -0.5712
  878MOL0     H15865  11.224   8.463  10.219  0.1118 -0.0998 -0.1591
  878MOL0     H15866  11.288   8.362  10.011  0.1869  0.7260  2.4810
  878MOL0     H15867  11.269   8.511   9.921 -0.2884 -0.2741 -1.2196
  878MOL0     H15868  11.064   8.331  10.056  0.7842 -0.5271  0.2009
  878MOL0     H15869  11.024   8.501  10.030  2.3007  1.6376 -0.3443
  878MOL0     H15870  11.116   8.342   9.796  1.3053  0.5873  1.5754
  878MOL0     H15871  10.999   8.473   9.799  1.7566  0.1502 -1.1513
  878MOL0     H15872  10.827   8.324   9.879  0.4704  0.6089  0.1553
  878MOL0     H15873  10.947   8.198   9.931 -0.4134  0.1802  0.1632
  878MOL0     H15874  10.909   8.286   9.647  1.5653  0.4177  0.9077
  878MOL0     H15875  11.010   8.150   9.695  1.5340  0.0344 -0.2950
  878MOL0     H15876  10.788   8.039   9.788 -1.5699 -2.1955 -1.6412
  878MOL0     H15877  10.833   8.036   9.621 -3.7159 -1.6555  1.2829
  878MOL0     H15878  11.582   8.780  10.162 -0.8873  0.3252  0.3116
  878MOL0     H15879  11.793   8.880  10.247 -0.0744  0.7034  0.5351
  878MOL0     H15880  12.252   8.927  10.375  3.5267  0.2508  0.1541
  878MOL0     H15881  12.458   8.987  10.493  0.8849  3.4356  2.9085
  878MOL0     H15882  11.564   9.646  10.808  0.4145  0.9726 -3.1717
  878MOL0     H15883  11.349   9.605  10.680 -1.3721  0.0139  1.7792
  878MOL0     H15884  11.160   9.519  10.290  1.0524 -0.8160  0.8846
  878MOL0     H15885  10.937   9.526  10.196  0.1645  2.9021  3.5884
  878MOL0     H15886  10.689   9.165  10.283  1.0868 -0.1838 -2.4703
  878MOL0     H15887  10.593   9.243  10.150 -1.3461  1.5944  0.1865
  878MOL0     H15888  10.447   9.240  10.355 -1.1159  0.7991 -2.5164
  878MOL0     H15889  10.573   9.317  10.458 -1.0077  0.8502  0.2843
  878MOL0     H15890  10.566   9.523  10.321  0.3984  0.2029 -0.3650
  878MOL0     H15891  10.430   9.481  10.416  3.0650  1.3678  1.5176
  878MOL0     H15892  10.365   9.573  10.192 -2.3341 -0.5751  2.4604
  878MOL0     H15893  10.460   9.442  10.116  1.0773 -1.6150  1.3334
  878MOL0     H15894  10.061   9.316  10.177  1.0078 -0.6121 -0.8030
  878MOL0     H15895  10.812   9.200  10.441  2.4952 -2.8263 -0.1324
  878MOL0     H15896  11.029   9.203  10.554  1.7643  2.2601  1.7806
  879MOL0     O15897   7.501   6.223   0.202  0.1458 -0.4185 -0.2004
  879MOL0     C15898   7.573   6.277   0.285  0.5219  0.3234  0.1471
  879MOL0     O15899   7.547   6.298   0.418  0.7794  0.7552  0.2511
  879MOL0     C15900   7.417   6.273   0.451 -0.2235 -0.1382  0.3639
  879MOL0     C15901   7.386   6.148   0.506  0.2607 -0.7657 -0.5456
  879MOL0     C15902   7.257   6.129   0.558 -0.5772 -0.1228  0.9681
  879MOL0     C15903   7.160   6.230   0.549 -1.3048  0.8352 -0.4194
  879MOL0     O15904   7.041   6.188   0.591 -0.0061  0.5369 -1.1473
  879MOL0     C15905   6.921   6.274   0.603 -0.4782 -0.2108  0.0565
  879MOL0     C15906   6.797   6.200   0.606  0.1002  0.0423 -0.2763
  879MOL0     C15907   6.686   6.309   0.617  0.6461  0.2159 -0.7223
  879MOL0     C15908   6.547   6.251   0.584  0.6928  1.0675  0.2860
  879MOL0     C15909   6.441   6.357   0.618  0.5209  0.0535 -0.2097
  879MOL0     C15910   6.304   6.294   0.602 -0.0892  0.0697  0.3207
  879MOL0     C15911   6.189   6.388   0.650 -0.1643 -0.3317  1.0415
  879MOL0     C15912   6.063   6.303   0.667  0.3732  0.1371  0.5909
  879MOL0     N15913   5.947   6.385   0.709  0.6313 -0.0597  0.0045
  879MOL0     C15914   5.937   6.523   0.691 -0.2529  0.0995 -1.0519
  879MOL0     C15915   5.819   6.550   0.751 -0.5383 -0.4242  0.1997
  879MOL0     C15916   5.756   6.683   0.741  0.4831  0.5696  0.0066
  879MOL0     C15917   5.613   6.656   0.676  0.1272  0.1324 -0.5371
  879MOL0     C15918   5.538   6.789   0.647 -0.5765 -0.0472 -0.1653
  879MOL0     C15919   5.413   6.759   0.571 -0.3380  0.5205 -0.1167
  879MOL0     O15920   5.309   6.718   0.663  0.0546  0.4836  0.8422
  879MOL0     C15921   5.181   6.710   0.616  0.3213 -0.8323 -0.2737
  879MOL0     C15922   5.085   6.714   0.721 -0.3050 -0.0358  0.1689
  879MOL0     C15923   4.946   6.721   0.699  0.4198 -0.0421 -0.0147
  879MOL0     C15924   4.905   6.751   0.567 -0.0705 -0.0288  0.1136
  879MOL0     C15925   4.763   6.782   0.550  0.2135  0.2403  0.2845
  879MOL0     O15926   4.679   6.735   0.646 -0.5160 -0.6861  0.4919
  879MOL0     C15927   4.537   6.750   0.636 -0.0463  0.8386  0.0633
  879MOL0     C15928   4.472   6.749   0.510  0.2930  0.0842  0.5210
  879MOL0     C15929   4.336   6.774   0.500  0.2480  1.0163  0.2627
  879MOL0     C15930   4.259   6.795   0.616 -1.5849 -0.4450  0.5710
  879MOL0     O15931   4.124   6.808   0.602 -0.4541 -0.3829 -0.2825
  879MOL0     C15932   4.042   6.722   0.677 -0.1954 -0.0477 -0.5932
  879MOL0     C15933   3.899   6.754   0.635  0.0905 -0.1680 -0.6767
  879MOL0     C15934   3.801   6.779   0.762 -0.2977  0.4967  0.4999
  879MOL0     C15935   3.662   6.825   0.726 -0.0365  0.4109  0.2092
  879MOL0     C15936   3.574   6.851   0.852 -0.3547 -0.8772  0.5246
  879MOL0     C15937   3.430   6.910   0.817 -0.3534 -0.3035 -0.3959
  879MOL0     C15938   3.347   6.829   0.721 -1.5630 -0.8086  0.3121
  879MOL0     C15939   3.193   6.852   0.732  0.0164  0.7121  0.3475
  879MOL0    Cl15940   3.142   7.017   0.713 -0.0771  0.7070  0.0374
  879MOL0     C15941   4.326   6.790   0.742  0.0060 -0.3937 -0.5872
  879MOL0     C15942   4.461   6.761   0.753 -0.1215 -0.7060 -0.0255
  879MOL0     O15943   4.726   6.841   0.450 -0.4642 -0.4647 -0.2351
  879MOL0     C15944   5.000   6.733   0.461 -0.3387 -0.4860  0.1569
  879MOL0     C15945   5.141   6.720   0.487 -0.5039 -0.4802  0.9840
  879MOL0     N15946   5.767   6.434   0.810 -0.1104 -0.0955  0.0782
  879MOL0     N15947   5.847   6.342   0.791 -0.6591  0.0779 -0.6610
  879MOL0     C15948   7.195   6.348   0.492 -0.2423  0.1531  0.6762
  879MOL0     C15949   7.325   6.375   0.441  0.2309  0.0357 -0.0963
  879MOL0     C15950   7.698   6.324   0.232 -0.2188 -0.2247 -0.7312
  879MOL0     C15951   7.729   6.310   0.100 -0.0376 -0.1669  0.1457
  879MOL0     C15952   7.843   6.368   0.043  0.0264 -0.1399 -0.3993
  879MOL0     C15953   7.930   6.449   0.122 -0.2898 -0.4374  0.9425
  879MOL0     O15954   8.032   6.513   0.052 -0.0654 -0.0471  0.6170
  879MOL0     C15955   8.154   6.455   0.061 -0.0614  0.2728  0.3532
  879MOL0     C15956   8.253   6.568   0.030 -0.7436 -0.9997 -0.5490
  879MOL0     C15957   8.399   6.524   0.009 -0.7034  0.3783  0.1174
  879MOL0     C15958   8.492   6.641  -0.031 -0.7055  0.0019 -0.0372
  879MOL0     C15959   8.618   6.584  -0.085 -0.3215 -0.1350 -0.0300
  879MOL0     C15960   8.707   6.526  -0.146 -0.3810 -0.2086 -0.1705
  879MOL0     C15961   7.906   6.451   0.255  1.0287  0.1040  0.0416
  879MOL0     C15962   7.789   6.392   0.310  0.0702 -0.2066 -0.2496
  879MOL0     H15963   7.466   6.075   0.502  2.4177  1.4505 -0.3585
  879MOL0     H15964   7.252   6.026   0.589  3.6386 -1.3510 -1.5509
  879MOL0     H15965   6.922   6.350   0.524 -0.0219  0.3719  0.6099
  879MOL0     H15966   6.938   6.337   0.690 -0.5793  0.6712 -0.5479
  879MOL0     H15967   6.809   6.133   0.692 -1.8903 -0.2555 -0.1925
  879MOL0     H15968   6.780   6.147   0.512 -2.0799  0.7386 -0.3345
  879MOL0     H15969   6.707   6.390   0.547  3.2072 -0.6144 -1.0106
  879MOL0     H15970   6.683   6.347   0.720  2.8284 -1.1164 -0.1044
  879MOL0     H15971   6.540   6.217   0.480  0.2641 -1.8806  1.1978
  879MOL0     H15972   6.523   6.165   0.647 -1.1676  1.1431 -0.2877
  879MOL0     H15973   6.461   6.440   0.549 -2.2759  2.7487  1.9091
  879MOL0     H15974   6.457   6.383   0.723 -1.2433 -2.2005  0.7019
  879MOL0     H15975   6.308   6.218   0.681  1.3098  1.3830  1.5840
  879MOL0     H15976   6.285   6.259   0.501 -2.9965  0.3028  0.7139
  879MOL0     H15977   6.222   6.426   0.747 -1.3634 -1.5565  1.9546
  879MOL0     H15978   6.173   6.471   0.581  0.1854 -0.6441  0.5734
  879MOL0     H15979   6.074   6.224   0.741  0.7926 -0.3507  0.0088
  879MOL0     H15980   6.027   6.254   0.576  3.1370  2.4958 -1.9836
  879MOL0     H15981   5.982   6.601   0.630  0.3542  1.1308  0.6470
  879MOL0     H15982   5.813   6.750   0.676 -1.3898  0.8546 -1.3979
  879MOL0     H15983   5.747   6.732   0.838  0.4057 -1.2971  0.9765
  879MOL0     H15984   5.546   6.600   0.741 -0.5286  1.6765  0.1710
  879MOL0     H15985   5.631   6.604   0.582  1.7506  0.0565 -0.2155
  879MOL0     H15986   5.519   6.843   0.740  0.9756  0.1165  0.0894
  879MOL0     H15987   5.598   6.851   0.579 -1.5209  2.6074  1.2830
  879MOL0     H15988   5.433   6.681   0.497 -1.1271  1.2961 -1.1754
  879MOL0     H15989   5.378   6.856   0.534  0.0128  2.9807  5.0513
  879MOL0     H15990   5.135   6.729   0.817  0.8466 -1.0788 -0.2452
  879MOL0     H15991   4.879   6.713   0.783  1.9556 -1.1331  1.1744
  879MOL0     H15992   4.521   6.727   0.415  2.9350  1.2276  1.5283
  879MOL0     H15993   4.300   6.785   0.398 -1.7147  2.5667  1.0505
  879MOL0     H15994   4.056   6.736   0.784 -3.6870 -2.6987  0.4173
  879MOL0     H15995   4.063   6.618   0.651 -0.1924 -0.1559 -0.1651
  879MOL0     H15996   3.864   6.688   0.556 -1.3171  0.3460 -0.5122
  879MOL0     H15997   3.909   6.850   0.583  0.5734  1.8547  2.7882
  879MOL0     H15998   3.842   6.863   0.818 -1.2602 -0.0177  2.0374
  879MOL0     H15999   3.806   6.688   0.823  1.6604  1.6086  2.1112
  879MOL0     H16000   3.670   6.925   0.682 -0.1011  1.3867  2.2759
  879MOL0     H16001   3.622   6.748   0.659  2.0782  0.6482 -1.4360
  879MOL0     H16002   3.633   6.919   0.913  1.4090 -3.2865  1.6710
  879MOL0     H16003   3.563   6.759   0.910 -1.2450 -0.7467  0.5760
  879MOL0     H16004   3.451   7.010   0.778 -0.2214 -1.2569 -2.9389
  879MOL0     H16005   3.381   6.917   0.915 -1.3246  3.3587 -1.0312
  879MOL0     H16006   3.392   6.836   0.622 -1.1167  0.7793  0.5961
  879MOL0     H16007   3.371   6.724   0.745  1.0497 -0.3599 -0.0263
  879MOL0     H16008   3.156   6.815   0.828  2.9388  1.1768  1.7820
  879MOL0     H16009   3.140   6.799   0.652 -0.0431  1.6268 -0.2429
  879MOL0     H16010   4.268   6.807   0.832 -1.4222 -0.9796 -1.3559
  879MOL0     H16011   4.518   6.765   0.845  0.1426  0.5291 -0.2335
  879MOL0     H16012   4.957   6.734   0.362  1.3899  0.6655 -0.6380
  879MOL0     H16013   5.219   6.718   0.412  0.5207  1.4873  1.9385
  879MOL0     H16014   7.118   6.421   0.469  0.2441  1.4854  2.9926
  879MOL0     H16015   7.339   6.461   0.377 -1.7724 -2.6801 -4.7017
  879MOL0     H16016   7.672   6.255   0.026  2.5963 -1.4756 -1.0305
  879MOL0     H16017   7.856   6.386  -0.064  2.6401  0.6189 -0.0322
  879MOL0     H16018   8.161   6.382  -0.020  0.5797  1.1984 -0.4413
  879MOL0     H16019   8.171   6.407   0.158  1.9987  2.8721  1.3847
  879MOL0     H16020   8.226   6.614  -0.066 -1.2323 -2.7769 -1.3119
  879MOL0     H16021   8.245   6.640   0.111  0.4971 -3.2078  1.6627
  879MOL0     H16022   8.405   6.447  -0.069  1.6078 -1.6982  2.1609
  879MOL0     H16023   8.443   6.473   0.095  3.8954  2.0800 -0.8843
  879MOL0     H16024   8.439   6.701  -0.105 -0.2225  0.3378 -0.1183
  879MOL0     H16025   8.514   6.720   0.041 -0.2787  0.1300 -0.3035
  879MOL0     H16026   8.788   6.468  -0.185  2.0958  2.3100  0.9100
  879MOL0     H16027   7.964   6.518   0.317 -0.3794 -0.5010  2.1241
  879MOL0     H16028   7.766   6.396   0.416  0.7810  0.1406 -0.0983
  880MOL0     O16029   0.214   3.499   6.726  0.2362 -0.1958  0.1435
  880MOL0     C16030   0.238   3.511   6.842 -0.0215  0.5348 -1.5226
  880MOL0     O16031   0.146   3.537   6.943  0.6666 -0.4996 -0.3507
  880MOL0     C16032   0.019   3.576   6.912 -1.0500  0.2289 -0.2730
  880MOL0     C16033  -0.054   3.512   6.814  0.0204  0.3916  0.4810
  880MOL0     C16034  -0.183   3.552   6.788 -0.7013 -0.8156  1.4029
  880MOL0     C16035  -0.234   3.657   6.855  0.0053 -0.2419 -0.7950
  880MOL0     O16036  -0.362   3.700   6.825 -0.2323  0.4182  0.4798
  880MOL0     C16037  -0.428   3.803   6.895  0.8980 -0.2461 -0.5722
  880MOL0     C16038  -0.587   3.783   6.882  0.2742  0.6127  0.2964
  880MOL0     C16039  -0.662   3.909   6.934 -0.2843 -0.2870 -0.3325
  880MOL0     C16040  -0.809   3.872   6.923 -0.3232 -0.9176 -0.9025
  880MOL0     C16041  -0.898   3.983   6.971  0.8746 -0.3411  0.2215
  880MOL0     C16042  -1.045   3.934   6.957  0.4062 -0.4287 -0.0993
  880MOL0     C16043  -1.141   4.038   7.001 -0.2909 -0.4741  0.5678
  880MOL0     C16044  -1.254   4.043   6.899 -0.0820 -0.1154  0.9392
  880MOL0     N16045  -1.360   4.135   6.947  0.4811  1.0046 -0.1552
  880MOL0     C16046  -1.446   4.127   7.064 -0.2306 -1.4034 -0.1463
  880MOL0     C16047  -1.554   4.208   7.024  0.4502 -1.5943 -0.3929
  880MOL0     C16048  -1.689   4.238   7.085 -0.1031 -0.6362 -0.1105
  880MOL0     C16049  -1.697   4.239   7.238 -0.7221 -0.4172  0.7127
  880MOL0     C16050  -1.824   4.279   7.303  0.3434  1.0313  1.0325
  880MOL0     C16051  -1.952   4.245   7.227  0.3132  0.6131  0.4183
  880MOL0     O16052  -2.062   4.272   7.309  0.6295  0.1278 -0.0726
  880MOL0     C16053  -2.189   4.233   7.266 -0.3255 -0.4761  0.2260
  880MOL0     C16054  -2.217   4.153   7.160  0.9800 -0.6197 -0.1045
  880MOL0     C16055  -2.345   4.115   7.132 -0.0424  1.0809 -0.4841
  880MOL0     C16056  -2.455   4.154   7.210 -0.5409  0.6120  0.6047
  880MOL0     C16057  -2.600   4.113   7.175 -0.0565 -0.7672 -0.1415
  880MOL0     O16058  -2.685   4.115   7.281 -0.7027 -0.7796  0.7252
  880MOL0     C16059  -2.819   4.113   7.261 -0.9751  1.4216  0.2096
  880MOL0     C16060  -2.901   4.201   7.335 -0.1568  0.3076 -0.4447
  880MOL0     C16061  -3.039   4.201   7.330 -0.0117  0.4067 -0.8280
  880MOL0     C16062  -3.106   4.109   7.248  0.3271 -0.0319 -0.8895
  880MOL0     O16063  -3.246   4.114   7.243  0.1550 -0.8459 -0.5198
  880MOL0     C16064  -3.300   4.244   7.214 -0.0621 -0.2950  0.2762
  880MOL0     C16065  -3.447   4.252   7.205 -0.2569  0.8513  0.3044
  880MOL0     C16066  -3.504   4.277   7.347 -0.2985  0.3017  1.1279
  880MOL0     C16067  -3.650   4.307   7.335  0.3861 -0.3516 -0.3007
  880MOL0     C16068  -3.711   4.277   7.473 -0.5249  0.2734  0.0510
  880MOL0     C16069  -3.856   4.325   7.488  0.3107  0.2859 -0.4641
  880MOL0     C16070  -3.914   4.291   7.626  1.1774  0.0934  0.1233
  880MOL0     C16071  -4.045   4.351   7.676  0.2152 -0.4341  0.1736
  880MOL0    Cl16072  -4.186   4.319   7.568 -0.5949  0.1349  0.2589
  880MOL0     C16073  -3.029   4.010   7.186 -0.7652 -0.2535  0.4422
  880MOL0     C16074  -2.883   4.011   7.189 -0.0220 -0.8494  0.8964
  880MOL0     O16075  -2.637   4.098   7.053  0.0735  0.8583 -1.0628
  880MOL0     C16076  -2.428   4.220   7.325 -0.4363  0.6319 -0.8181
  880MOL0     C16077  -2.296   4.260   7.354 -0.4861  0.2700  0.5472
  880MOL0     N16078  -1.533   4.260   6.891  0.1331 -0.6122  0.2197
  880MOL0     N16079  -1.420   4.215   6.851  0.3532  0.0770 -0.5591
  880MOL0     C16080  -0.163   3.719   6.961  0.4614 -0.3085  0.1468
  880MOL0     C16081  -0.034   3.674   6.991  0.2113  0.3764 -0.1382
  880MOL0     C16082   0.371   3.477   6.887  0.1331  0.2030  0.1956
  880MOL0     C16083   0.438   3.381   6.825 -0.3443  0.5647  0.3395
  880MOL0     C16084   0.552   3.336   6.871 -0.7180 -0.8982  0.4789
  880MOL0     C16085   0.620   3.404   6.976 -0.0989 -0.1521  0.0272
  880MOL0     O16086   0.747   3.380   7.006  0.1105 -0.4474  0.4889
  880MOL0     C16087   0.803   3.440   7.124 -0.9505  0.2570  0.4055
  880MOL0     C16088   0.947   3.379   7.144  0.2721  0.1726  0.6632
  880MOL0     C16089   1.062   3.445   7.062 -0.7389  0.5921  0.7822
  880MOL0     C16090   1.201   3.401   7.106 -0.6327 -1.1279 -0.3634
  880MOL0     C16091   1.317   3.473   7.037  0.3146 -0.2302  0.0405
  880MOL0     C16092   1.417   3.533   7.006 -0.2909 -0.3884 -0.2705
  880MOL0     C16093   0.556   3.519   7.028 -0.0023 -0.5071 -0.8030
  880MOL0     C16094   0.422   3.541   6.990 -1.2179 -0.7218  0.0232
  880MOL0     H16095  -0.009   3.428   6.761  0.5257  1.4625 -0.8333
  880MOL0     H16096  -0.248   3.510   6.712 -1.5446  3.0773 -0.3203
  880MOL0     H16097  -0.390   3.894   6.847  2.2153 -0.8833 -0.7564
  880MOL0     H16098  -0.410   3.807   7.003  0.7533  3.6352 -0.5455
  880MOL0     H16099  -0.614   3.689   6.929  1.4903  1.9011  3.8625
  880MOL0     H16100  -0.624   3.780   6.779 -0.3029  1.6659  0.4542
  880MOL0     H16101  -0.638   3.990   6.865 -0.2395 -0.9151 -1.0775
  880MOL0     H16102  -0.644   3.924   7.040  1.2222 -0.6030 -0.5256
  880MOL0     H16103  -0.830   3.858   6.816  0.6705 -0.3672 -1.1866
  880MOL0     H16104  -0.837   3.783   6.980 -0.8688  2.2058  4.3447
  880MOL0     H16105  -0.874   4.068   6.907 -0.1000  1.9221  2.6424
  880MOL0     H16106  -0.880   4.006   7.077 -1.1730  0.0653  0.5216
  880MOL0     H16107  -1.072   3.844   7.014 -0.5922  0.1950  0.4645
  880MOL0     H16108  -1.057   3.911   6.851 -0.9853  1.5125 -0.4348
  880MOL0     H16109  -1.172   4.033   7.106 -1.9153  1.8555  0.2867
  880MOL0     H16110  -1.095   4.137   6.997 -1.5311  0.0862 -1.4323
  880MOL0     H16111  -1.288   3.939   6.886 -0.3896  0.2654 -1.9073
  880MOL0     H16112  -1.220   4.075   6.800  3.2355  1.1191  2.3313
  880MOL0     H16113  -1.434   4.075   7.158 -1.2798  0.7443  1.2784
  880MOL0     H16114  -1.757   4.159   7.052 -0.3267 -1.2671  1.7310
  880MOL0     H16115  -1.736   4.334   7.062 -0.6559 -0.1305  2.7495
  880MOL0     H16116  -1.624   4.307   7.283  0.7643 -0.8849 -0.8685
  880MOL0     H16117  -1.680   4.137   7.273 -4.3928 -1.2729  0.3797
  880MOL0     H16118  -1.819   4.243   7.406 -1.9176  0.0741  0.8681
  880MOL0     H16119  -1.821   4.388   7.315 -0.2297  0.8824  2.7251
  880MOL0     H16120  -1.967   4.137   7.222 -1.9755  0.8760  0.8731
  880MOL0     H16121  -1.954   4.300   7.132  1.3117  1.9644  1.1410
  880MOL0     H16122  -2.136   4.105   7.107  0.2439 -3.0879  0.8157
  880MOL0     H16123  -2.368   4.063   7.039  0.3531  0.7363 -0.3919
  880MOL0     H16124  -2.864   4.276   7.404  0.1658 -1.2726  1.1807
  880MOL0     H16125  -3.083   4.283   7.385  1.2455  2.0026 -2.1067
  880MOL0     H16126  -3.263   4.250   7.111 -0.5888 -1.2501  0.0129
  880MOL0     H16127  -3.259   4.325   7.274  1.9683 -3.6729  3.9574
  880MOL0     H16128  -3.483   4.152   7.179  2.0223  0.1936 -0.6119
  880MOL0     H16129  -3.481   4.327   7.134 -0.1109  0.3907 -0.2663
  880MOL0     H16130  -3.457   4.366   7.388 -1.3762  1.6291 -0.4153
  880MOL0     H16131  -3.478   4.188   7.405  0.0607 -1.1934 -1.1997
  880MOL0     H16132  -3.681   4.406   7.299 -1.6422 -0.9282 -0.2673
  880MOL0     H16133  -3.700   4.240   7.265 -0.8117  1.5737 -1.3852
  880MOL0     H16134  -3.662   4.327   7.556 -3.8594  1.5914  1.4093
  880MOL0     H16135  -3.707   4.169   7.491 -1.0658  0.4507  1.3246
  880MOL0     H16136  -3.919   4.274   7.414  0.3493  0.2678 -0.4847
  880MOL0     H16137  -3.867   4.432   7.469 -0.3487  0.7570  2.1145
  880MOL0     H16138  -3.938   4.185   7.614 -0.1386  0.5693 -2.0983
  880MOL0     H16139  -3.837   4.304   7.702  2.0506  0.0238 -0.7296
  880MOL0     H16140  -4.029   4.457   7.696  1.6013 -0.1321 -2.1937
  880MOL0     H16141  -4.085   4.307   7.768 -1.3185 -1.6241 -0.9976
  880MOL0     H16142  -3.085   3.939   7.126 -2.1484 -0.2041  1.6102
  880MOL0     H16143  -2.825   3.936   7.137 -0.6323  0.4798 -1.8982
  880MOL0     H16144  -2.506   4.251   7.394 -0.9781 -0.9520 -0.6608
  880MOL0     H16145  -2.270   4.322   7.440 -0.7456  1.1505 -0.0019
  880MOL0     H16146  -0.202   3.802   7.020  2.6378  1.9222 -1.3716
  880MOL0     H16147   0.016   3.720   7.075 -1.2352  0.6141  0.6121
  880MOL0     H16148   0.417   3.321   6.736  1.3724 -2.1942  1.6460
  880MOL0     H16149   0.607   3.262   6.813 -1.1898 -0.8085 -0.0924
  880MOL0     H16150   0.731   3.425   7.205 -4.6010 -1.1968 -2.8332
  880MOL0     H16151   0.820   3.546   7.107 -0.4965  0.1801  0.3531
  880MOL0     H16152   0.972   3.394   7.250  0.6730  1.7487  0.3640
  880MOL0     H16153   0.946   3.272   7.120 -0.1674 -0.0182  1.4860
  880MOL0     H16154   1.057   3.554   7.058 -1.5105  0.5279 -1.2954
  880MOL0     H16155   1.028   3.420   6.961 -0.6663  3.3595 -0.0157
  880MOL0     H16156   1.206   3.444   7.206 -0.2396 -0.0900 -0.8154
  880MOL0     H16157   1.212   3.293   7.113 -0.6651 -1.0270  2.0484
  880MOL0     H16158   1.510   3.581   6.982 -0.3136  0.3678  1.0458
  880MOL0     H16159   0.595   3.589   7.101 -2.3613 -1.2365  1.2752
  880MOL0     H16160   0.360   3.623   7.025 -1.4916 -1.2806  0.8681
  881MOL0     O16161   2.498   0.652   5.426 -0.6074 -0.0567 -0.7245
  881MOL0     C16162   2.519   0.729   5.330  0.7339  0.3694 -0.5210
  881MOL0     O16163   2.418   0.788   5.256 -0.0545  0.1438  0.6694
  881MOL0     C16164   2.297   0.735   5.270 -0.1822  0.5827 -0.0476
  881MOL0     C16165   2.184   0.818   5.292 -0.3275  0.1471  0.1780
  881MOL0     C16166   2.061   0.760   5.307 -0.3183  0.6023 -0.0133
  881MOL0     C16167   2.033   0.624   5.303 -0.2613  0.1060 -0.2608
  881MOL0     O16168   1.902   0.586   5.332 -0.0395 -0.3458  0.0202
  881MOL0     C16169   1.853   0.472   5.262 -0.3541 -1.1453  0.2181
  881MOL0     C16170   1.705   0.444   5.304  0.1827  0.8955 -0.3136
  881MOL0     C16171   1.599   0.550   5.269 -0.1973  0.0954 -0.3685
  881MOL0     C16172   1.452   0.522   5.307  0.3057 -0.2753 -0.3235
  881MOL0     C16173   1.374   0.652   5.282  0.4323 -0.0187 -0.1940
  881MOL0     C16174   1.228   0.638   5.333  0.0176 -0.0637 -0.6171
  881MOL0     C16175   1.144   0.762   5.297  0.8977 -0.0646 -0.1510
  881MOL0     C16176   0.993   0.760   5.330  0.2201 -1.0374 -0.6362
  881MOL0     N16177   0.914   0.729   5.211  0.5115 -0.5652  0.1080
  881MOL0     C16178   0.858   0.822   5.131 -0.2402  0.3491  1.0274
  881MOL0     C16179   0.778   0.738   5.051 -0.4539  0.5933  0.2618
  881MOL0     C16180   0.699   0.778   4.932  0.2847 -0.2950  0.2874
  881MOL0     C16181   0.552   0.781   4.954 -0.8786 -0.1206 -0.1620
  881MOL0     C16182   0.494   0.858   4.829  0.3869  0.2435 -0.6125
  881MOL0     C16183   0.334   0.835   4.815  0.3475 -0.1434 -0.8436
  881MOL0     O16184   0.265   0.861   4.937 -0.2863  0.0479 -0.3412
  881MOL0     C16185   0.132   0.871   4.930 -0.4587  1.0230  0.6730
  881MOL0     C16186   0.056   0.758   4.959  0.0832  0.5945  0.4010
  881MOL0     C16187  -0.081   0.769   4.959 -0.5614 -0.5219 -0.4406
  881MOL0     C16188  -0.154   0.893   4.938  0.2202 -0.5721  0.2747
  881MOL0     C16189  -0.296   0.894   4.962  0.6300  0.5952 -0.3386
  881MOL0     O16190  -0.382   0.787   4.933 -0.1641 -0.5170  0.5071
  881MOL0     C16191  -0.510   0.801   4.881  1.0121 -0.9137 -0.4189
  881MOL0     C16192  -0.569   0.917   4.823 -0.6247  1.1421 -0.3153
  881MOL0     C16193  -0.702   0.909   4.777 -0.3266 -0.2120  0.6262
  881MOL0     C16194  -0.762   0.782   4.761  0.6644 -0.2803  0.6964
  881MOL0     O16195  -0.891   0.781   4.695 -0.6793 -0.4063  0.2124
  881MOL0     C16196  -0.893   0.698   4.571 -0.4834  0.1454  0.1340
  881MOL0     C16197  -1.028   0.721   4.506  0.0846  0.1237 -0.1118
  881MOL0     C16198  -1.151   0.657   4.580 -1.1904 -0.6669  0.2362
  881MOL0     C16199  -1.280   0.692   4.498 -0.8261  0.1414  0.0722
  881MOL0     C16200  -1.398   0.622   4.557 -1.0012 -0.6247  0.2024
  881MOL0     C16201  -1.533   0.671   4.507  1.0798  0.1525  0.5403
  881MOL0     C16202  -1.582   0.601   4.379 -0.8698  1.0793 -0.3558
  881MOL0     C16203  -1.684   0.675   4.300 -0.1932  0.4332  0.9681
  881MOL0    Cl16204  -1.643   0.831   4.229 -0.1282 -0.3484  0.4420
  881MOL0     C16205  -0.701   0.660   4.813 -0.5862 -0.3999 -0.0537
  881MOL0     C16206  -0.576   0.678   4.878 -0.2864  0.0694 -0.2666
  881MOL0     O16207  -0.338   1.003   4.988 -0.4673  0.0328  0.4081
  881MOL0     C16208  -0.073   1.008   4.910 -0.5538 -0.6576  0.0620
  881MOL0     C16209   0.069   0.998   4.902 -0.7072 -0.7046 -0.1806
  881MOL0     N16210   0.800   0.601   5.078 -0.2960  0.3449  0.4067
  881MOL0     N16211   0.885   0.603   5.175  0.2341  0.5688 -0.1839
  881MOL0     C16212   2.143   0.542   5.278 -0.1914  0.3898  0.3125
  881MOL0     C16213   2.269   0.598   5.269 -0.6066  0.9347  0.6153
  881MOL0     C16214   2.663   0.745   5.297  1.0980  0.0188 -0.6251
  881MOL0     C16215   2.702   0.782   5.167 -0.2773  0.0928  0.7360
  881MOL0     C16216   2.833   0.768   5.119  0.3908 -0.2093  0.1843
  881MOL0     C16217   2.931   0.706   5.206 -0.2672 -0.0029  0.8957
  881MOL0     O16218   3.062   0.678   5.172 -0.8830 -0.5466  0.8533
  881MOL0     C16219   3.097   0.703   5.026  0.2096 -0.0783 -1.0522
  881MOL0     C16220   3.225   0.637   5.005  0.1479 -1.1116 -0.2158
  881MOL0     C16221   3.295   0.717   4.889  0.8980  0.2090 -0.7379
  881MOL0     C16222   3.450   0.689   4.883  0.8184  0.2299 -0.5544
  881MOL0     C16223   3.480   0.544   4.847  0.2408  0.3565 -1.1461
  881MOL0     C16224   3.517   0.436   4.815 -0.2198 -0.0485  0.7924
  881MOL0     C16225   2.899   0.679   5.343  0.4836  0.2833 -0.5970
  881MOL0     C16226   2.774   0.708   5.388  0.4124  0.1462  0.6682
  881MOL0     H16227   2.198   0.922   5.321 -1.1681 -0.1083  1.6338
  881MOL0     H16228   1.970   0.815   5.329 -1.5095 -1.1522 -0.3213
  881MOL0     H16229   1.917   0.384   5.275  0.8103  0.0606  3.5268
  881MOL0     H16230   1.859   0.489   5.154 -0.6453 -1.7976  0.0908
  881MOL0     H16231   1.713   0.434   5.413 -1.0341 -1.0826 -0.3381
  881MOL0     H16232   1.665   0.350   5.264 -1.9623  1.7005 -0.1906
  881MOL0     H16233   1.608   0.588   5.167 -4.2662  2.2767 -0.1234
  881MOL0     H16234   1.634   0.633   5.331 -0.4005 -1.0327  1.3597
  881MOL0     H16235   1.408   0.444   5.243 -2.8292  0.3210  0.9026
  881MOL0     H16236   1.436   0.492   5.411 -0.0492  0.2370 -0.2278
  881MOL0     H16237   1.381   0.676   5.176  2.0299  1.6890  0.2489
  881MOL0     H16238   1.429   0.728   5.338 -1.0257 -0.1192  1.4613
  881MOL0     H16239   1.230   0.624   5.441  1.4321  2.1378 -0.2981
  881MOL0     H16240   1.179   0.548   5.294  3.1789 -1.7627 -0.9969
  881MOL0     H16241   1.185   0.847   5.353  3.3566  0.6596 -2.8005
  881MOL0     H16242   1.164   0.780   5.190  1.1096  2.4364  0.2405
  881MOL0     H16243   0.953   0.857   5.362  0.9869 -0.2772 -1.8765
  881MOL0     H16244   0.979   0.684   5.407 -0.3716  3.2930  4.0388
  881MOL0     H16245   0.856   0.930   5.130 -1.2206  0.4419 -2.4675
  881MOL0     H16246   0.712   0.709   4.849  2.4913  0.6722 -0.2417
  881MOL0     H16247   0.732   0.878   4.902  1.3903 -1.0397 -1.0770
  881MOL0     H16248   0.522   0.823   5.050 -0.4294 -2.8284  1.2736
  881MOL0     H16249   0.515   0.678   4.947 -0.2528 -0.2501 -2.1482
  881MOL0     H16250   0.515   0.965   4.840  3.5154  0.2837 -4.5716
  881MOL0     H16251   0.546   0.835   4.736  1.7679 -0.6658  0.3330
  881MOL0     H16252   0.309   0.731   4.792 -0.6555 -0.4867  1.5182
  881MOL0     H16253   0.295   0.904   4.740  0.7149 -1.4586 -2.2763
  881MOL0     H16254   0.108   0.664   4.974 -1.8097 -0.8462 -1.4659
  881MOL0     H16255  -0.140   0.680   4.982 -0.7276 -0.6383 -1.2680
  881MOL0     H16256  -0.513   1.008   4.809 -0.4016  1.1417  0.5161
  881MOL0     H16257  -0.755   0.997   4.741  1.6773  0.0134 -2.1274
  881MOL0     H16258  -0.887   0.593   4.603 -4.9715  0.3059  2.2951
  881MOL0     H16259  -0.810   0.723   4.505 -0.3841  0.0643  0.2271
  881MOL0     H16260  -1.033   0.693   4.400  1.5576 -0.2049 -0.1069
  881MOL0     H16261  -1.044   0.829   4.511 -3.1263 -0.3113  2.1285
  881MOL0     H16262  -1.158   0.703   4.679  0.5855  2.4745 -0.9267
  881MOL0     H16263  -1.135   0.550   4.593 -0.6326 -0.4663  1.3178
  881MOL0     H16264  -1.286   0.801   4.504  3.0914  0.4859  0.6687
  881MOL0     H16265  -1.269   0.646   4.399 -0.2746 -3.6326  1.7159
  881MOL0     H16266  -1.402   0.644   4.664  2.3600 -2.9989  0.9664
  881MOL0     H16267  -1.383   0.514   4.560  1.6048 -0.3319  3.0653
  881MOL0     H16268  -1.526   0.774   4.471 -0.4933 -0.9144 -3.3482
  881MOL0     H16269  -1.604   0.658   4.590  2.0776 -3.0486  1.0439
  881MOL0     H16270  -1.497   0.567   4.319 -0.3645  0.3580  0.7404
  881MOL0     H16271  -1.626   0.503   4.402  1.4744  0.5831  2.6473
  881MOL0     H16272  -1.775   0.697   4.358 -1.4127  0.2750 -0.7950
  881MOL0     H16273  -1.731   0.610   4.226 -0.0582 -1.3106  2.3302
  881MOL0     H16274  -0.745   0.563   4.791 -1.2349  0.4417 -3.0435
  881MOL0     H16275  -0.531   0.590   4.922 -1.8930 -1.3059 -1.2443
  881MOL0     H16276  -0.108   1.108   4.886  2.5404  0.8006  1.0924
  881MOL0     H16277   0.137   1.074   4.864  2.4080 -2.0878  2.1459
  881MOL0     H16278   2.134   0.435   5.270 -0.7807  0.5417 -1.4174
  881MOL0     H16279   2.349   0.526   5.255  0.4896  2.1944  0.2220
  881MOL0     H16280   2.623   0.817   5.101  0.2138  0.0139  0.1009
  881MOL0     H16281   2.852   0.798   5.017 -1.7738 -1.0055 -0.4971
  881MOL0     H16282   3.103   0.812   5.015 -1.9868  0.5614  2.4973
  881MOL0     H16283   3.020   0.668   4.958  0.0230  1.4912 -1.6993
  881MOL0     H16284   3.294   0.639   5.089 -1.4092 -1.2462  1.1075
  881MOL0     H16285   3.210   0.531   4.986 -2.1302 -1.5694  3.2423
  881MOL0     H16286   3.284   0.824   4.909 -3.1014  0.0007 -0.9142
  881MOL0     H16287   3.236   0.699   4.799 -0.2652 -1.4477  0.2870
  881MOL0     H16288   3.495   0.752   4.805  2.3191 -0.7670 -0.5382
  881MOL0     H16289   3.491   0.713   4.981 -1.7750  1.0194  0.4130
  881MOL0     H16290   3.553   0.340   4.783  0.1644 -0.5537  2.5872
  881MOL0     H16291   2.987   0.657   5.403  1.9053 -0.8640 -2.9627
  881MOL0     H16292   2.748   0.689   5.491 -2.5821 -1.5649 -0.2846
  882MOL0     O16293  10.072   7.287   4.648  0.8766 -0.0971 -0.6056
  882MOL0     C16294  10.088   7.203   4.737 -0.5110 -0.2984 -0.8757
  882MOL0     O16295   9.989   7.153   4.811  0.6037  0.0572 -0.0450
  882MOL0     C16296   9.857   7.163   4.772 -1.3472  0.2297 -0.5224
  882MOL0     C16297   9.759   7.196   4.866  0.0926  0.5728 -0.3471
  882MOL0     C16298   9.623   7.207   4.841 -0.1981 -0.1595 -0.4782
  882MOL0     C16299   9.573   7.179   4.713 -0.2725  0.2400  0.8103
  882MOL0     O16300   9.439   7.174   4.697 -0.3797 -0.7359  0.3673
  882MOL0     C16301   9.382   7.234   4.573 -0.6907  0.2886 -0.7269
  882MOL0     C16302   9.228   7.247   4.595 -0.1335 -0.2914 -0.2877
  882MOL0     C16303   9.161   7.106   4.602 -0.7413  0.3400 -0.2182
  882MOL0     C16304   9.024   7.080   4.527  0.4681 -0.3296  0.2070
  882MOL0     C16305   8.922   7.183   4.559  0.8254 -1.0375  0.7366
  882MOL0     C16306   8.819   7.136   4.660 -0.4460 -0.1092  0.7698
  882MOL0     C16307   8.720   7.256   4.682 -0.2592  1.0904  0.3836
  882MOL0     C16308   8.743   7.331   4.814  0.5040  0.1743  0.8828
  882MOL0     N16309   8.629   7.426   4.837  0.3255  0.3582  0.7677
  882MOL0     C16310   8.494   7.404   4.856 -0.7189 -0.9006  0.5294
  882MOL0     C16311   8.450   7.528   4.895 -0.0407 -0.2001  0.4491
  882MOL0     C16312   8.305   7.539   4.915 -1.0031  0.5261  0.1260
  882MOL0     C16313   8.263   7.584   5.054 -0.3642  0.4337 -0.4094
  882MOL0     C16314   8.110   7.585   5.078  0.1539 -0.5435  0.1597
  882MOL0     C16315   8.062   7.635   5.215  0.3200 -0.2218 -0.0741
  882MOL0     O16316   8.017   7.769   5.201  0.2292  0.7345 -0.4230
  882MOL0     C16317   7.964   7.832   5.315 -0.5662  0.1938  0.3578
  882MOL0     C16318   7.958   7.769   5.443 -0.4025 -1.3686 -0.2227
  882MOL0     C16319   7.915   7.844   5.555  0.1980  0.3287  0.0717
  882MOL0     C16320   7.853   7.971   5.544  0.3165  0.2986 -0.7725
  882MOL0     C16321   7.802   8.050   5.661  0.4539  0.3285  0.4935
  882MOL0     O16322   7.714   8.156   5.641 -0.0755 -0.2635  0.1439
  882MOL0     C16323   7.663   8.233   5.743  0.3621  0.0470 -0.3105
  882MOL0     C16324   7.531   8.281   5.723 -0.7884  0.0420 -0.1351
  882MOL0     C16325   7.487   8.376   5.802  0.0997 -1.0329  0.0413
  882MOL0     C16326   7.552   8.422   5.913  0.8248  0.2146  0.2203
  882MOL0     O16327   7.489   8.512   5.994  0.6388 -0.5408 -0.4797
  882MOL0     C16328   7.371   8.590   5.961 -0.4424  0.5284  0.0736
  882MOL0     C16329   7.333   8.655   6.091 -0.2715  0.0365 -0.6260
  882MOL0     C16330   7.187   8.711   6.065  0.2858 -0.7676 -0.3614
  882MOL0     C16331   7.108   8.765   6.190  0.6499  0.2861 -0.0985
  882MOL0     C16332   7.191   8.820   6.304 -0.3960 -0.9797  0.1131
  882MOL0     C16333   7.093   8.873   6.420 -0.5648 -0.1422 -0.2767
  882MOL0     C16334   7.186   8.939   6.528 -0.5029  0.1698 -0.7394
  882MOL0     C16335   7.228   9.082   6.475  0.0462  0.8443 -0.5347
  882MOL0    Cl16336   7.313   9.173   6.594 -0.0548  0.6881  0.8177
  882MOL0     C16337   7.675   8.369   5.954  0.2944  0.9431 -0.0383
  882MOL0     C16338   7.729   8.272   5.866 -0.6278  0.2981 -0.0228
  882MOL0     O16339   7.834   8.007   5.773 -0.3174  0.7787  1.0531
  882MOL0     C16340   7.866   8.028   5.415  1.2479 -0.5064  1.0591
  882MOL0     C16341   7.921   7.961   5.304 -0.3686  0.2295 -0.1863
  882MOL0     N16342   8.551   7.627   4.895 -0.0656 -0.1136 -1.3147
  882MOL0     N16343   8.653   7.568   4.863 -0.8425  0.4840  0.2813
  882MOL0     C16344   9.669   7.165   4.613 -0.5373  0.3160 -0.6139
  882MOL0     C16345   9.806   7.141   4.646  0.4736  0.4604 -0.5173
  882MOL0     C16346  10.227   7.170   4.771  0.5243 -0.2823  0.4312
  882MOL0     C16347  10.318   7.150   4.666  0.6862 -0.3468  0.3585
  882MOL0     C16348  10.440   7.086   4.693 -1.0568 -0.5850 -0.0905
  882MOL0     C16349  10.481   7.058   4.827 -0.1411 -0.1123  0.0079
  882MOL0     O16350  10.601   7.011   4.856 -0.3143  0.3673 -0.6861
  882MOL0     C16351  10.694   6.972   4.756  0.0886 -0.2619 -0.5623
  882MOL0     C16352  10.804   6.880   4.815  0.2004  0.2007 -0.3787
  882MOL0     C16353  10.871   6.950   4.944  0.1876  0.3212 -0.1672
  882MOL0     C16354  10.883   7.098   4.939  0.4244 -0.3688  0.1554
  882MOL0     C16355  11.001   7.143   4.847 -0.4379  0.5974 -0.1831
  882MOL0     C16356  11.083   7.169   4.767 -0.7922 -1.0750  0.9288
  882MOL0     C16357  10.395   7.102   4.929 -0.7322  1.1597 -0.0178
  882MOL0     C16358  10.270   7.153   4.902  0.2900  0.4081  0.3925
  882MOL0     H16359   9.778   7.216   4.970 -3.2616  2.0691  0.0996
  882MOL0     H16360   9.564   7.221   4.930  2.1084  0.5412  1.0419
  882MOL0     H16361   9.412   7.174   4.486  0.1308 -0.4381  0.0301
  882MOL0     H16362   9.423   7.334   4.555  1.9364 -0.3721  1.0171
  882MOL0     H16363   9.186   7.304   4.512  0.7126  1.9172  0.7227
  882MOL0     H16364   9.216   7.293   4.694 -3.5584  2.7253 -1.8907
  882MOL0     H16365   9.131   7.093   4.707 -0.7418  0.1670 -0.2408
  882MOL0     H16366   9.222   7.024   4.563 -1.5740 -1.4334  1.9727
  882MOL0     H16367   9.030   7.098   4.420 -3.7262 -1.1488 -0.3411
  882MOL0     H16368   8.996   6.975   4.540 -0.1515 -0.0820  0.9842
  882MOL0     H16369   8.873   7.225   4.470  3.4246  2.7995  0.8772
  882MOL0     H16370   8.977   7.271   4.594 -0.1996  0.5339 -1.3642
  882MOL0     H16371   8.863   7.107   4.756 -1.0019  1.3890  1.5023
  882MOL0     H16372   8.774   7.049   4.612  1.6920 -0.5421 -0.5483
  882MOL0     H16373   8.726   7.327   4.599  1.1641  2.2870  1.4562
  882MOL0     H16374   8.618   7.221   4.666  0.9933 -2.6903 -0.6162
  882MOL0     H16375   8.841   7.377   4.825  0.7429  1.1346 -3.4999
  882MOL0     H16376   8.730   7.251   4.888 -0.7030 -2.0045 -1.5171
  882MOL0     H16377   8.447   7.309   4.833  0.8118 -1.6058  0.2299
  882MOL0     H16378   8.263   7.439   4.905 -0.2894  0.1082  1.1310
  882MOL0     H16379   8.261   7.605   4.840  2.5214  2.0985 -0.7515
  882MOL0     H16380   8.286   7.691   5.055 -2.0443  0.8559 -1.3540
  882MOL0     H16381   8.310   7.530   5.136 -1.0689  1.5325  0.7617
  882MOL0     H16382   8.065   7.636   4.993 -2.6458 -1.0368  1.2469
  882MOL0     H16383   8.072   7.484   5.059  0.2140 -0.3913 -0.8193
  882MOL0     H16384   8.145   7.634   5.286 -0.2625 -2.2619  0.6215
  882MOL0     H16385   7.980   7.572   5.250  0.6780 -2.0845 -2.3357
  882MOL0     H16386   7.989   7.667   5.463  1.4413 -0.7775  0.1400
  882MOL0     H16387   7.912   7.806   5.657 -1.0803  2.0055  0.7036
  882MOL0     H16388   7.484   8.253   5.629  1.8789 -6.3221 -0.0838
  882MOL0     H16389   7.393   8.422   5.774 -1.2873 -1.1216  4.0051
  882MOL0     H16390   7.284   8.533   5.926 -0.1722 -0.0537  0.3346
  882MOL0     H16391   7.394   8.666   5.886  1.6941  0.8209  0.9423
  882MOL0     H16392   7.401   8.739   6.106  1.3962 -1.3941  0.1827
  882MOL0     H16393   7.333   8.581   6.172 -2.2505  1.2537  0.5764
  882MOL0     H16394   7.119   8.646   6.008 -1.6372  0.4685  0.4129
  882MOL0     H16395   7.213   8.800   6.008 -0.4539 -1.0923 -1.2481
  882MOL0     H16396   7.031   8.838   6.161  0.1611 -0.5827 -1.0476
  882MOL0     H16397   7.061   8.672   6.223  1.7693 -0.7688 -1.3974
  882MOL0     H16398   7.255   8.903   6.274  0.7878 -1.4566  1.2090
  882MOL0     H16399   7.256   8.736   6.331 -0.2080 -1.1992 -0.9968
  882MOL0     H16400   7.032   8.790   6.458  2.9296 -2.1113  1.5063
  882MOL0     H16401   7.016   8.940   6.381  0.3157 -0.3054 -2.3789
  882MOL0     H16402   7.137   8.937   6.625  3.2653 -0.3495  1.3435
  882MOL0     H16403   7.269   8.869   6.544 -0.2241  0.8663  1.0530
  882MOL0     H16404   7.141   9.138   6.440 -1.1915 -2.0467 -2.4982
  882MOL0     H16405   7.304   9.068   6.398  2.3574 -1.4218  1.9177
  882MOL0     H16406   7.733   8.396   6.041 -0.5338 -1.0824  1.2251
  882MOL0     H16407   7.831   8.241   5.885 -0.8992 -1.4970 -1.2261
  882MOL0     H16408   7.811   8.122   5.412 -2.0215 -2.2783  0.8734
  882MOL0     H16409   7.926   7.998   5.203  1.7386 -0.2535 -0.3126
  882MOL0     H16410   9.633   7.153   4.512 -2.1948  1.1501 -0.1473
  882MOL0     H16411   9.885   7.130   4.572 -0.7366 -3.2748 -1.4948
  882MOL0     H16412  10.286   7.170   4.564 -3.4720 -2.0092  1.1328
  882MOL0     H16413  10.511   7.069   4.613 -0.0610 -0.0497  0.6615
  882MOL0     H16414  10.741   7.061   4.713  1.1117  0.1148  1.2136
  882MOL0     H16415  10.644   6.903   4.687 -1.5356  1.1632 -0.8752
  882MOL0     H16416  10.758   6.797   4.869  1.4828  0.3886  1.0773
  882MOL0     H16417  10.873   6.854   4.734 -0.1333 -0.7354 -0.3669
  882MOL0     H16418  10.968   6.900   4.949  0.2653  0.2660 -1.7202
  882MOL0     H16419  10.811   6.927   5.032  2.7441 -2.1105  1.1145
  882MOL0     H16420  10.801   7.163   4.907  0.4609  0.0656  0.9011
  882MOL0     H16421  10.903   7.123   5.044  1.0593  2.3702 -0.5382
  882MOL0     H16422  11.158   7.185   4.692  0.5885  3.6198  2.8957
  882MOL0     H16423  10.425   7.097   5.033  0.7556 -0.8837 -0.4796
  882MOL0     H16424  10.203   7.171   4.986 -1.8899 -0.8032 -1.0066
  883MOL0     O16425   1.974   1.366   6.327 -0.2154  0.3649 -0.7974
  883MOL0     C16426   1.973   1.307   6.435  0.6438  0.6317 -0.5422
  883MOL0     O16427   1.855   1.282   6.511  0.3072 -0.1793 -0.1051
  883MOL0     C16428   1.735   1.295   6.452 -0.1195  0.1978 -0.9599
  883MOL0     C16429   1.664   1.409   6.488  0.2768 -0.4843 -0.6152
  883MOL0     C16430   1.530   1.418   6.443 -0.7397  0.0712  0.8312
  883MOL0     C16431   1.474   1.311   6.373  0.5345  0.0810  0.1641
  883MOL0     O16432   1.351   1.311   6.307  0.2465  0.0721 -0.3275
  883MOL0     C16433   1.238   1.366   6.384 -0.8128  0.7921 -0.2205
  883MOL0     C16434   1.110   1.314   6.324  0.2904  0.7699  0.4783
  883MOL0     C16435   0.993   1.331   6.421  0.0013  0.2740  0.2483
  883MOL0     C16436   0.859   1.287   6.364 -0.3989  0.1877 -0.2803
  883MOL0     C16437   0.848   1.138   6.336 -0.1175  0.2842 -0.8924
  883MOL0     C16438   0.702   1.115   6.282  0.0817  0.3077 -0.5836
  883MOL0     C16439   0.689   0.977   6.221 -0.2679 -0.2283 -0.1151
  883MOL0     C16440   0.548   0.937   6.201  0.1330 -0.1213 -0.0498
  883MOL0     N16441   0.485   0.855   6.309 -0.3736  0.4053  0.3367
  883MOL0     C16442   0.442   0.897   6.432  0.2499  0.7538 -0.0823
  883MOL0     C16443   0.344   0.814   6.466 -0.2086 -0.9040  0.3377
  883MOL0     C16444   0.267   0.818   6.591 -0.1220  0.6447 -0.8470
  883MOL0     C16445   0.118   0.868   6.577 -0.6662 -0.0078  0.3398
  883MOL0     C16446   0.031   0.767   6.497  0.2665 -0.8750 -0.1815
  883MOL0     C16447  -0.125   0.773   6.515 -0.0996 -0.5958 -2.1304
  883MOL0     O16448  -0.194   0.684   6.432 -0.3000 -0.2498  0.8909
  883MOL0     C16449  -0.334   0.698   6.424  0.3537 -0.2127 -0.1858
  883MOL0     C16450  -0.411   0.788   6.499  0.1322  0.3246  0.5557
  883MOL0     C16451  -0.551   0.785   6.491  0.2257  0.3886 -0.5335
  883MOL0     C16452  -0.612   0.681   6.413 -0.2630 -1.5014 -0.4317
  883MOL0     C16453  -0.761   0.671   6.424 -0.3572 -0.7984 -0.2594
  883MOL0     O16454  -0.821   0.745   6.515 -0.1999 -0.1078  0.0261
  883MOL0     C16455  -0.956   0.758   6.502 -0.3198 -0.3641  0.4068
  883MOL0     C16456  -1.043   0.719   6.601  0.1488  0.0890  0.4633
  883MOL0     C16457  -1.178   0.750   6.594  0.6864 -0.5303  0.5477
  883MOL0     C16458  -1.234   0.815   6.476 -0.6687  0.3508  0.2352
  883MOL0     O16459  -1.369   0.850   6.464 -0.1796 -0.0950 -0.1249
  883MOL0     C16460  -1.465   0.746   6.477  0.6436  0.2706  0.3579
  883MOL0     C16461  -1.618   0.786   6.465 -0.0541 -0.8271 -0.2281
  883MOL0     C16462  -1.648   0.856   6.329  0.3663 -0.0247  0.2795
  883MOL0     C16463  -1.796   0.851   6.307 -0.3595 -0.0836  0.7012
  883MOL0     C16464  -1.823   0.933   6.170  0.7754  0.8911 -0.1273
  883MOL0     C16465  -1.893   1.068   6.193  1.0438  0.3449 -0.7377
  883MOL0     C16466  -2.039   1.050   6.248 -0.2442 -0.4226 -0.0876
  883MOL0     C16467  -2.131   1.183   6.265 -0.2072 -0.0247 -0.1118
  883MOL0    Cl16468  -2.279   1.159   6.173  0.4081  0.3070  0.1880
  883MOL0     C16469  -1.139   0.849   6.374  0.3364  0.1840 -0.4498
  883MOL0     C16470  -1.004   0.827   6.383 -0.6965  0.4618 -0.2967
  883MOL0     O16471  -0.815   0.600   6.342  0.5647 -0.1440  0.0707
  883MOL0     C16472  -0.531   0.585   6.351  0.3871 -0.3324  0.6662
  883MOL0     C16473  -0.399   0.597   6.365 -0.2258  0.6385  0.5908
  883MOL0     N16474   0.323   0.728   6.362 -0.0626  0.5815 -0.4611
  883MOL0     N16475   0.398   0.759   6.267 -0.8071  0.3877 -0.5865
  883MOL0     C16476   1.547   1.194   6.349 -0.4506 -0.5978  0.7657
  883MOL0     C16477   1.676   1.193   6.379  0.6083  0.1892  0.6104
  883MOL0     C16478   2.105   1.254   6.497  0.2799  0.5665 -0.1128
  883MOL0     C16479   2.104   1.212   6.628  0.2886 -0.3339 -0.9252
  883MOL0     C16480   2.226   1.160   6.684  0.8009 -0.0719  0.5928
  883MOL0     C16481   2.343   1.161   6.616 -0.1951  0.4738 -0.8025
  883MOL0     O16482   2.454   1.117   6.686  0.6390 -0.1379 -0.2203
  883MOL0     C16483   2.572   1.077   6.609 -0.4618 -0.1713 -0.6436
  883MOL0     C16484   2.713   1.121   6.672 -0.0379  0.4037  0.0503
  883MOL0     C16485   2.814   1.026   6.604  0.6203  0.1909  0.4908
  883MOL0     C16486   2.954   1.031   6.676  0.6110  0.1299 -0.8311
  883MOL0     C16487   3.032   1.129   6.595  0.2888  1.3069 -0.2513
  883MOL0     C16488   3.104   1.201   6.535  1.3122  0.1816  0.5020
  883MOL0     C16489   2.342   1.215   6.488  0.3800  0.5311 -0.9199
  883MOL0     C16490   2.226   1.261   6.429  0.2619  0.5117  0.2678
  883MOL0     H16491   1.712   1.488   6.545  4.0998 -1.3699 -2.2697
  883MOL0     H16492   1.485   1.514   6.464 -1.0478 -0.2104  1.4805
  883MOL0     H16493   1.224   1.474   6.383 -1.6550  0.7149 -2.6018
  883MOL0     H16494   1.252   1.339   6.490  1.2497  2.4135 -0.0196
  883MOL0     H16495   1.136   1.210   6.303  1.9358  0.9591  1.4042
  883MOL0     H16496   1.093   1.354   6.223 -0.8008 -4.5683 -1.7849
  883MOL0     H16497   0.977   1.434   6.454  0.0846 -0.2473  2.0229
  883MOL0     H16498   1.011   1.283   6.517 -0.5436  0.0888  0.2619
  883MOL0     H16499   0.774   1.316   6.426 -1.7820  0.1254 -2.0853
  883MOL0     H16500   0.854   1.335   6.266  0.3911  3.5843  1.1960
  883MOL0     H16501   0.850   1.082   6.430 -2.6420 -0.3942 -1.1541
  883MOL0     H16502   0.925   1.096   6.272  1.4528  1.2195  0.3061
  883MOL0     H16503   0.679   1.190   6.206 -0.4136 -1.2999 -2.1080
  883MOL0     H16504   0.627   1.120   6.361 -0.6674 -1.4615 -1.1268
  883MOL0     H16505   0.733   0.984   6.121  2.2300  1.2862  0.9623
  883MOL0     H16506   0.751   0.906   6.276 -1.4636 -0.8676  0.4401
  883MOL0     H16507   0.541   0.870   6.115 -4.0127  2.0929 -1.7332
  883MOL0     H16508   0.477   1.017   6.179  0.8829  0.7952  0.8197
  883MOL0     H16509   0.496   0.975   6.485  0.1642  2.2418 -2.0681
  883MOL0     H16510   0.334   0.885   6.646 -1.7789 -1.0004  3.6042
  883MOL0     H16511   0.282   0.722   6.640  1.0111  1.2979  0.1299
  883MOL0     H16512   0.116   0.964   6.524  0.1789 -1.0046 -1.5783
  883MOL0     H16513   0.080   0.882   6.679  0.0194 -1.7579  0.8633
  883MOL0     H16514   0.053   0.773   6.390 -1.2708 -1.1092 -0.5372
  883MOL0     H16515   0.071   0.666   6.512  1.8969 -0.0073  1.8015
  883MOL0     H16516  -0.151   0.879   6.504 -0.3413 -0.5932 -1.5633
  883MOL0     H16517  -0.147   0.753   6.620  2.5463  0.8911 -1.1728
  883MOL0     H16518  -0.374   0.868   6.563 -1.3054 -0.3855  2.3421
  883MOL0     H16519  -0.619   0.860   6.529 -0.3081  0.7178 -2.0468
  883MOL0     H16520  -1.018   0.676   6.697  0.3301  2.7710  1.7082
  883MOL0     H16521  -1.244   0.736   6.679 -1.1911  0.7190 -0.6190
  883MOL0     H16522  -1.454   0.703   6.577  1.2016  2.4297  1.3052
  883MOL0     H16523  -1.441   0.668   6.404  2.2449  0.6554  0.4254
  883MOL0     H16524  -1.641   0.852   6.549  3.4820  1.9833 -1.2329
  883MOL0     H16525  -1.690   0.705   6.478 -1.6010  0.9153  3.6073
  883MOL0     H16526  -1.586   0.812   6.250 -1.3470 -1.3984 -0.3645
  883MOL0     H16527  -1.620   0.961   6.342  1.5373  0.0400 -2.2315
  883MOL0     H16528  -1.837   0.749   6.304 -0.2911 -0.2491  3.1532
  883MOL0     H16529  -1.854   0.902   6.385 -1.5058  1.1595 -0.8997
  883MOL0     H16530  -1.901   0.883   6.111  0.6582  0.8130  0.0920
  883MOL0     H16531  -1.733   0.936   6.108  1.7366  0.4357  1.1832
  883MOL0     H16532  -1.907   1.112   6.094  0.6568  0.5853 -0.5765
  883MOL0     H16533  -1.831   1.141   6.247  1.1675  0.3080 -0.8281
  883MOL0     H16534  -2.091   0.989   6.173 -0.2533 -0.3729 -0.1213
  883MOL0     H16535  -2.037   0.995   6.343 -0.1573 -1.6277 -0.7578
  883MOL0     H16536  -2.076   1.271   6.229  3.3122 -2.0219 -0.0452
  883MOL0     H16537  -2.154   1.195   6.371 -1.5795  2.0052 -0.5844
  883MOL0     H16538  -1.189   0.894   6.288 -1.9942 -0.8687  0.2552
  883MOL0     H16539  -0.942   0.869   6.304 -2.4013  2.0190 -0.8730
  883MOL0     H16540  -0.566   0.490   6.311  3.0116 -0.2130 -2.3618
  883MOL0     H16541  -0.335   0.516   6.333 -0.4831  0.7265 -0.1684
  883MOL0     H16542   1.510   1.107   6.295  1.4474  0.1261 -1.9066
  883MOL0     H16543   1.744   1.110   6.366 -0.6388 -0.4842 -2.6658
  883MOL0     H16544   2.008   1.211   6.679 -0.2715 -4.0921 -1.8043
  883MOL0     H16545   2.223   1.133   6.789  1.2912  2.8694  1.4522
  883MOL0     H16546   2.572   1.111   6.505 -2.0957 -0.7652 -0.8795
  883MOL0     H16547   2.568   0.971   6.581 -1.0946  0.1305 -1.7712
  883MOL0     H16548   2.743   1.222   6.643  1.2099 -0.5842 -2.4701
  883MOL0     H16549   2.707   1.108   6.780  0.5594 -1.8286 -0.1363
  883MOL0     H16550   2.826   1.044   6.496 -1.9489  0.9531  0.2759
  883MOL0     H16551   2.779   0.923   6.613  0.2100  0.2911  0.0636
  883MOL0     H16552   2.941   1.070   6.778 -0.6535  1.3356 -1.4112
  883MOL0     H16553   2.991   0.929   6.679  1.5410  0.4543 -1.0556
  883MOL0     H16554   3.166   1.257   6.468 -1.2138  0.1015 -2.0984
  883MOL0     H16555   2.433   1.236   6.433  0.1370  1.6081 -0.9283
  883MOL0     H16556   2.236   1.293   6.326  0.8182 -2.1254 -0.5706
  884MOL0     O16557   1.257  11.015   4.586  0.6919 -0.5047  0.5680
  884MOL0     C16558   1.301  10.959   4.483  0.4321  0.1992  0.2226
  884MOL0     O16559   1.232  10.950   4.363  0.6476  0.9847  0.3541
  884MOL0     C16560   1.096  10.977   4.356  0.6129  0.2400  0.1984
  884MOL0     C16561   1.041  10.918   4.240  1.3839  0.3520 -0.1912
  884MOL0     C16562   0.904  10.927   4.219  0.6217 -0.0465  0.0680
  884MOL0     C16563   0.823  10.996   4.311  0.2609  0.7372  0.4951
  884MOL0     O16564   0.686  11.010   4.303  0.1893  0.8479 -0.3280
  884MOL0     C16565   0.649  11.100   4.198  0.5382  0.5876 -0.1621
  884MOL0     C16566   0.493  11.084   4.198  0.7534 -0.4706 -0.2905
  884MOL0     C16567   0.421  11.174   4.093  0.7212 -0.1669  0.1345
  884MOL0     C16568   0.273  11.213   4.117  0.2839 -0.7692  0.3474
  884MOL0     C16569   0.216  11.299   4.007 -0.4522  0.1232 -0.1945
  884MOL0     C16570   0.179  11.215   3.880 -0.2313  0.4387 -0.3270
  884MOL0     C16571   0.069  11.112   3.899 -0.6998 -0.0787 -0.2039
  884MOL0     C16572  -0.013  11.070   3.774 -0.0622 -1.1010  0.5167
  884MOL0     N16573  -0.130  10.990   3.829 -0.1493 -0.1575  0.0777
  884MOL0     C16574  -0.257  11.045   3.833 -1.0550  0.2189  0.1137
  884MOL0     C16575  -0.341  10.942   3.836 -0.5535 -0.3571 -0.3692
  884MOL0     C16576  -0.485  10.971   3.838  0.6742 -0.4272 -0.2679
  884MOL0     C16577  -0.551  11.008   3.969  0.3240 -0.3237  0.7398
  884MOL0     C16578  -0.572  10.890   4.045 -1.0305  0.2413 -0.6133
  884MOL0     C16579  -0.658  10.899   4.176 -0.7140  0.1284 -0.4083
  884MOL0     O16580  -0.765  10.993   4.157  0.1058  0.7808 -0.0876
  884MOL0     C16581  -0.857  10.970   4.066 -0.2565 -0.7089  0.7346
  884MOL0     C16582  -0.900  10.843   4.028  0.4691  0.5674  0.1931
  884MOL0     C16583  -1.002  10.821   3.924  0.0155  0.7666  0.3767
  884MOL0     C16584  -1.045  10.932   3.852 -0.1132 -0.1221 -0.1177
  884MOL0     C16585  -1.153  10.920   3.752 -0.1149  0.3317 -0.2977
  884MOL0     O16586  -1.196  10.789   3.736 -0.0744 -1.0393  0.6408
  884MOL0     C16587  -1.306  10.757   3.661 -0.6590  0.0403  0.1978
  884MOL0     C16588  -1.398  10.667   3.714  0.2634  0.4124 -0.5245
  884MOL0     C16589  -1.488  10.609   3.624 -0.4091 -0.7415 -0.3890
  884MOL0     C16590  -1.519  10.667   3.497 -0.8114  0.2406 -0.5754
  884MOL0     O16591  -1.616  10.602   3.433 -0.1250  0.2831  0.4294
  884MOL0     C16592  -1.691  10.669   3.332  0.3208  0.6915  0.5504
  884MOL0     C16593  -1.784  10.557   3.271  0.6860  0.2960 -0.4663
  884MOL0     C16594  -1.879  10.516   3.389 -0.2303  0.0376  0.3215
  884MOL0     C16595  -1.976  10.415   3.330  0.9994  0.0096 -1.1811
  884MOL0     C16596  -2.112  10.423   3.407  0.0615  0.9256 -0.6796
  884MOL0     C16597  -2.222  10.325   3.367  0.8940  0.3048  0.0250
  884MOL0     C16598  -2.359  10.381   3.416 -1.0522  0.2921 -0.5411
  884MOL0     C16599  -2.484  10.334   3.350 -0.6068  0.4617 -0.2682
  884MOL0    Cl16600  -2.510  10.153   3.373  0.1294 -0.3805 -0.2926
  884MOL0     C16601  -1.435  10.770   3.454 -0.3027  0.0478  0.3315
  884MOL0     C16602  -1.330  10.813   3.529 -1.5824 -0.7050 -0.4373
  884MOL0     O16603  -1.207  11.018   3.702 -0.0494 -0.3850  0.6212
  884MOL0     C16604  -0.999  11.057   3.884 -0.8111 -0.3479  0.0977
  884MOL0     C16605  -0.910  11.073   3.987  0.2802  0.3738 -0.5404
  884MOL0     N16606  -0.267  10.828   3.849 -0.4898 -0.1097 -0.2209
  884MOL0     N16607  -0.141  10.854   3.833  0.6798  1.0121  0.6711
  884MOL0     C16608   0.882  11.070   4.411  0.5581 -0.6296  0.3986
  884MOL0     C16609   1.015  11.052   4.441  0.4167  0.3936  0.3003
  884MOL0     C16610   1.433  10.909   4.479 -0.2624  0.2511  0.8305
  884MOL0     C16611   1.478  10.832   4.369  0.0938 -0.0953 -0.4596
  884MOL0     C16612   1.614  10.780   4.374 -0.9924  0.3826 -0.6723
  884MOL0     C16613   1.699  10.788   4.481  0.4896 -0.4498  0.0675
  884MOL0     O16614   1.821  10.730   4.477  0.5605 -0.0100  0.0462
  884MOL0     C16615   1.872  10.687   4.600  1.0829 -0.4255  0.3159
  884MOL0     C16616   1.991  10.596   4.587 -0.3820  0.6706 -0.3270
  884MOL0     C16617   2.102  10.673   4.520 -0.4234  0.0612  0.9474
  884MOL0     C16618   2.229  10.594   4.524 -0.0613  0.1497  0.6111
  884MOL0     C16619   2.225  10.497   4.417  0.2092  0.6277  0.2494
  884MOL0     C16620   2.227  10.405   4.336 -0.2241 -0.4673 -0.6358
  884MOL0     C16621   1.646  10.855   4.591  0.0141  0.0875  0.1222
  884MOL0     C16622   1.517  10.916   4.591  0.7312  0.3423  0.0908
  884MOL0     H16623   1.103  10.860   4.173  0.4975  1.9004 -2.4771
  884MOL0     H16624   0.854  10.894   4.129  2.1170  0.2539 -0.9140
  884MOL0     H16625   0.687  11.059   4.104  1.3539  0.7857  0.0770
  884MOL0     H16626   0.697  11.197   4.213  2.1181  0.0700 -1.5368
  884MOL0     H16627   0.454  11.127   4.291 -0.5013 -2.6025  0.2349
  884MOL0     H16628   0.459  10.981   4.192 -1.4606 -0.0586  2.7010
  884MOL0     H16629   0.444  11.118   4.002  1.3196 -0.0609  0.2167
  884MOL0     H16630   0.482  11.265   4.096  0.7100 -0.1079  3.9032
  884MOL0     H16631   0.214  11.121   4.127 -0.7936 -0.1278  0.0361
  884MOL0     H16632   0.266  11.264   4.213  0.0917  1.2742 -0.7121
  884MOL0     H16633   0.284  11.384   4.002 -0.9952  0.6919  1.2188
  884MOL0     H16634   0.121  11.352   4.022  0.8486  2.8593 -1.1029
  884MOL0     H16635   0.267  11.166   3.836 -1.8973 -2.0633 -1.1111
  884MOL0     H16636   0.147  11.294   3.811 -3.6765  1.9059  2.6630
  884MOL0     H16637   0.116  11.023   3.941 -0.9658 -0.6422 -1.0760
  884MOL0     H16638   0.008  11.156   3.979 -1.5763 -2.7021  0.6667
  884MOL0     H16639   0.055  11.006   3.716  1.9043 -0.3263  1.8682
  884MOL0     H16640  -0.057  11.150   3.715  0.3517 -0.3332  1.2380
  884MOL0     H16641  -0.282  11.151   3.832  1.4743  0.8899 -0.4340
  884MOL0     H16642  -0.533  10.886   3.789 -0.6096 -0.0066  0.1980
  884MOL0     H16643  -0.500  11.058   3.773 -1.9668 -0.6861 -0.1334
  884MOL0     H16644  -0.650  11.044   3.941 -0.0658 -0.5799  1.7621
  884MOL0     H16645  -0.496  11.088   4.019 -4.8423  3.5398  0.9475
  884MOL0     H16646  -0.627  10.816   3.986 -0.4237 -0.9338  0.2425
  884MOL0     H16647  -0.472  10.856   4.076 -1.7183  0.5865  2.1983
  884MOL0     H16648  -0.583  10.939   4.245  0.2610 -1.3458 -0.5689
  884MOL0     H16649  -0.702  10.803   4.202 -3.7387  0.4296 -3.5634
  884MOL0     H16650  -0.871  10.761   4.092  0.0323  1.1661  1.1913
  884MOL0     H16651  -1.041  10.722   3.901  1.4024 -0.7322  3.7016
  884MOL0     H16652  -1.397  10.635   3.818  3.4507  1.3285 -0.1629
  884MOL0     H16653  -1.543  10.532   3.677 -0.9047 -0.4873 -0.5235
  884MOL0     H16654  -1.633  10.705   3.247 -1.9005  3.4029  0.0682
  884MOL0     H16655  -1.745  10.756   3.369  1.4158  0.7784  2.0392
  884MOL0     H16656  -1.729  10.468   3.239 -1.8578 -1.9015  0.7929
  884MOL0     H16657  -1.845  10.605   3.194 -0.6250  1.0901  0.9928
  884MOL0     H16658  -1.926  10.610   3.420 -3.0787 -1.2707  0.3190
  884MOL0     H16659  -1.823  10.469   3.471  0.8369 -1.6221 -1.2647
  884MOL0     H16660  -1.997  10.447   3.227  0.7368  0.7770 -0.8958
  884MOL0     H16661  -1.921  10.322   3.343 -2.0689 -1.5391  3.2409
  884MOL0     H16662  -2.151  10.525   3.402  1.9251  2.0540  3.3883
  884MOL0     H16663  -2.100  10.400   3.513 -2.6368 -0.1664 -0.5492
  884MOL0     H16664  -2.202  10.224   3.404  1.0930  0.9811  1.8684
  884MOL0     H16665  -2.221  10.323   3.258 -1.0619  2.7418 -0.1271
  884MOL0     H16666  -2.376  10.343   3.517 -2.4681  1.5480 -0.2727
  884MOL0     H16667  -2.347  10.489   3.414  2.1319  0.0272 -0.5914
  884MOL0     H16668  -2.475  10.372   3.248 -0.3011  2.4730  0.4591
  884MOL0     H16669  -2.570  10.386   3.396 -0.2461  0.5640  0.3018
  884MOL0     H16670  -1.458  10.802   3.353 -2.9358 -3.0696 -0.2187
  884MOL0     H16671  -1.265  10.887   3.482 -0.7971 -2.9369 -3.1346
  884MOL0     H16672  -1.027  11.148   3.833  4.0566  1.6293  0.4156
  884MOL0     H16673  -0.887  11.173   4.022  0.3647  0.3448 -0.5107
  884MOL0     H16674   0.822  11.131   4.478 -3.0758 -4.3899  1.0072
  884MOL0     H16675   1.045  11.092   4.537 -2.7653  0.5622  1.3125
  884MOL0     H16676   1.431  10.805   4.275 -1.4143  0.2440  0.1661
  884MOL0     H16677   1.666  10.729   4.293  2.0699  1.1641  0.6454
  884MOL0     H16678   1.799  10.639   4.665  0.6770 -0.5229 -0.2056
  884MOL0     H16679   1.904  10.776   4.655  1.7437 -0.1222 -0.5372
  884MOL0     H16680   2.011  10.553   4.685 -2.4197 -3.2202 -1.4223
  884MOL0     H16681   1.955  10.515   4.522 -0.7265  0.8523 -0.3641
  884MOL0     H16682   2.126  10.773   4.559  2.6833  0.7050 -2.1203
  884MOL0     H16683   2.070  10.696   4.417  0.6996  0.2570  0.6240
  884MOL0     H16684   2.313  10.665   4.518  0.2828 -0.1631  1.5078
  884MOL0     H16685   2.253  10.553   4.623 -0.0664 -1.2950  0.0268
  884MOL0     H16686   2.234  10.336   4.254  2.0388 -0.2598 -0.7010
  884MOL0     H16687   1.711  10.877   4.675  0.3948  1.6651 -0.5481
  884MOL0     H16688   1.485  10.983   4.670 -1.9636 -0.2797 -0.3882
  885MOL0     O16689   9.093  10.165   7.187 -0.0921 -0.5781 -0.7861
  885MOL0     C16690   9.165  10.141   7.289  0.0550 -0.1248  0.3563
  885MOL0     O16691   9.177  10.224   7.392  0.2388  0.2505  0.5711
  885MOL0     C16692   9.116  10.339   7.403 -0.5272  0.1296  0.6860
  885MOL0     C16693   9.145  10.447   7.322  0.4443 -0.5911  0.3512
  885MOL0     C16694   9.097  10.579   7.355  0.1228 -0.0788 -0.4661
  885MOL0     C16695   9.008  10.594   7.460  0.3788  0.5662 -0.1494
  885MOL0     O16696   8.944  10.717   7.468 -0.9328 -0.1046 -0.1256
  885MOL0     C16697   8.809  10.716   7.426 -0.0155 -0.6728  0.1955
  885MOL0     C16698   8.746  10.838   7.498  0.4474 -0.1957  0.7217
  885MOL0     C16699   8.806  10.978   7.449  0.4719  0.4014 -0.2631
  885MOL0     C16700   8.757  11.098   7.535  0.0161 -0.0680  0.2900
  885MOL0     C16701   8.605  11.081   7.565  0.5642 -0.2980  0.2254
  885MOL0     C16702   8.522  11.102   7.438  0.2336 -0.0947  0.6205
  885MOL0     C16703   8.373  11.102   7.492 -0.8762  0.7474 -0.0481
  885MOL0     C16704   8.273  11.110   7.382  0.3009 -0.6919  0.4754
  885MOL0     N16705   8.273  11.243   7.309 -0.2094 -1.1591  0.4965
  885MOL0     C16706   8.239  11.366   7.363 -0.3867  0.3763  0.3759
  885MOL0     C16707   8.196  11.445   7.271 -0.0158 -0.1760  0.4480
  885MOL0     C16708   8.160  11.584   7.300 -0.5360  0.3651  1.2361
  885MOL0     C16709   8.059  11.634   7.200  0.4768 -0.1323  0.4203
  885MOL0     C16710   7.995  11.768   7.244 -0.6824 -0.0224  0.3286
  885MOL0     C16711   7.869  11.787   7.155 -0.0343  0.0906  0.1755
  885MOL0     O16712   7.784  11.878   7.221 -0.1738  0.2077 -0.4416
  885MOL0     C16713   7.655  11.902   7.184  0.1856 -0.0897  0.1821
  885MOL0     C16714   7.571  11.972   7.273 -0.1693 -0.3727  0.0148
  885MOL0     C16715   7.442  11.991   7.227  1.0050 -0.3368  0.4122
  885MOL0     C16716   7.392  11.950   7.100 -0.2662  0.6126  0.6219
  885MOL0     C16717   7.248  11.961   7.066  0.1873  0.3350  1.4535
  885MOL0     O16718   7.195  11.932   6.948 -0.1508  0.2379  0.4967
  885MOL0     C16719   7.084  11.858   6.935  1.3322  0.2129  0.3251
  885MOL0     C16720   7.022  11.868   6.810 -0.2460  0.6892  1.0170
  885MOL0     C16721   6.905  11.791   6.774 -0.1324  0.6066 -0.9000
  885MOL0     C16722   6.862  11.693   6.866 -0.3803  0.4243 -0.7566
  885MOL0     O16723   6.779  11.587   6.840  0.0134  0.1428 -0.2038
  885MOL0     C16724   6.692  11.604   6.729  0.2146 -0.7663  0.1352
  885MOL0     C16725   6.621  11.468   6.709  1.6356  0.0454 -0.3377
  885MOL0     C16726   6.521  11.458   6.834 -0.1676 -0.1943  0.4867
  885MOL0     C16727   6.457  11.319   6.838 -0.3242  0.5182 -0.8976
  885MOL0     C16728   6.361  11.303   6.954 -0.0945  0.0246 -0.6168
  885MOL0     C16729   6.433  11.288   7.087  0.6684  0.4445 -0.9586
  885MOL0     C16730   6.328  11.274   7.207 -0.1007  0.8312 -1.0422
  885MOL0     C16731   6.403  11.262   7.342 -0.7152 -0.8664 -0.3040
  885MOL0    Cl16732   6.481  11.425   7.382 -0.0824  0.8322  0.4334
  885MOL0     C16733   6.924  11.685   6.987  0.7922 -0.5070  0.1773
  885MOL0     C16734   7.021  11.774   7.028 -1.0035 -0.4806  0.2452
  885MOL0     O16735   7.178  11.982   7.163 -0.2246 -0.6582  0.2939
  885MOL0     C16736   7.478  11.879   7.016 -0.1816 -0.0334 -0.1752
  885MOL0     C16737   7.602  11.847   7.065  0.3597 -0.2039  0.6064
  885MOL0     N16738   8.215  11.375   7.150 -0.2551 -0.3784  0.3940
  885MOL0     N16739   8.269  11.256   7.176  0.4627 -0.4375  0.4633
  885MOL0     C16740   8.981  10.490   7.546  1.1425  0.2999 -0.0671
  885MOL0     C16741   9.032  10.364   7.515  0.0285 -0.2401  0.3819
  885MOL0     C16742   9.263  10.022   7.296  0.0071 -0.1910  0.3503
  885MOL0     C16743   9.262   9.923   7.205 -0.1569 -0.2963  0.2273
  885MOL0     C16744   9.363   9.824   7.191  0.3464  0.0646 -0.4315
  885MOL0     C16745   9.473   9.826   7.283 -0.2470 -0.0549 -0.2122
  885MOL0     O16746   9.568   9.731   7.294  0.0391 -1.2230  0.6836
  885MOL0     C16747   9.565   9.628   7.187 -0.2363  0.4161 -0.2739
  885MOL0     C16748   9.688   9.533   7.221  1.3679 -0.0049 -0.7087
  885MOL0     C16749   9.647   9.428   7.328  0.0771  0.9608  0.1558
  885MOL0     C16750   9.728   9.303   7.318 -0.0132  0.9816 -0.1574
  885MOL0     C16751   9.868   9.320   7.346 -0.5344  0.1003  0.2233
  885MOL0     C16752   9.985   9.324   7.372 -0.5515  0.2543 -0.2301
  885MOL0     C16753   9.478   9.926   7.374  0.0770 -0.8110 -0.0274
  885MOL0     C16754   9.371  10.016   7.393  0.3339 -0.8202  0.9552
  885MOL0     H16755   9.225  10.451   7.249  2.1132  0.2283  2.1139
  885MOL0     H16756   9.133  10.662   7.295  2.2835 -1.9303 -1.9420
  885MOL0     H16757   8.761  10.621   7.451  0.2901 -1.0689 -0.7151
  885MOL0     H16758   8.798  10.720   7.317 -0.2803 -2.0434  0.1481
  885MOL0     H16759   8.761  10.831   7.606  5.1300 -0.3778  0.2502
  885MOL0     H16760   8.639  10.833   7.473  0.9659  0.3965 -1.8199
  885MOL0     H16761   8.786  10.987   7.341  0.6255 -4.6165 -0.9198
  885MOL0     H16762   8.916  10.983   7.449  0.8496 -3.5460 -2.7006
  885MOL0     H16763   8.815  11.102   7.628 -0.7779 -0.9085  0.8373
  885MOL0     H16764   8.775  11.192   7.481  1.3522  0.7226  2.0130
  885MOL0     H16765   8.573  11.165   7.628 -0.3199 -1.5067  1.4328
  885MOL0     H16766   8.580  10.995   7.628  1.2965  0.7326  2.0166
  885MOL0     H16767   8.542  11.032   7.357  0.6618 -0.9834  1.4809
  885MOL0     H16768   8.547  11.203   7.404  0.4566  0.2132  1.6573
  885MOL0     H16769   8.356  11.011   7.551 -0.7690  0.3654 -0.5987
  885MOL0     H16770   8.364  11.187   7.560  1.2069  1.4889 -0.6409
  885MOL0     H16771   8.169  11.112   7.417 -0.5228 -3.6098 -1.4362
  885MOL0     H16772   8.283  11.027   7.311 -1.5591  1.0289 -1.9996
  885MOL0     H16773   8.241  11.395   7.468  0.3124 -0.0583  0.4910
  885MOL0     H16774   8.248  11.647   7.284  1.0547 -2.0326  0.0065
  885MOL0     H16775   8.120  11.593   7.402  1.6295  2.4887  1.9978
  885MOL0     H16776   7.978  11.561   7.199  1.6736 -1.5876  2.2823
  885MOL0     H16777   8.115  11.636   7.106  1.7776 -1.4770  1.1058
  885MOL0     H16778   7.960  11.773   7.347  3.0972 -1.8769  1.8873
  885MOL0     H16779   8.065  11.846   7.212 -0.8599 -0.4104 -1.0922
  885MOL0     H16780   7.815  11.693   7.144  1.1995 -0.6142 -0.0171
  885MOL0     H16781   7.901  11.832   7.060  1.4777  3.2853  2.0190
  885MOL0     H16782   7.607  12.011   7.367  1.6839 -0.6654 -0.5294
  885MOL0     H16783   7.374  12.033   7.300  1.5548 -1.7801  1.8083
  885MOL0     H16784   7.052  11.948   6.743 -0.9596 -0.3504 -0.5944
  885MOL0     H16785   6.874  11.782   6.671  2.8955 -1.3468 -1.7592
  885MOL0     H16786   6.761  11.613   6.645 -1.1994 -0.5185 -1.0542
  885MOL0     H16787   6.628  11.691   6.748  1.4246  0.7551 -2.2499
  885MOL0     H16788   6.702  11.395   6.697  0.6662 -0.5566 -5.4503
  885MOL0     H16789   6.557  11.464   6.620 -0.7916 -0.2895  1.3598
  885MOL0     H16790   6.446  11.535   6.811 -0.4400 -0.9787 -1.5276
  885MOL0     H16791   6.574  11.481   6.926  2.5011  0.3730 -1.0882
  885MOL0     H16792   6.400  11.307   6.745 -0.1226 -0.1598 -0.9354
  885MOL0     H16793   6.531  11.239   6.837 -0.2072  0.6266 -0.7803
  885MOL0     H16794   6.305  11.210   6.942 -2.0429  1.0731 -0.1158
  885MOL0     H16795   6.286  11.383   6.959 -0.6141 -0.5135  0.4854
  885MOL0     H16796   6.507  11.362   7.118 -0.0201  0.9573 -0.5374
  885MOL0     H16797   6.485  11.192   7.085 -0.3515 -0.3221  2.6207
  885MOL0     H16798   6.258  11.358   7.216 -0.4087  0.4705  0.0540
  885MOL0     H16799   6.280  11.176   7.202  0.4080  0.5591 -0.7513
  885MOL0     H16800   6.487  11.193   7.343  0.2986  0.3184  1.0650
  885MOL0     H16801   6.345  11.237   7.432 -3.3040 -0.8620 -1.8765
  885MOL0     H16802   6.905  11.605   7.059  1.8683  0.6861  1.8695
  885MOL0     H16803   7.060  11.768   7.129  0.8482 -1.3978 -0.4630
  885MOL0     H16804   7.446  11.862   6.914  0.1402 -0.7390 -0.1640
  885MOL0     H16805   7.656  11.788   6.991 -0.6362  0.7880 -0.9882
  885MOL0     H16806   8.931  10.503   7.641  2.4944 -0.4226  0.7801
  885MOL0     H16807   9.018  10.296   7.599 -3.3612 -0.1676  0.0148
  885MOL0     H16808   9.182   9.922   7.132  0.2024  3.2467 -0.4172
  885MOL0     H16809   9.334   9.748   7.120 -0.2098 -0.1298 -0.0082
  885MOL0     H16810   9.582   9.675   7.090  1.2237  1.7610  0.5834
  885MOL0     H16811   9.471   9.572   7.193 -0.8982  1.5519  0.1042
  885MOL0     H16812   9.722   9.486   7.128 -1.2517  2.5434 -3.1346
  885MOL0     H16813   9.764   9.600   7.264 -1.3216  1.8423  1.5109
  885MOL0     H16814   9.543   9.398   7.313  0.6194 -0.5153 -0.8084
  885MOL0     H16815   9.655   9.464   7.431  0.2564  0.6985  0.2356
  885MOL0     H16816   9.687   9.226   7.384 -2.2657 -0.0495 -2.5799
  885MOL0     H16817   9.713   9.270   7.215  1.8316  3.7759 -1.4453
  885MOL0     H16818  10.091   9.328   7.386 -0.6387 -0.8629  1.0541
  885MOL0     H16819   9.568   9.938   7.434  0.6655  1.1970 -1.2047
  885MOL0     H16820   9.373  10.096   7.466  1.7062  1.4562 -1.4025
  886MOL0     O16821   7.161   8.645   2.252 -0.1591  0.6007  0.2555
  886MOL0     C16822   7.246   8.599   2.324 -0.6716  0.8825  0.5648
  886MOL0     O16823   7.224   8.573   2.460 -0.9307 -0.3863  0.6049
  886MOL0     C16824   7.096   8.584   2.518 -0.4152 -0.0325  0.5099
  886MOL0     C16825   7.035   8.468   2.568 -0.0957 -0.7964  0.2095
  886MOL0     C16826   6.904   8.477   2.630 -0.2263  0.1572 -0.3863
  886MOL0     C16827   6.849   8.609   2.642 -0.7767  0.9173  0.0133
  886MOL0     O16828   6.719   8.628   2.688  0.4188  0.2679 -0.4599
  886MOL0     C16829   6.641   8.511   2.739 -0.6859 -0.3483  0.3658
  886MOL0     C16830   6.513   8.554   2.801 -0.5553  0.3093 -0.8752
  886MOL0     C16831   6.422   8.632   2.711 -0.2179 -0.6829 -1.0273
  886MOL0     C16832   6.300   8.679   2.800  0.3662 -0.2434  0.8194
  886MOL0     C16833   6.212   8.787   2.733  0.3646  0.4213  1.1580
  886MOL0     C16834   6.060   8.765   2.766  0.2252  0.1152  0.2753
  886MOL0     C16835   5.972   8.835   2.663 -0.1272  0.4632  0.2765
  886MOL0     C16836   5.831   8.827   2.688 -0.2600 -0.2165 -0.7909
  886MOL0     N16837   5.755   8.905   2.593  0.6595 -0.0164 -0.1452
  886MOL0     C16838   5.755   9.037   2.563 -0.1808 -0.0118  1.0993
  886MOL0     C16839   5.671   9.056   2.462  0.2958 -0.1840  0.5827
  886MOL0     C16840   5.641   9.187   2.395 -0.3517  0.0746  0.5736
  886MOL0     C16841   5.566   9.183   2.266  0.0297 -0.6662 -0.0773
  886MOL0     C16842   5.433   9.108   2.282  0.3813  0.5012  0.2622
  886MOL0     C16843   5.320   9.163   2.186 -0.0977 -0.4469  1.1041
  886MOL0     O16844   5.293   9.296   2.234  0.1889  0.3079 -0.5794
  886MOL0     C16845   5.162   9.337   2.226 -0.4728  0.7009 -0.5623
  886MOL0     C16846   5.106   9.390   2.340 -0.1422 -0.8215 -0.7533
  886MOL0     C16847   4.963   9.404   2.335 -0.4022  0.2847 -0.3697
  886MOL0     C16848   4.886   9.372   2.226 -0.4660 -0.7389 -0.3708
  886MOL0     C16849   4.737   9.378   2.237  0.1706  0.0772  0.5035
  886MOL0     O16850   4.687   9.347   2.362 -0.3946  0.0390 -0.1902
  886MOL0     C16851   4.554   9.338   2.380  0.3462  0.5307  0.0666
  886MOL0     C16852   4.471   9.235   2.339  0.2634  0.0617  0.4223
  886MOL0     C16853   4.341   9.220   2.377 -0.5310 -0.7946  0.0628
  886MOL0     C16854   4.288   9.319   2.459  0.7183 -0.0462 -0.9049
  886MOL0     O16855   4.152   9.297   2.501 -0.0430 -0.3341 -0.0436
  886MOL0     C16856   4.111   9.367   2.620 -0.0689 -0.6296  0.2355
  886MOL0     C16857   3.984   9.294   2.671  0.1291 -0.3366  0.2664
  886MOL0     C16858   3.929   9.347   2.805  0.5775 -0.5866 -0.1197
  886MOL0     C16859   3.786   9.312   2.838  0.1262  0.7198 -0.8643
  886MOL0     C16860   3.734   9.385   2.961 -0.0092 -0.1537  0.1105
  886MOL0     C16861   3.589   9.343   2.964  0.4249 -0.0958 -0.5199
  886MOL0     C16862   3.528   9.404   3.088 -0.4592  0.2584  0.4769
  886MOL0     C16863   3.374   9.421   3.069 -0.4398 -0.3411 -0.2610
  886MOL0    Cl16864   3.338   9.548   2.937  0.3613  0.1931  0.3555
  886MOL0     C16865   4.367   9.425   2.513  0.6923 -0.2811  1.0988
  886MOL0     C16866   4.495   9.438   2.465  0.3043 -0.2505  0.5542
  886MOL0     O16867   4.666   9.411   2.136  0.0853 -0.6156 -0.0461
  886MOL0     C16868   4.948   9.338   2.107 -0.0598  0.1420  0.2225
  886MOL0     C16869   5.091   9.339   2.105  0.4242 -0.5966 -0.0319
  886MOL0     N16870   5.630   8.933   2.421  0.1391  0.0432  0.7679
  886MOL0     N16871   5.664   8.844   2.507  0.5225  0.4631  0.6592
  886MOL0     C16872   6.922   8.720   2.603  0.2814 -0.4634 -0.0119
  886MOL0     C16873   7.041   8.710   2.532  0.5402  0.3969 -0.5212
  886MOL0     C16874   7.382   8.587   2.267  0.7220  0.0718  0.2899
  886MOL0     C16875   7.403   8.595   2.126  0.2935  0.3996 -0.6075
  886MOL0     C16876   7.529   8.567   2.068  0.3891  0.5707 -0.4740
  886MOL0     C16877   7.640   8.538   2.152 -0.7070  0.1597  0.6228
  886MOL0     O16878   7.760   8.511   2.087  0.0246  0.0935  0.5595
  886MOL0     C16879   7.874   8.457   2.163 -0.1053  0.1956  0.1980
  886MOL0     C16880   7.863   8.315   2.199 -1.3411  0.5210 -0.9067
  886MOL0     C16881   7.855   8.230   2.075  0.7657 -0.2024 -0.3580
  886MOL0     C16882   7.923   8.095   2.082  0.3638 -0.4271  0.8853
  886MOL0     C16883   7.842   8.000   2.159  0.2014 -0.2994  0.2062
  886MOL0     C16884   7.779   7.934   2.229  0.0177 -0.9198 -0.1716
  886MOL0     C16885   7.622   8.538   2.287 -0.4438  0.0689  0.2127
  886MOL0     C16886   7.497   8.571   2.351 -1.0747 -0.5398 -0.1637
  886MOL0     H16887   7.088   8.375   2.549  1.5256  0.6869 -3.3135
  886MOL0     H16888   6.857   8.388   2.671  1.2759 -0.1834  0.6701
  886MOL0     H16889   6.700   8.459   2.815  1.6357  0.4587 -0.7983
  886MOL0     H16890   6.630   8.441   2.656 -0.1785  0.5443 -0.4698
  886MOL0     H16891   6.538   8.617   2.887 -2.4312  0.0130 -0.0419
  886MOL0     H16892   6.469   8.461   2.840  1.4596 -1.0200 -1.5938
  886MOL0     H16893   6.391   8.571   2.625 -2.7579  0.1234 -0.7666
  886MOL0     H16894   6.472   8.721   2.672 -0.1120 -0.8821 -1.3559
  886MOL0     H16895   6.234   8.596   2.826 -0.3629  1.0067  3.1602
  886MOL0     H16896   6.335   8.727   2.892 -0.6271 -1.9655  2.1532
  886MOL0     H16897   6.229   8.798   2.626 -2.2503 -0.9760  0.4991
  886MOL0     H16898   6.247   8.884   2.770  0.2278  1.1368 -0.5129
  886MOL0     H16899   6.027   8.811   2.860 -0.5756  1.5723 -0.6866
  886MOL0     H16900   6.030   8.660   2.755 -0.4102  0.2520  0.6791
  886MOL0     H16901   6.011   8.938   2.663  0.1530  0.3573  0.4167
  886MOL0     H16902   5.987   8.799   2.561 -1.6986  0.7863 -0.1010
  886MOL0     H16903   5.821   8.869   2.789  1.3064 -2.7129  0.5032
  886MOL0     H16904   5.789   8.727   2.694 -1.0102  0.1784  1.7674
  886MOL0     H16905   5.791   9.123   2.618  0.3935 -0.0466  0.7831
  886MOL0     H16906   5.736   9.240   2.383 -1.7440  2.5368 -0.0819
  886MOL0     H16907   5.592   9.261   2.458  1.6045  3.1366 -1.2476
  886MOL0     H16908   5.629   9.137   2.190 -1.2647  0.7164 -2.0650
  886MOL0     H16909   5.556   9.286   2.232 -3.5507 -1.2400 -1.1513
  886MOL0     H16910   5.455   9.005   2.253 -0.5811 -0.0553  1.4225
  886MOL0     H16911   5.386   9.113   2.381 -0.9987  2.5244 -0.4326
  886MOL0     H16912   5.227   9.106   2.180  0.0439 -0.5524 -1.0404
  886MOL0     H16913   5.356   9.182   2.084  1.1991  1.0665  1.8029
  886MOL0     H16914   5.159   9.426   2.428  0.3797 -1.7185 -0.6889
  886MOL0     H16915   4.897   9.432   2.417  0.8992 -0.7750  1.0862
  886MOL0     H16916   4.523   9.151   2.293 -0.9758  0.3891 -1.6914
  886MOL0     H16917   4.279   9.133   2.359  0.8623 -1.7246 -0.3846
  886MOL0     H16918   4.078   9.469   2.596 -1.1601 -0.7291  1.1889
  886MOL0     H16919   4.178   9.381   2.705 -0.8356 -2.0309  1.1070
  886MOL0     H16920   4.008   9.187   2.675  0.0625 -0.4448 -1.3926
  886MOL0     H16921   3.903   9.301   2.598  1.0036 -0.2151 -0.7248
  886MOL0     H16922   3.951   9.453   2.823  0.9228 -0.9778  2.1698
  886MOL0     H16923   3.990   9.298   2.882  1.1107 -1.3819 -1.0428
  886MOL0     H16924   3.726   9.339   2.750 -0.3864 -0.7433 -0.9985
  886MOL0     H16925   3.774   9.204   2.846 -2.0841  0.9243 -0.6828
  886MOL0     H16926   3.739   9.494   2.955  1.0641 -0.2536 -1.2418
  886MOL0     H16927   3.783   9.358   3.054  1.3501  0.2987 -0.4583
  886MOL0     H16928   3.572   9.235   2.968 -1.0533  0.1323  3.5729
  886MOL0     H16929   3.540   9.376   2.872  0.2111  2.1208  0.3365
  886MOL0     H16930   3.551   9.328   3.163 -1.4592  1.3539  1.9248
  886MOL0     H16931   3.567   9.501   3.117  2.5124 -1.0958  1.3571
  886MOL0     H16932   3.333   9.450   3.166  1.4138  0.4883  0.3294
  886MOL0     H16933   3.339   9.321   3.042 -0.5139 -0.5917  0.7464
  886MOL0     H16934   4.342   9.500   2.587 -1.3421 -2.0609  2.3541
  886MOL0     H16935   4.559   9.521   2.494 -1.0204  1.6893 -1.6572
  886MOL0     H16936   4.890   9.313   2.019  4.0433 -1.1018 -2.4106
  886MOL0     H16937   5.145   9.310   2.016  0.1481 -1.9465  0.2270
  886MOL0     H16938   6.873   8.816   2.617 -1.9235 -1.1622 -2.1736
  886MOL0     H16939   7.094   8.799   2.499  1.6598 -0.6319 -1.5317
  886MOL0     H16940   7.319   8.625   2.064  2.1719  4.1791 -1.5925
  886MOL0     H16941   7.538   8.580   1.961 -2.8129  0.8808 -0.7984
  886MOL0     H16942   7.904   8.527   2.241 -0.4685  1.0707 -0.4260
  886MOL0     H16943   7.965   8.468   2.103  0.5493  1.5868  1.3897
  886MOL0     H16944   7.946   8.284   2.263 -1.5053 -0.1895 -1.0295
  886MOL0     H16945   7.770   8.294   2.253 -1.6715 -4.0576 -2.7561
  886MOL0     H16946   7.907   8.286   1.996 -0.8858 -1.5204 -2.5142
  886MOL0     H16947   7.759   8.202   2.031  0.6029  1.6146 -1.2290
  886MOL0     H16948   7.941   8.059   1.980  3.3530  0.0108  1.1892
  886MOL0     H16949   8.027   8.107   2.113  0.2686  0.9171  0.7235
  886MOL0     H16950   7.730   7.862   2.292 -0.0259  0.9111  2.0074
  886MOL0     H16951   7.700   8.508   2.357 -0.7742 -0.6392  0.2763
  886MOL0     H16952   7.490   8.583   2.459  2.9073 -2.6030  0.4920
  887MOL0     O16953   4.159   3.264   2.509  0.4645 -0.1906 -0.0258
  887MOL0     C16954   4.169   3.324   2.619  0.3796 -0.1535  1.0388
  887MOL0     O16955   4.077   3.362   2.709 -0.2316  0.0562  0.6698
  887MOL0     C16956   3.945   3.342   2.678 -0.0754 -0.4101  0.4829
  887MOL0     C16957   3.894   3.402   2.565  0.1196 -0.8013  0.2848
  887MOL0     C16958   3.753   3.388   2.555 -0.3195  0.2638 -0.0217
  887MOL0     C16959   3.669   3.322   2.651  0.0268  0.8977 -0.2586
  887MOL0     O16960   3.527   3.313   2.618  0.1879 -0.1005  0.1653
  887MOL0     C16961   3.439   3.302   2.726  0.5010 -0.4067 -0.3898
  887MOL0     C16962   3.302   3.326   2.647  0.5476  0.1898  0.6582
  887MOL0     C16963   3.179   3.307   2.741 -0.5826  0.2821  0.5058
  887MOL0     C16964   3.055   3.290   2.651 -0.6473  0.2027  0.4342
  887MOL0     C16965   2.923   3.276   2.737 -0.4749 -0.1885 -1.0014
  887MOL0     C16966   2.814   3.295   2.634 -0.0400  0.4387  0.1624
  887MOL0     C16967   2.683   3.296   2.708  0.3667 -0.4716 -0.3363
  887MOL0     C16968   2.577   3.354   2.625 -0.0579 -0.5611  0.1122
  887MOL0     N16969   2.444   3.335   2.680 -0.4259  0.7594  0.2243
  887MOL0     C16970   2.375   3.421   2.772 -0.1927  0.6123  0.2282
  887MOL0     C16971   2.254   3.367   2.793 -0.0539  0.0923  0.4155
  887MOL0     C16972   2.152   3.453   2.859 -0.0469  0.9564  0.0274
  887MOL0     C16973   2.008   3.396   2.835  0.0313  0.1655  0.1759
  887MOL0     C16974   1.973   3.254   2.887 -0.7073  0.0386  0.3541
  887MOL0     C16975   1.991   3.236   3.044 -0.2975  0.1323 -0.2394
  887MOL0     O16976   1.896   3.320   3.110 -0.0755  0.1861  0.7789
  887MOL0     C16977   1.770   3.290   3.110  0.2743  0.0386  0.5149
  887MOL0     C16978   1.705   3.178   3.057  0.6585 -0.0624  0.1972
  887MOL0     C16979   1.563   3.148   3.064  0.6011 -0.3112 -0.7892
  887MOL0     C16980   1.477   3.230   3.143 -0.2798 -0.3852  0.2628
  887MOL0     C16981   1.332   3.198   3.161  0.1846  0.5822 -0.6891
  887MOL0     O16982   1.290   3.106   3.077 -0.4541 -0.8181  0.5336
  887MOL0     C16983   1.160   3.090   3.046 -0.4376  0.2146  0.4087
  887MOL0     C16984   1.143   2.962   2.993 -0.5569 -0.1330  0.3765
  887MOL0     C16985   1.012   2.917   2.962 -0.5418 -0.2771  0.3357
  887MOL0     C16986   0.902   2.992   2.999  1.2004 -0.5289 -1.1320
  887MOL0     O16987   0.782   2.933   2.978  0.3993 -0.0467  0.8042
  887MOL0     C16988   0.677   3.017   2.922 -0.0324  0.3211 -0.0125
  887MOL0     C16989   0.590   2.913   2.842 -0.0166 -0.6479 -0.7366
  887MOL0     C16990   0.489   2.858   2.937 -0.2708 -0.5981  0.5452
  887MOL0     C16991   0.380   2.782   2.858 -0.5301 -0.0640 -1.1458
  887MOL0     C16992   0.288   2.705   2.955  1.3061 -0.0733 -0.6523
  887MOL0     C16993   0.186   2.806   3.008 -0.4581  0.1425 -0.0581
  887MOL0     C16994   0.098   2.724   3.097  0.4928 -0.2158  0.7956
  887MOL0     C16995  -0.018   2.814   3.144  0.1027  0.2227 -0.9697
  887MOL0    Cl16996  -0.152   2.701   3.186  0.1494 -0.3051 -0.0765
  887MOL0     C16997   0.919   3.122   3.052  0.1018 -0.5145 -0.3364
  887MOL0     C16998   1.047   3.173   3.074  0.7563  0.2762  1.5987
  887MOL0     O16999   1.268   3.259   3.243  0.0491  0.3481 -0.3017
  887MOL0     C17000   1.545   3.332   3.217  0.3582  0.6086  0.4392
  887MOL0     C17001   1.687   3.358   3.189 -0.3675  0.1796 -0.7358
  887MOL0     N17002   2.255   3.254   2.716  0.2384  0.7989  0.0774
  887MOL0     N17003   2.357   3.231   2.649 -0.5731  0.2148  0.4720
  887MOL0     C17004   3.727   3.280   2.770 -0.3759  0.3903 -0.2626
  887MOL0     C17005   3.873   3.288   2.783  0.8565 -0.7624  0.4015
  887MOL0     C17006   4.296   3.388   2.649 -0.5075 -0.9485 -0.1456
  887MOL0     C17007   4.328   3.447   2.777 -0.1022 -0.6170 -0.3146
  887MOL0     C17008   4.452   3.508   2.804 -0.4050 -0.7402 -0.3545
  887MOL0     C17009   4.549   3.505   2.705  0.5123 -0.1396 -0.0090
  887MOL0     O17010   4.672   3.549   2.722  0.5538 -0.0512  0.4956
  887MOL0     C17011   4.730   3.557   2.852  0.5564  0.9920  0.2435
  887MOL0     C17012   4.876   3.529   2.846 -0.2584 -1.4465 -1.0996
  887MOL0     C17013   4.953   3.499   2.979  0.4506  1.3490 -0.0222
  887MOL0     C17014   5.078   3.588   2.996  0.3336 -0.7568 -0.3243
  887MOL0     C17015   5.168   3.520   3.088  0.4392 -0.3052 -0.2456
  887MOL0     C17016   5.232   3.464   3.168  0.3800  1.0712 -0.3189
  887MOL0     C17017   4.515   3.444   2.582 -0.1337 -0.2521 -0.1065
  887MOL0     C17018   4.400   3.387   2.548 -0.1321  0.3703  0.3313
  887MOL0     H17019   3.960   3.455   2.497 -1.9304  1.4776 -0.0502
  887MOL0     H17020   3.700   3.442   2.476 -0.2411  1.9303  1.0252
  887MOL0     H17021   3.454   3.376   2.804 -0.8028 -0.4321 -0.0806
  887MOL0     H17022   3.442   3.204   2.775 -2.2513 -0.0123  0.7633
  887MOL0     H17023   3.283   3.253   2.568 -1.1915  0.2014  1.0327
  887MOL0     H17024   3.299   3.421   2.594  0.7493  0.1475  0.5675
  887MOL0     H17025   3.162   3.399   2.797  1.3133  1.3964 -0.6149
  887MOL0     H17026   3.197   3.222   2.807 -0.6318  0.4633  0.7528
  887MOL0     H17027   3.049   3.374   2.582  3.5455 -0.9328 -1.5807
  887MOL0     H17028   3.075   3.207   2.584  2.5967  0.6014  0.7534
  887MOL0     H17029   2.926   3.349   2.818 -1.5905 -0.1115 -1.0182
  887MOL0     H17030   2.911   3.173   2.774  0.1461  0.1445  0.1686
  887MOL0     H17031   2.817   3.213   2.562  0.5434  1.0979 -0.5807
  887MOL0     H17032   2.820   3.384   2.570  0.6508  1.0845  1.0766
  887MOL0     H17033   2.663   3.189   2.720  2.2015 -0.8004  0.1857
  887MOL0     H17034   2.678   3.337   2.809 -0.1349  0.4040 -0.7084
  887MOL0     H17035   2.572   3.310   2.525  0.6715 -2.9420  1.0433
  887MOL0     H17036   2.584   3.462   2.610 -1.3295 -0.1978  1.7832
  887MOL0     H17037   2.405   3.519   2.808 -2.2705  1.0306  0.9238
  887MOL0     H17038   2.154   3.553   2.815  0.6322 -0.0219 -2.3287
  887MOL0     H17039   2.155   3.449   2.968  0.0887 -0.2871 -0.0069
  887MOL0     H17040   2.000   3.381   2.727 -0.2793 -3.1602  0.5620
  887MOL0     H17041   1.930   3.464   2.871 -0.3219  0.1099 -0.4766
  887MOL0     H17042   1.868   3.229   2.871 -0.5087 -0.6885  0.1399
  887MOL0     H17043   2.046   3.185   2.844  0.2263  1.9080 -1.1583
  887MOL0     H17044   2.088   3.268   3.084 -1.4503  1.0395  2.0209
  887MOL0     H17045   1.983   3.129   3.065 -0.9225 -0.2208 -2.1159
  887MOL0     H17046   1.762   3.098   3.011 -2.0639 -3.2547  1.8708
  887MOL0     H17047   1.509   3.068   3.015 -0.3057  0.6908 -1.4709
  887MOL0     H17048   1.224   2.890   2.982 -0.2710 -0.2282  2.5307
  887MOL0     H17049   1.002   2.827   2.902  3.0955  0.4584 -1.6631
  887MOL0     H17050   0.724   3.089   2.854 -2.2362  1.7034 -0.1519
  887MOL0     H17051   0.613   3.063   2.997 -1.3830 -0.2882 -0.7535
  887MOL0     H17052   0.650   2.846   2.781  1.2774  0.2446 -0.5105
  887MOL0     H17053   0.533   2.975   2.773 -0.7970 -1.5870 -0.9511
  887MOL0     H17054   0.449   2.938   3.000  1.4333 -0.4561  1.5125
  887MOL0     H17055   0.550   2.785   2.992  0.6668 -2.0267 -2.2020
  887MOL0     H17056   0.333   2.840   2.778  2.5316  1.6565 -1.8427
  887MOL0     H17057   0.434   2.703   2.804  3.0587  1.3673  0.0583
  887MOL0     H17058   0.350   2.659   3.033  0.2151  0.9940  0.9114
  887MOL0     H17059   0.238   2.624   2.901  1.9266 -2.0346  1.5528
  887MOL0     H17060   0.140   2.848   2.918  1.4755 -2.0553 -2.2028
  887MOL0     H17061   0.231   2.889   3.063 -0.4071  0.2131 -0.2033
  887MOL0     H17062   0.060   2.640   3.039  1.3171  0.6842 -1.1738
  887MOL0     H17063   0.156   2.687   3.182  0.6427 -1.7324  0.0530
  887MOL0     H17064  -0.051   2.876   3.061 -0.1085  0.8680 -0.4162
  887MOL0     H17065   0.023   2.872   3.227 -1.4083 -0.8078  0.5515
  887MOL0     H17066   0.829   3.167   3.092  1.2046  0.8640  0.6953
  887MOL0     H17067   1.061   3.275   3.109  0.3099  0.5508  0.9845
  887MOL0     H17068   1.481   3.400   3.273 -0.2293  2.6623 -2.4535
  887MOL0     H17069   1.738   3.432   3.250 -0.4023  0.5234 -1.1147
  887MOL0     H17070   3.672   3.227   2.848  2.0502 -2.9739 -0.6602
  887MOL0     H17071   3.904   3.261   2.884  0.2911  3.0107  1.7652
  887MOL0     H17072   4.252   3.462   2.853 -0.4580 -0.0448 -0.7854
  887MOL0     H17073   4.476   3.576   2.885 -1.5565 -0.4920 -0.2048
  887MOL0     H17074   4.686   3.484   2.920  2.2515 -0.0954  0.2459
  887MOL0     H17075   4.714   3.660   2.886 -0.5662  0.3567  1.7001
  887MOL0     H17076   4.905   3.440   2.790  1.8798  0.8987 -4.0861
  887MOL0     H17077   4.929   3.605   2.788  2.1616 -2.1049  0.1264
  887MOL0     H17078   4.982   3.393   2.982  0.5073  1.3370 -0.7669
  887MOL0     H17079   4.891   3.508   3.069  0.9909 -1.3512  0.7383
  887MOL0     H17080   5.126   3.607   2.900  3.1485  0.9552  1.3018
  887MOL0     H17081   5.047   3.684   3.040 -3.5016 -1.9580 -0.0344
  887MOL0     H17082   5.285   3.415   3.247  4.2626  3.2960 -1.2369
  887MOL0     H17083   4.601   3.439   2.516  1.1131  1.4461  1.2927
  887MOL0     H17084   4.388   3.338   2.452  0.0263  1.4016 -0.2284
  888MOL0     O17085   1.965   6.080   6.121 -0.0167 -0.4096 -0.2450
  888MOL0     C17086   1.954   6.206   6.131  0.0502 -0.5521 -1.0397
  888MOL0     O17087   1.839   6.286   6.123  0.8985 -0.0753 -0.2315
  888MOL0     C17088   1.712   6.233   6.096 -0.1413  0.8713  1.1669
  888MOL0     C17089   1.596   6.271   6.167  0.0419  0.6666 -0.2044
  888MOL0     C17090   1.471   6.234   6.121  0.1138 -0.3780 -0.3799
  888MOL0     C17091   1.453   6.176   5.988 -1.0071  0.0491 -0.5023
  888MOL0     O17092   1.334   6.167   5.930  0.1517  0.1597 -0.2379
  888MOL0     C17093   1.322   6.234   5.798 -0.0782  0.1816  0.3088
  888MOL0     C17094   1.195   6.180   5.729  0.2894 -0.0065 -0.0628
  888MOL0     C17095   1.173   6.033   5.762 -1.7824 -1.0332  0.4341
  888MOL0     C17096   1.049   5.985   5.685  0.1807  0.9698 -0.7636
  888MOL0     C17097   0.999   5.843   5.703 -0.3789  1.1263 -0.7773
  888MOL0     C17098   1.105   5.740   5.652  0.3099 -0.4200 -0.3530
  888MOL0     C17099   1.059   5.597   5.636  0.6432  0.1876  0.1543
  888MOL0     C17100   0.968   5.558   5.511 -0.5761 -0.3821  0.7361
  888MOL0     N17101   0.850   5.638   5.497 -0.0335 -0.2629  0.4270
  888MOL0     C17102   0.737   5.610   5.558  0.7633 -0.0901 -1.2924
  888MOL0     C17103   0.643   5.672   5.490  0.0192 -0.2114 -0.5253
  888MOL0     C17104   0.493   5.684   5.519 -0.4500  0.0772  0.1561
  888MOL0     C17105   0.401   5.692   5.398 -0.1524  0.4494 -0.5148
  888MOL0     C17106   0.414   5.570   5.300 -0.3283  0.9301  0.3016
  888MOL0     C17107   0.328   5.585   5.172 -0.0167  0.7707 -0.0287
  888MOL0     O17108   0.186   5.586   5.212 -0.3723 -0.0041 -0.9090
  888MOL0     C17109   0.089   5.611   5.122  1.0451 -0.5473  0.0147
  888MOL0     C17110  -0.014   5.703   5.137  0.8055 -1.4785 -0.5906
  888MOL0     C17111  -0.130   5.693   5.061  0.3934 -0.9492 -0.3632
  888MOL0     C17112  -0.150   5.582   4.978  1.2303 -0.7840 -0.3743
  888MOL0     C17113  -0.289   5.546   4.934 -0.2347 -0.5228 -0.4409
  888MOL0     O17114  -0.388   5.626   4.985 -0.3323 -0.0934 -0.1078
  888MOL0     C17115  -0.522   5.619   4.958 -0.4464 -0.7384  0.5867
  888MOL0     C17116  -0.568   5.656   4.833 -0.4683  0.1270 -0.6840
  888MOL0     C17117  -0.703   5.663   4.809 -1.4130  0.4351  0.3249
  888MOL0     C17118  -0.807   5.637   4.900 -0.6223  0.0019  0.3685
  888MOL0     O17119  -0.942   5.639   4.867 -0.7371  0.3908 -1.1961
  888MOL0     C17120  -1.017   5.528   4.917 -0.2521 -0.5528  0.9265
  888MOL0     C17121  -1.168   5.551   4.909 -0.2300 -0.1012  0.3183
  888MOL0     C17122  -1.226   5.428   4.966  0.0462 -0.6860  0.5681
  888MOL0     C17123  -1.375   5.407   4.941 -0.0726  0.0883  0.1873
  888MOL0     C17124  -1.430   5.285   5.017 -0.7935 -0.0150 -0.4868
  888MOL0     C17125  -1.575   5.263   4.985 -0.4944 -0.8997  0.2280
  888MOL0     C17126  -1.641   5.138   5.045  0.0593  0.1401  0.0495
  888MOL0     C17127  -1.784   5.150   5.020  0.2444  0.0228  0.4878
  888MOL0    Cl17128  -1.858   4.987   5.056  0.1303  0.0470  0.2656
  888MOL0     C17129  -0.754   5.597   5.026  0.5134  1.6299 -0.0343
  888MOL0     C17130  -0.617   5.576   5.056 -0.5896  1.1316 -0.2071
  888MOL0     O17131  -0.308   5.449   4.863  0.8937 -0.4565 -0.0691
  888MOL0     C17132  -0.048   5.494   4.959  0.0637  0.5139  0.1098
  888MOL0     C17133   0.071   5.508   5.025 -1.4310 -0.4973  0.3966
  888MOL0     N17134   0.701   5.761   5.411 -0.4254  0.7833 -0.1690
  888MOL0     N17135   0.830   5.743   5.418  0.2003  0.1932  0.2114
  888MOL0     C17136   1.573   6.129   5.921  0.3190  0.1878 -0.2628
  888MOL0     C17137   1.693   6.172   5.965  0.6639  0.1151 -0.7876
  888MOL0     C17138   2.073   6.265   6.193  0.2670 -0.8710 -0.5849
  888MOL0     C17139   2.201   6.206   6.200 -0.2068  0.7717 -0.5534
  888MOL0     C17140   2.322   6.267   6.241 -0.2693  0.1730 -1.2236
  888MOL0     C17141   2.323   6.404   6.283  0.3340  0.4242 -0.2779
  888MOL0     O17142   2.439   6.472   6.313 -0.0144  0.4880  0.2261
  888MOL0     C17143   2.449   6.598   6.250  0.3964  0.6524 -0.7200
  888MOL0     C17144   2.582   6.649   6.207 -0.5932 -0.0085  0.2104
  888MOL0     C17145   2.629   6.752   6.307  0.4082  0.4665  0.2189
  888MOL0     C17146   2.752   6.833   6.280  0.5436 -0.8172 -0.4953
  888MOL0     C17147   2.719   6.961   6.216  0.4725 -0.1530 -0.1923
  888MOL0     C17148   2.679   7.053   6.152  0.0125 -0.1486 -0.7401
  888MOL0     C17149   2.200   6.470   6.281  0.2957 -0.1539  0.6918
  888MOL0     C17150   2.080   6.400   6.241 -0.0781 -0.2131 -1.0122
  888MOL0     H17151   1.606   6.317   6.265  5.3056 -0.1112 -0.0881
  888MOL0     H17152   1.381   6.268   6.172  0.8458  1.8818 -0.4864
  888MOL0     H17153   1.411   6.217   5.736  0.2334 -1.6555  1.1917
  888MOL0     H17154   1.301   6.339   5.817  0.6252  0.4561 -0.3705
  888MOL0     H17155   1.206   6.201   5.623  0.6358 -1.8531 -0.4360
  888MOL0     H17156   1.108   6.230   5.772  1.5289 -0.2172  3.0098
  888MOL0     H17157   1.161   6.023   5.870 -1.5586 -0.2214  0.5377
  888MOL0     H17158   1.263   5.982   5.726  0.6832  4.1808 -1.8993
  888MOL0     H17159   0.968   6.058   5.685  2.0695  3.1995 -0.6075
  888MOL0     H17160   1.083   5.982   5.581 -0.3828  2.2057 -0.9933
  888MOL0     H17161   0.914   5.827   5.636 -0.0222  2.3987 -1.5780
  888MOL0     H17162   0.971   5.830   5.808 -0.3844  0.0581 -0.9048
  888MOL0     H17163   1.187   5.741   5.724  0.7805 -0.4758 -0.8816
  888MOL0     H17164   1.145   5.775   5.557 -0.6588  2.0692  0.0975
  888MOL0     H17165   1.149   5.535   5.637 -0.0748 -0.8974  2.2160
  888MOL0     H17166   1.023   5.568   5.735  0.8296  1.0133  0.4684
  888MOL0     H17167   0.940   5.453   5.520 -2.7214 -0.0562 -1.1533
  888MOL0     H17168   1.030   5.582   5.424 -1.8505 -0.2369 -0.1500
  888MOL0     H17169   0.722   5.547   5.645  1.4754  0.5903 -0.6641
  888MOL0     H17170   0.478   5.784   5.562 -0.0281  0.2993 -0.1997
  888MOL0     H17171   0.462   5.606   5.589 -0.4682  1.3017  1.5608
  888MOL0     H17172   0.421   5.788   5.349 -0.5069  1.8158  1.8802
  888MOL0     H17173   0.298   5.695   5.436 -0.9140 -1.8339 -2.1687
  888MOL0     H17174   0.517   5.553   5.266 -0.7871 -0.8547 -0.2930
  888MOL0     H17175   0.384   5.486   5.364  0.7673  1.8260  2.0751
  888MOL0     H17176   0.354   5.500   5.109 -3.7033 -1.2186  0.8343
  888MOL0     H17177   0.365   5.673   5.119 -0.9925  0.5881 -1.0416
  888MOL0     H17178  -0.013   5.768   5.223 -2.1328 -0.1394 -1.4341
  888MOL0     H17179  -0.221   5.742   5.094  0.6659 -0.8627  0.2784
  888MOL0     H17180  -0.489   5.681   4.762 -1.6675  1.9617 -1.4442
  888MOL0     H17181  -0.745   5.685   4.711 -3.6954  0.0210  1.1364
  888MOL0     H17182  -0.990   5.506   5.021  0.2154 -2.7085  0.3946
  888MOL0     H17183  -1.002   5.442   4.850 -2.7254  0.9692 -1.8420
  888MOL0     H17184  -1.186   5.566   4.802 -0.4645 -0.8009  0.2560
  888MOL0     H17185  -1.212   5.638   4.959  0.5077  1.4337 -1.5863
  888MOL0     H17186  -1.221   5.449   5.074 -0.3346 -0.4419  0.5380
  888MOL0     H17187  -1.176   5.340   4.926  1.4937  0.6402 -0.6705
  888MOL0     H17188  -1.428   5.494   4.980 -0.5034 -0.4915  0.9372
  888MOL0     H17189  -1.402   5.402   4.835  2.9650 -2.4038 -0.6254
  888MOL0     H17190  -1.421   5.310   5.123 -3.0912  0.8100 -0.4313
  888MOL0     H17191  -1.369   5.194   5.007 -4.6116 -2.8675 -0.0389
  888MOL0     H17192  -1.583   5.262   4.876 -2.2042 -0.9272  0.3288
  888MOL0     H17193  -1.637   5.352   5.003 -0.0009 -0.7014  0.9890
  888MOL0     H17194  -1.589   5.046   5.018  0.4762  0.3653  0.0664
  888MOL0     H17195  -1.633   5.141   5.154  1.3913 -2.2747  0.0676
  888MOL0     H17196  -1.790   5.180   4.915  2.8068 -2.2687 -0.4232
  888MOL0     H17197  -1.816   5.232   5.086  1.3271 -0.8574  2.1793
  888MOL0     H17198  -0.809   5.559   5.112  0.9682  0.9615 -0.0305
  888MOL0     H17199  -0.567   5.536   5.143 -1.1443 -1.9964 -1.1842
  888MOL0     H17200  -0.064   5.413   4.888  0.4206  1.1816 -0.7495
  888MOL0     H17201   0.151   5.435   5.015 -0.9286  0.1717 -0.5503
  888MOL0     H17202   1.568   6.091   5.820 -2.1665  2.1736 -1.0025
  888MOL0     H17203   1.781   6.156   5.902  1.7439 -0.4725  0.8187
  888MOL0     H17204   2.214   6.103   6.168 -0.1225  0.6719 -0.1934
  888MOL0     H17205   2.417   6.215   6.240  1.4783  2.8028  2.7108
  888MOL0     H17206   2.395   6.665   6.318  1.7159  0.3495  0.6832
  888MOL0     H17207   2.387   6.603   6.161 -0.4804 -0.3029 -0.1836
  888MOL0     H17208   2.645   6.559   6.207 -0.9646 -0.3091  2.1101
  888MOL0     H17209   2.565   6.697   6.111 -2.2896  2.8915  1.8249
  888MOL0     H17210   2.640   6.703   6.404  0.7867  0.6102  0.2494
  888MOL0     H17211   2.543   6.819   6.320  0.1074 -0.1343  1.4434
  888MOL0     H17212   2.800   6.852   6.376  2.1669  3.2474 -1.9005
  888MOL0     H17213   2.815   6.770   6.216  0.7905  0.9617 -2.0924
  888MOL0     H17214   2.639   7.131   6.092  0.2513  1.4038  1.0303
  888MOL0     H17215   2.193   6.576   6.304 -1.9539 -0.3833  1.2475
  888MOL0     H17216   1.989   6.458   6.255  1.2055  1.8205 -0.8343
  889MOL0     O17217   6.344   8.234   9.029  0.4402  0.4961 -0.4143
  889MOL0     C17218   6.381   8.202   9.143  0.1111  0.5885  0.0896
  889MOL0     O17219   6.334   8.260   9.250  0.7750  0.0070  0.1049
  889MOL0     C17220   6.260   8.380   9.239  0.2493 -0.2988  0.1928
  889MOL0     C17221   6.162   8.396   9.336  0.5060 -0.3465  0.3282
  889MOL0     C17222   6.094   8.515   9.345  0.1716 -0.1519  0.1484
  889MOL0     C17223   6.122   8.624   9.261  0.5599 -0.2387 -0.0449
  889MOL0     O17224   6.048   8.736   9.274  0.4093 -0.2763 -0.2788
  889MOL0     C17225   6.008   8.781   9.409  0.0947 -0.4860  0.2792
  889MOL0     C17226   5.854   8.764   9.415 -0.7851 -0.6386  1.0118
  889MOL0     C17227   5.810   8.792   9.566  0.1992 -0.4351 -0.6437
  889MOL0     C17228   5.664   8.814   9.567 -0.4848  1.0342  0.4514
  889MOL0     C17229   5.605   8.885   9.689 -0.0698  0.8515  1.2189
  889MOL0     C17230   5.579   8.809   9.818 -0.4011 -0.1270 -0.2999
  889MOL0     C17231   5.496   8.886   9.915  0.1122  0.0212 -0.1593
  889MOL0     C17232   5.505   8.841  10.057 -0.4545 -0.2090  0.5652
  889MOL0     N17233   5.379   8.863  10.127  0.1067 -0.5431 -0.2967
  889MOL0     C17234   5.326   8.996  10.134  0.6131  0.2148 -0.6042
  889MOL0     C17235   5.198   8.982  10.172 -0.1935 -1.0627  0.2305
  889MOL0     C17236   5.116   9.097  10.224 -0.0030 -0.2460 -0.1882
  889MOL0     C17237   5.123   9.083  10.373  0.5955 -0.2562  0.1534
  889MOL0     C17238   5.010   9.150  10.448  0.4169  0.1834  0.0342
  889MOL0     C17239   5.022   9.149  10.601 -0.1349  0.1523  0.4144
  889MOL0     O17240   5.148   9.189  10.646  0.6033 -0.2108 -0.4262
  889MOL0     C17241   5.172   9.164  10.780 -0.8084 -0.6008 -0.0648
  889MOL0     C17242   5.279   9.238  10.824  0.9958 -0.8047 -0.1392
  889MOL0     C17243   5.325   9.228  10.954 -0.1932  0.3790  0.8513
  889MOL0     C17244   5.284   9.137  11.043 -0.3462  0.3407 -0.3987
  889MOL0     C17245   5.309   9.138  11.187  0.3147  0.1697  0.0647
  889MOL0     O17246   5.222   9.083  11.273 -0.2659 -0.0416 -0.0059
  889MOL0     C17247   5.249   9.068  11.408  0.1120  0.1002  0.6069
  889MOL0     C17248   5.155   9.105  11.497 -0.8858  0.4005 -0.5668
  889MOL0     C17249   5.170   9.086  11.639  0.4259  0.5742  0.5475
  889MOL0     C17250   5.290   9.035  11.693 -0.5318  0.7061 -0.0876
  889MOL0     O17251   5.316   9.005  11.824 -0.1186  0.0543  0.1382
  889MOL0     C17252   5.259   9.088  11.926 -0.2754  0.4250  0.4838
  889MOL0     C17253   5.295   9.038  12.063 -0.7480 -0.5216 -0.2023
  889MOL0     C17254   5.223   9.114  12.174  0.3108 -0.9353  0.3787
  889MOL0     C17255   5.247   9.063  12.317  0.1821  1.3339  0.3252
  889MOL0     C17256   5.144   9.089  12.422 -0.2261 -0.8766  0.2373
  889MOL0     C17257   5.184   9.076  12.574 -0.5283  0.5780  0.0955
  889MOL0     C17258   5.102   9.177  12.655  0.5110  0.9087 -0.0096
  889MOL0     C17259   4.954   9.135  12.668  0.0815  0.8183 -0.5210
  889MOL0    Cl17260   4.845   9.253  12.732  0.0576  0.5194 -0.0726
  889MOL0     C17261   5.386   8.993  11.598 -0.2957 -0.6639 -0.9432
  889MOL0     C17262   5.364   9.013  11.463 -0.3080 -0.4590  0.3899
  889MOL0     O17263   5.417   9.190  11.217  1.5346 -0.1768  0.0769
  889MOL0     C17264   5.171   9.063  11.000  0.3688 -0.7368  0.5860
  889MOL0     C17265   5.114   9.075  10.875 -0.0168  0.5950  0.2545
  889MOL0     N17266   5.168   8.851  10.166  0.0345  0.1224 -0.7774
  889MOL0     N17267   5.273   8.779  10.150  0.0423 -0.0292  0.2770
  889MOL0     C17268   6.226   8.618   9.175  0.4776 -0.1458  0.8384
  889MOL0     C17269   6.289   8.493   9.165 -0.2824  0.1138 -0.1976
  889MOL0     C17270   6.461   8.073   9.160  0.2122  0.2664  0.3575
  889MOL0     C17271   6.552   8.048   9.269  0.0125 -0.0580 -0.8515
  889MOL0     C17272   6.610   7.919   9.279  0.2381  0.4583  0.3849
  889MOL0     C17273   6.579   7.821   9.190 -0.2346 -0.0812  0.2705
  889MOL0     O17274   6.627   7.693   9.208  0.5748  0.4976  0.5690
  889MOL0     C17275   6.697   7.635   9.099 -0.0040  0.3923 -0.1425
  889MOL0     C17276   6.848   7.648   9.110 -0.1483 -0.7937 -0.1992
  889MOL0     C17277   6.900   7.781   9.161  0.4919 -0.4595 -0.3435
  889MOL0     C17278   7.054   7.763   9.196 -0.0776 -0.3446  0.2731
  889MOL0     C17279   7.106   7.895   9.225  0.2995  0.1614 -0.6849
  889MOL0     C17280   7.153   7.999   9.268 -0.2949 -0.2863  0.2626
  889MOL0     C17281   6.490   7.848   9.093 -0.1188 -0.0361  1.1280
  889MOL0     C17282   6.436   7.978   9.067  0.4065  0.2095 -0.0347
  889MOL0     H17283   6.147   8.325   9.417 -1.9079 -2.3320 -1.7126
  889MOL0     H17284   6.015   8.513   9.420 -0.2184  0.5310 -0.2281
  889MOL0     H17285   6.032   8.886   9.430 -0.8824 -0.7231  3.0401
  889MOL0     H17286   6.062   8.715   9.477  0.4578 -0.3654  0.1093
  889MOL0     H17287   5.823   8.669   9.370 -2.9613  1.0965 -1.4648
  889MOL0     H17288   5.822   8.848   9.353  3.3088 -0.1014 -0.7573
  889MOL0     H17289   5.867   8.875   9.609 -2.1290  0.5264  0.8421
  889MOL0     H17290   5.832   8.705   9.628 -1.1332 -0.8861 -0.7637
  889MOL0     H17291   5.642   8.875   9.479 -2.3748 -0.5300 -0.2304
  889MOL0     H17292   5.617   8.717   9.550 -1.1219  1.1843  1.2748
  889MOL0     H17293   5.508   8.917   9.649 -0.3303 -1.8940 -0.5982
  889MOL0     H17294   5.665   8.975   9.708  1.2785  0.1615  0.3826
  889MOL0     H17295   5.670   8.789   9.875  0.1283  0.5053 -0.9062
  889MOL0     H17296   5.535   8.710   9.798 -0.5968 -0.6622  2.3421
  889MOL0     H17297   5.534   8.989   9.908  3.8926 -0.8924  2.9935
  889MOL0     H17298   5.389   8.889   9.893 -0.6013 -0.6709  2.7075
  889MOL0     H17299   5.586   8.893  10.107  1.7164  0.5775 -3.3507
  889MOL0     H17300   5.519   8.732  10.060  1.6612  0.0218  0.4181
  889MOL0     H17301   5.392   9.082  10.145  3.1581 -1.4515 -1.8959
  889MOL0     H17302   5.013   9.097  10.186 -0.9768 -2.9671  2.0730
  889MOL0     H17303   5.167   9.190  10.198  0.8782 -0.1514  1.7142
  889MOL0     H17304   5.216   9.130  10.407 -0.6119  1.1086  1.7055
  889MOL0     H17305   5.121   8.979  10.406 -0.7494 -0.3790 -0.2632
  889MOL0     H17306   5.001   9.256  10.422  2.9740  0.6380  0.7529
  889MOL0     H17307   4.918   9.100  10.416  1.0600  0.5469 -2.6008
  889MOL0     H17308   5.000   9.044  10.625 -0.8587  0.2086  0.0364
  889MOL0     H17309   4.944   9.207  10.651  1.4045  2.1019  0.6527
  889MOL0     H17310   5.318   9.320  10.766  0.7681 -0.0320  0.7660
  889MOL0     H17311   5.401   9.296  10.989  0.2181  0.9040 -0.9329
  889MOL0     H17312   5.067   9.154  11.459 -3.5654 -1.8795  2.1321
  889MOL0     H17313   5.086   9.107  11.705 -0.0440  0.5347 -0.0286
  889MOL0     H17314   5.151   9.076  11.915 -0.0853 -2.3203  0.8660
  889MOL0     H17315   5.292   9.192  11.933 -1.4952  0.7194  2.7718
  889MOL0     H17316   5.403   9.040  12.078 -1.0111  1.7033  1.8674
  889MOL0     H17317   5.264   8.933  12.064  0.9489 -1.0626  1.5231
  889MOL0     H17318   5.116   9.115  12.152  0.6522 -1.0384 -1.4768
  889MOL0     H17319   5.249   9.220  12.169  0.5264 -0.9834  0.4812
  889MOL0     H17320   5.270   8.956  12.328 -0.0503  0.6964 -3.6971
  889MOL0     H17321   5.336   9.116  12.352  1.1884 -0.4514  0.6177
  889MOL0     H17322   5.054   9.030  12.407 -1.3907  0.8405  0.1848
  889MOL0     H17323   5.112   9.192  12.403  2.2581 -0.2463 -0.9072
  889MOL0     H17324   5.289   9.105  12.583 -0.6985  0.7559  1.7244
  889MOL0     H17325   5.159   8.976  12.612 -0.3072  0.5339  0.1252
  889MOL0     H17326   5.155   9.176  12.750 -2.0686  1.5474  1.5215
  889MOL0     H17327   5.102   9.279  12.615 -0.4409  1.5488  1.5526
  889MOL0     H17328   4.930   9.046  12.727 -2.7955  2.6374  1.2675
  889MOL0     H17329   4.917   9.116  12.567  0.9096  1.0971 -0.8897
  889MOL0     H17330   5.473   8.938  11.631  0.6254  1.6435  0.7541
  889MOL0     H17331   5.438   8.979  11.391  1.0016 -1.1379  1.9984
  889MOL0     H17332   5.130   8.987  11.065  0.4871 -0.3459  1.1246
  889MOL0     H17333   5.026   9.017  10.848 -1.3085  1.7134  1.8303
  889MOL0     H17334   6.248   8.706   9.115 -1.5611  0.5889  1.0934
  889MOL0     H17335   6.382   8.476   9.112 -0.0863  2.2408 -0.6039
  889MOL0     H17336   6.581   8.124   9.341  0.4279  0.4781 -1.5771
  889MOL0     H17337   6.678   7.881   9.354 -0.0264 -0.0272  0.3800
  889MOL0     H17338   6.676   7.692   9.009  1.7925  2.0817  0.4510
  889MOL0     H17339   6.656   7.534   9.083  0.4118 -0.0108  1.1783
  889MOL0     H17340   6.881   7.568   9.176 -1.6540 -2.2480 -1.1213
  889MOL0     H17341   6.887   7.629   9.010  1.8953 -1.8289  0.7606
  889MOL0     H17342   6.856   7.820   9.254 -1.3103 -0.1987 -1.2663
  889MOL0     H17343   6.883   7.852   9.080  0.0558 -0.2122 -0.0418
  889MOL0     H17344   7.077   7.707   9.287 -1.1044  2.1939  2.2245
  889MOL0     H17345   7.104   7.734   9.103 -0.2641  1.6313 -0.4934
  889MOL0     H17346   7.165   8.087   9.327 -2.4497 -0.9970  1.8445
  889MOL0     H17347   6.475   7.763   9.027  1.6080  1.2674 -1.0735
  889MOL0     H17348   6.373   8.002   8.982 -0.0337 -0.3365  0.1289
  890MOL0     O17349   8.699   4.721   7.250 -0.4744 -0.0127  0.7112
  890MOL0     C17350   8.689   4.770   7.363  0.2081 -0.0407  0.0623
  890MOL0     O17351   8.794   4.793   7.443  0.2949  0.4495 -0.2957
  890MOL0     C17352   8.924   4.757   7.418 -0.4115  0.2271  0.3962
  890MOL0     C17353   9.014   4.816   7.513 -0.2838 -0.5488 -0.1179
  890MOL0     C17354   9.152   4.809   7.489  1.0918  0.6410  0.3139
  890MOL0     C17355   9.202   4.732   7.389 -0.5137  0.3772 -0.3179
  890MOL0     O17356   9.344   4.753   7.374 -0.1169  0.6629 -0.7413
  890MOL0     C17357   9.403   4.686   7.272 -0.2543  0.7675 -0.0024
  890MOL0     C17358   9.553   4.691   7.298 -0.4269 -0.1113  0.4827
  890MOL0     C17359   9.632   4.631   7.190 -0.4106  1.3092  0.4658
  890MOL0     C17360   9.776   4.660   7.188  0.2161 -0.5183 -0.3748
  890MOL0     C17361   9.852   4.577   7.083  0.2254 -0.0096  0.3281
  890MOL0     C17362   9.998   4.625   7.067  0.1698 -0.2037  0.5186
  890MOL0     C17363  10.047   4.512   6.976  0.1807 -0.1292  0.3570
  890MOL0     C17364  10.207   4.538   6.961 -0.5486 -0.2459  0.6127
  890MOL0     N17365  10.270   4.497   7.088 -0.7800 -0.7751 -0.0233
  890MOL0     C17366  10.310   4.584   7.190 -0.0319 -0.1029  0.3075
  890MOL0     C17367  10.345   4.506   7.288  0.6132 -0.9066 -0.0029
  890MOL0     C17368  10.390   4.556   7.419  0.0882 -1.2131 -0.0745
  890MOL0     C17369  10.302   4.492   7.531  0.4814 -0.8848 -0.3416
  890MOL0     C17370  10.343   4.538   7.677 -0.0332 -1.8008  0.9763
  890MOL0     C17371  10.251   4.505   7.785  0.1996  1.3008  0.2209
  890MOL0     O17372  10.289   4.389   7.863 -0.6191 -0.0766 -0.6895
  890MOL0     C17373  10.196   4.341   7.959  0.0546  0.2241 -0.0871
  890MOL0     C17374  10.247   4.253   8.059 -0.6502  0.4788  0.0959
  890MOL0     C17375  10.176   4.200   8.166 -0.3381  0.6733 -0.0238
  890MOL0     C17376  10.037   4.240   8.181 -0.7147  0.2302  0.0512
  890MOL0     C17377   9.956   4.185   8.292  0.5054  0.2849 -1.2594
  890MOL0     O17378   9.814   4.208   8.278 -0.1046 -0.0954  0.3471
  890MOL0     C17379   9.749   4.189   8.387  0.8026 -0.1544  0.3072
  890MOL0     C17380   9.741   4.285   8.485  0.3687 -0.0607 -0.5327
  890MOL0     C17381   9.654   4.260   8.597  0.8958  0.1058  0.3865
  890MOL0     C17382   9.589   4.139   8.621 -0.1564  0.0255 -0.2897
  890MOL0     O17383   9.525   4.112   8.740  0.0082  0.7145 -0.0499
  890MOL0     C17384   9.600   4.016   8.829 -0.3313 -0.0552 -0.2524
  890MOL0     C17385   9.509   4.004   8.955 -0.0414  0.1419  0.2826
  890MOL0     C17386   9.384   3.921   8.929 -0.1532  1.2091 -0.7826
  890MOL0     C17387   9.300   3.918   9.060  0.9492  0.3588 -0.4583
  890MOL0     C17388   9.195   3.816   9.056  0.0720  0.0679  0.2645
  890MOL0     C17389   9.065   3.856   8.999 -0.3987  0.0186 -0.6083
  890MOL0     C17390   8.960   3.754   8.982  0.0889  0.0318  0.3884
  890MOL0     C17391   8.822   3.806   8.918 -0.8862  0.7160 -0.5926
  890MOL0    Cl17392   8.728   3.890   9.038  0.0315 -0.3703  0.0701
  890MOL0     C17393   9.595   4.047   8.525 -0.0558  0.7715  0.7092
  890MOL0     C17394   9.673   4.067   8.409 -0.8167 -0.6245 -0.3373
  890MOL0     O17395  10.013   4.140   8.395  0.0120 -0.0731 -0.3550
  890MOL0     C17396   9.983   4.332   8.089 -0.3097 -0.0611  0.4492
  890MOL0     C17397  10.064   4.389   7.988 -0.4108  0.3795  0.5580
  890MOL0     N17398  10.314   4.375   7.256 -0.0751  0.8058 -0.8519
  890MOL0     N17399  10.274   4.371   7.133 -0.2058 -0.2437  0.7252
  890MOL0     C17400   9.118   4.659   7.309  0.2838 -0.8120  0.3958
  890MOL0     C17401   8.975   4.672   7.325  0.2346  0.2980  0.3729
  890MOL0     C17402   8.556   4.817   7.386  0.6629 -0.2598  0.1317
  890MOL0     C17403   8.447   4.786   7.296 -0.4156  0.3463 -0.3558
  890MOL0     C17404   8.319   4.838   7.314 -0.3807  0.5489 -0.2948
  890MOL0     C17405   8.297   4.917   7.418  0.9445  0.5031  0.1173
  890MOL0     O17406   8.163   4.949   7.431  0.5767 -0.9706 -0.1493
  890MOL0     C17407   8.108   5.018   7.541  0.2429 -0.2066  0.1805
  890MOL0     C17408   7.963   5.055   7.513 -0.0145 -0.0730  0.4975
  890MOL0     C17409   7.900   5.150   7.621 -0.4760 -0.3275  0.6634
  890MOL0     C17410   7.757   5.130   7.627  0.6016  0.1210 -0.0825
  890MOL0     C17411   7.683   5.151   7.500 -0.7064 -1.3020  0.1022
  890MOL0     C17412   7.618   5.159   7.401 -0.1577  0.3897 -0.4748
  890MOL0     C17413   8.391   4.938   7.513 -0.7273  0.3599  0.1340
  890MOL0     C17414   8.522   4.901   7.490  0.2013  0.1110  0.4784
  890MOL0     H17415   8.969   4.887   7.581 -2.0225 -0.0380 -1.7305
  890MOL0     H17416   9.226   4.844   7.560  0.3238 -1.5375  2.3263
  890MOL0     H17417   9.372   4.720   7.172  2.4096 -2.0803 -2.0022
  890MOL0     H17418   9.366   4.583   7.282 -2.4286  1.2228 -2.1764
  890MOL0     H17419   9.582   4.646   7.394 -1.3045 -0.3851  0.6280
  890MOL0     H17420   9.590   4.793   7.308  0.2642 -0.2738 -0.3550
  890MOL0     H17421   9.597   4.659   7.091  1.1574 -2.0971 -1.2259
  890MOL0     H17422   9.620   4.522   7.191  2.8959  0.8212  2.4966
  890MOL0     H17423   9.800   4.767   7.178  1.8188 -0.7629  0.5287
  890MOL0     H17424   9.813   4.625   7.284  1.6823  0.6095 -0.4902
  890MOL0     H17425   9.793   4.595   6.993 -0.1824  2.4926  1.0284
  890MOL0     H17426   9.847   4.469   7.102  0.1972 -0.5883 -2.5204
  890MOL0     H17427  10.052   4.631   7.162 -1.7317  0.6340  1.6002
  890MOL0     H17428  10.009   4.720   7.014  1.6170 -1.1671 -1.0192
  890MOL0     H17429  10.030   4.410   7.010  3.0216 -1.7140 -2.4593
  890MOL0     H17430   9.996   4.525   6.880  0.4212 -1.2547  0.0679
  890MOL0     H17431  10.226   4.640   6.927 -2.2548  0.1887  0.8705
  890MOL0     H17432  10.243   4.466   6.887 -1.0080 -1.6570  1.7205
  890MOL0     H17433  10.294   4.691   7.194 -0.6065 -0.1727 -0.0112
  890MOL0     H17434  10.382   4.665   7.426 -0.9917 -1.2139 -0.9320
  890MOL0     H17435  10.495   4.533   7.434  0.2796 -0.0099  0.5428
  890MOL0     H17436  10.322   4.385   7.529 -0.2743 -1.0336 -2.7760
  890MOL0     H17437  10.196   4.515   7.523  0.7099  0.4717  0.2091
  890MOL0     H17438  10.436   4.484   7.694  2.4195  2.5840  3.1959
  890MOL0     H17439  10.349   4.647   7.671  2.5914 -1.7295  3.1837
  890MOL0     H17440  10.150   4.485   7.750  1.0201 -2.5932 -0.3032
  890MOL0     H17441  10.238   4.583   7.860  0.7305  0.9089  0.7306
  890MOL0     H17442  10.348   4.219   8.034 -0.9798 -0.1515 -0.4160
  890MOL0     H17443  10.233   4.144   8.240  0.3006  1.5915  0.2034
  890MOL0     H17444   9.781   4.385   8.470  0.3938  0.1536  0.8284
  890MOL0     H17445   9.638   4.341   8.667  2.1392  0.6152  0.1005
  890MOL0     H17446   9.698   4.049   8.863 -1.2836 -1.2669  4.4468
  890MOL0     H17447   9.619   3.920   8.779  0.1388  0.2111 -0.5942
  890MOL0     H17448   9.477   4.103   8.988 -0.3104 -0.8274  3.1263
  890MOL0     H17449   9.566   3.956   9.034 -5.3512  0.3960  4.8391
  890MOL0     H17450   9.427   3.823   8.904  2.1643  1.6820  1.0330
  890MOL0     H17451   9.327   3.958   8.842 -0.6196  0.7581 -0.6780
  890MOL0     H17452   9.364   3.890   9.144 -1.6982  0.8327  1.8754
  890MOL0     H17453   9.257   4.013   9.095  1.3262 -0.8108  3.6894
  890MOL0     H17454   9.184   3.765   9.152 -3.3578 -3.4938 -1.7118
  890MOL0     H17455   9.231   3.729   9.000  0.5893 -0.5534  1.5161
  890MOL0     H17456   9.084   3.912   8.907 -0.5882  0.5318 -0.3360
  890MOL0     H17457   9.022   3.932   9.065  1.6727  0.7727 -0.0491
  890MOL0     H17458   8.997   3.667   8.928  2.9621  1.4735 -0.1366
  890MOL0     H17459   8.936   3.714   9.082 -0.6480 -1.5350 -0.3718
  890MOL0     H17460   8.776   3.717   8.873 -2.7493  1.9684 -1.2680
  890MOL0     H17461   8.848   3.873   8.836  3.1433 -0.4123 -0.4910
  890MOL0     H17462   9.524   3.966   8.517  0.0721  0.6817  0.4873
  890MOL0     H17463   9.668   3.985   8.338  1.6717 -1.0814 -0.0922
  890MOL0     H17464   9.879   4.362   8.101 -1.0780 -1.1813 -2.4826
  890MOL0     H17465  10.020   4.459   7.917 -1.6870 -0.8962  0.0393
  890MOL0     H17466   9.143   4.585   7.234 -0.6005  2.5149 -3.5591
  890MOL0     H17467   8.911   4.620   7.255  2.5112 -2.7372  0.3427
  890MOL0     H17468   8.445   4.734   7.201 -2.7334  1.8948 -1.2466
  890MOL0     H17469   8.233   4.809   7.253 -0.9529 -0.7668  1.0825
  890MOL0     H17470   8.174   5.104   7.548  1.1605 -0.6729 -1.9428
  890MOL0     H17471   8.117   4.955   7.630 -0.5275  0.7225  0.9419
  890MOL0     H17472   7.961   5.108   7.418 -1.9756  0.2185  0.6718
  890MOL0     H17473   7.908   4.961   7.497  1.8533 -1.5185  2.0317
  890MOL0     H17474   7.908   5.253   7.585  0.6492 -0.6028  0.0690
  890MOL0     H17475   7.946   5.148   7.720 -0.8459 -1.2020  0.8312
  890MOL0     H17476   7.735   5.030   7.665 -0.0886  0.4196  0.3078
  890MOL0     H17477   7.720   5.192   7.709  0.4417 -3.0536  2.4444
  890MOL0     H17478   7.568   5.170   7.307  0.5129  0.7620 -0.7904
  890MOL0     H17479   8.371   4.990   7.606  0.6949 -0.3039  0.8408
  890MOL0     H17480   8.610   4.929   7.548 -0.2949  0.4577  1.0702
  891MOL0     O17481   5.893   7.287   0.353  0.8468 -0.3334  0.2106
  891MOL0     C17482   5.880   7.395   0.310  0.5713  0.9306  0.0894
  891MOL0     O17483   5.979   7.487   0.273 -0.3408 -0.5349  0.2537
  891MOL0     C17484   6.108   7.452   0.285  0.7396 -0.4195 -0.2396
  891MOL0     C17485   6.182   7.473   0.404  0.7479  0.0687  0.5428
  891MOL0     C17486   6.325   7.464   0.406  0.7897 -0.1744 -0.6749
  891MOL0     C17487   6.397   7.443   0.288  0.2870 -1.0016 -0.0685
  891MOL0     O17488   6.530   7.471   0.285  0.5482  0.1388  0.2838
  891MOL0     C17489   6.604   7.370   0.228  0.0238  0.3745 -0.6492
  891MOL0     C17490   6.752   7.377   0.279  0.9318 -1.2199  1.3571
  891MOL0     C17491   6.821   7.513   0.237 -0.0295  1.1455  0.7034
  891MOL0     C17492   6.949   7.533   0.313  1.0025 -0.2433 -0.0422
  891MOL0     C17493   7.013   7.669   0.286  0.0900 -0.0418 -0.2418
  891MOL0     C17494   7.066   7.695   0.143  0.2651  0.3964 -0.4198
  891MOL0     C17495   7.167   7.814   0.132  0.6134  0.3267  0.6913
  891MOL0     C17496   7.213   7.843  -0.012  0.4459  1.0092  0.2733
  891MOL0     N17497   7.128   7.813  -0.117 -0.4620  0.3455 -0.5331
  891MOL0     C17498   6.999   7.849  -0.138  0.7602  0.2441 -0.3097
  891MOL0     C17499   6.969   7.777  -0.241  1.3750  0.5570  1.1145
  891MOL0     C17500   6.844   7.783  -0.315 -0.0519 -0.0859 -0.1831
  891MOL0     C17501   6.728   7.693  -0.270  0.2105  0.4632 -1.0208
  891MOL0     C17502   6.652   7.760  -0.150 -0.1346 -0.6854 -0.0501
  891MOL0     C17503   6.547   7.865  -0.209  0.1230 -0.2211  0.1243
  891MOL0     O17504   6.449   7.816  -0.289 -0.2368  0.2109  1.3846
  891MOL0     C17505   6.336   7.762  -0.232  0.0060 -0.6284  0.3753
  891MOL0     C17506   6.221   7.744  -0.318  0.4762 -0.3787 -0.3816
  891MOL0     C17507   6.097   7.695  -0.264 -0.0255 -0.2411  0.0014
  891MOL0     C17508   6.080   7.677  -0.129 -0.4485  0.0071 -0.1319
  891MOL0     C17509   5.945   7.642  -0.095  0.0867  0.3836 -0.4081
  891MOL0     O17510   5.845   7.609  -0.183 -0.2341  0.1899  0.7731
  891MOL0     C17511   5.717   7.561  -0.140 -1.0003  0.3764  0.6311
  891MOL0     C17512   5.697   7.490  -0.015  0.1966 -0.5125  1.0327
  891MOL0     C17513   5.572   7.423   0.003 -0.6820 -0.3317  0.2225
  891MOL0     C17514   5.475   7.403  -0.098  0.3970 -0.4156 -0.2916
  891MOL0     O17515   5.360   7.333  -0.095 -0.5752 -0.1323 -0.2592
  891MOL0     C17516   5.253   7.373  -0.008 -0.2700 -0.3771  0.6464
  891MOL0     C17517   5.145   7.272  -0.015  0.1007 -0.0937  0.7650
  891MOL0     C17518   5.060   7.280  -0.148 -0.6263  0.2167 -0.4261
  891MOL0     C17519   4.975   7.155  -0.181 -0.3745 -1.0561  0.0669
  891MOL0     C17520   4.878   7.178  -0.293  0.0275  0.7572  0.1969
  891MOL0     C17521   4.769   7.078  -0.308  0.4374  0.0556  0.2589
  891MOL0     C17522   4.649   7.088  -0.214 -0.4337 -0.3625  0.3620
  891MOL0     C17523   4.563   7.216  -0.232 -0.4256  0.7589  0.7264
  891MOL0    Cl17524   4.407   7.176  -0.159 -0.0654 -0.3604  0.6445
  891MOL0     C17525   5.499   7.477  -0.223 -0.3206 -0.7283 -0.5891
  891MOL0     C17526   5.623   7.546  -0.243 -0.2838 -0.0306  0.1196
  891MOL0     O17527   5.926   7.673   0.026 -0.2741 -0.1640  0.3126
  891MOL0     C17528   6.190   7.693  -0.046 -0.7914 -1.0226  0.0974
  891MOL0     C17529   6.314   7.741  -0.092  1.1004 -0.2794 -0.3306
  891MOL0     N17530   7.077   7.720  -0.294  1.2806 -0.3282 -0.1625
  891MOL0     N17531   7.185   7.740  -0.225  0.3071 -0.6198 -0.6197
  891MOL0     C17532   6.326   7.434   0.171 -0.2460 -0.7301  0.3950
  891MOL0     C17533   6.182   7.431   0.173 -0.2724 -0.4947 -0.0766
  891MOL0     C17534   5.743   7.455   0.321  0.3919  0.0062 -0.2578
  891MOL0     C17535   5.717   7.595   0.308  0.5236 -0.4863 -0.8984
  891MOL0     C17536   5.591   7.655   0.337  0.2367  0.0728 -0.5124
  891MOL0     C17537   5.483   7.580   0.382  0.1555 -0.3730  0.3522
  891MOL0     O17538   5.357   7.625   0.380  0.1371  0.2641 -0.0154
  891MOL0     C17539   5.320   7.750   0.434 -0.5555  0.8362  0.2373
  891MOL0     C17540   5.179   7.724   0.467  0.4497  0.0590  1.0837
  891MOL0     C17541   5.162   7.623   0.586 -0.3022 -0.3727  0.2400
  891MOL0     C17542   5.016   7.627   0.613  0.5022  0.5437  0.6647
  891MOL0     C17543   4.970   7.737   0.684  0.6416 -0.1804 -1.0092
  891MOL0     C17544   4.915   7.823   0.743  0.8972 -0.3907  0.7900
  891MOL0     C17545   5.506   7.445   0.394  0.5285 -0.7740  0.4114
  891MOL0     C17546   5.629   7.384   0.372 -0.2251 -0.3060 -0.3039
  891MOL0     H17547   6.136   7.505   0.497  1.5235  0.8725  0.6647
  891MOL0     H17548   6.371   7.487   0.501  0.9997 -0.9957 -0.5745
  891MOL0     H17549   6.612   7.383   0.120 -0.4107  1.0151 -0.6030
  891MOL0     H17550   6.562   7.270   0.245  1.7285  0.0899  2.6933
  891MOL0     H17551   6.804   7.291   0.234  1.0567  0.6985 -2.5640
  891MOL0     H17552   6.732   7.379   0.387  0.8283 -2.3472  1.3708
  891MOL0     H17553   6.742   7.587   0.253 -1.8944 -0.3772 -0.9190
  891MOL0     H17554   6.829   7.517   0.128 -1.2297  2.8174  0.6356
  891MOL0     H17555   6.933   7.521   0.420  1.7431  0.3474  0.1436
  891MOL0     H17556   7.016   7.453   0.281  0.2611 -0.5222 -0.9501
  891MOL0     H17557   7.092   7.701   0.354  1.0249 -1.2214 -0.7593
  891MOL0     H17558   6.925   7.733   0.301 -1.1805 -1.7135 -0.2754
  891MOL0     H17559   6.976   7.699   0.081 -0.3602 -3.2991  0.0280
  891MOL0     H17560   7.123   7.609   0.107 -3.3434 -2.7001  0.6941
  891MOL0     H17561   7.118   7.905   0.167  0.1862  0.0887  0.7256
  891MOL0     H17562   7.253   7.778   0.189  0.1861 -1.5510  0.2261
  891MOL0     H17563   7.309   7.794  -0.030  0.4131  1.4909 -1.3300
  891MOL0     H17564   7.221   7.951  -0.026  2.7739  0.6141 -2.2399
  891MOL0     H17565   6.927   7.901  -0.076 -1.8183  0.0512 -2.9263
  891MOL0     H17566   6.867   7.760  -0.420  2.1417  1.0457 -0.0102
  891MOL0     H17567   6.826   7.890  -0.324 -2.4199 -0.4865 -0.8375
  891MOL0     H17568   6.771   7.601  -0.231 -0.6326  1.6414  3.2472
  891MOL0     H17569   6.671   7.670  -0.360 -2.5470  1.4875  0.3501
  891MOL0     H17570   6.592   7.693  -0.088 -0.1246  1.0853  1.9723
  891MOL0     H17571   6.714   7.811  -0.076 -3.0733 -0.1992  2.2654
  891MOL0     H17572   6.602   7.948  -0.255 -0.8747  0.8831  0.8679
  891MOL0     H17573   6.493   7.909  -0.124 -0.5027 -1.3329  0.3225
  891MOL0     H17574   6.249   7.768  -0.420  2.3793 -1.6001 -0.2058
  891MOL0     H17575   6.011   7.692  -0.330 -0.3452  0.0341  0.4015
  891MOL0     H17576   5.772   7.482   0.062 -1.5917 -1.6251  2.7660
  891MOL0     H17577   5.568   7.374   0.100  1.7769  0.1982  0.6465
  891MOL0     H17578   5.202   7.460  -0.047  1.2654  1.0869  1.7467
  891MOL0     H17579   5.278   7.397   0.096  0.1439  2.6813 -0.0724
  891MOL0     H17580   5.092   7.285   0.079 -0.0644 -2.4965  1.0649
  891MOL0     H17581   5.186   7.170  -0.019  1.9872  0.6475 -1.0824
  891MOL0     H17582   5.125   7.302  -0.233  0.2128  2.1365  0.6519
  891MOL0     H17583   4.991   7.366  -0.145  0.7346  1.3525 -0.6742
  891MOL0     H17584   5.037   7.067  -0.196 -0.7349 -0.8278 -3.7326
  891MOL0     H17585   4.920   7.146  -0.087  2.7962  1.3380  2.3957
  891MOL0     H17586   4.937   7.180  -0.385 -0.1973 -0.0433  0.0245
  891MOL0     H17587   4.829   7.274  -0.270 -0.3275  1.4019 -2.8169
  891MOL0     H17588   4.806   6.975  -0.304 -0.2272 -0.2039  0.0113
  891MOL0     H17589   4.728   7.091  -0.409 -1.0629 -0.9434  0.7055
  891MOL0     H17590   4.587   6.998  -0.227 -0.6251 -0.2723  0.6422
  891MOL0     H17591   4.680   7.093  -0.110 -1.8417 -0.4948  0.8129
  891MOL0     H17592   4.549   7.229  -0.340  0.9828 -0.6147  0.3397
  891MOL0     H17593   4.613   7.299  -0.182 -1.3532  0.1935  2.7013
  891MOL0     H17594   5.432   7.451  -0.304 -2.2712  2.4178 -0.1586
  891MOL0     H17595   5.656   7.588  -0.338  0.2788 -2.7213 -0.9737
  891MOL0     H17596   6.173   7.672   0.060  0.7632  0.7848  0.7493
  891MOL0     H17597   6.385   7.767  -0.015 -0.0171  1.5137  0.1788
  891MOL0     H17598   6.368   7.417   0.072 -1.4416 -0.6111 -0.1464
  891MOL0     H17599   6.135   7.432   0.074  0.0755 -0.5377 -0.2438
  891MOL0     H17600   5.799   7.657   0.273 -0.8459  1.8069 -0.3051
  891MOL0     H17601   5.562   7.758   0.319 -1.7921 -0.2140  0.7757
  891MOL0     H17602   5.337   7.830   0.361 -2.0273 -1.6090 -3.1102
  891MOL0     H17603   5.367   7.777   0.528  1.2807  2.9929 -1.2215
  891MOL0     H17604   5.133   7.822   0.485  0.4836  0.1436  0.7183
  891MOL0     H17605   5.129   7.683   0.379  3.1593 -2.0654  0.4200
  891MOL0     H17606   5.219   7.652   0.675  0.4234  0.0924 -0.3714
  891MOL0     H17607   5.184   7.520   0.556 -1.0903  0.2541 -2.7484
  891MOL0     H17608   4.960   7.622   0.519  2.4242 -2.5556 -0.4878
  891MOL0     H17609   4.991   7.540   0.675 -0.4391 -0.7879 -1.4587
  891MOL0     H17610   4.870   7.905   0.795  0.8417 -0.2806  0.5692
  891MOL0     H17611   5.421   7.387   0.429 -0.8666  0.0942 -1.3577
  891MOL0     H17612   5.624   7.278   0.392 -2.0611 -0.1383  0.4197
  892MOL0     O17613   2.226  10.559   3.517  0.0516 -0.7249 -0.5452
  892MOL0     C17614   2.300  10.482   3.581 -0.5855 -1.2534  0.0848
  892MOL0     O17615   2.253  10.368   3.648  0.3645  0.2074  0.2683
  892MOL0     C17616   2.127  10.316   3.633 -0.0655 -0.4913 -0.6454
  892MOL0     C17617   2.085  10.259   3.519 -0.2460  0.3062  0.1852
  892MOL0     C17618   1.955  10.209   3.505  0.3645 -0.0603 -0.1641
  892MOL0     C17619   1.866  10.211   3.616  0.4488 -0.6278  0.9320
  892MOL0     O17620   1.742  10.160   3.589  0.5195  0.4608 -0.1708
  892MOL0     C17621   1.654  10.139   3.699 -0.5017 -0.2850  0.8686
  892MOL0     C17622   1.559  10.030   3.661  0.8450 -0.8358  0.1065
  892MOL0     C17623   1.462  10.074   3.548  0.1886  0.5329  0.0086
  892MOL0     C17624   1.341   9.973   3.549 -1.0674  0.8795 -0.0605
  892MOL0     C17625   1.231  10.008   3.443  0.4032  0.2962  0.4883
  892MOL0     C17626   1.123   9.901   3.461 -0.0415  0.6819 -0.3832
  892MOL0     C17627   0.981   9.932   3.401  0.3313 -0.1129 -0.3822
  892MOL0     C17628   0.864   9.856   3.480 -0.3716 -0.2150 -0.0290
  892MOL0     N17629   0.740   9.886   3.419 -0.0739 -0.4354  0.0655
  892MOL0     C17630   0.622   9.910   3.486 -0.4450  0.0637  0.0638
  892MOL0     C17631   0.531   9.938   3.394  0.2765 -0.4573  0.1709
  892MOL0     C17632   0.379   9.949   3.416 -0.3637  0.1170 -0.5367
  892MOL0     C17633   0.301   9.947   3.286  0.0706  0.3592 -0.3953
  892MOL0     C17634   0.158   9.954   3.334  0.3667 -1.0556  0.6245
  892MOL0     C17635   0.078   9.963   3.202 -0.1599 -0.2795  0.4459
  892MOL0     O17636   0.019   9.836   3.173 -0.1952 -0.7651  0.2750
  892MOL0     C17637  -0.104   9.787   3.216 -0.1685 -0.4218  0.0386
  892MOL0     C17638  -0.174   9.833   3.334  0.5692 -0.2215  1.0259
  892MOL0     C17639  -0.303   9.784   3.360 -0.7120  0.3098 -0.1811
  892MOL0     C17640  -0.354   9.672   3.283  0.5370  0.3393 -0.9899
  892MOL0     C17641  -0.488   9.609   3.317 -0.3779  0.0107 -0.1644
  892MOL0     O17642  -0.503   9.476   3.277  0.1693  0.2886 -0.4256
  892MOL0     C17643  -0.604   9.407   3.341 -0.2081  0.3970 -0.2698
  892MOL0     C17644  -0.716   9.356   3.278 -0.5466 -0.2291  0.0654
  892MOL0     C17645  -0.815   9.275   3.350 -1.0045  0.0168  0.8966
  892MOL0     C17646  -0.805   9.263   3.490  0.1272  0.7593 -0.2448
  892MOL0     O17647  -0.883   9.188   3.561  0.9775 -0.2515 -0.5792
  892MOL0     C17648  -1.024   9.237   3.549  1.0387  0.1590 -0.1113
  892MOL0     C17649  -1.101   9.181   3.674  0.2808  0.0105  0.4022
  892MOL0     C17650  -1.247   9.226   3.677 -0.0533 -1.3018  0.2025
  892MOL0     C17651  -1.330   9.185   3.562  0.0627 -0.4189  0.6079
  892MOL0     C17652  -1.469   9.258   3.566  0.7892 -0.0024 -0.5840
  892MOL0     C17653  -1.563   9.193   3.460  0.8000 -0.2533 -0.8304
  892MOL0     C17654  -1.521   9.228   3.311 -0.2253 -0.3473  0.6161
  892MOL0     C17655  -1.614   9.164   3.213  0.0039  0.1488 -0.1890
  892MOL0    Cl17656  -1.556   9.181   3.053 -0.2325  0.1557 -0.3033
  892MOL0     C17657  -0.693   9.313   3.548  0.6796  0.7943 -0.7188
  892MOL0     C17658  -0.597   9.367   3.478 -0.8691  0.0459 -0.5606
  892MOL0     O17659  -0.557   9.671   3.396  0.3211 -0.3059 -0.3294
  892MOL0     C17660  -0.284   9.633   3.176  0.2862  1.1189 -0.2546
  892MOL0     C17661  -0.160   9.693   3.138 -0.0801 -0.3016 -0.8854
  892MOL0     N17662   0.600   9.960   3.274  0.8376 -0.9265  0.0891
  892MOL0     N17663   0.719   9.920   3.288  0.3340  0.2432  0.1765
  892MOL0     C17664   1.903  10.287   3.727  0.0722  0.7728 -0.2954
  892MOL0     C17665   2.035  10.327   3.732  0.1899  0.0637  0.1292
  892MOL0     C17666   2.448  10.511   3.590  0.6654  0.6621 -0.1450
  892MOL0     C17667   2.512  10.487   3.713 -0.4281 -0.0820  0.7013
  892MOL0     C17668   2.652  10.516   3.724 -0.0055  0.8669  0.0409
  892MOL0     C17669   2.726  10.530   3.611 -0.7561 -1.1471  0.0878
  892MOL0     O17670   2.863  10.519   3.622 -0.2102 -0.1288  0.3931
  892MOL0     C17671   2.931  10.402   3.562 -0.4149 -0.4173 -0.6869
  892MOL0     C17672   2.956  10.305   3.682  0.5083 -0.5094 -0.2863
  892MOL0     C17673   3.059  10.196   3.658  0.6172  0.3171  0.4726
  892MOL0     C17674   3.036  10.105   3.532  0.3041  0.1927 -0.3633
  892MOL0     C17675   2.902  10.044   3.540 -0.4246  0.1235  0.4049
  892MOL0     C17676   2.794   9.988   3.537  0.0718 -0.8299 -0.2420
  892MOL0     C17677   2.664  10.541   3.487  0.0975 -0.5410 -0.2348
  892MOL0     C17678   2.524  10.534   3.479  0.0539 -0.5784 -0.5858
  892MOL0     H17679   2.157  10.262   3.438  0.6441 -2.9143  0.7372
  892MOL0     H17680   1.927  10.161   3.412 -0.3549  2.1979 -1.1672
  892MOL0     H17681   1.596  10.230   3.714  0.0868 -0.1156  2.2744
  892MOL0     H17682   1.702  10.121   3.795  2.2469 -2.0465 -0.6783
  892MOL0     H17683   1.509  10.005   3.755  1.1190 -1.3405  0.1216
  892MOL0     H17684   1.604   9.932   3.640 -0.6964 -1.3665 -0.8942
  892MOL0     H17685   1.515  10.079   3.452  0.0281 -0.5908 -0.1467
  892MOL0     H17686   1.413  10.171   3.562 -1.1132 -0.1270  0.1387
  892MOL0     H17687   1.372   9.869   3.538 -2.9602  0.2510  0.2385
  892MOL0     H17688   1.294   9.991   3.646 -0.4933 -0.4660  0.4930
  892MOL0     H17689   1.260  10.018   3.338  2.2344  1.0586  1.0206
  892MOL0     H17690   1.183  10.105   3.462  1.7594  1.0267  0.3415
  892MOL0     H17691   1.101   9.893   3.568 -1.2392 -0.7529 -0.7052
  892MOL0     H17692   1.165   9.807   3.425  0.9205  0.8509  0.2510
  892MOL0     H17693   0.963  10.037   3.423 -0.8625  0.7554 -4.6121
  892MOL0     H17694   0.982   9.925   3.292  2.0139 -1.1249 -0.3373
  892MOL0     H17695   0.850   9.880   3.585  1.6652 -1.0499  0.4962
  892MOL0     H17696   0.888   9.749   3.473 -2.1089 -0.5498 -1.6951
  892MOL0     H17697   0.619   9.903   3.594  5.1337  0.9644  0.5672
  892MOL0     H17698   0.362  10.048   3.460 -3.9695  0.3456 -2.0919
  892MOL0     H17699   0.335   9.877   3.486 -3.6810 -0.0012 -2.5551
  892MOL0     H17700   0.323   9.851   3.237 -1.6155 -1.0157  1.3910
  892MOL0     H17701   0.324  10.037   3.228  0.7649  2.6863  3.1940
  892MOL0     H17702   0.128   9.876   3.405 -1.8080  1.4950  2.6992
  892MOL0     H17703   0.155  10.053   3.381  0.8609 -1.0104  0.5649
  892MOL0     H17704   0.147   9.997   3.125 -1.8484 -1.7868 -1.8579
  892MOL0     H17705   0.003  10.042   3.218 -3.8450 -3.4561  0.4855
  892MOL0     H17706  -0.126   9.917   3.383  0.5256  0.2671  0.2545
  892MOL0     H17707  -0.360   9.829   3.441 -1.1077 -0.4938 -0.0031
  892MOL0     H17708  -0.730   9.366   3.171  2.5992  0.8728 -0.3212
  892MOL0     H17709  -0.899   9.228   3.300  0.2628 -0.9712 -0.3956
  892MOL0     H17710  -1.069   9.208   3.453 -0.4381 -1.1586  0.9233
  892MOL0     H17711  -1.019   9.346   3.547 -1.3311  0.3207 -1.9025
  892MOL0     H17712  -1.050   9.230   3.758  1.4069  1.5296 -1.1039
  892MOL0     H17713  -1.104   9.073   3.688  0.5206  0.3560  4.2762
  892MOL0     H17714  -1.240   9.335   3.678 -0.8201 -1.1646 -2.0550
  892MOL0     H17715  -1.300   9.208   3.771 -2.7041  2.4918 -0.3292
  892MOL0     H17716  -1.286   9.224   3.470 -1.0556 -0.1356  0.1649
  892MOL0     H17717  -1.346   9.077   3.559 -0.9363 -0.2782  0.2028
  892MOL0     H17718  -1.480   9.367   3.568  0.2645 -0.0030 -1.8546
  892MOL0     H17719  -1.506   9.227   3.664  0.2039  0.1141 -0.7595
  892MOL0     H17720  -1.662   9.235   3.482  1.6423  1.7641 -0.7100
  892MOL0     H17721  -1.574   9.087   3.486 -0.9265  0.1590  0.2720
  892MOL0     H17722  -1.518   9.336   3.291 -0.0002  0.1470  3.0110
  892MOL0     H17723  -1.423   9.184   3.292 -0.8292 -1.3901 -0.1721
  892MOL0     H17724  -1.710   9.217   3.217 -0.9493 -1.5776  2.1784
  892MOL0     H17725  -1.630   9.058   3.232  1.9431 -0.4008 -1.3287
  892MOL0     H17726  -0.686   9.295   3.655 -0.7358 -1.7010 -0.9853
  892MOL0     H17727  -0.505   9.392   3.530 -1.9998  3.0865  0.2334
  892MOL0     H17728  -0.336   9.558   3.117 -0.9673  1.4054  0.4452
  892MOL0     H17729  -0.103   9.668   3.049  3.6399  0.8369  0.9877
  892MOL0     H17730   1.843  10.290   3.818 -2.6374 -1.8690 -1.8144
  892MOL0     H17731   2.076  10.372   3.821 -0.1133  2.5645 -0.9205
  892MOL0     H17732   2.464  10.458   3.805  0.2111  1.7678  1.6871
  892MOL0     H17733   2.719  10.494   3.806  1.8114  2.9769 -0.7714
  892MOL0     H17734   3.026  10.444   3.527 -0.2685 -0.7224 -0.6628
  892MOL0     H17735   2.875  10.347   3.485 -1.6101 -0.8247  0.4439
  892MOL0     H17736   2.994  10.357   3.770 -1.3866 -1.8339  1.4186
  892MOL0     H17737   2.860  10.262   3.715 -0.0479  1.0435  0.1845
  892MOL0     H17738   3.058  10.133   3.748  1.0202  0.1461  0.3579
  892MOL0     H17739   3.158  10.241   3.656  0.1996  1.3776  1.9241
  892MOL0     H17740   3.034  10.176   3.450  0.5218  1.8280  0.9924
  892MOL0     H17741   3.119  10.032   3.529 -2.1089 -2.9007  1.6085
  892MOL0     H17742   2.701   9.934   3.533 -0.7803  0.5865 -0.3094
  892MOL0     H17743   2.725  10.581   3.407 -1.0629  0.4599 -0.6473
  892MOL0     H17744   2.470  10.545   3.385  0.2391  0.7527 -0.5618
  893MOL0     O17745   3.877   8.076   1.268 -0.4925 -0.0722 -0.1617
  893MOL0     C17746   3.986   8.040   1.319 -0.2034 -0.6685  0.9318
  893MOL0     O17747   4.008   8.032   1.451 -0.1603  0.4126  0.1326
  893MOL0     C17748   3.929   8.075   1.551 -0.0809 -0.2471  0.4982
  893MOL0     C17749   3.816   8.155   1.534 -0.2787 -0.5007 -0.1429
  893MOL0     C17750   3.750   8.205   1.653  0.5095  0.1759 -0.2995
  893MOL0     C17751   3.793   8.157   1.786  0.3452  0.2896  0.2065
  893MOL0     O17752   3.737   8.172   1.910  0.3708 -0.3011 -0.3099
  893MOL0     C17753   3.610   8.228   1.908 -0.3966  0.4141 -0.5986
  893MOL0     C17754   3.547   8.182   2.040  0.3454 -0.6847 -0.7187
  893MOL0     C17755   3.440   8.262   2.087  0.6366 -0.0086 -0.0454
  893MOL0     C17756   3.405   8.217   2.234  0.0162 -0.3306  0.5357
  893MOL0     C17757   3.256   8.225   2.266  0.2642 -0.1127 -0.0475
  893MOL0     C17758   3.201   8.372   2.256  0.1542  0.2873  0.9852
  893MOL0     C17759   3.262   8.466   2.363  0.8250  0.9755 -0.4940
  893MOL0     C17760   3.227   8.613   2.338  0.2843  0.7363 -0.4478
  893MOL0     N17761   3.264   8.651   2.207  1.0043  0.3846 -0.3524
  893MOL0     C17762   3.391   8.669   2.168  0.3070  0.5570 -0.3537
  893MOL0     C17763   3.375   8.723   2.041 -0.8618 -1.2888  0.1508
  893MOL0     C17764   3.498   8.778   1.968  0.4008  0.7841 -0.4026
  893MOL0     C17765   3.563   8.660   1.886 -0.3665 -0.6970 -0.4896
  893MOL0     C17766   3.708   8.715   1.850 -0.4745 -0.1210 -0.1049
  893MOL0     C17767   3.763   8.632   1.737 -0.3082 -0.7564  0.1590
  893MOL0     O17768   3.876   8.705   1.679 -0.2077 -0.0250  0.5218
  893MOL0     C17769   3.976   8.636   1.615 -0.1318  0.6051 -0.4470
  893MOL0     C17770   4.043   8.700   1.516 -0.5266  0.2837 -0.7006
  893MOL0     C17771   4.142   8.628   1.440 -0.7912  0.0765 -0.3531
  893MOL0     C17772   4.183   8.490   1.468  0.7326 -0.1123  0.6709
  893MOL0     C17773   4.289   8.419   1.396  0.7759 -0.2319 -0.3254
  893MOL0     O17774   4.342   8.482   1.285  1.0552 -0.1387  0.1895
  893MOL0     C17775   4.404   8.397   1.192  0.1839 -0.2362 -0.5076
  893MOL0     C17776   4.337   8.273   1.159  0.2308 -0.9619  1.4760
  893MOL0     C17777   4.391   8.180   1.068  0.3839 -0.6459  0.3493
  893MOL0     C17778   4.507   8.215   0.994  0.1355 -0.3514  0.2526
  893MOL0     O17779   4.553   8.128   0.899  0.8222  0.5124  0.6329
  893MOL0     C17780   4.505   8.185   0.769 -0.0599 -0.0867 -1.0088
  893MOL0     C17781   4.578   8.127   0.656  0.6711 -0.0779 -0.7248
  893MOL0     C17782   4.702   8.199   0.625 -0.1903 -0.1440 -0.1740
  893MOL0     C17783   4.773   8.125   0.510 -0.0064 -0.3059 -0.1007
  893MOL0     C17784   4.911   8.182   0.492  0.4765  0.4180 -0.7098
  893MOL0     C17785   4.987   8.117   0.387  0.3855  0.4333  0.2704
  893MOL0     C17786   5.143   8.150   0.392  1.1188  0.7917  1.7655
  893MOL0     C17787   5.193   8.234   0.272  0.7339  0.3552  0.2579
  893MOL0    Cl17788   5.216   8.138   0.127  0.1834  0.0241  0.6621
  893MOL0     C17789   4.575   8.335   1.037  0.6486 -0.0028  0.0679
  893MOL0     C17790   4.531   8.424   1.133  0.6552 -0.2949  0.5390
  893MOL0     O17791   4.339   8.318   1.448 -0.3014 -0.3737 -0.1324
  893MOL0     C17792   4.109   8.426   1.579 -0.6094 -0.0538 -0.3749
  893MOL0     C17793   4.010   8.499   1.640  1.2556  0.0126 -0.7083
  893MOL0     N17794   3.242   8.730   2.004 -0.0623 -0.3642 -0.5374
  893MOL0     N17795   3.173   8.687   2.107  0.0505  0.0714  0.6997
  893MOL0     C17796   3.924   8.094   1.796  0.8997 -1.0378  0.5382
  893MOL0     C17797   3.986   8.052   1.680  0.2062 -0.6342 -0.8177
  893MOL0     C17798   4.088   7.975   1.229  0.5443 -0.2919  0.1599
  893MOL0     C17799   4.216   7.946   1.290  0.2173 -0.0139 -0.1691
  893MOL0     C17800   4.312   7.876   1.215  0.4183 -0.9520 -0.0374
  893MOL0     C17801   4.289   7.844   1.081  0.2481  0.6736  0.5863
  893MOL0     O17802   4.379   7.767   1.007 -0.2530 -0.6581  0.0464
  893MOL0     C17803   4.523   7.790   1.031 -0.1979 -0.1157 -0.4178
  893MOL0     C17804   4.603   7.738   0.908  0.7932 -0.1388  0.2525
  893MOL0     C17805   4.586   7.584   0.916 -0.1710  0.2936 -0.2619
  893MOL0     C17806   4.650   7.533   0.789 -0.0910 -0.5595 -0.1331
  893MOL0     C17807   4.625   7.392   0.749 -0.1257 -0.5197 -0.3738
  893MOL0     C17808   4.615   7.279   0.711 -0.1878 -0.3735  0.1100
  893MOL0     C17809   4.158   7.874   1.027 -0.1836 -0.4159  0.0705
  893MOL0     C17810   4.063   7.940   1.097 -0.9836  0.6981 -0.3560
  893MOL0     H17811   3.762   8.182   1.444  2.6676  0.6033 -1.7017
  893MOL0     H17812   3.649   8.238   1.630  0.2606 -0.1400  0.3046
  893MOL0     H17813   3.549   8.188   1.826 -1.5469  1.7656 -0.4493
  893MOL0     H17814   3.617   8.337   1.904 -2.6104  0.8556  2.9269
  893MOL0     H17815   3.620   8.197   2.120 -0.4211  2.6427 -0.5025
  893MOL0     H17816   3.509   8.080   2.027 -0.2050 -0.1494 -4.3683
  893MOL0     H17817   3.357   8.254   2.016 -0.0700  1.0566  0.6362
  893MOL0     H17818   3.470   8.367   2.091 -0.4435  0.3876 -1.7121
  893MOL0     H17819   3.435   8.112   2.245 -0.9055 -1.1786 -3.4426
  893MOL0     H17820   3.456   8.264   2.318 -1.1134  0.0906  1.0111
  893MOL0     H17821   3.241   8.177   2.363  0.1165 -1.2897 -0.6335
  893MOL0     H17822   3.201   8.153   2.205  0.1409 -1.3237  1.4429
  893MOL0     H17823   3.092   8.373   2.267 -0.1548 -1.6684 -1.1116
  893MOL0     H17824   3.232   8.423   2.165  0.2759  0.1031  0.9216
  893MOL0     H17825   3.229   8.434   2.462 -1.5538 -0.5283 -1.6953
  893MOL0     H17826   3.370   8.461   2.377  1.0164  0.4102 -1.9052
  893MOL0     H17827   3.294   8.673   2.400  0.4695  1.8835 -1.7259
  893MOL0     H17828   3.121   8.634   2.356  0.0300  0.3566 -1.4821
  893MOL0     H17829   3.478   8.654   2.231 -1.6730 -0.4808  2.3422
  893MOL0     H17830   3.565   8.814   2.047  0.4126 -0.5377  0.2242
  893MOL0     H17831   3.460   8.859   1.906 -0.4895  2.0099  1.6575
  893MOL0     H17832   3.504   8.636   1.797 -3.6798 -0.9697  1.6172
  893MOL0     H17833   3.567   8.569   1.946 -4.0335 -1.2215 -0.8075
  893MOL0     H17834   3.717   8.819   1.815  3.1902 -0.6943 -1.3061
  893MOL0     H17835   3.774   8.697   1.935  1.9696 -3.1060 -2.4424
  893MOL0     H17836   3.688   8.621   1.658  1.3561 -0.3205 -1.5287
  893MOL0     H17837   3.797   8.538   1.782  2.5445  0.2642  0.3106
  893MOL0     H17838   4.028   8.803   1.484  1.1314  0.9105  0.3721
  893MOL0     H17839   4.200   8.686   1.369  0.6481 -0.2315  0.5327
  893MOL0     H17840   4.238   8.264   1.203 -1.0100  0.0476 -0.9261
  893MOL0     H17841   4.342   8.093   1.027  3.2876 -3.4519  2.2608
  893MOL0     H17842   4.525   8.293   0.767 -0.0802 -0.0834 -1.0616
  893MOL0     H17843   4.396   8.172   0.761 -0.4003 -1.0481  3.2129
  893MOL0     H17844   4.502   8.131   0.577 -0.4991  2.9068  0.4012
  893MOL0     H17845   4.593   8.021   0.679 -0.0401 -0.3825 -1.6002
  893MOL0     H17846   4.756   8.191   0.720 -0.7809  0.0197  0.1753
  893MOL0     H17847   4.686   8.302   0.593  1.0407  0.1110 -0.0238
  893MOL0     H17848   4.767   8.018   0.532 -3.5664  0.0207  1.1787
  893MOL0     H17849   4.726   8.136   0.412  1.2727  0.2595 -0.6745
  893MOL0     H17850   4.966   8.172   0.586  0.3217  0.9034 -0.5664
  893MOL0     H17851   4.906   8.290   0.478 -0.7670  0.3330 -1.0695
  893MOL0     H17852   4.946   8.149   0.291  3.2398  0.2059 -1.1466
  893MOL0     H17853   4.971   8.009   0.384 -3.3132  0.8820 -0.0634
  893MOL0     H17854   5.173   8.205   0.482  3.3909  2.4895  0.0885
  893MOL0     H17855   5.192   8.052   0.399 -0.8172 -0.2937  0.8188
  893MOL0     H17856   5.290   8.277   0.295  1.6761 -0.9247 -1.0899
  893MOL0     H17857   5.111   8.304   0.257  1.8474  1.5479 -0.4323
  893MOL0     H17858   4.665   8.372   0.989 -0.8840  2.7500 -0.8639
  893MOL0     H17859   4.581   8.516   1.162 -0.0605 -0.4141  2.3123
  893MOL0     H17860   4.136   8.327   1.614  0.5926  0.9970  1.8220
  893MOL0     H17861   3.954   8.441   1.713 -0.5795  0.9786 -1.3098
  893MOL0     H17862   3.955   8.071   1.898 -2.4156  0.5658  2.0519
  893MOL0     H17863   4.070   7.984   1.676 -0.7990 -1.8721 -2.0786
  893MOL0     H17864   4.234   7.972   1.394  0.8097  0.3761 -0.3636
  893MOL0     H17865   4.402   7.856   1.272 -2.3209 -0.7317  4.9779
  893MOL0     H17866   4.551   7.729   1.117 -1.4323 -1.7838 -1.1583
  893MOL0     H17867   4.535   7.897   1.052 -1.4562 -0.1800  0.7357
  893MOL0     H17868   4.565   7.796   0.824 -1.8277  1.0095  2.0781
  893MOL0     H17869   4.705   7.774   0.926  0.0196  1.2193  2.3512
  893MOL0     H17870   4.480   7.557   0.921  0.0960 -0.6945  0.3657
  893MOL0     H17871   4.637   7.548   1.006  0.5565  1.5568 -0.1477
  893MOL0     H17872   4.611   7.594   0.707 -1.0893 -0.4142  0.4391
  893MOL0     H17873   4.758   7.554   0.794 -0.1225 -0.3103 -0.4314
  893MOL0     H17874   4.640   7.182   0.673  1.4252  0.6863 -1.7580
  893MOL0     H17875   4.136   7.845   0.925  0.4039 -0.6572  0.0082
  893MOL0     H17876   3.966   7.950   1.050 -0.6808  2.4616 -0.6637
  894MOL0     O17877   5.814  10.621   5.156 -0.6387  0.0002  0.5050
  894MOL0     C17878   5.893  10.655   5.241  0.2490  0.4765 -0.6600
  894MOL0     O17879   5.869  10.633   5.374 -0.0698 -0.3246 -0.8846
  894MOL0     C17880   5.745  10.583   5.418  0.3919 -0.6913  0.4319
  894MOL0     C17881   5.747  10.476   5.500 -0.5884  0.2059  1.1751
  894MOL0     C17882   5.640  10.389   5.531  0.2869  0.5263  0.2057
  894MOL0     C17883   5.515  10.427   5.481  0.1799  0.4875  0.0632
  894MOL0     O17884   5.403  10.353   5.517 -0.1879 -0.6243  0.1420
  894MOL0     C17885   5.287  10.346   5.440 -0.3092 -0.1277  0.9949
  894MOL0     C17886   5.213  10.213   5.452  0.0242  0.2030  0.0507
  894MOL0     C17887   5.192  10.161   5.593  0.3695 -0.5216  0.1289
  894MOL0     C17888   5.139  10.255   5.701 -0.1196 -0.5590 -0.8246
  894MOL0     C17889   5.038  10.171   5.783 -0.4578 -0.3470 -0.3435
  894MOL0     C17890   4.911  10.154   5.698  0.5111 -0.2303  1.8676
  894MOL0     C17891   4.799  10.076   5.773  0.1855  0.0984  0.2264
  894MOL0     C17892   4.823   9.935   5.799  0.2190  1.1592  0.6991
  894MOL0     N17893   4.838   9.859   5.674 -0.5722  0.8979  0.3872
  894MOL0     C17894   4.955   9.801   5.633  0.4354 -0.7061  0.7371
  894MOL0     C17895   4.923   9.715   5.535  1.7768  0.1334 -0.6319
  894MOL0     C17896   4.997   9.612   5.454  0.4337  0.8134  0.5537
  894MOL0     C17897   5.099   9.670   5.343  0.3710  1.2184  0.1359
  894MOL0     C17898   5.038   9.681   5.193  0.1029  0.0963 -0.1420
  894MOL0     C17899   4.955   9.809   5.172  1.1820 -0.9332  0.9071
  894MOL0     O17900   4.952   9.842   5.032 -1.0697  0.3961 -0.0214
  894MOL0     C17901   4.883   9.782   4.929  0.8375 -0.6898  0.0555
  894MOL0     C17902   4.954   9.718   4.826  0.1788 -0.4006  0.1399
  894MOL0     C17903   4.883   9.672   4.713  1.1772 -0.3731 -0.3262
  894MOL0     C17904   4.748   9.678   4.707  0.1147  0.1480 -0.0305
  894MOL0     C17905   4.694   9.642   4.573 -0.7665 -0.6486  0.1094
  894MOL0     O17906   4.788   9.618   4.481  0.2106 -0.0629 -0.0824
  894MOL0     C17907   4.746   9.598   4.350 -0.2068 -0.6933 -0.6889
  894MOL0     C17908   4.749   9.710   4.268 -0.9761 -0.6826  0.0790
  894MOL0     C17909   4.712   9.698   4.134  1.1900 -0.6121  0.7300
  894MOL0     C17910   4.667   9.578   4.081 -0.0082 -0.4707  0.6430
  894MOL0     O17911   4.634   9.566   3.955 -0.0133  0.3821  0.3919
  894MOL0     C17912   4.551   9.667   3.898  0.6245  0.0338  1.0845
  894MOL0     C17913   4.628   9.761   3.811  0.2333  0.1361  0.1691
  894MOL0     C17914   4.661   9.693   3.679 -0.1210  0.0695 -0.4486
  894MOL0     C17915   4.743   9.804   3.601  0.4684 -0.7213  0.1593
  894MOL0     C17916   4.779   9.764   3.459 -0.6649  0.0859 -0.0358
  894MOL0     C17917   4.897   9.842   3.405  0.8651 -0.0317 -0.0524
  894MOL0     C17918   4.980   9.764   3.304 -0.7593 -0.0040 -0.1985
  894MOL0     C17919   5.049   9.644   3.364 -0.2807 -0.1689  0.0326
  894MOL0    Cl17920   5.163   9.583   3.231 -0.4679  0.1462 -0.3499
  894MOL0     C17921   4.656   9.471   4.168  0.7374  0.9899  0.1452
  894MOL0     C17922   4.706   9.479   4.300  0.4865  0.5995  0.3756
  894MOL0     O17923   4.577   9.617   4.566  0.0246 -0.6363  1.1008
  894MOL0     C17924   4.677   9.729   4.812 -0.6618  0.9681  0.1997
  894MOL0     C17925   4.745   9.785   4.927  0.1136  0.4767  0.0401
  894MOL0     N17926   4.783   9.727   5.523 -0.8333 -0.3529  0.1325
  894MOL0     N17927   4.739   9.816   5.604  1.0838  0.4420 -0.3651
  894MOL0     C17928   5.502  10.540   5.393 -0.1496  0.3417  0.2552
  894MOL0     C17929   5.618  10.620   5.360  0.2722 -0.0976 -0.4139
  894MOL0     C17930   6.028  10.707   5.206  0.1705 -0.1344  0.2099
  894MOL0     C17931   6.072  10.739   5.080  0.1731 -0.5860 -0.8527
  894MOL0     C17932   6.187  10.808   5.062  0.5101  0.0570 -0.9621
  894MOL0     C17933   6.273  10.856   5.164 -0.3349 -0.0246 -0.5378
  894MOL0     O17934   6.391  10.916   5.126  0.4464 -0.2109  0.0546
  894MOL0     C17935   6.506  10.905   5.210 -1.2474 -0.0692  1.5782
  894MOL0     C17936   6.606  11.009   5.166  0.4365 -0.2485 -0.1405
  894MOL0     C17937   6.715  11.040   5.260 -0.6420 -0.0055  0.0385
  894MOL0     C17938   6.810  11.142   5.183 -0.0601 -0.6511  0.3441
  894MOL0     C17939   6.937  11.162   5.251 -0.0746 -0.5145 -0.7615
  894MOL0     C17940   7.053  11.158   5.307  0.1427  0.4103  0.5798
  894MOL0     C17941   6.228  10.813   5.286 -0.5918  0.3440  0.6309
  894MOL0     C17942   6.112  10.740   5.309 -0.0400  0.3095 -0.2383
  894MOL0     H17943   5.849  10.473   5.539  1.2998  1.4372 -3.0435
  894MOL0     H17944   5.655  10.301   5.593 -4.2704 -1.2317 -0.8144
  894MOL0     H17945   5.313  10.355   5.334  0.1669 -0.3929  1.0829
  894MOL0     H17946   5.224  10.434   5.458  2.3853  2.6759 -1.8451
  894MOL0     H17947   5.274  10.141   5.398  0.2234  0.0968  0.4091
  894MOL0     H17948   5.116  10.216   5.402 -0.7941  0.9496  1.5795
  894MOL0     H17949   5.297  10.145   5.620  0.9114  0.5406 -1.2406
  894MOL0     H17950   5.142  10.064   5.598  2.5782 -1.7018  0.2407
  894MOL0     H17951   5.215  10.276   5.777 -2.1228 -3.2540  2.2120
  894MOL0     H17952   5.090  10.343   5.659 -0.3836  0.0874  0.7750
  894MOL0     H17953   5.012  10.221   5.877 -0.3700 -1.3011  0.1990
  894MOL0     H17954   5.076  10.071   5.804  1.2658  0.3850  0.2072
  894MOL0     H17955   4.933  10.103   5.604  0.1911 -0.3621  1.8666
  894MOL0     H17956   4.874  10.255   5.675  0.7409 -0.7401 -1.0848
  894MOL0     H17957   4.783  10.126   5.869 -4.6681  2.3644 -1.4186
  894MOL0     H17958   4.704  10.083   5.720 -0.5832  2.7270  1.7694
  894MOL0     H17959   4.737   9.894   5.854 -1.2023  2.3281 -0.5730
  894MOL0     H17960   4.908   9.922   5.867  1.9791  1.2322 -1.3984
  894MOL0     H17961   5.057   9.817   5.667  1.1870  1.4765 -2.1448
  894MOL0     H17962   4.927   9.546   5.402  1.1886  0.4983 -0.0815
  894MOL0     H17963   5.046   9.538   5.517  1.4145 -1.2996 -2.4487
  894MOL0     H17964   5.183   9.601   5.336 -1.4096 -1.2429  1.5019
  894MOL0     H17965   5.149   9.762   5.376 -0.1754  0.9985  1.6603
  894MOL0     H17966   5.115   9.680   5.116 -0.3432  2.1183 -0.6696
  894MOL0     H17967   4.971   9.595   5.183 -2.4686  1.9409  0.1637
  894MOL0     H17968   5.002   9.897   5.218  0.0372 -1.6476  3.6985
  894MOL0     H17969   4.854   9.800   5.213  0.5766  3.6987  0.9569
  894MOL0     H17970   5.062   9.710   4.824  0.3040  0.7072  1.2078
  894MOL0     H17971   4.940   9.632   4.629 -1.2449 -1.5035 -1.5109
  894MOL0     H17972   4.766   9.811   4.305  0.9765 -0.9104 -0.0779
  894MOL0     H17973   4.729   9.791   4.080  2.9012 -1.0746  0.4319
  894MOL0     H17974   4.493   9.721   3.973 -2.8585  0.1318 -1.4498
  894MOL0     H17975   4.473   9.617   3.840  1.2090  0.3457 -0.0004
  894MOL0     H17976   4.719   9.792   3.863  0.6838 -1.4031  0.3620
  894MOL0     H17977   4.573   9.851   3.783  2.5527  1.5836  0.0259
  894MOL0     H17978   4.564   9.677   3.631 -1.6490  2.8859  1.4055
  894MOL0     H17979   4.720   9.602   3.689  0.8641  0.9477  3.5693
  894MOL0     H17980   4.692   9.901   3.598  1.0701 -0.4351 -1.3158
  894MOL0     H17981   4.838   9.825   3.650  0.5495  0.8589 -0.6114
  894MOL0     H17982   4.689   9.759   3.398 -3.7021 -0.8917  4.0580
  894MOL0     H17983   4.812   9.662   3.481 -1.7314 -0.5087 -1.1015
  894MOL0     H17984   4.949   9.875   3.495 -3.7525  0.6257  2.6533
  894MOL0     H17985   4.854   9.938   3.373 -2.1045  0.0807  3.6127
  894MOL0     H17986   4.918   9.731   3.219 -0.9766  0.0584 -0.0658
  894MOL0     H17987   5.057   9.830   3.263 -1.6516  1.1711 -0.0509
  894MOL0     H17988   4.982   9.563   3.394  0.3819  0.0727  2.3264
  894MOL0     H17989   5.104   9.671   3.455 -0.6539  2.4766 -0.4234
  894MOL0     H17990   4.613   9.377   4.135  0.4654  1.0515  0.3254
  894MOL0     H17991   4.691   9.388   4.359 -0.0328  1.0710  0.9889
  894MOL0     H17992   4.568   9.733   4.809 -0.7767 -0.6765  0.8420
  894MOL0     H17993   4.695   9.825   5.014  0.2011 -2.6522  1.6717
  894MOL0     H17994   5.419  10.577   5.334  2.3047  0.2677 -3.5818
  894MOL0     H17995   5.605  10.696   5.283  0.1481 -1.0228 -1.3349
  894MOL0     H17996   6.009  10.722   4.993 -0.7914  0.7512 -0.4598
  894MOL0     H17997   6.233  10.822   4.965  2.8467  0.9589  0.1912
  894MOL0     H17998   6.557  10.809   5.200 -0.1344  0.6385 -0.3032
  894MOL0     H17999   6.487  10.927   5.315  0.0243  3.9899  1.1426
  894MOL0     H18000   6.642  10.981   5.066 -2.5517  0.0818 -1.4045
  894MOL0     H18001   6.544  11.096   5.148 -0.8315 -0.8560  1.1151
  894MOL0     H18002   6.765  10.946   5.282 -0.4100  0.0540 -0.2347
  894MOL0     H18003   6.691  11.071   5.362  0.0049  0.6119  0.0126
  894MOL0     H18004   6.840  11.104   5.085  4.3783 -0.7691  1.5323
  894MOL0     H18005   6.760  11.240   5.177 -0.4454 -0.8411 -5.3265
  894MOL0     H18006   7.152  11.168   5.345  2.0268 -0.8204 -3.4846
  894MOL0     H18007   6.280  10.815   5.381 -1.1839 -0.8853  1.0058
  894MOL0     H18008   6.101  10.687   5.404  2.3950 -1.0539 -0.6277
  895MOL0     O18009   0.216   8.739   9.773  0.2971 -0.3942 -0.2785
  895MOL0     C18010   0.260   8.843   9.819  0.5745 -0.0316  1.2285
  895MOL0     O18011   0.186   8.954   9.843 -0.1079 -0.6178 -0.9000
  895MOL0     C18012   0.059   8.951   9.792  0.4910  1.3098  0.2817
  895MOL0     C18013   0.029   9.014   9.673 -0.1035  0.2001  0.3208
  895MOL0     C18014  -0.103   9.003   9.633  0.0643 -0.0585  0.7698
  895MOL0     C18015  -0.193   8.927   9.695 -0.1380 -0.1922  0.2802
  895MOL0     O18016  -0.311   8.918   9.624 -0.4341 -0.0324  0.7813
  895MOL0     C18017  -0.404   8.817   9.654  0.1644  0.3559  0.0589
  895MOL0     C18018  -0.501   8.824   9.539  1.1191 -0.1376  0.7374
  895MOL0     C18019  -0.603   8.717   9.523  0.6565  0.0370 -0.5192
  895MOL0     C18020  -0.677   8.739   9.397  0.0859 -0.2637 -1.2925
  895MOL0     C18021  -0.791   8.849   9.411  0.5858  0.6001 -0.4258
  895MOL0     C18022  -0.885   8.855   9.286  1.2027  0.1338  0.6060
  895MOL0     C18023  -0.822   8.847   9.145  0.3920  0.2650 -0.0800
  895MOL0     C18024  -0.745   8.973   9.099 -0.2162  0.9439 -0.3054
  895MOL0     N18025  -0.644   9.039   9.189 -0.2823  0.3416  0.0366
  895MOL0     C18026  -0.521   8.992   9.231 -0.6735 -1.1885 -0.1337
  895MOL0     C18027  -0.473   9.082   9.324 -0.6097  0.0138  0.3207
  895MOL0     C18028  -0.334   9.098   9.369  0.2884  0.0300 -0.0754
  895MOL0     C18029  -0.257   9.189   9.272 -0.2512  0.4062  0.3037
  895MOL0     C18030  -0.254   9.335   9.323  0.2687 -0.0748  0.7647
  895MOL0     C18031  -0.140   9.364   9.418  0.0077 -0.0765  0.4182
  895MOL0     O18032  -0.021   9.301   9.370  0.3684 -0.4042 -0.5493
  895MOL0     C18033   0.093   9.321   9.445  0.0712  0.2854  0.4011
  895MOL0     C18034   0.208   9.266   9.381  0.0424 -0.0187 -0.4447
  895MOL0     C18035   0.325   9.258   9.455  0.8904 -0.4769 -0.4542
  895MOL0     C18036   0.335   9.311   9.581 -0.8250  0.9239  0.3665
  895MOL0     C18037   0.460   9.308   9.643 -0.9911 -0.8235  0.7653
  895MOL0     O18038   0.476   9.409   9.740  0.4810 -0.3746 -0.1028
  895MOL0     C18039   0.585   9.409   9.821 -0.3230  0.0434  0.5371
  895MOL0     C18040   0.703   9.457   9.771  0.4430 -0.9158 -0.0912
  895MOL0     C18041   0.828   9.447   9.838  0.0061 -1.2558  0.1602
  895MOL0     C18042   0.829   9.380   9.963  0.1112 -0.3327  0.5447
  895MOL0     O18043   0.950   9.363  10.026 -1.2181 -0.5025 -0.8937
  895MOL0     C18044   0.957   9.276  10.141 -0.6477 -0.3039 -0.4861
  895MOL0     C18045   1.086   9.199  10.117 -0.4568 -0.0616 -0.2306
  895MOL0     C18046   1.202   9.267  10.056 -0.4582  0.3933  0.3506
  895MOL0     C18047   1.328   9.188  10.050 -0.9174 -0.6759  0.0561
  895MOL0     C18048   1.436   9.272   9.976 -0.1121  0.6802 -0.4633
  895MOL0     C18049   1.575   9.205   9.994 -0.3104  0.0558  0.7823
  895MOL0     C18050   1.683   9.293   9.923 -1.1765  0.4011 -0.2463
  895MOL0     C18051   1.826   9.260   9.968 -0.1819 -0.2389 -0.9521
  895MOL0    Cl18052   1.867   9.343  10.121  0.1942 -0.0691 -0.0407
  895MOL0     C18053   0.701   9.346  10.022  0.1522  0.8377  0.9372
  895MOL0     C18054   0.579   9.358   9.953 -0.4231 -0.0353  0.3663
  895MOL0     O18055   0.544   9.223   9.604  0.0092 -0.3829 -0.5915
  895MOL0     C18056   0.221   9.368   9.643  0.4692 -0.1481  0.5676
  895MOL0     C18057   0.098   9.374   9.570  0.5689  0.9150 -1.3597
  895MOL0     N18058  -0.575   9.177   9.328 -0.3932  0.0474  0.4295
  895MOL0     N18059  -0.672   9.152   9.244 -0.0575  0.8867  0.0178
  895MOL0     C18060  -0.158   8.865   9.815  0.9103 -0.0688 -0.0555
  895MOL0     C18061  -0.033   8.876   9.868 -0.3481 -0.3355 -0.4266
  895MOL0     C18062   0.400   8.860   9.824  0.3595 -0.6360  0.2346
  895MOL0     C18063   0.456   8.977   9.881  0.7917 -0.5723  0.5494
  895MOL0     C18064   0.591   9.002   9.880 -1.0536  0.4196  0.0803
  895MOL0     C18065   0.686   8.907   9.834 -0.2007 -0.4527 -0.0755
  895MOL0     O18066   0.821   8.915   9.826 -0.1537  0.4268  0.1278
  895MOL0     C18067   0.906   9.034   9.853  0.0603  0.0603  0.7808
  895MOL0     C18068   0.908   9.131   9.730  0.0370  0.0995 -0.7895
  895MOL0     C18069   0.909   9.059   9.590  0.0117 -0.4691  0.2972
  895MOL0     C18070   1.034   8.978   9.571  0.2628  0.4064  0.1459
  895MOL0     C18071   1.164   9.041   9.598  0.0982  0.3983 -0.6852
  895MOL0     C18072   1.261   9.102   9.628 -0.3382 -0.1553  1.2473
  895MOL0     C18073   0.628   8.792   9.769  0.0645 -0.1476  0.0861
  895MOL0     C18074   0.490   8.765   9.768 -0.1008 -0.6456 -0.0284
  895MOL0     H18075   0.104   9.065   9.614 -0.5953 -0.7526 -1.1842
  895MOL0     H18076  -0.132   9.046   9.538 -2.2327  2.7014  2.5447
  895MOL0     H18077  -0.455   8.846   9.747 -0.3269  0.9599 -0.3887
  895MOL0     H18078  -0.366   8.717   9.673 -2.1191 -0.4521  0.6395
  895MOL0     H18079  -0.444   8.813   9.447 -1.3474 -0.8363 -0.8225
  895MOL0     H18080  -0.547   8.923   9.540  2.4499  0.5178 -0.6951
  895MOL0     H18081  -0.662   8.712   9.615  3.1603 -2.1141  1.1063
  895MOL0     H18082  -0.555   8.619   9.512  0.1760  0.0223 -2.8704
  895MOL0     H18083  -0.610   8.783   9.322  0.2482  0.8828 -0.5077
  895MOL0     H18084  -0.729   8.648   9.368 -1.0118  0.1587 -0.7187
  895MOL0     H18085  -0.735   8.942   9.431  3.0997 -1.2835  2.0967
  895MOL0     H18086  -0.862   8.830   9.492  1.0228  0.9048  0.0371
  895MOL0     H18087  -0.964   8.930   9.286 -0.0055 -1.0968  1.2862
  895MOL0     H18088  -0.954   8.770   9.297  0.0021  1.2044  1.6292
  895MOL0     H18089  -0.765   8.753   9.145 -1.0221 -0.7520  3.4608
  895MOL0     H18090  -0.908   8.829   9.080 -0.8584  1.8015  1.0772
  895MOL0     H18091  -0.814   9.056   9.082  3.0541  4.9520  3.7021
  895MOL0     H18092  -0.694   8.932   9.012  2.0736 -1.7186  2.0905
  895MOL0     H18093  -0.468   8.911   9.182 -2.3090 -0.8937 -2.5600
  895MOL0     H18094  -0.287   8.999   9.361  1.2880  0.4154  0.7374
  895MOL0     H18095  -0.339   9.136   9.471 -2.7200  2.4183 -0.9562
  895MOL0     H18096  -0.307   9.196   9.175  0.9069  1.4757 -0.2463
  895MOL0     H18097  -0.158   9.145   9.256 -1.1402 -1.4338 -0.4418
  895MOL0     H18098  -0.249   9.401   9.236  0.0091 -0.3553  0.5350
  895MOL0     H18099  -0.351   9.354   9.370 -0.5054 -0.1757 -0.7314
  895MOL0     H18100  -0.177   9.309   9.505 -0.5043 -0.3395  0.0452
  895MOL0     H18101  -0.139   9.471   9.439  1.0705 -0.1703  0.8847
  895MOL0     H18102   0.204   9.227   9.280  1.0848  1.5881 -1.1548
  895MOL0     H18103   0.415   9.218   9.408  2.7569  1.8452  0.9176
  895MOL0     H18104   0.704   9.500   9.672 -0.2448 -1.1823 -0.2149
  895MOL0     H18105   0.917   9.486   9.790 -2.1228  0.5527 -2.6405
  895MOL0     H18106   0.867   9.215  10.152  0.2025 -1.6642 -0.8679
  895MOL0     H18107   0.981   9.345  10.222  0.3458  1.9281 -2.5459
  895MOL0     H18108   1.068   9.110  10.056  1.5290  0.4046 -1.6229
  895MOL0     H18109   1.112   9.175  10.221 -0.3603  2.8418  0.5051
  895MOL0     H18110   1.216   9.354  10.121  0.2831 -0.4881  1.4028
  895MOL0     H18111   1.172   9.299   9.956 -0.1736  0.4410  0.2817
  895MOL0     H18112   1.356   9.162  10.152 -0.4658 -1.1800 -0.1874
  895MOL0     H18113   1.319   9.098   9.988 -0.3005  0.0318 -1.0981
  895MOL0     H18114   1.429   9.374  10.013 -1.3738  0.5316 -0.2335
  895MOL0     H18115   1.412   9.253   9.871  4.0645  1.2320 -1.6885
  895MOL0     H18116   1.587   9.102   9.960  0.3086  0.1184  0.7919
  895MOL0     H18117   1.596   9.209  10.102 -2.7658  3.1233  1.2724
  895MOL0     H18118   1.674   9.272   9.816  0.8307 -1.3085 -0.1365
  895MOL0     H18119   1.663   9.397   9.951  1.6570 -0.0182  4.6214
  895MOL0     H18120   1.904   9.290   9.896 -1.2484  0.9984 -1.6132
  895MOL0     H18121   1.831   9.151   9.981  0.7089 -0.2532 -1.3042
  895MOL0     H18122   0.697   9.321  10.127  4.3092 -3.3251  0.4199
  895MOL0     H18123   0.482   9.339   9.999 -0.1552  0.9141  1.3816
  895MOL0     H18124   0.246   9.422   9.734  1.4348  0.6409 -0.1418
  895MOL0     H18125   0.005   9.409   9.614  0.2978  1.6793 -2.4869
  895MOL0     H18126  -0.235   8.809   9.867  2.0643  0.3452  2.2612
  895MOL0     H18127  -0.007   8.828   9.961 -1.7246  4.1920  2.6358
  895MOL0     H18128   0.395   9.058   9.917  0.7195  0.8411 -2.4076
  895MOL0     H18129   0.623   9.098   9.919 -3.0955  1.2362 -0.1022
  895MOL0     H18130   1.003   8.985   9.869 -0.5708 -0.5122  3.2800
  895MOL0     H18131   0.877   9.066   9.954 -0.7366  0.2345  0.5045
  895MOL0     H18132   0.822   9.195   9.749 -1.0216 -1.4053 -0.3350
  895MOL0     H18133   0.993   9.199   9.746 -0.1012  0.0011  0.4486
  895MOL0     H18134   0.902   9.134   9.510 -0.5512 -1.3078 -0.4587
  895MOL0     H18135   0.822   8.993   9.580 -0.8492 -0.0781  3.9681
  895MOL0     H18136   1.020   8.888   9.631  0.5586  1.3447  1.6703
  895MOL0     H18137   1.040   8.936   9.470  1.7045 -0.6564  0.6382
  895MOL0     H18138   1.356   9.152   9.636  1.4568 -2.3345 -3.0151
  895MOL0     H18139   0.695   8.718   9.727  2.4257  1.0690  1.5005
  895MOL0     H18140   0.463   8.670   9.723 -0.4333 -1.8937  2.6074
  896MOL0     O18141   5.391   4.475   1.093  0.1111  0.1531  0.6144
  896MOL0     C18142   5.346   4.496   0.983  1.1973  0.0585 -0.3549
  896MOL0     O18143   5.411   4.508   0.866  0.4281  0.0567  0.4560
  896MOL0     C18144   5.541   4.469   0.842  0.0434  0.1523 -0.8748
  896MOL0     C18145   5.618   4.385   0.914 -0.0808  0.1922  0.5346
  896MOL0     C18146   5.753   4.359   0.868 -0.3029  0.4955  0.5986
  896MOL0     C18147   5.812   4.428   0.761 -0.8271 -0.1625  0.1145
  896MOL0     O18148   5.945   4.409   0.735 -0.2004 -0.7428 -0.3439
  896MOL0     C18149   6.028   4.524   0.752 -0.5993  0.1055  0.3009
  896MOL0     C18150   6.171   4.488   0.727  0.5869  0.0216 -0.2384
  896MOL0     C18151   6.243   4.607   0.664  0.6463  0.7798 -0.4302
  896MOL0     C18152   6.391   4.576   0.681 -0.1568 -0.7038 -0.3599
  896MOL0     C18153   6.470   4.664   0.581 -0.2384  0.4622  0.4790
  896MOL0     C18154   6.621   4.638   0.590  0.1424  0.3226  0.2650
  896MOL0     C18155   6.707   4.723   0.490 -0.3395 -0.1251 -0.2033
  896MOL0     C18156   6.714   4.655   0.351 -0.8832 -0.2460 -0.0532
  896MOL0     N18157   6.852   4.668   0.298 -0.2617  0.7777  0.4569
  896MOL0     C18158   6.935   4.565   0.251  0.0204 -0.2774  0.5754
  896MOL0     C18159   7.021   4.638   0.177 -0.0619 -0.4227 -0.1590
  896MOL0     C18160   7.144   4.587   0.100  0.3534 -0.2592 -0.4903
  896MOL0     C18161   7.247   4.525   0.189  0.1351  0.3361  0.3237
  896MOL0     C18162   7.379   4.527   0.111 -0.1939  0.9924  0.1502
  896MOL0     C18163   7.497   4.460   0.174  0.1885  0.2246 -0.4400
  896MOL0     O18164   7.609   4.453   0.077  0.4253 -0.0588 -0.5285
  896MOL0     C18165   7.733   4.401   0.106  0.5910 -0.7609  0.5668
  896MOL0     C18166   7.845   4.456   0.043 -1.0335  0.6803  1.1477
  896MOL0     C18167   7.974   4.421   0.078  0.8902  0.1030  0.2326
  896MOL0     C18168   7.995   4.329   0.177  0.6853 -0.3907 -0.4558
  896MOL0     C18169   8.140   4.284   0.202 -0.3400  0.0520  0.1667
  896MOL0     O18170   8.235   4.374   0.184 -0.1020  0.3290  0.5295
  896MOL0     C18171   8.371   4.316   0.186 -0.3733 -0.1411 -0.8342
  896MOL0     C18172   8.424   4.230   0.085 -0.1311  1.2349  0.8554
  896MOL0     C18173   8.561   4.199   0.082  0.0513  1.0825  0.4945
  896MOL0     C18174   8.642   4.262   0.177  1.0179 -0.0058 -0.3929
  896MOL0     O18175   8.778   4.231   0.189 -0.5312 -0.0104 -0.2980
  896MOL0     C18176   8.865   4.205   0.073  0.1620  1.0522 -0.0080
  896MOL0     C18177   9.013   4.206   0.121  0.4508 -0.6766 -0.4390
  896MOL0     C18178   9.045   4.081   0.208  1.3698  0.1328 -0.6460
  896MOL0     C18179   9.180   4.093   0.281 -0.7859  0.0882 -0.1212
  896MOL0     C18180   9.302   4.128   0.191  0.0353  0.5113 -0.3624
  896MOL0     C18181   9.373   4.015   0.118 -0.2890  0.5373  0.7724
  896MOL0     C18182   9.303   3.974  -0.015 -0.6003 -0.6624 -0.2222
  896MOL0     C18183   9.373   3.860  -0.089  0.5049 -0.4122  0.8592
  896MOL0    Cl18184   9.301   3.868  -0.263 -0.0049 -0.3634  0.7738
  896MOL0     C18185   8.597   4.343   0.280  0.3862 -0.3077 -0.1099
  896MOL0     C18186   8.460   4.369   0.285  0.1687 -0.6619 -0.0892
  896MOL0     O18187   8.147   4.164   0.216  0.0742  0.2626  0.0517
  896MOL0     C18188   7.884   4.276   0.242 -0.7094 -0.4959 -0.0900
  896MOL0     C18189   7.755   4.317   0.211  0.4156  0.6280  0.3169
  896MOL0     N18190   7.004   4.775   0.185 -0.3591 -0.5599 -0.0327
  896MOL0     N18191   6.896   4.785   0.251  0.9801 -0.6294 -0.6613
  896MOL0     C18192   5.728   4.524   0.697  0.3254  0.5867  1.1788
  896MOL0     C18193   5.592   4.530   0.731  0.7336 -0.7397  0.1902
  896MOL0     C18194   5.202   4.513   0.961 -0.5616  0.0657 -0.3468
  896MOL0     C18195   5.165   4.607   0.870  1.7036  0.7998  0.4592
  896MOL0     C18196   5.023   4.620   0.862  0.2748 -0.7803  0.2784
  896MOL0     C18197   4.930   4.551   0.943  0.5477 -0.2712  0.3796
  896MOL0     O18198   4.794   4.573   0.930  0.4257 -0.1450 -0.5493
  896MOL0     C18199   4.735   4.687   0.859 -0.9501  0.3150 -0.0501
  896MOL0     C18200   4.585   4.725   0.909 -1.3997  0.2013  0.0509
  896MOL0     C18201   4.500   4.607   0.865  0.6141  0.5477  0.7469
  896MOL0     C18202   4.359   4.652   0.846 -0.8096 -0.1088  0.1867
  896MOL0     C18203   4.308   4.682   0.977 -0.1765  0.0325 -1.0597
  896MOL0     C18204   4.280   4.696   1.097  0.3622  1.1642  0.1360
  896MOL0     C18205   4.978   4.446   1.018 -0.1423 -0.0479 -0.7994
  896MOL0     C18206   5.111   4.434   1.026 -0.6168  0.1565 -0.9295
  896MOL0     H18207   5.573   4.331   0.997  1.6091  1.1483  2.1493
  896MOL0     H18208   5.811   4.279   0.912  0.6051  0.9263  0.1945
  896MOL0     H18209   6.017   4.571   0.850  2.9376  1.2245  0.2868
  896MOL0     H18210   5.998   4.603   0.682  1.5665 -0.2928 -1.1658
  896MOL0     H18211   6.177   4.398   0.665 -0.8299 -0.0512 -0.2878
  896MOL0     H18212   6.211   4.460   0.825  2.0095  0.4673 -0.6625
  896MOL0     H18213   6.220   4.702   0.713  0.7911  2.2598 -3.0426
  896MOL0     H18214   6.212   4.625   0.561  0.6324  2.4548 -0.1670
  896MOL0     H18215   6.425   4.601   0.782 -0.2256 -0.5242 -0.3797
  896MOL0     H18216   6.412   4.469   0.676 -0.6975 -0.8198 -0.2637
  896MOL0     H18217   6.441   4.767   0.602 -0.6325  0.4109  0.1943
  896MOL0     H18218   6.454   4.635   0.477  0.8601 -3.4027  1.2260
  896MOL0     H18219   6.652   4.535   0.569  2.8074  1.3861 -1.5295
  896MOL0     H18220   6.666   4.672   0.684  1.1641  3.5526 -1.2470
  896MOL0     H18221   6.660   4.822   0.487 -3.2637 -1.4474 -0.4272
  896MOL0     H18222   6.806   4.734   0.537  0.6408 -1.0173 -1.9886
  896MOL0     H18223   6.648   4.715   0.287 -0.2345  1.0534  0.4591
  896MOL0     H18224   6.692   4.548   0.353 -1.7308 -0.0999 -0.6606
  896MOL0     H18225   6.927   4.462   0.283 -2.0057  0.1653  1.6608
  896MOL0     H18226   7.176   4.674   0.042 -3.4557  2.9398  1.6974
  896MOL0     H18227   7.109   4.515   0.026 -0.0173  0.4950 -1.0711
  896MOL0     H18228   7.218   4.425   0.225 -1.4063  0.7691  0.3527
  896MOL0     H18229   7.262   4.584   0.280  0.3225 -2.1731  2.0267
  896MOL0     H18230   7.363   4.483   0.012 -1.9430 -0.4368  1.0153
  896MOL0     H18231   7.402   4.633   0.096 -1.9831  1.2295 -1.3065
  896MOL0     H18232   7.469   4.359   0.204 -3.0612  1.6773  2.0527
  896MOL0     H18233   7.523   4.512   0.267 -0.9507 -2.0080  1.2314
  896MOL0     H18234   7.839   4.523  -0.042  0.0147 -1.5334 -0.7775
  896MOL0     H18235   8.044   4.470   0.010 -0.7603  0.2311 -1.4528
  896MOL0     H18236   8.355   4.178   0.019  1.3780  1.0029 -0.6123
  896MOL0     H18237   8.597   4.131   0.006  1.7921  2.8600 -0.3587
  896MOL0     H18238   8.863   4.291   0.006  1.0022  3.3713  2.7315
  896MOL0     H18239   8.835   4.114   0.021 -1.2784 -0.1421  2.6851
  896MOL0     H18240   9.021   4.303   0.172  3.2495  0.3936 -2.6295
  896MOL0     H18241   9.085   4.211   0.039  0.6941 -0.4566 -0.2139
  896MOL0     H18242   9.059   4.003   0.132 -0.3380 -0.1258 -0.7329
  896MOL0     H18243   8.967   4.045   0.275 -0.7339  0.2614 -2.8745
  896MOL0     H18244   9.171   4.171   0.358 -1.4402 -0.7780  0.7053
  896MOL0     H18245   9.205   3.998   0.329 -1.9536 -1.4408 -2.3573
  896MOL0     H18246   9.376   4.165   0.263 -1.1173  0.9880  0.6321
  896MOL0     H18247   9.284   4.207   0.118 -2.9192 -1.3042 -1.7930
  896MOL0     H18248   9.383   3.929   0.185 -0.0943 -0.2480 -0.2396
  896MOL0     H18249   9.472   4.056   0.099 -1.4039  2.6272 -1.0716
  896MOL0     H18250   9.206   3.935   0.014 -0.8885 -1.6812 -2.4283
  896MOL0     H18251   9.293   4.059  -0.083  1.3512 -1.6564 -1.8705
  896MOL0     H18252   9.344   3.772  -0.032  0.5029 -1.0664 -0.1349
  896MOL0     H18253   9.482   3.868  -0.076  0.7908 -4.8432  3.2633
  896MOL0     H18254   8.662   4.371   0.363 -0.5042  0.1069  0.4577
  896MOL0     H18255   8.426   4.440   0.360  0.5351 -0.3941 -0.1774
  896MOL0     H18256   7.895   4.197   0.315 -0.5159 -1.6130 -1.2960
  896MOL0     H18257   7.665   4.280   0.259  0.0386  1.0781 -0.0373
  896MOL0     H18258   5.761   4.593   0.620 -1.6880  2.3008  1.7562
  896MOL0     H18259   5.533   4.611   0.690 -0.2203  1.0073  4.4081
  896MOL0     H18260   5.232   4.673   0.817  1.6909 -0.4008 -1.1235
  896MOL0     H18261   4.983   4.704   0.806 -0.5653 -0.1852  1.7401
  896MOL0     H18262   4.732   4.682   0.749  0.3521  0.5162 -0.1093
  896MOL0     H18263   4.798   4.775   0.870  1.6028 -1.6219  2.4269
  896MOL0     H18264   4.585   4.740   1.017 -2.8698  0.7920 -0.0204
  896MOL0     H18265   4.568   4.820   0.858 -0.4876  0.7666  0.7813
  896MOL0     H18266   4.509   4.526   0.938  4.4450  0.5107  0.4544
  896MOL0     H18267   4.526   4.573   0.764 -0.1844  0.6409  0.5056
  896MOL0     H18268   4.351   4.739   0.781  1.7912  1.7316  2.1136
  896MOL0     H18269   4.304   4.567   0.804 -0.8101 -0.6207  1.1963
  896MOL0     H18270   4.273   4.708   1.203 -0.9994  1.8233 -0.0015
  896MOL0     H18271   4.916   4.370   1.064 -1.3607  0.4885 -1.4978
  896MOL0     H18272   5.143   4.347   1.081 -3.6363  0.8265  2.2235
  897MOL0     O18273   0.877   7.019  10.351 -0.3321 -0.4398 -0.0609
  897MOL0     C18274   0.891   7.120  10.283  0.3472 -0.0524  0.8024
  897MOL0     O18275   0.813   7.153  10.178  0.2737 -0.3807  1.0395
  897MOL0     C18276   0.694   7.105  10.166  0.0747 -0.4061  0.6031
  897MOL0     C18277   0.636   7.053  10.046  0.4436 -0.2708 -1.3582
  897MOL0     C18278   0.504   7.003  10.045 -0.8996  0.4102  0.1832
  897MOL0     C18279   0.419   7.018  10.151 -0.5980 -0.2350 -0.4969
  897MOL0     O18280   0.293   6.965  10.154 -0.0174  0.2029  0.5446
  897MOL0     C18281   0.253   6.891  10.038  0.8363 -0.2547  0.3926
  897MOL0     C18282   0.110   6.859  10.061 -0.0220 -0.9574  0.1131
  897MOL0     C18283   0.049   6.784   9.939 -0.3603  0.3506  0.1633
  897MOL0     C18284  -0.107   6.806   9.948  0.4155  0.0009  0.4562
  897MOL0     C18285  -0.184   6.754   9.828  0.0296 -0.0834 -1.2549
  897MOL0     C18286  -0.173   6.853   9.718 -0.3407 -0.4990 -0.0777
  897MOL0     C18287  -0.307   6.858   9.639  0.4656 -0.3289 -0.7391
  897MOL0     C18288  -0.339   6.735   9.551 -0.2433  0.7453 -0.3837
  897MOL0     N18289  -0.226   6.688   9.462  0.5233  0.3119 -0.2086
  897MOL0     C18290  -0.244   6.660   9.333 -0.6012  0.1226  1.3267
  897MOL0     C18291  -0.128   6.603   9.285 -0.2488  0.3111 -0.0904
  897MOL0     C18292  -0.078   6.559   9.142 -0.0055 -0.7995  0.7179
  897MOL0     C18293  -0.137   6.651   9.028  1.2735  1.0044 -0.0721
  897MOL0     C18294  -0.046   6.779   9.024  0.1230 -0.7451  0.4937
  897MOL0     C18295   0.079   6.770   8.951  0.0794 -0.7462 -0.4363
  897MOL0     O18296   0.142   6.900   8.957 -0.1243  1.0301 -0.8441
  897MOL0     C18297   0.204   6.923   9.081 -0.1818 -0.6498 -0.3075
  897MOL0     C18298   0.241   7.057   9.093  0.3596 -0.0731 -0.4785
  897MOL0     C18299   0.325   7.101   9.200  0.3379  1.0613 -0.1676
  897MOL0     C18300   0.358   7.002   9.296 -0.1270  0.4077 -0.9814
  897MOL0     C18301   0.453   7.036   9.408  0.7772  0.5055 -0.0796
  897MOL0     O18302   0.511   7.158   9.396  0.1253  0.0384 -0.4188
  897MOL0     C18303   0.607   7.189   9.484  0.8177 -0.5186 -0.6025
  897MOL0     C18304   0.740   7.175   9.448  0.3197 -0.3314  0.6328
  897MOL0     C18305   0.837   7.223   9.536 -0.5113  0.5377 -0.2328
  897MOL0     C18306   0.808   7.289   9.653  0.0533  0.3641  0.2069
  897MOL0     O18307   0.911   7.339   9.726 -0.3274  0.0007  0.6332
  897MOL0     C18308   0.929   7.285   9.860 -0.2452 -0.8782 -0.3281
  897MOL0     C18309   1.083   7.263   9.885  0.2996  0.3608 -0.6500
  897MOL0     C18310   1.163   7.393   9.901 -0.5894 -1.0052 -0.9461
  897MOL0     C18311   1.312   7.369   9.947  0.1575  0.4255  0.2601
  897MOL0     C18312   1.393   7.501   9.951 -0.0949 -0.0983  0.3175
  897MOL0     C18313   1.402   7.568   9.811  0.1972  0.6247 -0.7429
  897MOL0     C18314   1.538   7.607   9.757  0.5051  0.5073 -0.2199
  897MOL0     C18315   1.608   7.729   9.812  0.4600  0.2832  0.5513
  897MOL0    Cl18316   1.738   7.761   9.703 -0.2689 -0.2791  0.5219
  897MOL0     C18317   0.674   7.285   9.694  0.7981 -0.2015  0.4544
  897MOL0     C18318   0.571   7.230   9.614 -0.7719  0.2496 -0.0603
  897MOL0     O18319   0.471   6.960   9.500 -0.5781 -0.2720 -0.6030
  897MOL0     C18320   0.314   6.872   9.293 -0.2601 -0.2402  0.4698
  897MOL0     C18321   0.237   6.840   9.184  0.0165  0.3788 -0.5429
  897MOL0     N18322  -0.042   6.609   9.400  0.8032  0.5649  0.0909
  897MOL0     N18323  -0.095   6.658   9.500  0.2981 -0.1041 -0.3917
  897MOL0     C18324   0.468   7.076  10.269  0.4828 -0.6335 -0.5381
  897MOL0     C18325   0.602   7.111  10.280  0.1403 -0.4946 -0.1529
  897MOL0     C18326   1.002   7.214  10.311 -0.5175 -0.2644 -0.5605
  897MOL0     C18327   0.999   7.344  10.265 -0.3176  1.3381 -0.1309
  897MOL0     C18328   1.117   7.420  10.259 -0.2045 -0.8069  0.5474
  897MOL0     C18329   1.239   7.376  10.308  0.3400  0.2399  0.1298
  897MOL0     O18330   1.352   7.465  10.317  0.2334 -0.8747  0.6105
  897MOL0     C18331   1.488   7.418  10.349  0.1847 -0.5941  0.5319
  897MOL0     C18332   1.596   7.522  10.372  1.0856  0.9956 -0.2619
  897MOL0     C18333   1.596   7.630  10.257 -0.5919 -0.2253 -0.3959
  897MOL0     C18334   1.695   7.738  10.295 -0.9403  0.2427 -0.6639
  897MOL0     C18335   1.683   7.842  10.198  1.0897 -0.7758  0.2546
  897MOL0     C18336   1.671   7.925  10.102  0.2651  0.6815 -1.0755
  897MOL0     C18337   1.246   7.241  10.362  0.2460 -1.2891  0.3020
  897MOL0     C18338   1.129   7.163  10.360  0.6026 -0.2991 -0.6145
  897MOL0     H18339   0.695   7.043   9.956  1.4318 -1.1144 -0.6486
  897MOL0     H18340   0.464   6.967   9.950 -3.2262  0.0898  1.2163
  897MOL0     H18341   0.319   6.807  10.017  1.4545  0.3937 -0.3097
  897MOL0     H18342   0.254   6.954   9.948 -1.4500 -1.0004 -0.2436
  897MOL0     H18343   0.052   6.949  10.084 -1.8850 -2.7209  3.0982
  897MOL0     H18344   0.083   6.786  10.138 -1.6712 -1.0399 -0.5164
  897MOL0     H18345   0.080   6.680   9.947  0.7383  0.6133 -0.5881
  897MOL0     H18346   0.090   6.839   9.854 -0.5503  0.8630  0.3923
  897MOL0     H18347  -0.149   6.740  10.025 -1.3967 -0.9168 -1.2150
  897MOL0     H18348  -0.145   6.901   9.986 -2.1060 -1.3188  1.5292
  897MOL0     H18349  -0.289   6.744   9.857  1.1085 -1.5228  2.8476
  897MOL0     H18350  -0.157   6.653   9.798 -0.3308 -1.0762  1.4725
  897MOL0     H18351  -0.086   6.824   9.658 -1.3246 -0.8086 -1.3963
  897MOL0     H18352  -0.170   6.955   9.758 -0.0092 -0.4742 -0.1625
  897MOL0     H18353  -0.390   6.874   9.708  0.4120 -0.0496 -0.8649
  897MOL0     H18354  -0.314   6.946   9.574 -2.4898 -2.0591 -3.0200
  897MOL0     H18355  -0.434   6.746   9.497 -1.6833  0.0945  1.8280
  897MOL0     H18356  -0.327   6.652   9.621  0.4257  1.5946  0.5474
  897MOL0     H18357  -0.335   6.681   9.277 -0.2562 -0.8678  0.3426
  897MOL0     H18358  -0.112   6.457   9.126 -1.5125 -0.2209  0.1060
  897MOL0     H18359   0.032   6.558   9.137 -0.0335  0.1692 -0.5859
  897MOL0     H18360  -0.239   6.669   9.062  1.9288 -0.2799  2.9610
  897MOL0     H18361  -0.137   6.606   8.929  3.5040  1.2348 -0.2261
  897MOL0     H18362  -0.110   6.856   8.981 -0.1118  1.3249  4.0990
  897MOL0     H18363  -0.024   6.820   9.123  4.5762  2.7612 -1.6102
  897MOL0     H18364   0.047   6.742   8.850  0.2307 -0.0081 -0.6889
  897MOL0     H18365   0.149   6.690   8.976  0.0942 -1.8613 -3.6109
  897MOL0     H18366   0.198   7.139   9.037 -3.3740  0.6043  2.8804
  897MOL0     H18367   0.362   7.203   9.201 -1.3582  1.7618  2.6584
  897MOL0     H18368   0.764   7.135   9.350 -0.1344 -1.8128  1.0933
  897MOL0     H18369   0.943   7.232   9.516 -0.7870  3.1275 -0.8774
  897MOL0     H18370   0.889   7.183   9.856  1.3214 -1.4911 -1.9334
  897MOL0     H18371   0.887   7.350   9.937  0.7095 -1.0687  0.3772
  897MOL0     H18372   1.122   7.205   9.801  0.5827  1.1219 -1.0511
  897MOL0     H18373   1.101   7.218   9.983  3.4787  2.2304 -0.2285
  897MOL0     H18374   1.111   7.450   9.979 -0.3609  0.5671 -1.9017
  897MOL0     H18375   1.158   7.444   9.805  1.1713 -4.5845 -3.1348
  897MOL0     H18376   1.306   7.314  10.042 -2.0106  1.4827  0.8145
  897MOL0     H18377   1.353   7.291   9.883 -1.1711 -1.0602  1.1151
  897MOL0     H18378   1.496   7.469   9.974  0.7066  1.3529 -1.0888
  897MOL0     H18379   1.357   7.563  10.034  0.8001 -0.2369  0.8260
  897MOL0     H18380   1.331   7.650   9.799 -1.5377 -0.3369  2.0284
  897MOL0     H18381   1.368   7.492   9.740  0.9281 -0.4414  0.0165
  897MOL0     H18382   1.611   7.525   9.749  0.0501 -0.6787  4.4843
  897MOL0     H18383   1.522   7.636   9.653  3.8625  0.5644 -0.8252
  897MOL0     H18384   1.641   7.737   9.916  0.4721  0.1101  0.5613
  897MOL0     H18385   1.535   7.808   9.791  1.7803  1.6117  0.7696
  897MOL0     H18386   0.658   7.334   9.789 -0.3024  0.0473  0.1504
  897MOL0     H18387   0.466   7.227   9.640 -1.2102 -0.1703 -1.7252
  897MOL0     H18388   0.339   6.802   9.372  0.0052  1.4375  1.9191
  897MOL0     H18389   0.212   6.735   9.173  1.7319 -0.0081 -1.1369
  897MOL0     H18390   0.387   7.085  10.342 -0.3477 -1.3051 -1.3584
  897MOL0     H18391   0.625   7.158  10.375  1.6442 -0.1036 -0.6783
  897MOL0     H18392   0.907   7.378  10.220  1.0462  4.8292 -0.5761
  897MOL0     H18393   1.119   7.526  10.236 -3.6153 -0.0546  2.8516
  897MOL0     H18394   1.521   7.347  10.272  4.6185 -1.7976  3.2024
  897MOL0     H18395   1.486   7.351  10.436  2.4394 -0.7813  0.5020
  897MOL0     H18396   1.565   7.562  10.468 -2.0879 -1.3837 -0.1401
  897MOL0     H18397   1.687   7.461  10.379 -0.0173 -0.6084  0.9199
  897MOL0     H18398   1.504   7.688  10.262 -0.9357 -0.6849 -1.1840
  897MOL0     H18399   1.623   7.579  10.165  1.2547 -1.7785  0.9094
  897MOL0     H18400   1.680   7.771  10.398 -0.5781 -1.1477 -0.1469
  897MOL0     H18401   1.796   7.695  10.289  0.6441  3.7419 -1.4145
  897MOL0     H18402   1.631   7.987  10.025  3.4822  2.5998 -1.3716
  897MOL0     H18403   1.333   7.195  10.408 -0.3942 -0.5955  2.3268
  897MOL0     H18404   1.141   7.060  10.391 -1.2208  0.3469  2.7118
  898MOL0     O18405   1.315  11.196   1.498 -0.1356 -0.1813  0.2907
  898MOL0     C18406   1.318  11.174   1.377 -0.4578 -0.9508 -0.4151
  898MOL0     O18407   1.427  11.109   1.309  0.9522 -0.4446 -0.7456
  898MOL0     C18408   1.533  11.088   1.388 -0.1006  0.2891  0.6801
  898MOL0     C18409   1.595  10.961   1.394 -0.5400 -0.2302 -0.2309
  898MOL0     C18410   1.710  10.936   1.466  0.1824  0.5071  0.1025
  898MOL0     C18411   1.773  11.028   1.545 -0.0016 -0.1579 -0.0158
  898MOL0     O18412   1.896  11.003   1.612  0.2849 -0.1206 -0.3379
  898MOL0     C18413   1.933  10.867   1.645  0.3967 -0.1088 -0.1223
  898MOL0     C18414   2.062  10.851   1.719 -0.5113  0.0144 -0.5565
  898MOL0     C18415   2.090  10.694   1.738 -0.6347 -0.1025  0.0955
  898MOL0     C18416   2.218  10.680   1.824  0.5315  1.2262 -0.0927
  898MOL0     C18417   2.244  10.538   1.856 -0.0328  0.4597 -0.9840
  898MOL0     C18418   2.307  10.449   1.751 -1.4157 -0.3636  0.3713
  898MOL0     C18419   2.293  10.298   1.768 -0.4708 -0.4664 -0.1943
  898MOL0     C18420   2.402  10.243   1.859 -0.5336 -0.4747 -0.2509
  898MOL0     N18421   2.399  10.094   1.878  0.1781 -0.5862  1.2611
  898MOL0     C18422   2.319  10.018   1.956 -0.3958 -0.4441  0.1701
  898MOL0     C18423   2.355   9.895   1.925 -0.4112  0.0716  0.5496
  898MOL0     C18424   2.294   9.773   1.989  0.1166  0.3281 -0.9059
  898MOL0     C18425   2.146   9.742   1.955 -0.1215 -0.9504  1.4042
  898MOL0     C18426   2.135   9.682   1.815  0.0086  0.2321 -0.9005
  898MOL0     C18427   1.988   9.664   1.785  0.4488  0.4503 -0.4152
  898MOL0     O18428   1.934   9.548   1.852  0.3022  0.7186 -0.4913
  898MOL0     C18429   1.800   9.527   1.843  1.1257  0.9463  0.1707
  898MOL0     C18430   1.704   9.630   1.823  0.1545  0.4018 -0.1920
  898MOL0     C18431   1.564   9.601   1.846  0.1994  0.3127  0.0622
  898MOL0     C18432   1.519   9.474   1.854 -0.1304  0.3269 -0.3331
  898MOL0     C18433   1.371   9.444   1.871  0.9141  0.1628 -0.7806
  898MOL0     O18434   1.341   9.329   1.945 -0.0215 -0.3914 -0.0478
  898MOL0     C18435   1.213   9.297   1.967  0.5651 -0.5103 -0.1658
  898MOL0     C18436   1.142   9.360   2.068 -0.4955 -0.8510 -0.1240
  898MOL0     C18437   1.015   9.317   2.100 -0.6794 -0.0322  0.3370
  898MOL0     C18438   0.953   9.218   2.030  0.4723  0.5041  0.3850
  898MOL0     O18439   0.830   9.170   2.076 -0.0916 -0.2133  0.2898
  898MOL0     C18440   0.782   9.047   2.046 -0.2366 -0.0528 -0.9716
  898MOL0     C18441   0.670   9.001   2.131  0.7985 -0.2098  0.4368
  898MOL0     C18442   0.582   9.122   2.172  0.9408  0.6389  0.1797
  898MOL0     C18443   0.475   9.083   2.267  0.5273  0.0016  0.4209
  898MOL0     C18444   0.383   9.188   2.326  0.8215  0.0032  0.4633
  898MOL0     C18445   0.283   9.130   2.433  0.1940  0.7115  0.5102
  898MOL0     C18446   0.167   9.217   2.460 -0.2463  0.3250 -0.7867
  898MOL0     C18447   0.073   9.170   2.564 -0.7960  0.2815 -0.8958
  898MOL0    Cl18448   0.167   9.137   2.720  0.5680 -0.1036  0.3990
  898MOL0     C18449   1.024   9.166   1.920 -0.4929  0.0101  0.0659
  898MOL0     C18450   1.146   9.200   1.895 -0.0192 -0.2393 -0.1659
  898MOL0     O18451   1.286   9.517   1.817  1.0823  0.0938  0.1409
  898MOL0     C18452   1.617   9.371   1.860  0.4777  0.3415  0.0287
  898MOL0     C18453   1.754   9.400   1.868 -0.5729 -0.0774  0.4401
  898MOL0     N18454   2.449   9.894   1.815  0.5765  0.1015 -0.7056
  898MOL0     N18455   2.468  10.020   1.792 -0.5742 -0.4015 -0.4427
  898MOL0     C18456   1.718  11.151   1.546 -0.1000 -0.4970  0.4788
  898MOL0     C18457   1.599  11.187   1.464 -0.1738 -0.4674 -0.2264
  898MOL0     C18458   1.210  11.225   1.292 -0.2131  0.6227 -0.3076
  898MOL0     C18459   1.224  11.242   1.150 -0.9509  0.0375  0.8264
  898MOL0     C18460   1.127  11.315   1.077 -0.5117  0.7111  0.4418
  898MOL0     C18461   1.001  11.350   1.133 -0.3177  0.3843 -0.7377
  898MOL0     O18462   0.889  11.403   1.067  0.4072 -0.3644 -0.6130
  898MOL0     C18463   0.885  11.418   0.920  0.0927 -0.5754 -0.5472
  898MOL0     C18464   0.740  11.444   0.885  0.1580 -0.0448 -0.7926
  898MOL0     C18465   0.716  11.594   0.885 -0.1174  0.8694  0.4139
  898MOL0     C18466   0.569  11.628   0.843  0.0276  1.5449 -0.5268
  898MOL0     C18467   0.554  11.575   0.710  0.5652 -0.3587  0.4095
  898MOL0     C18468   0.535  11.556   0.594 -1.0056  0.0654 -0.3433
  898MOL0     C18469   0.990  11.314   1.269 -0.6982 -0.2617  0.0986
  898MOL0     C18470   1.086  11.253   1.347  0.5169  0.6084  1.2669
  898MOL0     H18471   1.554  10.878   1.338  2.3988 -0.8253 -1.6296
  898MOL0     H18472   1.747  10.834   1.465  2.1026  1.1553 -1.4977
  898MOL0     H18473   1.944  10.802   1.557  1.3949 -0.1011 -0.0155
  898MOL0     H18474   1.845  10.834   1.701 -1.2220  0.7910 -2.0033
  898MOL0     H18475   2.044  10.899   1.816  2.3391  0.8982 -0.3905
  898MOL0     H18476   2.144  10.889   1.659  0.6288  0.7470  1.3722
  898MOL0     H18477   2.117  10.656   1.639 -1.2021  2.0612 -0.9677
  898MOL0     H18478   2.004  10.641   1.779 -1.4360  0.1762 -1.1817
  898MOL0     H18479   2.303  10.735   1.782  1.3527  0.5911  0.6956
  898MOL0     H18480   2.197  10.739   1.913 -1.2931 -0.8733  0.9729
  898MOL0     H18481   2.154  10.486   1.890 -1.0869  1.2959 -2.4161
  898MOL0     H18482   2.304  10.530   1.948  0.0712 -0.5634 -1.1255
  898MOL0     H18483   2.412  10.466   1.723 -1.9611 -2.0406 -3.3459
  898MOL0     H18484   2.269  10.480   1.653 -0.9086  0.8577  0.5414
  898MOL0     H18485   2.195  10.279   1.811 -1.2842  1.6319 -0.9952
  898MOL0     H18486   2.305  10.246   1.673  0.5323 -1.2658  0.3461
  898MOL0     H18487   2.384  10.285   1.958  2.9583 -0.8448  0.6872
  898MOL0     H18488   2.502  10.265   1.820  0.3154 -1.4232  1.2855
  898MOL0     H18489   2.244  10.045   2.029  0.8925  2.9395  0.4412
  898MOL0     H18490   2.292   9.785   2.098 -1.0006 -3.0969 -0.4156
  898MOL0     H18491   2.360   9.689   1.965  1.0915  0.5912  0.7124
  898MOL0     H18492   2.092   9.836   1.971  0.4314  0.6639 -4.2226
  898MOL0     H18493   2.111   9.665   2.025 -0.8374 -0.1397  1.9692
  898MOL0     H18494   2.177   9.754   1.744  1.8772  1.6530  1.4838
  898MOL0     H18495   2.183   9.584   1.804  3.5468  1.5073  1.5065
  898MOL0     H18496   1.976   9.651   1.677 -0.8507  0.0439 -0.2387
  898MOL0     H18497   1.932   9.756   1.806  0.5982  0.7967 -1.4701
  898MOL0     H18498   1.728   9.732   1.796  0.4886 -0.3083 -2.8334
  898MOL0     H18499   1.487   9.677   1.850 -1.3144 -1.0248 -1.7515
  898MOL0     H18500   1.182   9.440   2.130 -2.2949  3.5949 -4.0375
  898MOL0     H18501   0.954   9.343   2.185 -3.5008 -3.1027 -0.5190
  898MOL0     H18502   0.857   8.967   2.039  0.0832  0.0956  0.4409
  898MOL0     H18503   0.740   9.050   1.945 -1.9925  0.7516 -0.2533
  898MOL0     H18504   0.716   8.946   2.213 -0.8645 -2.9243 -0.3253
  898MOL0     H18505   0.605   8.931   2.076 -2.1194 -0.1568  3.4696
  898MOL0     H18506   0.536   9.170   2.085 -1.1653 -1.9789 -0.2619
  898MOL0     H18507   0.637   9.197   2.230 -0.5069  0.2224  2.2049
  898MOL0     H18508   0.417   9.010   2.211 -0.5088  1.6663 -0.7628
  898MOL0     H18509   0.520   9.021   2.345  3.4228  1.2826 -0.1050
  898MOL0     H18510   0.312   9.225   2.251  0.8819  0.0797  0.4442
  898MOL0     H18511   0.438   9.270   2.374 -2.6372  1.4366  2.3721
  898MOL0     H18512   0.347   9.103   2.517  2.0805 -0.9445 -1.3499
  898MOL0     H18513   0.242   9.035   2.399 -1.9874  1.7097  0.1515
  898MOL0     H18514   0.216   9.305   2.502  0.3725  0.0882 -1.0085
  898MOL0     H18515   0.111   9.231   2.367 -0.6287  0.2703 -0.5693
  898MOL0     H18516   0.020   9.085   2.521 -0.1659  1.0469 -3.3465
  898MOL0     H18517  -0.004   9.247   2.579  1.4568  2.3711  0.8339
  898MOL0     H18518   0.974   9.085   1.868 -0.5034  0.9793 -1.4844
  898MOL0     H18519   1.205   9.149   1.820 -0.4789 -2.2120  0.7328
  898MOL0     H18520   1.588   9.266   1.860 -0.5104  0.5894  1.1758
  898MOL0     H18521   1.811   9.309   1.881 -1.8630 -1.0763 -0.5554
  898MOL0     H18522   1.773  11.225   1.603  2.6067 -3.4081  1.9371
  898MOL0     H18523   1.551  11.284   1.467 -0.7540 -0.5282 -3.8418
  898MOL0     H18524   1.318  11.208   1.107  0.4027  1.5448  2.3938
  898MOL0     H18525   1.149  11.323   0.971  1.3541 -1.6817  0.5595
  898MOL0     H18526   0.908  11.318   0.883 -3.7592 -2.1262  0.7961
  898MOL0     H18527   0.961  11.490   0.887 -1.5117  0.9315 -1.0995
  898MOL0     H18528   0.716  11.406   0.785  2.2081 -0.6650 -1.0989
  898MOL0     H18529   0.670  11.391   0.951 -1.5611  1.0892 -1.6469
  898MOL0     H18530   0.785  11.644   0.817  0.6372  1.3022  1.4690
  898MOL0     H18531   0.739  11.643   0.980 -1.9483  1.1730  0.7393
  898MOL0     H18532   0.501  11.579   0.913  1.2391  0.5465 -0.0081
  898MOL0     H18533   0.556  11.736   0.829  2.6622  2.0341  0.1769
  898MOL0     H18534   0.526  11.540   0.489  3.2481  1.6772 -1.1556
  898MOL0     H18535   0.894  11.333   1.317  0.8758 -0.4829  3.6386
  898MOL0     H18536   1.053  11.227   1.447  0.9444  1.7513  1.7235
  899MOL0     O18537   9.315  10.981   9.901  0.8508  0.1611 -0.2885
  899MOL0     C18538   9.222  10.932   9.967  0.1297 -0.5739 -0.9859
  899MOL0     O18539   9.152  10.820   9.958  0.2385 -0.2816 -0.3880
  899MOL0     C18540   9.178  10.727   9.856  0.3151 -0.8695  0.7780
  899MOL0     C18541   9.299  10.699   9.786 -0.0790 -0.3680  0.0785
  899MOL0     C18542   9.314  10.617   9.676  0.2989 -0.0526  0.5461
  899MOL0     C18543   9.201  10.553   9.623  0.3549 -0.6694 -0.4785
  899MOL0     O18544   9.207  10.468   9.512 -0.8447 -0.5033 -0.3088
  899MOL0     C18545   9.259  10.532   9.393  0.2343  1.2885 -0.6396
  899MOL0     C18546   9.159  10.514   9.286 -0.5461 -0.4679  0.5989
  899MOL0     C18547   9.017  10.556   9.327 -0.3325  0.5465 -0.1668
  899MOL0     C18548   8.904  10.542   9.230  0.1315  1.0512  0.1216
  899MOL0     C18549   8.768  10.606   9.278 -1.0784  0.0055  0.3247
  899MOL0     C18550   8.650  10.567   9.184  0.5400 -0.2147  0.4973
  899MOL0     C18551   8.529  10.637   9.242 -0.6837  0.5471  0.3691
  899MOL0     C18552   8.421  10.653   9.139 -0.7501  0.2709 -0.2067
  899MOL0     N18553   8.361  10.528   9.097  0.4534  0.1200  0.6184
  899MOL0     C18554   8.260  10.462   9.165  0.2475  0.7663 -0.2908
  899MOL0     C18555   8.245  10.342   9.115  0.9137 -0.0001  0.8990
  899MOL0     C18556   8.158  10.230   9.159  0.2839 -0.3962 -0.2255
  899MOL0     C18557   8.025  10.222   9.090  0.2043 -0.0050  0.8060
  899MOL0     C18558   7.950  10.097   9.154  0.2961 -0.2900  0.0789
  899MOL0     C18559   7.808  10.073   9.090  0.8245  0.6597  0.3608
  899MOL0     O18560   7.831  10.053   8.941  0.1530  0.6467  0.2041
  899MOL0     C18561   7.716  10.045   8.864 -0.3065  0.1062  0.6335
  899MOL0     C18562   7.734  10.005   8.737 -0.9295  0.0582 -0.7485
  899MOL0     C18563   7.628   9.968   8.660  0.4935 -0.7999  0.6761
  899MOL0     C18564   7.493   9.984   8.704  0.5495  0.2351 -0.4746
  899MOL0     C18565   7.376   9.975   8.609  0.4821  0.4412  0.6473
  899MOL0     O18566   7.250  10.003   8.665 -1.0802 -0.0496  0.2016
  899MOL0     C18567   7.136  10.020   8.590 -0.1960  0.4690  0.3885
  899MOL0     C18568   7.102   9.988   8.458  0.1391  0.1720  0.0125
  899MOL0     C18569   6.980  10.022   8.398 -0.7571 -0.7837 -0.2486
  899MOL0     C18570   6.875  10.070   8.482 -0.0479 -0.0892  0.0138
  899MOL0     O18571   6.747  10.077   8.427 -0.0349  0.2658  0.4119
  899MOL0     C18572   6.632  10.027   8.503 -0.5184 -0.3335 -0.5158
  899MOL0     C18573   6.525   9.968   8.408 -0.1875  0.3710 -0.4261
  899MOL0     C18574   6.393   9.931   8.482  0.2236  0.1377 -0.6226
  899MOL0     C18575   6.272  10.006   8.426 -0.3778 -0.5863  0.0247
  899MOL0     C18576   6.141   9.940   8.468  0.2952 -0.7271 -0.8604
  899MOL0     C18577   6.025  10.001   8.385  0.3684 -0.0626 -0.1164
  899MOL0     C18578   5.895   9.927   8.418 -0.3176  1.0375 -0.1066
  899MOL0     C18579   5.855   9.926   8.568  0.7948  0.4989 -0.2949
  899MOL0    Cl18580   5.864  10.088   8.651  0.3738 -0.1271  0.0691
  899MOL0     C18581   6.912  10.097   8.618  0.5612  0.0490  0.0329
  899MOL0     C18582   7.040  10.072   8.671  1.5042  0.2744  0.5462
  899MOL0     O18583   7.400   9.949   8.486  0.2568 -0.0428 -0.3853
  899MOL0     C18584   7.476  10.031   8.839 -0.5594  0.9974  0.2860
  899MOL0     C18585   7.585  10.064   8.918 -0.5204  0.8058  0.1730
  899MOL0     N18586   8.347  10.322   9.022 -0.3823  0.0737 -0.1488
  899MOL0     N18587   8.414  10.439   9.013  0.5338 -0.8898  0.5608
  899MOL0     C18588   9.078  10.566   9.697 -0.4449 -0.2115 -0.5070
  899MOL0     C18589   9.066  10.656   9.808 -0.1955  0.3741  0.3972
  899MOL0     C18590   9.184  11.013  10.077  0.0161 -0.6146  0.7421
  899MOL0     C18591   9.198  11.153  10.070  0.6389 -0.6137  0.2501
  899MOL0     C18592   9.180  11.231  10.180  0.4609  0.2699  0.3580
  899MOL0     C18593   9.169  11.169  10.305  0.4947  0.0118  0.0141
  899MOL0     O18594   9.161  11.232  10.427  0.7412 -0.6223  0.2447
  899MOL0     C18595   9.155  11.373  10.427  0.8133  0.3478  0.1977
  899MOL0     C18596   9.127  11.432  10.569 -0.7167  0.5172  0.0959
  899MOL0     C18597   9.111  11.589  10.567 -0.2153  0.3319 -0.8512
  899MOL0     C18598   8.967  11.644  10.559 -0.8017  0.0320 -0.1075
  899MOL0     C18599   8.920  11.611  10.428 -1.2754 -0.7235 -0.0427
  899MOL0     C18600   8.888  11.584  10.315  0.0157  0.0571  0.3750
  899MOL0     C18601   9.161  11.030  10.318 -0.3833  0.3769  0.3228
  899MOL0     C18602   9.163  10.953  10.200 -0.8464 -1.0758  0.6234
  899MOL0     H18603   9.389  10.741   9.829 -1.1764  0.7735  1.3588
  899MOL0     H18604   9.407  10.585   9.632  0.7400  1.6755  0.1737
  899MOL0     H18605   9.353  10.489   9.357  0.8912  1.3131  0.9327
  899MOL0     H18606   9.280  10.639   9.407  2.0905  0.6210  2.9573
  899MOL0     H18607   9.150  10.408   9.259  0.7723 -0.7084  1.0231
  899MOL0     H18608   9.182  10.565   9.192 -3.2390 -0.7018 -0.2732
  899MOL0     H18609   9.031  10.661   9.354  1.4630 -0.1194  1.7909
  899MOL0     H18610   8.978  10.495   9.410 -0.2357 -6.0537 -4.2245
  899MOL0     H18611   8.929  10.597   9.139 -0.4102 -0.1916 -0.8040
  899MOL0     H18612   8.884  10.438   9.204 -1.4189  0.2070  4.0479
  899MOL0     H18613   8.777  10.715   9.271 -0.5144 -0.1042 -0.9272
  899MOL0     H18614   8.743  10.577   9.380  1.6371 -1.2647  0.7114
  899MOL0     H18615   8.634  10.459   9.174  0.5032 -0.3284  1.6074
  899MOL0     H18616   8.664  10.614   9.086  1.1158 -1.1523  0.1158
  899MOL0     H18617   8.488  10.585   9.329 -2.6220  4.2845  1.9078
  899MOL0     H18618   8.560  10.733   9.284  0.4286  0.4517 -0.1829
  899MOL0     H18619   8.463  10.704   9.052  1.1002  1.7872  1.4788
  899MOL0     H18620   8.344  10.716   9.184 -2.6816 -1.6259 -0.6678
  899MOL0     H18621   8.210  10.493   9.256  0.6625  0.4277  0.0555
  899MOL0     H18622   8.138  10.244   9.265  0.5512  2.5224 -0.4734
  899MOL0     H18623   8.213  10.139   9.133  0.6124  0.1092 -1.3669
  899MOL0     H18624   8.043  10.219   8.982 -0.9904 -1.1272  0.6190
  899MOL0     H18625   7.967  10.311   9.116  0.3584  0.1543  0.6028
  899MOL0     H18626   8.017  10.011   9.141  2.7458  0.9211  3.2534
  899MOL0     H18627   7.928  10.106   9.261  2.6511 -0.2961  0.6390
  899MOL0     H18628   7.743  10.156   9.120 -2.7264 -0.5815 -3.0456
  899MOL0     H18629   7.766   9.988   9.145  0.4067  0.8593  0.3522
  899MOL0     H18630   7.829   9.991   8.685 -0.3313  4.3948 -1.1952
  899MOL0     H18631   7.633   9.934   8.557  1.1298  0.8434  0.1335
  899MOL0     H18632   7.180   9.942   8.398 -0.1615  0.7803 -0.8713
  899MOL0     H18633   6.976   9.997   8.292 -0.4326 -0.5285 -0.3213
  899MOL0     H18634   6.590  10.093   8.580  0.2444 -2.3891  1.7798
  899MOL0     H18635   6.668   9.940   8.559 -2.9471 -1.2003 -0.1848
  899MOL0     H18636   6.561   9.879   8.355 -0.5492  1.1263 -1.9769
  899MOL0     H18637   6.500  10.046   8.336 -3.0985  0.1042  0.1854
  899MOL0     H18638   6.394   9.942   8.591  1.9403 -2.6323 -0.2568
  899MOL0     H18639   6.373   9.825   8.466  0.8554 -0.3161  1.3246
  899MOL0     H18640   6.277  10.104   8.476 -3.5068 -0.0754 -0.4058
  899MOL0     H18641   6.270  10.015   8.317 -0.0943 -2.6426 -0.1795
  899MOL0     H18642   6.127   9.956   8.576  0.3139 -0.4647 -0.8963
  899MOL0     H18643   6.144   9.834   8.444 -0.2557 -2.1778  4.2656
  899MOL0     H18644   6.056   9.992   8.281  2.6978  0.5367  0.4704
  899MOL0     H18645   6.000  10.105   8.410  0.5119 -0.4115  1.6589
  899MOL0     H18646   5.803   9.971   8.378 -2.2133 -1.5661  1.0950
  899MOL0     H18647   5.903   9.829   8.371 -1.9262  1.4816 -1.3859
  899MOL0     H18648   5.930   9.863   8.618  3.9492  2.5892 -2.0113
  899MOL0     H18649   5.755   9.884   8.578  1.8913 -1.7920  2.6289
  899MOL0     H18650   6.841  10.133   8.692 -1.1290  3.0042 -2.7299
  899MOL0     H18651   7.070  10.089   8.774 -1.8156  2.5212  1.3235
  899MOL0     H18652   7.377  10.053   8.878 -1.3281 -3.5747  1.4744
  899MOL0     H18653   7.573  10.097   9.020  1.8249 -2.2432  1.5894
  899MOL0     H18654   8.992  10.511   9.662 -0.8644  0.0794  0.0556
  899MOL0     H18655   8.972  10.665   9.862  1.0715 -0.5494  2.9606
  899MOL0     H18656   9.229  11.202   9.978 -1.7731  0.2130 -0.2109
  899MOL0     H18657   9.184  11.338  10.165 -2.1511  0.2980 -0.7477
  899MOL0     H18658   9.077  11.402  10.357  1.3852  3.1268  0.5791
  899MOL0     H18659   9.253  11.412  10.399  2.3120 -2.5738  0.9908
  899MOL0     H18660   9.030  11.396  10.605 -2.5157  3.5810 -1.2930
  899MOL0     H18661   9.211  11.423  10.638 -0.8295  3.4039  0.7504
  899MOL0     H18662   9.175  11.624  10.486 -1.1071  3.2830 -0.4014
  899MOL0     H18663   9.142  11.630  10.664 -1.0488  3.0042 -1.6241
  899MOL0     H18664   8.921  11.600  10.648 -2.8797  0.3963 -0.9562
  899MOL0     H18665   8.957  11.751  10.576 -0.7531 -0.3201  2.4315
  899MOL0     H18666   8.845  11.556  10.221 -2.3710  0.8630  1.1612
  899MOL0     H18667   9.155  10.974  10.411  2.0107 -1.8348 -0.7463
  899MOL0     H18668   9.171  10.846  10.212  2.2160 -1.0702 -0.3495
  900MOL0     O18669   6.911   3.064   8.046 -0.1187  0.0831 -0.0721
  900MOL0     C18670   7.010   3.142   8.065  0.0171  0.4913  0.4279
  900MOL0     O18671   7.050   3.198   8.179  0.2249 -0.3500  0.5178
  900MOL0     C18672   6.956   3.205   8.280  1.3467 -0.0086  1.1256
  900MOL0     C18673   6.822   3.246   8.250  0.9251 -0.4581  0.0600
  900MOL0     C18674   6.727   3.277   8.349 -0.1895 -0.3080 -0.1764
  900MOL0     C18675   6.769   3.275   8.480 -0.6622  0.4280  1.1251
  900MOL0     O18676   6.695   3.308   8.582  0.2008 -0.5156 -0.2319
  900MOL0     C18677   6.559   3.360   8.571 -0.9507 -0.6395 -0.7447
  900MOL0     C18678   6.494   3.390   8.698 -0.3532 -0.3110  0.2678
  900MOL0     C18679   6.361   3.446   8.675 -0.1499 -0.9660  0.4678
  900MOL0     C18680   6.297   3.463   8.814  0.1195 -0.4621  0.7335
  900MOL0     C18681   6.156   3.522   8.802  0.2599  0.9454  0.4232
  900MOL0     C18682   6.093   3.533   8.932  0.1259  0.1466  0.3639
  900MOL0     C18683   5.950   3.594   8.904  0.4967 -0.7018 -0.4680
  900MOL0     C18684   5.874   3.658   9.019 -0.8861  0.8665 -0.5251
  900MOL0     N18685   5.787   3.571   9.096 -0.1882 -0.0801 -0.1734
  900MOL0     C18686   5.819   3.460   9.163 -0.5506  0.1210 -0.3087
  900MOL0     C18687   5.718   3.428   9.233 -0.4491 -0.4080  0.0235
  900MOL0     C18688   5.714   3.305   9.328 -0.0045 -0.6841 -0.3439
  900MOL0     C18689   5.837   3.303   9.414 -0.3234 -0.3901  0.0660
  900MOL0     C18690   5.808   3.384   9.542  0.0305  0.0413  0.4145
  900MOL0     C18691   5.915   3.365   9.644  0.3627 -0.2074 -0.5474
  900MOL0     O18692   6.019   3.423   9.577  0.2934  0.2370  0.0198
  900MOL0     C18693   6.148   3.374   9.591  0.0024  0.2226 -0.5439
  900MOL0     C18694   6.177   3.297   9.701  0.6962  0.3798  0.0919
  900MOL0     C18695   6.308   3.255   9.724 -0.4043  0.6541 -0.3970
  900MOL0     C18696   6.407   3.300   9.637 -1.2639 -0.3030  0.4395
  900MOL0     C18697   6.552   3.278   9.675  0.0721  0.5314  0.4476
  900MOL0     O18698   6.566   3.191   9.793 -1.0135 -0.5710 -0.3393
  900MOL0     C18699   6.686   3.164   9.852 -0.1539  0.8115  0.0296
  900MOL0     C18700   6.673   3.063   9.945 -0.1450 -0.9113  0.0826
  900MOL0     C18701   6.784   3.014  10.014 -0.1467  0.3544 -0.5773
  900MOL0     C18702   6.911   3.064   9.989 -0.1486 -0.1118  0.3815
  900MOL0     O18703   7.018   3.034  10.067  0.0298 -0.1121 -0.0738
  900MOL0     C18704   7.107   2.931  10.028 -0.1909 -1.4388  0.5711
  900MOL0     C18705   7.242   2.988  10.065  0.3025  0.3466  0.0654
  900MOL0     C18706   7.357   2.893  10.024  0.3897  0.6755  0.0599
  900MOL0     C18707   7.483   2.966  10.054 -0.0681  0.5682 -0.1085
  900MOL0     C18708   7.613   2.880  10.046  0.2759 -0.0013 -0.3184
  900MOL0     C18709   7.739   2.976  10.054  0.4666  0.5517  0.7755
  900MOL0     C18710   7.865   2.886  10.080  0.7920  0.1445 -1.6082
  900MOL0     C18711   7.971   2.940   9.995 -0.2792  0.4875  0.1446
  900MOL0    Cl18712   8.009   3.111  10.024  0.2808 -0.1288  0.2144
  900MOL0     C18713   6.923   3.158   9.891  0.5410 -0.6534  0.5496
  900MOL0     C18714   6.812   3.216   9.827 -1.5243  0.1067 -0.2941
  900MOL0     O18715   6.641   3.323   9.607  0.1938  0.4236 -0.1529
  900MOL0     C18716   6.383   3.392   9.528 -0.2310  0.1031 -0.3684
  900MOL0     C18717   6.249   3.428   9.507  0.5942 -0.3424  0.3570
  900MOL0     N18718   5.617   3.519   9.206  0.2608  0.7625  1.1854
  900MOL0     N18719   5.655   3.608   9.122 -0.3202  0.5202 -0.2374
  900MOL0     C18720   6.898   3.217   8.511  0.1957 -0.2147  0.1130
  900MOL0     C18721   6.988   3.177   8.408 -0.0205  0.9836  0.1253
  900MOL0     C18722   7.097   3.183   7.950  0.7137  0.5507 -0.0584
  900MOL0     C18723   7.194   3.282   7.967  0.8300 -0.2685 -0.5452
  900MOL0     C18724   7.284   3.322   7.867  0.0788  0.9182  0.4239
  900MOL0     C18725   7.270   3.276   7.742 -0.4340  0.4281  0.6545
  900MOL0     O18726   7.351   3.342   7.653  0.4663 -0.5312  0.2516
  900MOL0     C18727   7.371   3.264   7.532  0.4929 -0.0758 -0.3812
  900MOL0     C18728   7.498   3.319   7.460  0.5659 -0.8782  0.2728
  900MOL0     C18729   7.488   3.274   7.317 -0.5253 -0.1636  0.0093
  900MOL0     C18730   7.619   3.251   7.230  0.8181  0.0566  0.2156
  900MOL0     C18731   7.680   3.387   7.219 -0.0694 -0.2366  0.1447
  900MOL0     C18732   7.739   3.493   7.231 -0.3686 -0.5676 -0.1747
  900MOL0     C18733   7.162   3.188   7.708 -1.8156  0.9280 -0.5887
  900MOL0     C18734   7.084   3.132   7.815 -0.0651  0.1831  1.1103
  900MOL0     H18735   6.804   3.249   8.143  1.3227 -1.4712 -0.0410
  900MOL0     H18736   6.626   3.303   8.320 -0.7911 -1.2248  1.0280
  900MOL0     H18737   6.498   3.282   8.523 -2.5981  1.0573 -1.5456
  900MOL0     H18738   6.563   3.446   8.503  0.0134 -2.1307 -2.6728
  900MOL0     H18739   6.542   3.469   8.756  2.3974 -2.4529  1.1181
  900MOL0     H18740   6.488   3.301   8.761 -1.1381  0.0441  0.6982
  900MOL0     H18741   6.294   3.391   8.609  0.6957 -1.9151  0.3889
  900MOL0     H18742   6.381   3.541   8.624  2.8033 -1.4437  0.5401
  900MOL0     H18743   6.275   3.361   8.848  2.8842 -1.9210 -1.4091
  900MOL0     H18744   6.362   3.504   8.893  0.1304 -0.4981  0.7433
  900MOL0     H18745   6.086   3.460   8.745 -0.4677  0.7163  1.5393
  900MOL0     H18746   6.166   3.618   8.749  2.7992 -0.0552 -1.0930
  900MOL0     H18747   6.152   3.600   8.995 -1.2042  0.7432  1.0201
  900MOL0     H18748   6.083   3.437   8.983 -1.1805 -0.2588 -0.6065
  900MOL0     H18749   5.963   3.677   8.833 -1.0782  0.9754  1.1091
  900MOL0     H18750   5.885   3.520   8.857 -0.5160  0.0359 -0.2681
  900MOL0     H18751   5.824   3.750   8.989  0.4460  1.6126 -0.5452
  900MOL0     H18752   5.953   3.690   9.088 -3.4337  0.0488  3.0591
  900MOL0     H18753   5.914   3.408   9.164 -0.0424  1.0295  0.9183
  900MOL0     H18754   5.701   3.217   9.265 -1.3726 -1.5372  1.0637
  900MOL0     H18755   5.623   3.301   9.388 -0.1529 -1.1634 -0.5937
  900MOL0     H18756   5.932   3.335   9.370 -0.3240  2.7700  1.9984
  900MOL0     H18757   5.859   3.201   9.448  2.2740  0.4715  1.2420
  900MOL0     H18758   5.789   3.488   9.513  0.6898 -0.2764 -1.2637
  900MOL0     H18759   5.713   3.349   9.584 -0.5193 -0.8238 -1.4224
  900MOL0     H18760   5.921   3.258   9.667 -1.5866 -0.5612 -1.4835
  900MOL0     H18761   5.887   3.422   9.733  0.5228  1.0960 -1.3008
  900MOL0     H18762   6.104   3.263   9.774 -1.1809  2.6155 -0.6133
  900MOL0     H18763   6.331   3.213   9.822  1.0968 -0.6322 -1.2399
  900MOL0     H18764   6.577   3.019   9.966 -0.4323 -0.1253  0.4728
  900MOL0     H18765   6.785   2.945  10.097 -0.5833  1.3366  0.2667
  900MOL0     H18766   7.093   2.908   9.922  1.4412  0.7684 -0.1920
  900MOL0     H18767   7.084   2.847  10.094 -0.9450  0.2920  2.6354
  900MOL0     H18768   7.239   3.003  10.173 -0.9373 -1.4878  0.3361
  900MOL0     H18769   7.248   3.083  10.013 -0.4396 -1.1729 -3.0248
  900MOL0     H18770   7.348   2.877   9.916  0.0347 -0.9589  0.2997
  900MOL0     H18771   7.347   2.802  10.084 -2.0580 -0.1631 -1.4753
  900MOL0     H18772   7.498   3.042   9.976  1.8434  1.5054  1.1010
  900MOL0     H18773   7.474   3.015  10.151 -3.6365 -1.5976  0.8152
  900MOL0     H18774   7.619   2.838   9.946 -1.1542 -0.9038 -0.0541
  900MOL0     H18775   7.607   2.803  10.124 -2.1180 -0.2166 -0.6333
  900MOL0     H18776   7.734   3.055  10.129 -3.2168 -0.0265  1.3451
  900MOL0     H18777   7.752   3.030   9.960 -0.0508  0.1519  0.4645
  900MOL0     H18778   7.912   2.899  10.178  1.8781  0.7293 -2.1844
  900MOL0     H18779   7.854   2.779  10.064  1.5393 -0.4574  1.3296
  900MOL0     H18780   7.942   2.935   9.890  1.1741 -0.2624 -0.2395
  900MOL0     H18781   8.061   2.882  10.018  2.0129  3.9816  0.8022
  900MOL0     H18782   7.019   3.207   9.882  0.5128 -0.7625 -0.5065
  900MOL0     H18783   6.838   3.302   9.766  1.0784 -1.8674 -2.1808
  900MOL0     H18784   6.471   3.437   9.482  0.6991 -0.7720  0.5111
  900MOL0     H18785   6.217   3.498   9.430  0.8176  0.2393  0.7809
  900MOL0     H18786   6.924   3.229   8.616  0.1087  1.2403 -0.0098
  900MOL0     H18787   7.087   3.145   8.439  0.2852  1.6683 -0.1144
  900MOL0     H18788   7.181   3.324   8.066 -2.4012 -2.4574  0.1119
  900MOL0     H18789   7.361   3.398   7.881  2.0502 -0.2513 -2.9525
  900MOL0     H18790   7.280   3.267   7.472 -1.2659  0.3217  2.1599
  900MOL0     H18791   7.399   3.162   7.563 -1.3818  0.6433  4.6586
  900MOL0     H18792   7.504   3.428   7.455  3.4371 -0.9968 -3.1284
  900MOL0     H18793   7.591   3.297   7.512  1.7257  1.6954 -0.5580
  900MOL0     H18794   7.425   3.334   7.250  1.2418 -0.5419 -2.1065
  900MOL0     H18795   7.439   3.176   7.318 -0.4986 -0.3057  4.0927
  900MOL0     H18796   7.674   3.173   7.284 -3.1688 -3.1704  0.1405
  900MOL0     H18797   7.583   3.214   7.134  2.3611 -0.7755 -0.0768
  900MOL0     H18798   7.771   3.594   7.246  1.7774 -1.0420 -1.2114
  900MOL0     H18799   7.160   3.143   7.609 -0.8211 -0.7545  0.1164
  900MOL0     H18800   7.014   3.052   7.792  1.1991 -1.2538  2.0625
  901MOL0     O18801   7.019   5.080   5.808  0.0380  0.0305  0.5887
  901MOL0     C18802   7.087   5.157   5.874 -0.4592 -0.1723  1.1831
  901MOL0     O18803   7.083   5.180   6.008  0.2565 -0.3239 -0.3327
  901MOL0     C18804   6.978   5.135   6.074  0.3576 -0.0303 -0.1510
  901MOL0     C18805   6.979   5.022   6.150 -0.0570  0.8236 -0.3164
  901MOL0     C18806   6.870   4.981   6.225 -1.1058 -0.6133 -0.4591
  901MOL0     C18807   6.759   5.059   6.229  0.0452 -0.2746  0.3522
  901MOL0     O18808   6.642   5.028   6.286  0.1678 -0.4576 -1.0899
  901MOL0     C18809   6.655   4.923   6.381  0.5639  0.4236 -0.9910
  901MOL0     C18810   6.511   4.888   6.419  0.0636 -0.2738 -0.5201
  901MOL0     C18811   6.451   4.992   6.506 -0.2144  0.1067  0.0650
  901MOL0     C18812   6.298   4.977   6.514 -0.1272  0.3510 -0.3720
  901MOL0     C18813   6.246   5.075   6.617 -0.7136 -0.0337  0.5005
  901MOL0     C18814   6.092   5.090   6.630 -0.3565  0.1052 -0.2588
  901MOL0     C18815   6.023   4.957   6.671 -0.0141 -0.2953 -0.5076
  901MOL0     C18816   5.893   4.985   6.745 -0.2100 -0.6041 -0.2536
  901MOL0     N18817   5.841   4.860   6.793 -0.1230  0.8533  0.2078
  901MOL0     C18818   5.798   4.831   6.923 -0.4302  0.1113 -0.1134
  901MOL0     C18819   5.763   4.703   6.940  0.3789  1.2106  0.5513
  901MOL0     C18820   5.712   4.628   7.059  0.3306  0.7237  0.0233
  901MOL0     C18821   5.595   4.705   7.135  0.2851  0.0240  0.3844
  901MOL0     C18822   5.469   4.714   7.043 -0.3955 -0.8913 -0.4677
  901MOL0     C18823   5.362   4.803   7.111  1.5226  0.3142 -0.3704
  901MOL0     O18824   5.233   4.798   7.042 -0.0962 -0.1677  0.2939
  901MOL0     C18825   5.121   4.760   7.108  0.1868 -0.4436  0.5785
  901MOL0     C18826   5.079   4.828   7.229  0.7460  1.1330 -0.5753
  901MOL0     C18827   4.964   4.785   7.292 -0.1107 -0.9401  0.8134
  901MOL0     C18828   4.890   4.669   7.255  0.6471  0.2266  1.0023
  901MOL0     C18829   4.775   4.626   7.330  0.9692 -0.4022  0.1728
  901MOL0     O18830   4.744   4.705   7.441  0.2541  0.3251  0.7544
  901MOL0     C18831   4.642   4.668   7.531  0.4372 -0.4441  0.3145
  901MOL0     C18832   4.587   4.539   7.556 -0.2609  0.1247 -0.4896
  901MOL0     C18833   4.474   4.531   7.637  0.4635  0.5097 -0.5120
  901MOL0     C18834   4.405   4.645   7.689 -0.3960 -0.3719 -0.8243
  901MOL0     O18835   4.299   4.609   7.768  0.2667  0.5525 -0.1206
  901MOL0     C18836   4.257   4.703   7.864 -0.7482 -0.6957  0.1393
  901MOL0     C18837   4.122   4.655   7.933  0.6826 -0.3560 -0.4192
  901MOL0     C18838   4.016   4.673   7.825  0.1442  0.4243  0.0069
  901MOL0     C18839   3.882   4.631   7.879  0.3897 -0.3902  0.1170
  901MOL0     C18840   3.811   4.755   7.956 -0.2377  0.5144  0.3374
  901MOL0     C18841   3.718   4.691   8.056 -0.2777 -0.6461 -0.1735
  901MOL0     C18842   3.595   4.789   8.063  0.0235 -0.3904  0.4143
  901MOL0     C18843   3.514   4.758   8.191 -0.8630 -0.3129 -0.6267
  901MOL0    Cl18844   3.392   4.889   8.213 -0.2470  0.2551  0.5308
  901MOL0     C18845   4.468   4.772   7.676  0.2240  0.6649 -0.0069
  901MOL0     C18846   4.577   4.784   7.583  0.0898  0.1239 -0.2926
  901MOL0     O18847   4.722   4.522   7.295  0.9831  0.0016 -0.3826
  901MOL0     C18848   4.924   4.613   7.135  0.4834 -0.5587 -0.1888
  901MOL0     C18849   5.034   4.662   7.058 -0.2512  0.8729 -1.2071
  901MOL0     N18850   5.758   4.655   6.806 -0.3312  1.2108 -0.0501
  901MOL0     N18851   5.800   4.741   6.724 -0.1054  0.3585 -0.4190
  901MOL0     C18852   6.747   5.173   6.148  0.0639 -0.6797  0.0260
  901MOL0     C18853   6.861   5.209   6.075 -0.2929 -0.5569 -0.5096
  901MOL0     C18854   7.199   5.239   5.811 -0.7576  0.4842 -1.1780
  901MOL0     C18855   7.239   5.363   5.865 -0.3897 -0.3352  0.3639
  901MOL0     C18856   7.336   5.439   5.799  0.2576  0.4931  1.1335
  901MOL0     C18857   7.394   5.401   5.676 -0.2117 -0.5529 -0.0847
  901MOL0     O18858   7.483   5.495   5.618  0.1068  0.3214  0.7536
  901MOL0     C18859   7.510   5.496   5.477  0.4652  0.5389 -0.3112
  901MOL0     C18860   7.640   5.424   5.454  0.7077  0.0587  0.3238
  901MOL0     C18861   7.766   5.507   5.501  0.3212  0.0591 -0.0782
  901MOL0     C18862   7.890   5.428   5.474  0.1096 -0.1346 -0.0189
  901MOL0     C18863   7.944   5.443   5.338 -0.8047  0.2285  0.5474
  901MOL0     C18864   7.989   5.469   5.231 -0.3236  0.0112 -0.1602
  901MOL0     C18865   7.355   5.276   5.614 -0.0610  0.4791 -0.4127
  901MOL0     C18866   7.261   5.195   5.689 -0.3630 -0.1909 -1.3838
  901MOL0     H18867   7.074   4.974   6.168 -0.7657 -0.9975 -1.1297
  901MOL0     H18868   6.882   4.886   6.276  2.1739 -1.5339 -2.5799
  901MOL0     H18869   6.717   4.940   6.469 -2.1284 -0.1988  1.1491
  901MOL0     H18870   6.694   4.838   6.325 -0.7680 -0.0209 -1.2822
  901MOL0     H18871   6.504   4.795   6.476 -6.1023  1.0955  1.7359
  901MOL0     H18872   6.463   4.885   6.321  0.9105 -1.0900 -0.9291
  901MOL0     H18873   6.480   5.089   6.466  0.8384 -1.1859 -2.5232
  901MOL0     H18874   6.487   4.986   6.609 -2.5194  2.8713  1.1744
  901MOL0     H18875   6.271   5.008   6.413  2.2979  0.9346 -0.9051
  901MOL0     H18876   6.256   4.879   6.539  0.4295  0.3306  0.5284
  901MOL0     H18877   6.288   5.171   6.586  3.5502 -1.9207 -0.2159
  901MOL0     H18878   6.302   5.044   6.706  1.8507 -1.3678 -1.4549
  901MOL0     H18879   6.036   5.127   6.543 -0.9541 -0.5076 -0.1416
  901MOL0     H18880   6.080   5.164   6.710 -2.1601  0.3833 -0.7576
  901MOL0     H18881   6.024   4.893   6.583  1.2721 -1.2538  0.1761
  901MOL0     H18882   6.092   4.915   6.745  0.1421 -0.8158 -0.9415
  901MOL0     H18883   5.822   5.049   6.691 -0.4571  0.4867  1.2867
  901MOL0     H18884   5.911   5.050   6.831 -2.0359 -2.5164  1.6878
  901MOL0     H18885   5.802   4.904   7.003 -2.3184  1.4624 -1.1705
  901MOL0     H18886   5.789   4.601   7.132 -1.4464 -1.4013  1.2209
  901MOL0     H18887   5.666   4.532   7.032 -2.6934  1.8410  0.8633
  901MOL0     H18888   5.631   4.808   7.146 -2.0804  0.7512  2.1893
  901MOL0     H18889   5.583   4.655   7.232 -1.2149 -4.4838 -1.8772
  901MOL0     H18890   5.496   4.766   6.951  0.4075 -0.3626  0.0499
  901MOL0     H18891   5.424   4.617   7.024 -0.5297 -1.3728  1.9168
  901MOL0     H18892   5.384   4.910   7.121  0.2381  0.7098 -1.4665
  901MOL0     H18893   5.336   4.770   7.212 -1.2344  3.6895  0.2067
  901MOL0     H18894   5.148   4.905   7.262  1.5604  1.6203 -3.1770
  901MOL0     H18895   4.941   4.834   7.386  1.0661  0.5302  0.3766
  901MOL0     H18896   4.630   4.450   7.511 -2.0198 -0.3224 -1.3774
  901MOL0     H18897   4.432   4.431   7.647  1.3021 -0.1632 -2.8309
  901MOL0     H18898   4.240   4.801   7.819 -1.0981  0.1656  2.0570
  901MOL0     H18899   4.337   4.715   7.938 -1.5619 -0.6023  1.0069
  901MOL0     H18900   4.112   4.726   8.016 -2.0724 -0.2824 -0.7512
  901MOL0     H18901   4.128   4.555   7.977  2.3793  0.1532  0.6320
  901MOL0     H18902   4.035   4.608   7.739  1.8479  4.1529 -2.6684
  901MOL0     H18903   4.015   4.779   7.801  1.5180  0.7318  1.1399
  901MOL0     H18904   3.827   4.602   7.789 -0.2674 -0.1266  0.4284
  901MOL0     H18905   3.889   4.547   7.948 -0.7734 -1.0218 -0.5000
  901MOL0     H18906   3.765   4.817   7.879 -0.3141  0.6823  0.5180
  901MOL0     H18907   3.885   4.812   8.013  2.3869 -0.0765 -2.2016
  901MOL0     H18908   3.778   4.674   8.145 -3.7082 -3.0343  1.9531
  901MOL0     H18909   3.687   4.594   8.014  1.5567 -0.5864 -1.8072
  901MOL0     H18910   3.631   4.892   8.076  0.0105 -0.6495  3.3926
  901MOL0     H18911   3.532   4.785   7.974  1.5378 -0.4728 -0.6786
  901MOL0     H18912   3.585   4.775   8.273  0.7178  0.4787 -2.0942
  901MOL0     H18913   3.465   4.661   8.182 -0.2050 -0.6914 -0.1977
  901MOL0     H18914   4.431   4.862   7.724  0.3366  0.4228  0.5458
  901MOL0     H18915   4.617   4.882   7.557 -2.3811  1.2222 -0.2583
  901MOL0     H18916   4.875   4.524   7.095 -0.3738 -0.7417  1.2175
  901MOL0     H18917   5.049   4.620   6.959 -0.1747 -2.6945  0.1873
  901MOL0     H18918   6.660   5.238   6.152  0.2976 -0.4097  2.2063
  901MOL0     H18919   6.868   5.300   6.018  0.9101 -1.7187 -2.3130
  901MOL0     H18920   7.186   5.411   5.946  0.6643  3.5763 -1.0479
  901MOL0     H18921   7.366   5.536   5.837 -1.4965  0.6616  2.2060
  901MOL0     H18922   7.509   5.601   5.446 -0.3876  0.4030 -0.7781
  901MOL0     H18923   7.438   5.447   5.410  2.0154 -3.0030  0.4080
  901MOL0     H18924   7.633   5.337   5.519 -0.2558  2.8187  4.2947
  901MOL0     H18925   7.631   5.413   5.346 -3.4857  2.3702  0.2275
  901MOL0     H18926   7.762   5.517   5.610  2.5005 -0.9394  0.1545
  901MOL0     H18927   7.772   5.612   5.469 -1.0078  0.3581  0.6102
  901MOL0     H18928   7.971   5.456   5.543  0.0384 -1.7954  0.8037
  901MOL0     H18929   7.877   5.320   5.483 -1.9599 -0.2429 -3.0430
  901MOL0     H18930   8.012   5.504   5.132 -0.8871  0.4431 -0.1439
  901MOL0     H18931   7.402   5.228   5.529 -2.5265 -2.7238 -0.1546
  901MOL0     H18932   7.243   5.091   5.661 -4.2375 -0.7135  1.9806
  902MOL0     O18933   8.128   5.948  10.302  0.8249  0.6478 -0.5317
  902MOL0     C18934   8.031   5.925  10.379 -0.1968  1.2567 -0.4198
  902MOL0     O18935   7.953   6.020  10.422  0.0330  0.3974  0.1540
  902MOL0     C18936   8.003   6.149  10.426 -0.7790 -0.1624  0.3587
  902MOL0     C18937   8.113   6.170  10.515  0.0214  0.4490 -0.6092
  902MOL0     C18938   8.159   6.294  10.527 -0.5260 -0.5607 -0.0570
  902MOL0     C18939   8.103   6.408  10.459 -0.1996  0.1013 -0.3908
  902MOL0     O18940   8.158   6.537  10.447  0.1804  0.1771 -0.5044
  902MOL0     C18941   8.293   6.552  10.503  0.1507  0.3563 -0.2900
  902MOL0     C18942   8.352   6.696  10.483  0.6874  0.0183  0.7592
  902MOL0     C18943   8.265   6.803  10.550 -0.2374 -0.5233 -0.3139
  902MOL0     C18944   8.136   6.846  10.470 -0.4994 -0.2134 -0.0517
  902MOL0     C18945   8.031   6.949  10.520 -0.1257 -0.0337 -0.0985
  902MOL0     C18946   8.087   7.087  10.522 -0.3414 -0.1260  0.0396
  902MOL0     C18947   7.976   7.185  10.581 -0.1956  0.6898  0.2376
  902MOL0     C18948   8.024   7.325  10.591 -0.6744  0.0513  0.2989
  902MOL0     N18949   7.916   7.409  10.643 -0.3308 -0.4837 -0.1685
  902MOL0     C18950   7.829   7.482  10.568 -0.5236 -0.4907  0.1388
  902MOL0     C18951   7.776   7.574  10.650 -0.2695 -0.4302 -0.7154
  902MOL0     C18952   7.671   7.678  10.607  0.4179 -0.1120  0.1130
  902MOL0     C18953   7.536   7.622  10.650  0.1543 -0.1494  0.1266
  902MOL0     C18954   7.507   7.588  10.795  0.7281  0.0618 -0.4160
  902MOL0     C18955   7.361   7.567  10.820  1.0780 -0.2543 -0.9231
  902MOL0     O18956   7.310   7.454  10.746  0.1914  0.2212 -0.4976
  902MOL0     C18957   7.181   7.415  10.783  0.1569 -0.0181 -0.1149
  902MOL0     C18958   7.117   7.439  10.905 -1.4128 -0.1166  0.0464
  902MOL0     C18959   6.984   7.399  10.936  0.3824 -0.0905  0.6388
  902MOL0     C18960   6.904   7.325  10.838  0.1283 -0.5397  0.5823
  902MOL0     C18961   6.768   7.268  10.882 -0.3140 -0.6277  0.5272
  902MOL0     O18962   6.693   7.345  10.981 -0.6074  0.4539 -0.7849
  902MOL0     C18963   6.579   7.298  11.020 -0.0258 -0.0281 -1.7406
  902MOL0     C18964   6.555   7.164  11.055  1.2111  0.2624 -0.9242
  902MOL0     C18965   6.422   7.134  11.108 -0.5874  0.7927  0.1696
  902MOL0     C18966   6.329   7.229  11.117  0.2899  0.2638 -0.4386
  902MOL0     O18967   6.195   7.204  11.160 -0.6353  0.0618 -0.5133
  902MOL0     C18968   6.138   7.106  11.086  0.1050 -1.1372 -0.4529
  902MOL0     C18969   5.984   7.098  11.117 -0.3916 -0.7705  0.2627
  902MOL0     C18970   5.918   6.993  11.029 -0.2065 -0.8330 -1.7729
  902MOL0     C18971   5.775   6.953  11.062  1.4478 -0.0387  0.2001
  902MOL0     C18972   5.688   7.068  11.023  0.1962 -0.0914  0.2292
  902MOL0     C18973   5.540   7.023  11.001  0.0101 -0.2047 -0.0665
  902MOL0     C18974   5.463   7.124  10.921 -0.7251 -0.4589  0.6286
  902MOL0     C18975   5.317   7.095  10.940 -0.4788 -0.3070  0.3448
  902MOL0    Cl18976   5.224   7.213  10.843 -0.3322 -0.0732 -0.1627
  902MOL0     C18977   6.359   7.360  11.082  0.3002 -0.4293 -0.1605
  902MOL0     C18978   6.480   7.392  11.038 -0.9513 -0.5022  0.7802
  902MOL0     O18979   6.729   7.166  10.825  0.1887 -0.1008  0.5984
  902MOL0     C18980   6.970   7.293  10.715  0.0615  0.0300 -0.8105
  902MOL0     C18981   7.103   7.335  10.698 -0.1440 -0.2950  0.0268
  902MOL0     N18982   7.830   7.560  10.779 -0.5016  0.7350 -0.5718
  902MOL0     N18983   7.917   7.466  10.768 -0.6627 -0.2845 -0.2773
  902MOL0     C18984   7.989   6.388  10.383  0.2725  0.1916 -0.2244
  902MOL0     C18985   7.939   6.258  10.371 -0.3998 -1.2009  0.1012
  902MOL0     C18986   8.009   5.789  10.430  0.1839 -0.4515  0.3332
  902MOL0     C18987   8.109   5.695  10.422 -0.1189  0.2625  0.1556
  902MOL0     C18988   8.101   5.568  10.489 -0.2856 -1.0544  0.0788
  902MOL0     C18989   7.982   5.524  10.548 -0.4021 -0.2417 -0.3092
  902MOL0     O18990   7.984   5.401  10.613 -0.2129 -0.5004  0.3722
  902MOL0     C18991   7.857   5.343  10.653 -1.1687  0.2901 -0.6099
  902MOL0     C18992   7.870   5.270  10.788 -0.1849 -0.1236 -0.5970
  902MOL0     C18993   7.737   5.198  10.829 -0.0761  1.3500  0.9020
  902MOL0     C18994   7.754   5.110  10.958 -0.5916  0.2612  0.2217
  902MOL0     C18995   7.855   5.002  10.951 -0.3391 -0.2749 -0.0116
  902MOL0     C18996   7.961   4.939  10.962  0.9558  1.2243  0.3000
  902MOL0     C18997   7.872   5.620  10.548  0.1899  0.1368  0.8447
  902MOL0     C18998   7.887   5.749  10.488  0.0925 -0.0413  0.6307
  902MOL0     H18999   8.166   6.091  10.567  1.7795  1.5567 -0.6288
  902MOL0     H19000   8.240   6.309  10.598  0.3357 -3.5353 -0.2957
  902MOL0     H19001   8.361   6.480  10.457 -2.7778 -2.0680 -1.1437
  902MOL0     H19002   8.300   6.527  10.609  2.2350  0.5901 -0.3304
  902MOL0     H19003   8.362   6.713  10.375  2.7708 -1.0447  0.7444
  902MOL0     H19004   8.453   6.711  10.522  0.6111 -1.7729  1.7461
  902MOL0     H19005   8.328   6.892  10.555 -1.1133  0.0919  0.0121
  902MOL0     H19006   8.248   6.772  10.654  3.9172  1.1264  1.0743
  902MOL0     H19007   8.178   6.897  10.382 -3.5029  1.7713 -0.4657
  902MOL0     H19008   8.076   6.760  10.441 -0.9972  0.6240 -1.6462
  902MOL0     H19009   7.989   6.919  10.616  2.8760 -0.5794  1.1692
  902MOL0     H19010   7.949   6.940  10.449 -1.4424 -1.2551  1.4915
  902MOL0     H19011   8.121   7.108  10.420  0.5735  0.8724  0.5212
  902MOL0     H19012   8.173   7.097  10.590 -0.1754 -0.4751 -0.1125
  902MOL0     H19013   7.891   7.177  10.513 -0.5063  2.6503  0.3222
  902MOL0     H19014   7.940   7.147  10.678 -1.5023 -0.3430 -0.6175
  902MOL0     H19015   8.059   7.364  10.495 -2.0857 -0.3818 -0.4084
  902MOL0     H19016   8.109   7.336  10.659  0.1870  0.4119 -0.8106
  902MOL0     H19017   7.795   7.473  10.465  1.0473  0.0878 -0.4686
  902MOL0     H19018   7.665   7.682  10.497 -0.1714 -1.0822  0.0957
  902MOL0     H19019   7.675   7.777  10.652  0.0158 -0.4009  0.7911
  902MOL0     H19020   7.522   7.528  10.596  2.4430 -1.4261  1.5733
  902MOL0     H19021   7.465   7.698  10.618  0.6446  0.2837  0.0616
  902MOL0     H19022   7.558   7.500  10.834  0.7049  0.0620 -0.3857
  902MOL0     H19023   7.547   7.670  10.855 -1.6736  1.8456 -1.0740
  902MOL0     H19024   7.305   7.657  10.794 -0.2461 -0.4244  1.1241
  902MOL0     H19025   7.358   7.552  10.929  1.5318  0.4491 -0.8033
  902MOL0     H19026   7.170   7.494  10.982 -0.7110 -0.3506 -0.2665
  902MOL0     H19027   6.933   7.425  11.028  0.1745  1.0288  0.2253
  902MOL0     H19028   6.630   7.086  11.064 -0.5240 -1.2535  4.4432
  902MOL0     H19029   6.395   7.033  11.138 -0.4492  0.0512 -2.0017
  902MOL0     H19030   6.179   7.005  11.099  2.9329  0.0603  0.6179
  902MOL0     H19031   6.173   7.135  10.986  1.5981 -3.7395 -0.7930
  902MOL0     H19032   5.945   7.196  11.088 -2.1130 -1.5675 -0.2041
  902MOL0     H19033   5.964   7.071  11.220  1.1148  0.2768  0.8651
  902MOL0     H19034   5.982   6.905  11.045  2.9705  1.1559 -2.5351
  902MOL0     H19035   5.933   7.028  10.926  0.6358  2.1100 -0.7525
  902MOL0     H19036   5.753   6.876  10.987 -2.2557  2.0409 -1.0962
  902MOL0     H19037   5.747   6.916  11.161 -1.0307 -0.2549 -0.5181
  902MOL0     H19038   5.733   7.101  10.929  0.0285  0.5342  0.3619
  902MOL0     H19039   5.697   7.140  11.106 -1.6914 -0.8710  1.1722
  902MOL0     H19040   5.496   6.997  11.098 -1.2523 -0.3497 -0.6645
  902MOL0     H19041   5.524   6.935  10.939 -1.7953  0.8060 -1.1263
  902MOL0     H19042   5.493   7.225  10.951  2.2610 -1.1282  0.2854
  902MOL0     H19043   5.492   7.114  10.816 -3.2832 -3.2027  0.0555
  902MOL0     H19044   5.291   7.128  11.041 -0.7670  2.5814 -0.5981
  902MOL0     H19045   5.282   6.994  10.917 -1.6152  0.2424 -0.4337
  902MOL0     H19046   6.286   7.438  11.100 -1.6440 -2.4597  1.2782
  902MOL0     H19047   6.504   7.498  11.035 -2.2305 -0.1008 -3.7904
  902MOL0     H19048   6.913   7.248  10.634  0.0015 -2.4603  0.5450
  902MOL0     H19049   7.148   7.320  10.600  0.0773  0.8127 -0.0530
  902MOL0     H19050   7.937   6.470  10.334 -0.3963  0.2265  0.5295
  902MOL0     H19051   7.850   6.253  10.308 -0.2595  1.5445 -0.4414
  902MOL0     H19052   8.204   5.729  10.383 -1.2099  1.5493 -1.5017
  902MOL0     H19053   8.191   5.509  10.505  2.3107  2.8475  1.4855
  902MOL0     H19054   7.832   5.271  10.574 -1.2039 -2.2096  1.5321
  902MOL0     H19055   7.772   5.411  10.650 -1.0003  0.5344 -0.0426
  902MOL0     H19056   7.957   5.204  10.779 -0.9756 -1.2889  0.0085
  902MOL0     H19057   7.891   5.347  10.863  1.1570 -0.0281 -1.0394
  902MOL0     H19058   7.693   5.134  10.751  2.6180 -0.8192  0.9753
  902MOL0     H19059   7.654   5.265  10.853 -2.4003 -1.2879  0.7035
  902MOL0     H19060   7.783   5.180  11.036 -1.7240 -0.6636  1.5195
  902MOL0     H19061   7.657   5.066  10.986 -0.4907 -0.5229 -0.5902
  902MOL0     H19062   8.045   4.873  10.974 -0.7113 -1.9822 -3.2120
  902MOL0     H19063   7.780   5.609  10.605 -0.6276  0.7506 -0.3061
  902MOL0     H19064   7.808   5.824  10.495  1.0438  1.0877 -0.2791
  903MOL0     O19065  10.687   3.182   7.060  0.3070 -0.6034  0.5995
  903MOL0     C19066  10.598   3.199   6.973  0.4162 -0.3001  0.0009
  903MOL0     O19067  10.474   3.142   6.972  0.7206 -0.2593  0.4500
  903MOL0     C19068  10.426   3.077   7.086  0.6751  0.7981 -0.3434
  903MOL0     C19069  10.386   2.950   7.079 -0.2905  0.6366  0.2569
  903MOL0     C19070  10.342   2.883   7.193 -0.5489  0.3724  0.1279
  903MOL0     C19071  10.328   2.952   7.318  0.2144  0.7250 -0.0186
  903MOL0     O19072  10.285   2.886   7.438  0.0083 -0.1324 -0.8310
  903MOL0     C19073  10.395   2.835   7.516 -0.4801  0.8013 -0.0509
  903MOL0     C19074  10.376   2.737   7.636  0.0766  0.8463 -0.1139
  903MOL0     C19075  10.363   2.594   7.577  0.1275 -0.1051  0.6827
  903MOL0     C19076  10.250   2.509   7.644  0.0094 -0.1697  0.0126
  903MOL0     C19077  10.261   2.364   7.616 -0.4838  0.5260 -0.3945
  903MOL0     C19078  10.172   2.271   7.700  0.1076  0.7207 -0.4846
  903MOL0     C19079  10.024   2.273   7.668  0.0042  0.2997  0.5895
  903MOL0     C19080   9.953   2.137   7.663  0.8626 -0.4742 -0.0030
  903MOL0     N19081   9.814   2.160   7.634 -0.5059  0.4539 -0.0479
  903MOL0     C19082   9.706   2.184   7.715 -0.6666 -1.1050 -0.2663
  903MOL0     C19083   9.602   2.186   7.636 -0.1191 -1.5085  0.4044
  903MOL0     C19084   9.459   2.227   7.658 -0.0068  0.0183 -0.5354
  903MOL0     C19085   9.380   2.098   7.663 -0.5756 -0.2257 -0.8711
  903MOL0     C19086   9.225   2.116   7.692 -0.1275 -0.3787  0.6180
  903MOL0     C19087   9.153   2.191   7.575 -0.1891  1.1254  1.3190
  903MOL0     O19088   9.026   2.243   7.620 -0.3010  0.1159 -0.5783
  903MOL0     C19089   9.029   2.362   7.690  0.1511  0.2847 -0.4468
  903MOL0     C19090   8.905   2.404   7.735 -0.2362  0.0635 -0.5692
  903MOL0     C19091   8.892   2.515   7.822  0.2629  0.1228  0.1988
  903MOL0     C19092   9.007   2.586   7.869 -0.2205 -0.4239 -0.3914
  903MOL0     C19093   8.993   2.714   7.944 -0.3925 -0.4051 -0.3842
  903MOL0     O19094   8.880   2.788   7.940 -0.5111  0.2177 -0.2301
  903MOL0     C19095   8.860   2.893   8.016 -0.3643  0.1182 -1.3104
  903MOL0     C19096   8.732   2.940   7.995  0.1187 -1.1371  0.5883
  903MOL0     C19097   8.665   3.041   8.077 -0.7693  0.5405 -0.4052
  903MOL0     C19098   8.744   3.095   8.180  0.8235  0.3255  0.3162
  903MOL0     O19099   8.688   3.193   8.267 -0.5348 -0.1268 -0.5119
  903MOL0     C19100   8.661   3.146   8.404  0.7135  0.0544 -0.4623
  903MOL0     C19101   8.580   3.238   8.487 -0.0447  0.0992  0.5657
  903MOL0     C19102   8.431   3.234   8.447  0.5869 -0.7283 -0.5245
  903MOL0     C19103   8.367   3.358   8.502  0.9706 -0.5872 -1.0136
  903MOL0     C19104   8.214   3.348   8.458 -0.1975 -0.4934  1.0799
  903MOL0     C19105   8.158   3.498   8.458 -0.0279 -0.3658  0.1748
  903MOL0     C19106   8.147   3.553   8.597  0.2101  0.1304  0.2762
  903MOL0     C19107   8.092   3.699   8.589 -0.4781 -0.3125  0.1241
  903MOL0    Cl19108   7.938   3.711   8.662  0.2639  0.6060  0.1096
  903MOL0     C19109   8.872   3.048   8.199  0.0184  0.2778  1.0391
  903MOL0     C19110   8.934   2.948   8.119  0.7556 -0.0515 -0.4633
  903MOL0     O19111   9.104   2.760   7.996 -0.0058  0.8304  0.4275
  903MOL0     C19112   9.130   2.542   7.824 -0.6124 -0.3874 -0.2660
  903MOL0     C19113   9.143   2.437   7.733 -0.2508 -0.5488 -0.1441
  903MOL0     N19114   9.643   2.163   7.507 -0.6067 -0.2200  0.3843
  903MOL0     N19115   9.770   2.140   7.501  0.5282 -1.1000 -0.0067
  903MOL0     C19116  10.358   3.088   7.314 -0.5382 -0.1665 -0.2616
  903MOL0     C19117  10.414   3.147   7.202 -1.0900  0.5653  0.6803
  903MOL0     C19118  10.630   3.259   6.849 -0.6678  0.0043  0.7737
  903MOL0     C19119  10.736   3.347   6.838 -0.8552 -0.4451 -0.6118
  903MOL0     C19120  10.762   3.423   6.723 -0.2650  0.0198  0.6806
  903MOL0     C19121  10.685   3.404   6.609  0.1231  0.8132 -0.6562
  903MOL0     O19122  10.695   3.482   6.502  0.6601  0.1258 -0.6935
  903MOL0     C19123  10.766   3.609   6.501 -0.0381 -1.5176  0.2214
  903MOL0     C19124  10.787   3.669   6.364 -0.1719 -0.0057  0.4483
  903MOL0     C19125  10.866   3.558   6.276 -0.2493 -0.1778 -0.2092
  903MOL0     C19126  10.930   3.615   6.146  0.3359  0.7459  0.4969
  903MOL0     C19127  11.057   3.694   6.167 -0.0846  0.2309 -0.4562
  903MOL0     C19128  11.156   3.764   6.195 -0.4849  0.0119 -0.4752
  903MOL0     C19129  10.595   3.301   6.610  0.0211  0.4492 -0.2365
  903MOL0     C19130  10.560   3.240   6.730  0.7075  0.4400  0.0477
  903MOL0     H19131  10.396   2.897   6.985 -1.3133 -1.1730  1.1031
  903MOL0     H19132  10.324   2.777   7.174  0.6971 -0.5697  3.4690
  903MOL0     H19133  10.451   2.922   7.551 -0.1321  0.1312  1.1069
  903MOL0     H19134  10.453   2.785   7.438  0.9603  2.0954  0.1434
  903MOL0     H19135  10.296   2.770   7.703 -0.4985 -1.0992  0.2271
  903MOL0     H19136  10.469   2.748   7.692 -0.3409 -1.8742  1.3147
  903MOL0     H19137  10.459   2.543   7.588 -1.0488 -2.1593  2.0705
  903MOL0     H19138  10.333   2.601   7.472 -2.8594  1.0037  1.4907
  903MOL0     H19139  10.263   2.505   7.753  0.9664 -1.6933 -0.1237
  903MOL0     H19140  10.148   2.543   7.620 -0.5995 -2.0304 -0.2287
  903MOL0     H19141  10.367   2.342   7.621  0.9080  5.2944 -2.6749
  903MOL0     H19142  10.231   2.347   7.512 -0.1138  1.1532 -0.6110
  903MOL0     H19143  10.188   2.289   7.807 -2.6998  0.6690  0.0238
  903MOL0     H19144  10.217   2.173   7.681  0.2836  0.7121 -0.0326
  903MOL0     H19145   9.968   2.348   7.726  0.1402 -0.1449  1.3052
  903MOL0     H19146  10.034   2.311   7.566  2.1214  4.1993  2.0108
  903MOL0     H19147   9.966   2.078   7.754  1.1792 -3.0441 -1.5927
  903MOL0     H19148   9.999   2.089   7.576  0.7785 -0.1503 -0.2302
  903MOL0     H19149   9.718   2.203   7.822  2.1774 -0.3995 -0.6340
  903MOL0     H19150   9.425   2.298   7.583 -1.0184 -0.9467 -1.0213
  903MOL0     H19151   9.454   2.284   7.752  0.1569 -0.4873 -0.2164
  903MOL0     H19152   9.410   2.048   7.755 -0.5563 -0.9475 -1.2597
  903MOL0     H19153   9.405   2.027   7.584  2.7092  1.1446 -1.2288
  903MOL0     H19154   9.174   2.023   7.718 -0.1355 -0.1211  1.5511
  903MOL0     H19155   9.206   2.181   7.778 -1.2954 -1.2073  1.0210
  903MOL0     H19156   9.129   2.114   7.501 -0.9531  0.9721  1.7164
  903MOL0     H19157   9.220   2.253   7.515 -2.2779  0.6888 -1.7422
  903MOL0     H19158   8.816   2.347   7.709  0.4442 -1.0022 -0.6175
  903MOL0     H19159   8.793   2.560   7.828  1.0522  1.8995  0.8264
  903MOL0     H19160   8.670   2.894   7.918  1.3501 -0.7569 -0.6772
  903MOL0     H19161   8.564   3.077   8.068 -1.0515 -0.5001 -1.6577
  903MOL0     H19162   8.759   3.131   8.450  0.3440  0.2827  0.4201
  903MOL0     H19163   8.604   3.053   8.392 -1.1171  1.0051  0.3404
  903MOL0     H19164   8.623   3.338   8.476 -4.6172  2.2560 -0.1717
  903MOL0     H19165   8.591   3.189   8.584  0.3327 -0.9662 -0.0020
  903MOL0     H19166   8.374   3.148   8.484 -0.9831 -0.3114 -1.8606
  903MOL0     H19167   8.435   3.239   8.338  0.8576  1.7403 -0.4504
  903MOL0     H19168   8.367   3.346   8.611 -0.9801  0.9271 -0.8060
  903MOL0     H19169   8.413   3.451   8.469 -2.1525  1.3880 -0.2272
  903MOL0     H19170   8.152   3.285   8.522  0.2189  0.2347  2.2460
  903MOL0     H19171   8.209   3.311   8.356  3.4342 -0.4840  0.7529
  903MOL0     H19172   8.059   3.476   8.418  0.2246 -3.6777  1.0403
  903MOL0     H19173   8.207   3.585   8.413  1.3681 -0.3119  1.6840
  903MOL0     H19174   8.082   3.487   8.655 -1.8585  0.0816 -1.9306
  903MOL0     H19175   8.250   3.557   8.634  0.1011 -0.0611  0.6030
  903MOL0     H19176   8.078   3.728   8.485  0.6115 -1.7688 -0.4480
  903MOL0     H19177   8.159   3.772   8.637  0.2377 -0.9778  0.1540
  903MOL0     H19178   8.920   3.097   8.283  0.1443  4.1905 -1.0986
  903MOL0     H19179   9.031   2.908   8.150  0.7773  0.5905  0.3386
  903MOL0     H19180   9.215   2.604   7.850  0.0632 -1.5669  0.4568
  903MOL0     H19181   9.242   2.421   7.690 -0.0956 -1.3060  0.4804
  903MOL0     H19182  10.342   3.140   7.408 -0.0471 -0.0165 -0.2587
  903MOL0     H19183  10.447   3.250   7.205 -0.0227  0.2828 -0.4991
  903MOL0     H19184  10.802   3.369   6.921  3.1001 -0.7149 -3.4024
  903MOL0     H19185  10.850   3.485   6.733  2.2952 -2.7789 -2.3400
  903MOL0     H19186  10.851   3.613   6.569 -2.3718 -0.6615  3.3078
  903MOL0     H19187  10.702   3.686   6.544  0.4575 -0.2931 -1.1426
  903MOL0     H19188  10.687   3.694   6.327  0.1679  2.2138  0.8884
  903MOL0     H19189  10.838   3.766   6.358 -2.7268  1.4057  0.0731
  903MOL0     H19190  10.806   3.471   6.247  0.1391  0.5024 -3.4960
  903MOL0     H19191  10.946   3.528   6.343  0.6848  4.8880  1.3860
  903MOL0     H19192  10.938   3.530   6.078  2.6944 -0.0275  1.6316
  903MOL0     H19193  10.853   3.682   6.107 -1.8505 -1.8930  0.0072
  903MOL0     H19194  11.245   3.821   6.210 -0.6047  0.0392  0.1379
  903MOL0     H19195  10.523   3.301   6.529 -0.9943  1.1800  0.6530
  903MOL0     H19196  10.476   3.173   6.717  0.7877  0.9170 -4.1516
  904MOL0     O19197  10.555   7.017   5.806 -0.0162 -0.4636 -0.0830
  904MOL0     C19198  10.581   7.135   5.811 -0.3511 -0.4120 -0.3136
  904MOL0     O19199  10.526   7.243   5.752  0.5403  0.3319 -0.1700
  904MOL0     C19200  10.393   7.217   5.723 -0.8542 -0.3810  0.6470
  904MOL0     C19201  10.297   7.182   5.818 -0.3240 -0.9644  0.5436
  904MOL0     C19202  10.170   7.150   5.778 -0.5287  0.3257  0.2803
  904MOL0     C19203  10.122   7.169   5.646  0.6568  0.7036  0.8010
  904MOL0     O19204   9.998   7.160   5.598 -0.1096  1.3277  0.7118
  904MOL0     C19205   9.890   7.170   5.688  1.9028  0.7738  0.6203
  904MOL0     C19206   9.764   7.208   5.608 -0.5745 -0.0511  1.1371
  904MOL0     C19207   9.725   7.104   5.507 -1.5891 -0.8378 -0.0762
  904MOL0     C19208   9.611   7.142   5.423  0.3081 -0.4548 -0.3843
  904MOL0     C19209   9.588   7.051   5.303 -0.1996 -0.1867 -0.5361
  904MOL0     C19210   9.493   7.107   5.196 -0.3628 -0.5154  0.5289
  904MOL0     C19211   9.356   7.043   5.203  0.0767  0.5826 -1.0412
  904MOL0     C19212   9.272   7.082   5.070  0.2293 -0.1824 -0.0989
  904MOL0     N19213   9.134   7.044   5.103  0.8326 -0.3484 -0.1006
  904MOL0     C19214   9.017   7.117   5.082  0.4426 -0.9973 -0.6005
  904MOL0     C19215   8.913   7.060   5.143 -0.1878 -0.3539 -0.1056
  904MOL0     C19216   8.770   7.112   5.146 -0.2326 -0.2651  0.4514
  904MOL0     C19217   8.668   7.015   5.213  0.2067 -0.2281 -0.3522
  904MOL0     C19218   8.536   7.094   5.241 -0.5718 -0.2855  0.5349
  904MOL0     C19219   8.477   7.170   5.128  0.2075  0.0483  0.2405
  904MOL0     O19220   8.482   7.115   5.001  0.3529  0.3182  0.3964
  904MOL0     C19221   8.388   7.024   4.958 -0.4733 -1.0751  0.2472
  904MOL0     C19222   8.253   7.044   4.946  1.6450 -0.9145  0.5145
  904MOL0     C19223   8.165   6.940   4.898  0.0489 -0.8211  0.2147
  904MOL0     C19224   8.219   6.825   4.834 -0.6514  0.0525 -0.5292
  904MOL0     C19225   8.143   6.726   4.760 -0.1937 -0.5031  0.5691
  904MOL0     O19226   8.202   6.614   4.712  0.3256  0.9559 -0.1421
  904MOL0     C19227   8.121   6.507   4.678 -0.3777 -0.5601  0.5749
  904MOL0     C19228   8.167   6.437   4.563  0.4867  0.2743  0.6327
  904MOL0     C19229   8.101   6.319   4.527 -0.6771 -0.6221  0.2215
  904MOL0     C19230   8.001   6.263   4.598  0.3574 -0.0471  0.6409
  904MOL0     O19231   7.917   6.155   4.565 -0.0226  0.2419  0.2529
  904MOL0     C19232   7.954   6.053   4.470  0.6937 -1.1021 -0.1037
  904MOL0     C19233   8.043   5.933   4.510 -0.0397 -0.5606 -0.1225
  904MOL0     C19234   8.020   5.886   4.653 -0.6768 -0.9700  0.0195
  904MOL0     C19235   7.875   5.825   4.661  0.1971  0.0754  0.1189
  904MOL0     C19236   7.887   5.668   4.663  0.6437  0.5818  0.2542
  904MOL0     C19237   7.759   5.586   4.658  1.0606  0.5230  1.0032
  904MOL0     C19238   7.646   5.639   4.743  0.5293  0.5343 -0.0265
  904MOL0     C19239   7.675   5.629   4.890  0.0311 -0.4169  0.1848
  904MOL0    Cl19240   7.682   5.455   4.948  0.2857  0.4568 -0.1842
  904MOL0     C19241   7.951   6.346   4.705 -0.1782  0.5093  0.0391
  904MOL0     C19242   8.010   6.470   4.736 -0.2092  0.1715 -0.0597
  904MOL0     O19243   8.023   6.746   4.757  0.6006 -0.0515  0.2643
  904MOL0     C19244   8.356   6.820   4.830  0.2268  0.1764  0.2173
  904MOL0     C19245   8.439   6.916   4.894 -0.2821  0.9547  0.6681
  904MOL0     N19246   8.964   6.946   5.193 -0.2339 -0.2918 -0.6365
  904MOL0     N19247   9.091   6.928   5.164  0.1684 -0.8411  0.4986
  904MOL0     C19248  10.217   7.215   5.548  0.1401 -0.5255 -0.8010
  904MOL0     C19249  10.347   7.241   5.590  0.1245  0.1972 -0.4427
  904MOL0     C19250  10.694   7.166   5.903  0.0106  0.5773  1.8600
  904MOL0     C19251  10.704   7.295   5.953  0.6106  1.2333 -0.4324
  904MOL0     C19252  10.800   7.319   6.059 -0.0982  0.5429 -0.0795
  904MOL0     C19253  10.887   7.220   6.099 -0.1675  0.3567  0.0339
  904MOL0     O19254  11.000   7.243   6.175 -0.4852 -0.6263  0.3874
  904MOL0     C19255  11.056   7.371   6.202 -0.8127  0.0231  0.3365
  904MOL0     C19256  10.989   7.445   6.317 -0.6474 -0.2563  0.2453
  904MOL0     C19257  10.945   7.352   6.432 -0.2536  0.2238  0.0435
  904MOL0     C19258  11.055   7.259   6.480  0.3904 -0.3352  0.0935
  904MOL0     C19259  11.157   7.340   6.559 -0.6457 -1.1446 -0.3561
  904MOL0     C19260  11.248   7.388   6.618 -0.0029  0.3734  0.0210
  904MOL0     C19261  10.861   7.094   6.052  0.4999  0.0297 -0.0672
  904MOL0     C19262  10.760   7.060   5.962  0.2399  0.7802  0.0236
  904MOL0     H19263  10.314   7.154   5.922 -2.4817 -3.3031  0.3878
  904MOL0     H19264  10.109   7.120   5.862  2.9740  0.1378  2.9867
  904MOL0     H19265   9.906   7.241   5.768  0.8938  1.8432 -0.1021
  904MOL0     H19266   9.875   7.073   5.737 -1.5558  2.6344  3.6632
  904MOL0     H19267   9.784   7.309   5.572  0.6056 -1.4624 -2.7377
  904MOL0     H19268   9.686   7.216   5.684 -2.4563 -1.8355 -0.4690
  904MOL0     H19269   9.714   7.006   5.554 -1.7717 -0.7132  0.1403
  904MOL0     H19270   9.811   7.089   5.440 -1.1311  1.0076  0.0357
  904MOL0     H19271   9.523   7.137   5.487  0.3578  1.0717 -0.1657
  904MOL0     H19272   9.620   7.244   5.385 -0.9155  0.4752  1.6334
  904MOL0     H19273   9.571   6.946   5.330 -2.3960 -0.2522 -1.9819
  904MOL0     H19274   9.680   7.071   5.247 -0.6166 -0.1647 -1.2173
  904MOL0     H19275   9.527   7.078   5.096 -2.3700 -0.2714 -0.2682
  904MOL0     H19276   9.485   7.216   5.208 -0.6114 -0.3945 -0.6231
  904MOL0     H19277   9.365   6.934   5.198 -3.5953  0.1867 -2.0619
  904MOL0     H19278   9.306   7.076   5.295  2.7507  2.4079 -0.1395
  904MOL0     H19279   9.309   7.032   4.980 -2.4516 -0.9920 -0.8536
  904MOL0     H19280   9.272   7.191   5.064 -4.5633  0.5106  4.7640
  904MOL0     H19281   8.996   7.204   5.021  0.6911  0.2096  0.9668
  904MOL0     H19282   8.730   7.126   5.045 -0.0584 -0.3671  0.3670
  904MOL0     H19283   8.788   7.205   5.200  0.8695 -1.4498  2.2380
  904MOL0     H19284   8.700   6.988   5.314 -1.1684  3.2224  1.1430
  904MOL0     H19285   8.647   6.927   5.151 -4.3640  0.0162  0.4799
  904MOL0     H19286   8.454   7.031   5.276  2.1425 -2.4845  3.4843
  904MOL0     H19287   8.562   7.160   5.324  0.7895 -0.9759  0.7041
  904MOL0     H19288   8.519   7.270   5.118 -0.6285  0.3780 -0.0776
  904MOL0     H19289   8.374   7.184   5.164 -0.0467 -1.6221  0.2624
  904MOL0     H19290   8.201   7.130   4.988 -1.4853 -0.5612 -3.4685
  904MOL0     H19291   8.058   6.955   4.896  0.1352  0.2077 -3.9055
  904MOL0     H19292   8.248   6.474   4.502  2.5187  0.8864  3.4670
  904MOL0     H19293   8.131   6.281   4.430 -0.4301  1.4268 -0.5568
  904MOL0     H19294   7.997   6.096   4.380  0.6522  0.8848  0.7737
  904MOL0     H19295   7.859   6.005   4.444  0.0445 -0.0764  0.3207
  904MOL0     H19296   8.140   5.983   4.501 -0.6163  0.4761 -0.8577
  904MOL0     H19297   8.040   5.849   4.441 -0.3670  0.0780 -0.9014
  904MOL0     H19298   8.031   5.978   4.711 -0.1165 -0.3719 -1.0074
  904MOL0     H19299   8.101   5.818   4.680 -1.8991 -3.0537 -1.3247
  904MOL0     H19300   7.849   5.848   4.764  1.9581  2.2768  0.1605
  904MOL0     H19301   7.807   5.865   4.585  2.0704  4.7738  0.5842
  904MOL0     H19302   7.950   5.638   4.748 -0.7886  0.8573  1.4620
  904MOL0     H19303   7.945   5.632   4.578 -2.1132  0.2242 -1.6000
  904MOL0     H19304   7.766   5.478   4.676 -1.4905  0.3951  1.6183
  904MOL0     H19305   7.733   5.602   4.553  3.6942  1.4972  0.4377
  904MOL0     H19306   7.635   5.745   4.722 -1.1318  0.8645  2.1632
  904MOL0     H19307   7.561   5.580   4.708  0.1056  2.0401 -1.6579
  904MOL0     H19308   7.610   5.699   4.944  3.3451  3.7510 -0.6738
  904MOL0     H19309   7.772   5.672   4.915  0.4730 -1.5472  0.4869
  904MOL0     H19310   7.859   6.318   4.756 -1.0688  0.9701 -1.2568
  904MOL0     H19311   7.948   6.526   4.806 -1.7427 -2.4292  0.7820
  904MOL0     H19312   8.402   6.731   4.789 -0.7611  0.3229 -1.3175
  904MOL0     H19313   8.544   6.891   4.883 -0.1976  1.4684  0.2989
  904MOL0     H19314  10.197   7.242   5.445 -1.8093  0.5714 -0.1941
  904MOL0     H19315  10.420   7.274   5.517  0.4968  0.0279 -0.1541
  904MOL0     H19316  10.639   7.378   5.927 -0.8836  0.0458 -0.5845
  904MOL0     H19317  10.789   7.422   6.092  3.9540  1.8472 -2.1364
  904MOL0     H19318  11.045   7.423   6.106 -1.1672 -3.1410 -1.4707
  904MOL0     H19319  11.162   7.372   6.225 -0.7151  2.6850  0.1565
  904MOL0     H19320  11.048   7.527   6.358  0.1473  0.6020 -2.4006
  904MOL0     H19321  10.908   7.502   6.270  1.8612  1.4608 -2.2708
  904MOL0     H19322  10.867   7.295   6.381  1.4846  0.7016 -3.5402
  904MOL0     H19323  10.908   7.408   6.517  1.7081  0.8659  0.5314
  904MOL0     H19324  11.008   7.183   6.543 -3.4556  0.9116 -0.9824
  904MOL0     H19325  11.102   7.212   6.393 -2.3522 -0.2398 -1.5527
  904MOL0     H19326  11.332   7.439   6.661 -0.7368  0.7071  1.0926
  904MOL0     H19327  10.926   7.015   6.090 -1.1811 -1.0228  0.7452
  904MOL0     H19328  10.738   6.955   5.941 -1.4776  1.0799  0.1343
  905MOL0     O19329  10.136   9.174   6.855 -0.2975  0.0049 -0.0563
  905MOL0     C19330  10.013   9.165   6.842 -0.0036 -0.4074  0.1521
  905MOL0     O19331   9.934   9.085   6.921 -0.1610  0.4585 -1.2054
  905MOL0     C19332   9.992   8.991   7.004  0.6121  0.3287  0.2237
  905MOL0     C19333  10.045   8.877   6.941 -0.1183 -1.0206  0.2182
  905MOL0     C19334  10.110   8.780   7.016 -0.1290  0.3607  0.4991
  905MOL0     C19335  10.128   8.801   7.153  0.9349  0.2392 -0.3421
  905MOL0     O19336  10.200   8.702   7.212  0.5059  0.7898 -0.5963
  905MOL0     C19337  10.257   8.739   7.338 -0.3403 -0.4753  0.2889
  905MOL0     C19338  10.369   8.653   7.386 -0.9789 -0.1321  0.0683
  905MOL0     C19339  10.329   8.499   7.389 -0.1560 -0.4594 -0.3363
  905MOL0     C19340  10.444   8.405   7.417 -0.1560  0.2344  0.2827
  905MOL0     C19341  10.498   8.418   7.559  0.1464 -0.1875 -0.2335
  905MOL0     C19342  10.620   8.318   7.567  0.4938 -0.5284  0.6088
  905MOL0     C19343  10.754   8.378   7.525 -0.5078  0.8208  0.2721
  905MOL0     C19344  10.868   8.278   7.555  0.8106 -0.6876  0.6977
  905MOL0     N19345  10.840   8.145   7.505 -0.1227  0.4441 -0.7314
  905MOL0     C19346  10.867   8.104   7.373 -0.1991 -0.0932  0.5247
  905MOL0     C19347  10.874   7.968   7.380 -0.9437 -0.5159  0.5691
  905MOL0     C19348  10.911   7.883   7.264  0.1730  0.2752  0.7352
  905MOL0     C19349  11.026   7.794   7.314  0.1132 -0.4156 -0.4054
  905MOL0     C19350  11.076   7.717   7.201  0.0548  0.3646  0.3542
  905MOL0     C19351  11.003   7.583   7.177 -0.2418  0.0908  0.6131
  905MOL0     O19352  11.038   7.522   7.047  0.5833 -0.1725 -0.0378
  905MOL0     C19353  10.983   7.586   6.933  0.3281  0.4061  0.1244
  905MOL0     C19354  11.020   7.556   6.802 -0.8031  0.8067 -0.0943
  905MOL0     C19355  10.983   7.632   6.689 -0.8959 -0.8556 -0.9014
  905MOL0     C19356  10.900   7.748   6.703  0.6540 -0.1587 -0.5195
  905MOL0     C19357  10.865   7.840   6.593 -0.9026  1.4400  0.8250
  905MOL0     O19358  10.813   7.962   6.628 -0.9827 -0.2005 -0.0992
  905MOL0     C19359  10.817   8.068   6.545  0.6240 -0.6146  0.7403
  905MOL0     C19360  10.736   8.172   6.583  0.2457  0.1011 -0.0818
  905MOL0     C19361  10.717   8.290   6.515  0.6821  0.4141 -0.1834
  905MOL0     C19362  10.775   8.313   6.389  0.5218  0.8740  0.2472
  905MOL0     O19363  10.760   8.429   6.327  0.3929  0.4938  0.1259
  905MOL0     C19364  10.872   8.510   6.298  0.2206  0.6924  0.4742
  905MOL0     C19365  10.970   8.527   6.407 -0.2157  0.4730  0.8478
  905MOL0     C19366  11.079   8.636   6.382  0.2495  0.9790  0.1521
  905MOL0     C19367  11.189   8.627   6.484 -0.0473 -0.5633 -0.0098
  905MOL0     C19368  11.329   8.680   6.429 -0.0160 -0.1116  0.6004
  905MOL0     C19369  11.451   8.604   6.478 -0.3479  1.1091  0.0294
  905MOL0     C19370  11.574   8.691   6.478 -0.3093 -0.2845 -0.5204
  905MOL0     C19371  11.685   8.645   6.574 -0.0349 -0.4280 -0.3871
  905MOL0    Cl19372  11.837   8.734   6.530 -0.0144  0.4049  0.0736
  905MOL0     C19373  10.854   8.206   6.341  0.3085  0.2976  0.3753
  905MOL0     C19374  10.871   8.090   6.416  0.0878  0.4539 -0.0450
  905MOL0     O19375  10.907   7.803   6.482 -0.4660  0.2580  0.7947
  905MOL0     C19376  10.841   7.768   6.832 -0.4575  0.6200 -0.2074
  905MOL0     C19377  10.883   7.691   6.946  0.1142  0.9158  0.0022
  905MOL0     N19378  10.864   7.930   7.512  0.3641  0.4601  0.2989
  905MOL0     N19379  10.840   8.032   7.585  0.1999 -0.5338  0.7990
  905MOL0     C19380  10.058   8.905   7.220 -0.1930 -0.2785 -0.1342
  905MOL0     C19381   9.994   9.002   7.145 -0.1691  0.3192 -0.5836
  905MOL0     C19382   9.962   9.243   6.722 -0.2674  0.3725 -1.1656
  905MOL0     C19383   9.841   9.206   6.668 -0.0701 -0.5529 -0.3410
  905MOL0     C19384   9.799   9.268   6.554 -0.2551  0.7430 -0.4759
  905MOL0     C19385   9.859   9.382   6.493 -0.1339  0.2612  0.2220
  905MOL0     O19386   9.796   9.440   6.383  0.2527 -0.0249  0.2524
  905MOL0     C19387   9.659   9.477   6.409  1.0339 -0.7112 -0.1428
  905MOL0     C19388   9.559   9.428   6.306 -0.2690 -0.5465 -0.5785
  905MOL0     C19389   9.420   9.455   6.356 -0.4416 -0.0735  0.2939
  905MOL0     C19390   9.377   9.381   6.483 -0.2140  0.1991 -0.1609
  905MOL0     C19391   9.414   9.240   6.484  0.2804  1.2545 -0.9602
  905MOL0     C19392   9.450   9.124   6.493 -0.0286  0.4234 -1.1261
  905MOL0     C19393   9.974   9.432   6.561 -0.2271 -0.7984  0.1383
  905MOL0     C19394  10.023   9.364   6.678 -0.1963  0.3472  0.2042
  905MOL0     H19395  10.044   8.867   6.833 -0.6603  1.8659 -0.1289
  905MOL0     H19396  10.149   8.687   6.974  1.8685 -0.2691  3.3944
  905MOL0     H19397  10.170   8.738   7.404 -1.4099  0.3990 -1.0332
  905MOL0     H19398  10.295   8.842   7.335  0.4055 -0.7615 -0.1566
  905MOL0     H19399  10.403   8.686   7.484  1.8335  1.1894 -1.2411
  905MOL0     H19400  10.460   8.658   7.325 -1.8776 -0.0562 -1.3112
  905MOL0     H19401  10.293   8.460   7.294  1.8867  1.5500 -2.0601
  905MOL0     H19402  10.265   8.478   7.474 -0.6223 -2.7663 -1.1989
  905MOL0     H19403  10.406   8.303   7.402 -2.1854  0.8697  0.8559
  905MOL0     H19404  10.524   8.429   7.347 -0.7245  4.1708  0.7579
  905MOL0     H19405  10.416   8.402   7.629 -0.1788  1.5559 -0.1652
  905MOL0     H19406  10.536   8.520   7.570  1.5907 -0.7099 -0.0993
  905MOL0     H19407  10.600   8.228   7.508 -0.6768 -0.0876  0.3116
  905MOL0     H19408  10.623   8.292   7.674 -1.2994  1.1615  1.1409
  905MOL0     H19409  10.754   8.391   7.417  1.2865 -2.4382 -0.2521
  905MOL0     H19410  10.762   8.475   7.576  0.7198  1.2359 -0.6710
  905MOL0     H19411  10.892   8.263   7.661  4.0684 -2.5536 -0.1671
  905MOL0     H19412  10.952   8.330   7.507 -1.9561  3.6391 -0.0085
  905MOL0     H19413  10.871   8.179   7.294 -0.2406 -0.2499  0.3729
  905MOL0     H19414  10.944   7.944   7.180  2.5179 -1.4156  0.3424
  905MOL0     H19415  10.838   7.807   7.234 -0.3254  0.6168  1.0692
  905MOL0     H19416  10.992   7.729   7.395 -3.9075  0.3983 -1.2203
  905MOL0     H19417  11.107   7.860   7.347 -0.4183  0.4236 -0.7545
  905MOL0     H19418  11.072   7.770   7.105 -0.5834 -0.1422  0.0949
  905MOL0     H19419  11.184   7.703   7.216 -0.5980 -2.2758  3.7030
  905MOL0     H19420  10.895   7.595   7.190 -0.0077  0.3767  2.5888
  905MOL0     H19421  11.040   7.508   7.248  0.9227 -0.2155 -0.2912
  905MOL0     H19422  11.082   7.467   6.793  2.6163  2.8226  1.6488
  905MOL0     H19423  11.014   7.592   6.593  2.1982 -0.6656 -0.0908
  905MOL0     H19424  10.681   8.153   6.675  2.4258  0.0664  1.2973
  905MOL0     H19425  10.655   8.371   6.551  0.9222  0.2836  0.5309
  905MOL0     H19426  10.843   8.609   6.260  2.3434  1.3166  0.3335
  905MOL0     H19427  10.939   8.458   6.228  1.5311 -1.2979  3.0215
  905MOL0     H19428  11.007   8.424   6.415  0.0155  0.5403  0.6388
  905MOL0     H19429  10.926   8.549   6.505  1.7275 -0.2477  1.9323
  905MOL0     H19430  11.027   8.732   6.384 -0.6228  0.5435 -0.8525
  905MOL0     H19431  11.106   8.621   6.277 -0.6518  1.4178 -0.1547
  905MOL0     H19432  11.165   8.677   6.578 -0.6043  0.5344 -0.7163
  905MOL0     H19433  11.194   8.521   6.509  0.8724 -0.4210  0.4407
  905MOL0     H19434  11.340   8.787   6.446 -1.8715  0.4627 -1.3240
  905MOL0     H19435  11.334   8.665   6.321 -0.0559 -1.5500  0.7758
  905MOL0     H19436  11.471   8.516   6.416  0.7371  1.1341  0.3128
  905MOL0     H19437  11.430   8.565   6.577  0.1844  0.7764  0.0164
  905MOL0     H19438  11.616   8.698   6.377  0.7433 -3.1694 -0.3796
  905MOL0     H19439  11.545   8.793   6.503 -1.8037 -0.9640  0.6711
  905MOL0     H19440  11.703   8.537   6.572 -2.9228 -1.1881  3.0424
  905MOL0     H19441  11.655   8.661   6.678  1.3224 -1.6310  0.2140
  905MOL0     H19442  10.909   8.219   6.248  0.1401  1.2153  0.3943
  905MOL0     H19443  10.937   8.018   6.369  0.3026  0.8378 -0.3364
  905MOL0     H19444  10.772   7.852   6.841 -0.1919  1.2993 -3.2051
  905MOL0     H19445  10.844   7.731   7.039  3.5147  3.1569  0.6640
  905MOL0     H19446  10.076   8.911   7.326  0.7284 -2.5627 -0.1042
  905MOL0     H19447   9.972   9.100   7.186  3.6664  2.6307 -3.4415
  905MOL0     H19448   9.792   9.125   6.721 -2.4354  1.5529  0.9444
  905MOL0     H19449   9.712   9.234   6.498 -0.7928 -0.9929  1.3077
  905MOL0     H19450   9.660   9.586   6.400 -1.4325 -0.6831 -0.9339
  905MOL0     H19451   9.625   9.446   6.508  1.1219  0.1186  0.1502
  905MOL0     H19452   9.567   9.476   6.209  0.7592 -0.2535 -0.3535
  905MOL0     H19453   9.564   9.320   6.290  1.7441 -0.1717 -2.8370
  905MOL0     H19454   9.352   9.421   6.276  0.2790  1.0320 -0.8225
  905MOL0     H19455   9.400   9.562   6.364 -2.0079 -0.3580  0.6530
  905MOL0     H19456   9.420   9.428   6.572 -1.5399 -1.1036  1.2076
  905MOL0     H19457   9.268   9.390   6.490 -0.8193 -1.1846 -4.5809
  905MOL0     H19458   9.474   9.023   6.519  1.3148  1.4177  2.0416
  905MOL0     H19459  10.025   9.521   6.526 -2.4591  0.0912 -1.1212
  905MOL0     H19460  10.099   9.410   6.741  0.8824 -0.9537 -0.0995
  906MOL0     O19461   7.481   4.340   2.969  0.0088 -0.8921  0.4278
  906MOL0     C19462   7.570   4.410   2.910 -0.9139  1.1475 -0.4228
  906MOL0     O19463   7.550   4.537   2.859 -0.8112  0.3971  0.0082
  906MOL0     C19464   7.426   4.591   2.824  0.9930  0.3516  0.0467
  906MOL0     C19465   7.299   4.546   2.868  0.2661  0.3973  0.3834
  906MOL0     C19466   7.183   4.610   2.825 -0.1406 -0.0555  0.2001
  906MOL0     C19467   7.190   4.728   2.752  0.6833  0.3309  0.7803
  906MOL0     O19468   7.075   4.789   2.718 -0.1189  0.6120  0.5317
  906MOL0     C19469   6.950   4.716   2.703  0.4792 -0.5085  0.7006
  906MOL0     C19470   6.834   4.801   2.638 -0.3513  0.8187  0.1974
  906MOL0     C19471   6.759   4.886   2.735  0.0680  0.8915 -0.2087
  906MOL0     C19472   6.650   4.960   2.659  0.0049  0.4376 -0.0670
  906MOL0     C19473   6.546   4.998   2.760 -0.3309 -0.0223 -0.3411
  906MOL0     C19474   6.459   5.124   2.712  0.4451 -0.1611  0.3321
  906MOL0     C19475   6.331   5.153   2.787 -0.0798 -0.3402 -0.6306
  906MOL0     C19476   6.354   5.156   2.940  0.4080  0.4279  0.0561
  906MOL0     N19477   6.233   5.191   3.007  0.6633  0.4241  0.0922
  906MOL0     C19478   6.192   5.309   3.061  0.1087  0.3134 -0.2137
  906MOL0     C19479   6.081   5.275   3.132 -0.6685 -0.8947  0.0844
  906MOL0     C19480   5.988   5.354   3.224 -1.2298 -0.0658  0.9259
  906MOL0     C19481   5.915   5.470   3.156  0.1307 -0.3724 -0.5297
  906MOL0     C19482   5.788   5.507   3.226  1.4682 -0.0565  0.5954
  906MOL0     C19483   5.663   5.418   3.184 -0.6524 -0.0984 -1.0587
  906MOL0     O19484   5.552   5.504   3.192  0.3989 -0.2307  0.0973
  906MOL0     C19485   5.441   5.457   3.251 -0.4674  0.2478  0.5343
  906MOL0     C19486   5.400   5.323   3.233  0.0692 -0.6249 -0.6205
  906MOL0     C19487   5.284   5.278   3.287 -0.1420  0.2627  0.0216
  906MOL0     C19488   5.201   5.356   3.368  0.6185  0.5397 -0.3194
  906MOL0     C19489   5.074   5.308   3.412  0.0893 -0.7147  0.4087
  906MOL0     O19490   4.989   5.391   3.486  0.0907 -0.5327 -0.1055
  906MOL0     C19491   4.871   5.337   3.536 -0.7123  0.3670  0.9403
  906MOL0     C19492   4.762   5.427   3.534  0.0955 -0.0863  0.8497
  906MOL0     C19493   4.639   5.391   3.581  0.0788 -0.1297 -1.3301
  906MOL0     C19494   4.617   5.265   3.651 -0.5806 -0.1921  0.3374
  906MOL0     O19495   4.491   5.230   3.696  0.5856  0.0764  0.7295
  906MOL0     C19496   4.433   5.101   3.665  0.6615  0.0199  0.6195
  906MOL0     C19497   4.275   5.112   3.651 -0.1830 -1.1040  0.5095
  906MOL0     C19498   4.226   4.985   3.582  0.4877 -1.1509  0.6752
  906MOL0     C19499   4.079   4.970   3.625  0.9795  0.1740  0.5495
  906MOL0     C19500   4.030   4.832   3.579 -0.3426  0.3399  0.3304
  906MOL0     C19501   3.881   4.802   3.567  0.0391 -0.0344  0.8288
  906MOL0     C19502   3.801   4.796   3.699  0.0263 -0.3735  0.3492
  906MOL0     C19503   3.722   4.660   3.708  0.2205 -0.9910  0.5740
  906MOL0    Cl19504   3.622   4.663   3.850 -0.4743 -0.2485  0.1616
  906MOL0     C19505   4.730   5.183   3.651  0.1066  0.3659 -0.0189
  906MOL0     C19506   4.861   5.225   3.613  0.2739  0.3371 -0.5305
  906MOL0     O19507   5.058   5.189   3.399 -0.4729 -0.0554  0.3886
  906MOL0     C19508   5.240   5.498   3.382 -0.4554 -0.0203  0.4464
  906MOL0     C19509   5.361   5.541   3.320  0.1364  0.7366  0.6818
  906MOL0     N19510   6.057   5.145   3.105  0.4821  0.5390  0.5220
  906MOL0     N19511   6.148   5.091   3.039  0.2710  0.0652  0.5687
  906MOL0     C19512   7.309   4.771   2.704 -0.0986 -0.2548 -0.9828
  906MOL0     C19513   7.427   4.713   2.748 -0.6657 -0.1554 -0.5868
  906MOL0     C19514   7.697   4.340   2.880  0.6842  0.0440  0.4176
  906MOL0     C19515   7.783   4.375   2.778  0.4706 -0.1609  1.1497
  906MOL0     C19516   7.909   4.315   2.768 -0.0321 -0.1345  0.3269
  906MOL0     C19517   7.955   4.208   2.841  0.7136 -0.3517  0.3742
  906MOL0     O19518   8.074   4.154   2.823  0.4714  0.5369 -1.0065
  906MOL0     C19519   8.191   4.228   2.797 -0.1541  0.2723  0.1794
  906MOL0     C19520   8.226   4.315   2.922  0.2816  0.7868  0.2717
  906MOL0     C19521   8.378   4.324   2.952  0.4154  0.3456  0.9942
  906MOL0     C19522   8.424   4.447   3.037  0.0719 -0.9344  0.4649
  906MOL0     C19523   8.571   4.414   3.049 -0.7144 -0.2114 -0.2827
  906MOL0     C19524   8.695   4.398   3.051 -0.3285 -0.0730  0.1327
  906MOL0     C19525   7.861   4.159   2.929  0.1619  1.1075  0.1911
  906MOL0     C19526   7.737   4.224   2.951 -0.1441  0.3630  0.5158
  906MOL0     H19527   7.273   4.460   2.929  2.2051  1.2270  2.5377
  906MOL0     H19528   7.087   4.574   2.860 -2.0405  1.8758 -2.5858
  906MOL0     H19529   6.925   4.673   2.800 -1.5709 -0.7549  0.1094
  906MOL0     H19530   6.973   4.637   2.631 -0.1757  0.8277 -1.0779
  906MOL0     H19531   6.771   4.718   2.603  1.4242  0.3549 -2.1198
  906MOL0     H19532   6.868   4.861   2.554 -2.4781  1.2509 -0.4306
  906MOL0     H19533   6.840   4.944   2.780  1.1749  0.4471 -1.5710
  906MOL0     H19534   6.719   4.828   2.820  0.9587  0.8701  0.2109
  906MOL0     H19535   6.703   5.046   2.618 -2.6583  2.0608 -0.3309
  906MOL0     H19536   6.591   4.899   2.590 -0.6184 -0.5597  1.3018
  906MOL0     H19537   6.594   5.035   2.851 -3.2660  1.2300  0.8268
  906MOL0     H19538   6.484   4.909   2.772 -1.4263  0.8631  0.8642
  906MOL0     H19539   6.442   5.121   2.604  0.8511  2.0266  0.1622
  906MOL0     H19540   6.530   5.207   2.714  4.0187 -2.9427 -0.1955
  906MOL0     H19541   6.295   5.252   2.761 -2.5647 -0.6178  1.3639
  906MOL0     H19542   6.268   5.065   2.767  3.7681 -3.7694  0.7735
  906MOL0     H19543   6.436   5.224   2.967  0.8164  1.4135 -3.1588
  906MOL0     H19544   6.382   5.059   2.983 -1.2678 -0.2796 -0.3720
  906MOL0     H19545   6.233   5.409   3.049 -0.4936  1.0376  2.8390
  906MOL0     H19546   6.045   5.386   3.312 -0.2689 -0.6376  0.5290
  906MOL0     H19547   5.910   5.292   3.271 -1.1768 -0.3533  0.6379
  906MOL0     H19548   5.897   5.455   3.049  0.8109 -0.6296 -0.6155
  906MOL0     H19549   5.976   5.561   3.168 -2.0185  0.9404  1.1728
  906MOL0     H19550   5.803   5.507   3.334  3.5605  1.5713  0.3779
  906MOL0     H19551   5.756   5.611   3.216  0.8388 -0.1358  1.6282
  906MOL0     H19552   5.643   5.335   3.252  0.8072  0.3636  0.0041
  906MOL0     H19553   5.677   5.378   3.083 -1.8816 -0.5898 -1.0489
  906MOL0     H19554   5.447   5.248   3.170 -1.3254 -1.3825 -0.8071
  906MOL0     H19555   5.263   5.175   3.261 -1.5819  0.2132  1.2618
  906MOL0     H19556   4.766   5.526   3.491 -2.0351  0.4479  1.7767
  906MOL0     H19557   4.560   5.465   3.568  1.9058  2.0486 -0.6276
  906MOL0     H19558   4.466   5.016   3.725 -0.4066 -3.0138 -2.7234
  906MOL0     H19559   4.462   5.066   3.566 -1.4058 -1.4481  0.4565
  906MOL0     H19560   4.258   5.199   3.587  2.3285 -2.1129 -1.7473
  906MOL0     H19561   4.234   5.124   3.751  0.3463  2.2670  0.4275
  906MOL0     H19562   4.295   4.901   3.596 -0.7753 -1.9994  2.2542
  906MOL0     H19563   4.225   5.000   3.474 -0.5363 -0.1491  0.7995
  906MOL0     H19564   4.059   4.982   3.732  2.0352  0.3949  0.7252
  906MOL0     H19565   4.003   5.040   3.588 -0.5274  0.8753  4.4665
  906MOL0     H19566   4.077   4.758   3.644  0.6243  1.1132  0.5434
  906MOL0     H19567   4.079   4.808   3.485  0.6509  1.7239  0.4650
  906MOL0     H19568   3.864   4.705   3.520 -1.2842  0.8161 -0.5507
  906MOL0     H19569   3.846   4.880   3.498  0.9845  0.4129  0.8462
  906MOL0     H19570   3.880   4.806   3.774  0.3241 -0.9168  0.1115
  906MOL0     H19571   3.728   4.877   3.709 -2.4304 -2.2164 -1.5196
  906MOL0     H19572   3.785   4.571   3.706  0.2815 -0.9636  1.1601
  906MOL0     H19573   3.653   4.643   3.624  1.6314 -2.8763 -0.2719
  906MOL0     H19574   4.731   5.084   3.696  3.0803  0.2918  0.0065
  906MOL0     H19575   4.946   5.158   3.622  1.4443  1.6732 -1.0919
  906MOL0     H19576   5.201   5.576   3.447  0.6649  2.6957 -1.9329
  906MOL0     H19577   5.389   5.645   3.310 -0.6653  0.7242 -3.0878
  906MOL0     H19578   7.307   4.860   2.642 -1.5184  0.9734  0.7309
  906MOL0     H19579   7.523   4.762   2.730 -0.0475  1.2447  4.8053
  906MOL0     H19580   7.749   4.455   2.713 -2.1370 -0.2836  2.2425
  906MOL0     H19581   7.980   4.364   2.701 -2.1988  2.6224 -0.1895
  906MOL0     H19582   8.182   4.283   2.703  0.3922 -0.7300 -0.4782
  906MOL0     H19583   8.275   4.160   2.782 -1.4322 -1.9087  2.3133
  906MOL0     H19584   8.188   4.417   2.917  1.8315  1.3960  0.3466
  906MOL0     H19585   8.166   4.267   3.000 -0.7354 -2.1116 -2.0675
  906MOL0     H19586   8.419   4.331   2.851 -0.8408 -1.2757  0.3308
  906MOL0     H19587   8.416   4.231   2.997  0.3615 -0.2182 -0.0930
  906MOL0     H19588   8.409   4.543   2.988  0.4036 -2.3722 -2.6650
  906MOL0     H19589   8.379   4.462   3.136 -0.7088 -1.4134  0.1913
  906MOL0     H19590   8.801   4.388   3.042 -0.0948  1.6691  0.5215
  906MOL0     H19591   7.890   4.067   2.979  1.9779 -0.4140 -3.2799
  906MOL0     H19592   7.666   4.193   3.027 -1.9070  0.9850 -0.7958
  907MOL0     O19593   9.368   3.650   4.122  0.5054  0.1029  0.4649
  907MOL0     C19594   9.449   3.738   4.101 -0.1064 -0.6969  0.3220
  907MOL0     O19595   9.415   3.854   4.038  0.4873  0.4169  0.7104
  907MOL0     C19596   9.283   3.879   4.012  0.3448 -1.1290  0.6962
  907MOL0     C19597   9.207   3.800   3.923 -0.5708 -0.8540 -0.3367
  907MOL0     C19598   9.075   3.815   3.911  1.5527 -0.5696 -0.0069
  907MOL0     C19599   9.008   3.933   3.966 -0.1183 -0.3645 -0.2178
  907MOL0     O19600   8.880   3.975   3.947  0.1056  0.1254 -0.4091
  907MOL0     C19601   8.833   3.977   3.810  1.0939  0.2120 -0.0482
  907MOL0     C19602   8.683   3.957   3.802 -0.5334  0.9005 -0.0482
  907MOL0     C19603   8.612   4.091   3.842  0.0387 -0.0100 -0.3106
  907MOL0     C19604   8.465   4.068   3.822  0.3796 -0.7324  1.3051
  907MOL0     C19605   8.393   3.951   3.884 -0.6518 -0.3078  0.5384
  907MOL0     C19606   8.243   3.984   3.882  0.2353 -0.0600  0.0778
  907MOL0     C19607   8.160   3.858   3.900  0.1353  0.1377  0.0145
  907MOL0     C19608   8.013   3.885   3.920  0.3821  0.1274 -0.1347
  907MOL0     N19609   7.965   3.959   3.801 -0.2087 -0.3453 -0.3537
  907MOL0     C19610   8.000   3.937   3.672  0.1288 -0.3119  0.0930
  907MOL0     C19611   7.939   4.037   3.597 -0.3198 -0.9786 -1.0486
  907MOL0     C19612   7.934   4.040   3.443 -0.2732 -0.2504 -0.1139
  907MOL0     C19613   7.808   4.114   3.384  0.0806  0.4244  0.9257
  907MOL0     C19614   7.670   4.040   3.421 -0.3451  0.2974 -0.6299
  907MOL0     C19615   7.553   4.117   3.358  0.2325  0.0740 -1.0579
  907MOL0     O19616   7.425   4.047   3.386 -0.3740 -0.2118 -0.1403
  907MOL0     C19617   7.311   4.103   3.336 -0.2701  0.5396 -0.1539
  907MOL0     C19618   7.309   4.186   3.230 -0.4150  0.6108  0.3394
  907MOL0     C19619   7.180   4.233   3.182 -0.9692  0.4733  0.6746
  907MOL0     C19620   7.061   4.179   3.234 -0.5395 -0.5886  1.0191
  907MOL0     C19621   6.933   4.223   3.173  0.0566  0.6608  0.5299
  907MOL0     O19622   6.821   4.141   3.198 -0.0977  0.4218  0.0940
  907MOL0     C19623   6.697   4.191   3.183 -0.5053 -0.7456  1.4744
  907MOL0     C19624   6.598   4.101   3.158 -1.0984 -0.0998 -0.0471
  907MOL0     C19625   6.466   4.140   3.155 -0.1711  0.2321  0.7191
  907MOL0     C19626   6.436   4.277   3.168 -0.2731  0.7159 -0.1671
  907MOL0     O19627   6.309   4.318   3.180  0.7437  0.8556  0.2092
  907MOL0     C19628   6.266   4.427   3.095  0.3499 -0.4843 -0.6970
  907MOL0     C19629   6.216   4.373   2.963 -0.7085  0.1306  0.0721
  907MOL0     C19630   6.090   4.279   2.976 -0.6763  0.4933 -0.0718
  907MOL0     C19631   6.045   4.219   2.834 -0.0739 -0.2726 -0.2291
  907MOL0     C19632   5.895   4.185   2.851 -0.2753  0.6204  0.4384
  907MOL0     C19633   5.809   4.309   2.837 -0.2780 -0.0501  0.0433
  907MOL0     C19634   5.655   4.284   2.830 -0.2030  0.5452 -0.3917
  907MOL0     C19635   5.578   4.405   2.794 -0.5809 -0.9961 -0.4807
  907MOL0    Cl19636   5.429   4.358   2.713  0.7569  0.4639 -0.1812
  907MOL0     C19637   6.529   4.373   3.196 -0.2523  0.6045  0.6967
  907MOL0     C19638   6.661   4.331   3.199 -0.9818  0.8816 -0.6301
  907MOL0     O19639   6.931   4.332   3.112 -0.0425  0.5202 -0.7018
  907MOL0     C19640   7.064   4.086   3.336 -0.4294  0.3531  0.1524
  907MOL0     C19641   7.192   4.041   3.383  0.2245 -1.3907 -0.2592
  907MOL0     N19642   7.886   4.121   3.688  0.1130  0.4711  0.3519
  907MOL0     N19643   7.894   4.074   3.807  0.1290  0.9689 -0.1383
  907MOL0     C19644   9.086   4.011   4.058 -0.0413 -0.6760 -0.1961
  907MOL0     C19645   9.221   3.987   4.072  0.9430 -0.1209 -0.8247
  907MOL0     C19646   9.591   3.714   4.140  1.1159 -0.4014  0.2087
  907MOL0     C19647   9.635   3.588   4.193 -0.0704  0.5899 -0.2746
  907MOL0     C19648   9.766   3.565   4.240 -0.6906  0.1213  0.0135
  907MOL0     C19649   9.865   3.673   4.236  0.0903  0.0678 -1.2349
  907MOL0     O19650   9.988   3.673   4.297 -0.0124  0.2722 -0.7764
  907MOL0     C19651  10.092   3.634   4.216 -0.6147  0.0576 -0.2688
  907MOL0     C19652  10.222   3.631   4.306  0.7154  0.1250  0.1288
  907MOL0     C19653  10.348   3.625   4.224  0.5973  0.3659  0.5343
  907MOL0     C19654  10.456   3.711   4.287  0.8223 -1.1327 -1.2035
  907MOL0     C19655  10.580   3.683   4.220  0.6212 -0.3793  0.1579
  907MOL0     C19656  10.698   3.655   4.193  0.4874 -0.2302  0.9680
  907MOL0     C19657   9.825   3.789   4.171  0.0425 -1.2796 -0.1768
  907MOL0     C19658   9.692   3.807   4.130  0.1247  0.3066  0.3588
  907MOL0     H19659   9.262   3.718   3.878  0.3713  0.6151 -1.9875
  907MOL0     H19660   9.021   3.739   3.855  2.1594 -0.8160 -0.2694
  907MOL0     H19661   8.875   3.892   3.757 -0.9052 -1.2205  0.5385
  907MOL0     H19662   8.866   4.068   3.760  0.0858  0.3774 -0.4328
  907MOL0     H19663   8.665   3.876   3.873 -0.9128  2.7319  2.0481
  907MOL0     H19664   8.657   3.945   3.697 -0.9708  2.0271 -0.0901
  907MOL0     H19665   8.651   4.176   3.787  0.6100  0.8334  1.3185
  907MOL0     H19666   8.637   4.099   3.949 -0.7598 -0.4922 -0.0817
  907MOL0     H19667   8.421   4.163   3.854  1.3177  0.8426 -1.7046
  907MOL0     H19668   8.462   4.083   3.714  3.8882  0.3218  1.2382
  907MOL0     H19669   8.437   3.929   3.982 -0.6297 -1.4061  0.2917
  907MOL0     H19670   8.412   3.866   3.818 -3.0426 -0.0215 -0.6246
  907MOL0     H19671   8.224   4.032   3.785 -1.0984 -0.4527  0.1252
  907MOL0     H19672   8.212   4.063   3.952  3.0622  1.2088  0.0576
  907MOL0     H19673   8.175   3.798   3.810  0.4932  1.7618 -1.0578
  907MOL0     H19674   8.196   3.797   3.983  0.7558  0.6856  0.1511
  907MOL0     H19675   7.991   3.939   4.012  0.8341 -1.5289  0.9943
  907MOL0     H19676   7.961   3.788   3.919  0.5119  0.0366 -2.1946
  907MOL0     H19677   8.044   3.849   3.628  1.2237  0.8979 -1.3582
  907MOL0     H19678   7.920   3.942   3.395 -2.2451  1.3458 -3.1673
  907MOL0     H19679   8.025   4.082   3.399 -0.1660  2.0397  2.0937
  907MOL0     H19680   7.824   4.135   3.277 -3.0941  4.9629  1.0783
  907MOL0     H19681   7.804   4.212   3.431 -0.8501  2.8520 -3.5980
  907MOL0     H19682   7.669   3.940   3.378 -0.2456  0.7497 -1.7142
  907MOL0     H19683   7.655   4.027   3.529  0.9913 -0.9418 -0.5660
  907MOL0     H19684   7.564   4.091   3.252  0.2102 -3.9557 -0.2161
  907MOL0     H19685   7.560   4.222   3.388 -0.0085  0.3545 -1.9353
  907MOL0     H19686   7.405   4.208   3.183 -0.3230 -0.3516  0.0575
  907MOL0     H19687   7.186   4.305   3.101  2.1414 -0.8725 -0.4567
  907MOL0     H19688   6.617   3.995   3.162 -0.3467 -0.0151  4.3649
  907MOL0     H19689   6.387   4.066   3.158 -1.6515  1.4594 -3.1316
  907MOL0     H19690   6.346   4.500   3.082 -1.2781  2.3041  3.0692
  907MOL0     H19691   6.189   4.477   3.155  1.5134 -0.5870  0.9393
  907MOL0     H19692   6.293   4.310   2.918 -0.7319 -0.0041  0.2201
  907MOL0     H19693   6.205   4.456   2.893  1.6333  0.0701 -0.4666
  907MOL0     H19694   6.010   4.329   3.031  0.1343  0.3945  1.2228
  907MOL0     H19695   6.130   4.200   3.039 -0.1444  0.5777 -0.2996
  907MOL0     H19696   6.059   4.297   2.759  0.0757 -0.7575 -0.7150
  907MOL0     H19697   6.095   4.127   2.803 -1.5370 -0.3781 -2.4685
  907MOL0     H19698   5.875   4.118   2.935 -0.0586 -0.7834 -0.5886
  907MOL0     H19699   5.865   4.139   2.756  1.4975  2.4310 -1.0772
  907MOL0     H19700   5.840   4.367   2.750 -0.9966  2.7567  1.5540
  907MOL0     H19701   5.834   4.377   2.919 -0.5012  0.4838 -0.3245
  907MOL0     H19702   5.643   4.218   2.744  1.1889 -1.3401  0.7794
  907MOL0     H19703   5.608   4.245   2.920  1.9134  1.3149  1.1432
  907MOL0     H19704   5.638   4.454   2.716 -0.7865 -2.2931 -1.4886
  907MOL0     H19705   5.557   4.476   2.874  0.1828  1.8417 -2.6356
  907MOL0     H19706   6.505   4.477   3.214 -1.8869 -0.1389  3.5063
  907MOL0     H19707   6.737   4.406   3.222  0.9572 -1.1956  0.1997
  907MOL0     H19708   6.984   4.024   3.373 -0.1314 -1.1550 -1.5660
  907MOL0     H19709   7.187   3.968   3.463  0.2943 -0.0538  1.0025
  907MOL0     H19710   9.042   4.097   4.107 -1.1620 -0.6942 -1.1397
  907MOL0     H19711   9.270   4.038   4.154 -0.6632  0.5125 -0.2070
  907MOL0     H19712   9.558   3.512   4.206 -0.3393  1.0453  0.9363
  907MOL0     H19713   9.783   3.470   4.290 -2.1186  0.7231  1.7579
  907MOL0     H19714  10.093   3.688   4.121 -3.2702  2.4050  0.8954
  907MOL0     H19715  10.075   3.529   4.192  2.3310 -0.2536 -1.3975
  907MOL0     H19716  10.209   3.717   4.373 -1.5269  2.2276 -2.7332
  907MOL0     H19717  10.211   3.548   4.376 -3.7418  1.1236  0.9199
  907MOL0     H19718  10.320   3.665   4.126 -1.1374 -3.0930 -0.5686
  907MOL0     H19719  10.375   3.519   4.214 -0.9955  0.1327 -2.2859
  907MOL0     H19720  10.421   3.814   4.279 -1.0030 -1.8587 -3.9793
  907MOL0     H19721  10.470   3.693   4.394 -1.1897  2.1824 -0.2212
  907MOL0     H19722  10.798   3.636   4.161 -0.3209 -0.3903 -1.6550
  907MOL0     H19723   9.898   3.866   4.152 -0.0962 -0.9373  0.6212
  907MOL0     H19724   9.678   3.902   4.078  0.5681 -0.1742 -0.6633
  908MOL0     O19725   6.703   5.132   0.206  0.0663 -0.1813 -0.7617
  908MOL0     C19726   6.705   5.242   0.255  1.0734 -0.3363 -0.1158
  908MOL0     O19727   6.721   5.276   0.389 -0.1548  0.0610 -0.2130
  908MOL0     C19728   6.693   5.182   0.486  0.7859 -0.8529 -0.2402
  908MOL0     C19729   6.566   5.163   0.532 -0.0871  0.0223 -0.6151
  908MOL0     C19730   6.542   5.086   0.645  0.4162 -0.1552  0.2288
  908MOL0     C19731   6.647   5.009   0.704  0.0335  0.1407  1.2233
  908MOL0     O19732   6.639   4.940   0.816  0.0273 -0.1666  0.2189
  908MOL0     C19733   6.509   4.909   0.868  0.3076 -0.1010 -0.1870
  908MOL0     C19734   6.520   4.799   0.974 -0.4023 -0.1876 -1.3556
  908MOL0     C19735   6.415   4.788   1.086 -0.2428 -0.1785  0.0069
  908MOL0     C19736   6.305   4.687   1.043 -0.0408 -0.8195 -0.1515
  908MOL0     C19737   6.230   4.647   1.158 -0.3379  0.4115  0.2264
  908MOL0     C19738   6.162   4.514   1.152  1.1337  0.4116 -0.1357
  908MOL0     C19739   6.127   4.465   1.293 -0.5056  0.1408 -0.7208
  908MOL0     C19740   6.004   4.532   1.359 -0.0063 -0.3794 -0.5375
  908MOL0     N19741   5.986   4.494   1.499 -0.4848  0.1874 -0.2877
  908MOL0     C19742   5.943   4.370   1.534 -0.0457 -0.1536 -0.0863
  908MOL0     C19743   5.912   4.372   1.667 -0.4093  0.2419 -0.2389
  908MOL0     C19744   5.872   4.249   1.752  0.5021 -1.1319 -0.0161
  908MOL0     C19745   5.750   4.197   1.683  0.8559  0.3180 -0.4860
  908MOL0     C19746   5.681   4.094   1.776 -0.1049  0.3415  0.1663
  908MOL0     C19747   5.546   4.030   1.712 -0.3680 -0.5455 -0.4952
  908MOL0     O19748   5.482   3.937   1.802  0.1776  0.1370  0.4109
  908MOL0     C19749   5.355   3.895   1.770  0.4136 -0.5331 -0.3475
  908MOL0     C19750   5.280   3.934   1.660  0.8785 -0.8571 -0.0906
  908MOL0     C19751   5.147   3.874   1.637 -0.3916 -0.2092  0.1102
  908MOL0     C19752   5.090   3.782   1.729 -0.4329 -0.1717 -0.5419
  908MOL0     C19753   4.960   3.722   1.698  0.6626 -0.7784 -0.5465
  908MOL0     O19754   4.890   3.772   1.588  0.9217 -0.1407 -0.6304
  908MOL0     C19755   4.758   3.741   1.562 -0.1816  0.0500  0.0741
  908MOL0     C19756   4.670   3.684   1.646 -0.3207 -0.4327 -1.0247
  908MOL0     C19757   4.532   3.673   1.616 -0.4488  0.6275  0.2957
  908MOL0     C19758   4.491   3.717   1.488  0.5978 -0.0328  0.5992
  908MOL0     O19759   4.358   3.694   1.464 -0.1385  0.3135 -0.1059
  908MOL0     C19760   4.299   3.721   1.338 -0.5378  0.5858  0.8529
  908MOL0     C19761   4.238   3.857   1.337 -0.2320  0.1424 -0.3929
  908MOL0     C19762   4.149   3.889   1.457 -0.5104  1.0004 -0.1566
  908MOL0     C19763   4.081   4.023   1.445 -0.6925 -0.3511  0.0587
  908MOL0     C19764   3.959   4.042   1.540  0.2532 -0.3165  0.2160
  908MOL0     C19765   3.897   4.180   1.544 -1.4328 -0.3152 -0.5653
  908MOL0     C19766   3.829   4.231   1.416 -0.5326  0.0857  0.0179
  908MOL0     C19767   3.740   4.354   1.435 -0.6936 -0.9730 -0.2954
  908MOL0    Cl19768   3.644   4.376   1.275  0.0105 -0.6639  0.2354
  908MOL0     C19769   4.583   3.767   1.399 -0.0822  0.4474  0.1868
  908MOL0     C19770   4.709   3.797   1.447 -1.3204  0.2965  0.4052
  908MOL0     O19771   4.918   3.635   1.777 -0.9235 -0.7820  0.1778
  908MOL0     C19772   5.168   3.735   1.834  0.0480  0.3628  0.5011
  908MOL0     C19773   5.303   3.787   1.850  0.6963 -0.0351  1.1436
  908MOL0     N19774   5.922   4.509   1.716  0.0203 -0.4048 -0.5778
  908MOL0     N19775   5.955   4.578   1.607 -0.8888 -0.1418  1.1940
  908MOL0     C19776   6.773   5.018   0.646 -0.4195  0.0516  0.0308
  908MOL0     C19777   6.800   5.107   0.545  0.7477  0.6961  1.0565
  908MOL0     C19778   6.712   5.356   0.168  0.1040 -0.4245 -0.5394
  908MOL0     C19779   6.751   5.481   0.209 -0.6144  0.9446 -0.1922
  908MOL0     C19780   6.774   5.586   0.115 -0.6101 -0.2270  0.0674
  908MOL0     C19781   6.751   5.570  -0.026  0.1445  1.1551 -0.8337
  908MOL0     O19782   6.767   5.659  -0.124  0.2692  0.1602 -0.4379
  908MOL0     C19783   6.885   5.739  -0.112 -0.1303 -0.1951  0.7230
  908MOL0     C19784   6.939   5.763  -0.254  0.2362 -0.8292 -0.2209
  908MOL0     C19785   7.052   5.665  -0.285 -0.0287  0.2354  0.0325
  908MOL0     C19786   7.044   5.517  -0.266  0.5468  0.5471 -0.2401
  908MOL0     C19787   7.134   5.435  -0.354  1.0182  0.9173 -0.4064
  908MOL0     C19788   7.183   5.364  -0.438 -0.0296  0.5022  0.6612
  908MOL0     C19789   6.711   5.440  -0.068  0.1714 -0.7179 -0.0095
  908MOL0     C19790   6.700   5.337   0.030 -0.7658  0.7902  0.2882
  908MOL0     H19791   6.489   5.212   0.472  1.5406  1.6866 -1.4481
  908MOL0     H19792   6.441   5.081   0.686  1.1276 -0.4412  2.0334
  908MOL0     H19793   6.437   4.874   0.794 -0.9493 -1.5708  1.6369
  908MOL0     H19794   6.458   4.994   0.915 -0.3117 -0.3069 -0.4721
  908MOL0     H19795   6.619   4.812   1.020 -1.5301  1.0694  0.9109
  908MOL0     H19796   6.527   4.702   0.924 -1.7841 -1.5880  0.9846
  908MOL0     H19797   6.380   4.888   1.114 -1.6145 -0.2679 -1.2556
  908MOL0     H19798   6.467   4.739   1.169 -0.1920 -2.5858 -1.3493
  908MOL0     H19799   6.242   4.738   0.969 -0.7356  0.8408  1.5115
  908MOL0     H19800   6.349   4.592   1.010  0.8461 -0.3568 -0.3330
  908MOL0     H19801   6.153   4.725   1.166 -0.6398  0.3199 -1.5735
  908MOL0     H19802   6.289   4.644   1.250 -1.5519 -0.0336  1.0176
  908MOL0     H19803   6.225   4.436   1.110  0.3879 -0.1728 -0.1720
  908MOL0     H19804   6.068   4.526   1.098  1.7061 -1.8445 -1.7853
  908MOL0     H19805   6.110   4.357   1.298  1.4641 -0.2075 -0.3470
  908MOL0     H19806   6.215   4.481   1.357 -0.8382  1.1017 -0.4977
  908MOL0     H19807   5.924   4.501   1.292  1.1017 -1.4503 -1.4303
  908MOL0     H19808   6.015   4.641   1.359 -1.6116 -0.1741  1.3637
  908MOL0     H19809   5.933   4.286   1.465 -0.0134 -1.3717  1.3535
  908MOL0     H19810   5.849   4.273   1.856 -2.3382 -1.9214 -0.3789
  908MOL0     H19811   5.953   4.176   1.758 -0.5888 -2.2544  1.3727
  908MOL0     H19812   5.775   4.154   1.586 -2.3573 -1.1545 -0.8105
  908MOL0     H19813   5.689   4.287   1.668 -1.8490 -0.8940  2.1590
  908MOL0     H19814   5.749   4.012   1.801 -2.3984 -1.3498  1.2197
  908MOL0     H19815   5.649   4.141   1.870 -0.7421  0.7688 -0.2553
  908MOL0     H19816   5.569   3.970   1.623 -0.8925  1.2558 -1.9115
  908MOL0     H19817   5.483   4.115   1.686 -0.9910  0.1062  2.7952
  908MOL0     H19818   5.311   4.008   1.587 -1.3950  0.7737  0.5196
  908MOL0     H19819   5.094   3.922   1.555  0.9898  1.1945 -0.0155
  908MOL0     H19820   4.689   3.645   1.745 -4.5669  1.0797  0.6034
  908MOL0     H19821   4.464   3.616   1.678 -0.5263 -0.9744 -1.1647
  908MOL0     H19822   4.220   3.647   1.321 -1.7102  1.2977  2.8468
  908MOL0     H19823   4.369   3.720   1.254  0.0676  1.2919  1.3322
  908MOL0     H19824   4.173   3.865   1.250 -1.0360 -2.1291 -0.0629
  908MOL0     H19825   4.313   3.935   1.352 -1.4626  0.6569  6.4876
  908MOL0     H19826   4.209   3.908   1.547 -1.2183  4.1213 -0.2357
  908MOL0     H19827   4.081   3.806   1.474  0.7679  0.2330  1.6010
  908MOL0     H19828   4.145   4.108   1.469 -0.6761 -0.6511  1.1317
  908MOL0     H19829   4.046   4.038   1.343 -3.7702 -1.9030  0.7619
  908MOL0     H19830   3.987   4.017   1.642  2.4879  2.5734  0.4514
  908MOL0     H19831   3.880   3.981   1.496 -1.3869  3.8711 -3.4575
  908MOL0     H19832   3.969   4.250   1.587  1.9938 -4.9774  2.1512
  908MOL0     H19833   3.816   4.171   1.617 -0.9427  0.8772  0.1474
  908MOL0     H19834   3.915   4.253   1.352  1.9039  1.7402  3.5059
  908MOL0     H19835   3.779   4.147   1.367 -0.8002  0.5994 -0.6065
  908MOL0     H19836   3.813   4.435   1.441  0.4244 -2.0099  0.6453
  908MOL0     H19837   3.673   4.365   1.520 -1.6833  5.2163 -1.3705
  908MOL0     H19838   4.569   3.787   1.293  1.3330 -2.2489 -0.6026
  908MOL0     H19839   4.789   3.833   1.383  0.7398  2.9474  4.1377
  908MOL0     H19840   5.127   3.658   1.899 -1.8497 -1.1846 -2.3469
  908MOL0     H19841   5.355   3.748   1.937 -0.2656  1.5209  2.4727
  908MOL0     H19842   6.852   4.959   0.692  1.0196 -0.1677 -2.5271
  908MOL0     H19843   6.895   5.121   0.493  0.0729 -0.7271 -0.6494
  908MOL0     H19844   6.762   5.492   0.317  0.7925 -1.4886 -0.0160
  908MOL0     H19845   6.802   5.681   0.158  1.8754 -0.2499 -1.3266
  908MOL0     H19846   6.961   5.686  -0.054 -0.1698  0.1247  1.0705
  908MOL0     H19847   6.862   5.838  -0.072  2.1649  1.4566 -1.7453
  908MOL0     H19848   6.866   5.754  -0.335 -0.3773 -0.5561  0.3013
  908MOL0     H19849   6.978   5.865  -0.265  1.4856 -0.8008  3.2862
  908MOL0     H19850   7.137   5.708  -0.231  0.3944  1.3214 -1.4266
  908MOL0     H19851   7.069   5.679  -0.392 -2.5092  1.1428 -0.3043
  908MOL0     H19852   7.062   5.500  -0.159 -3.9804  0.4590  0.6766
  908MOL0     H19853   6.939   5.487  -0.274 -0.4674  2.8886  2.7101
  908MOL0     H19854   7.228   5.304  -0.514  1.8455  1.1363  1.2245
  908MOL0     H19855   6.699   5.423  -0.175  0.1787 -0.8230  0.0066
  908MOL0     H19856   6.688   5.234  -0.001 -0.5125  0.3447  1.5929
  909MOL0     O19857   3.257   0.828   7.732  0.1306 -0.3204 -0.8552
  909MOL0     C19858   3.252   0.876   7.625  0.7214 -0.3067 -0.3053
  909MOL0     O19859   3.140   0.935   7.568  0.9129  0.0570 -0.2145
  909MOL0     C19860   3.021   0.921   7.644 -0.4510 -0.3719 -0.6048
  909MOL0     C19861   2.960   0.797   7.649 -0.5916  0.4579 -0.5183
  909MOL0     C19862   2.841   0.775   7.727  0.4621 -0.6882  0.2107
  909MOL0     C19863   2.766   0.888   7.784 -0.9358 -0.0154 -0.3445
  909MOL0     O19864   2.646   0.898   7.854 -0.3548 -0.7377 -0.2081
  909MOL0     C19865   2.556   0.788   7.854 -0.4157  0.4255  0.3271
  909MOL0     C19866   2.422   0.837   7.887  0.3151 -0.3215  0.3437
  909MOL0     C19867   2.344   0.715   7.941 -0.3307  0.6960  0.3581
  909MOL0     C19868   2.187   0.719   7.923  0.1318  0.9266  0.6697
  909MOL0     C19869   2.093   0.609   7.972  0.0603  0.0396  0.3552
  909MOL0     C19870   1.948   0.653   7.927 -0.3701  0.3321  0.3515
  909MOL0     C19871   1.860   0.527   7.939 -0.2442 -0.7308  0.3038
  909MOL0     C19872   1.706   0.554   7.915 -0.3053 -0.3365 -0.4958
  909MOL0     N19873   1.633   0.608   8.026 -0.0233 -0.4257 -0.5083
  909MOL0     C19874   1.533   0.530   8.089  0.1573 -0.1507  0.3895
  909MOL0     C19875   1.470   0.624   8.170 -0.8483 -0.1516 -0.0798
  909MOL0     C19876   1.352   0.602   8.260 -0.7139  0.6023  0.2148
  909MOL0     C19877   1.343   0.465   8.341 -0.7438 -0.3851 -0.0919
  909MOL0     C19878   1.219   0.424   8.402 -0.1614 -0.1316 -0.3881
  909MOL0     C19879   1.107   0.390   8.309  0.2515  0.6542 -0.5297
  909MOL0     O19880   0.986   0.339   8.383 -0.1740 -0.2231  0.7998
  909MOL0     C19881   0.899   0.431   8.444 -0.5369  0.9238  0.1304
  909MOL0     C19882   0.906   0.575   8.443 -0.3687 -0.0565 -0.8917
  909MOL0     C19883   0.801   0.649   8.491 -0.2832  0.3145  0.1328
  909MOL0     C19884   0.683   0.585   8.543 -1.0347  0.2528  0.1479
  909MOL0     C19885   0.583   0.656   8.613 -0.8782  0.5598  0.2349
  909MOL0     O19886   0.484   0.577   8.667  0.2770 -0.1667  0.1099
  909MOL0     C19887   0.353   0.623   8.658  0.2772  0.0694  0.9138
  909MOL0     C19888   0.318   0.700   8.538 -0.0182 -0.1867 -0.1331
  909MOL0     C19889   0.190   0.761   8.534  0.0813 -0.2912 -0.5532
  909MOL0     C19890   0.094   0.735   8.637  0.0060 -0.4628  0.5085
  909MOL0     O19891  -0.035   0.787   8.617 -0.3438  0.7977  0.6573
  909MOL0     C19892  -0.079   0.884   8.712 -0.3300 -0.5793 -0.3264
  909MOL0     C19893  -0.224   0.933   8.682  0.4390  0.3080  0.3592
  909MOL0     C19894  -0.270   0.956   8.540 -1.0614  0.0078 -0.5839
  909MOL0     C19895  -0.389   1.054   8.539 -1.0661 -0.5134  0.6234
  909MOL0     C19896  -0.428   1.078   8.393  0.0396  0.5298 -0.0009
  909MOL0     C19897  -0.553   1.165   8.386  0.7257 -0.1616  0.0442
  909MOL0     C19898  -0.607   1.180   8.243  0.1014 -1.3867 -0.6435
  909MOL0     C19899  -0.760   1.206   8.238 -0.1878  0.2401  1.0303
  909MOL0    Cl19900  -0.844   1.043   8.241  0.2544  0.5205 -0.8528
  909MOL0     C19901   0.139   0.670   8.749 -0.4375  0.3986 -0.2156
  909MOL0     C19902   0.261   0.606   8.760  0.2694 -0.4403  0.9785
  909MOL0     O19903   0.588   0.780   8.629 -0.1227  0.7896  0.8306
  909MOL0     C19904   0.683   0.443   8.544  0.3418  0.1978 -0.4232
  909MOL0     C19905   0.791   0.371   8.499 -0.0727 -0.3175  0.8463
  909MOL0     N19906   1.530   0.748   8.155 -0.4865  0.1113 -0.7500
  909MOL0     N19907   1.618   0.742   8.061  0.7169  0.8968 -0.4626
  909MOL0     C19908   2.848   1.007   7.791 -0.3402 -0.8817 -0.0082
  909MOL0     C19909   2.967   1.028   7.713 -0.0158  0.0634  0.3624
  909MOL0     C19910   3.367   0.867   7.537 -0.0197  0.4671  0.4855
  909MOL0     C19911   3.482   0.796   7.565 -0.3233 -0.0667 -1.0113
  909MOL0     C19912   3.587   0.791   7.480 -0.1755 -0.6760  0.0610
  909MOL0     C19913   3.589   0.858   7.361 -0.9859  0.5112  0.3443
  909MOL0     O19914   3.690   0.850   7.274 -0.1379 -0.0360 -0.0703
  909MOL0     C19915   3.817   0.781   7.306 -0.2695 -0.2399 -0.3406
  909MOL0     C19916   3.834   0.625   7.283 -0.4378 -1.0820  0.3200
  909MOL0     C19917   3.882   0.585   7.140  0.2396 -1.0058 -0.9197
  909MOL0     C19918   3.919   0.440   7.116 -0.9921 -0.1493 -0.2048
  909MOL0     C19919   3.949   0.412   6.975 -0.5644  0.2726  0.4839
  909MOL0     C19920   3.970   0.378   6.854  0.5513 -0.0028  0.3478
  909MOL0     C19921   3.476   0.920   7.316 -0.3977 -1.3523 -0.7998
  909MOL0     C19922   3.368   0.936   7.408 -1.2035  0.1790  0.0656
  909MOL0     H19923   3.019   0.724   7.595  1.6970  1.9358 -0.1317
  909MOL0     H19924   2.794   0.677   7.731  1.2827 -1.0590  2.2899
  909MOL0     H19925   2.589   0.724   7.937 -1.2234  1.7091  1.6840
  909MOL0     H19926   2.565   0.733   7.760 -0.9427 -1.0036  1.0828
  909MOL0     H19927   2.372   0.873   7.797 -0.5340 -1.2081  0.4506
  909MOL0     H19928   2.436   0.924   7.952  0.2761  0.5416 -0.7728
  909MOL0     H19929   2.363   0.709   8.048 -2.4435 -0.8378  0.7155
  909MOL0     H19930   2.377   0.616   7.905  2.2542  0.9758  1.7440
  909MOL0     H19931   2.147   0.816   7.954  0.2073  0.4318  2.4574
  909MOL0     H19932   2.169   0.718   7.815 -1.3424  2.5765  0.8630
  909MOL0     H19933   2.110   0.612   8.080 -2.7477  0.9419  0.8473
  909MOL0     H19934   2.130   0.517   7.924  3.9936  1.8388 -0.4204
  909MOL0     H19935   1.941   0.695   7.826 -4.6463  3.2590  1.5873
  909MOL0     H19936   1.905   0.734   7.987  0.2241 -0.1857  1.5014
  909MOL0     H19937   1.890   0.457   7.860 -0.1269  0.4486 -0.7390
  909MOL0     H19938   1.878   0.479   8.035 -2.1997 -0.7081  0.7091
  909MOL0     H19939   1.648   0.463   7.895 -1.4816  0.2417  0.1841
  909MOL0     H19940   1.706   0.622   7.829  1.1707 -1.5082 -1.4811
  909MOL0     H19941   1.493   0.432   8.063  0.5634 -0.2715  0.2062
  909MOL0     H19942   1.262   0.600   8.198 -1.4410 -1.6225  1.2498
  909MOL0     H19943   1.333   0.682   8.332 -5.3814 -1.9914  2.2839
  909MOL0     H19944   1.416   0.463   8.423  0.1715  1.0250 -0.8499
  909MOL0     H19945   1.370   0.385   8.271 -0.0673  0.3172 -0.6429
  909MOL0     H19946   1.239   0.333   8.460 -0.6046  0.0232  0.0246
  909MOL0     H19947   1.188   0.504   8.471  2.9988  1.9164 -1.1170
  909MOL0     H19948   1.139   0.316   8.235 -1.1070  1.7068 -2.2795
  909MOL0     H19949   1.080   0.479   8.251  2.6141  1.5857 -0.2788
  909MOL0     H19950   0.999   0.624   8.416  0.7408 -0.3095  2.1183
  909MOL0     H19951   0.820   0.755   8.494 -0.0243  0.3350 -1.6143
  909MOL0     H19952   0.379   0.736   8.455 -1.0581  1.1784 -0.3444
  909MOL0     H19953   0.161   0.834   8.459 -0.4122  1.4912  1.2805
  909MOL0     H19954  -0.023   0.977   8.701 -0.3095 -0.6508 -0.8688
  909MOL0     H19955  -0.078   0.851   8.816  1.3896  1.9038  0.5142
  909MOL0     H19956  -0.233   1.031   8.730 -1.8326  0.1840  0.2853
  909MOL0     H19957  -0.296   0.871   8.736 -0.0145 -0.7868 -1.4084
  909MOL0     H19958  -0.298   0.862   8.492  1.2157 -0.3817 -1.2498
  909MOL0     H19959  -0.187   0.992   8.478  0.5299 -1.7488  0.4437
  909MOL0     H19960  -0.467   1.011   8.602  1.4231 -1.1004  3.5539
  909MOL0     H19961  -0.344   1.136   8.596  0.8361 -0.1438 -1.2513
  909MOL0     H19962  -0.446   0.983   8.342 -0.2358 -0.0900  1.2204
  909MOL0     H19963  -0.350   1.134   8.342  0.6489  1.0355  1.4454
  909MOL0     H19964  -0.533   1.265   8.425 -0.0500  1.2234 -2.7795
  909MOL0     H19965  -0.633   1.118   8.444  0.3931  1.3624  0.8964
  909MOL0     H19966  -0.557   1.269   8.203  0.3493 -0.7275  1.0269
  909MOL0     H19967  -0.592   1.091   8.182 -1.0816  0.2659 -3.5326
  909MOL0     H19968  -0.769   1.263   8.145  2.1562 -1.9525 -0.6545
  909MOL0     H19969  -0.796   1.275   8.315  1.1627  4.8508 -2.0350
  909MOL0     H19970   0.061   0.646   8.820 -0.2125  1.2617  0.3293
  909MOL0     H19971   0.294   0.558   8.852  3.5410  0.4734  0.3910
  909MOL0     H19972   0.600   0.381   8.575 -0.2090  0.1365 -1.8970
  909MOL0     H19973   0.791   0.263   8.489 -1.6507 -0.2426 -0.3170
  909MOL0     H19974   2.816   1.091   7.851  1.0611  1.0034 -1.7583
  909MOL0     H19975   3.022   1.121   7.726  0.2406 -0.0076 -0.1761
  909MOL0     H19976   3.487   0.737   7.656 -0.4585 -0.9026 -1.5369
  909MOL0     H19977   3.667   0.726   7.516  2.9148  1.3620 -2.5992
  909MOL0     H19978   3.827   0.801   7.413  3.4917 -1.4668 -0.3166
  909MOL0     H19979   3.903   0.828   7.258  1.7852 -1.1329  2.2491
  909MOL0     H19980   3.906   0.600   7.362 -0.3559  0.6964  0.8603
  909MOL0     H19981   3.739   0.576   7.304 -0.2589 -0.8831  1.7140
  909MOL0     H19982   3.971   0.644   7.115 -0.4676 -0.2008 -1.6116
  909MOL0     H19983   3.793   0.609   7.082 -0.0757  1.8996  0.5907
  909MOL0     H19984   4.010   0.430   7.176 -0.6403  5.2639  0.7304
  909MOL0     H19985   3.840   0.377   7.157 -0.8955  0.3065  0.7157
  909MOL0     H19986   3.990   0.346   6.754  1.2330  0.6559  0.2602
  909MOL0     H19987   3.484   0.970   7.220  0.7677 -0.6945 -0.3794
  909MOL0     H19988   3.285   1.002   7.384 -0.1940  1.2196 -0.6705
  910MOL0     O19989   1.668   3.026   5.417 -0.6352  0.7113  0.6620
  910MOL0     C19990   1.775   2.984   5.450  0.4648  0.5858 -0.2652
  910MOL0     O19991   1.807   2.958   5.582 -0.7764 -0.2739  1.2972
  910MOL0     C19992   1.729   3.005   5.679  0.0318 -0.4809  0.5747
  910MOL0     C19993   1.706   3.134   5.700  0.4610 -0.9764 -1.1858
  910MOL0     C19994   1.622   3.166   5.809 -0.0564 -0.1052 -0.6769
  910MOL0     C19995   1.573   3.067   5.893  0.7852  0.3448  0.1034
  910MOL0     O19996   1.492   3.105   5.992 -0.7719 -0.7004 -0.1618
  910MOL0     C19997   1.358   3.049   5.982 -1.1333 -0.4642  0.1042
  910MOL0     C19998   1.263   3.165   5.990 -0.1818  0.4607 -0.3076
  910MOL0     C19999   1.114   3.120   6.006  0.2205 -0.4691 -0.0038
  910MOL0     C20000   1.029   3.247   6.044 -0.0635 -0.2577 -0.0734
  910MOL0     C20001   0.883   3.213   6.043  0.8945  0.7984  0.2399
  910MOL0     C20002   0.804   3.338   6.058 -0.6486  0.0912  0.1080
  910MOL0     C20003   0.650   3.311   6.059 -0.6425  0.1124  0.0389
  910MOL0     C20004   0.571   3.435   6.115  0.8361 -0.0563  0.3898
  910MOL0     N20005   0.429   3.439   6.089  0.2178 -0.5064  0.4277
  910MOL0     C20006   0.326   3.425   6.180 -0.1418 -0.2433  0.5258
  910MOL0     C20007   0.224   3.466   6.109 -0.0646 -0.2104 -0.1159
  910MOL0     C20008   0.093   3.492   6.177 -1.1552 -0.0363  0.9310
  910MOL0     C20009   0.035   3.362   6.233 -0.4304 -0.1999 -0.1533
  910MOL0     C20010  -0.108   3.382   6.283  0.0668  0.1629 -0.3025
  910MOL0     C20011  -0.153   3.253   6.358  0.3778 -0.7839  0.0261
  910MOL0     O20012  -0.289   3.238   6.388 -0.5765  0.2497  0.0648
  910MOL0     C20013  -0.362   3.169   6.289 -0.1061  0.4856  0.2596
  910MOL0     C20014  -0.301   3.106   6.180  0.0823  0.1955 -0.3954
  910MOL0     C20015  -0.386   3.056   6.082 -0.4326 -0.3903  0.4458
  910MOL0     C20016  -0.523   3.054   6.095  0.4699 -0.0714  0.1678
  910MOL0     C20017  -0.601   2.989   5.993  0.5707  0.1169 -0.6406
  910MOL0     O20018  -0.734   3.021   5.995  0.4641  1.2654  0.0716
  910MOL0     C20019  -0.836   2.945   5.925 -0.3951  0.2039 -0.1649
  910MOL0     C20020  -0.814   2.885   5.799  0.6127 -0.2465 -0.3088
  910MOL0     C20021  -0.932   2.825   5.735 -0.6288 -0.0322  0.0254
  910MOL0     C20022  -1.064   2.826   5.789  1.3420  1.1583  0.4596
  910MOL0     O20023  -1.170   2.777   5.720  0.3055 -0.4792 -0.6538
  910MOL0     C20024  -1.309   2.789   5.771 -0.0561  0.5172 -0.3694
  910MOL0     C20025  -1.402   2.756   5.650  0.2050  0.0264 -0.4307
  910MOL0     C20026  -1.430   2.605   5.615  0.0571  0.3048  0.4244
  910MOL0     C20027  -1.523   2.616   5.491  0.1682  0.5639  0.3681
  910MOL0     C20028  -1.579   2.476   5.468  0.4520  0.9494  0.0492
  910MOL0     C20029  -1.596   2.449   5.320 -0.7689 -0.3065  0.8073
  910MOL0     C20030  -1.662   2.317   5.299  0.3298  0.6301 -0.2519
  910MOL0     C20031  -1.707   2.285   5.158  0.2846 -0.2809 -0.4787
  910MOL0    Cl20032  -1.838   2.394   5.122 -0.0105 -0.0077  0.3522
  910MOL0     C20033  -1.074   2.881   5.919 -0.2239 -0.7116  0.6002
  910MOL0     C20034  -0.965   2.946   5.982  0.4965 -0.6052 -0.1287
  910MOL0     O20035  -0.547   2.908   5.916  0.1822 -0.2469  0.6117
  910MOL0     C20036  -0.584   3.140   6.192  0.7783  0.1596 -0.0923
  910MOL0     C20037  -0.500   3.191   6.288 -0.5012 -0.0527  0.5868
  910MOL0     N20038   0.252   3.500   5.983 -0.5717  0.3645 -0.7464
  910MOL0     N20039   0.380   3.487   5.963  0.0347 -0.9395 -1.0237
  910MOL0     C20040   1.597   2.933   5.868  0.5432  0.0820  0.7509
  910MOL0     C20041   1.680   2.904   5.761 -0.1265 -0.6058 -0.3155
  910MOL0     C20042   1.880   2.958   5.349 -0.4021 -0.9401  0.2750
  910MOL0     C20043   1.860   2.968   5.212 -0.4697  0.8884  1.0558
  910MOL0     C20044   1.958   2.949   5.116 -0.6716 -0.2018  0.3187
  910MOL0     C20045   2.091   2.927   5.147 -0.0615 -0.1705  0.0923
  910MOL0     O20046   2.179   2.898   5.047  0.6822 -0.4261  0.1838
  910MOL0     C20047   2.310   2.858   5.069  0.7795  0.1153  0.1022
  910MOL0     C20048   2.386   2.869   4.935 -0.1576  0.4734 -1.1417
  910MOL0     C20049   2.460   2.742   4.897 -0.0104  1.0316 -1.0551
  910MOL0     C20050   2.515   2.752   4.758  0.2878 -0.0474  0.0796
  910MOL0     C20051   2.526   2.617   4.691  0.2796  0.0517 -0.4814
  910MOL0     C20052   2.560   2.519   4.629  0.3372 -0.0691 -0.6886
  910MOL0     C20053   2.113   2.924   5.285  0.6876  0.8059  1.0363
  910MOL0     C20054   2.020   2.945   5.383  0.3351  0.5232  0.2295
  910MOL0     H20055   1.752   3.216   5.646  2.2318 -1.8294 -1.0549
  910MOL0     H20056   1.605   3.271   5.828  1.8759  0.0498  0.5113
  910MOL0     H20057   1.335   2.998   6.075 -1.3216  0.5154  0.6108
  910MOL0     H20058   1.353   2.981   5.896  1.5007  0.9697 -1.3357
  910MOL0     H20059   1.276   3.237   5.909  1.9769 -0.5241 -0.8826
  910MOL0     H20060   1.294   3.225   6.077 -0.2026  1.7125 -1.1392
  910MOL0     H20061   1.113   3.052   6.091  2.8008  0.9673  1.2916
  910MOL0     H20062   1.078   3.063   5.919 -0.6947 -0.7274  0.5291
  910MOL0     H20063   1.045   3.275   6.149  0.0856  1.8226 -0.6034
  910MOL0     H20064   1.041   3.334   5.980 -0.0209  0.6656  1.1432
  910MOL0     H20065   0.859   3.145   6.125  1.9432 -0.3964 -0.3989
  910MOL0     H20066   0.845   3.176   5.947  1.0340  0.1383  0.4285
  910MOL0     H20067   0.826   3.400   5.971  2.7613 -2.0834 -0.7973
  910MOL0     H20068   0.834   3.387   6.152  0.1344 -0.5430  0.2065
  910MOL0     H20069   0.636   3.297   5.952  1.9262 -1.8672 -0.1484
  910MOL0     H20070   0.618   3.222   6.115  0.2744  0.2746  0.8504
  910MOL0     H20071   0.619   3.511   6.053  1.3785 -1.3543 -0.8307
  910MOL0     H20072   0.595   3.470   6.216  2.2579  3.2789 -0.9408
  910MOL0     H20073   0.330   3.389   6.282 -0.2058  1.5376  1.1931
  910MOL0     H20074   0.026   3.539   6.105 -1.7372  0.9940  2.1171
  910MOL0     H20075   0.121   3.552   6.263  0.3695 -0.1906  0.5778
  910MOL0     H20076   0.102   3.323   6.310  1.0872  0.1597 -1.2431
  910MOL0     H20077   0.030   3.288   6.153 -2.6388  0.0361 -0.3130
  910MOL0     H20078  -0.122   3.455   6.362 -4.3637 -0.1518 -0.4975
  910MOL0     H20079  -0.176   3.412   6.202  0.6360 -1.3353 -1.3962
  910MOL0     H20080  -0.109   3.264   6.457 -0.7883 -1.9584  0.7001
  910MOL0     H20081  -0.110   3.158   6.327 -1.5191 -2.3135  1.8389
  910MOL0     H20082  -0.192   3.105   6.176  0.3686  4.2636  1.2482
  910MOL0     H20083  -0.345   3.008   5.994  0.5753  1.7604 -0.3293
  910MOL0     H20084  -0.712   2.866   5.767  0.6981  0.9392 -0.8134
  910MOL0     H20085  -0.914   2.795   5.632 -1.4544  1.3322 -0.5487
  910MOL0     H20086  -1.327   2.891   5.806  1.1358  0.5276  0.2578
  910MOL0     H20087  -1.316   2.710   5.846  0.6556  0.5394 -0.2746
  910MOL0     H20088  -1.364   2.813   5.565  1.4017  2.2914  1.5158
  910MOL0     H20089  -1.500   2.798   5.672 -0.5839 -1.4502 -0.9537
  910MOL0     H20090  -1.482   2.549   5.693  0.2110  0.1107  0.3877
  910MOL0     H20091  -1.336   2.554   5.594 -0.0130  0.1211  0.5576
  910MOL0     H20092  -1.606   2.687   5.505 -0.3703  0.1559 -0.6066
  910MOL0     H20093  -1.476   2.643   5.396 -0.5530  0.0197 -0.1566
  910MOL0     H20094  -1.676   2.468   5.518 -0.1563 -0.2448 -1.2740
  910MOL0     H20095  -1.517   2.398   5.513  0.4044  0.6254 -0.4478
  910MOL0     H20096  -1.496   2.440   5.276  0.0255  4.3132  1.1780
  910MOL0     H20097  -1.635   2.540   5.273  0.3220 -0.4032 -0.3277
  910MOL0     H20098  -1.581   2.248   5.325  0.3044  1.2663  1.6786
  910MOL0     H20099  -1.740   2.311   5.376  0.5367  2.4881  0.1430
  910MOL0     H20100  -1.744   2.182   5.168  2.6285 -0.9008  4.9985
  910MOL0     H20101  -1.633   2.282   5.077 -1.7473 -0.3181 -2.4436
  910MOL0     H20102  -1.166   2.864   5.974  1.1626  0.6086  3.5720
  910MOL0     H20103  -0.974   2.996   6.079  2.2778 -0.7118  0.1325
  910MOL0     H20104  -0.691   3.157   6.196  0.7427  1.5329 -3.5026
  910MOL0     H20105  -0.535   3.257   6.367 -0.2279  1.4093 -0.4778
  910MOL0     H20106   1.561   2.859   5.939 -3.4751  0.1097 -0.9496
  910MOL0     H20107   1.704   2.803   5.729  0.3973 -1.3166  2.0836
  910MOL0     H20108   1.762   2.981   5.166  1.2947  0.6569 -3.1645
  910MOL0     H20109   1.933   2.974   5.014 -1.7350  2.5064  1.1299
  910MOL0     H20110   2.309   2.753   5.100 -0.9177  0.4719  1.4389
  910MOL0     H20111   2.378   2.910   5.138  3.4417 -1.0127 -1.5227
  910MOL0     H20112   2.313   2.894   4.857 -1.6316  1.1210  0.3727
  910MOL0     H20113   2.467   2.942   4.941  2.3738 -1.9608 -3.0866
  910MOL0     H20114   2.394   2.654   4.904  0.5009  0.6755 -0.5703
  910MOL0     H20115   2.542   2.723   4.967 -0.6683  1.3530 -0.1773
  910MOL0     H20116   2.454   2.810   4.688 -0.4044 -0.6116  0.2048
  910MOL0     H20117   2.616   2.796   4.756  0.2157  0.1215  0.1851
  910MOL0     H20118   2.582   2.441   4.560 -0.6144 -2.0035  1.0918
  910MOL0     H20119   2.210   2.891   5.322  1.2643 -1.5876 -2.1409
  910MOL0     H20120   2.041   2.917   5.486  2.6665 -0.2521 -0.3758
  911MOL0     O20121   9.291   3.668   6.877  0.3390 -0.2373 -0.2389
  911MOL0     C20122   9.239   3.723   6.976  0.0705  0.1148  0.2346
  911MOL0     O20123   9.254   3.855   7.013  0.8440  0.0008  0.1696
  911MOL0     C20124   9.323   3.942   6.924  0.4188  0.6594  0.6616
  911MOL0     C20125   9.464   3.949   6.906  0.4055 -0.6160 -0.2805
  911MOL0     C20126   9.524   4.041   6.813 -0.3789  1.0477  0.0113
  911MOL0     C20127   9.442   4.113   6.722 -0.4441  0.3686 -0.0671
  911MOL0     O20128   9.496   4.195   6.625 -0.0536  0.3597 -0.2268
  911MOL0     C20129   9.632   4.231   6.604 -0.3380 -0.0886 -0.4733
  911MOL0     C20130   9.636   4.330   6.487  0.3838  0.1568  0.1822
  911MOL0     C20131   9.784   4.350   6.452  0.1450  0.4333  0.2996
  911MOL0     C20132   9.864   4.428   6.556  0.6385 -0.9039 -0.5040
  911MOL0     C20133   9.984   4.499   6.481 -1.0000  0.3216  0.0965
  911MOL0     C20134  10.081   4.554   6.586  0.4619  0.1606  0.0771
  911MOL0     C20135  10.206   4.619   6.511 -0.0291  0.5507  0.2559
  911MOL0     C20136  10.313   4.521   6.478 -0.7911  0.2926 -0.0616
  911MOL0     N20137  10.420   4.488   6.574 -0.3442 -1.2244 -0.0078
  911MOL0     C20138  10.416   4.390   6.673  0.3836 -0.2324 -0.8114
  911MOL0     C20139  10.530   4.415   6.740 -0.0231 -0.3567 -0.0156
  911MOL0     C20140  10.569   4.328   6.857 -0.2662 -0.2580 -1.0657
  911MOL0     C20141  10.632   4.408   6.970 -0.4112  0.1140 -0.0493
  911MOL0     C20142  10.677   4.311   7.079  0.1338  0.0495 -0.1732
  911MOL0     C20143  10.750   4.392   7.195 -0.2895 -0.8417 -0.8131
  911MOL0     O20144  10.885   4.433   7.172  0.0385  0.5923  0.5632
  911MOL0     C20145  10.986   4.350   7.178 -0.5934  0.4107  0.4494
  911MOL0     C20146  11.100   4.399   7.116  0.6502 -0.0567  0.5607
  911MOL0     C20147  11.216   4.327   7.105 -1.4505 -1.0240 -0.2691
  911MOL0     C20148  11.228   4.199   7.165  0.3466 -0.2583  0.7052
  911MOL0     C20149  11.354   4.114   7.145 -0.3062  0.0644  0.4240
  911MOL0     O20150  11.468   4.176   7.103 -0.8096 -0.0975 -0.3817
  911MOL0     C20151  11.571   4.089   7.062 -0.3495 -0.3450 -0.8618
  911MOL0     C20152  11.670   4.044   7.147  1.1396  0.1653  0.9155
  911MOL0     C20153  11.762   3.946   7.105 -0.4300 -0.9298 -0.7711
  911MOL0     C20154  11.780   3.912   6.980  1.5448  0.4569 -0.3302
  911MOL0     O20155  11.887   3.839   6.952 -0.2580 -0.2851  0.1384
  911MOL0     C20156  11.931   3.851   6.811  0.4742  0.3726 -0.6679
  911MOL0     C20157  12.078   3.814   6.821  1.2476  1.1410 -0.3667
  911MOL0     C20158  12.154   3.902   6.923  0.2252  0.4150  0.5171
  911MOL0     C20159  12.301   3.865   6.942 -0.1203  0.6353  0.6128
  911MOL0     C20160  12.371   3.983   7.009 -0.1500 -0.6157 -0.6085
  911MOL0     C20161  12.426   4.096   6.918  0.4858 -0.7238 -0.2061
  911MOL0     C20162  12.540   4.040   6.838  0.3801 -1.2001 -0.2294
  911MOL0     C20163  12.655   4.144   6.827 -0.2729  0.6421 -0.5312
  911MOL0    Cl20164  12.809   4.055   6.783  0.1550 -0.1941 -0.5000
  911MOL0     C20165  11.678   3.960   6.888 -0.1940 -0.1299 -0.6208
  911MOL0     C20166  11.575   4.052   6.931 -0.1686 -1.0835  0.4161
  911MOL0     O20167  11.341   3.995   7.171  0.0417 -0.3417  0.7560
  911MOL0     C20168  11.115   4.149   7.229  0.2566 -0.6195 -0.5028
  911MOL0     C20169  10.995   4.219   7.235  0.5650 -0.6228  0.7806
  911MOL0     N20170  10.596   4.530   6.686 -1.3598 -0.7680 -0.0626
  911MOL0     N20171  10.527   4.575   6.588  0.6979 -0.3836  0.4866
  911MOL0     C20172   9.305   4.102   6.734  0.6618  0.3154  0.4424
  911MOL0     C20173   9.246   4.024   6.834  0.5853  0.4125  0.0398
  911MOL0     C20174   9.143   3.641   7.060  0.4515  0.5091  0.0094
  911MOL0     C20175   9.040   3.705   7.149 -0.3039 -0.8741 -0.7468
  911MOL0     C20176   8.955   3.629   7.221 -0.2601  0.1133  0.3858
  911MOL0     C20177   8.965   3.493   7.217  0.6426  0.3600  0.3299
  911MOL0     O20178   8.877   3.435   7.301  0.5640 -0.4094  0.5217
  911MOL0     C20179   8.824   3.300   7.261  1.4609 -0.4556 -0.8704
  911MOL0     C20180   8.704   3.316   7.165  0.2706 -0.3797  1.0902
  911MOL0     C20181   8.636   3.178   7.142  0.3507 -0.1597  0.0522
  911MOL0     C20182   8.514   3.183   7.051 -0.3773  0.1074 -0.9277
  911MOL0     C20183   8.535   3.226   6.905 -0.1539  1.0788 -0.6189
  911MOL0     C20184   8.543   3.265   6.792  0.3765 -0.3335  1.5229
  911MOL0     C20185   9.070   3.429   7.142 -0.6205  0.7601 -0.2003
  911MOL0     C20186   9.160   3.501   7.058  0.6746 -0.3667 -1.0355
  911MOL0     H20187   9.523   3.875   6.958 -1.0650 -1.1438  0.7008
  911MOL0     H20188   9.631   4.032   6.798 -0.5785  2.5401 -3.0005
  911MOL0     H20189   9.692   4.140   6.590 -0.1400 -0.1998  0.9337
  911MOL0     H20190   9.666   4.283   6.694 -0.8003 -1.7212  0.6825
  911MOL0     H20191   9.593   4.424   6.523  2.2044 -0.4196  4.4654
  911MOL0     H20192   9.577   4.301   6.400 -1.0850  5.1453 -0.7707
  911MOL0     H20193   9.800   4.389   6.351  1.5901 -0.3199  0.2107
  911MOL0     H20194   9.834   4.253   6.452 -1.2182 -0.3309  1.9673
  911MOL0     H20195   9.792   4.506   6.580 -1.3761 -3.1143  1.1176
  911MOL0     H20196   9.899   4.367   6.640 -1.8267  0.3103  1.5143
  911MOL0     H20197   9.953   4.586   6.422 -1.8564  0.2598  0.4512
  911MOL0     H20198  10.026   4.421   6.416  1.1147 -0.2510  2.0219
  911MOL0     H20199  10.117   4.477   6.655 -3.8546 -1.2306  1.0968
  911MOL0     H20200  10.048   4.634   6.652 -1.7365  0.0033 -0.7710
  911MOL0     H20201  10.170   4.668   6.420 -0.2153  0.0974  0.0828
  911MOL0     H20202  10.256   4.698   6.568 -3.9946  1.1115  3.3739
  911MOL0     H20203  10.363   4.568   6.392  0.0011  0.9348  0.7304
  911MOL0     H20204  10.253   4.433   6.456  0.5679 -1.2131  1.8850
  911MOL0     H20205  10.334   4.324   6.697  0.5607 -0.6489 -1.3216
  911MOL0     H20206  10.625   4.241   6.820  1.5681  0.5311 -0.2967
  911MOL0     H20207  10.477   4.281   6.893 -0.3071  0.5926  0.0011
  911MOL0     H20208  10.565   4.478   7.022 -1.3574 -2.1007  1.8785
  911MOL0     H20209  10.720   4.459   6.931  0.3418 -2.8970 -2.7515
  911MOL0     H20210  10.589   4.262   7.122 -0.2394 -0.1296 -1.1142
  911MOL0     H20211  10.746   4.232   7.051  1.0287  0.7501  0.0152
  911MOL0     H20212  10.745   4.332   7.286  0.0248  2.0258  1.2377
  911MOL0     H20213  10.694   4.479   7.230  1.3704 -0.3700  0.8437
  911MOL0     H20214  11.103   4.499   7.073  0.5695  0.8024  2.4508
  911MOL0     H20215  11.296   4.363   7.041  0.6398 -1.5370  1.9135
  911MOL0     H20216  11.681   4.082   7.248  1.6171  0.2199  0.8483
  911MOL0     H20217  11.836   3.897   7.167  0.3379 -0.7385 -1.5241
  911MOL0     H20218  11.921   3.954   6.775  0.3785  1.4054  2.0563
  911MOL0     H20219  11.871   3.777   6.757  2.3209 -2.0036  0.3251
  911MOL0     H20220  12.119   3.813   6.719  0.1602 -0.3041 -0.8332
  911MOL0     H20221  12.084   3.711   6.857 -2.0535  0.5324 -1.1783
  911MOL0     H20222  12.112   3.907   7.024 -1.3056 -2.9232  0.1461
  911MOL0     H20223  12.142   4.000   6.876 -1.1317  0.6838  1.3817
  911MOL0     H20224  12.312   3.770   6.995  0.2213 -0.9386 -2.1008
  911MOL0     H20225  12.349   3.855   6.844 -1.0184  1.1635  0.1017
  911MOL0     H20226  12.459   3.941   7.059  0.7269  1.2695 -0.4500
  911MOL0     H20227  12.304   4.033   7.079  1.0275  0.4624 -0.2138
  911MOL0     H20228  12.448   4.178   6.987  1.3493 -0.3225 -0.9422
  911MOL0     H20229  12.349   4.123   6.844  1.4521  1.2617 -0.5471
  911MOL0     H20230  12.586   3.958   6.894  0.4949 -0.1044  1.3535
  911MOL0     H20231  12.503   4.001   6.743 -1.6298 -3.7716  1.4531
  911MOL0     H20232  12.669   4.203   6.919 -2.6850  1.1176 -0.3963
  911MOL0     H20233  12.653   4.211   6.740  0.3352 -0.7006 -1.6018
  911MOL0     H20234  11.680   3.949   6.780  1.7281 -2.7819 -0.4158
  911MOL0     H20235  11.500   4.093   6.865 -0.1930  2.3475  2.3586
  911MOL0     H20236  11.111   4.056   7.285  3.0120 -0.4331  0.1812
  911MOL0     H20237  10.912   4.163   7.277  0.5448 -1.5344 -0.4264
  911MOL0     H20238   9.247   4.166   6.669 -2.2787 -1.0886  1.4848
  911MOL0     H20239   9.138   4.032   6.834  0.5440  0.1489 -1.5685
  911MOL0     H20240   9.028   3.812   7.160  2.7680 -0.5941  1.2473
  911MOL0     H20241   8.881   3.669   7.289 -1.7750 -1.3566 -0.3244
  911MOL0     H20242   8.789   3.234   7.342 -0.1892 -1.4987 -2.3617
  911MOL0     H20243   8.890   3.238   7.200 -0.9427 -2.8988 -1.1856
  911MOL0     H20244   8.638   3.396   7.200  1.2322  1.3588 -0.8639
  911MOL0     H20245   8.752   3.348   7.073  1.0563  0.5543  1.7996
  911MOL0     H20246   8.619   3.135   7.241  0.5123  1.1301  0.6508
  911MOL0     H20247   8.708   3.106   7.100  0.5176  0.2384 -0.3468
  911MOL0     H20248   8.462   3.087   7.046 -2.8659  1.4220 -2.3967
  911MOL0     H20249   8.443   3.259   7.084  0.9596  0.8567  0.3288
  911MOL0     H20250   8.534   3.318   6.699  1.1124  0.2769  1.7882
  911MOL0     H20251   9.079   3.321   7.154  1.7068  0.5694 -2.7913
  911MOL0     H20252   9.241   3.450   7.006  0.8420 -0.5184 -0.6265
  912MOL0     O20253   4.196   2.912   6.647 -0.0759 -0.4006 -0.3247
  912MOL0     C20254   4.244   3.026   6.663 -0.0061 -0.3749  0.1109
  912MOL0     O20255   4.190   3.118   6.747 -0.3556  0.0384 -0.2859
  912MOL0     C20256   4.093   3.066   6.828  0.0562 -0.8451 -0.2527
  912MOL0     C20257   4.120   3.069   6.960  0.2077 -0.5799 -0.0774
  912MOL0     C20258   4.018   3.034   7.053 -0.9846 -0.1903  0.0565
  912MOL0     C20259   3.893   2.996   7.011 -0.1167  0.3759  0.6962
  912MOL0     O20260   3.797   2.967   7.098  0.0268  0.1080 -0.2511
  912MOL0     C20261   3.662   2.935   7.056 -0.6490  0.2281 -0.0833
  912MOL0     C20262   3.566   2.926   7.166  0.1286  0.0885 -0.2634
  912MOL0     C20263   3.423   2.965   7.115 -0.3259 -0.4259  0.3639
  912MOL0     C20264   3.311   2.975   7.221  0.0715  0.8766 -0.1945
  912MOL0     C20265   3.186   3.046   7.167 -1.0020  0.6218 -0.9474
  912MOL0     C20266   3.082   3.088   7.274 -0.3115 -1.4347  0.0380
  912MOL0     C20267   3.024   2.969   7.342 -0.2280 -0.3788 -0.1641
  912MOL0     C20268   2.926   3.009   7.457 -0.1566 -0.6732  0.1334
  912MOL0     N20269   3.007   3.074   7.568 -0.4428  0.4863 -0.2299
  912MOL0     C20270   3.121   3.018   7.630  0.7843 -0.7879  0.1904
  912MOL0     C20271   3.174   3.128   7.701 -0.1366  0.7997  0.6588
  912MOL0     C20272   3.282   3.109   7.800 -0.2534  0.3659 -0.0955
  912MOL0     C20273   3.395   3.035   7.758 -0.6095  1.0485  0.2780
  912MOL0     C20274   3.528   3.057   7.830  0.5194 -0.2162  0.6081
  912MOL0     C20275   3.656   3.003   7.772 -0.5183  0.2147  0.7939
  912MOL0     O20276   3.677   3.065   7.638 -0.1685  0.4078 -0.9986
  912MOL0     C20277   3.805   3.104   7.595 -0.4538 -0.3964  0.3126
  912MOL0     C20278   3.816   3.150   7.466 -0.2062 -0.1364  0.2794
  912MOL0     C20279   3.935   3.188   7.402 -0.3309  0.5040  0.1899
  912MOL0     C20280   4.055   3.184   7.470  0.1229  0.3833 -0.0467
  912MOL0     C20281   4.189   3.225   7.418 -0.3747  0.2449  0.3251
  912MOL0     O20282   4.198   3.232   7.285 -0.2216 -0.1159  0.2480
  912MOL0     C20283   4.326   3.227   7.233  0.0817 -0.0054 -0.5678
  912MOL0     C20284   4.357   3.329   7.139 -0.8869  0.4449  0.1245
  912MOL0     C20285   4.480   3.331   7.072  0.4426  1.2572  0.7462
  912MOL0     C20286   4.573   3.230   7.087 -0.2383  0.7473  0.1767
  912MOL0     O20287   4.704   3.235   7.035 -0.0699  0.7960  0.0782
  912MOL0     C20288   4.733   3.317   6.922 -0.8154 -0.2945  0.9139
  912MOL0     C20289   4.867   3.295   6.857 -0.2366  0.0161 -0.2026
  912MOL0     C20290   4.970   3.303   6.966 -0.5667  0.4130  0.2010
  912MOL0     C20291   5.115   3.318   6.906 -0.6755  0.3923  0.6201
  912MOL0     C20292   5.140   3.227   6.779  0.1104 -0.6988 -1.0484
  912MOL0     C20293   5.144   3.072   6.799 -0.2464 -0.5818 -0.2867
  912MOL0     C20294   5.194   3.017   6.665  0.0452  0.2014  0.0132
  912MOL0     C20295   5.197   2.868   6.665  0.0557  0.3391  0.0418
  912MOL0    Cl20296   5.020   2.812   6.687  0.1551 -0.6583  0.0681
  912MOL0     C20297   4.545   3.130   7.180  0.5163  0.0968  0.2925
  912MOL0     C20298   4.427   3.136   7.253  0.4889  0.3818 -0.2313
  912MOL0     O20299   4.289   3.235   7.496  0.5755  0.7799  0.4258
  912MOL0     C20300   4.044   3.147   7.604 -0.2285  0.5263 -0.4613
  912MOL0     C20301   3.922   3.103   7.668 -0.3080 -0.6989  0.3272
  912MOL0     N20302   3.099   3.246   7.666 -0.4909 -0.4381 -0.1827
  912MOL0     N20303   2.996   3.212   7.591  0.2807  0.9855  0.2475
  912MOL0     C20304   3.869   2.998   6.872  0.7573 -0.2528  0.8367
  912MOL0     C20305   3.972   3.030   6.786  0.1458  0.7896 -0.3656
  912MOL0     C20306   4.360   3.059   6.592 -0.1609  0.4091 -0.9403
  912MOL0     C20307   4.425   3.185   6.617  0.8606 -0.1043 -1.9280
  912MOL0     C20308   4.555   3.217   6.563  0.3663 -0.5119  0.1072
  912MOL0     C20309   4.620   3.132   6.469 -0.8021  0.0191  0.0908
  912MOL0     O20310   4.730   3.171   6.403 -0.1566 -0.1939  0.5161
  912MOL0     C20311   4.848   3.096   6.445  0.4689  0.2366  0.1170
  912MOL0     C20312   4.966   3.126   6.352  0.0352 -0.1676  0.7047
  912MOL0     C20313   5.023   3.265   6.377 -0.4159  0.0142  0.7281
  912MOL0     C20314   5.164   3.264   6.323 -0.0217 -0.4201 -0.4835
  912MOL0     C20315   5.218   3.392   6.363 -0.6571  0.0593  1.0116
  912MOL0     C20316   5.250   3.507   6.372  0.8039 -0.4922  0.3386
  912MOL0     C20317   4.564   3.011   6.440 -1.0593  0.1212  0.2472
  912MOL0     C20318   4.440   2.975   6.500 -0.0627  0.6147 -0.1387
  912MOL0     H20319   4.219   3.091   6.998 -0.1810 -1.4697  1.5531
  912MOL0     H20320   4.045   3.042   7.158  1.3790 -2.8487 -0.2453
  912MOL0     H20321   3.669   2.841   7.000  1.5792  0.7445 -0.7714
  912MOL0     H20322   3.634   3.014   6.986 -1.4503  1.9175  2.0345
  912MOL0     H20323   3.587   2.982   7.257 -2.2461 -1.4581  1.3448
  912MOL0     H20324   3.562   2.820   7.191  0.1834  0.2800  0.5939
  912MOL0     H20325   3.394   2.894   7.038 -0.4907  0.2535 -0.2097
  912MOL0     H20326   3.434   3.059   7.060  1.1929 -3.3752 -5.0402
  912MOL0     H20327   3.274   2.882   7.264 -0.6020  1.3649  0.3005
  912MOL0     H20328   3.356   3.035   7.301  0.3730  1.0104 -0.4636
  912MOL0     H20329   3.148   2.982   7.087  0.4237 -2.1183  0.3976
  912MOL0     H20330   3.224   3.136   7.118  0.3047  0.8672  0.4405
  912MOL0     H20331   3.014   3.162   7.232  3.0802  1.2740 -1.1445
  912MOL0     H20332   3.138   3.150   7.344 -1.4687  0.5816 -0.7453
  912MOL0     H20333   2.975   2.906   7.266 -1.1684  1.3354 -1.0501
  912MOL0     H20334   3.105   2.908   7.383  1.7716  0.8235 -2.1315
  912MOL0     H20335   2.865   2.929   7.500  0.6272 -0.9978  0.6682
  912MOL0     H20336   2.853   3.081   7.421  0.4997  0.3329  0.7365
  912MOL0     H20337   3.165   2.919   7.620  0.2909 -1.0206  0.2824
  912MOL0     H20338   3.237   3.058   7.886  1.2770  0.1627  0.6188
  912MOL0     H20339   3.307   3.211   7.828  1.1118  0.4425 -1.4947
  912MOL0     H20340   3.432   3.062   7.658  4.4680  3.0176  2.3589
  912MOL0     H20341   3.369   2.929   7.756 -1.8145  1.3078  0.9760
  912MOL0     H20342   3.539   3.166   7.831  1.8552 -0.3370  0.2929
  912MOL0     H20343   3.514   3.023   7.933 -0.3109 -1.0794  0.2331
  912MOL0     H20344   3.670   2.895   7.763 -0.3068  0.3433 -0.8708
  912MOL0     H20345   3.743   3.040   7.826  0.2219 -1.5597  0.8913
  912MOL0     H20346   3.723   3.147   7.409  0.2219  2.0822 -0.6156
  912MOL0     H20347   3.939   3.220   7.299 -1.2591 -0.1136 -0.0479
  912MOL0     H20348   4.270   3.394   7.128 -1.8436 -1.0200 -1.3883
  912MOL0     H20349   4.519   3.415   7.015  4.0217  0.0639  1.2103
  912MOL0     H20350   4.725   3.422   6.953  1.5103  0.7825 -1.7135
  912MOL0     H20351   4.661   3.298   6.842 -0.3620  0.6016  0.2871
  912MOL0     H20352   4.882   3.376   6.784  1.2823  1.6847  1.8245
  912MOL0     H20353   4.864   3.201   6.802 -3.3041  1.5998 -3.1281
  912MOL0     H20354   4.963   3.212   7.026 -1.9177 -1.7717 -2.9918
  912MOL0     H20355   4.945   3.394   7.021 -0.1030 -1.1168  3.1686
  912MOL0     H20356   5.122   3.424   6.883  1.8686  0.6584  2.1072
  912MOL0     H20357   5.194   3.301   6.981 -0.2618  0.7829  0.2741
  912MOL0     H20358   5.244   3.249   6.751  0.8806 -1.4219  1.0203
  912MOL0     H20359   5.070   3.266   6.704  0.4167  1.2263 -0.3965
  912MOL0     H20360   5.045   3.042   6.834 -0.1102 -2.6194 -1.5087
  912MOL0     H20361   5.220   3.048   6.874 -1.8522 -1.6106  1.0742
  912MOL0     H20362   5.122   3.044   6.587 -0.3741  0.5321  0.5167
  912MOL0     H20363   5.289   3.064   6.638  1.0197 -1.2275  0.7886
  912MOL0     H20364   5.252   2.831   6.752  1.8351 -1.3034 -1.6792
  912MOL0     H20365   5.234   2.830   6.570 -0.0970 -1.8831  0.8060
  912MOL0     H20366   4.624   3.058   7.199  1.9723  1.9377  1.5797
  912MOL0     H20367   4.408   3.047   7.312 -3.2617  1.2431  0.1081
  912MOL0     H20368   4.133   3.145   7.667 -0.4589  4.2581  0.2124
  912MOL0     H20369   3.928   3.048   7.762 -1.8632 -1.8494 -0.2088
  912MOL0     H20370   3.770   2.983   6.830  0.8932 -0.3481  0.5477
  912MOL0     H20371   3.960   3.030   6.678  1.1736 -0.9253 -0.5316
  912MOL0     H20372   4.396   3.274   6.672  2.0890 -0.0163 -1.3990
  912MOL0     H20373   4.607   3.312   6.576 -0.3366 -0.3001  1.5894
  912MOL0     H20374   4.842   2.987   6.450  1.1579  0.2380  1.1870
  912MOL0     H20375   4.877   3.133   6.544  0.7659 -2.5623  1.1533
  912MOL0     H20376   5.040   3.046   6.366  0.9309  0.6197  0.5692
  912MOL0     H20377   4.930   3.132   6.249 -0.0716  0.4779  0.7777
  912MOL0     H20378   5.032   3.282   6.485 -0.4946 -0.3657  0.7959
  912MOL0     H20379   4.957   3.340   6.333  0.2185  0.3108  0.2791
  912MOL0     H20380   5.237   3.188   6.355 -0.7994 -1.0653 -0.2201
  912MOL0     H20381   5.158   3.244   6.216 -0.4461  0.4462 -0.6284
  912MOL0     H20382   5.270   3.611   6.383 -3.3619  0.6450 -1.0778
  912MOL0     H20383   4.614   2.941   6.373  1.4041  2.9956 -1.1195
  912MOL0     H20384   4.405   2.877   6.469  1.2653  0.2068 -0.3851
  913MOL0     O20385   3.961  11.033   2.860 -0.9000  0.0762 -0.2221
  913MOL0     C20386   4.038  11.121   2.887 -0.1674  0.6801  0.1057
  913MOL0     O20387   4.059  11.234   2.818  0.0989  0.4712  0.7442
  913MOL0     C20388   3.980  11.270   2.713 -0.6486 -0.1358 -0.4400
  913MOL0     C20389   3.978  11.190   2.598 -0.1074 -0.2686  0.6154
  913MOL0     C20390   3.887  11.217   2.493 -0.2298 -0.0275  0.0058
  913MOL0     C20391   3.798  11.328   2.505 -0.0283  0.5403 -0.1010
  913MOL0     O20392   3.702  11.344   2.411 -0.8205 -0.2112  0.7694
  913MOL0     C20393   3.634  11.468   2.381  0.0351 -0.1521 -0.1835
  913MOL0     C20394   3.504  11.467   2.455  0.0009 -0.4832 -0.3718
  913MOL0     C20395   3.437  11.603   2.442  0.9577  0.9705 -0.0536
  913MOL0     C20396   3.472  11.679   2.567 -0.2319  0.5362 -0.3220
  913MOL0     C20397   3.419  11.826   2.579 -0.3544  0.0264 -0.2391
  913MOL0     C20398   3.269  11.838   2.558 -0.7213  0.5769  0.0191
  913MOL0     C20399   3.217  11.979   2.597  0.6539  0.3311 -0.2275
  913MOL0     C20400   3.071  11.992   2.623 -0.0887  0.4104 -0.2064
  913MOL0     N20401   3.000  11.937   2.500 -0.4403  0.8366  0.1632
  913MOL0     C20402   2.912  11.834   2.499  0.0599  0.2868 -0.3833
  913MOL0     C20403   2.864  11.833   2.380 -0.4565 -0.0495  0.0570
  913MOL0     C20404   2.743  11.757   2.330 -0.0787 -0.1536  0.6895
  913MOL0     C20405   2.627  11.858   2.304 -0.5715  0.9225  0.1513
  913MOL0     C20406   2.517  11.811   2.199 -0.9246 -0.3799  1.2157
  913MOL0     C20407   2.425  11.693   2.213  0.6587 -0.1503 -0.6626
  913MOL0     O20408   2.359  11.669   2.085  0.7007 -0.3644 -0.4843
  913MOL0     C20409   2.230  11.714   2.065  0.0352 -0.1248  0.5216
  913MOL0     C20410   2.130  11.707   2.166 -0.4674  0.4068 -1.1986
  913MOL0     C20411   1.995  11.743   2.142  0.0814  0.3841  0.2931
  913MOL0     C20412   1.948  11.797   2.023 -0.0797  0.0541  0.1820
  913MOL0     C20413   1.810  11.829   2.008 -0.4514 -0.1145 -1.0199
  913MOL0     O20414   1.735  11.795   2.111  0.6701 -0.0114 -0.0812
  913MOL0     C20415   1.603  11.829   2.108 -0.1723  0.1935 -0.0824
  913MOL0     C20416   1.505  11.735   2.096  0.0809  0.3444 -0.0923
  913MOL0     C20417   1.370  11.760   2.095 -0.1027 -0.1114  0.2915
  913MOL0     C20418   1.332  11.890   2.093  0.3102  0.4147 -0.9365
  913MOL0     O20419   1.201  11.943   2.090 -0.2686 -0.5686 -0.0519
  913MOL0     C20420   1.102  11.848   2.129 -0.8695 -0.3469  0.0138
  913MOL0     C20421   0.973  11.942   2.129  0.5044 -0.2587  0.5680
  913MOL0     C20422   0.838  11.852   2.110 -0.1832 -0.1195 -0.0952
  913MOL0     C20423   0.727  11.944   2.145  0.5774  0.5261 -0.2439
  913MOL0     C20424   0.589  11.871   2.154 -0.3549  0.0945 -0.1962
  913MOL0     C20425   0.538  11.799   2.022 -0.6420  0.2812 -0.4966
  913MOL0     C20426   0.413  11.717   2.027  0.3306  0.7078 -0.0212
  913MOL0     C20427   0.331  11.730   1.899  1.5625 -0.0608 -0.1457
  913MOL0    Cl20428   0.273  11.900   1.903 -0.0246  0.1581  0.3481
  913MOL0     C20429   1.419  11.993   2.088 -0.2485 -0.1097 -0.5643
  913MOL0     C20430   1.557  11.969   2.101  0.0824  0.2319 -0.1196
  913MOL0     O20431   1.784  11.906   1.914  0.7608  0.1004 -0.3567
  913MOL0     C20432   2.043  11.788   1.917  0.0618 -0.1277  0.7893
  913MOL0     C20433   2.177  11.749   1.939 -0.1938  1.1142  0.1290
  913MOL0     N20434   2.927  11.922   2.304 -0.1892 -0.1845 -0.5497
  913MOL0     N20435   3.007  11.988   2.374 -0.8452  0.7166  0.8355
  913MOL0     C20436   3.821  11.418   2.607  0.1659  0.0573  0.4339
  913MOL0     C20437   3.912  11.394   2.714  0.4730  1.3527  0.2270
  913MOL0     C20438   4.116  11.106   3.016 -0.1124 -0.8840 -0.1930
  913MOL0     C20439   4.122  10.995   3.094 -0.5603 -0.2883 -0.7308
  913MOL0     C20440   4.207  10.975   3.204  0.2499  0.2014  0.8540
  913MOL0     C20441   4.293  11.080   3.237  0.4121  0.9214  1.0304
  913MOL0     O20442   4.371  11.063   3.343  0.0300 -0.1173  0.3918
  913MOL0     C20443   4.512  11.055   3.312 -0.0555  0.1946 -0.6780
  913MOL0     C20444   4.540  10.901   3.316 -0.6117  0.2816 -0.5866
  913MOL0     C20445   4.694  10.874   3.312 -0.3346 -0.2676  0.3065
  913MOL0     C20446   4.714  10.748   3.392 -0.0375 -0.1588  0.7060
  913MOL0     C20447   4.852  10.705   3.384 -0.9997 -0.7142  0.4007
  913MOL0     C20448   4.963  10.666   3.379  0.3124  1.1775 -0.7024
  913MOL0     C20449   4.281  11.201   3.168 -0.4856  0.1612 -0.0274
  913MOL0     C20450   4.209  11.209   3.046 -0.2047  0.3233  0.3645
  913MOL0     H20451   4.051  11.109   2.595  0.6694  0.4102 -2.6570
  913MOL0     H20452   3.896  11.169   2.395  0.3046  1.8528 -0.9114
  913MOL0     H20453   3.628  11.464   2.272  2.6436  0.2800 -0.3972
  913MOL0     H20454   3.695  11.556   2.400  0.5148 -0.3062 -0.9714
  913MOL0     H20455   3.535  11.459   2.560 -2.5452  1.8235  0.6741
  913MOL0     H20456   3.448  11.382   2.413 -0.1382  1.2160 -3.9895
  913MOL0     H20457   3.329  11.585   2.444  0.9380  1.0270 -0.4952
  913MOL0     H20458   3.466  11.653   2.349 -0.4988  3.8174  0.8889
  913MOL0     H20459   3.425  11.634   2.654  0.6203  0.6079  0.1839
  913MOL0     H20460   3.580  11.682   2.580  0.0679  0.5145 -2.3879
  913MOL0     H20461   3.483  11.885   2.513  0.9854  0.6644  1.5555
  913MOL0     H20462   3.449  11.856   2.680  2.2477  0.0709 -0.9693
  913MOL0     H20463   3.220  11.767   2.626 -1.3228 -0.5835 -1.5630
  913MOL0     H20464   3.243  11.812   2.455 -4.6029  0.1705  0.9331
  913MOL0     H20465   3.277  12.019   2.679  0.7566  1.7949 -0.9938
  913MOL0     H20466   3.239  12.052   2.519  1.4416  0.1720 -0.1595
  913MOL0     H20467   3.035  12.093   2.646  1.1458  0.2629  2.8264
  913MOL0     H20468   3.048  11.926   2.707  0.7085  0.9304  0.4384
  913MOL0     H20469   2.876  11.769   2.578 -0.2342  3.5534  2.4371
  913MOL0     H20470   2.713  11.672   2.392 -1.4837  1.7579  2.7668
  913MOL0     H20471   2.763  11.720   2.229 -2.0144  4.1901 -1.5545
  913MOL0     H20472   2.661  11.958   2.274  2.4265  0.8490  2.8146
  913MOL0     H20473   2.583  11.875   2.403 -1.5358  1.4997 -0.3594
  913MOL0     H20474   2.456  11.899   2.183 -0.3253 -0.2152 -0.4127
  913MOL0     H20475   2.583  11.798   2.112 -0.4567 -0.1392  1.5270
  913MOL0     H20476   2.356  11.710   2.296  0.0081 -0.2238 -1.1762
  913MOL0     H20477   2.493  11.612   2.239  1.9453  0.9217 -0.5542
  913MOL0     H20478   2.159  11.672   2.265 -3.7545 -0.9195 -0.5757
  913MOL0     H20479   1.925  11.723   2.223  0.4664  0.7527  0.7213
  913MOL0     H20480   1.546  11.636   2.076 -0.2686  0.4224 -1.2441
  913MOL0     H20481   1.299  11.681   2.076  0.0567 -0.0319 -0.6723
  913MOL0     H20482   1.126  11.816   2.231 -0.4852 -0.6063 -0.1562
  913MOL0     H20483   1.106  11.758   2.066  3.5335 -0.6987  0.5059
  913MOL0     H20484   0.980  12.020   2.053 -0.6370 -1.0931 -0.4182
  913MOL0     H20485   0.980  11.997   2.224 -1.7765 -0.2415  0.7658
  913MOL0     H20486   0.829  11.770   2.182 -0.0985  0.8219  1.0129
  913MOL0     H20487   0.850  11.823   2.005 -0.8792  0.2590 -0.2835
  913MOL0     H20488   0.751  11.993   2.240  0.0991 -0.2272  0.2840
  913MOL0     H20489   0.709  12.024   2.073 -1.0388  0.2416 -0.2073
  913MOL0     H20490   0.518  11.950   2.180  0.2188  0.6234 -0.2186
  913MOL0     H20491   0.598  11.801   2.237  0.0653  2.2257  1.6331
  913MOL0     H20492   0.615  11.729   1.989  0.0127  1.6539 -2.0560
  913MOL0     H20493   0.518  11.883   1.954 -1.4899  0.6258  0.1612
  913MOL0     H20494   0.417  11.608   2.033 -2.5068  0.5043 -0.2828
  913MOL0     H20495   0.360  11.743   2.119 -1.0651 -2.0242  0.0608
  913MOL0     H20496   0.239  11.670   1.901  0.8696  0.9802 -0.2806
  913MOL0     H20497   0.382  11.712   1.804 -1.2724 -2.1927 -1.4316
  913MOL0     H20498   1.386  12.097   2.089 -1.5697 -0.4758 -2.0626
  913MOL0     H20499   1.622  12.050   2.132  1.4502 -1.6194  2.1719
  913MOL0     H20500   2.006  11.823   1.821 -0.1094  1.2133  1.3309
  913MOL0     H20501   2.241  11.750   1.851  1.6955  1.4046  1.4465
  913MOL0     H20502   3.763  11.507   2.626  0.8668  0.5284  0.3992
  913MOL0     H20503   3.920  11.455   2.804 -0.2134 -1.3913  2.2625
  913MOL0     H20504   4.041  10.925   3.075 -1.4442  0.5600 -0.1649
  913MOL0     H20505   4.199  10.893   3.274  0.5903 -0.1514  0.4882
  913MOL0     H20506   4.578  11.093   3.390 -1.6526 -0.6217  1.1499
  913MOL0     H20507   4.541  11.087   3.211 -0.9582  2.9229 -0.1489
  913MOL0     H20508   4.487  10.862   3.404 -0.8261  1.1473 -0.3220
  913MOL0     H20509   4.500  10.851   3.227  5.1841 -2.4963 -2.1627
  913MOL0     H20510   4.756  10.949   3.360  0.5542  0.1349 -1.3971
  913MOL0     H20511   4.730  10.878   3.209  3.4933  2.4194  1.5392
  913MOL0     H20512   4.703  10.782   3.496 -2.2918 -0.8176  0.7228
  913MOL0     H20513   4.648  10.663   3.376  0.5330 -0.2961 -1.1239
  913MOL0     H20514   5.065  10.635   3.392  0.2972  1.3593 -0.1553
  913MOL0     H20515   4.339  11.282   3.211  0.9304 -1.7495  1.8580
  913MOL0     H20516   4.212  11.297   2.982  0.4486 -1.0083 -1.5278
  914MOL0     O20517  10.515   6.794   7.115  0.0378  1.0700 -0.4629
  914MOL0     C20518  10.481   6.903   7.160  0.1876  0.2853  0.1305
  914MOL0     O20519  10.380   6.986   7.108 -0.5132  0.4009 -0.1435
  914MOL0     C20520  10.306   6.954   7.002  0.1942 -0.5467  0.6526
  914MOL0     C20521  10.355   6.878   6.896  0.4158 -0.1207  0.8973
  914MOL0     C20522  10.269   6.849   6.792 -0.0102  0.1958  0.1154
  914MOL0     C20523  10.145   6.905   6.786  0.8574 -0.7514  0.2709
  914MOL0     O20524  10.062   6.898   6.676  0.6086 -0.6530 -0.4207
  914MOL0     C20525  10.051   6.775   6.601 -0.0807  0.4652  0.1154
  914MOL0     C20526   9.912   6.703   6.621 -0.1991 -1.6034  0.3451
  914MOL0     C20527   9.798   6.809   6.608  0.1253 -0.1909 -0.0138
  914MOL0     C20528   9.781   6.880   6.464 -0.1283 -0.1598 -0.4937
  914MOL0     C20529   9.632   6.924   6.441 -0.4067 -0.6659 -0.3337
  914MOL0     C20530   9.580   6.994   6.572  0.6742  0.6207  0.3592
  914MOL0     C20531   9.433   7.050   6.538  0.0758  1.1181  0.5852
  914MOL0     C20532   9.361   7.154   6.633  0.3639  0.6187 -0.3333
  914MOL0     N20533   9.223   7.195   6.596 -0.4408 -0.0024 -0.0830
  914MOL0     C20534   9.120   7.102   6.575 -0.9568  0.4180 -0.3491
  914MOL0     C20535   9.019   7.175   6.531 -0.6946 -0.6589 -0.0482
  914MOL0     C20536   8.870   7.140   6.494 -0.8129 -1.0990  0.4891
  914MOL0     C20537   8.812   7.028   6.576 -0.4318 -0.3612  0.7572
  914MOL0     C20538   8.669   7.010   6.526 -0.2003 -0.1952 -0.6353
  914MOL0     C20539   8.580   6.938   6.630  0.0939 -0.1665  0.8613
  914MOL0     O20540   8.660   6.827   6.687  0.1173 -0.6496 -0.2616
  914MOL0     C20541   8.611   6.710   6.731  0.8445  0.4978 -1.0558
  914MOL0     C20542   8.711   6.619   6.770 -0.0090 -0.2817 -0.1135
  914MOL0     C20543   8.675   6.486   6.814 -1.0448  0.4115 -0.1943
  914MOL0     C20544   8.542   6.448   6.813 -0.1737 -0.0754 -0.5339
  914MOL0     C20545   8.505   6.310   6.863 -0.3576 -0.3164 -0.1810
  914MOL0     O20546   8.600   6.235   6.932 -0.1299  0.7531  0.1342
  914MOL0     C20547   8.561   6.113   6.968  0.2932  0.3620 -0.5395
  914MOL0     C20548   8.446   6.079   7.034  0.6454 -0.3217 -0.6777
  914MOL0     C20549   8.417   5.951   7.071  0.8731  0.9583 -0.1800
  914MOL0     C20550   8.509   5.846   7.049  0.3216  0.2230 -0.6038
  914MOL0     O20551   8.483   5.725   7.109  0.4089 -0.0849  0.3688
  914MOL0     C20552   8.531   5.702   7.242  0.4432 -0.6764  0.2483
  914MOL0     C20553   8.422   5.697   7.345  0.8037 -0.3129 -0.6510
  914MOL0     C20554   8.339   5.575   7.332  0.2614 -0.0685 -0.3861
  914MOL0     C20555   8.222   5.586   7.230 -0.1740 -0.3442 -0.2309
  914MOL0     C20556   8.134   5.465   7.239 -0.3286 -0.4347  0.4365
  914MOL0     C20557   8.028   5.437   7.117 -0.4602  0.1202  0.1717
  914MOL0     C20558   7.940   5.314   7.153 -0.2726 -0.1123 -0.1894
  914MOL0     C20559   7.834   5.299   7.055  1.0547 -0.2770  0.5262
  914MOL0    Cl20560   7.897   5.207   6.916  0.2777  0.0956  0.2308
  914MOL0     C20561   8.630   5.868   6.977  0.7601 -0.6596 -0.8154
  914MOL0     C20562   8.647   6.007   6.948 -0.3822  0.4064  0.3654
  914MOL0     O20563   8.388   6.287   6.831 -0.2769  0.6087 -0.0664
  914MOL0     C20564   8.436   6.541   6.781  0.1095  0.4660 -0.1376
  914MOL0     C20565   8.473   6.673   6.742  0.1274 -0.3755 -0.1213
  914MOL0     N20566   9.067   7.306   6.533  0.8519  0.4117  0.1164
  914MOL0     N20567   9.184   7.321   6.582  0.5655 -0.6963  0.9251
  914MOL0     C20568  10.091   6.978   6.891  0.5030  0.1397 -0.2679
  914MOL0     C20569  10.177   7.007   6.993  0.1220  0.1029 -0.6036
  914MOL0     C20570  10.558   6.973   7.270  0.4837  0.7274  0.0252
  914MOL0     C20571  10.676   6.929   7.325  1.1976  0.6137 -0.4565
  914MOL0     C20572  10.740   6.976   7.433  1.0492 -0.5278 -0.1050
  914MOL0     C20573  10.678   7.078   7.507 -0.6640 -0.1553 -0.6440
  914MOL0     O20574  10.737   7.128   7.619  0.1330  0.1281 -0.9798
  914MOL0     C20575  10.836   7.051   7.689  0.0755  0.0379 -0.0341
  914MOL0     C20576  10.826   7.084   7.838 -0.2243 -0.4644 -0.1207
  914MOL0     C20577  10.933   7.036   7.924 -0.5788  0.5393 -0.8703
  914MOL0     C20578  10.930   7.088   8.074  1.1376 -0.2664 -1.5472
  914MOL0     C20579  10.814   7.015   8.139 -0.4312  0.0051 -0.2002
  914MOL0     C20580  10.725   6.937   8.185 -0.2164  0.2979  0.6675
  914MOL0     C20581  10.552   7.113   7.470 -0.5019 -0.2426 -0.6548
  914MOL0     C20582  10.491   7.067   7.349 -0.2043  0.2240 -1.2558
  914MOL0     H20583  10.460   6.855   6.908  0.8643  2.1353  2.0468
  914MOL0     H20584  10.311   6.789   6.711  1.0155  0.9201  0.1037
  914MOL0     H20585  10.135   6.707   6.620 -1.5387 -0.9248  2.0294
  914MOL0     H20586  10.066   6.815   6.500 -0.1130  4.4323  1.5307
  914MOL0     H20587   9.906   6.647   6.714 -1.4759 -0.5613  0.9315
  914MOL0     H20588   9.906   6.629   6.540  0.4761 -2.6300  1.2214
  914MOL0     H20589   9.788   6.878   6.691  0.0248 -2.8301  2.3181
  914MOL0     H20590   9.704   6.755   6.618 -0.2206  0.5543  0.7887
  914MOL0     H20591   9.846   6.967   6.453  1.1299 -1.0301 -0.1719
  914MOL0     H20592   9.806   6.812   6.382 -2.1619 -1.5993  0.0127
  914MOL0     H20593   9.570   6.840   6.409 -4.4579  2.4808 -1.5278
  914MOL0     H20594   9.629   7.002   6.365 -1.4023  2.0581  2.3320
  914MOL0     H20595   9.648   7.077   6.595  0.4186  1.0462 -0.3848
  914MOL0     H20596   9.566   6.934   6.663 -2.7115 -0.5307 -0.7477
  914MOL0     H20597   9.433   7.097   6.439  1.1250 -1.3795 -0.6827
  914MOL0     H20598   9.368   6.963   6.531  2.2402 -0.4370 -2.0409
  914MOL0     H20599   9.420   7.246   6.634  0.2895  0.6736 -0.6907
  914MOL0     H20600   9.357   7.116   6.735  0.0260  3.8399  0.9634
  914MOL0     H20601   9.130   7.000   6.610 -0.0670  1.3262  2.3511
  914MOL0     H20602   8.847   7.126   6.388 -1.6155 -1.4055  0.6966
  914MOL0     H20603   8.810   7.225   6.529 -0.2056 -1.7332  3.3572
  914MOL0     H20604   8.816   7.062   6.679  1.7555  0.6089  0.4033
  914MOL0     H20605   8.879   6.942   6.559 -0.3925 -0.4397  1.2896
  914MOL0     H20606   8.624   7.107   6.502 -1.9961 -1.4411 -2.6345
  914MOL0     H20607   8.680   6.939   6.444 -1.9037 -0.5211 -0.6240
  914MOL0     H20608   8.493   6.903   6.575 -0.4239  0.2425  1.4149
  914MOL0     H20609   8.563   7.003   6.716 -0.6896 -0.3846  0.8806
  914MOL0     H20610   8.817   6.643   6.770  0.0673 -0.6186 -0.4062
  914MOL0     H20611   8.752   6.416   6.844  1.5949  1.7725 -3.1160
  914MOL0     H20612   8.373   6.160   7.037  0.2795 -0.6844  0.4286
  914MOL0     H20613   8.322   5.923   7.117  1.3028 -1.1149 -0.4698
  914MOL0     H20614   8.600   5.784   7.264 -0.2356  0.2765 -1.0507
  914MOL0     H20615   8.575   5.602   7.254 -2.9163 -1.9444  4.6021
  914MOL0     H20616   8.364   5.789   7.342 -0.4551 -1.0627 -0.1385
  914MOL0     H20617   8.466   5.690   7.445 -2.3854  0.2612  0.9025
  914MOL0     H20618   8.301   5.540   7.429  2.3334 -2.0324 -0.2072
  914MOL0     H20619   8.404   5.491   7.308 -0.2317 -0.3873 -0.6134
  914MOL0     H20620   8.169   5.679   7.252 -0.9685 -1.2758  2.1026
  914MOL0     H20621   8.264   5.591   7.129 -2.3382  0.5693 -1.1613
  914MOL0     H20622   8.086   5.457   7.337 -1.2206 -4.6183 -0.1534
  914MOL0     H20623   8.199   5.377   7.235  1.7604  0.9746  1.7986
  914MOL0     H20624   8.080   5.427   7.022  1.1954 -1.6511  1.1871
  914MOL0     H20625   7.952   5.516   7.118 -0.7001 -0.1061  0.9394
  914MOL0     H20626   8.002   5.225   7.169  1.0862  0.9405  0.6792
  914MOL0     H20627   7.895   5.328   7.251  0.5589  0.1015  0.1662
  914MOL0     H20628   7.785   5.394   7.032 -1.7413 -2.0971 -1.8472
  914MOL0     H20629   7.752   5.238   7.095 -1.4034  2.6561  0.3671
  914MOL0     H20630   8.701   5.788   6.956 -0.9727 -2.4260 -0.2436
  914MOL0     H20631   8.729   6.054   6.895 -1.0065  1.1820  0.0844
  914MOL0     H20632   8.330   6.528   6.800 -0.9498  2.6239 -3.6120
  914MOL0     H20633   8.405   6.753   6.714  3.6777  1.9134 -3.0389
  914MOL0     H20634   9.988   7.006   6.874  0.5771  0.2767 -0.4916
  914MOL0     H20635  10.150   7.077   7.071  0.9942  2.1706 -2.0710
  914MOL0     H20636  10.734   6.852   7.276  1.3226  0.4580 -0.0675
  914MOL0     H20637  10.842   6.952   7.465  2.5949  2.2272 -2.5083
  914MOL0     H20638  10.928   7.073   7.634 -0.1706 -1.4184 -1.0659
  914MOL0     H20639  10.824   6.943   7.676  1.8310 -0.0948 -0.8638
  914MOL0     H20640  10.837   7.193   7.847 -1.0845 -0.5152  2.3525
  914MOL0     H20641  10.730   7.050   7.879  0.0346 -1.8138 -0.6056
  914MOL0     H20642  11.027   7.075   7.884  0.8771 -1.2454  0.5963
  914MOL0     H20643  10.936   6.927   7.912 -0.5087  0.7382 -3.2107
  914MOL0     H20644  11.020   7.063   8.132 -0.8599 -3.2918  0.5398
  914MOL0     H20645  10.902   7.193   8.070 -2.1827 -0.8895  0.9038
  914MOL0     H20646  10.652   6.871   8.226 -1.3182  0.5287 -0.8438
  914MOL0     H20647  10.496   7.185   7.529 -0.6467  2.5807 -3.9178
  914MOL0     H20648  10.390   7.095   7.324 -0.5444  0.3071  0.1604
  915MOL0     O20649   2.309   9.709   6.031  0.3871  0.4468 -0.1951
  915MOL0     C20650   2.348   9.775   5.944  0.4818  0.1315  0.4462
  915MOL0     O20651   2.263   9.823   5.839 -0.7255 -0.2432 -0.3329
  915MOL0     C20652   2.123   9.818   5.841  0.5104 -0.0822 -0.0475
  915MOL0     C20653   2.032   9.779   5.943 -0.0514  0.6517  0.1411
  915MOL0     C20654   1.895   9.764   5.925  0.3735 -0.7532  0.2265
  915MOL0     C20655   1.838   9.790   5.797 -0.7182 -0.1276  0.7701
  915MOL0     O20656   1.703   9.788   5.768  0.6776 -0.4000  0.2195
  915MOL0     C20657   1.614   9.742   5.868 -0.0452 -0.4141 -0.0907
  915MOL0     C20658   1.607   9.582   5.863 -0.1033 -0.4525 -0.2322
  915MOL0     C20659   1.522   9.534   5.973 -0.1016  0.1311 -0.4018
  915MOL0     C20660   1.572   9.391   6.005 -0.4947 -0.2215  0.3413
  915MOL0     C20661   1.553   9.288   5.900 -0.1641  0.5295  0.2716
  915MOL0     C20662   1.572   9.141   5.937 -0.2003 -1.1844 -0.6548
  915MOL0     C20663   1.460   9.097   6.037  0.1368  0.0569 -0.7344
  915MOL0     C20664   1.460   8.948   6.058  0.3016  0.2083  0.6194
  915MOL0     N20665   1.405   8.871   5.945 -0.7260 -0.4373 -0.2839
  915MOL0     C20666   1.276   8.855   5.903 -0.6283  0.6520  0.1409
  915MOL0     C20667   1.285   8.747   5.816  0.6417  0.6378 -0.9264
  915MOL0     C20668   1.168   8.704   5.736  0.2068 -0.0933 -0.7866
  915MOL0     C20669   1.032   8.687   5.812 -0.4638  0.9383  0.8254
  915MOL0     C20670   0.920   8.637   5.725  0.5614  0.2292  1.4798
  915MOL0     C20671   0.795   8.606   5.799 -0.0060 -0.1224 -0.4850
  915MOL0     O20672   0.816   8.516   5.907 -0.6261  0.2059 -0.1189
  915MOL0     C20673   0.722   8.422   5.925 -0.9431 -0.0396 -0.5004
  915MOL0     C20674   0.586   8.439   5.924  0.7233  0.2703  0.7708
  915MOL0     C20675   0.496   8.333   5.932 -0.1200  0.7855  0.5852
  915MOL0     C20676   0.548   8.202   5.936  0.6090 -0.0379 -1.7027
  915MOL0     C20677   0.452   8.084   5.932 -0.1789 -0.7905 -0.4305
  915MOL0     O20678   0.510   7.961   5.946  0.0240  0.3592  0.0754
  915MOL0     C20679   0.421   7.850   5.980 -0.4145  0.0081  0.0852
  915MOL0     C20680   0.422   7.774   6.097  0.1113 -0.3185 -1.0037
  915MOL0     C20681   0.324   7.679   6.132 -0.1600 -0.1819 -0.8821
  915MOL0     C20682   0.230   7.644   6.035  0.7766  0.5410  0.1306
  915MOL0     O20683   0.127   7.545   6.071 -0.5807 -0.5522 -0.0562
  915MOL0     C20684  -0.012   7.592   6.044 -0.3619 -0.0058 -0.7643
  915MOL0     C20685  -0.053   7.518   5.920  0.8630  0.0211  0.8760
  915MOL0     C20686  -0.040   7.367   5.936  0.0111  0.2241  0.5412
  915MOL0     C20687  -0.085   7.291   5.807  0.8950  0.7829 -0.4784
  915MOL0     C20688  -0.231   7.313   5.777  0.4629 -0.0214 -0.2244
  915MOL0     C20689  -0.273   7.237   5.647  0.3011  0.3489 -0.4124
  915MOL0     C20690  -0.391   7.315   5.577  1.2118  0.9828  0.5275
  915MOL0     C20691  -0.489   7.226   5.503 -0.4689  1.4991  0.1994
  915MOL0    Cl20692  -0.599   7.333   5.425 -0.2490  0.0207  0.4052
  915MOL0     C20693   0.242   7.705   5.901  0.3999 -0.2866  0.2924
  915MOL0     C20694   0.334   7.806   5.886  0.1966 -0.7299  0.5423
  915MOL0     O20695   0.334   8.098   5.908  0.4672 -0.7212 -0.0578
  915MOL0     C20696   0.694   8.189   5.948  0.2435  0.5646  1.1153
  915MOL0     C20697   0.775   8.300   5.954 -0.1095  0.7914 -0.5801
  915MOL0     N20698   1.410   8.713   5.799 -0.9587  0.3336  0.8952
  915MOL0     N20699   1.481   8.777   5.878 -0.4940  0.1651 -0.7435
  915MOL0     C20700   1.924   9.848   5.705 -1.1075 -0.3016 -0.3337
  915MOL0     C20701   2.064   9.853   5.721 -0.0694 -0.3984 -0.2152
  915MOL0     C20702   2.494   9.791   5.930  0.8042  0.2940 -0.9907
  915MOL0     C20703   2.550   9.800   5.800  0.1029  0.3573  0.3273
  915MOL0     C20704   2.688   9.819   5.790  0.1774 -0.0866  0.8482
  915MOL0     C20705   2.762   9.830   5.903  0.1689 -0.1349  0.4720
  915MOL0     O20706   2.897   9.873   5.889 -0.2483 -0.7778 -0.9252
  915MOL0     C20707   2.956   9.915   6.014  1.2402 -0.9834 -1.2242
  915MOL0     C20708   3.102   9.952   5.997 -0.3958  0.0562  0.0837
  915MOL0     C20709   3.182   9.821   5.982 -0.2376 -1.0058  0.1633
  915MOL0     C20710   3.312   9.840   5.910 -0.1106  0.2957 -0.6307
  915MOL0     C20711   3.296   9.772   5.779 -0.6997  0.0415 -0.2463
  915MOL0     C20712   3.306   9.707   5.678 -0.6758 -0.1085 -0.3509
  915MOL0     C20713   2.703   9.818   6.030  0.8665  0.7481 -0.3346
  915MOL0     C20714   2.569   9.795   6.055 -0.0984 -0.1273  1.0800
  915MOL0     H20715   2.072   9.724   6.028  1.6141 -1.6321 -1.9821
  915MOL0     H20716   1.836   9.712   6.000  0.3572  2.0423  2.3139
  915MOL0     H20717   1.516   9.785   5.841  0.9417  1.6643 -0.5894
  915MOL0     H20718   1.624   9.778   5.970  0.8808  1.5036 -0.8058
  915MOL0     H20719   1.705   9.533   5.872 -0.5823 -1.3336  0.3764
  915MOL0     H20720   1.559   9.542   5.773 -1.5552  0.6229  0.0337
  915MOL0     H20721   1.422   9.535   5.928 -0.1748  0.7071 -0.2357
  915MOL0     H20722   1.531   9.602   6.058  2.3718 -0.6560  0.0379
  915MOL0     H20723   1.678   9.392   6.030 -0.6520 -1.2274  1.0810
  915MOL0     H20724   1.512   9.373   6.095 -0.5949  0.6703  0.4644
  915MOL0     H20725   1.613   9.316   5.813 -1.1150 -1.1159 -0.9801
  915MOL0     H20726   1.449   9.295   5.867 -0.0152  4.3070  0.2172
  915MOL0     H20727   1.668   9.127   5.987 -1.2108  2.2437  2.6565
  915MOL0     H20728   1.563   9.074   5.851 -1.7932  0.4254 -1.8147
  915MOL0     H20729   1.482   9.136   6.137  0.9744 -0.9449 -0.5134
  915MOL0     H20730   1.359   9.127   6.006 -0.3794  0.5292  1.2290
  915MOL0     H20731   1.409   8.926   6.151  0.2537 -2.0426  0.1239
  915MOL0     H20732   1.564   8.915   6.064  0.3299 -0.5497 -2.2795
  915MOL0     H20733   1.190   8.911   5.939 -0.8417  0.8108 -0.5972
  915MOL0     H20734   1.203   8.616   5.680 -0.7257 -0.6573 -0.5052
  915MOL0     H20735   1.152   8.786   5.666 -1.6629  0.2272 -0.0221
  915MOL0     H20736   1.002   8.783   5.854 -0.2488 -0.0279  3.4218
  915MOL0     H20737   1.040   8.606   5.885  1.3550 -1.1757 -1.5225
  915MOL0     H20738   0.908   8.715   5.650  1.2884 -0.1417  0.9643
  915MOL0     H20739   0.949   8.543   5.677  0.7178 -0.4072  2.7654
  915MOL0     H20740   0.718   8.573   5.730 -1.9246 -0.8805  1.8663
  915MOL0     H20741   0.756   8.701   5.836 -1.4412  0.5250 -3.3786
  915MOL0     H20742   0.549   8.541   5.926  0.3928  0.3141 -2.5525
  915MOL0     H20743   0.391   8.348   5.910 -0.4551 -2.8098 -0.9276
  915MOL0     H20744   0.502   7.786   6.170 -0.0354  0.7442 -1.0086
  915MOL0     H20745   0.333   7.643   6.234 -1.2322 -1.5742 -1.2460
  915MOL0     H20746  -0.014   7.701   6.033  1.9338  0.0722 -0.9126
  915MOL0     H20747  -0.084   7.559   6.119  1.3979  0.2640  1.1546
  915MOL0     H20748  -0.002   7.565   5.836 -0.4564 -0.0362  0.0093
  915MOL0     H20749  -0.159   7.540   5.909  0.5765 -1.7234 -0.3058
  915MOL0     H20750  -0.096   7.329   6.022  1.3159 -1.2108  0.8012
  915MOL0     H20751   0.063   7.337   5.959  0.8920  1.4378 -1.5484
  915MOL0     H20752  -0.020   7.312   5.721  1.1506  0.2020 -0.4312
  915MOL0     H20753  -0.070   7.183   5.817  1.4584  0.9301  0.3392
  915MOL0     H20754  -0.242   7.420   5.757  2.5133  0.9092  2.8093
  915MOL0     H20755  -0.289   7.278   5.863  1.7973 -0.1215  0.6736
  915MOL0     H20756  -0.292   7.131   5.666 -1.5905  0.0034 -3.5234
  915MOL0     H20757  -0.186   7.235   5.580 -0.3108 -1.1589 -1.2074
  915MOL0     H20758  -0.442   7.381   5.648  0.3492  0.1897  0.6630
  915MOL0     H20759  -0.345   7.387   5.508  3.3643 -1.0054 -0.2479
  915MOL0     H20760  -0.551   7.165   5.569 -0.1370 -1.2764 -1.8478
  915MOL0     H20761  -0.450   7.158   5.427 -1.4951  0.3364  0.6848
  915MOL0     H20762   0.170   7.681   5.824 -0.0740  0.7829  0.3948
  915MOL0     H20763   0.310   7.867   5.799 -0.0423  0.4585  1.4081
  915MOL0     H20764   0.747   8.095   5.961 -3.8616 -2.3794 -1.1138
  915MOL0     H20765   0.883   8.304   5.964 -0.3159  1.0423  2.1967
  915MOL0     H20766   1.882   9.891   5.615 -0.6194 -1.4944 -1.1619
  915MOL0     H20767   2.122   9.888   5.636 -0.1719  0.9499  0.2401
  915MOL0     H20768   2.501   9.800   5.703  2.4505 -0.6942 -0.9448
  915MOL0     H20769   2.735   9.826   5.692  1.6276 -0.2256  1.5151
  915MOL0     H20770   2.955   9.856   6.106  0.5769 -0.7581 -1.0798
  915MOL0     H20771   2.904  10.008   6.040  2.3759 -0.6341 -0.0897
  915MOL0     H20772   3.116  10.017   5.910 -1.1585  1.2718  0.8266
  915MOL0     H20773   3.145   9.996   6.088  2.1264  0.1863 -1.1085
  915MOL0     H20774   3.118   9.740   5.946 -0.6987 -2.2226  3.3165
  915MOL0     H20775   3.216   9.797   6.084 -0.2526 -1.4103  0.0763
  915MOL0     H20776   3.343   9.938   5.872 -1.2628  0.6097 -0.8087
  915MOL0     H20777   3.397   9.797   5.964  0.9920  0.4392 -2.1667
  915MOL0     H20778   3.319   9.642   5.594  0.5333 -0.4768  0.1033
  915MOL0     H20779   2.761   9.837   6.120  1.3218  4.2478 -1.2167
  915MOL0     H20780   2.519   9.786   6.151  2.1169 -2.9246  2.0807
  916MOL0     O20781   0.442   4.027   2.952 -0.0533 -0.2414  0.1956
  916MOL0     C20782   0.510   4.128   2.955 -0.1756  0.5965 -0.3733
  916MOL0     O20783   0.472   4.254   3.000 -0.4584  0.1635 -0.1010
  916MOL0     C20784   0.343   4.287   2.975  1.0325  0.0930 -0.0985
  916MOL0     C20785   0.270   4.334   3.083  0.6216  0.0330 -0.8523
  916MOL0     C20786   0.143   4.394   3.064  0.5516 -0.0467 -0.8969
  916MOL0     C20787   0.085   4.400   2.936 -0.6713 -0.5703  0.0659
  916MOL0     O20788  -0.032   4.469   2.944  0.3094 -0.0410  0.0393
  916MOL0     C20789  -0.056   4.550   2.825  0.2752  0.2900  0.7158
  916MOL0     C20790  -0.175   4.643   2.861 -0.1801 -0.1432  0.1576
  916MOL0     C20791  -0.145   4.726   2.986 -0.0019 -0.0148  0.0456
  916MOL0     C20792  -0.244   4.840   2.998 -0.2250  0.8063 -1.1234
  916MOL0     C20793  -0.371   4.790   3.066  0.6353 -0.6324 -0.5423
  916MOL0     C20794  -0.474   4.900   3.062  0.1484 -0.2778  0.4346
  916MOL0     C20795  -0.597   4.867   3.151  0.3377  0.2022  0.6950
  916MOL0     C20796  -0.700   4.972   3.132  0.1386 -0.1104  0.0145
  916MOL0     N20797  -0.822   4.940   3.205 -1.1032 -0.0255 -0.0613
  916MOL0     C20798  -0.870   4.987   3.325  0.2927 -1.0089 -0.0036
  916MOL0     C20799  -0.997   4.932   3.329  0.0696 -0.1572  0.6168
  916MOL0     C20800  -1.101   4.947   3.433 -0.3739 -0.1696 -0.4125
  916MOL0     C20801  -1.205   5.054   3.408 -0.3255  0.9942 -1.0689
  916MOL0     C20802  -1.263   5.038   3.263  0.4305  0.7257  0.1590
  916MOL0     C20803  -1.389   5.123   3.236 -0.6967 -0.7269 -0.5012
  916MOL0     O20804  -1.375   5.253   3.298 -0.1632  0.0795 -0.4964
  916MOL0     C20805  -1.499   5.317   3.317 -0.5941 -0.6076  0.6286
  916MOL0     C20806  -1.528   5.418   3.225  0.3098 -0.7617 -0.5881
  916MOL0     C20807  -1.663   5.463   3.219 -0.6387 -0.7108 -0.0985
  916MOL0     C20808  -1.761   5.423   3.315 -0.6002 -0.8550 -1.2684
  916MOL0     C20809  -1.900   5.470   3.313 -0.2133 -0.3048  0.9442
  916MOL0     O20810  -1.978   5.441   3.414 -0.4021  0.6854  0.1784
  916MOL0     C20811  -2.114   5.459   3.430 -0.3651  0.3545  0.0661
  916MOL0     C20812  -2.172   5.491   3.556 -0.7340  0.6554 -0.3719
  916MOL0     C20813  -2.308   5.512   3.562  0.0543  0.5409 -0.4874
  916MOL0     C20814  -2.389   5.493   3.451 -0.3597 -0.2141  0.4067
  916MOL0     O20815  -2.528   5.487   3.456 -0.1875 -0.7388 -0.3872
  916MOL0     C20816  -2.601   5.535   3.573  0.9937 -0.2414  0.2435
  916MOL0     C20817  -2.705   5.632   3.502 -0.6335 -0.3355 -0.2515
  916MOL0     C20818  -2.790   5.701   3.608  0.1320  0.3582 -0.9567
  916MOL0     C20819  -2.919   5.765   3.555 -0.1682  0.0178 -0.6789
  916MOL0     C20820  -2.996   5.850   3.659  0.5349 -0.4777 -0.5587
  916MOL0     C20821  -3.128   5.911   3.600 -0.5014  1.0340 -1.0902
  916MOL0     C20822  -3.200   6.007   3.691 -0.4956  1.1143  0.2200
  916MOL0     C20823  -3.130   6.141   3.695  0.4899 -0.0377  0.1699
  916MOL0    Cl20824  -2.995   6.165   3.813  0.3213  0.3401 -0.3658
  916MOL0     C20825  -2.336   5.479   3.322 -0.0313 -0.0416  0.3018
  916MOL0     C20826  -2.200   5.460   3.318 -0.4939 -0.3634 -0.4989
  916MOL0     O20827  -1.932   5.545   3.220  0.3172  0.1974  0.1315
  916MOL0     C20828  -1.728   5.335   3.414  0.1256 -0.4710 -1.2255
  916MOL0     C20829  -1.601   5.283   3.413 -0.8505 -0.5748 -0.2283
  916MOL0     N20830  -1.018   4.835   3.230  0.3627  0.3274  0.0122
  916MOL0     N20831  -0.910   4.847   3.155  0.9031 -0.2736  0.1730
  916MOL0     C20832   0.152   4.341   2.828  0.1904 -0.8395  0.7290
  916MOL0     C20833   0.279   4.285   2.848  1.4764 -0.0879 -0.0792
  916MOL0     C20834   0.647   4.111   2.912 -0.2158 -0.1544 -0.1579
  916MOL0     C20835   0.734   4.223   2.900 -0.2620 -0.0170 -0.0761
  916MOL0     C20836   0.864   4.200   2.883 -0.3119 -0.4920  1.0258
  916MOL0     C20837   0.918   4.070   2.862 -0.0991 -0.5835  0.3274
  916MOL0     O20838   1.054   4.058   2.868  0.4022 -0.3754  0.3958
  916MOL0     C20839   1.100   3.972   2.761  0.5857  0.2257 -0.2274
  916MOL0     C20840   1.251   3.984   2.748 -0.7237  0.0792  0.1461
  916MOL0     C20841   1.310   4.132   2.755 -0.3554 -0.2856 -0.5669
  916MOL0     C20842   1.456   4.141   2.777 -0.3068  0.0665  0.2770
  916MOL0     C20843   1.529   4.107   2.657  0.2977 -0.8234 -0.3669
  916MOL0     C20844   1.584   4.070   2.556  1.0502 -0.2548 -0.0877
  916MOL0     C20845   0.834   3.961   2.868 -0.8398 -0.4415  0.7147
  916MOL0     C20846   0.695   3.979   2.894 -0.1602  0.1543  0.1677
  916MOL0     H20847   0.303   4.347   3.185  0.0219  3.1598 -0.9665
  916MOL0     H20848   0.095   4.431   3.154 -0.3038 -1.1836 -0.8689
  916MOL0     H20849  -0.094   4.485   2.746 -0.2489  2.2768 -0.7377
  916MOL0     H20850   0.034   4.607   2.802  0.9282 -1.5597 -1.7881
  916MOL0     H20851  -0.257   4.576   2.887 -1.6569  1.1846 -0.8836
  916MOL0     H20852  -0.203   4.699   2.771 -1.3328 -0.1379  0.5118
  916MOL0     H20853  -0.047   4.768   2.962 -0.6438 -0.4600 -4.1255
  916MOL0     H20854  -0.138   4.665   3.076  0.3951  2.4153  1.7572
  916MOL0     H20855  -0.204   4.907   3.076  2.7523  0.0692 -1.8740
  916MOL0     H20856  -0.274   4.898   2.910 -2.2922  2.8941  0.7962
  916MOL0     H20857  -0.342   4.765   3.169  1.3376 -0.5285 -0.7084
  916MOL0     H20858  -0.411   4.699   3.020 -1.6182 -1.1222  2.0840
  916MOL0     H20859  -0.509   4.926   2.962  1.2205  1.3219  0.4527
  916MOL0     H20860  -0.424   4.993   3.088  1.8030  1.0612 -5.9227
  916MOL0     H20861  -0.631   4.769   3.117 -0.0700  0.3905  0.5482
  916MOL0     H20862  -0.584   4.865   3.259 -4.3627  4.0386  1.6621
  916MOL0     H20863  -0.725   4.985   3.026  0.4628  0.9395  0.0542
  916MOL0     H20864  -0.650   5.060   3.174 -1.3659 -0.2564  2.2654
  916MOL0     H20865  -0.834   5.061   3.396 -0.5396  1.9007 -2.4319
  916MOL0     H20866  -1.063   4.962   3.534 -3.9874  0.0078  1.0577
  916MOL0     H20867  -1.161   4.857   3.444  1.5531 -1.2378  2.4120
  916MOL0     H20868  -1.157   5.152   3.403 -1.1659  1.3873 -1.8449
  916MOL0     H20869  -1.287   5.062   3.480 -2.7326  1.6921 -3.6575
  916MOL0     H20870  -1.191   5.074   3.189 -0.2352  2.9170  0.5039
  916MOL0     H20871  -1.284   4.932   3.246  0.1188  0.3289  2.6742
  916MOL0     H20872  -1.467   5.070   3.292  1.3290 -1.4302  1.8697
  916MOL0     H20873  -1.401   5.121   3.127  0.7658 -1.4634 -0.6785
  916MOL0     H20874  -1.453   5.462   3.160 -0.2989  0.4691 -0.4847
  916MOL0     H20875  -1.696   5.537   3.146 -0.7546 -0.0266  0.6334
  916MOL0     H20876  -2.110   5.492   3.645 -3.2289 -0.2044  1.4991
  916MOL0     H20877  -2.352   5.539   3.657 -3.0077 -1.7302 -1.1059
  916MOL0     H20878  -2.551   5.584   3.657 -0.1597  0.7159  0.3888
  916MOL0     H20879  -2.665   5.454   3.609 -0.5834  0.0286 -1.7797
  916MOL0     H20880  -2.758   5.569   3.430 -1.8282 -0.6195  0.8390
  916MOL0     H20881  -2.656   5.706   3.437 -1.9613  2.2790  1.5460
  916MOL0     H20882  -2.731   5.779   3.656 -0.0590  0.3246 -0.6725
  916MOL0     H20883  -2.830   5.626   3.677  0.1963  1.7547  0.6515
  916MOL0     H20884  -2.879   5.837   3.483 -1.9435 -1.8964 -3.7941
  916MOL0     H20885  -2.982   5.702   3.493 -0.9736  0.4140 -0.2752
  916MOL0     H20886  -2.938   5.935   3.696 -1.6590  1.7520 -1.9052
  916MOL0     H20887  -3.022   5.794   3.749 -1.4461 -0.6485 -1.1908
  916MOL0     H20888  -3.195   5.829   3.573  0.8903 -0.7935  0.6399
  916MOL0     H20889  -3.087   5.958   3.510  1.0982 -0.4675 -1.2007
  916MOL0     H20890  -3.300   6.023   3.651  0.0381  0.9772 -1.2196
  916MOL0     H20891  -3.220   5.962   3.789  0.7297 -2.0356 -0.8311
  916MOL0     H20892  -3.199   6.220   3.729  1.1983  1.1376 -1.0466
  916MOL0     H20893  -3.093   6.164   3.595  1.1458 -0.3476  0.3331
  916MOL0     H20894  -2.396   5.464   3.233  1.2325 -1.3642 -0.3780
  916MOL0     H20895  -2.157   5.471   3.219 -1.6675  0.5079 -0.9346
  916MOL0     H20896  -1.797   5.294   3.488  1.4800  0.5064  0.6566
  916MOL0     H20897  -1.576   5.216   3.495 -0.9037 -0.5627 -0.2023
  916MOL0     H20898   0.108   4.333   2.729 -1.3422 -0.0055  1.3009
  916MOL0     H20899   0.334   4.246   2.763  1.4204 -2.0710  0.7550
  916MOL0     H20900   0.700   4.324   2.921 -2.8325 -0.6378 -0.9079
  916MOL0     H20901   0.940   4.277   2.891 -0.1397 -0.4073 -0.9778
  916MOL0     H20902   1.047   3.999   2.669 -1.7225 -0.7407  0.7224
  916MOL0     H20903   1.076   3.867   2.780  2.7163 -0.2636 -0.0409
  916MOL0     H20904   1.301   3.914   2.816 -1.1520 -1.9782 -1.5491
  916MOL0     H20905   1.279   3.947   2.649  0.8821  0.1346  0.5556
  916MOL0     H20906   1.279   4.188   2.844 -0.9222 -0.2601 -0.7778
  916MOL0     H20907   1.273   4.192   2.671  0.9279  3.0148  1.0467
  916MOL0     H20908   1.493   4.243   2.795 -1.2397  0.9182 -2.1575
  916MOL0     H20909   1.493   4.076   2.856 -0.4839  2.4826  2.4679
  916MOL0     H20910   1.629   4.018   2.473  0.2102 -0.0015 -0.7200
  916MOL0     H20911   0.870   3.858   2.877  1.7917  0.2883 -0.4775
  916MOL0     H20912   0.649   3.881   2.905  1.4944 -1.0068 -2.3557
  917MOL0     O20913  10.177   8.663  10.192 -1.0713  0.7236 -0.3605
  917MOL0     C20914  10.223   8.555  10.149  0.5470 -0.2016 -0.3822
  917MOL0     O20915  10.182   8.483  10.041  0.0737  0.1083  0.0275
  917MOL0     C20916  10.058   8.507   9.983  0.1081 -0.1598 -0.5327
  917MOL0     C20917   9.955   8.597  10.022 -0.6295  0.0355  0.0307
  917MOL0     C20918   9.840   8.617   9.947 -0.4888 -0.6247 -0.8591
  917MOL0     C20919   9.820   8.540   9.828  0.5986 -0.6938 -0.2608
  917MOL0     O20920   9.705   8.554   9.746 -0.8481  0.1581  0.0031
  917MOL0     C20921   9.614   8.661   9.771 -0.0730  0.1282 -0.1804
  917MOL0     C20922   9.491   8.644   9.689 -0.1530  0.2805 -0.7071
  917MOL0     C20923   9.395   8.765   9.680  0.3581  0.8042 -0.7927
  917MOL0     C20924   9.274   8.707   9.606 -0.3614  0.7428  0.5531
  917MOL0     C20925   9.173   8.821   9.599  0.9676 -0.7276 -1.2161
  917MOL0     C20926   9.032   8.765   9.603  1.0950 -0.5965  0.2033
  917MOL0     C20927   9.001   8.717   9.453  0.3311  0.7327 -0.3680
  917MOL0     C20928   8.866   8.644   9.448 -0.0553  0.6936  0.6457
  917MOL0     N20929   8.739   8.723   9.441  0.3016  0.5494  0.1063
  917MOL0     C20930   8.724   8.855   9.468  0.0924 -0.3133 -0.5358
  917MOL0     C20931   8.593   8.878   9.494 -0.0211 -0.7860  0.2512
  917MOL0     C20932   8.518   9.003   9.533  0.0690 -0.0586  0.3298
  917MOL0     C20933   8.421   9.034   9.423  0.0510 -0.4574  0.8320
  917MOL0     C20934   8.319   9.148   9.461  0.3817 -1.3473  0.6991
  917MOL0     C20935   8.249   9.207   9.336 -0.3633 -0.1303 -0.2379
  917MOL0     O20936   8.174   9.321   9.360  0.6178 -0.0860  0.4199
  917MOL0     C20937   8.040   9.301   9.390  0.1571 -0.2175 -0.3280
  917MOL0     C20938   7.943   9.354   9.311  0.2295  0.0718 -0.0427
  917MOL0     C20939   7.805   9.344   9.354 -0.0783 -0.0025  0.0069
  917MOL0     C20940   7.768   9.286   9.473  1.3331 -0.0213  0.8622
  917MOL0     C20941   7.625   9.280   9.512  0.3467  0.4661  0.7979
  917MOL0     O20942   7.538   9.354   9.433 -0.6623  0.4374 -0.0801
  917MOL0     C20943   7.405   9.367   9.460  0.4433 -0.7511  0.1261
  917MOL0     C20944   7.344   9.485   9.408  0.5324  0.0119 -0.9949
  917MOL0     C20945   7.210   9.502   9.419  0.7426  0.5398 -0.5137
  917MOL0     C20946   7.130   9.397   9.472 -0.4745 -0.4518  0.2001
  917MOL0     O20947   6.997   9.436   9.473  0.7053  0.5285  0.3640
  917MOL0     C20948   6.903   9.378   9.566  0.5009  0.3263 -0.9634
  917MOL0     C20949   6.787   9.482   9.568 -0.3513  1.0780  0.2729
  917MOL0     C20950   6.662   9.426   9.643  0.7770 -0.1013 -0.5103
  917MOL0     C20951   6.539   9.518   9.648  0.1335  0.2158  0.2481
  917MOL0     C20952   6.408   9.446   9.629  0.0499  0.2973  0.0509
  917MOL0     C20953   6.303   9.555   9.615 -0.1487 -0.6491 -0.0145
  917MOL0     C20954   6.177   9.494   9.683  0.0594 -0.1769 -0.5469
  917MOL0     C20955   6.080   9.603   9.713  0.5672  0.0558 -0.6428
  917MOL0    Cl20956   5.942   9.540   9.812  0.1949  0.4515  0.4942
  917MOL0     C20957   7.193   9.278   9.526 -1.0651 -0.8695  0.2209
  917MOL0     C20958   7.330   9.264   9.516 -0.2544  0.2589 -0.6456
  917MOL0     O20959   7.597   9.221   9.613 -0.3946  0.1977 -0.3039
  917MOL0     C20960   7.866   9.231   9.561  0.3632 -0.1083  1.1122
  917MOL0     C20961   8.001   9.249   9.518  0.4714  1.3807 -0.5057
  917MOL0     N20962   8.530   8.754   9.501  0.1117 -0.0307  0.7179
  917MOL0     N20963   8.612   8.665   9.461 -0.9903 -0.3671 -0.2051
  917MOL0     C20964   9.919   8.462   9.783 -0.5134  0.2804 -0.6530
  917MOL0     C20965  10.026   8.427   9.872  0.2172  0.0795  0.7307
  917MOL0     C20966  10.344   8.508  10.217  0.8757  0.0389 -0.0496
  917MOL0     C20967  10.403   8.386  10.185  0.1448 -0.2322 -1.0838
  917MOL0     C20968  10.526   8.352  10.233 -0.0338  0.7228  0.1675
  917MOL0     C20969  10.594   8.428  10.323  0.2133 -1.1810 -0.3995
  917MOL0     O20970  10.713   8.383  10.385 -0.4649  0.4231  0.3812
  917MOL0     C20971  10.771   8.261  10.342  0.4500 -0.0576  0.9898
  917MOL0     C20972  10.886   8.214  10.441 -0.0507 -0.1382 -0.2698
  917MOL0     C20973  10.824   8.225  10.586 -0.3947  1.0020  0.2301
  917MOL0     C20974  10.892   8.139  10.694  0.0651 -1.2577 -1.1387
  917MOL0     C20975  10.818   8.185  10.818  0.4449 -0.5337 -0.3606
  917MOL0     C20976  10.759   8.221  10.921 -0.7601  0.5639  0.8135
  917MOL0     C20977  10.539   8.555  10.350 -0.9113 -0.4253  0.6185
  917MOL0     C20978  10.417   8.599  10.294 -0.0803  0.4637  0.1149
  917MOL0     H20979   9.964   8.661  10.109  1.8660 -0.2515  0.0645
  917MOL0     H20980   9.772   8.696   9.977 -0.1848 -1.0660  1.1804
  917MOL0     H20981   9.653   8.762   9.753  0.7433  0.0754  1.1971
  917MOL0     H20982   9.579   8.650   9.874 -1.4093  0.8117 -0.5357
  917MOL0     H20983   9.423   8.571   9.734 -0.6199  0.4126 -1.1917
  917MOL0     H20984   9.507   8.608   9.588 -2.9269 -3.4891 -0.0414
  917MOL0     H20985   9.451   8.843   9.628  2.1487  0.1895  0.1296
  917MOL0     H20986   9.378   8.786   9.786 -0.5742 -0.1726 -0.7268
  917MOL0     H20987   9.298   8.667   9.507 -0.6131 -0.8892  1.1189
  917MOL0     H20988   9.239   8.620   9.662  1.4659  0.0225  0.6448
  917MOL0     H20989   9.187   8.880   9.508  2.7766  0.9321  0.0522
  917MOL0     H20990   9.187   8.881   9.690  2.1382  1.0019 -2.4780
  917MOL0     H20991   8.965   8.846   9.632  1.3297 -0.5311  0.5584
  917MOL0     H20992   9.024   8.686   9.679 -1.4444 -0.9285 -0.3001
  917MOL0     H20993   9.004   8.792   9.374  3.2288 -0.1374 -1.1976
  917MOL0     H20994   9.076   8.641   9.427 -1.2266 -0.9854 -0.0971
  917MOL0     H20995   8.868   8.582   9.538  1.6006 -2.6433 -1.4854
  917MOL0     H20996   8.858   8.566   9.371 -0.9015 -1.3033  2.6490
  917MOL0     H20997   8.804   8.928   9.474 -0.4683  0.2394  0.5743
  917MOL0     H20998   8.598   9.077   9.545 -0.4135  0.8955 -1.9277
  917MOL0     H20999   8.469   8.989   9.630 -1.0208 -0.2412 -0.2334
  917MOL0     H21000   8.369   8.943   9.393  1.1767 -0.8136 -0.0815
  917MOL0     H21001   8.484   9.065   9.339 -0.1501  0.8613  1.1380
  917MOL0     H21002   8.248   9.095   9.525  0.9274 -0.9103  1.7009
  917MOL0     H21003   8.367   9.227   9.520  0.1449 -1.9042  1.6708
  917MOL0     H21004   8.198   9.133   9.274  1.3792 -1.5100 -0.0975
  917MOL0     H21005   8.331   9.250   9.277 -0.8007 -0.1562 -0.8699
  917MOL0     H21006   7.972   9.393   9.214  2.2237  0.4433  0.6478
  917MOL0     H21007   7.734   9.382   9.281  0.8834 -0.4504 -1.1907
  917MOL0     H21008   7.407   9.563   9.367  0.4977  0.5989  0.0364
  917MOL0     H21009   7.170   9.601   9.398  1.9737  1.4017  0.9377
  917MOL0     H21010   6.943   9.360   9.666 -1.4592  1.8333  0.1617
  917MOL0     H21011   6.871   9.280   9.528 -2.0607  1.5487 -2.2219
  917MOL0     H21012   6.749   9.486   9.465 -0.0352 -1.1636  0.0190
  917MOL0     H21013   6.807   9.581   9.610  1.9751  0.3472  1.0349
  917MOL0     H21014   6.679   9.408   9.749 -1.2161  0.2663 -0.0989
  917MOL0     H21015   6.627   9.337   9.590 -4.2915  1.4756 -0.3943
  917MOL0     H21016   6.546   9.584   9.735 -1.9932 -1.1791  1.5468
  917MOL0     H21017   6.555   9.585   9.562 -5.8754  1.2826 -0.4697
  917MOL0     H21018   6.396   9.382   9.717  0.5834  2.8838  2.1680
  917MOL0     H21019   6.399   9.383   9.540 -2.4830  1.0950 -0.3282
  917MOL0     H21020   6.300   9.580   9.508 -0.4799 -0.6370 -0.0029
  917MOL0     H21021   6.333   9.636   9.681 -0.6805 -0.3788 -0.1002
  917MOL0     H21022   6.129   9.421   9.616  0.3034  0.9088 -1.9393
  917MOL0     H21023   6.213   9.455   9.778  1.5887  0.8739 -0.6628
  917MOL0     H21024   6.035   9.643   9.621 -1.1278 -1.8166 -0.6914
  917MOL0     H21025   6.127   9.687   9.765 -0.5808  0.5615 -0.3904
  917MOL0     H21026   7.139   9.189   9.555 -0.3354 -1.2245  0.5227
  917MOL0     H21027   7.375   9.176   9.561  1.1487  1.5856  0.7266
  917MOL0     H21028   7.850   9.190   9.660 -0.3727  2.2753  2.0364
  917MOL0     H21029   8.083   9.206   9.574 -1.2084 -0.5089  0.6128
  917MOL0     H21030   9.911   8.402   9.693 -3.7067 -0.4869  0.0206
  917MOL0     H21031  10.095   8.350   9.838  0.2532  0.0915  0.7781
  917MOL0     H21032  10.354   8.315  10.121 -1.6706  1.0392 -1.1788
  917MOL0     H21033  10.560   8.251  10.215 -1.4224  0.5765 -1.8834
  917MOL0     H21034  10.816   8.274  10.243  1.0503  1.5997  1.4401
  917MOL0     H21035  10.693   8.185  10.335 -1.1321  1.4817  1.2828
  917MOL0     H21036  10.923   8.116  10.409  0.9308  1.3721 -4.4297
  917MOL0     H21037  10.973   8.279  10.431 -0.5907  0.7721  0.7170
  917MOL0     H21038  10.719   8.195  10.591 -1.2842  3.1371 -2.9142
  917MOL0     H21039  10.825   8.332  10.608  1.0056  0.9349  0.6098
  917MOL0     H21040  10.876   8.033  10.674 -1.2286 -1.5610  1.1340
  917MOL0     H21041  10.998   8.156  10.716 -0.5046  0.4427  0.5478
  917MOL0     H21042  10.698   8.254  11.002 -0.8988 -2.4365  2.0600
  917MOL0     H21043  10.597   8.626  10.409  1.4138  0.0734 -2.0295
  917MOL0     H21044  10.363   8.690  10.320  2.2280  1.9813  0.0020
  918MOL0     O21045   2.472   9.049   8.692 -0.4385  0.6854 -0.6773
  918MOL0     C21046   2.429   9.145   8.753 -0.0779  0.6737  0.0736
  918MOL0     O21047   2.319   9.202   8.719  0.6356  0.0202 -0.8881
  918MOL0     C21048   2.217   9.161   8.638 -0.4972  0.7702 -0.1494
  918MOL0     C21049   2.176   9.027   8.618 -1.3297  0.2043 -0.2343
  918MOL0     C21050   2.066   8.977   8.548  0.3756  0.5417  0.7779
  918MOL0     C21051   1.991   9.074   8.475  0.6824  0.7216 -0.3858
  918MOL0     O21052   1.872   9.043   8.418  0.0663 -0.1075 -0.9074
  918MOL0     C21053   1.799   9.135   8.341  0.6928 -0.4385 -0.0278
  918MOL0     C21054   1.668   9.080   8.291 -0.6499 -0.8739 -0.1024
  918MOL0     C21055   1.582   9.013   8.395  0.5105 -0.2597  0.0320
  918MOL0     C21056   1.481   8.924   8.316 -0.0858  0.2093 -0.1279
  918MOL0     C21057   1.366   9.006   8.266  0.6241 -0.1612  0.1635
  918MOL0     C21058   1.255   8.920   8.190  0.2494  1.1089 -0.3363
  918MOL0     C21059   1.287   8.924   8.037  0.1853 -0.2331  0.3932
  918MOL0     C21060   1.230   9.055   7.980  1.1993 -0.3430 -0.4038
  918MOL0     N21061   1.082   9.053   7.990 -0.6993 -0.6915  1.1418
  918MOL0     C21062   1.000   8.969   7.923 -0.1055  0.2072  0.0303
  918MOL0     C21063   0.873   9.022   7.920 -0.0616 -0.8212  0.4845
  918MOL0     C21064   0.741   8.973   7.853  0.3635 -0.9059 -0.5952
  918MOL0     C21065   0.746   8.948   7.704  0.1762 -0.5998 -0.9821
  918MOL0     C21066   0.610   8.898   7.657  0.1373  0.1908  0.2284
  918MOL0     C21067   0.605   8.867   7.511  0.0516 -0.0066 -0.0423
  918MOL0     O21068   0.570   8.991   7.438 -0.9969 -0.6674 -0.6179
  918MOL0     C21069   0.528   8.985   7.307 -0.6221  0.2904  0.4065
  918MOL0     C21070   0.563   8.887   7.212 -0.3474 -0.6103 -0.4167
  918MOL0     C21071   0.517   8.883   7.084  0.1770  0.0703  0.2647
  918MOL0     C21072   0.420   8.977   7.040 -0.1107  0.7323  0.6796
  918MOL0     C21073   0.348   8.968   6.908  1.1262 -0.4461  0.4071
  918MOL0     O21074   0.265   9.073   6.864  0.2378  0.6217 -0.3065
  918MOL0     C21075   0.177   9.048   6.761  0.4817  0.3091 -1.0047
  918MOL0     C21076   0.199   9.046   6.620  0.5939  1.1280  0.4796
  918MOL0     C21077   0.095   9.043   6.523 -0.5738  1.2597 -0.0725
  918MOL0     C21078  -0.037   9.021   6.566 -1.0311  0.2238 -0.8226
  918MOL0     O21079  -0.122   9.036   6.462 -0.3799 -0.3677 -0.1439
  918MOL0     C21080  -0.265   9.021   6.486 -0.0107 -0.2991 -0.0899
  918MOL0     C21081  -0.319   9.034   6.345 -0.5009 -0.2955 -0.7049
  918MOL0     C21082  -0.478   9.039   6.347  0.9907 -0.0279  0.4944
  918MOL0     C21083  -0.544   8.900   6.308 -1.4710 -0.1201 -0.6960
  918MOL0     C21084  -0.703   8.900   6.318 -0.1156  0.6687 -0.0065
  918MOL0     C21085  -0.761   8.769   6.271  0.2206 -0.1413 -0.5658
  918MOL0     C21086  -0.911   8.756   6.295 -0.6645  0.1558 -0.0874
  918MOL0     C21087  -0.985   8.853   6.207 -0.1668 -0.0544 -0.5557
  918MOL0    Cl21088  -1.157   8.785   6.199  0.3883 -0.5521  0.0872
  918MOL0     C21089  -0.056   8.995   6.704 -0.1347 -0.2082  0.7414
  918MOL0     C21090   0.048   9.023   6.795  0.6222 -0.1158 -0.5358
  918MOL0     O21091   0.364   8.864   6.845 -0.3410  0.4461 -0.0454
  918MOL0     C21092   0.379   9.074   7.127  0.2631  0.2931  0.2955
  918MOL0     C21093   0.432   9.074   7.263  0.9352 -0.1603 -0.4865
  918MOL0     N21094   0.889   9.145   7.990 -0.0781  0.6871 -0.2916
  918MOL0     N21095   1.009   9.166   8.021 -0.1818  0.1057 -0.4889
  918MOL0     C21096   2.041   9.208   8.471 -0.4524 -0.9105 -0.7482
  918MOL0     C21097   2.142   9.253   8.560 -0.6068 -0.4823  0.1400
  918MOL0     C21098   2.492   9.190   8.880 -0.1154  0.0405  0.1225
  918MOL0     C21099   2.430   9.287   8.957 -0.9285 -0.5035 -0.2179
  918MOL0     C21100   2.485   9.339   9.078  0.5887 -0.0784  1.0838
  918MOL0     C21101   2.619   9.292   9.107  0.5914 -0.1661 -0.4707
  918MOL0     O21102   2.669   9.343   9.223 -0.5529  0.1911  0.5306
  918MOL0     C21103   2.782   9.277   9.291 -0.0527  0.4474 -0.3899
  918MOL0     C21104   2.903   9.351   9.236 -0.0838  1.2491 -0.2683
  918MOL0     C21105   3.032   9.277   9.286  0.2449  0.2759 -0.0517
  918MOL0     C21106   3.155   9.368   9.266 -0.2606  0.1909 -0.4260
  918MOL0     C21107   3.149   9.413   9.129  0.8732  0.3855  0.6331
  918MOL0     C21108   3.132   9.437   9.008  0.8557 -1.2425 -0.2966
  918MOL0     C21109   2.686   9.199   9.023 -0.2133 -0.3202 -0.4467
  918MOL0     C21110   2.622   9.147   8.906 -0.2815 -0.1803 -1.1331
  918MOL0     H21111   2.235   8.953   8.671 -2.1563 -0.6105 -0.4339
  918MOL0     H21112   2.041   8.871   8.547  3.1670 -0.2270 -0.6341
  918MOL0     H21113   1.856   9.169   8.254  0.6011  0.5687  0.2848
  918MOL0     H21114   1.763   9.219   8.403  1.5936  0.6972 -0.9878
  918MOL0     H21115   1.685   9.010   8.209 -0.7952 -1.3293  0.2522
  918MOL0     H21116   1.607   9.161   8.249 -0.6655 -1.6321 -1.6080
  918MOL0     H21117   1.529   9.089   8.452 -0.1549  2.6054 -4.0092
  918MOL0     H21118   1.647   8.955   8.461 -1.0564 -1.8216  0.3150
  918MOL0     H21119   1.528   8.883   8.227  0.8346  1.8333 -0.4151
  918MOL0     H21120   1.439   8.847   8.383  0.8768 -0.4931 -0.3070
  918MOL0     H21121   1.399   9.083   8.195 -1.3295 -0.0403 -0.7015
  918MOL0     H21122   1.309   9.046   8.351 -2.6920 -1.3149 -1.3166
  918MOL0     H21123   1.154   8.952   8.215  0.7516  0.9658  2.0927
  918MOL0     H21124   1.267   8.819   8.229 -0.0125  1.4957  0.7851
  918MOL0     H21125   1.393   8.930   8.013  0.1240  0.1759  0.2193
  918MOL0     H21126   1.231   8.838   7.999 -2.6713  1.8207 -0.3834
  918MOL0     H21127   1.258   9.039   7.875 -0.7499 -1.1257 -0.8419
  918MOL0     H21128   1.272   9.149   8.016  1.5764 -0.3130 -0.9141
  918MOL0     H21129   1.025   8.889   7.854 -2.4115 -1.1487  0.6376
  918MOL0     H21130   0.666   9.048   7.880 -1.0751 -1.7440 -2.1212
  918MOL0     H21131   0.712   8.883   7.907 -2.6300  1.5935  2.4175
  918MOL0     H21132   0.824   8.878   7.672  0.2065 -1.3144  0.5923
  918MOL0     H21133   0.761   9.047   7.659 -0.7557 -0.4435 -0.9646
  918MOL0     H21134   0.574   8.809   7.711  0.3628  0.5532  0.9899
  918MOL0     H21135   0.539   8.980   7.671 -0.5867 -0.0439 -1.8076
  918MOL0     H21136   0.525   8.798   7.480 -1.6340  1.4117  0.9610
  918MOL0     H21137   0.706   8.846   7.476  1.0706  2.3446  1.3103
  918MOL0     H21138   0.644   8.826   7.252  0.7022  0.9290 -0.1006
  918MOL0     H21139   0.552   8.806   7.016  1.3142 -0.2578  1.1954
  918MOL0     H21140   0.301   9.062   6.587  1.2302  0.0682  1.8231
  918MOL0     H21141   0.109   9.067   6.418 -0.2982  1.2367 -0.0396
  918MOL0     H21142  -0.294   9.096   6.561  1.3731  0.0639  0.1146
  918MOL0     H21143  -0.299   8.927   6.530  0.9793 -1.1556 -1.1150
  918MOL0     H21144  -0.281   8.953   6.282 -0.6232 -1.8829  1.1796
  918MOL0     H21145  -0.291   9.126   6.292  2.1411 -2.1123 -2.7015
  918MOL0     H21146  -0.513   9.113   6.275  1.1136 -0.1667  0.2912
  918MOL0     H21147  -0.511   9.081   6.442  3.3760  0.2498  1.2773
  918MOL0     H21148  -0.505   8.871   6.209 -1.2530  1.5894 -1.1430
  918MOL0     H21149  -0.501   8.835   6.385 -1.1146  3.0117  1.9586
  918MOL0     H21150  -0.736   8.995   6.274 -0.3410  1.1740  1.2047
  918MOL0     H21151  -0.720   8.915   6.425 -1.0828 -0.1263 -0.0395
  918MOL0     H21152  -0.713   8.684   6.321 -1.2939  0.7112  2.6642
  918MOL0     H21153  -0.750   8.763   6.163  0.5845 -0.2106 -0.5279
  918MOL0     H21154  -0.938   8.651   6.283 -2.0164  0.1448  2.3644
  918MOL0     H21155  -0.956   8.783   6.391 -1.4272 -2.4969  0.3853
  918MOL0     H21156  -0.938   8.869   6.110  1.0049  1.4556  0.2279
  918MOL0     H21157  -0.993   8.947   6.262  0.3842 -1.7464  2.6651
  918MOL0     H21158  -0.155   8.967   6.739 -0.5901  2.8710  2.3345
  918MOL0     H21159   0.029   9.025   6.902  3.6029 -0.5377  0.0896
  918MOL0     H21160   0.321   9.159   7.091  0.7597  1.4385  2.0542
  918MOL0     H21161   0.394   9.135   7.345  2.1730  0.5933 -0.4506
  918MOL0     H21162   1.987   9.284   8.415 -0.4486 -1.2575 -1.2268
  918MOL0     H21163   2.172   9.358   8.555 -2.9779  0.2973  0.9312
  918MOL0     H21164   2.323   9.306   8.950 -1.2479  0.5141  4.2082
  918MOL0     H21165   2.425   9.405   9.139 -1.4844  0.3527 -1.2581
  918MOL0     H21166   2.788   9.173   9.257  0.3071  0.0164  0.9191
  918MOL0     H21167   2.771   9.282   9.400 -0.3784  0.4906 -0.4247
  918MOL0     H21168   2.900   9.343   9.127 -1.3443 -0.9880 -0.1234
  918MOL0     H21169   2.914   9.454   9.272  3.1429 -0.0171  2.9835
  918MOL0     H21170   3.038   9.180   9.235 -0.2131  1.1833 -1.9019
  918MOL0     H21171   3.017   9.250   9.391  0.5570  1.1164  0.2117
  918MOL0     H21172   3.148   9.458   9.327  0.2886  0.6020 -0.9617
  918MOL0     H21173   3.244   9.308   9.288  1.6942  1.1391 -4.6906
  918MOL0     H21174   3.105   9.476   8.912 -0.4532  0.2479  0.6201
  918MOL0     H21175   2.787   9.164   9.042  1.2897  2.2161 -2.8567
  918MOL0     H21176   2.666   9.071   8.842 -2.0456  0.2248 -2.9202
  919MOL0     O21177  10.680   0.272   8.596 -0.4284 -0.1684 -0.4544
  919MOL0     C21178  10.686   0.186   8.685  0.5898  0.5612  0.8855
  919MOL0     O21179  10.572   0.146   8.756  0.2692  0.5247  0.4378
  919MOL0     C21180  10.447   0.208   8.765 -0.1229  0.4685  0.4486
  919MOL0     C21181  10.331   0.120   8.786 -0.1773 -1.0133  0.9751
  919MOL0     C21182  10.210   0.183   8.809 -1.0121  0.7885 -0.4280
  919MOL0     C21183  10.199   0.321   8.821  0.4370  0.4830  0.2313
  919MOL0     O21184  10.088   0.381   8.870 -0.4577  0.2471 -0.2342
  919MOL0     C21185   9.979   0.305   8.910 -0.0746  0.2855 -0.0169
  919MOL0     C21186   9.858   0.391   8.923 -0.1678  0.8629  0.2155
  919MOL0     C21187   9.733   0.336   9.001  0.3461  0.1801  0.0280
  919MOL0     C21188   9.605   0.422   8.975  0.1993  0.0770 -0.7374
  919MOL0     C21189   9.494   0.350   9.049 -0.2956  0.0073  0.2717
  919MOL0     C21190   9.355   0.408   9.014 -0.3346 -0.2828 -0.7081
  919MOL0     C21191   9.249   0.317   9.046 -0.3208  0.5023 -0.0337
  919MOL0     C21192   9.119   0.364   8.982  0.0875 -0.1347  0.2215
  919MOL0     N21193   9.047   0.464   9.065 -0.5812  0.2351  0.6612
  919MOL0     C21194   8.953   0.448   9.157 -0.1890  0.7034 -0.2375
  919MOL0     C21195   8.903   0.570   9.190  0.2514  0.2845  0.7970
  919MOL0     C21196   8.805   0.592   9.300 -1.0110  0.0235  0.1998
  919MOL0     C21197   8.661   0.565   9.272  0.1055 -0.2026  0.0268
  919MOL0     C21198   8.584   0.611   9.394 -0.5854  0.4209 -0.4059
  919MOL0     C21199   8.446   0.645   9.357 -0.2115  0.6691 -0.1801
  919MOL0     O21200   8.369   0.704   9.462  0.1942  0.3727  0.2905
  919MOL0     C21201   8.236   0.700   9.462  0.8957 -0.3052  0.6697
  919MOL0     C21202   8.150   0.628   9.376 -0.7912 -0.3798 -0.9231
  919MOL0     C21203   8.016   0.649   9.378  1.1907  0.7594  1.0353
  919MOL0     C21204   7.956   0.740   9.466 -1.4597 -0.1145 -0.4093
  919MOL0     C21205   7.813   0.777   9.451  0.0650  0.6292  0.6230
  919MOL0     O21206   7.766   0.901   9.491 -0.0541  0.0246 -0.3706
  919MOL0     C21207   7.628   0.933   9.478 -0.5382 -0.9309 -0.5483
  919MOL0     C21208   7.519   0.860   9.428 -0.0391  0.3476  0.1649
  919MOL0     C21209   7.390   0.916   9.428 -0.4482  1.0510  1.7504
  919MOL0     C21210   7.361   1.042   9.488 -1.5316  0.7603 -0.1774
  919MOL0     O21211   7.232   1.078   9.498 -0.6321 -0.5909 -1.0090
  919MOL0     C21212   7.198   1.219   9.491  0.7809 -0.1635  1.0884
  919MOL0     C21213   7.057   1.230   9.425  0.2062  0.6077 -0.2954
  919MOL0     C21214   6.954   1.149   9.502  0.7176 -0.7847 -0.4169
  919MOL0     C21215   6.812   1.160   9.446 -1.2879 -0.1080 -0.3660
  919MOL0     C21216   6.719   1.072   9.519  0.0274 -0.6924  0.0199
  919MOL0     C21217   6.576   1.099   9.489  0.4820  0.1013 -0.6540
  919MOL0     C21218   6.522   1.232   9.559  0.8679  0.0426  0.0163
  919MOL0     C21219   6.375   1.270   9.525  0.2089 -0.5543  0.0972
  919MOL0    Cl21220   6.276   1.139   9.605 -0.1788  0.1875 -0.1461
  919MOL0     C21221   7.466   1.114   9.543  0.2606 -0.0668  0.0899
  919MOL0     C21222   7.592   1.065   9.530  0.4849  0.1432 -0.0846
  919MOL0     O21223   7.743   0.697   9.393  0.3960  0.3170  0.2605
  919MOL0     C21224   8.034   0.809   9.558  0.2443 -0.0251  0.7710
  919MOL0     C21225   8.176   0.787   9.555  0.2718 -0.1604 -0.1749
  919MOL0     N21226   8.981   0.663   9.120  0.5391  0.4608 -0.5591
  919MOL0     N21227   9.066   0.600   9.045 -0.2142  0.0788  0.0631
  919MOL0     C21228  10.303   0.410   8.785 -0.0471 -0.5032  0.4915
  919MOL0     C21229  10.431   0.348   8.755  0.1606  0.5447 -0.1273
  919MOL0     C21230  10.814   0.106   8.689  0.2437 -0.4069 -1.5111
  919MOL0     C21231  10.837   0.014   8.794 -0.4536 -1.3081 -0.3048
  919MOL0     C21232  10.951  -0.062   8.791 -0.1018  0.3739  1.0474
  919MOL0     C21233  11.039  -0.055   8.676  0.3924  0.0633 -0.4573
  919MOL0     O21234  11.157  -0.118   8.691  0.2715  0.4331  1.2787
  919MOL0     C21235  11.274  -0.068   8.612 -0.0583  0.0347 -0.8292
  919MOL0     C21236  11.381  -0.177   8.593 -0.2197  0.3405 -0.6600
  919MOL0     C21237  11.511  -0.117   8.537  0.4307 -0.2014 -0.9693
  919MOL0     C21238  11.583  -0.039   8.631  0.4691 -0.0089  0.0377
  919MOL0     C21239  11.676   0.057   8.564  0.0087  0.7626 -0.1177
  919MOL0     C21240  11.757   0.128   8.524 -0.5282 -0.1573  0.9415
  919MOL0     C21241  11.022   0.047   8.578  0.0455  0.3960 -0.5561
  919MOL0     C21242  10.905   0.120   8.574  0.6532 -0.7812 -1.2321
  919MOL0     H21243  10.336   0.016   8.815 -0.4158 -1.6913 -1.2543
  919MOL0     H21244  10.117   0.129   8.817 -0.0781 -0.7854  0.0987
  919MOL0     H21245  10.005   0.253   9.003 -2.6707  2.8011  2.3448
  919MOL0     H21246   9.952   0.231   8.835 -0.6956 -1.1529  1.5516
  919MOL0     H21247   9.831   0.412   8.819  2.0114 -2.8297 -1.2736
  919MOL0     H21248   9.880   0.486   8.973 -0.3116  2.2078 -2.1397
  919MOL0     H21249   9.771   0.334   9.103 -0.6128  0.3553  0.3990
  919MOL0     H21250   9.709   0.239   8.956  0.2013  0.6266 -0.8885
  919MOL0     H21251   9.618   0.520   9.021  0.4697 -0.7147  0.9344
  919MOL0     H21252   9.575   0.438   8.871 -0.5793  0.0829 -0.5167
  919MOL0     H21253   9.516   0.357   9.156 -1.5743  1.1094  0.4894
  919MOL0     H21254   9.499   0.246   9.016 -2.2451 -0.6205  1.7403
  919MOL0     H21255   9.343   0.425   8.907 -1.9544 -0.9389 -0.6591
  919MOL0     H21256   9.351   0.502   9.071 -2.6461 -1.0290  0.5188
  919MOL0     H21257   9.279   0.221   9.003  1.0696  1.4027 -1.1952
  919MOL0     H21258   9.238   0.295   9.153  2.5905  3.3237  1.0243
  919MOL0     H21259   9.053   0.276   8.979  0.0571 -0.1417  0.8524
  919MOL0     H21260   9.128   0.401   8.880 -0.0669  1.5834  0.7924
  919MOL0     H21261   8.913   0.355   9.196 -1.2634 -0.2360 -3.2898
  919MOL0     H21262   8.826   0.696   9.326 -2.4230  1.4954 -3.7141
  919MOL0     H21263   8.834   0.529   9.384  0.2110  0.8000  0.3892
  919MOL0     H21264   8.653   0.461   9.240 -0.3926 -0.3663  0.6611
  919MOL0     H21265   8.639   0.630   9.187  0.6955  0.2463  0.2116
  919MOL0     H21266   8.581   0.546   9.482  1.4476  1.6319  0.6536
  919MOL0     H21267   8.625   0.706   9.431  1.0120  0.7208 -2.7055
  919MOL0     H21268   8.400   0.551   9.325  0.4678  0.0697  0.5542
  919MOL0     H21269   8.446   0.716   9.274 -0.1341 -0.5719 -1.2594
  919MOL0     H21270   8.194   0.552   9.311 -1.6105 -3.1288  1.5255
  919MOL0     H21271   7.963   0.617   9.289 -0.5767 -0.0762  2.3216
  919MOL0     H21272   7.532   0.760   9.387 -2.2662  0.7314 -1.6737
  919MOL0     H21273   7.309   0.863   9.379  0.6059 -0.7950  1.8988
  919MOL0     H21274   7.267   1.277   9.430  0.0690 -1.3357 -0.9152
  919MOL0     H21275   7.192   1.266   9.590 -2.2202  2.0793 -0.0014
  919MOL0     H21276   7.065   1.186   9.325 -0.7831 -0.4117  0.0546
  919MOL0     H21277   7.034   1.336   9.412 -2.3725 -0.1082 -2.6791
  919MOL0     H21278   6.949   1.184   9.606 -1.8273 -0.7133 -0.5049
  919MOL0     H21279   6.985   1.044   9.499  5.2185  0.2987  0.6861
  919MOL0     H21280   6.787   1.265   9.460  0.9457  0.2804  1.1192
  919MOL0     H21281   6.800   1.142   9.338  0.4959  1.4730 -0.8870
  919MOL0     H21282   6.730   1.100   9.624  2.5377 -0.8631 -0.1535
  919MOL0     H21283   6.726   0.963   9.506 -2.4209 -0.8742 -0.3133
  919MOL0     H21284   6.516   1.017   9.528  1.2253  0.6296  1.8096
  919MOL0     H21285   6.560   1.095   9.381  1.8081 -3.0653 -0.8303
  919MOL0     H21286   6.529   1.227   9.668  0.1415 -1.6331  0.0162
  919MOL0     H21287   6.581   1.318   9.526 -1.0868  1.4484  0.0037
  919MOL0     H21288   6.367   1.275   9.416  4.4827  3.6404 -0.3313
  919MOL0     H21289   6.346   1.367   9.568  4.3232  1.5790 -1.4936
  919MOL0     H21290   7.462   1.211   9.591  0.3427 -1.7811  3.9072
  919MOL0     H21291   7.674   1.123   9.571  2.1225 -1.4167 -1.0502
  919MOL0     H21292   7.983   0.880   9.621 -1.4849  1.4223 -2.0706
  919MOL0     H21293   8.233   0.847   9.624 -0.8602 -0.9451  1.5194
  919MOL0     H21294  10.278   0.515   8.781  0.9410 -0.2269  1.2815
  919MOL0     H21295  10.525   0.402   8.748  0.2859  0.5162  1.0443
  919MOL0     H21296  10.760  -0.012   8.866 -3.1135  0.4834 -2.3008
  919MOL0     H21297  10.975  -0.128   8.874  4.3940 -0.6211 -0.7707
  919MOL0     H21298  11.316   0.012   8.673 -2.9484  1.9701 -1.1816
  919MOL0     H21299  11.260  -0.010   8.521 -0.7401  2.2105  0.5804
  919MOL0     H21300  11.382  -0.240   8.682 -1.8892 -2.1803 -2.3082
  919MOL0     H21301  11.346  -0.244   8.514  1.0401 -0.5026 -0.5243
  919MOL0     H21302  11.487  -0.051   8.454 -1.6194 -3.0770 -2.8606
  919MOL0     H21303  11.567  -0.198   8.489 -1.1696 -3.4311  2.1605
  919MOL0     H21304  11.521   0.026   8.694 -0.8835 -1.0971 -0.1253
  919MOL0     H21305  11.635  -0.099   8.707  0.6909  0.2266  0.0766
  919MOL0     H21306  11.832   0.199   8.496 -0.3821  0.2439  2.2825
  919MOL0     H21307  11.083   0.055   8.489 -0.7342 -4.8365 -1.8735
  919MOL0     H21308  10.884   0.192   8.495 -0.1393  0.8052  0.3669
  920MOL0     O21309   7.204   3.527   4.674  0.6268 -0.2820  0.8592
  920MOL0     C21310   7.233   3.423   4.735  0.3006  0.3726 -0.2286
  920MOL0     O21311   7.153   3.366   4.832  0.5481  0.4316  0.0032
  920MOL0     C21312   7.024   3.407   4.867  0.6190  0.7250 -0.8449
  920MOL0     C21313   6.922   3.447   4.775 -0.4878 -0.2355  0.6240
  920MOL0     C21314   6.791   3.460   4.811 -0.1281  0.3400  0.5604
  920MOL0     C21315   6.753   3.424   4.946  0.2510  0.6030  0.1567
  920MOL0     O21316   6.622   3.455   4.967 -0.1705  0.2583  0.4409
  920MOL0     C21317   6.577   3.434   5.099  0.0823  0.0063 -1.0301
  920MOL0     C21318   6.426   3.435   5.116  1.1146  0.5795  0.8126
  920MOL0     C21319   6.360   3.316   5.042 -0.7982 -1.0062 -0.0916
  920MOL0     C21320   6.211   3.312   5.049  0.3514  0.5919 -0.0256
  920MOL0     C21321   6.143   3.338   5.182  0.5158 -0.2905 -0.1389
  920MOL0     C21322   5.999   3.281   5.191  0.1823  0.0493 -0.1630
  920MOL0     C21323   5.929   3.369   5.297 -0.2436 -0.5093  0.1080
  920MOL0     C21324   5.776   3.368   5.260  0.1019  0.1238  0.0740
  920MOL0     N21325   5.699   3.426   5.372 -0.7077  0.5534 -0.1370
  920MOL0     C21326   5.743   3.488   5.486 -0.2815 -0.3497 -0.2388
  920MOL0     C21327   5.629   3.499   5.559 -0.3679  0.4477 -0.8132
  920MOL0     C21328   5.618   3.550   5.701 -0.2553 -1.0393  0.6833
  920MOL0     C21329   5.612   3.445   5.809 -1.6357 -0.3188  0.8865
  920MOL0     C21330   5.666   3.462   5.955 -0.3610 -0.1510  0.1495
  920MOL0     C21331   5.610   3.590   6.017  0.0987 -0.1907  0.1933
  920MOL0     O21332   5.646   3.606   6.151 -0.2761  1.0886 -0.3560
  920MOL0     C21333   5.586   3.704   6.217  0.5742  0.3790  0.0695
  920MOL0     C21334   5.585   3.700   6.358  1.1755 -0.3837  0.1844
  920MOL0     C21335   5.518   3.792   6.443  0.1091  0.1942  0.1345
  920MOL0     C21336   5.452   3.901   6.380  0.3741 -1.3093  0.7929
  920MOL0     C21337   5.360   3.995   6.452 -0.5524  0.4167  1.3318
  920MOL0     O21338   5.263   3.942   6.532 -0.4360  0.1799 -0.3958
  920MOL0     C21339   5.183   4.022   6.606 -0.0914 -1.8173 -0.3972
  920MOL0     C21340   5.040   4.004   6.609 -0.2438  1.3048 -0.0547
  920MOL0     C21341   4.966   4.103   6.680  0.6822  0.4559 -0.3761
  920MOL0     C21342   5.026   4.211   6.750 -0.3559 -0.7326  0.0865
  920MOL0     O21343   4.973   4.315   6.818 -0.5885  0.0924 -0.1042
  920MOL0     C21344   4.836   4.327   6.815  0.6153  0.0077 -0.7968
  920MOL0     C21345   4.771   4.264   6.944 -1.2790 -0.0950 -0.5434
  920MOL0     C21346   4.648   4.353   6.970 -0.4634  0.1886  0.2409
  920MOL0     C21347   4.531   4.322   6.886 -0.2784  0.1170  0.7503
  920MOL0     C21348   4.394   4.357   6.951  0.1989 -0.1517 -0.0224
  920MOL0     C21349   4.363   4.257   7.064 -0.2700  0.4692  0.8066
  920MOL0     C21350   4.228   4.190   7.051 -0.1628  0.2838 -0.6301
  920MOL0     C21351   4.175   4.118   7.176 -0.0281 -0.8376  0.1922
  920MOL0    Cl21352   4.002   4.066   7.164  0.2420  0.3337  0.3415
  920MOL0     C21353   5.170   4.218   6.759 -0.3731 -0.0661  0.1544
  920MOL0     C21354   5.240   4.122   6.696 -0.0582 -0.2386 -0.1193
  920MOL0     O21355   5.385   4.118   6.437 -0.8070  1.0340  0.0407
  920MOL0     C21356   5.471   3.922   6.240  0.2188  0.3157  0.0862
  920MOL0     C21357   5.529   3.820   6.159 -0.5303  0.3385 -0.1976
  920MOL0     N21358   5.529   3.424   5.504 -0.5418 -0.5418 -0.3124
  920MOL0     N21359   5.568   3.377   5.389  0.0720 -0.3397  0.0075
  920MOL0     C21360   6.842   3.370   5.036 -0.3379  0.3960 -0.1783
  920MOL0     C21361   6.980   3.371   4.998  0.9530 -0.6845 -0.1241
  920MOL0     C21362   7.369   3.360   4.702 -0.8424 -0.4228 -0.3483
  920MOL0     C21363   7.434   3.261   4.779 -0.5825  0.4275  0.0359
  920MOL0     C21364   7.568   3.214   4.736 -0.1061 -0.1039 -0.8107
  920MOL0     C21365   7.632   3.254   4.623  0.9445 -0.4472  0.8168
  920MOL0     O21366   7.751   3.199   4.600 -0.2492  0.6054  0.3063
  920MOL0     C21367   7.826   3.233   4.483 -0.1629  0.1528  0.4440
  920MOL0     C21368   7.969   3.253   4.540 -0.3399  1.1450 -0.2581
  920MOL0     C21369   7.987   3.355   4.653  0.2819 -0.2469 -0.0806
  920MOL0     C21370   7.942   3.501   4.641 -1.3690  0.3171  0.7484
  920MOL0     C21371   7.989   3.558   4.514 -0.2317  0.3421 -0.2631
  920MOL0     C21372   8.016   3.621   4.408 -0.4723 -0.0944 -0.6449
  920MOL0     C21373   7.562   3.354   4.547  0.5049  1.2202 -0.0437
  920MOL0     C21374   7.438   3.402   4.584  0.5642 -0.3821  0.1069
  920MOL0     H21375   6.953   3.474   4.675 -2.2295  0.4215  0.2292
  920MOL0     H21376   6.715   3.485   4.738 -2.4147 -3.1051  1.4799
  920MOL0     H21377   6.615   3.507   5.170 -3.4966 -0.9300  2.1785
  920MOL0     H21378   6.602   3.339   5.147  1.1668 -0.6803 -2.8231
  920MOL0     H21379   6.390   3.530   5.075 -0.8982  0.3022  1.8065
  920MOL0     H21380   6.392   3.430   5.219  1.3654 -0.3520  0.8603
  920MOL0     H21381   6.392   3.224   5.090  2.5726  0.3389  0.5204
  920MOL0     H21382   6.400   3.328   4.941 -0.4653 -3.2480 -0.2786
  920MOL0     H21383   6.170   3.380   4.973  1.5865 -0.2241 -1.4816
  920MOL0     H21384   6.179   3.219   5.001 -1.1282  1.8947 -1.7567
  920MOL0     H21385   6.152   3.447   5.185  1.7930 -0.2767 -2.4622
  920MOL0     H21386   6.213   3.305   5.260  1.1730 -0.2132 -0.6827
  920MOL0     H21387   5.999   3.177   5.222 -3.0831  0.2913  1.1391
  920MOL0     H21388   5.949   3.277   5.094 -2.5597 -0.5257  1.1743
  920MOL0     H21389   5.947   3.325   5.396 -1.7042 -0.8611  0.2370
  920MOL0     H21390   5.966   3.472   5.304 -2.0847  0.0979  1.9652
  920MOL0     H21391   5.752   3.266   5.229  5.1208 -0.5109 -2.9444
  920MOL0     H21392   5.758   3.425   5.168 -1.1115 -2.6637 -1.5499
  920MOL0     H21393   5.837   3.539   5.507 -0.7698  1.2794 -1.7777
  920MOL0     H21394   5.537   3.624   5.707  1.0393  0.3881  1.1998
  920MOL0     H21395   5.708   3.611   5.715  0.0162 -0.8771 -1.4373
  920MOL0     H21396   5.659   3.354   5.771  3.2614  0.9669  3.0624
  920MOL0     H21397   5.508   3.415   5.822 -1.5709 -2.0191 -1.7038
  920MOL0     H21398   5.655   3.369   6.012  0.9613 -0.1705  0.4241
  920MOL0     H21399   5.773   3.485   5.959 -0.6998  2.3748 -2.3680
  920MOL0     H21400   5.502   3.577   6.010  0.1731 -1.7029  1.2564
  920MOL0     H21401   5.643   3.669   5.950 -0.2414  1.8317  2.2705
  920MOL0     H21402   5.628   3.623   6.421 -1.0617 -0.4769  1.6800
  920MOL0     H21403   5.497   3.784   6.549 -0.9026  0.5645 -0.0201
  920MOL0     H21404   4.996   3.928   6.546 -0.9278  1.6266  0.0252
  920MOL0     H21405   4.860   4.079   6.682  1.0118 -1.4462 -2.2537
  920MOL0     H21406   4.788   4.278   6.730 -0.7054 -2.4670  1.2395
  920MOL0     H21407   4.815   4.434   6.811 -1.5765 -0.3130  0.5280
  920MOL0     H21408   4.834   4.264   7.033 -2.6225 -0.4283  0.4326
  920MOL0     H21409   4.760   4.159   6.917 -2.8230  0.3625 -1.8779
  920MOL0     H21410   4.663   4.460   6.953  0.4029  0.0826  0.3046
  920MOL0     H21411   4.626   4.334   7.075  3.2128  0.5782  1.1984
  920MOL0     H21412   4.538   4.368   6.787 -1.3269 -3.7396 -1.3180
  920MOL0     H21413   4.542   4.215   6.866  2.7773  0.6880 -1.3232
  920MOL0     H21414   4.316   4.367   6.875 -0.8571  0.1693  1.0635
  920MOL0     H21415   4.395   4.457   6.996  4.4421 -0.1361  0.2398
  920MOL0     H21416   4.383   4.306   7.159 -1.3962 -1.2446  1.9791
  920MOL0     H21417   4.440   4.179   7.056 -0.6438  0.2638 -3.9232
  920MOL0     H21418   4.152   4.267   7.031 -1.5944 -1.1069 -0.7818
  920MOL0     H21419   4.218   4.118   6.970 -0.1092 -2.6551  1.8038
  920MOL0     H21420   4.185   4.177   7.268 -2.0799 -2.4198  1.5241
  920MOL0     H21421   4.237   4.029   7.193  0.3571 -0.3558  1.4869
  920MOL0     H21422   5.227   4.306   6.787 -1.8628  0.1762  2.7721
  920MOL0     H21423   5.347   4.136   6.703 -0.2495  0.2792  2.7621
  920MOL0     H21424   5.413   3.998   6.190  1.1810  2.3351  1.8686
  920MOL0     H21425   5.522   3.819   6.050  2.7404 -6.0376 -0.8365
  920MOL0     H21426   6.813   3.351   5.139  2.3433  1.9492  0.9719
  920MOL0     H21427   7.058   3.342   5.066  1.2558 -1.3634 -0.7442
  920MOL0     H21428   7.375   3.208   4.853 -0.6215 -0.0947 -0.3672
  920MOL0     H21429   7.617   3.132   4.786  0.4294  0.8684  0.3189
  920MOL0     H21430   7.792   3.329   4.444  0.3317  0.1164 -0.0905
  920MOL0     H21431   7.826   3.161   4.401 -1.8966 -2.6434  2.7117
  920MOL0     H21432   8.008   3.164   4.591 -1.9157 -0.5593 -1.8747
  920MOL0     H21433   8.043   3.276   4.463  0.3118  0.1308  0.0491
  920MOL0     H21434   8.094   3.361   4.676  0.6853 -3.2825 -0.8337
  920MOL0     H21435   7.933   3.310   4.737  0.8284 -1.3127 -0.2860
  920MOL0     H21436   7.834   3.518   4.653 -1.5420  1.6587 -1.8877
  920MOL0     H21437   7.994   3.555   4.721  0.6865 -1.2341  0.5209
  920MOL0     H21438   8.052   3.668   4.319  3.0891  2.8580  2.0531
  920MOL0     H21439   7.575   3.392   4.446 -0.1088  1.4472 -0.0439
  920MOL0     H21440   7.396   3.470   4.511  1.9238  0.6040  0.2005
  921MOL0     O21441   9.267   4.691   0.311 -0.1913 -0.0670  0.3302
  921MOL0     C21442   9.320   4.801   0.301  0.1074 -0.5460 -0.0962
  921MOL0     O21443   9.270   4.907   0.225 -0.2233 -0.7651 -0.3066
  921MOL0     C21444   9.145   4.940   0.241  0.9708  0.3884  1.2175
  921MOL0     C21445   9.076   4.953   0.368 -0.0393 -1.3100 -0.4250
  921MOL0     C21446   8.944   5.000   0.383  0.4929 -0.7841 -0.1391
  921MOL0     C21447   8.876   5.039   0.263 -1.0222  0.2357  0.5746
  921MOL0     O21448   8.756   5.091   0.281 -0.3654 -0.1238  0.0428
  921MOL0     C21449   8.703   5.175   0.177  1.1313 -0.1748  0.3966
  921MOL0     C21450   8.555   5.204   0.209  0.0199  0.6362 -0.1639
  921MOL0     C21451   8.521   5.265   0.345 -0.3276  0.7386 -0.8789
  921MOL0     C21452   8.514   5.164   0.456 -0.3629  0.4612 -0.4324
  921MOL0     C21453   8.476   5.237   0.586 -1.2857  0.5528 -0.5402
  921MOL0     C21454   8.447   5.143   0.693  0.2372  0.0965  0.4018
  921MOL0     C21455   8.415   5.211   0.831 -0.4691 -0.1561 -0.4529
  921MOL0     C21456   8.369   5.106   0.943  0.2931 -0.5732  0.0348
  921MOL0     N21457   8.472   5.009   0.987  0.0943 -0.4317  0.4292
  921MOL0     C21458   8.548   4.927   0.913  0.4393 -0.6094  0.3479
  921MOL0     C21459   8.640   4.881   1.003 -0.3581 -0.1487  0.2411
  921MOL0     C21460   8.752   4.787   0.966  0.3500  0.5812  0.8637
  921MOL0     C21461   8.858   4.868   0.882  0.9026 -0.2885  0.3089
  921MOL0     C21462   8.911   4.989   0.954 -0.1549  0.5483  0.1881
  921MOL0     C21463   9.012   4.938   1.058 -0.0024 -0.5472  0.0642
  921MOL0     O21464   8.949   4.878   1.177 -0.2507  0.1735 -0.2656
  921MOL0     C21465   9.028   4.850   1.279 -0.3406 -0.1171  0.1718
  921MOL0     C21466   9.167   4.855   1.276 -0.4982  0.1501 -0.7774
  921MOL0     C21467   9.243   4.822   1.385 -0.5538  0.1673 -0.3643
  921MOL0     C21468   9.186   4.766   1.495  0.8263 -0.8885 -0.6461
  921MOL0     C21469   9.274   4.725   1.610 -1.0340  0.7491 -0.4110
  921MOL0     O21470   9.397   4.787   1.621 -0.3903  1.2024  0.2188
  921MOL0     C21471   9.477   4.762   1.730 -0.2144 -0.4229  0.2290
  921MOL0     C21472   9.607   4.789   1.706 -0.0228  0.6713 -0.3195
  921MOL0     C21473   9.699   4.776   1.806  0.6246  0.2798  0.1454
  921MOL0     C21474   9.664   4.752   1.939 -0.7131  0.3708 -0.4909
  921MOL0     O21475   9.752   4.756   2.044 -0.4317  0.2292  0.0371
  921MOL0     C21476   9.860   4.656   2.056  0.2433 -0.1454 -0.6088
  921MOL0     C21477   9.979   4.711   2.132  0.0984  0.2232  0.7040
  921MOL0     C21478  10.103   4.624   2.115 -0.1625 -0.0145  0.0806
  921MOL0     C21479  10.218   4.634   2.206 -0.6026  1.2813  0.7155
  921MOL0     C21480  10.318   4.523   2.160 -0.1602  0.8966 -0.6167
  921MOL0     C21481  10.436   4.523   2.264  0.1026  1.1526  0.3714
  921MOL0     C21482  10.542   4.416   2.219  0.2497  0.2111 -0.4369
  921MOL0     C21483  10.654   4.404   2.319 -0.0701  0.4580  0.6266
  921MOL0    Cl21484  10.762   4.544   2.292  0.1209 -0.3569  0.1089
  921MOL0     C21485   9.533   4.736   1.967 -0.2099 -0.0988  0.3414
  921MOL0     C21486   9.437   4.743   1.863 -0.3074  0.2002 -0.1412
  921MOL0     O21487   9.237   4.640   1.695 -0.3822  0.1258 -0.4066
  921MOL0     C21488   9.045   4.752   1.501 -0.1747 -0.4140 -0.3145
  921MOL0     C21489   8.968   4.792   1.389  0.0657 -0.5044 -0.2418
  921MOL0     N21490   8.632   4.958   1.118 -0.0530  0.0026 -0.1109
  921MOL0     N21491   8.523   5.029   1.110 -0.1421 -0.3747  1.0007
  921MOL0     C21492   8.955   5.032   0.142 -0.2091  0.3150  0.0058
  921MOL0     C21493   9.081   4.987   0.133  0.4651  0.3347  1.0273
  921MOL0     C21494   9.436   4.828   0.386  0.3148  0.5003 -0.3936
  921MOL0     C21495   9.494   4.954   0.383  0.9795  0.1570 -0.5137
  921MOL0     C21496   9.623   4.967   0.440 -0.0081  0.1718 -0.3873
  921MOL0     C21497   9.694   4.864   0.500 -0.0746  0.2164  0.2801
  921MOL0     O21498   9.820   4.897   0.539  1.0621  0.8058  0.0458
  921MOL0     C21499   9.926   4.804   0.525 -1.1317  0.8635 -0.0667
  921MOL0     C21500  10.043   4.887   0.508 -0.1347 -0.9394  0.3015
  921MOL0     C21501  10.076   4.975   0.628 -0.1296 -0.0720 -0.0626
  921MOL0     C21502  10.206   5.048   0.600  0.7960 -0.1025 -0.2516
  921MOL0     C21503  10.246   5.117   0.726 -0.1585 -0.1709  0.3290
  921MOL0     C21504  10.284   5.190   0.813 -0.2085 -0.4645  0.4255
  921MOL0     C21505   9.630   4.736   0.507  0.4885 -0.0576  0.3658
  921MOL0     C21506   9.502   4.721   0.450 -0.2185  0.3871 -0.5380
  921MOL0     H21507   9.136   4.940   0.457  4.2102  2.8021 -2.2720
  921MOL0     H21508   8.901   5.020   0.480  1.4120 -0.8514  0.2899
  921MOL0     H21509   8.703   5.131   0.077  0.2606 -2.4801  1.3564
  921MOL0     H21510   8.754   5.272   0.177  0.0410  0.4144  0.6936
  921MOL0     H21511   8.518   5.101   0.210  1.6384  0.0071 -0.9952
  921MOL0     H21512   8.512   5.262   0.126  2.3382  4.9429  1.3449
  921MOL0     H21513   8.423   5.310   0.361  0.1085  1.1483  0.7899
  921MOL0     H21514   8.599   5.339   0.366 -0.3453  0.4314  0.3493
  921MOL0     H21515   8.440   5.085   0.438  1.1120 -1.4233  1.2662
  921MOL0     H21516   8.610   5.111   0.457  0.4293  1.8517 -0.5950
  921MOL0     H21517   8.406   5.320   0.575 -0.1144  1.5627 -0.6549
  921MOL0     H21518   8.563   5.296   0.617  0.0579 -1.3243 -0.5509
  921MOL0     H21519   8.533   5.077   0.700  1.7467  1.0469 -4.8720
  921MOL0     H21520   8.361   5.083   0.662 -0.8740  2.3658 -1.2319
  921MOL0     H21521   8.505   5.264   0.865  0.1064 -1.7210  0.5839
  921MOL0     H21522   8.340   5.284   0.799  1.1481  1.7145 -0.2008
  921MOL0     H21523   8.278   5.052   0.918 -0.7338  1.7159 -1.5222
  921MOL0     H21524   8.345   5.170   1.029 -1.2363  1.3004 -1.6770
  921MOL0     H21525   8.532   4.887   0.813 -3.5284  2.5894 -0.5448
  921MOL0     H21526   8.703   4.716   0.899  0.2147  0.4691  1.0797
  921MOL0     H21527   8.785   4.744   1.061  2.4109 -0.0546 -0.0813
  921MOL0     H21528   8.811   4.897   0.788  2.1346 -0.4997 -0.4006
  921MOL0     H21529   8.948   4.810   0.858  1.1479  0.6394 -1.1432
  921MOL0     H21530   8.961   5.050   0.878  1.3443  0.3151  0.9355
  921MOL0     H21531   8.836   5.050   1.004 -0.6706 -0.1147  0.2328
  921MOL0     H21532   9.058   5.032   1.091 -1.4583  1.1564 -2.4357
  921MOL0     H21533   9.078   4.866   1.008 -2.7126 -0.9119 -3.4154
  921MOL0     H21534   9.214   4.891   1.185  1.6922  0.6459  0.4750
  921MOL0     H21535   9.350   4.836   1.386 -0.6730  1.1606  0.3661
  921MOL0     H21536   9.634   4.812   1.603  2.7477 -1.1540 -0.1371
  921MOL0     H21537   9.802   4.774   1.771  1.6277 -4.0204  2.6196
  921MOL0     H21538   9.900   4.619   1.961  1.6616  0.8073 -0.4195
  921MOL0     H21539   9.827   4.576   2.123  2.9672 -0.7029  0.1817
  921MOL0     H21540   9.971   4.718   2.241  2.2942  0.4716  0.8979
  921MOL0     H21541   9.993   4.807   2.082  2.2076 -0.2124  0.3596
  921MOL0     H21542  10.147   4.634   2.015 -1.5283 -0.9151 -0.6367
  921MOL0     H21543  10.076   4.518   2.116  2.6021 -0.8023  1.0505
  921MOL0     H21544  10.266   4.732   2.211  0.4770  0.7146  2.8825
  921MOL0     H21545  10.175   4.606   2.303  2.4445 -0.0898  1.7959
  921MOL0     H21546  10.367   4.539   2.063 -0.7314 -0.6234 -1.1832
  921MOL0     H21547  10.264   4.429   2.152  0.1831  0.5277  1.0258
  921MOL0     H21548  10.397   4.495   2.362  3.9560 -1.1442  1.4781
  921MOL0     H21549  10.483   4.621   2.266 -0.8055  1.6162 -0.3025
  921MOL0     H21550  10.497   4.316   2.219  2.2233 -0.7257 -0.7312
  921MOL0     H21551  10.576   4.454   2.123  0.0758  2.1766  0.2355
  921MOL0     H21552  10.710   4.310   2.316 -0.9998 -0.1587  1.6440
  921MOL0     H21553  10.606   4.407   2.417  0.6363  0.0874  0.9976
  921MOL0     H21554   9.512   4.707   2.069 -1.3996  2.0994  0.7727
  921MOL0     H21555   9.335   4.743   1.899 -0.2372  1.4176  0.0933
  921MOL0     H21556   9.007   4.710   1.593  2.3504  1.8911  1.9487
  921MOL0     H21557   8.860   4.786   1.386 -0.0203  0.9390 -1.1621
  921MOL0     H21558   8.912   5.051   0.045  2.9834 -0.3534 -1.6770
  921MOL0     H21559   9.113   4.982   0.029 -0.1165 -0.0915  0.8591
  921MOL0     H21560   9.444   5.042   0.345  0.8498  0.2158 -0.2133
  921MOL0     H21561   9.677   5.059   0.460 -1.2987  0.4290  2.3232
  921MOL0     H21562   9.928   4.730   0.444  3.3497  0.8666 -0.1998
  921MOL0     H21563   9.936   4.749   0.619  1.0965  1.7454  0.2727
  921MOL0     H21564  10.123   4.814   0.491  0.9180  0.3827 -0.5897
  921MOL0     H21565  10.018   4.953   0.426 -0.7923 -1.0510  0.4101
  921MOL0     H21566  10.091   4.906   0.711  0.8450  0.6797  0.4068
  921MOL0     H21567   9.993   5.042   0.650 -0.5091 -1.4293  3.2815
  921MOL0     H21568  10.293   4.987   0.573  2.0247  0.6646  1.7372
  921MOL0     H21569  10.187   5.116   0.516  0.1856 -2.0003 -1.7411
  921MOL0     H21570  10.328   5.257   0.884  1.9465  2.0820 -3.0043
  921MOL0     H21571   9.679   4.652   0.553 -0.2085 -0.8414 -0.2892
  921MOL0     H21572   9.453   4.624   0.452  0.1412  0.1982 -0.7872
  922MOL0     O21573   6.570   8.944   0.006 -0.7087  0.1584 -0.2793
  922MOL0     C21574   6.658   9.010   0.054  0.7536 -0.0787  0.8087
  922MOL0     O21575   6.673   9.037   0.190 -0.0089 -0.4810  0.2461
  922MOL0     C21576   6.566   9.030   0.276 -0.6056  0.2709  0.2261
  922MOL0     C21577   6.428   9.004   0.255 -0.0645 -0.7020  0.3343
  922MOL0     C21578   6.346   9.003   0.360  0.1550 -0.0809  0.0930
  922MOL0     C21579   6.392   9.029   0.487  0.1138  0.5053 -0.3841
  922MOL0     O21580   6.308   9.011   0.590  0.0761 -0.1470 -0.2419
  922MOL0     C21581   6.318   9.094   0.705  0.1033  0.0428 -0.1286
  922MOL0     C21582   6.184   9.090   0.772 -0.6026  0.5261 -0.2731
  922MOL0     C21583   6.193   9.107   0.925  0.1085  0.1180 -0.2335
  922MOL0     C21584   6.253   9.242   0.957  0.2108 -0.0859  0.1360
  922MOL0     C21585   6.288   9.235   1.104 -0.5802 -0.0714 -0.4453
  922MOL0     C21586   6.432   9.191   1.126 -0.1552  0.9830 -0.3921
  922MOL0     C21587   6.476   9.212   1.276 -0.1858 -0.0033  0.0244
  922MOL0     C21588   6.496   9.358   1.316  0.7457 -1.0319  1.2504
  922MOL0     N21589   6.516   9.388   1.452  0.0312 -0.0650 -1.0811
  922MOL0     C21590   6.644   9.395   1.507  0.3463 -0.0604  0.3347
  922MOL0     C21591   6.624   9.394   1.640  0.8772  0.4065 -0.5473
  922MOL0     C21592   6.732   9.388   1.745 -0.2206 -0.4908  0.0160
  922MOL0     C21593   6.789   9.252   1.768  0.1407  1.4996 -0.2430
  922MOL0     C21594   6.680   9.141   1.804  0.4095  1.1999  0.0833
  922MOL0     C21595   6.738   9.017   1.880  0.4345 -0.0768  0.7135
  922MOL0     O21596   6.794   9.053   2.004  0.3940 -0.1820 -0.2913
  922MOL0     C21597   6.924   9.037   2.034 -0.4339 -0.2923 -0.0105
  922MOL0     C21598   6.946   9.021   2.166  0.5403 -0.3966 -1.0317
  922MOL0     C21599   7.072   9.017   2.218 -0.3372  0.4058  0.6046
  922MOL0     C21600   7.189   9.043   2.142 -0.7143 -0.0927  0.7309
  922MOL0     C21601   7.328   9.036   2.203  0.0364  0.9861 -0.8073
  922MOL0     O21602   7.429   9.073   2.124 -0.3895  0.1182  0.1845
  922MOL0     C21603   7.554   9.040   2.169  0.7229 -0.8695  0.3649
  922MOL0     C21604   7.653   9.141   2.153 -0.1189 -0.6910 -0.5006
  922MOL0     C21605   7.791   9.114   2.170 -0.3557 -0.4072  0.4082
  922MOL0     C21606   7.831   8.983   2.199  0.2812  0.4494  0.2641
  922MOL0     O21607   7.957   8.935   2.216  0.4146  0.2128 -0.7415
  922MOL0     C21608   8.067   9.024   2.206 -0.7200  1.2088 -0.0463
  922MOL0     C21609   8.095   9.055   2.057 -0.2891 -0.4343  0.5567
  922MOL0     C21610   8.245   9.072   2.034 -0.2330 -0.1069  0.6948
  922MOL0     C21611   8.291   9.110   1.895  0.8074 -0.4344  0.0245
  922MOL0     C21612   8.442   9.120   1.896  0.2990  0.7026 -0.4859
  922MOL0     C21613   8.497   9.254   1.959 -0.6900  0.0284  0.8489
  922MOL0     C21614   8.653   9.238   1.967  0.3600  0.5645 -0.3287
  922MOL0     C21615   8.721   9.370   1.937  0.2874 -0.2418  1.0183
  922MOL0    Cl21616   8.644   9.501   2.018 -0.1789  0.4040  0.0914
  922MOL0     C21617   7.732   8.886   2.229  0.2511  0.7323 -0.4603
  922MOL0     C21618   7.600   8.912   2.202 -0.1005  0.1656 -0.0714
  922MOL0     O21619   7.342   9.004   2.323 -0.4020  0.2162  0.2460
  922MOL0     C21620   7.168   9.072   2.007  0.2292  0.3211  0.2401
  922MOL0     C21621   7.031   9.070   1.960  0.0895 -0.2146  0.4345
  922MOL0     N21622   6.491   9.382   1.675 -0.4206  0.1311  0.0700
  922MOL0     N21623   6.432   9.376   1.564  0.1495 -0.4724 -0.4775
  922MOL0     C21624   6.521   9.051   0.509 -0.1146  0.6761 -0.0457
  922MOL0     C21625   6.611   9.048   0.401 -0.7157 -0.9091 -0.0605
  922MOL0     C21626   6.762   9.053  -0.035 -1.0980 -0.4717  0.3219
  922MOL0     C21627   6.832   9.180  -0.002  0.3489 -0.8147  0.1379
  922MOL0     C21628   6.936   9.226  -0.084  1.1215  0.0374  0.2412
  922MOL0     C21629   6.971   9.148  -0.194 -0.9978 -0.3833  0.3933
  922MOL0     O21630   7.071   9.192  -0.276  0.2546  0.6400  0.4979
  922MOL0     C21631   7.036   9.295  -0.367  0.1989 -0.2926 -0.7663
  922MOL0     C21632   7.108   9.431  -0.336 -0.3002  0.7403  0.1676
  922MOL0     C21633   7.255   9.407  -0.350 -0.1090  0.4234 -0.0662
  922MOL0     C21634   7.333   9.402  -0.221  0.5187 -0.1104 -0.6835
  922MOL0     C21635   7.470   9.370  -0.259  1.3313  0.3698 -0.0137
  922MOL0     C21636   7.592   9.360  -0.269 -0.4098  0.9968  0.1798
  922MOL0     C21637   6.906   9.027  -0.220 -0.2755 -0.2232 -0.2007
  922MOL0     C21638   6.805   8.974  -0.136 -0.3266  0.1117  0.1421
  922MOL0     H21639   6.382   8.985   0.158  0.2164  3.0296 -0.6947
  922MOL0     H21640   6.239   8.986   0.350  0.2136 -0.1679 -0.4327
  922MOL0     H21641   6.343   9.197   0.678  0.4415 -0.0430 -0.1522
  922MOL0     H21642   6.399   9.067   0.773  2.5891  2.1143 -2.0696
  922MOL0     H21643   6.136   8.997   0.742 -2.3731  1.4560 -0.4664
  922MOL0     H21644   6.121   9.170   0.730 -0.5208  1.8998  2.0187
  922MOL0     H21645   6.250   9.019   0.957  1.7293 -0.3243 -3.8294
  922MOL0     H21646   6.100   9.086   0.979 -0.0882  1.5327  0.0139
  922MOL0     H21647   6.341   9.272   0.899  0.3666  2.3416  1.5176
  922MOL0     H21648   6.177   9.315   0.925  1.3334  1.2246  0.4027
  922MOL0     H21649   6.222   9.175   1.168 -0.1263  0.5205  0.6085
  922MOL0     H21650   6.264   9.335   1.140 -0.7987 -1.1215  2.6065
  922MOL0     H21651   6.500   9.249   1.063  1.4334  0.6180  0.9060
  922MOL0     H21652   6.422   9.083   1.119 -0.8771  0.8720  1.5191
  922MOL0     H21653   6.403   9.174   1.349  0.1302 -1.2859 -0.3117
  922MOL0     H21654   6.580   9.180   1.287  0.4377  1.3666 -1.4495
  922MOL0     H21655   6.405   9.412   1.290  1.0992 -0.0931  1.9305
  922MOL0     H21656   6.577   9.397   1.253  0.3441 -0.0519  1.3282
  922MOL0     H21657   6.727   9.402   1.439 -0.6224  1.6074 -0.7278
  922MOL0     H21658   6.688   9.420   1.840  3.1357 -0.4326  1.6852
  922MOL0     H21659   6.812   9.453   1.710  0.2075 -0.5369  0.8817
  922MOL0     H21660   6.861   9.268   1.849  0.9880  0.9512 -0.8610
  922MOL0     H21661   6.835   9.220   1.674 -1.7254 -0.2859 -0.6218
  922MOL0     H21662   6.594   9.177   1.862  1.6436 -0.2278  3.0014
  922MOL0     H21663   6.633   9.109   1.710  1.1276  2.5158 -0.7602
  922MOL0     H21664   6.816   8.967   1.822  0.8701  1.8924 -0.5265
  922MOL0     H21665   6.652   8.954   1.903 -1.0636  1.8539  0.7221
  922MOL0     H21666   6.867   9.048   2.236  5.0479  2.4063  3.6828
  922MOL0     H21667   7.092   9.009   2.325  0.8508 -4.0235  0.2574
  922MOL0     H21668   7.618   9.242   2.132  1.9497  0.2889  0.5469
  922MOL0     H21669   7.870   9.187   2.151  1.5825 -2.8613 -1.5797
  922MOL0     H21670   8.145   8.972   2.262  0.9923  5.2888  1.7166
  922MOL0     H21671   8.059   9.115   2.267  2.1752  0.7296  1.2063
  922MOL0     H21672   8.028   9.135   2.023 -3.2776 -1.8077  2.7896
  922MOL0     H21673   8.072   8.970   1.992 -0.6406 -0.1825  0.3405
  922MOL0     H21674   8.286   8.972   2.052  0.0677  0.1110  1.2660
  922MOL0     H21675   8.284   9.147   2.104  0.8461 -1.9451  2.1450
  922MOL0     H21676   8.258   9.037   1.821 -0.7577  1.8281 -1.6767
  922MOL0     H21677   8.245   9.207   1.872 -4.0195 -2.3858  0.2159
  922MOL0     H21678   8.469   9.121   1.790  0.8475 -3.0707 -0.5157
  922MOL0     H21679   8.490   9.038   1.951 -1.4300  0.6902  1.0752
  922MOL0     H21680   8.452   9.279   2.056 -0.2940 -2.2377  1.6642
  922MOL0     H21681   8.461   9.340   1.901  0.1011  1.2470  2.1029
  922MOL0     H21682   8.664   9.219   2.074 -3.8085  0.3837  0.2174
  922MOL0     H21683   8.694   9.158   1.905  3.5787  0.5994  1.5279
  922MOL0     H21684   8.717   9.376   1.827  1.4865 -0.1117  0.9761
  922MOL0     H21685   8.823   9.370   1.977  0.0305 -1.4906  1.7294
  922MOL0     H21686   7.762   8.794   2.278 -2.1574  0.3696  0.4276
  922MOL0     H21687   7.524   8.839   2.228 -0.4012  0.1323 -1.0074
  922MOL0     H21688   7.247   9.083   1.933 -0.6270 -0.3864 -0.8130
  922MOL0     H21689   6.997   9.091   1.858 -2.9818 -0.2439  1.3439
  922MOL0     H21690   6.559   9.075   0.607  1.3842 -0.6455 -0.2527
  922MOL0     H21691   6.712   9.081   0.427 -1.6385  3.0641 -0.9325
  922MOL0     H21692   6.792   9.245   0.075  1.5270  0.1868 -0.0597
  922MOL0     H21693   6.992   9.315  -0.058 -0.9662  1.4273  0.1781
  922MOL0     H21694   6.931   9.323  -0.358  0.1702  0.9512 -3.6905
  922MOL0     H21695   7.063   9.264  -0.469 -2.0598 -2.3799 -0.8084
  922MOL0     H21696   7.084   9.514  -0.405  3.8409  1.9434 -0.1094
  922MOL0     H21697   7.086   9.472  -0.237  0.2813  0.6199  0.3440
  922MOL0     H21698   7.287   9.499  -0.402 -2.7755  2.3959  1.5637
  922MOL0     H21699   7.278   9.318  -0.409 -1.5453 -1.1319  1.6019
  922MOL0     H21700   7.322   9.495  -0.166  2.0642  0.0421 -0.5752
  922MOL0     H21701   7.303   9.309  -0.171 -0.5612  0.5800 -0.0191
  922MOL0     H21702   7.698   9.346  -0.262 -0.0818  0.9421 -3.3877
  922MOL0     H21703   6.939   8.958  -0.297  1.2486  0.8628 -0.5683
  922MOL0     H21704   6.753   8.883  -0.166 -2.9071  1.5189 -0.0132
  923MOL0     O21705   9.277   6.998  10.584 -0.4136 -0.2898  1.0854
  923MOL0     C21706   9.377   7.035  10.526  0.6212  0.7901  0.2266
  923MOL0     O21707   9.381   7.079  10.393  0.2948 -0.1828 -0.3807
  923MOL0     C21708   9.265   7.066  10.326 -0.5291 -1.2064 -0.2099
  923MOL0     C21709   9.175   7.174  10.310 -0.3986  0.0657 -0.4660
  923MOL0     C21710   9.068   7.162  10.217 -0.2362 -0.5475 -0.1797
  923MOL0     C21711   9.038   7.044  10.151 -0.3188 -0.4220  0.6029
  923MOL0     O21712   8.928   7.036  10.071  0.1854 -0.8084 -0.0061
  923MOL0     C21713   8.923   6.926   9.982  0.3976 -0.2595  0.4541
  923MOL0     C21714   8.781   6.935   9.931  0.0236  1.3458  0.2363
  923MOL0     C21715   8.767   7.057   9.833 -0.5402  0.4190  0.4971
  923MOL0     C21716   8.617   7.098   9.806 -0.1188  0.2605 -0.4850
  923MOL0     C21717   8.567   7.034   9.673 -0.2320 -0.3292 -0.7003
  923MOL0     C21718   8.435   7.099   9.636  0.0873  0.6646  0.5727
  923MOL0     C21719   8.328   7.055   9.729 -0.0574  0.0477  0.2771
  923MOL0     C21720   8.180   7.096   9.684  0.0263  0.3194 -0.1119
  923MOL0     N21721   8.144   7.056   9.552  0.4248 -0.3638  0.2083
  923MOL0     C21722   8.152   6.935   9.496 -1.2559 -0.0228  0.2129
  923MOL0     C21723   8.115   6.962   9.370 -0.0664  0.1743 -0.1000
  923MOL0     C21724   8.104   6.854   9.269 -0.6261  0.2233 -0.5383
  923MOL0     C21725   7.978   6.879   9.186 -0.0278 -0.2584 -0.1632
  923MOL0     C21726   7.958   6.779   9.077  0.5053 -0.1371 -0.5673
  923MOL0     C21727   7.828   6.818   9.006 -0.7669 -1.1118 -0.1286
  923MOL0     O21728   7.811   6.707   8.913  0.5943  0.0152  0.0403
  923MOL0     C21729   7.710   6.718   8.824 -0.1797  0.3315  0.2165
  923MOL0     C21730   7.644   6.840   8.803  0.1941  0.0104  0.7848
  923MOL0     C21731   7.557   6.854   8.696 -0.6240  0.1545  0.3466
  923MOL0     C21732   7.521   6.748   8.614 -0.5889  0.0643 -0.0907
  923MOL0     C21733   7.436   6.764   8.491  0.2139 -0.2370  0.5146
  923MOL0     O21734   7.386   6.652   8.444 -0.3402  0.3322  0.2178
  923MOL0     C21735   7.291   6.670   8.341  0.1401 -0.6025  0.6741
  923MOL0     C21736   7.328   6.641   8.212 -0.5640  0.3825 -0.5703
  923MOL0     C21737   7.228   6.645   8.114 -0.4768  0.1808 -0.0320
  923MOL0     C21738   7.099   6.673   8.143  0.3402  0.0576  0.3784
  923MOL0     O21739   7.029   6.681   8.033  0.2656 -0.1285  0.5001
  923MOL0     C21740   6.898   6.741   8.035 -0.3032  0.2684  0.3343
  923MOL0     C21741   6.829   6.736   7.899 -0.4063  0.3979  0.4003
  923MOL0     C21742   6.807   6.862   7.821  0.2845 -0.3350  0.0213
  923MOL0     C21743   6.685   6.937   7.875  0.1376  0.2319  0.4300
  923MOL0     C21744   6.660   7.066   7.779  0.4922 -0.6119  0.1422
  923MOL0     C21745   6.535   7.140   7.829  0.0373  0.3332  0.3180
  923MOL0     C21746   6.516   7.266   7.737  0.1446 -1.0985 -0.3400
  923MOL0     C21747   6.380   7.327   7.762  0.0235 -0.7766  1.2009
  923MOL0    Cl21748   6.344   7.452   7.641  0.1799 -0.1794  0.5092
  923MOL0     C21749   7.061   6.702   8.278  0.8188 -0.0239  0.1715
  923MOL0     C21750   7.160   6.711   8.382  0.6961  0.1910 -0.1057
  923MOL0     O21751   7.416   6.877   8.437 -0.1936  0.1148  0.0930
  923MOL0     C21752   7.595   6.628   8.637  1.5512 -0.0183 -0.7428
  923MOL0     C21753   7.684   6.609   8.743  1.0036 -0.3061 -0.6047
  923MOL0     N21754   8.081   7.099   9.357 -0.1238 -1.3800 -0.6796
  923MOL0     N21755   8.098   7.155   9.471  0.1852 -0.1562  0.9174
  923MOL0     C21756   9.132   6.944  10.170 -0.8356  0.1906 -0.2705
  923MOL0     C21757   9.247   6.954  10.250 -0.4510  0.1391  0.2979
  923MOL0     C21758   9.507   7.044  10.596 -1.1503  0.2731  0.6953
  923MOL0     C21759   9.506   7.010  10.730 -0.3057  0.9310  0.0366
  923MOL0     C21760   9.618   7.013  10.812 -0.1563 -1.3173  0.1707
  923MOL0     C21761   9.744   7.058  10.762 -0.3055  0.0823 -0.1630
  923MOL0     O21762   9.861   7.103  10.822  0.5647 -0.5258  0.5344
  923MOL0     C21763   9.865   7.127  10.963  0.0691  0.5420 -0.6508
  923MOL0     C21764   9.906   7.260  11.002 -0.6616 -0.6089 -0.0608
  923MOL0     C21765   9.823   7.376  10.988  0.6121  0.4955 -0.4567
  923MOL0     C21766   9.794   7.405  10.840 -0.1478 -0.6027  0.3751
  923MOL0     C21767   9.916   7.461  10.780  0.0432 -0.4480  0.3125
  923MOL0     C21768  10.021   7.512  10.738  0.1345  0.1584  1.1074
  923MOL0     C21769   9.750   7.070  10.624  0.2172  1.0539  0.3908
  923MOL0     C21770   9.634   7.073  10.541 -0.2552 -1.4803 -0.1770
  923MOL0     H21771   9.207   7.259  10.370  3.2953 -1.9398  0.6762
  923MOL0     H21772   9.012   7.251  10.192 -0.5415  0.1684  2.7392
  923MOL0     H21773   8.922   6.834  10.042 -1.2813 -0.9063 -0.4940
  923MOL0     H21774   9.006   6.919   9.911  0.0508  0.0975  0.0157
  923MOL0     H21775   8.710   6.954  10.013 -0.2182  2.8657 -0.2823
  923MOL0     H21776   8.736   6.852   9.875 -2.1256  1.0171  2.2737
  923MOL0     H21777   8.819   7.032   9.740 -0.3787 -1.1217  0.9701
  923MOL0     H21778   8.817   7.146   9.870 -0.2231  0.3368  0.2713
  923MOL0     H21779   8.557   7.061   9.890 -1.3579  2.1737 -0.4510
  923MOL0     H21780   8.602   7.206   9.802  1.5611  0.4731 -3.1526
  923MOL0     H21781   8.571   6.927   9.696 -0.9000 -0.3186 -0.5211
  923MOL0     H21782   8.640   7.053   9.593  1.3380 -0.9139  0.5396
  923MOL0     H21783   8.400   7.070   9.536 -1.8502  2.5918  0.6146
  923MOL0     H21784   8.436   7.209   9.628  2.0865  0.6008 -0.9265
  923MOL0     H21785   8.330   6.946   9.736 -0.1926 -0.1842 -2.2363
  923MOL0     H21786   8.342   7.106   9.825  0.9236 -0.4899  0.4291
  923MOL0     H21787   8.170   7.205   9.677 -1.7048  0.3470  1.9062
  923MOL0     H21788   8.106   7.062   9.758 -0.9562  3.4520  0.5045
  923MOL0     H21789   8.185   6.838   9.533  1.2258 -0.2671 -2.3103
  923MOL0     H21790   8.102   6.756   9.317  1.7572  0.3165 -0.1653
  923MOL0     H21791   8.186   6.870   9.199 -0.7733  0.7440 -0.5976
  923MOL0     H21792   7.998   6.975   9.136 -2.3938  1.1163  1.3247
  923MOL0     H21793   7.893   6.895   9.253  0.8226 -3.4179  1.8715
  923MOL0     H21794   8.040   6.785   9.005 -0.7223 -1.8652 -2.2239
  923MOL0     H21795   7.966   6.677   9.116 -1.5260 -0.4967 -0.9776
  923MOL0     H21796   7.851   6.914   8.958 -0.3323 -1.3957 -0.4922
  923MOL0     H21797   7.748   6.847   9.074 -0.8788  3.0359 -1.7240
  923MOL0     H21798   7.668   6.929   8.860  1.1555 -0.5283  1.2544
  923MOL0     H21799   7.521   6.953   8.666 -1.3256  0.4325  1.9924
  923MOL0     H21800   7.431   6.615   8.195 -0.0263  1.7781  0.3709
  923MOL0     H21801   7.254   6.624   8.011 -0.5227 -1.8979  0.3422
  923MOL0     H21802   6.903   6.848   8.054 -4.1052  0.0872  3.5098
  923MOL0     H21803   6.833   6.694   8.109 -0.7628 -0.8833 -0.7476
  923MOL0     H21804   6.731   6.687   7.893  1.1134 -2.7638 -1.6039
  923MOL0     H21805   6.898   6.680   7.835  0.4415 -1.6141  2.9050
  923MOL0     H21806   6.787   6.845   7.714  1.8564  1.1076 -0.5470
  923MOL0     H21807   6.893   6.928   7.812 -0.5124  0.8142  0.6703
  923MOL0     H21808   6.596   6.878   7.853  0.3328  0.8015 -2.1876
  923MOL0     H21809   6.686   6.968   7.980  0.5217  2.7458 -0.2503
  923MOL0     H21810   6.637   7.038   7.675  0.5838 -3.4331  0.7989
  923MOL0     H21811   6.749   7.130   7.777  0.4167 -0.4121  2.0047
  923MOL0     H21812   6.564   7.179   7.927  1.7337  1.7200 -0.6691
  923MOL0     H21813   6.448   7.075   7.836 -1.2040  2.0666  2.3223
  923MOL0     H21814   6.590   7.343   7.756  0.1788 -1.5420  1.5787
  923MOL0     H21815   6.525   7.222   7.638 -3.2301 -1.9652 -0.4045
  923MOL0     H21816   6.375   7.374   7.861  1.6057  0.7850  0.5864
  923MOL0     H21817   6.307   7.245   7.751 -0.4039 -0.4830  1.7787
  923MOL0     H21818   6.959   6.734   8.297 -0.5716 -2.6006 -2.2199
  923MOL0     H21819   7.145   6.739   8.486  0.2688 -0.6274  0.0579
  923MOL0     H21820   7.580   6.542   8.573 -1.8663  0.3408 -0.6372
  923MOL0     H21821   7.744   6.519   8.736  0.5730 -0.6761  0.2597
  923MOL0     H21822   9.125   6.858  10.103 -1.0900 -1.5632  1.9023
  923MOL0     H21823   9.319   6.874  10.242 -1.0297 -0.2170 -3.5483
  923MOL0     H21824   9.416   6.969  10.773  0.8792 -1.4561  0.3936
  923MOL0     H21825   9.601   6.988  10.916 -3.7383  0.8893  0.2991
  923MOL0     H21826   9.943   7.056  10.992 -0.5183 -1.3552 -3.3341
  923MOL0     H21827   9.775   7.102  11.020  1.7784 -1.1410  1.4838
  923MOL0     H21828   9.935   7.252  11.107  3.5513 -2.9650 -1.1821
  923MOL0     H21829  10.000   7.281  10.951  0.0073 -0.1288  1.3328
  923MOL0     H21830   9.858   7.459  11.049  6.6345 -0.5735 -1.8198
  923MOL0     H21831   9.726   7.350  11.030  0.9658 -1.6060 -0.8558
  923MOL0     H21832   9.767   7.318  10.779  3.0719  0.0284 -2.2434
  923MOL0     H21833   9.710   7.475  10.835  0.1290 -0.3324 -0.7079
  923MOL0     H21834  10.113   7.550  10.697 -0.6407  0.2192 -0.6817
  923MOL0     H21835   9.840   7.098  10.571 -0.1847  0.2915 -0.7272
  923MOL0     H21836   9.631   7.103  10.437  2.0222 -0.4602  0.0010
  924MOL0     O21837   1.978   0.868  10.643  0.4412  0.7483  0.4397
  924MOL0     C21838   1.964   0.754  10.585 -1.1424  1.3271  0.1102
  924MOL0     O21839   2.061   0.662  10.560  0.2998  0.4301 -0.3561
  924MOL0     C21840   2.188   0.698  10.585 -0.6567  0.1550 -0.6808
  924MOL0     C21841   2.250   0.707  10.715 -0.1014 -0.0989 -0.0560
  924MOL0     C21842   2.388   0.719  10.734  0.3609  0.4026 -0.6277
  924MOL0     C21843   2.471   0.745  10.624 -0.3074 -0.0249  0.0751
  924MOL0     O21844   2.603   0.776  10.637 -0.4814 -0.1968 -0.5120
  924MOL0     C21845   2.656   0.826  10.760  0.3307 -0.3265  0.4093
  924MOL0     C21846   2.807   0.856  10.731  0.3941  0.2232  0.1665
  924MOL0     C21847   2.817   0.972  10.635  0.8728 -0.0424 -0.2264
  924MOL0     C21848   2.954   1.046  10.639 -0.2852  0.1592 -0.2632
  924MOL0     C21849   2.947   1.157  10.744  0.7194  0.1973  0.0313
  924MOL0     C21850   3.072   1.247  10.746 -0.2674  0.1017 -0.4479
  924MOL0     C21851   3.047   1.363  10.845  0.6747  0.0653  0.1285
  924MOL0     C21852   2.994   1.490  10.785  0.2666 -0.6200  0.3104
  924MOL0     N21853   2.999   1.572  10.906 -0.3756 -0.4367 -0.3366
  924MOL0     C21854   3.099   1.664  10.933  0.1849  0.0477  0.0929
  924MOL0     C21855   3.072   1.725  11.048 -1.0816 -0.2901 -0.1579
  924MOL0     C21856   3.157   1.827  11.116  0.2452 -0.2165 -0.1428
  924MOL0     C21857   3.302   1.837  11.062  0.9839  0.0865  0.2815
  924MOL0     C21858   3.387   1.947  11.135  1.6019 -0.2667  0.0451
  924MOL0     C21859   3.531   1.951  11.087 -1.0203  0.2461  0.6539
  924MOL0     O21860   3.554   1.992  10.946 -0.3595 -0.9906 -0.5801
  924MOL0     C21861   3.684   2.012  10.925  0.1919  0.7428  0.6583
  924MOL0     C21862   3.712   2.114  10.842  0.0562  0.3764  0.3122
  924MOL0     C21863   3.840   2.149  10.808  0.5130 -1.0468  0.9233
  924MOL0     C21864   3.945   2.056  10.838  1.1105 -0.1207  0.0279
  924MOL0     C21865   4.091   2.089  10.811 -0.3598  0.0859  0.7115
  924MOL0     O21866   4.125   2.224  10.806  0.4384  0.3199  0.2211
  924MOL0     C21867   4.252   2.279  10.822  0.3306 -0.5241 -0.7387
  924MOL0     C21868   4.272   2.404  10.757 -0.8462  0.1573 -0.5180
  924MOL0     C21869   4.393   2.471  10.775  0.5771  0.1788  0.0028
  924MOL0     C21870   4.496   2.400  10.839 -0.5732 -1.1873 -0.5373
  924MOL0     O21871   4.622   2.454  10.823 -0.8691 -0.1460  0.3936
  924MOL0     C21872   4.710   2.438  10.936 -0.0656  0.6678  0.0608
  924MOL0     C21873   4.828   2.543  10.942  0.6517  1.9608  0.1346
  924MOL0     C21874   4.905   2.493  11.063 -1.1005  0.1438 -0.4953
  924MOL0     C21875   5.021   2.587  11.100 -0.2702  0.0840 -0.4886
  924MOL0     C21876   5.132   2.501  11.167  0.1987  0.0055 -0.5758
  924MOL0     C21877   5.257   2.564  11.224 -0.0751  0.5511  0.7566
  924MOL0     C21878   5.353   2.453  11.281 -1.2621 -1.1146  1.0349
  924MOL0     C21879   5.474   2.408  11.192 -0.1743 -0.0711 -1.2977
  924MOL0    Cl21880   5.560   2.274  11.260 -0.0232  0.1254 -0.5422
  924MOL0     C21881   4.481   2.279  10.899  0.0944 -0.2583  0.8851
  924MOL0     C21882   4.362   2.215  10.894  0.0105  0.9336 -0.0436
  924MOL0     O21883   4.170   1.991  10.808  0.8951 -0.0502 -0.0602
  924MOL0     C21884   3.911   1.929  10.890 -0.1467  1.0911 -0.5588
  924MOL0     C21885   3.780   1.912  10.928 -0.7045 -0.2687  0.6458
  924MOL0     N21886   2.940   1.678  11.085 -0.4122  0.0955  0.8217
  924MOL0     N21887   2.912   1.578  10.999 -0.1503 -0.0337 -1.1132
  924MOL0     C21888   2.412   0.721  10.503  0.4361  0.2525  0.3386
  924MOL0     C21889   2.275   0.692  10.482 -0.4705 -0.8599 -0.4404
  924MOL0     C21890   1.832   0.729  10.533  0.4756  0.8779 -0.2649
  924MOL0     C21891   1.792   0.596  10.491 -1.2490 -0.2541  1.0190
  924MOL0     C21892   1.659   0.567  10.468  0.9951 -0.2747  0.6317
  924MOL0     C21893   1.556   0.661  10.490 -0.3232  0.3119 -0.7402
  924MOL0     O21894   1.426   0.628  10.483 -0.3554 -0.3070 -0.0136
  924MOL0     C21895   1.378   0.526  10.384  0.6296  0.8641 -0.4192
  924MOL0     C21896   1.419   0.515  10.235 -0.5533 -0.2826 -0.0746
  924MOL0     C21897   1.408   0.639  10.145  0.0519  0.1728  0.0952
  924MOL0     C21898   1.263   0.669  10.106  0.4231  0.8877 -1.0638
  924MOL0     C21899   1.176   0.721  10.218 -0.7012 -0.0407  0.1024
  924MOL0     C21900   1.105   0.751  10.309 -0.6494  0.6331 -0.2003
  924MOL0     C21901   1.592   0.790  10.519  0.6870  0.9587  0.6150
  924MOL0     C21902   1.727   0.822  10.547  0.4808 -0.0096 -0.4515
  924MOL0     H21903   2.187   0.701  10.803  1.0828 -2.4301  0.7144
  924MOL0     H21904   2.431   0.729  10.833  0.3532  0.2892 -0.6127
  924MOL0     H21905   2.671   0.758  10.845 -0.2114  0.1434  0.8824
  924MOL0     H21906   2.607   0.918  10.792 -1.1463 -0.5513 -1.0789
  924MOL0     H21907   2.865   0.768  10.702  0.9489  0.6036  0.1145
  924MOL0     H21908   2.844   0.902  10.823 -0.8785 -0.9063  1.2745
  924MOL0     H21909   2.734   1.036  10.664  1.5194  0.6647  0.1050
  924MOL0     H21910   2.787   0.926  10.540  1.8951 -3.7724  1.0586
  924MOL0     H21911   3.028   0.971  10.669 -0.5756 -0.0448 -0.0539
  924MOL0     H21912   2.975   1.089  10.540  0.0038  4.6244  1.4821
  924MOL0     H21913   2.931   1.105  10.838 -1.9693 -1.2800 -1.1316
  924MOL0     H21914   2.855   1.215  10.731 -1.5737 -2.9255  1.1394
  924MOL0     H21915   3.090   1.284  10.645  3.2871 -0.3686 -0.0909
  924MOL0     H21916   3.155   1.189  10.787  0.7265  0.5431 -1.7920
  924MOL0     H21917   2.970   1.329  10.915 -1.5292  1.4926 -1.4444
  924MOL0     H21918   3.140   1.382  10.899  1.2432  1.5051 -1.2636
  924MOL0     H21919   2.893   1.484  10.743  0.7331  0.2448 -0.9869
  924MOL0     H21920   3.056   1.534  10.707 -0.8552 -0.2507 -0.4026
  924MOL0     H21921   3.188   1.665  10.871 -1.2401  0.8234 -2.0587
  924MOL0     H21922   3.159   1.801  11.222  0.4152  0.4482  0.0251
  924MOL0     H21923   3.105   1.923  11.119  1.5654  0.5085  0.5425
  924MOL0     H21924   3.295   1.853  10.954  1.0879  2.8594  0.6134
  924MOL0     H21925   3.351   1.742  11.085  0.8010 -0.0962 -0.0900
  924MOL0     H21926   3.346   2.046  11.115  0.1141 -0.8727  0.0125
  924MOL0     H21927   3.391   1.941  11.244  1.5560  0.8568  0.1235
  924MOL0     H21928   3.568   1.851  11.109  0.9125  0.8799  0.4486
  924MOL0     H21929   3.584   2.025  11.148 -0.5246 -0.9866  1.7579
  924MOL0     H21930   3.635   2.187  10.817  0.0784  0.4414  0.4309
  924MOL0     H21931   3.864   2.243  10.760  3.6160 -3.2687 -2.2928
  924MOL0     H21932   4.196   2.456  10.699 -0.2151  3.1486  1.1570
  924MOL0     H21933   4.412   2.557  10.711  2.2815 -2.0322 -2.6696
  924MOL0     H21934   4.762   2.343  10.924  0.9984  1.3700 -1.1660
  924MOL0     H21935   4.653   2.437  11.029 -0.6361  1.4188 -0.2725
  924MOL0     H21936   4.791   2.646  10.950 -0.2334  1.5929  0.9384
  924MOL0     H21937   4.880   2.531  10.847 -1.1173  0.9684 -0.7569
  924MOL0     H21938   4.940   2.391  11.042 -4.3126 -1.9219  2.8462
  924MOL0     H21939   4.853   2.489  11.159  0.4836  0.3619  0.4170
  924MOL0     H21940   5.052   2.641  11.010  0.8229  2.1505  1.0392
  924MOL0     H21941   4.977   2.665  11.163  0.2637 -0.8342  1.0627
  924MOL0     H21942   5.177   2.427  11.099  1.8691  2.4278 -2.2914
  924MOL0     H21943   5.087   2.448  11.252 -1.0585 -0.5370 -1.5492
  924MOL0     H21944   5.232   2.625  11.311 -0.0617  0.5520  0.7592
  924MOL0     H21945   5.304   2.611  11.137  0.5695  2.0380  1.8560
  924MOL0     H21946   5.392   2.504  11.369 -3.5244  1.7239  0.5573
  924MOL0     H21947   5.300   2.359  11.300 -0.3904 -1.8301  0.0898
  924MOL0     H21948   5.549   2.488  11.190  1.8914 -1.4963  4.0872
  924MOL0     H21949   5.443   2.398  11.087  2.3526 -1.4469 -1.9850
  924MOL0     H21950   4.574   2.232  10.930  2.7385  3.2602 -0.9088
  924MOL0     H21951   4.333   2.128  10.952 -1.3126  0.7990 -0.8480
  924MOL0     H21952   3.992   1.861  10.911 -3.2651 -1.8879  3.4457
  924MOL0     H21953   3.757   1.810  10.958  1.2360 -1.8924 -2.6615
  924MOL0     H21954   2.477   0.746  10.419 -1.1313  0.2599 -0.9194
  924MOL0     H21955   2.249   0.683  10.377  1.1939  1.8237 -1.1652
  924MOL0     H21956   1.866   0.519  10.472  2.1983  3.0625 -0.2816
  924MOL0     H21957   1.639   0.465  10.435  0.8266  0.2851 -1.0803
  924MOL0     H21958   1.271   0.546  10.384 -0.0800 -2.0707  1.8101
  924MOL0     H21959   1.383   0.422  10.419 -2.6936  0.2678 -1.4027
  924MOL0     H21960   1.528   0.501  10.238 -0.6903 -1.9943 -1.2366
  924MOL0     H21961   1.384   0.425  10.184  2.2201 -1.1987 -0.5515
  924MOL0     H21962   1.465   0.638  10.052  1.2932  1.3692  0.7896
  924MOL0     H21963   1.451   0.722  10.202 -2.2023  2.0100 -0.7210
  924MOL0     H21964   1.263   0.744  10.027  1.5776  0.4877 -1.4748
  924MOL0     H21965   1.220   0.573  10.074  1.6253 -0.4270  1.0056
  924MOL0     H21966   1.039   0.793  10.382 -3.4716 -0.5460 -1.9414
  924MOL0     H21967   1.514   0.865  10.528 -3.3868 -2.3272 -2.9187
  924MOL0     H21968   1.754   0.926  10.561 -1.2964  0.6527 -1.5717
  925MOL0     O21969   5.284   5.685   0.897  0.7466  0.1035  0.3599
  925MOL0     C21970   5.281   5.577   0.838  0.7537  0.3935 -0.5972
  925MOL0     O21971   5.183   5.481   0.854 -0.1858 -0.0728 -0.2373
  925MOL0     C21972   5.088   5.503   0.943 -0.3059 -0.4506  1.1218
  925MOL0     C21973   5.120   5.527   1.075  0.6923  0.7933  0.6595
  925MOL0     C21974   5.015   5.540   1.167 -0.1647  0.8483  0.8280
  925MOL0     C21975   4.879   5.542   1.126  0.3265  0.0156  0.8330
  925MOL0     O21976   4.762   5.546   1.193  0.3173  0.3047  1.0994
  925MOL0     C21977   4.754   5.497   1.327 -0.7364 -0.4717 -0.5970
  925MOL0     C21978   4.612   5.449   1.349  0.0654  0.2180 -1.0108
  925MOL0     C21979   4.511   5.563   1.371 -0.4307 -0.4659  0.0359
  925MOL0     C21980   4.372   5.508   1.415  1.1834 -0.2344 -0.2167
  925MOL0     C21981   4.265   5.623   1.411 -0.2058  1.0343  0.5555
  925MOL0     C21982   4.130   5.579   1.456 -0.3270 -0.1467 -0.2525
  925MOL0     C21983   4.067   5.494   1.349 -0.6739 -0.4754  0.7955
  925MOL0     C21984   3.928   5.548   1.309 -0.3379  0.4948 -0.5286
  925MOL0     N21985   3.820   5.484   1.383  0.2291  0.0329 -0.0460
  925MOL0     C21986   3.801   5.479   1.520 -0.0331 -0.1062  0.4402
  925MOL0     C21987   3.698   5.385   1.534 -0.3632  1.2086  0.2289
  925MOL0     C21988   3.647   5.317   1.667  0.1385 -0.7647  0.2456
  925MOL0     C21989   3.493   5.343   1.694  1.0709  0.6718 -0.7879
  925MOL0     C21990   3.403   5.238   1.626 -0.7003  0.2205 -0.1670
  925MOL0     C21991   3.252   5.261   1.639  0.1046  0.0991 -0.3608
  925MOL0     O21992   3.201   5.278   1.778 -0.1864  0.0641  0.6747
  925MOL0     C21993   3.098   5.357   1.810 -0.2234 -0.6400  0.9754
  925MOL0     C21994   3.018   5.422   1.712  0.5957 -0.2940 -0.2848
  925MOL0     C21995   2.910   5.502   1.755 -0.3745 -0.5432  0.8926
  925MOL0     C21996   2.883   5.509   1.889 -0.0295  0.3527 -1.5438
  925MOL0     C21997   2.756   5.585   1.937  0.6042  1.1304  0.0929
  925MOL0     O21998   2.746   5.601   2.068  0.2516  0.1831 -0.7017
  925MOL0     C21999   2.627   5.658   2.112  0.7816  0.3561  0.2226
  925MOL0     C22000   2.498   5.590   2.096  0.2249 -0.9964  1.0980
  925MOL0     C22001   2.381   5.650   2.148 -0.7187  0.1198  0.3492
  925MOL0     C22002   2.397   5.765   2.222  0.1189  0.0372 -0.1743
  925MOL0     O22003   2.294   5.845   2.280 -0.1019  0.2945 -0.0515
  925MOL0     C22004   2.169   5.788   2.284  0.1129 -0.5377 -0.1184
  925MOL0     C22005   2.052   5.875   2.347  0.4415  0.4245  0.5285
  925MOL0     C22006   1.993   5.968   2.239  0.1966  0.3445 -0.2088
  925MOL0     C22007   1.884   6.075   2.292 -0.6551  0.5875 -0.6201
  925MOL0     C22008   1.785   6.096   2.171  0.7495  0.2523  0.0482
  925MOL0     C22009   1.667   6.165   2.225  0.5499 -0.6985  0.0088
  925MOL0     C22010   1.553   6.193   2.124 -0.4408  0.2146 -0.1879
  925MOL0     C22011   1.429   6.259   2.176  0.2907  0.7190 -0.2645
  925MOL0    Cl22012   1.321   6.285   2.036  0.4646 -0.6088  0.1513
  925MOL0     C22013   2.528   5.828   2.235  0.7719 -0.1409 -0.0622
  925MOL0     C22014   2.635   5.779   2.176  0.2257  0.1841 -0.7682
  925MOL0     O22015   2.670   5.611   1.854 -0.4706 -0.6146  0.7365
  925MOL0     C22016   2.960   5.442   1.991  0.8122  0.0774 -0.7252
  925MOL0     C22017   3.071   5.368   1.949  0.3834  0.6293 -0.3366
  925MOL0     N22018   3.649   5.349   1.408  0.5208  0.3687 -0.7401
  925MOL0     N22019   3.728   5.403   1.316  0.2664  0.9711 -0.3236
  925MOL0     C22020   4.856   5.538   0.985  0.3164 -0.2169 -0.1078
  925MOL0     C22021   4.958   5.513   0.898 -0.2242 -0.1264  0.5943
  925MOL0     C22022   5.381   5.552   0.743 -0.3603  0.3642  0.1397
  925MOL0     C22023   5.368   5.452   0.648  0.0198  0.0094 -0.4897
  925MOL0     C22024   5.470   5.410   0.562 -0.2202  0.6823 -0.1260
  925MOL0     C22025   5.591   5.464   0.569 -0.5204 -0.4866 -0.6318
  925MOL0     O22026   5.685   5.404   0.486 -0.2521 -0.9329 -0.0332
  925MOL0     C22027   5.821   5.447   0.511  0.0765  0.2895 -0.0721
  925MOL0     C22028   5.905   5.380   0.404 -0.2028 -0.0339 -0.0755
  925MOL0     C22029   6.049   5.412   0.419 -0.4948  0.2895  0.0168
  925MOL0     C22030   6.093   5.538   0.348  0.0370 -0.5086  1.2274
  925MOL0     C22031   6.237   5.560   0.352 -0.2804 -0.4348 -0.5998
  925MOL0     C22032   6.352   5.591   0.364 -0.2137 -0.3203  0.4051
  925MOL0     C22033   5.607   5.577   0.658 -0.4244 -0.7052 -1.0989
  925MOL0     C22034   5.503   5.610   0.748  0.0398 -0.2543  0.3726
  925MOL0     H22035   5.225   5.530   1.100  0.4179  2.4984  1.8212
  925MOL0     H22036   5.039   5.528   1.273  1.3291 -4.1767  0.1677
  925MOL0     H22037   4.773   5.579   1.396  2.2783 -0.9223 -0.7644
  925MOL0     H22038   4.827   5.419   1.348  0.2751  1.2350  2.8645
  925MOL0     H22039   4.634   5.394   1.441  1.1739 -1.5773 -2.2940
  925MOL0     H22040   4.565   5.382   1.276 -1.1553 -0.3227  0.2009
  925MOL0     H22041   4.505   5.622   1.279  2.1920 -2.1502 -1.3205
  925MOL0     H22042   4.543   5.636   1.446 -2.2915  2.3814 -1.7517
  925MOL0     H22043   4.331   5.436   1.344  1.5982 -0.6084 -0.0802
  925MOL0     H22044   4.364   5.463   1.515  1.7264  0.0427 -0.0496
  925MOL0     H22045   4.266   5.676   1.315 -1.4281  0.6974  0.3460
  925MOL0     H22046   4.302   5.697   1.483  0.1452  0.5875  0.8367
  925MOL0     H22047   4.069   5.666   1.480 -0.3756 -0.3807  0.5119
  925MOL0     H22048   4.134   5.529   1.553 -0.3989 -0.9572 -0.6580
  925MOL0     H22049   4.129   5.513   1.260  1.4346 -1.0238  2.0738
  925MOL0     H22050   4.076   5.389   1.378 -0.2542 -0.5263  0.4812
  925MOL0     H22051   3.913   5.523   1.203 -1.0993  0.1957 -0.3562
  925MOL0     H22052   3.922   5.657   1.312 -5.7965  0.4189  1.8159
  925MOL0     H22053   3.863   5.514   1.601 -1.0571  0.0523  1.1769
  925MOL0     H22054   3.697   5.354   1.758 -3.3846 -1.1054  2.5025
  925MOL0     H22055   3.670   5.210   1.661 -1.3863 -1.0185 -1.6171
  925MOL0     H22056   3.469   5.441   1.652  0.7057  2.7129  3.5844
  925MOL0     H22057   3.473   5.335   1.801 -2.9621 -0.9562 -1.4781
  925MOL0     H22058   3.437   5.239   1.522  0.0368  0.3412  0.0717
  925MOL0     H22059   3.423   5.136   1.660 -2.8511 -0.4518 -0.7326
  925MOL0     H22060   3.203   5.176   1.592 -1.1764  2.3717 -3.5204
  925MOL0     H22061   3.225   5.348   1.579 -3.0003 -0.9954 -0.7366
  925MOL0     H22062   3.053   5.424   1.610  1.3979  3.2365 -0.0809
  925MOL0     H22063   2.851   5.535   1.670  2.6601 -1.4648 -1.7723
  925MOL0     H22064   2.495   5.496   2.043  1.0631  0.4452 -1.6955
  925MOL0     H22065   2.284   5.604   2.131  0.0080 -1.5481  0.5097
  925MOL0     H22066   2.176   5.697   2.344  2.4793 -0.2438  0.1365
  925MOL0     H22067   2.139   5.751   2.186  2.0357 -0.2872 -0.8366
  925MOL0     H22068   2.081   5.933   2.435 -2.4960  0.5954  1.4647
  925MOL0     H22069   1.980   5.801   2.383  2.1045 -1.1359  0.8014
  925MOL0     H22070   1.944   5.906   2.163 -0.0242  2.0871 -1.5367
  925MOL0     H22071   2.082   6.020   2.205  1.1055  1.6542  3.6236
  925MOL0     H22072   1.830   6.040   2.381 -0.0952 -0.8961 -0.8220
  925MOL0     H22073   1.936   6.168   2.316  4.0277 -2.0600  1.0796
  925MOL0     H22074   1.758   6.001   2.126  1.2441  0.8406 -1.5518
  925MOL0     H22075   1.822   6.157   2.088 -1.1073  1.3004 -0.0740
  925MOL0     H22076   1.693   6.256   2.279  2.3883 -2.0500  1.5509
  925MOL0     H22077   1.625   6.105   2.306 -1.7599  2.0214  0.9916
  925MOL0     H22078   1.581   6.263   2.045  0.1901  0.8637  0.5973
  925MOL0     H22079   1.540   6.093   2.081 -1.7992  0.5393 -0.5762
  925MOL0     H22080   1.451   6.356   2.222  3.2123  0.2275 -0.4208
  925MOL0     H22081   1.388   6.189   2.249  3.6692  0.6782  1.7914
  925MOL0     H22082   2.522   5.924   2.286  0.0306  0.6574 -1.5872
  925MOL0     H22083   2.735   5.821   2.177  1.0386 -1.5739 -2.1787
  925MOL0     H22084   2.965   5.449   2.099  2.1056 -0.5094 -0.7342
  925MOL0     H22085   3.133   5.315   2.020  2.9793 -0.5158 -3.2041
  925MOL0     H22086   4.754   5.530   0.950  0.9693 -3.0579 -1.6477
  925MOL0     H22087   4.950   5.496   0.791  0.5624  1.6989  0.2076
  925MOL0     H22088   5.268   5.414   0.626 -0.8923  0.9995  1.6785
  925MOL0     H22089   5.443   5.343   0.480 -1.0215  0.2943  0.4409
  925MOL0     H22090   5.853   5.430   0.614 -1.1777  2.1197  0.6836
  925MOL0     H22091   5.830   5.556   0.500 -1.1704  0.4912  0.7642
  925MOL0     H22092   5.893   5.272   0.393 -0.9583 -0.0548  0.9011
  925MOL0     H22093   5.872   5.414   0.305  2.6913 -0.9448 -1.4580
  925MOL0     H22094   6.097   5.329   0.367  0.1333 -0.1964  1.3226
  925MOL0     H22095   6.098   5.404   0.516 -2.1364 -2.4603  0.6994
  925MOL0     H22096   6.056   5.525   0.246 -0.7225 -0.3020  1.4755
  925MOL0     H22097   6.031   5.623   0.375 -2.2831 -0.6322 -2.8574
  925MOL0     H22098   6.454   5.621   0.379  0.2410 -1.7510  0.3643
  925MOL0     H22099   5.704   5.624   0.672 -0.8839 -0.0759  0.1266
  925MOL0     H22100   5.538   5.693   0.809  0.0135  0.5494 -0.6811
  926MOL0     O22101   3.278   0.499   5.302  1.1716 -0.4213 -0.4115
  926MOL0     C22102   3.347   0.445   5.383  0.4765 -0.1207  0.5731
  926MOL0     O22103   3.310   0.408   5.510 -0.6433  0.2077  0.0368
  926MOL0     C22104   3.185   0.424   5.562  0.1105  0.0775  0.9943
  926MOL0     C22105   3.158   0.471   5.685  0.4483  0.2030  0.0210
  926MOL0     C22106   3.030   0.482   5.742 -0.0745 -0.4074  0.4267
  926MOL0     C22107   2.917   0.451   5.668 -1.3475  0.4085  1.0244
  926MOL0     O22108   2.796   0.471   5.734 -0.2331 -0.9672 -0.1715
  926MOL0     C22109   2.673   0.431   5.668 -1.1333  0.6312  0.4501
  926MOL0     C22110   2.566   0.493   5.735 -0.8898  0.8336  0.0169
  926MOL0     C22111   2.492   0.395   5.830 -0.5493  0.2751 -0.4714
  926MOL0     C22112   2.395   0.485   5.912  0.3670  0.1623 -0.1681
  926MOL0     C22113   2.314   0.421   6.029  0.7992 -0.2072  0.0590
  926MOL0     C22114   2.269   0.282   6.001 -0.5403  0.3824 -0.2598
  926MOL0     C22115   2.235   0.191   6.124  1.1052  0.5421 -0.0619
  926MOL0     C22116   2.123   0.257   6.221 -0.9358  0.2294  1.2609
  926MOL0     N22117   1.991   0.270   6.152 -0.3851  0.4717  0.6216
  926MOL0     C22118   1.939   0.178   6.063 -0.0311 -0.5352  0.0352
  926MOL0     C22119   1.847   0.249   5.999  0.6826 -0.4180  0.9747
  926MOL0     C22120   1.763   0.194   5.891  0.9427  0.0834 -0.2231
  926MOL0     C22121   1.622   0.175   5.938  0.8019 -0.8505  0.0895
  926MOL0     C22122   1.543   0.303   5.936 -0.3054  0.0216 -0.0998
  926MOL0     C22123   1.409   0.278   5.993 -0.4223 -0.3183 -0.8267
  926MOL0     O22124   1.324   0.378   5.945  0.1331 -0.5363  0.2200
  926MOL0     C22125   1.194   0.366   5.989 -0.3226  0.1786  1.1532
  926MOL0     C22126   1.149   0.337   6.119  0.0643 -0.5476 -0.7138
  926MOL0     C22127   1.009   0.332   6.157 -0.1318 -0.2380  0.0258
  926MOL0     C22128   0.914   0.351   6.053  0.3945  0.0914  0.1084
  926MOL0     C22129   0.773   0.340   6.074  0.8492 -0.8555 -0.3764
  926MOL0     O22130   0.688   0.381   5.976 -0.9270 -0.7719  0.2340
  926MOL0     C22131   0.559   0.372   6.004  0.8315  1.4211 -0.4824
  926MOL0     C22132   0.495   0.258   5.958  0.1701 -1.1734  0.4196
  926MOL0     C22133   0.364   0.229   6.011 -0.3539  0.5078 -0.7338
  926MOL0     C22134   0.308   0.303   6.116 -0.1607 -0.0222  0.7209
  926MOL0     O22135   0.183   0.262   6.163 -0.4526 -0.3148 -0.6822
  926MOL0     C22136   0.173   0.235   6.298  0.5185  0.5199 -0.6450
  926MOL0     C22137   0.092   0.340   6.367 -0.0675 -0.6749 -0.0515
  926MOL0     C22138   0.077   0.327   6.510 -0.1186  0.4590 -0.6212
  926MOL0     C22139  -0.015   0.220   6.559  0.5437 -0.0012  0.2199
  926MOL0     C22140  -0.072   0.271   6.690 -0.3749 -0.7245 -0.9460
  926MOL0     C22141  -0.183   0.379   6.667 -0.1574  0.3416  0.7464
  926MOL0     C22142  -0.311   0.348   6.746 -0.3434  0.4692 -0.5710
  926MOL0     C22143  -0.429   0.434   6.725 -0.1833 -0.2727  0.3849
  926MOL0    Cl22144  -0.564   0.380   6.819 -0.4605 -0.3730  0.1965
  926MOL0     C22145   0.376   0.424   6.150  0.8727  0.0507 -0.0090
  926MOL0     C22146   0.493   0.457   6.090  0.2975 -0.3986  0.8263
  926MOL0     O22147   0.733   0.299   6.184 -0.3975  0.1095 -0.1494
  926MOL0     C22148   0.965   0.362   5.928 -0.0108 -1.4082 -0.2279
  926MOL0     C22149   1.097   0.373   5.894 -1.0022 -0.1668  0.4746
  926MOL0     N22150   1.842   0.376   6.044 -0.0443  0.7856  0.0519
  926MOL0     N22151   1.914   0.389   6.144 -0.1303 -0.7740 -0.0392
  926MOL0     C22152   2.945   0.395   5.536 -0.3653  1.3891 -0.5089
  926MOL0     C22153   3.074   0.384   5.487  1.3227  0.1724 -0.6074
  926MOL0     C22154   3.477   0.392   5.331  0.7268 -1.1590  0.3615
  926MOL0     C22155   3.521   0.417   5.200  0.6491  0.5752  0.1640
  926MOL0     C22156   3.642   0.368   5.143 -0.3773 -0.2249 -0.2897
  926MOL0     C22157   3.719   0.284   5.231 -0.3205 -0.2890  0.1424
  926MOL0     O22158   3.818   0.217   5.175  0.6491 -0.0276 -0.3117
  926MOL0     C22159   3.827   0.075   5.191  0.0165  0.2606 -0.0280
  926MOL0     C22160   3.966   0.033   5.247  0.2773  0.1198  0.1463
  926MOL0     C22161   4.079   0.069   5.150 -0.0431 -1.1835  0.0943
  926MOL0     C22162   4.207   0.004   5.191  0.2343 -0.0290  0.1462
  926MOL0     C22163   4.330   0.067   5.124  0.6866 -0.2718  0.5432
  926MOL0     C22164   4.427   0.125   5.083 -0.1840  0.7811 -0.0428
  926MOL0     C22165   3.667   0.256   5.365 -0.7906 -0.2472  0.3730
  926MOL0     C22166   3.552   0.308   5.414  0.0777 -0.6314  0.7592
  926MOL0     H22167   3.246   0.492   5.746  2.7143 -2.2555 -2.1248
  926MOL0     H22168   3.012   0.527   5.840 -0.4599 -0.1733  0.2519
  926MOL0     H22169   2.663   0.323   5.658  0.7973  0.4597  0.0762
  926MOL0     H22170   2.684   0.468   5.566  1.7779 -2.3271 -0.4909
  926MOL0     H22171   2.492   0.526   5.662  1.3300  3.2130 -1.3320
  926MOL0     H22172   2.595   0.583   5.790  1.0210 -1.3415  2.8371
  926MOL0     H22173   2.570   0.346   5.889  1.9782  3.0374 -1.3237
  926MOL0     H22174   2.442   0.321   5.766  0.0219 -0.4487 -0.0940
  926MOL0     H22175   2.451   0.560   5.968  1.5580 -0.4155 -0.5346
  926MOL0     H22176   2.331   0.538   5.842  1.7380  1.8869 -0.1762
  926MOL0     H22177   2.230   0.484   6.061  1.8844  1.2174  0.2068
  926MOL0     H22178   2.383   0.410   6.113  1.4133 -0.9717 -0.5253
  926MOL0     H22179   2.360   0.240   5.958  0.2987 -1.0907  2.7260
  926MOL0     H22180   2.191   0.273   5.925 -0.0341 -0.2629 -0.7089
  926MOL0     H22181   2.202   0.097   6.080  0.1770  1.7696 -2.1624
  926MOL0     H22182   2.318   0.166   6.191  0.4422  1.4136  1.1339
  926MOL0     H22183   2.161   0.356   6.247 -0.7439  1.1508 -2.0570
  926MOL0     H22184   2.118   0.190   6.308 -0.2366  0.5023  1.5152
  926MOL0     H22185   1.968   0.074   6.052  1.7943 -0.2478  1.6709
  926MOL0     H22186   1.809   0.103   5.852  1.2123  0.8591 -1.8247
  926MOL0     H22187   1.773   0.269   5.812  0.5918  1.0654  0.6378
  926MOL0     H22188   1.626   0.135   6.040 -0.7394 -2.9651 -0.5913
  926MOL0     H22189   1.555   0.112   5.879 -1.6844  0.0983  1.7126
  926MOL0     H22190   1.600   0.376   5.994 -2.8817  1.7731  0.3960
  926MOL0     H22191   1.534   0.341   5.834  1.5542 -1.5656 -0.9125
  926MOL0     H22192   1.425   0.264   6.100 -2.8385  2.0463 -0.0453
  926MOL0     H22193   1.363   0.185   5.958 -0.9957 -0.9484  1.4437
  926MOL0     H22194   1.229   0.337   6.192  0.4633  0.2646 -1.1432
  926MOL0     H22195   0.999   0.339   6.265  1.1332  0.9991  0.0834
  926MOL0     H22196   0.535   0.185   5.888  1.2302  0.0934 -0.3491
  926MOL0     H22197   0.305   0.143   5.981  1.7604 -1.3708  0.1311
  926MOL0     H22198   0.273   0.248   6.341  0.6466  0.7236 -0.9982
  926MOL0     H22199   0.134   0.138   6.330  3.6322 -0.8779 -0.6936
  926MOL0     H22200  -0.011   0.343   6.330 -1.3309  0.6691  3.1980
  926MOL0     H22201   0.127   0.441   6.345  1.9408 -1.0846  1.0749
  926MOL0     H22202   0.044   0.425   6.546  0.3932 -0.5428  2.9992
  926MOL0     H22203   0.175   0.314   6.558 -0.7365  3.2438  1.7018
  926MOL0     H22204  -0.092   0.200   6.484 -0.0994  1.9303  0.3134
  926MOL0     H22205   0.043   0.127   6.558 -1.0488 -1.0684 -1.9959
  926MOL0     H22206  -0.000   0.318   6.758 -0.9208  0.4806 -1.1666
  926MOL0     H22207  -0.114   0.182   6.737  2.8321  0.1568  4.3920
  926MOL0     H22208  -0.209   0.381   6.561 -1.3264 -2.7378  0.8732
  926MOL0     H22209  -0.143   0.475   6.701  2.3694 -1.4056  3.1070
  926MOL0     H22210  -0.349   0.246   6.743 -1.8972  0.9813  0.0679
  926MOL0     H22211  -0.278   0.357   6.850 -0.6126 -0.5089 -0.3875
  926MOL0     H22212  -0.463   0.436   6.621  1.0854 -1.3182 -0.0790
  926MOL0     H22213  -0.399   0.535   6.754  1.3912 -0.3983 -0.6855
  926MOL0     H22214   0.328   0.495   6.217 -1.1633 -0.3687 -0.9428
  926MOL0     H22215   0.541   0.551   6.119 -3.1356  1.5899  0.5290
  926MOL0     H22216   0.899   0.366   5.842 -0.2511 -2.6219 -0.1306
  926MOL0     H22217   1.124   0.390   5.791  0.2451 -1.6561  0.5098
  926MOL0     H22218   2.870   0.361   5.464  0.6894  0.2652 -1.1134
  926MOL0     H22219   3.094   0.350   5.386  0.4983 -3.2363  0.2349
  926MOL0     H22220   3.451   0.465   5.132  1.9024 -1.6643 -2.9118
  926MOL0     H22221   3.685   0.376   5.044  1.3447 -2.0833  0.2565
  926MOL0     H22222   3.803   0.026   5.096 -0.3344  3.1536 -1.5223
  926MOL0     H22223   3.756   0.041   5.268 -1.0226  1.4436 -0.4356
  926MOL0     H22224   3.974   0.090   5.340 -1.7278 -0.4023  0.7006
  926MOL0     H22225   3.976  -0.072   5.276 -0.6290 -0.1267 -0.4030
  926MOL0     H22226   4.082   0.178   5.158 -3.2152 -1.0905  1.9002
  926MOL0     H22227   4.065   0.034   5.047 -2.4241 -1.5389  0.4752
  926MOL0     H22228   4.218   0.019   5.299  0.7153 -1.3397  0.2918
  926MOL0     H22229   4.202  -0.101   5.162 -0.5145  0.2383 -0.7685
  926MOL0     H22230   4.512   0.177   5.044 -0.4619  1.5189  0.2988
  926MOL0     H22231   3.733   0.202   5.431  1.6973  0.0388 -1.7527
  926MOL0     H22232   3.517   0.281   5.513 -0.2753  0.1965  0.8656
  927MOL0     O22233   0.034   3.895   0.045 -0.0076 -0.0649 -0.5779
  927MOL0     C22234  -0.025   3.790   0.037 -0.1727 -0.0048  0.2111
  927MOL0     O22235  -0.021   3.701  -0.074 -1.0342  0.5795 -1.0632
  927MOL0     C22236   0.044   3.755  -0.182 -0.2987  0.9077  0.1783
  927MOL0     C22237   0.137   3.671  -0.246 -0.2814 -0.1923  0.3512
  927MOL0     C22238   0.203   3.717  -0.361 -0.2989  0.2845  0.4526
  927MOL0     C22239   0.170   3.838  -0.421  0.3256  0.2848 -0.2120
  927MOL0     O22240   0.216   3.891  -0.538  0.7087 -0.7751 -0.4805
  927MOL0     C22241   0.313   3.823  -0.621 -0.0192 -0.0622  0.1064
  927MOL0     C22242   0.229   3.730  -0.703  0.0813 -0.8929 -0.0587
  927MOL0     C22243   0.320   3.673  -0.811  0.2602  0.4459  0.5088
  927MOL0     C22244   0.249   3.617  -0.934  0.6194 -0.5591  0.1199
  927MOL0     C22245   0.338   3.612  -1.055 -0.4405 -0.3224  0.3467
  927MOL0     C22246   0.278   3.531  -1.177  0.2000 -0.5444  0.3028
  927MOL0     C22247   0.384   3.525  -1.287 -0.9102  0.0548  0.1973
  927MOL0     C22248   0.522   3.467  -1.239 -0.6132  0.2860 -0.0260
  927MOL0     N22249   0.513   3.345  -1.151  0.0969 -0.2215  0.0408
  927MOL0     C22250   0.566   3.352  -1.026 -0.6087  0.1840 -0.1576
  927MOL0     C22251   0.518   3.237  -0.968  0.9992 -0.0233  0.5702
  927MOL0     C22252   0.527   3.202  -0.824  0.3256  0.3137  0.4195
  927MOL0     C22253   0.420   3.269  -0.732  0.4836 -0.7304  0.9750
  927MOL0     C22254   0.397   3.205  -0.604 -0.2724 -0.1434 -0.4990
  927MOL0     C22255   0.266   3.241  -0.540  0.7929 -0.1198 -0.3885
  927MOL0     O22256   0.259   3.182  -0.412 -0.1628 -1.3790  1.1031
  927MOL0     C22257   0.153   3.220  -0.328  0.0544 -0.0236 -0.7441
  927MOL0     C22258   0.144   3.148  -0.201  0.9708 -0.1118 -0.5629
  927MOL0     C22259   0.041   3.175  -0.113  0.3786 -0.1291 -0.2269
  927MOL0     C22260  -0.065   3.264  -0.144  1.0253 -0.6193  0.5014
  927MOL0     C22261  -0.177   3.290  -0.056  0.3100  0.0467  0.1335
  927MOL0     O22262  -0.176   3.246   0.073 -0.8371 -0.0590  0.3197
  927MOL0     C22263  -0.292   3.238   0.146  0.5300 -0.2405  0.1579
  927MOL0     C22264  -0.419   3.206   0.086  0.7826 -0.8490 -0.5719
  927MOL0     C22265  -0.526   3.186   0.178 -0.0623  0.4867  0.6913
  927MOL0     C22266  -0.520   3.210   0.316 -0.2380 -0.9927 -0.0802
  927MOL0     O22267  -0.632   3.242   0.387  0.2320  0.6588  0.2364
  927MOL0     C22268  -0.705   3.123   0.430  0.4038  0.5574 -0.5191
  927MOL0     C22269  -0.832   3.165   0.501  0.0415 -0.5725  0.1962
  927MOL0     C22270  -0.932   3.230   0.417 -0.0722 -0.6498  1.0999
  927MOL0     C22271  -0.888   3.353   0.327 -0.0256  0.4510  0.1419
  927MOL0     C22272  -1.008   3.413   0.248  0.0314  0.0656  0.0174
  927MOL0     C22273  -0.941   3.518   0.155  0.1782  0.1361  0.5508
  927MOL0     C22274  -0.983   3.672   0.186 -0.5744 -0.2880  0.8425
  927MOL0     C22275  -0.884   3.771   0.111 -1.2570  0.6612 -0.0023
  927MOL0    Cl22276  -0.984   3.919   0.066 -0.2797  0.3601 -0.2007
  927MOL0     C22277  -0.396   3.237   0.367  0.0507 -0.2364 -0.4333
  927MOL0     C22278  -0.287   3.252   0.284 -0.1950 -0.1390 -0.6824
  927MOL0     O22279  -0.271   3.350  -0.108 -0.1278  0.0722  0.1463
  927MOL0     C22280  -0.051   3.339  -0.266  0.0413  0.2419 -0.0081
  927MOL0     C22281   0.054   3.317  -0.362  0.2301 -0.0154 -0.7795
  927MOL0     N22282   0.442   3.164  -1.063 -0.4661 -0.8711 -0.3276
  927MOL0     N22283   0.429   3.239  -1.170 -0.7269 -0.1101  0.1454
  927MOL0     C22284   0.082   3.922  -0.351 -0.2040  0.4174 -0.4200
  927MOL0     C22285   0.014   3.884  -0.238 -0.2370 -0.4298 -0.1589
  927MOL0     C22286  -0.122   3.760   0.140 -0.3698  0.3371  0.4555
  927MOL0     C22287  -0.209   3.650   0.122 -0.3541  0.7478  0.3345
  927MOL0     C22288  -0.304   3.617   0.222 -0.5991 -0.1911  0.5200
  927MOL0     C22289  -0.299   3.684   0.341 -0.4602  0.8697  0.0226
  927MOL0     O22290  -0.384   3.668   0.449  0.3256 -0.7454 -0.3675
  927MOL0     C22291  -0.509   3.596   0.441  0.2496  0.1501  1.4170
  927MOL0     C22292  -0.638   3.679   0.404  0.2014  0.5518  0.0567
  927MOL0     C22293  -0.700   3.778   0.497 -0.4239 -0.8422 -0.5125
  927MOL0     C22294  -0.753   3.733   0.636 -0.0061 -0.0154  1.1349
  927MOL0     C22295  -0.863   3.635   0.608 -0.1110  0.2439 -0.1828
  927MOL0     C22296  -0.977   3.581   0.608 -1.3541 -0.4663  0.7240
  927MOL0     C22297  -0.190   3.773   0.368  0.7003 -0.3230  1.2854
  927MOL0     C22298  -0.112   3.822   0.259 -0.4722 -0.4039  0.3569
  927MOL0     H22299   0.150   3.574  -0.200 -0.0088 -0.0113  0.6606
  927MOL0     H22300   0.269   3.648  -0.412  0.5654 -0.2412  2.2083
  927MOL0     H22301   0.395   3.768  -0.575  0.2293 -0.1691 -0.4463
  927MOL0     H22302   0.358   3.900  -0.685  0.4963 -2.0111 -2.0103
  927MOL0     H22303   0.132   3.770  -0.734  0.3677  0.2744  0.4988
  927MOL0     H22304   0.193   3.648  -0.640  0.8107 -0.2098  1.3169
  927MOL0     H22305   0.395   3.607  -0.768  0.2348  0.2792  0.2934
  927MOL0     H22306   0.377   3.755  -0.855 -2.1368  1.5804 -0.6954
  927MOL0     H22307   0.218   3.516  -0.905  1.4574 -0.9324 -0.2526
  927MOL0     H22308   0.163   3.677  -0.961  1.7046  0.7012 -0.6307
  927MOL0     H22309   0.431   3.570  -1.016  0.5521  2.4850  1.2774
  927MOL0     H22310   0.357   3.714  -1.091  2.1596 -0.8180  0.1041
  927MOL0     H22311   0.191   3.575  -1.227  0.4303  0.0696  0.4253
  927MOL0     H22312   0.246   3.430  -1.152 -0.6337 -0.7722 -1.5364
  927MOL0     H22313   0.338   3.468  -1.369  1.9758 -1.6694 -0.3505
  927MOL0     H22314   0.406   3.624  -1.327 -1.5141 -0.3566 -1.2389
  927MOL0     H22315   0.576   3.541  -1.180  0.3825  1.2338 -2.0507
  927MOL0     H22316   0.587   3.461  -1.326  0.7162  0.3863  0.9358
  927MOL0     H22317   0.623   3.437  -0.989  1.4101 -1.3975  0.5491
  927MOL0     H22318   0.626   3.205  -0.778  0.1390 -0.7818  0.9393
  927MOL0     H22319   0.504   3.095  -0.818 -0.4774  0.5059  0.9461
  927MOL0     H22320   0.321   3.273  -0.779  0.8753 -1.4433  0.0692
  927MOL0     H22321   0.449   3.373  -0.713  0.4405 -0.6562  0.6404
  927MOL0     H22322   0.394   3.096  -0.617  1.4706 -0.6057  2.1762
  927MOL0     H22323   0.483   3.234  -0.542 -1.7070  2.0473  0.5873
  927MOL0     H22324   0.180   3.206  -0.598 -0.0518  0.2764  0.5882
  927MOL0     H22325   0.259   3.350  -0.528  2.8998 -0.0112  0.1798
  927MOL0     H22326   0.223   3.078  -0.174 -1.0482 -2.4668 -0.3514
  927MOL0     H22327   0.050   3.135  -0.012 -3.3238  2.5405  1.3589
  927MOL0     H22328  -0.438   3.188  -0.019  2.2165 -2.3655 -0.6256
  927MOL0     H22329  -0.619   3.164   0.127  0.2354  2.2872 -0.7387
  927MOL0     H22330  -0.649   3.063   0.503  0.6746 -0.2996 -1.4017
  927MOL0     H22331  -0.730   3.056   0.348  1.1995  1.3151 -1.3999
  927MOL0     H22332  -0.802   3.229   0.585 -0.6059 -0.6043  0.4603
  927MOL0     H22333  -0.883   3.083   0.553 -3.5804 -0.7918 -3.2507
  927MOL0     H22334  -0.997   3.269   0.496  2.5866  0.9530  2.6700
  927MOL0     H22335  -0.987   3.155   0.361  1.8732 -0.5546 -1.0767
  927MOL0     H22336  -0.830   3.425   0.386  2.1170 -1.2487  0.2312
  927MOL0     H22337  -0.828   3.308   0.247 -0.6171  1.1715 -0.7320
  927MOL0     H22338  -1.072   3.458   0.325  1.7304  2.7258  0.0138
  927MOL0     H22339  -1.055   3.332   0.191  1.8468  0.2932 -1.9278
  927MOL0     H22340  -0.975   3.476   0.059  1.5611 -3.0422  1.3294
  927MOL0     H22341  -0.832   3.507   0.157  0.1709 -0.1534  3.4666
  927MOL0     H22342  -1.079   3.693   0.139  0.0629  0.3893 -0.2069
  927MOL0     H22343  -0.981   3.705   0.290  0.7709  0.4749  0.6107
  927MOL0     H22344  -0.838   3.727   0.022  0.9640 -3.1616  2.7385
  927MOL0     H22345  -0.800   3.794   0.177  0.0859 -0.8656 -1.0990
  927MOL0     H22346  -0.387   3.252   0.474  1.0479  0.6490 -0.6310
  927MOL0     H22347  -0.189   3.284   0.319  0.0676  0.8799 -2.2728
  927MOL0     H22348  -0.126   3.416  -0.280 -0.7418  0.2389  3.3532
  927MOL0     H22349   0.049   3.370  -0.457 -1.4051 -2.7433 -2.3336
  927MOL0     H22350   0.059   4.020  -0.391 -0.2069  0.7349  0.3381
  927MOL0     H22351  -0.059   3.944  -0.185 -0.6717 -0.7947 -0.3355
  927MOL0     H22352  -0.217   3.603   0.025  1.4376  3.0270 -1.0086
  927MOL0     H22353  -0.380   3.545   0.193  1.0197 -1.0119 -1.9982
  927MOL0     H22354  -0.529   3.542   0.534 -0.2518 -3.3246 -0.5223
  927MOL0     H22355  -0.513   3.516   0.366 -1.0249  0.7800  0.7732
  927MOL0     H22356  -0.617   3.726   0.307 -1.3544 -0.7865 -1.0046
  927MOL0     H22357  -0.719   3.608   0.386 -0.0192  0.6584  0.6144
  927MOL0     H22358  -0.778   3.831   0.442  0.7961 -0.4404 -1.9069
  927MOL0     H22359  -0.621   3.853   0.504  2.5615 -3.7486 -0.5211
  927MOL0     H22360  -0.673   3.690   0.698  1.6095 -1.2233 -1.5824
  927MOL0     H22361  -0.800   3.822   0.677  0.1952  1.7050 -2.0289
  927MOL0     H22362  -1.073   3.534   0.615 -1.4350 -0.5015 -0.4608
  927MOL0     H22363  -0.170   3.816   0.466  1.0974  1.2818  0.5276
  927MOL0     H22364  -0.055   3.912   0.281  0.0379 -0.8931  1.0760
  928MOL0     O22365   3.622  11.241   3.822  0.0007 -0.4025 -0.1025
  928MOL0     C22366   3.563  11.262   3.713  0.2749 -0.3963 -0.9460
  928MOL0     O22367   3.453  11.200   3.667  0.4168  0.2469  0.2252
  928MOL0     C22368   3.397  11.097   3.735 -0.6166 -0.4463  0.2317
  928MOL0     C22369   3.261  11.079   3.718  0.5760 -0.5368  0.2570
  928MOL0     C22370   3.196  10.973   3.776  0.6284 -0.3598 -0.3619
  928MOL0     C22371   3.266  10.877   3.850  0.5123 -0.4807  0.4297
  928MOL0     O22372   3.207  10.779   3.928 -0.3638 -0.6196 -0.0350
  928MOL0     C22373   3.074  10.727   3.903 -0.1324 -0.0008  0.0418
  928MOL0     C22374   2.972  10.780   4.004  0.3164  0.2062  0.2410
  928MOL0     C22375   2.847  10.681   4.014 -0.7024 -0.5012  0.1314
  928MOL0     C22376   2.740  10.742   4.105  0.2996 -1.1401  0.7428
  928MOL0     C22377   2.614  10.662   4.119  0.7048  0.3964 -0.1564
  928MOL0     C22378   2.543  10.707   4.241  0.5056  1.0519 -0.1590
  928MOL0     C22379   2.462  10.831   4.211 -0.1748 -0.2318  0.7973
  928MOL0     C22380   2.371  10.823   4.087 -0.0286 -0.3752 -0.1563
  928MOL0     N22381   2.265  10.716   4.100 -0.5663  0.4854  0.2744
  928MOL0     C22382   2.146  10.727   4.168 -0.8311 -0.3515 -0.2653
  928MOL0     C22383   2.080  10.614   4.138 -0.4049 -0.6552  0.2180
  928MOL0     C22384   1.936  10.587   4.174 -0.3262  0.3746 -0.6088
  928MOL0     C22385   1.875  10.452   4.161  0.4867  0.7749  0.3090
  928MOL0     C22386   1.724  10.448   4.211  0.2562 -0.1064  0.2202
  928MOL0     C22387   1.676  10.299   4.196  0.8997 -0.2512  0.8049
  928MOL0     O22388   1.673  10.249   4.063 -0.2307  0.1641 -0.0495
  928MOL0     C22389   1.552  10.210   4.032 -0.0499  0.0277 -0.0022
  928MOL0     C22390   1.504  10.089   4.086  0.1952 -0.0819  0.6155
  928MOL0     C22391   1.383  10.043   4.059  1.1037  0.0151  0.4397
  928MOL0     C22392   1.298  10.103   3.960 -0.9020  0.8549 -0.1283
  928MOL0     C22393   1.162  10.054   3.932  0.2449 -0.0975  0.6583
  928MOL0     O22394   1.080  10.126   3.844  0.1462  0.1290  0.7623
  928MOL0     C22395   0.947  10.099   3.829  0.4458 -0.8849  0.2707
  928MOL0     C22396   0.890  10.157   3.719  0.8949  0.4149 -0.3112
  928MOL0     C22397   0.757  10.143   3.692  0.4044  0.8292  0.3736
  928MOL0     C22398   0.665  10.072   3.778 -0.0251 -0.7313 -0.4538
  928MOL0     O22399   0.529  10.070   3.756 -0.8464 -0.2246  0.2239
  928MOL0     C22400   0.450  10.075   3.880  0.3886 -0.1972  0.1882
  928MOL0     C22401   0.308  10.106   3.856 -0.1566 -0.3051  0.7369
  928MOL0     C22402   0.286  10.248   3.803 -0.2178  0.6751 -0.6463
  928MOL0     C22403   0.142  10.284   3.833 -0.2674  0.3633 -0.1246
  928MOL0     C22404   0.036  10.225   3.735 -0.2992  0.3286  0.4863
  928MOL0     C22405  -0.110  10.259   3.783  0.5954 -0.1237  0.0163
  928MOL0     C22406  -0.217  10.184   3.704 -0.0868  0.6230 -0.4468
  928MOL0     C22407  -0.208  10.219   3.554 -0.2020 -0.2032  0.1967
  928MOL0    Cl22408  -0.257  10.383   3.495  0.0864  0.3870 -0.3235
  928MOL0     C22409   0.726  10.024   3.895  0.9444  0.4378 -0.4098
  928MOL0     C22410   0.862  10.034   3.923  0.0433 -0.3546  0.6168
  928MOL0     O22411   1.129   9.943   3.973 -0.2182  0.3786 -0.2046
  928MOL0     C22412   1.352  10.214   3.904 -0.7489 -0.5887 -0.2086
  928MOL0     C22413   1.468  10.281   3.943  0.0633 -0.3906  0.1324
  928MOL0     N22414   2.156  10.546   4.049  0.6118 -0.0550 -0.1304
  928MOL0     N22415   2.264  10.608   4.019  0.3402 -0.6417  0.4425
  928MOL0     C22416   3.407  10.883   3.849  0.0776 -0.4284  0.2288
  928MOL0     C22417   3.472  10.997   3.797  0.1426 -0.4854 -0.5554
  928MOL0     C22418   3.609  11.371   3.621  0.0460 -0.4878  0.0412
  928MOL0     C22419   3.550  11.385   3.490 -0.2148  0.0429 -0.7714
  928MOL0     C22420   3.610  11.469   3.396 -0.6115 -0.5116 -0.0357
  928MOL0     C22421   3.730  11.546   3.430  0.6484  0.1543  0.0496
  928MOL0     O22422   3.790  11.621   3.338 -0.2691 -0.3029 -0.0027
  928MOL0     C22423   3.824  11.555   3.215 -0.1360  0.3647 -0.4023
  928MOL0     C22424   3.947  11.630   3.146 -1.4933  0.6792 -1.3505
  928MOL0     C22425   4.078  11.600   3.210 -0.8075  0.0534  0.0173
  928MOL0     C22426   4.184  11.680   3.139  0.8561  0.0753  0.3515
  928MOL0     C22427   4.306  11.608   3.115  0.2884  0.5472  0.3591
  928MOL0     C22428   4.418  11.554   3.117 -0.1066  0.1554 -0.0081
  928MOL0     C22429   3.792  11.523   3.558  0.3963  0.1287 -0.1112
  928MOL0     C22430   3.725  11.446   3.650 -0.8967  0.6807  0.3293
  928MOL0     H22431   3.218  11.166   3.669  1.7631  0.4371  0.8884
  928MOL0     H22432   3.087  10.966   3.774  0.5094 -0.5938  2.5986
  928MOL0     H22433   3.084  10.618   3.907  1.5824  0.1685  1.8621
  928MOL0     H22434   3.042  10.751   3.801 -0.8048  2.1534  0.7071
  928MOL0     H22435   2.931  10.872   3.963 -1.8669  1.0049  3.7961
  928MOL0     H22436   3.014  10.797   4.103 -2.6485  0.7660  1.5016
  928MOL0     H22437   2.866  10.578   4.046 -1.2416 -1.3643 -2.1276
  928MOL0     H22438   2.819  10.678   3.908  1.5961 -3.6042 -0.5347
  928MOL0     H22439   2.781  10.759   4.205  1.8963  0.1333 -0.0758
  928MOL0     H22440   2.717  10.838   4.056  3.3379  0.2491  1.7710
  928MOL0     H22441   2.644  10.561   4.147  1.7057  0.6564 -0.2389
  928MOL0     H22442   2.538  10.648   4.042 -1.0370  1.1022  1.3807
  928MOL0     H22443   2.607  10.743   4.323 -1.3044  4.0417  0.0862
  928MOL0     H22444   2.467  10.633   4.267  0.8971  0.0423 -1.7422
  928MOL0     H22445   2.401  10.840   4.301  1.2677  1.3391  1.6836
  928MOL0     H22446   2.536  10.912   4.207 -0.3150 -0.0622  1.5021
  928MOL0     H22447   2.421  10.823   3.989  1.8776  3.2550  0.6359
  928MOL0     H22448   2.321  10.921   4.089  1.3408  0.3566  2.3693
  928MOL0     H22449   2.118  10.811   4.232  1.5408  0.3815 -0.0614
  928MOL0     H22450   1.875  10.655   4.114 -0.6928  0.3973 -0.2126
  928MOL0     H22451   1.915  10.619   4.277 -1.5253  0.3179 -0.8288
  928MOL0     H22452   1.950  10.388   4.209  1.2609 -0.4784 -2.3955
  928MOL0     H22453   1.873  10.421   4.056 -1.3890 -3.7317  1.4226
  928MOL0     H22454   1.711  10.482   4.315 -2.8519  0.4249 -0.2503
  928MOL0     H22455   1.654  10.514   4.159  1.0866 -1.4584 -2.8459
  928MOL0     H22456   1.586  10.275   4.253 -0.1463  0.5386 -0.4659
  928MOL0     H22457   1.749  10.240   4.252 -0.9453 -0.8463  2.6944
  928MOL0     H22458   1.571  10.032   4.150 -0.7876 -1.0205  0.8375
  928MOL0     H22459   1.348   9.947   4.094  1.3603 -0.7519 -1.3343
  928MOL0     H22460   0.956  10.207   3.649  0.7049  0.4635 -0.4590
  928MOL0     H22461   0.703  10.194   3.613  0.6652  0.7222  0.1242
  928MOL0     H22462   0.484  10.160   3.940  0.5985  0.5953 -1.0203
  928MOL0     H22463   0.455   9.976   3.927  1.1611  0.9530  2.6661
  928MOL0     H22464   0.247  10.095   3.946 -2.0715 -0.0429 -0.4723
  928MOL0     H22465   0.270  10.042   3.776 -2.3370  0.6436  0.9581
  928MOL0     H22466   0.309  10.248   3.696 -1.2818 -2.5920 -1.0048
  928MOL0     H22467   0.349  10.317   3.860  1.6014 -0.8047 -0.7518
  928MOL0     H22468   0.118  10.253   3.935  3.9516 -0.4714  0.8014
  928MOL0     H22469   0.133  10.393   3.831 -1.0307  0.3010 -1.7696
  928MOL0     H22470   0.047  10.117   3.721 -0.9119  0.6616 -3.9693
  928MOL0     H22471   0.048  10.273   3.638  1.1165 -0.4753  0.2351
  928MOL0     H22472  -0.125  10.367   3.784  2.1331  0.1174  0.8546
  928MOL0     H22473  -0.124  10.227   3.887  0.8428 -1.1713 -0.2507
  928MOL0     H22474  -0.198  10.076   3.716 -1.3591  0.5837  1.6476
  928MOL0     H22475  -0.322  10.201   3.730 -0.9884 -0.3293 -3.1481
  928MOL0     H22476  -0.266  10.137   3.509  0.5126 -0.7399  0.2204
  928MOL0     H22477  -0.106  10.200   3.517  0.6269  2.7577  0.7518
  928MOL0     H22478   0.665   9.970   3.966  0.3944  0.0935 -1.1290
  928MOL0     H22479   0.892   9.983   4.014 -0.3051  0.2534  1.0764
  928MOL0     H22480   1.281  10.262   3.837 -1.0329  0.2773  0.6963
  928MOL0     H22481   1.475  10.387   3.919  3.4578 -0.5648 -0.0512
  928MOL0     H22482   3.461  10.800   3.895 -1.6335 -1.5104  0.3518
  928MOL0     H22483   3.580  11.000   3.801  0.2404 -2.8155  1.5768
  928MOL0     H22484   3.450  11.348   3.470 -0.3028  0.7989 -1.8036
  928MOL0     H22485   3.567  11.498   3.301  0.8140 -0.0461 -0.5594
  928MOL0     H22486   3.743  11.548   3.142 -0.2880  1.7083 -0.3868
  928MOL0     H22487   3.863  11.459   3.249  0.8502  1.6065  2.3030
  928MOL0     H22488   3.944  11.609   3.039 -1.0516  1.7437 -1.5834
  928MOL0     H22489   3.925  11.736   3.161 -0.1314  0.5106  3.2306
  928MOL0     H22490   4.100  11.493   3.207  1.2372  0.4484 -1.2655
  928MOL0     H22491   4.070  11.637   3.313 -2.1487 -2.0536  0.7328
  928MOL0     H22492   4.155  11.711   3.038  3.3830  3.1125  0.4057
  928MOL0     H22493   4.203  11.778   3.184  4.5418 -0.4541  0.2537
  928MOL0     H22494   4.523  11.541   3.133  0.3191 -1.4645 -3.3404
  928MOL0     H22495   3.890  11.565   3.581 -0.4478  2.0233  0.2203
  928MOL0     H22496   3.765  11.431   3.749 -1.1370  0.2199  0.3558
  929MOL0     O22497   5.620   8.760   9.153  0.2279 -0.5277 -0.9045
  929MOL0     C22498   5.607   8.871   9.089 -0.3672 -0.2875 -0.7203
  929MOL0     O22499   5.503   8.966   9.096 -0.4365  0.9229 -0.4487
  929MOL0     C22500   5.400   8.967   9.195 -0.1331 -0.2554  0.4720
  929MOL0     C22501   5.290   9.051   9.178 -1.0602 -0.6211 -0.2886
  929MOL0     C22502   5.176   9.055   9.268 -0.3766 -0.6541 -0.5959
  929MOL0     C22503   5.170   8.973   9.379  0.0957  0.1069  0.9842
  929MOL0     O22504   5.056   8.953   9.462  0.1448  0.0208 -0.1280
  929MOL0     C22505   4.947   9.046   9.446 -0.1539 -0.2415  0.2063
  929MOL0     C22506   4.827   8.991   9.523  0.8582 -0.4092 -0.5252
  929MOL0     C22507   4.763   8.881   9.441  0.5089 -0.4961  0.7446
  929MOL0     C22508   4.648   8.804   9.513 -0.5748 -0.9825  0.6065
  929MOL0     C22509   4.534   8.746   9.414 -0.3326 -0.2344 -0.6244
  929MOL0     C22510   4.407   8.702   9.475  0.3199 -0.0479  0.1075
  929MOL0     C22511   4.308   8.616   9.381 -0.5563 -0.4821 -0.2563
  929MOL0     C22512   4.241   8.697   9.270 -0.2166  0.0302 -1.2056
  929MOL0     N22513   4.124   8.626   9.207 -0.1197 -0.2718 -0.1544
  929MOL0     C22514   4.105   8.491   9.228  0.2860  0.4536  0.3000
  929MOL0     C22515   3.980   8.465   9.188  0.6657 -0.0847  0.3762
  929MOL0     C22516   3.904   8.334   9.194  0.1865  0.7746  0.4580
  929MOL0     C22517   3.760   8.373   9.246  0.3787 -0.1913 -0.4285
  929MOL0     C22518   3.689   8.247   9.292  0.1185 -0.1560  0.2946
  929MOL0     C22519   3.554   8.280   9.350 -0.8734 -1.3107 -0.2174
  929MOL0     O22520   3.483   8.169   9.393  0.0721 -0.3840  0.4348
  929MOL0     C22521   3.361   8.191   9.458  0.0370 -0.1422  0.4687
  929MOL0     C22522   3.315   8.321   9.494  1.0515  0.0852 -0.2501
  929MOL0     C22523   3.185   8.337   9.559 -0.9019  0.4417 -0.2395
  929MOL0     C22524   3.100   8.226   9.582 -1.1484 -0.0091 -0.4260
  929MOL0     C22525   2.972   8.224   9.657 -0.2131  0.0699 -0.5626
  929MOL0     O22526   2.909   8.103   9.684 -0.0229 -0.3098  0.6260
  929MOL0     C22527   2.802   8.093   9.770 -0.4941 -0.1583 -0.5650
  929MOL0     C22528   2.708   7.993   9.744  0.3090 -0.7011  1.0291
  929MOL0     C22529   2.601   7.967   9.829 -0.0245 -0.8207 -0.4753
  929MOL0     C22530   2.581   8.044   9.950 -0.3871  0.1517 -0.8358
  929MOL0     O22531   2.471   8.020  10.029 -0.2514 -0.6076 -0.3367
  929MOL0     C22532   2.494   7.986  10.170 -0.0402 -1.1520  0.2573
  929MOL0     C22533   2.372   7.915  10.230 -0.5489 -0.8023 -0.1752
  929MOL0     C22534   2.393   7.863  10.371 -0.1818  0.4663  0.1805
  929MOL0     C22535   2.262   7.823  10.438 -0.3554 -0.2849 -0.4419
  929MOL0     C22536   2.270   7.814  10.586  0.0366 -0.0822  0.4614
  929MOL0     C22537   2.336   7.694  10.641  0.7054 -0.7358 -0.6850
  929MOL0     C22538   2.324   7.687  10.793  0.0043  0.5438 -0.3369
  929MOL0     C22539   2.398   7.557  10.840 -0.5899 -0.0760  0.1788
  929MOL0    Cl22540   2.336   7.396  10.777 -0.4806 -0.4224  0.3121
  929MOL0     C22541   2.662   8.148   9.966  0.5516  0.8295  0.3389
  929MOL0     C22542   2.766   8.169   9.882 -1.2530  0.0152 -0.3006
  929MOL0     O22543   2.922   8.334   9.685  0.4089 -0.0763 -0.0417
  929MOL0     C22544   3.147   8.107   9.531  0.4137  0.3399  0.0835
  929MOL0     C22545   3.274   8.090   9.472  0.3093  0.3581 -0.4586
  929MOL0     N22546   3.921   8.581   9.146 -0.3284 -0.1225  0.6339
  929MOL0     N22547   4.009   8.679   9.154 -1.2490 -0.0991  0.7127
  929MOL0     C22548   5.281   8.889   9.401 -0.3119  0.3146 -0.0451
  929MOL0     C22549   5.387   8.894   9.313 -0.6417  0.3958  0.0546
  929MOL0     C22550   5.713   8.899   8.996 -0.3025 -0.8713 -0.4033
  929MOL0     C22551   5.843   8.849   9.018 -0.5721 -0.2942  0.0812
  929MOL0     C22552   5.951   8.887   8.939  0.0591 -0.7855  0.7375
  929MOL0     C22553   5.920   8.965   8.825 -0.2216 -0.6162 -1.0248
  929MOL0     O22554   6.011   8.991   8.727  0.1274 -0.0015  0.0931
  929MOL0     C22555   6.128   9.079   8.760  0.9135  0.4350 -0.6435
  929MOL0     C22556   6.107   9.229   8.754  0.4652  0.6401  0.4820
  929MOL0     C22557   6.046   9.275   8.627  0.5183  0.0728 -0.1285
  929MOL0     C22558   6.130   9.235   8.508 -0.4189  0.1250  0.4356
  929MOL0     C22559   6.265   9.296   8.504  0.2176  0.3998  0.1702
  929MOL0     C22560   6.373   9.349   8.502 -0.3936  0.0868  0.1036
  929MOL0     C22561   5.792   9.017   8.805  0.4912 -0.6632  0.5264
  929MOL0     C22562   5.685   8.986   8.890 -1.4182 -0.2137  0.5084
  929MOL0     H22563   5.287   9.112   9.088  3.6325  1.8537  0.9314
  929MOL0     H22564   5.094   9.125   9.250 -0.6030 -1.2040 -1.7959
  929MOL0     H22565   4.911   9.062   9.343  3.6151 -3.5536 -1.8985
  929MOL0     H22566   4.974   9.145   9.483 -2.5964  1.2984 -1.7717
  929MOL0     H22567   4.749   9.063   9.548  1.0964 -0.7208  1.2396
  929MOL0     H22568   4.859   8.956   9.621  3.1094  0.6516 -0.8040
  929MOL0     H22569   4.840   8.805   9.421 -0.9223 -1.4896 -1.2531
  929MOL0     H22570   4.720   8.922   9.350 -0.5191  2.0808  2.3021
  929MOL0     H22571   4.689   8.724   9.576  0.6945 -1.7302 -1.0990
  929MOL0     H22572   4.585   8.875   9.567 -2.1166 -0.4434 -1.7283
  929MOL0     H22573   4.573   8.649   9.380 -1.6150 -0.6115 -1.0485
  929MOL0     H22574   4.517   8.829   9.345  1.0482  1.8029  1.3413
  929MOL0     H22575   4.356   8.787   9.521  0.3501 -0.5375  1.0694
  929MOL0     H22576   4.439   8.630   9.551  1.8338  1.1417  0.6525
  929MOL0     H22577   4.357   8.526   9.341  1.7777 -3.4975  7.5045
  929MOL0     H22578   4.237   8.592   9.460  1.2300  0.7959  1.8409
  929MOL0     H22579   4.308   8.745   9.199 -0.0070  2.2651  0.4209
  929MOL0     H22580   4.186   8.778   9.319  1.4438  1.4561 -1.6408
  929MOL0     H22581   4.168   8.420   9.280 -1.7636 -0.5375  1.5440
  929MOL0     H22582   3.949   8.265   9.265  0.8160  0.1733 -0.4957
  929MOL0     H22583   3.884   8.282   9.100 -0.8142  3.6510 -1.0539
  929MOL0     H22584   3.704   8.425   9.169 -2.2419  0.9490  2.0532
  929MOL0     H22585   3.776   8.447   9.325  0.9371  0.0912 -0.8049
  929MOL0     H22586   3.671   8.183   9.205 -2.1284 -1.5846  1.7125
  929MOL0     H22587   3.743   8.192   9.369  0.1399 -1.5560 -0.6737
  929MOL0     H22588   3.491   8.334   9.278  1.6608 -3.2460 -4.2931
  929MOL0     H22589   3.580   8.344   9.435  1.0994 -1.2571 -0.8112
  929MOL0     H22590   3.372   8.411   9.473  0.2065  0.7256  0.1761
  929MOL0     H22591   3.151   8.421   9.618 -0.2032  2.4633 -2.5256
  929MOL0     H22592   2.723   7.935   9.653  2.4395 -0.3711  1.1193
  929MOL0     H22593   2.528   7.891   9.800 -0.4045  0.2061 -2.3398
  929MOL0     H22594   2.506   8.087  10.211 -3.1049  0.9469 -3.3670
  929MOL0     H22595   2.587   7.930  10.178 -0.7801 -2.4333  0.0490
  929MOL0     H22596   2.354   7.838  10.154  0.3495  0.7017 -1.9828
  929MOL0     H22597   2.293   7.990  10.226 -0.1994 -0.4769 -1.3333
  929MOL0     H22598   2.446   7.940  10.428  0.1358 -1.3303  2.3959
  929MOL0     H22599   2.465   7.781  10.372  0.7682  1.1872 -1.9457
  929MOL0     H22600   2.189   7.899  10.409  1.2228  1.0924 -0.9099
  929MOL0     H22601   2.213   7.731  10.404 -0.5692 -1.3385  2.4379
  929MOL0     H22602   2.163   7.804  10.610 -0.5462 -1.2278 -2.2801
  929MOL0     H22603   2.310   7.905  10.631 -1.5954  1.1052 -0.3656
  929MOL0     H22604   2.441   7.694  10.608  0.6563 -4.5244 -1.3267
  929MOL0     H22605   2.303   7.599  10.598  0.3778  0.0387 -2.2086
  929MOL0     H22606   2.369   7.771  10.847 -1.3887  1.0791  0.0248
  929MOL0     H22607   2.220   7.693  10.826 -0.0770 -0.0835 -0.4657
  929MOL0     H22608   2.402   7.555  10.949  0.0806 -2.4660  0.1699
  929MOL0     H22609   2.501   7.571  10.808 -0.8132  1.3646  0.0354
  929MOL0     H22610   2.655   8.212  10.053  1.6124  1.1671  0.1934
  929MOL0     H22611   2.819   8.261   9.907 -1.0669 -0.2462  0.2969
  929MOL0     H22612   3.101   8.011   9.548  2.9395 -1.1357 -0.9277
  929MOL0     H22613   3.315   7.996   9.439  1.3790 -0.4449  2.7802
  929MOL0     H22614   5.273   8.818   9.484 -0.2687  0.4668  0.0908
  929MOL0     H22615   5.464   8.821   9.331 -2.0530 -1.2999 -0.5031
  929MOL0     H22616   5.863   8.787   9.104 -0.8345 -1.1453 -0.4596
  929MOL0     H22617   6.053   8.855   8.961 -0.6291 -1.1100  3.9117
  929MOL0     H22618   6.212   9.057   8.695  0.9307 -0.5249 -0.3100
  929MOL0     H22619   6.155   9.058   8.864  1.7077  1.8749 -0.5408
  929MOL0     H22620   6.043   9.249   8.841 -1.6739 -3.1935  0.0082
  929MOL0     H22621   6.199   9.284   8.772  1.5371 -0.2414 -1.9046
  929MOL0     H22622   6.041   9.384   8.623 -2.9893  0.2950  3.4413
  929MOL0     H22623   5.945   9.233   8.621  0.4191  0.2233  0.3604
  929MOL0     H22624   6.136   9.127   8.494  3.7618  0.4996 -2.3677
  929MOL0     H22625   6.092   9.274   8.413  0.6238  0.5813  0.1910
  929MOL0     H22626   6.463   9.407   8.497  0.7508 -1.7127 -1.4508
  929MOL0     H22627   5.759   9.081   8.724 -2.6403 -2.9299 -0.1980
  929MOL0     H22628   5.592   9.033   8.863 -0.9182  0.1399 -0.6454
  930MOL0     O22629   1.372   4.527   3.107 -0.8453 -0.0279  0.0754
  930MOL0     C22630   1.384   4.591   3.210 -0.2970  0.2832 -0.3252
  930MOL0     O22631   1.279   4.606   3.307 -0.4148 -0.1498  0.3511
  930MOL0     C22632   1.154   4.544   3.294 -0.5399  0.4520  1.1702
  930MOL0     C22633   1.143   4.410   3.263 -0.2216  0.0831 -0.2040
  930MOL0     C22634   1.021   4.346   3.272 -0.1967 -0.1084  0.2922
  930MOL0     C22635   0.906   4.414   3.326  0.5721  0.4105 -0.9943
  930MOL0     O22636   0.791   4.355   3.358 -0.7961 -0.5125 -0.5082
  930MOL0     C22637   0.740   4.249   3.274  0.1770 -0.9021  1.3411
  930MOL0     C22638   0.595   4.256   3.285  0.3073 -0.2029  0.4843
  930MOL0     C22639   0.550   4.246   3.428 -0.2633  0.1110  0.2022
  930MOL0     C22640   0.395   4.230   3.434  0.6234  0.2601 -0.5521
  930MOL0     C22641   0.345   4.231   3.584  0.9286  0.0766  0.6795
  930MOL0     C22642   0.199   4.195   3.593 -0.7726 -1.0500  0.4355
  930MOL0     C22643   0.112   4.290   3.509  0.2791 -0.4637 -0.6080
  930MOL0     C22644  -0.032   4.246   3.537 -0.0035  1.1319  0.1540
  930MOL0     N22645  -0.122   4.310   3.439 -0.3377  0.4042 -0.1152
  930MOL0     C22646  -0.201   4.418   3.467 -0.3058  0.4272 -0.6490
  930MOL0     C22647  -0.277   4.425   3.355  0.0238 -0.7606 -0.0582
  930MOL0     C22648  -0.375   4.530   3.307 -0.3167  0.7699 -0.1857
  930MOL0     C22649  -0.517   4.483   3.322  0.2792 -0.1623  1.0290
  930MOL0     C22650  -0.546   4.465   3.465 -0.3788  0.3655  0.0175
  930MOL0     C22651  -0.698   4.441   3.472  0.0299  1.0114 -0.0385
  930MOL0     O22652  -0.758   4.403   3.596 -0.0438 -1.2548 -0.2179
  930MOL0     C22653  -0.891   4.457   3.609 -0.6051  0.4763 -0.5226
  930MOL0     C22654  -0.941   4.465   3.742  0.5717  0.2900 -0.1625
  930MOL0     C22655  -1.071   4.521   3.775 -0.0489  0.3322  0.9494
  930MOL0     C22656  -1.154   4.549   3.664  1.1733 -1.0475 -0.6123
  930MOL0     C22657  -1.298   4.601   3.690 -0.0672 -1.0939  0.0929
  930MOL0     O22658  -1.359   4.676   3.587  1.0086  0.0542 -0.1891
  930MOL0     C22659  -1.497   4.708   3.578  0.1274 -0.9006 -1.1973
  930MOL0     C22660  -1.517   4.816   3.490 -0.3504 -1.4048 -0.5204
  930MOL0     C22661  -1.653   4.858   3.472 -0.5811 -0.7520 -0.2575
  930MOL0     C22662  -1.748   4.793   3.538  0.2491 -0.4447 -0.0666
  930MOL0     O22663  -1.862   4.845   3.503  0.2804  0.2925 -0.2245
  930MOL0     C22664  -1.977   4.787   3.572 -0.6888 -0.3524 -0.4024
  930MOL0     C22665  -2.109   4.874   3.562 -1.0001  0.4289 -0.0673
  930MOL0     C22666  -2.099   4.955   3.442 -0.3764 -0.8078  1.3817
  930MOL0     C22667  -2.237   5.027   3.418  0.9019 -0.6498  0.4665
  930MOL0     C22668  -2.227   5.139   3.317 -0.5276  0.7397  0.3350
  930MOL0     C22669  -2.225   5.085   3.171 -0.4628  0.6476 -0.1207
  930MOL0     C22670  -2.212   5.201   3.075 -0.5926  0.0473  0.1315
  930MOL0     C22671  -2.173   5.145   2.930 -0.2308  0.3858  0.2288
  930MOL0    Cl22672  -2.306   5.040   2.852  0.2252  0.4465  0.2964
  930MOL0     C22673  -1.718   4.697   3.638  0.0041 -0.6639  0.0816
  930MOL0     C22674  -1.595   4.655   3.660 -0.9453 -0.1884 -0.3500
  930MOL0     O22675  -1.349   4.562   3.795  0.6404 -0.4917  0.2599
  930MOL0     C22676  -1.108   4.543   3.532 -0.5628 -0.5733 -0.0552
  930MOL0     C22677  -0.981   4.497   3.503 -1.1942  0.4401 -0.4385
  930MOL0     N22678  -0.238   4.326   3.268  0.3401  1.2705 -0.1814
  930MOL0     N22679  -0.144   4.262   3.322  0.1195  0.0238 -0.2392
  930MOL0     C22680   0.922   4.544   3.359  0.1591  0.5887 -0.5181
  930MOL0     C22681   1.048   4.607   3.344  0.4534 -0.2144 -0.8254
  930MOL0     C22682   1.520   4.643   3.233 -0.2735  0.1168  0.0985
  930MOL0     C22683   1.634   4.602   3.165  0.1939  0.7777  0.0467
  930MOL0     C22684   1.756   4.653   3.198 -0.1440 -0.1355  0.3657
  930MOL0     C22685   1.772   4.735   3.315 -1.0674  0.3740 -0.0563
  930MOL0     O22686   1.892   4.787   3.364  0.0302  0.3120  0.3571
  930MOL0     C22687   2.001   4.778   3.274 -0.7081 -0.2014  0.3737
  930MOL0     C22688   2.118   4.841   3.349  0.1971 -0.4509 -1.1819
  930MOL0     C22689   2.152   4.769   3.485  0.6934  0.4178 -0.4199
  930MOL0     C22690   2.281   4.687   3.497  1.5967 -0.1671  0.0877
  930MOL0     C22691   2.306   4.641   3.640 -0.0472 -0.9303  1.2041
  930MOL0     C22692   2.309   4.597   3.753  0.3712  0.4970  0.2568
  930MOL0     C22693   1.657   4.773   3.384 -0.3419 -0.0488  0.5430
  930MOL0     C22694   1.541   4.728   3.339 -0.1400 -0.3602  0.5151
  930MOL0     H22695   1.231   4.351   3.239 -0.6719 -1.4923  1.7449
  930MOL0     H22696   1.016   4.241   3.244  1.4044 -0.2703  0.5641
  930MOL0     H22697   0.767   4.148   3.309  0.4224 -0.9435  1.0386
  930MOL0     H22698   0.764   4.261   3.168  1.7354  1.3489  1.8730
  930MOL0     H22699   0.547   4.181   3.221  0.1297  0.5932 -0.3351
  930MOL0     H22700   0.565   4.352   3.243  0.3748 -1.3455 -2.4311
  930MOL0     H22701   0.587   4.330   3.486  1.9310 -1.6517  1.5300
  930MOL0     H22702   0.591   4.152   3.467 -0.8010 -0.6965 -1.1024
  930MOL0     H22703   0.364   4.323   3.384  1.9595  0.5919 -0.8312
  930MOL0     H22704   0.354   4.148   3.375  0.0466 -0.3963  0.7395
  930MOL0     H22705   0.360   4.333   3.620 -0.8610 -0.5270  3.4830
  930MOL0     H22706   0.406   4.167   3.649  0.0949 -1.0923  0.3490
  930MOL0     H22707   0.172   4.196   3.699 -0.7067 -0.1057  0.4578
  930MOL0     H22708   0.193   4.090   3.563  1.2691 -1.8419  2.5131
  930MOL0     H22709   0.127   4.396   3.530 -1.0614  0.3429 -3.2694
  930MOL0     H22710   0.132   4.274   3.403 -0.1081 -0.0785 -0.7416
  930MOL0     H22711  -0.060   4.256   3.642 -0.0193  0.1352  0.2575
  930MOL0     H22712  -0.036   4.137   3.527  0.0279  1.2491 -1.4310
  930MOL0     H22713  -0.210   4.474   3.560  2.3707 -0.3133  0.1365
  930MOL0     H22714  -0.343   4.541   3.203 -1.4264 -1.0993 -0.7877
  930MOL0     H22715  -0.361   4.632   3.342  2.2673  0.6197 -0.5904
  930MOL0     H22716  -0.526   4.389   3.266  0.3301 -0.7488  1.9827
  930MOL0     H22717  -0.573   4.563   3.273  0.6246  0.4215  1.5600
  930MOL0     H22718  -0.497   4.376   3.506  3.5882  1.6518 -1.4274
  930MOL0     H22719  -0.539   4.554   3.529 -4.2632  0.0112  1.2040
  930MOL0     H22720  -0.706   4.355   3.405  0.6482 -0.4810  1.7158
  930MOL0     H22721  -0.757   4.520   3.424 -2.0057  0.3624  1.2451
  930MOL0     H22722  -0.867   4.439   3.817 -0.4572 -0.0383  0.7834
  930MOL0     H22723  -1.092   4.537   3.880 -3.0004 -2.8672  1.0147
  930MOL0     H22724  -1.445   4.862   3.423 -0.6232 -2.1412 -1.3366
  930MOL0     H22725  -1.682   4.933   3.400 -1.2304  2.8903  3.4260
  930MOL0     H22726  -1.961   4.773   3.679 -1.7970  3.1555  0.3453
  930MOL0     H22727  -1.987   4.686   3.531  1.2284 -1.0976  0.8125
  930MOL0     H22728  -2.123   4.947   3.643 -0.8959 -0.1272  0.4606
  930MOL0     H22729  -2.197   4.810   3.548 -2.5755  2.0213  1.8956
  930MOL0     H22730  -2.062   4.911   3.348  1.2471  0.4417  1.4058
  930MOL0     H22731  -2.027   5.032   3.469 -0.5382  0.6865 -1.9335
  930MOL0     H22732  -2.313   4.957   3.384  1.9926 -1.9734  0.6713
  930MOL0     H22733  -2.258   5.067   3.518 -1.3085 -1.3689  0.3281
  930MOL0     H22734  -2.140   5.197   3.350  0.9775 -1.4481  0.3569
  930MOL0     H22735  -2.317   5.202   3.316  1.0103  3.0534  0.1900
  930MOL0     H22736  -2.322   5.037   3.162  0.4393 -1.4476  0.5742
  930MOL0     H22737  -2.143   5.012   3.159 -0.8195  0.1301  0.5106
  930MOL0     H22738  -2.304   5.260   3.076 -0.5836  0.0568  0.5579
  930MOL0     H22739  -2.138   5.270   3.116  0.4463 -2.8632  3.7146
  930MOL0     H22740  -2.078   5.091   2.939 -1.6523 -2.3847 -0.0479
  930MOL0     H22741  -2.148   5.217   2.852 -0.2747  0.2957  0.1291
  930MOL0     H22742  -1.792   4.646   3.699  0.5273 -3.9083 -1.7496
  930MOL0     H22743  -1.581   4.572   3.729 -3.8409  2.2779  3.6663
  930MOL0     H22744  -1.181   4.561   3.454 -0.0433  0.1064 -0.3977
  930MOL0     H22745  -0.969   4.492   3.396  0.2362 -0.5683 -0.2666
  930MOL0     H22746   0.850   4.604   3.414 -0.5312  0.2165 -1.0154
  930MOL0     H22747   1.054   4.713   3.365  1.0169 -0.2360 -0.8578
  930MOL0     H22748   1.636   4.536   3.079  1.2818 -0.8730  1.2749
  930MOL0     H22749   1.847   4.612   3.155  2.2376  1.3533  3.5091
  930MOL0     H22750   1.985   4.827   3.178 -0.0439 -0.6853  0.0082
  930MOL0     H22751   2.021   4.672   3.262 -0.7556 -0.0668 -1.0102
  930MOL0     H22752   2.213   4.848   3.296  2.1760 -2.0611  1.8477
  930MOL0     H22753   2.090   4.943   3.377 -1.4022 -1.4161  1.0027
  930MOL0     H22754   2.068   4.704   3.513  1.0081  0.8727  1.7724
  930MOL0     H22755   2.161   4.838   3.569 -0.0527 -0.3214  0.2898
  930MOL0     H22756   2.277   4.596   3.437 -0.9142  1.1923 -2.0005
  930MOL0     H22757   2.361   4.758   3.472 -0.7177  2.5575 -0.1140
  930MOL0     H22758   2.318   4.553   3.849 -0.7047  0.5662  0.4040
  930MOL0     H22759   1.664   4.827   3.478  0.0772 -0.8795  0.9982
  930MOL0     H22760   1.452   4.772   3.384  1.0986  3.4407 -0.4200
  931MOL0     O22761   0.575   9.484   7.235 -0.2931  0.0478  0.1598
  931MOL0     C22762   0.464   9.488   7.287 -0.6782  0.7249  0.7730
  931MOL0     O22763   0.347   9.536   7.239 -0.5593 -0.3617  0.5492
  931MOL0     C22764   0.333   9.589   7.116 -1.0826  0.2747 -0.4462
  931MOL0     C22765   0.418   9.694   7.071  0.6358  0.7408 -0.3907
  931MOL0     C22766   0.376   9.747   6.949 -0.7445  0.1777  0.6884
  931MOL0     C22767   0.269   9.713   6.870  0.4552 -0.4126 -0.1681
  931MOL0     O22768   0.267   9.779   6.746 -0.1282 -0.5548  0.3139
  931MOL0     C22769   0.168   9.734   6.654 -1.6812  1.0965 -0.6784
  931MOL0     C22770   0.046   9.806   6.684  0.2075 -0.5787  0.2007
  931MOL0     C22771  -0.060   9.742   6.597  0.4789  0.6273  0.5916
  931MOL0     C22772  -0.208   9.798   6.617 -0.7860 -0.2390  0.8043
  931MOL0     C22773  -0.277   9.801   6.481 -0.6826  0.5070 -1.2190
  931MOL0     C22774  -0.426   9.805   6.491 -0.4593  0.4860 -0.2040
  931MOL0     C22775  -0.488   9.797   6.351  0.0786  0.3652 -1.4366
  931MOL0     C22776  -0.638   9.830   6.383 -0.0314 -0.2926 -0.3068
  931MOL0     N22777  -0.691   9.877   6.255 -0.1199  0.1886  0.7485
  931MOL0     C22778  -0.660   9.993   6.184  0.0543 -0.7257 -0.0576
  931MOL0     C22779  -0.751   9.997   6.085 -0.2096  0.5528 -0.7703
  931MOL0     C22780  -0.753  10.100   5.983  0.9488  0.5922 -0.2178
  931MOL0     C22781  -0.862  10.206   5.993 -0.2511 -0.2423 -0.0920
  931MOL0     C22782  -1.003  10.149   6.020  0.6058 -0.0456  0.7659
  931MOL0     C22783  -1.116  10.243   5.989 -0.1952 -0.2734  0.3438
  931MOL0     O22784  -1.125  10.369   6.065  0.5072  0.2862 -0.2018
  931MOL0     C22785  -1.250  10.422   6.059  0.4364  0.3327  0.9299
  931MOL0     C22786  -1.342  10.411   5.946 -0.0985 -0.9964 -0.3390
  931MOL0     C22787  -1.471  10.456   5.958 -0.0183  0.2968 -0.0543
  931MOL0     C22788  -1.512  10.537   6.076  0.0244 -0.5804  0.4046
  931MOL0     C22789  -1.643  10.588   6.100  0.4578  0.0665 -0.6207
  931MOL0     O22790  -1.684  10.689   6.190  0.0261 -0.7786  0.4965
  931MOL0     C22791  -1.818  10.707   6.237 -0.0042  0.1484  1.3395
  931MOL0     C22792  -1.867  10.830   6.268  0.5332 -0.1041  0.3124
  931MOL0     C22793  -1.999  10.853   6.312  1.2293  0.0761  0.3622
  931MOL0     C22794  -2.077  10.743   6.350 -0.8792 -0.3598  0.7203
  931MOL0     O22795  -2.213  10.758   6.385  0.3055 -0.4402 -0.0007
  931MOL0     C22796  -2.297  10.830   6.304  0.7434  0.3894 -0.2549
  931MOL0     C22797  -2.406  10.741   6.243 -1.0517  0.0431  1.3051
  931MOL0     C22798  -2.484  10.828   6.137  0.0930  0.6235 -0.1436
  931MOL0     C22799  -2.576  10.729   6.057 -1.0055  0.0006 -0.0944
  931MOL0     C22800  -2.680  10.804   5.983 -0.3115 -0.1840 -0.6232
  931MOL0     C22801  -2.625  10.909   5.881  0.1928 -0.3383 -0.1501
  931MOL0     C22802  -2.743  10.993   5.810 -1.3462  0.0467  0.7400
  931MOL0     C22803  -2.666  11.098   5.722  0.9324 -0.1178 -0.0306
  931MOL0    Cl22804  -2.758  11.144   5.579  0.3392  0.3548  0.1975
  931MOL0     C22805  -2.023  10.613   6.326  0.2764  0.0678  0.0999
  931MOL0     C22806  -1.902  10.590   6.267 -0.2689  0.1780  0.7317
  931MOL0     O22807  -1.716  10.530   6.013  0.4165 -0.7006 -0.4993
  931MOL0     C22808  -1.416  10.558   6.170  0.1542 -0.1672  0.0903
  931MOL0     C22809  -1.286  10.502   6.163  0.3977 -0.2671 -1.5331
  931MOL0     N22810  -0.824   9.881   6.085  0.0945  0.0256  0.3211
  931MOL0     N22811  -0.798   9.814   6.197 -0.5209  0.2751 -0.5558
  931MOL0     C22812   0.196   9.611   6.921 -0.2559  0.0361 -0.3809
  931MOL0     C22813   0.229   9.546   7.039  0.2697 -0.4529 -0.3121
  931MOL0     C22814   0.470   9.471   7.434 -0.2494 -0.4717 -0.3944
  931MOL0     C22815   0.560   9.385   7.501 -0.2786 -0.9796 -0.9065
  931MOL0     C22816   0.565   9.374   7.639  0.2193 -0.3861 -0.5693
  931MOL0     C22817   0.495   9.458   7.720  1.1204 -0.2501 -0.4273
  931MOL0     O22818   0.501   9.461   7.855 -0.3997  0.0271 -0.5516
  931MOL0     C22819   0.617   9.425   7.918 -0.5882  0.2198 -0.9522
  931MOL0     C22820   0.744   9.500   7.890 -0.8147 -0.1606 -0.4283
  931MOL0     C22821   0.715   9.655   7.910 -0.3453 -0.1192  0.7955
  931MOL0     C22822   0.826   9.754   7.861  0.0464 -0.4686  0.5337
  931MOL0     C22823   0.906   9.814   7.966  0.0975  0.4029  0.4187
  931MOL0     C22824   0.954   9.863   8.069 -0.1768  0.2299  0.5088
  931MOL0     C22825   0.405   9.551   7.660 -0.2948  0.3769  1.1369
  931MOL0     C22826   0.398   9.561   7.521 -0.0257 -0.8957 -0.1368
  931MOL0     H22827   0.510   9.726   7.118  1.9261  1.5842 -3.2917
  931MOL0     H22828   0.424   9.842   6.926 -2.4954  0.6481 -1.3165
  931MOL0     H22829   0.151   9.628   6.678  1.6017  1.0468  2.3304
  931MOL0     H22830   0.212   9.759   6.557  2.5160 -1.5723  0.2721
  931MOL0     H22831   0.056   9.914   6.666  1.4443 -0.6885  0.0852
  931MOL0     H22832   0.010   9.783   6.785 -2.2887 -2.1874 -0.9768
  931MOL0     H22833  -0.069   9.634   6.613 -1.2306  0.2646 -2.1480
  931MOL0     H22834  -0.033   9.761   6.493 -1.8764 -0.3921 -0.2858
  931MOL0     H22835  -0.262   9.733   6.687 -1.8212 -0.1966  0.0830
  931MOL0     H22836  -0.227   9.900   6.650 -4.1552 -0.5115  0.1340
  931MOL0     H22837  -0.245   9.711   6.428 -3.5147 -0.5341 -1.3157
  931MOL0     H22838  -0.239   9.893   6.437 -0.3506  1.2470  0.5102
  931MOL0     H22839  -0.457   9.899   6.538  2.1849  0.4066  1.9466
  931MOL0     H22840  -0.445   9.720   6.557  2.2509  1.4705  2.0423
  931MOL0     H22841  -0.445   9.877   6.290  4.2537  0.5329  1.3675
  931MOL0     H22842  -0.481   9.700   6.301 -1.4563  0.2383 -1.4718
  931MOL0     H22843  -0.653   9.903   6.463 -1.2677 -1.6676  0.7618
  931MOL0     H22844  -0.680   9.735   6.416  0.4249 -0.9575 -1.5546
  931MOL0     H22845  -0.582  10.064   6.209 -1.9752  1.5854  0.1045
  931MOL0     H22846  -0.755  10.054   5.884  1.2539 -0.5462  0.2948
  931MOL0     H22847  -0.663  10.163   5.989 -0.0459  2.4341 -2.6738
  931MOL0     H22848  -0.854  10.260   5.898 -0.0803 -1.2449 -0.6641
  931MOL0     H22849  -0.840  10.276   6.074  1.4555 -0.2968 -0.4646
  931MOL0     H22850  -1.016  10.074   5.941  2.5371  0.9500 -0.5711
  931MOL0     H22851  -1.021  10.100   6.116  1.0462 -1.4294  0.1690
  931MOL0     H22852  -1.212  10.192   6.000  0.4577 -2.0619 -1.5146
  931MOL0     H22853  -1.111  10.282   5.886  0.5199  2.0374  1.1781
  931MOL0     H22854  -1.306  10.353   5.862  0.6362 -1.3936  0.2432
  931MOL0     H22855  -1.535  10.458   5.871 -0.5709  1.1304  0.3571
  931MOL0     H22856  -1.809  10.918   6.242 -1.8574  0.8195 -2.4373
  931MOL0     H22857  -2.040  10.952   6.328  3.7158  1.8203 -2.7712
  931MOL0     H22858  -2.236  10.877   6.226  1.8571  1.2586  1.0874
  931MOL0     H22859  -2.352  10.903   6.365 -2.5407 -1.8195 -0.2952
  931MOL0     H22860  -2.466  10.693   6.321 -0.0489  2.9179  4.0328
  931MOL0     H22861  -2.354  10.672   6.176 -1.8783  3.0477 -2.9017
  931MOL0     H22862  -2.415  10.888   6.078 -1.4739 -0.3691 -3.2082
  931MOL0     H22863  -2.545  10.900   6.192  2.6969  1.7891  1.4150
  931MOL0     H22864  -2.510  10.668   5.993 -2.1467  0.4414 -1.7650
  931MOL0     H22865  -2.625  10.671   6.135  0.6851 -0.2857  0.8190
  931MOL0     H22866  -2.743  10.866   6.048 -0.3080 -0.5683 -0.2441
  931MOL0     H22867  -2.747  10.728   5.941  2.8813 -2.1378 -2.6113
  931MOL0     H22868  -2.561  10.863   5.805 -2.2646 -0.3317 -2.3421
  931MOL0     H22869  -2.565  10.974   5.946  1.1599  1.6241 -2.7890
  931MOL0     H22870  -2.809  10.928   5.752 -0.4773 -1.1836  1.0682
  931MOL0     H22871  -2.809  11.036   5.885 -1.8565 -1.2634  1.0672
  931MOL0     H22872  -2.574  11.057   5.678 -1.4234 -0.6130 -5.2383
  931MOL0     H22873  -2.637  11.191   5.771  0.3524  0.7053 -1.2150
  931MOL0     H22874  -2.077  10.527   6.363  0.7909  0.2161  1.2369
  931MOL0     H22875  -1.866  10.490   6.243  0.0439 -0.2549  2.7719
  931MOL0     H22876  -1.443  10.623   6.253 -1.4945  0.9822 -1.2833
  931MOL0     H22877  -1.223  10.526   6.247 -1.7434 -4.0388  1.5218
  931MOL0     H22878   0.107   9.579   6.867 -1.3226  1.8237  0.2557
  931MOL0     H22879   0.172   9.467   7.087  0.4912  0.2670  1.2162
  931MOL0     H22880   0.620   9.311   7.448  0.9557 -0.7081  0.0663
  931MOL0     H22881   0.634   9.304   7.686  2.2629  1.0336 -1.2796
  931MOL0     H22882   0.646   9.320   7.910  0.0153  0.4170 -1.4273
  931MOL0     H22883   0.594   9.435   8.024 -1.3190  0.1505 -1.0970
  931MOL0     H22884   0.825   9.478   7.961  0.8859 -2.3477 -2.8305
  931MOL0     H22885   0.780   9.466   7.792 -2.8028 -2.5106 -0.4329
  931MOL0     H22886   0.683   9.674   8.013 -0.7615  2.6794  0.2347
  931MOL0     H22887   0.622   9.684   7.862 -1.4586 -3.9195  0.3333
  931MOL0     H22888   0.886   9.696   7.790  2.3257 -0.2388  2.1292
  931MOL0     H22889   0.788   9.839   7.804  1.3687  0.5226  1.0740
  931MOL0     H22890   0.983   9.907   8.162  0.2763  1.5876 -0.2514
  931MOL0     H22891   0.341   9.609   7.725  1.1415  1.1574  1.8962
  931MOL0     H22892   0.335   9.641   7.482 -0.7013 -1.4470 -0.1795
  932MOL0     O22893   4.306   9.758   0.805 -0.4186  0.6070  0.4407
  932MOL0     C22894   4.295   9.651   0.741 -0.1044  0.4346 -0.3950
  932MOL0     O22895   4.207   9.560   0.776  0.3536  0.8356  0.3586
  932MOL0     C22896   4.129   9.560   0.888  0.6723  0.8888 -0.4188
  932MOL0     C22897   4.087   9.441   0.949 -0.2713  0.7941 -0.3819
  932MOL0     C22898   4.019   9.435   1.073 -0.2436 -0.8870  0.4393
  932MOL0     C22899   3.959   9.544   1.122  0.5338  0.3780 -0.2261
  932MOL0     O22900   3.869   9.518   1.224 -0.0028 -0.6274  0.8868
  932MOL0     C22901   3.783   9.632   1.244 -0.2643 -0.1337  0.0669
  932MOL0     C22902   3.715   9.609   1.384 -0.8858 -0.2001  0.7523
  932MOL0     C22903   3.644   9.471   1.384 -0.1266  0.0994  0.6022
  932MOL0     C22904   3.586   9.447   1.521 -0.3777  0.1678 -0.0802
  932MOL0     C22905   3.462   9.531   1.551  0.3189 -0.3802  0.3880
  932MOL0     C22906   3.351   9.513   1.444  0.3270 -0.1392  0.0572
  932MOL0     C22907   3.216   9.585   1.489 -0.7732  0.0574  0.1727
  932MOL0     C22908   3.100   9.558   1.395  0.2304 -0.5366 -0.6781
  932MOL0     N22909   2.985   9.647   1.428 -0.5772 -0.5734 -0.0996
  932MOL0     C22910   2.938   9.668   1.557 -0.4311  0.4878  0.0201
  932MOL0     C22911   2.822   9.724   1.547  0.4979 -0.4141 -0.4270
  932MOL0     C22912   2.730   9.757   1.665  0.8428  0.8551  0.5438
  932MOL0     C22913   2.721   9.635   1.765  0.6674 -0.4212  0.0649
  932MOL0     C22914   2.635   9.517   1.706  0.1003 -0.2881  2.1515
  932MOL0     C22915   2.622   9.393   1.795 -0.3443 -0.7996 -0.6547
  932MOL0     O22916   2.559   9.434   1.922 -0.3612  0.0302 -0.1061
  932MOL0     C22917   2.433   9.392   1.955 -0.3740 -0.4607  0.0265
  932MOL0     C22918   2.388   9.436   2.077 -0.3304 -0.0772 -0.1158
  932MOL0     C22919   2.264   9.404   2.123 -1.2831  1.0723  0.0293
  932MOL0     C22920   2.185   9.314   2.049 -0.0636  0.2020 -0.2141
  932MOL0     C22921   2.055   9.277   2.092 -0.0478  0.4258 -0.5009
  932MOL0     O22922   2.003   9.157   2.045  0.5369 -0.1038  0.4471
  932MOL0     C22923   1.877   9.107   2.071 -0.1849  0.5938  0.4016
  932MOL0     C22924   1.855   8.981   2.024 -0.0004  0.1150 -0.4018
  932MOL0     C22925   1.737   8.921   2.036 -0.2920 -0.7269  0.2191
  932MOL0     C22926   1.623   8.986   2.094 -0.7614 -0.0236 -0.0746
  932MOL0     O22927   1.492   8.937   2.102 -0.1240  0.8631 -0.2665
  932MOL0     C22928   1.464   8.840   1.991 -1.1497 -0.0472 -0.6148
  932MOL0     C22929   1.326   8.783   2.008  0.6716 -0.4868 -0.8713
  932MOL0     C22930   1.292   8.723   2.144 -0.3345  0.2779  0.4441
  932MOL0     C22931   1.149   8.673   2.150  0.2229  0.1831  0.6900
  932MOL0     C22932   1.114   8.636   2.299 -0.6175 -0.5680  0.4575
  932MOL0     C22933   0.969   8.583   2.302  0.2482  0.8950  0.0582
  932MOL0     C22934   0.916   8.565   2.441 -0.9623 -0.4367  0.3360
  932MOL0     C22935   0.949   8.436   2.524 -0.1166  0.1446  0.1579
  932MOL0    Cl22936   0.870   8.451   2.693 -0.2522 -0.2262  0.2716
  932MOL0     C22937   1.638   9.122   2.133 -0.7431  0.8384 -1.1721
  932MOL0     C22938   1.769   9.176   2.115  0.9442  0.3581 -1.2815
  932MOL0     O22939   2.007   9.353   2.183  0.4029  0.8212  0.1598
  932MOL0     C22940   2.235   9.252   1.929 -1.2554 -0.2885  0.0659
  932MOL0     C22941   2.354   9.305   1.877  0.1585 -0.2952 -0.6666
  932MOL0     N22942   2.780   9.729   1.413 -0.3998  0.4645  0.3036
  932MOL0     N22943   2.879   9.693   1.342 -0.3225 -0.8569 -0.8768
  932MOL0     C22944   3.985   9.669   1.054  0.1024  0.0807  0.5214
  932MOL0     C22945   4.062   9.677   0.940 -0.5586  0.2845  0.2532
  932MOL0     C22946   4.401   9.617   0.639 -0.1209 -0.1914 -0.0241
  932MOL0     C22947   4.460   9.713   0.559 -0.3586  1.0635 -1.3759
  932MOL0     C22948   4.560   9.679   0.463  0.0104 -0.8431  0.4798
  932MOL0     C22949   4.605   9.549   0.448  0.2345 -0.4264  0.1664
  932MOL0     O22950   4.697   9.519   0.352  0.0390 -0.0180 -0.2882
  932MOL0     C22951   4.680   9.392   0.294 -0.3653 -0.6560 -0.3228
  932MOL0     C22952   4.743   9.411   0.151  0.1175 -0.7915 -0.2283
  932MOL0     C22953   4.892   9.425   0.133 -0.3257 -0.4192 -0.6631
  932MOL0     C22954   4.933   9.495  -0.001 -0.6652  1.1960  0.7880
  932MOL0     C22955   4.918   9.401  -0.102 -0.0177  0.1452  0.2052
  932MOL0     C22956   4.897   9.316  -0.189 -0.2244 -0.0353  0.6984
  932MOL0     C22957   4.547   9.452   0.533 -0.9225 -0.8640  0.6968
  932MOL0     C22958   4.447   9.488   0.623  0.0262  0.0459  0.7370
  932MOL0     H22959   4.139   9.351   0.919  0.2859  0.2996  1.8576
  932MOL0     H22960   4.006   9.358   1.148  1.1372 -1.2691  0.3025
  932MOL0     H22961   3.719   9.624   1.155 -2.2732 -0.0746  1.4316
  932MOL0     H22962   3.838   9.726   1.245  0.9189 -0.8079  0.2825
  932MOL0     H22963   3.642   9.689   1.389 -0.7992 -0.1894  2.5182
  932MOL0     H22964   3.790   9.619   1.464  1.6525 -2.5649 -1.0939
  932MOL0     H22965   3.704   9.382   1.360 -1.1147 -0.6228  0.7715
  932MOL0     H22966   3.566   9.473   1.308  0.6766  3.2489 -0.3124
  932MOL0     H22967   3.555   9.343   1.530  0.5516 -0.0325  0.9898
  932MOL0     H22968   3.664   9.463   1.596 -0.1626 -0.7309 -0.1038
  932MOL0     H22969   3.482   9.638   1.542  1.1245 -0.2187  3.1818
  932MOL0     H22970   3.426   9.506   1.651 -1.9887  0.1706 -0.2435
  932MOL0     H22971   3.329   9.406   1.436  0.7378 -0.1512 -1.0133
  932MOL0     H22972   3.391   9.562   1.355  4.6549 -1.0864  1.2133
  932MOL0     H22973   3.188   9.563   1.592 -0.6231 -0.9268  0.0219
  932MOL0     H22974   3.240   9.691   1.502  1.6565 -0.6727  2.5419
  932MOL0     H22975   3.059   9.457   1.405 -1.7844 -0.0423 -3.0202
  932MOL0     H22976   3.127   9.571   1.290  2.4790  0.8359  0.0137
  932MOL0     H22977   2.981   9.630   1.649  0.5172  1.8504  0.1701
  932MOL0     H22978   2.636   9.790   1.621 -0.0428  0.3813  2.0311
  932MOL0     H22979   2.780   9.837   1.721  3.1585  0.0400 -0.2353
  932MOL0     H22980   2.681   9.661   1.863  2.2198 -1.0026  0.8949
  932MOL0     H22981   2.817   9.593   1.799  1.2487  1.0951  0.3725
  932MOL0     H22982   2.542   9.561   1.668  2.3178  3.9066  0.8481
  932MOL0     H22983   2.688   9.495   1.613 -1.8829  3.4387 -0.1272
  932MOL0     H22984   2.725   9.364   1.819 -0.1261 -0.9306 -1.7202
  932MOL0     H22985   2.584   9.302   1.747 -0.0687 -2.4237  1.9746
  932MOL0     H22986   2.457   9.495   2.137  0.0985  1.3257 -1.9234
  932MOL0     H22987   2.232   9.426   2.224  1.4625 -1.4082  1.6114
  932MOL0     H22988   1.946   8.924   2.008 -1.4353 -2.3606 -0.3965
  932MOL0     H22989   1.740   8.816   2.006  0.5777 -0.2788 -1.4271
  932MOL0     H22990   1.532   8.755   2.002 -0.1169  0.8724  0.3453
  932MOL0     H22991   1.467   8.890   1.894  1.3590  1.3257  0.0865
  932MOL0     H22992   1.320   8.705   1.932 -0.9362 -2.6698  1.3399
  932MOL0     H22993   1.247   8.856   1.987  0.0526 -0.8481  0.1197
  932MOL0     H22994   1.308   8.802   2.218  2.1917  0.5410 -0.3122
  932MOL0     H22995   1.370   8.649   2.161  0.5803  1.0012 -0.4625
  932MOL0     H22996   1.081   8.753   2.120 -1.5419 -0.5190  2.5481
  932MOL0     H22997   1.127   8.589   2.083 -0.0842  0.9640 -0.2012
  932MOL0     H22998   1.127   8.728   2.357  3.1132  1.3794 -2.9658
  932MOL0     H22999   1.178   8.555   2.336 -0.2747 -0.1077  0.8740
  932MOL0     H23000   0.947   8.498   2.237  3.2359  1.1686 -1.5150
  932MOL0     H23001   0.905   8.666   2.270  1.0341  1.0006 -1.3025
  932MOL0     H23002   0.941   8.657   2.495 -0.4554 -2.3971  3.7475
  932MOL0     H23003   0.806   8.562   2.441 -0.9803 -0.4550 -1.4652
  932MOL0     H23004   1.057   8.423   2.535 -0.3290 -0.0804  2.5734
  932MOL0     H23005   0.903   8.351   2.473 -1.0507  2.6342 -3.4768
  932MOL0     H23006   1.561   9.191   2.166 -1.5966 -0.7481  0.3421
  932MOL0     H23007   1.762   9.283   2.133 -1.0844  0.2484 -1.1442
  932MOL0     H23008   2.170   9.177   1.886 -1.7272 -0.4021  0.9623
  932MOL0     H23009   2.383   9.260   1.783 -0.0507 -1.1569 -0.3302
  932MOL0     H23010   3.949   9.769   1.075 -0.5181  0.1075 -0.6097
  932MOL0     H23011   4.067   9.770   0.886 -1.6200  1.6835  2.4403
  932MOL0     H23012   4.425   9.816   0.559 -0.2667  1.0973 -0.5460
  932MOL0     H23013   4.592   9.758   0.396 -2.4514 -0.1932 -0.0322
  932MOL0     H23014   4.577   9.356   0.285 -0.2255 -0.9043 -1.0275
  932MOL0     H23015   4.735   9.318   0.354 -3.0318 -2.0393  0.5655
  932MOL0     H23016   4.717   9.315   0.105 -2.0774 -2.4245  3.9569
  932MOL0     H23017   4.688   9.492   0.101 -1.2760 -1.9475 -0.6571
  932MOL0     H23018   4.946   9.330   0.139  2.3830  0.8839 -2.5977
  932MOL0     H23019   4.925   9.480   0.221 -0.5136 -0.6380 -0.4532
  932MOL0     H23020   4.866   9.580  -0.013 -0.8949  0.6128 -3.0653
  932MOL0     H23021   5.036   9.533  -0.002 -0.7948  1.5400  0.0664
  932MOL0     H23022   4.878   9.221  -0.236  2.6521 -2.2233  3.5344
  932MOL0     H23023   4.585   9.351   0.544 -0.0850 -0.3721  2.8291
  932MOL0     H23024   4.411   9.401   0.675  1.0718 -1.4302 -0.8798
  933MOL0     O23025   4.419   0.322   7.800  0.1356  0.0914  0.4376
  933MOL0     C23026   4.504   0.380   7.867  0.2052  0.5357 -0.4935
  933MOL0     O23027   4.475   0.455   7.982  0.2233 -0.4421 -0.6925
  933MOL0     C23028   4.349   0.482   8.030  0.4986  0.6531 -0.6790
  933MOL0     C23029   4.340   0.509   8.167 -1.0337 -0.0434 -0.9123
  933MOL0     C23030   4.221   0.558   8.217  0.7395  0.0532  0.0270
  933MOL0     C23031   4.115   0.600   8.127 -0.0096 -0.2208 -0.2657
  933MOL0     O23032   4.000   0.663   8.176 -0.1690 -0.2207  0.1600
  933MOL0     C23033   4.009   0.789   8.245 -0.4150  0.3663  0.5415
  933MOL0     C23034   3.911   0.809   8.359 -0.8157 -0.5139 -0.3533
  933MOL0     C23035   3.899   0.682   8.444  0.2068 -0.3291 -0.6647
  933MOL0     C23036   3.852   0.709   8.593  0.9647 -0.8949  0.4880
  933MOL0     C23037   3.972   0.727   8.692  0.9814  0.0461 -0.3882
  933MOL0     C23038   3.988   0.583   8.759  0.3075 -0.9021  0.2077
  933MOL0     C23039   4.032   0.480   8.659  0.6004  0.5786  0.6768
  933MOL0     C23040   4.086   0.349   8.715 -0.5005 -0.7516  0.0934
  933MOL0     N23041   3.985   0.277   8.804 -0.0726  0.0988  1.0045
  933MOL0     C23042   3.987   0.282   8.939  0.9242 -0.4675  0.9700
  933MOL0     C23043   3.906   0.179   8.973 -0.3287  0.1650  0.0940
  933MOL0     C23044   3.873   0.134   9.111 -0.5141  0.6834 -0.5487
  933MOL0     C23045   3.882  -0.022   9.126 -0.5399 -0.0948 -0.1600
  933MOL0     C23046   3.760  -0.102   9.084 -0.0143 -0.8984  0.5614
  933MOL0     C23047   3.624  -0.092   9.164  0.0798 -1.0317 -0.2092
  933MOL0     O23048   3.644  -0.103   9.306  0.0306  0.5210  1.1118
  933MOL0     C23049   3.549  -0.130   9.402 -0.5378  0.3321  0.6110
  933MOL0     C23050   3.413  -0.108   9.371  0.3432  0.5738  0.5782
  933MOL0     C23051   3.316  -0.132   9.468  0.2919  0.4669 -0.5070
  933MOL0     C23052   3.352  -0.178   9.598 -0.4308 -0.2980 -1.0780
  933MOL0     C23053   3.240  -0.193   9.703  0.2197  0.8844  0.5425
  933MOL0     O23054   3.122  -0.185   9.660  0.2396  0.3648 -0.2205
  933MOL0     C23055   3.018  -0.212   9.750  0.1237 -0.3086  0.2136
  933MOL0     C23056   2.984  -0.111   9.843 -0.2852  0.6010 -1.1120
  933MOL0     C23057   2.854  -0.120   9.909  0.3516  0.2265  0.3220
  933MOL0     C23058   2.763  -0.228   9.894  0.1342 -0.2158  0.8799
  933MOL0     O23059   2.638  -0.219   9.954 -0.7220 -0.8136  0.2227
  933MOL0     C23060   2.552  -0.332   9.953 -0.2868  1.0408  0.8585
  933MOL0     C23061   2.466  -0.345   9.822  0.5844 -0.0895 -0.0167
  933MOL0     C23062   2.460  -0.491   9.778  0.4806  0.1185  0.4984
  933MOL0     C23063   2.328  -0.512   9.691  0.5722 -0.5437  0.0249
  933MOL0     C23064   2.303  -0.670   9.665  0.4362  0.5069 -0.0860
  933MOL0     C23065   2.250  -0.688   9.524 -0.6123  0.3757  0.7315
  933MOL0     C23066   2.194  -0.835   9.500 -0.1577 -0.1976  0.0314
  933MOL0     C23067   2.115  -0.858   9.373 -0.2619 -0.5726 -0.1202
  933MOL0    Cl23068   1.977  -0.745   9.358  0.0637 -0.2558  0.3245
  933MOL0     C23069   2.803  -0.317   9.795  0.0720  0.9179 -0.2640
  933MOL0     C23070   2.924  -0.303   9.722 -0.3574 -0.4287 -0.3563
  933MOL0     O23071   3.278  -0.207   9.820 -0.2670  0.1046  0.3994
  933MOL0     C23072   3.492  -0.209   9.629  0.5518  0.1115  0.6993
  933MOL0     C23073   3.585  -0.175   9.533  0.0865  0.2691 -0.7052
  933MOL0     N23074   3.836   0.140   8.864 -0.4299 -0.1098 -0.1115
  933MOL0     N23075   3.879   0.204   8.764  0.4565  0.0164  0.3468
  933MOL0     C23076   4.125   0.574   7.984 -1.7963 -0.1788 -0.3662
  933MOL0     C23077   4.246   0.514   7.946  0.7041  0.2316  0.1421
  933MOL0     C23078   4.647   0.343   7.827  0.0743 -1.2338 -0.0023
  933MOL0     C23079   4.753   0.403   7.898 -0.9809  0.0567 -0.0286
  933MOL0     C23080   4.887   0.378   7.868  0.0336 -0.4713 -0.7285
  933MOL0     C23081   4.916   0.292   7.766 -0.3489  2.1117 -0.0152
  933MOL0     O23082   5.047   0.301   7.738  0.3979 -0.1341  0.2143
  933MOL0     C23083   5.091   0.210   7.637 -0.6976 -0.5024 -0.7898
  933MOL0     C23084   5.092   0.055   7.683  0.5487 -0.4440  0.2469
  933MOL0     C23085   5.139  -0.047   7.573  0.3095 -0.7211 -0.2463
  933MOL0     C23086   5.081  -0.183   7.599  0.3699 -0.1332  0.0006
  933MOL0     C23087   5.117  -0.242   7.725  0.6786 -0.2200  0.5283
  933MOL0     C23088   5.146  -0.282   7.832  0.1264  1.1317 -0.5726
  933MOL0     C23089   4.813   0.225   7.696 -0.1297 -0.2098 -0.0894
  933MOL0     C23090   4.678   0.254   7.723 -0.2241  0.4475  0.3293
  933MOL0     H23091   4.419   0.502   8.241  0.1831  4.2493 -1.5090
  933MOL0     H23092   4.203   0.564   8.324  1.7131 -6.2163  0.9367
  933MOL0     H23093   4.000   0.864   8.166  0.1957 -1.0452 -0.9355
  933MOL0     H23094   4.108   0.790   8.290 -1.1348 -1.3600  2.2797
  933MOL0     H23095   3.811   0.826   8.319 -0.2955 -0.5162 -1.7518
  933MOL0     H23096   3.944   0.892   8.421 -0.2479 -1.0470  0.0758
  933MOL0     H23097   3.997   0.635   8.453  0.9807  1.1775 -0.8187
  933MOL0     H23098   3.834   0.611   8.393 -0.4675  0.1697 -0.5230
  933MOL0     H23099   3.789   0.798   8.586  1.0426 -0.8413  0.4697
  933MOL0     H23100   3.778   0.635   8.628 -0.0080  0.7574  2.1347
  933MOL0     H23101   3.962   0.796   8.776  2.1841 -0.0590 -0.1436
  933MOL0     H23102   4.067   0.756   8.646  1.4993 -0.0416  0.6063
  933MOL0     H23103   3.899   0.540   8.806 -2.7904  4.1983 -0.2172
  933MOL0     H23104   4.047   0.598   8.850  0.7918 -1.2178 -0.0553
  933MOL0     H23105   3.955   0.455   8.585  2.1260 -0.3925 -0.6524
  933MOL0     H23106   4.108   0.533   8.600  0.8095 -1.1984 -0.7485
  933MOL0     H23107   4.167   0.349   8.788 -1.3109 -2.2017  1.0374
  933MOL0     H23108   4.107   0.286   8.628 -0.9389 -0.3200 -0.3333
  933MOL0     H23109   4.052   0.337   9.006  1.1451 -0.3186  0.6426
  933MOL0     H23110   3.769   0.157   9.136  0.0842  0.2225  2.7042
  933MOL0     H23111   3.927   0.191   9.186  0.3434  1.4502 -1.7146
  933MOL0     H23112   3.903  -0.042   9.231 -0.0346 -1.7594 -0.5569
  933MOL0     H23113   3.964  -0.057   9.064 -1.4480 -3.3065  0.2769
  933MOL0     H23114   3.735  -0.069   8.983 -1.7573  2.3322  1.9178
  933MOL0     H23115   3.780  -0.210   9.091 -3.4887 -1.5953  1.8118
  933MOL0     H23116   3.556  -0.169   9.126 -1.1690  0.2622 -0.7392
  933MOL0     H23117   3.576   0.004   9.139  1.3036 -0.2447  0.4081
  933MOL0     H23118   3.387  -0.074   9.272  2.4411  0.6049 -0.0179
  933MOL0     H23119   3.216  -0.103   9.437 -0.1188  0.6979  0.9695
  933MOL0     H23120   3.051  -0.029   9.869  0.4257 -0.4506  0.5852
  933MOL0     H23121   2.809  -0.050   9.979  0.6815 -0.8530  1.6660
  933MOL0     H23122   2.488  -0.330  10.042  1.3928  0.3433  2.1469
  933MOL0     H23123   2.604  -0.428   9.963 -2.2543 -0.4528 -1.9902
  933MOL0     H23124   2.510  -0.291   9.737  4.1801 -1.4157  0.8254
  933MOL0     H23125   2.369  -0.310   9.857 -0.8354 -2.3464 -1.4548
  933MOL0     H23126   2.450  -0.547   9.871  0.0083 -0.6571 -0.0108
  933MOL0     H23127   2.553  -0.522   9.729  0.5272  0.3023  0.4695
  933MOL0     H23128   2.247  -0.470   9.751 -0.6737 -0.2798 -1.7958
  933MOL0     H23129   2.330  -0.459   9.596  1.8463 -1.3050 -0.4104
  933MOL0     H23130   2.228  -0.702   9.738 -0.2210  1.0289 -0.5227
  933MOL0     H23131   2.395  -0.722   9.691  0.9673  2.9560  3.8732
  933MOL0     H23132   2.330  -0.674   9.450 -2.1848  0.1164 -1.1013
  933MOL0     H23133   2.165  -0.625   9.494 -1.7428 -0.9089  1.1439
  933MOL0     H23134   2.275  -0.908   9.492 -2.2397 -2.8850  1.5095
  933MOL0     H23135   2.129  -0.866   9.583  1.1574 -3.0248  0.1180
  933MOL0     H23136   2.099  -0.965   9.357 -0.9751 -0.1357 -2.6260
  933MOL0     H23137   2.184  -0.836   9.291  1.8215  0.1035  1.7017
  933MOL0     H23138   2.730  -0.391   9.763 -0.0927  0.2789  1.4738
  933MOL0     H23139   2.943  -0.374   9.642 -0.0275 -1.6090  0.7354
  933MOL0     H23140   3.524  -0.253   9.723  1.6304  0.3694  0.4617
  933MOL0     H23141   3.685  -0.207   9.559 -0.6544  1.2586  4.3957
  933MOL0     H23142   4.037   0.605   7.928 -1.4795 -2.0245 -1.9966
  933MOL0     H23143   4.258   0.506   7.838  0.3294  1.6940 -0.0378
  933MOL0     H23144   4.727   0.464   7.984  1.2981 -1.9820  2.2653
  933MOL0     H23145   4.966   0.428   7.923  1.7082 -2.5353 -1.1103
  933MOL0     H23146   5.194   0.242   7.616 -0.8245 -0.2979 -1.1144
  933MOL0     H23147   5.037   0.225   7.543  0.4160  2.2101 -1.0812
  933MOL0     H23148   5.152   0.034   7.773  2.3846  0.5127 -0.7038
  933MOL0     H23149   4.989   0.027   7.705  1.3455 -2.5830  1.5730
  933MOL0     H23150   5.248  -0.043   7.568  0.3571  3.8116 -0.2586
  933MOL0     H23151   5.120  -0.003   7.474 -1.4519 -0.1073  0.3140
  933MOL0     H23152   4.974  -0.161   7.602  0.6869  1.5854  0.1463
  933MOL0     H23153   5.093  -0.257   7.520  1.0014  0.6585 -0.6579
  933MOL0     H23154   5.171  -0.321   7.929  0.8927 -1.0397 -1.5920
  933MOL0     H23155   4.834   0.162   7.610 -0.2820  2.7005 -2.3962
  933MOL0     H23156   4.601   0.200   7.667 -2.6509  2.7850  1.1967
  934MOL0     O23157   7.795   3.818   6.600  0.3840 -0.1924 -0.4560
  934MOL0     C23158   7.794   3.902   6.519 -0.5031  0.2384  0.6388
  934MOL0     O23159   7.679   3.956   6.460 -0.0792 -0.7292 -0.3923
  934MOL0     C23160   7.563   3.927   6.521  0.4677 -0.7628 -0.1859
  934MOL0     C23161   7.463   3.869   6.435 -0.8439 -0.2265 -0.1246
  934MOL0     C23162   7.342   3.824   6.498 -0.6683 -0.5272  0.4657
  934MOL0     C23163   7.314   3.859   6.631  1.0696 -0.5192  0.4038
  934MOL0     O23164   7.199   3.812   6.677 -0.5147  0.6499  0.0053
  934MOL0     C23165   7.172   3.836   6.823  0.2642  0.0620 -0.2548
  934MOL0     C23166   7.041   3.764   6.861  0.0255 -0.3448  0.2461
  934MOL0     C23167   6.920   3.837   6.795  0.1392  0.2983 -0.0913
  934MOL0     C23168   6.787   3.759   6.828 -0.7102 -0.2549 -0.4285
  934MOL0     C23169   6.761   3.762   6.981 -0.0563  0.4394 -0.0041
  934MOL0     C23170   6.628   3.694   6.998  0.0486  0.4632  0.4406
  934MOL0     C23171   6.621   3.545   6.948 -0.9580 -0.7677  0.4227
  934MOL0     C23172   6.507   3.453   7.001  0.9540  0.5965 -0.5905
  934MOL0     N23173   6.362   3.503   6.995 -0.2707 -0.2879 -0.4089
  934MOL0     C23174   6.263   3.458   7.084 -0.8067  1.2081  0.3349
  934MOL0     C23175   6.160   3.519   7.047  0.8473 -0.6358 -0.0141
  934MOL0     C23176   6.030   3.491   7.110  0.7818  0.3555  0.1953
  934MOL0     C23177   5.991   3.578   7.224 -0.4365 -0.0996 -1.0035
  934MOL0     C23178   5.954   3.720   7.177 -0.0573 -0.4682  1.2634
  934MOL0     C23179   5.917   3.818   7.292  0.1197 -0.3207 -0.4512
  934MOL0     O23180   5.823   3.741   7.368 -0.5836 -0.5663  0.1507
  934MOL0     C23181   5.702   3.803   7.403 -0.0369  0.6982  0.3384
  934MOL0     C23182   5.696   3.893   7.514  0.2252 -0.9684  0.4965
  934MOL0     C23183   5.579   3.953   7.549 -0.2513  1.0402 -0.1757
  934MOL0     C23184   5.461   3.929   7.487 -0.6944  0.4151  0.2003
  934MOL0     C23185   5.344   4.010   7.531  0.7305  0.0376  0.2722
  934MOL0     O23186   5.366   4.097   7.630  0.6880  0.1773 -0.1287
  934MOL0     C23187   5.267   4.176   7.677 -0.2512  1.0126 -0.7899
  934MOL0     C23188   5.296   4.307   7.707  0.1442 -1.3278 -0.1169
  934MOL0     C23189   5.200   4.407   7.756  0.8416 -0.3684  0.0851
  934MOL0     C23190   5.067   4.362   7.770 -0.1739 -0.0827 -0.3439
  934MOL0     O23191   4.963   4.449   7.795 -0.9736  1.0639  0.5821
  934MOL0     C23192   4.969   4.585   7.750  0.4733 -1.0405  0.3358
  934MOL0     C23193   4.846   4.669   7.792 -0.0158 -0.5324  0.6281
  934MOL0     C23194   4.844   4.688   7.941  0.0549 -0.3545  0.8555
  934MOL0     C23195   4.709   4.754   7.970  0.0566 -0.3671  0.2202
  934MOL0     C23196   4.687   4.777   8.125  1.5599  0.0729  0.1360
  934MOL0     C23197   4.691   4.644   8.211 -0.2614  0.3860  0.0566
  934MOL0     C23198   4.625   4.651   8.349 -0.8275 -1.0358  0.4804
  934MOL0     C23199   4.572   4.535   8.415 -0.5439 -0.5912 -0.0839
  934MOL0    Cl23200   4.682   4.399   8.432 -0.0054 -0.0966 -0.0486
  934MOL0     C23201   5.043   4.225   7.757  0.0135  0.4428  0.4521
  934MOL0     C23202   5.147   4.133   7.714  0.0211  0.2213  0.4077
  934MOL0     O23203   5.237   3.997   7.474  0.1458  0.2914 -0.0451
  934MOL0     C23204   5.460   3.837   7.376 -0.4659  0.0475 -0.0780
  934MOL0     C23205   5.577   3.768   7.339  0.8201 -0.1635  0.1854
  934MOL0     N23206   6.192   3.611   6.940  0.2097  0.2468  0.6401
  934MOL0     N23207   6.313   3.603   6.929  0.5288  0.2674 -0.4645
  934MOL0     C23208   7.406   3.936   6.707  0.2684  0.3529  0.4879
  934MOL0     C23209   7.533   3.959   6.650  0.5172 -0.4965  0.2027
  934MOL0     C23210   7.916   3.911   6.436 -0.5227  0.0300  0.0123
  934MOL0     C23211   8.021   3.820   6.440  0.2841 -0.1121 -0.1551
  934MOL0     C23212   8.130   3.842   6.351  0.8101 -0.2841  0.0567
  934MOL0     C23213   8.131   3.941   6.256  0.1987  0.1074 -1.1827
  934MOL0     O23214   8.242   3.964   6.175  1.0261 -0.3776  0.3405
  934MOL0     C23215   8.321   4.082   6.206  0.2013 -0.1391  0.1791
  934MOL0     C23216   8.465   4.057   6.144  0.0288 -0.4401  0.2220
  934MOL0     C23217   8.576   4.157   6.188 -0.4065  0.4184  0.2418
  934MOL0     C23218   8.717   4.119   6.132  0.4782  0.5131 -0.5426
  934MOL0     C23219   8.786   4.012   6.205  0.1194 -0.2096  1.1075
  934MOL0     C23220   8.830   3.918   6.266  0.7742  1.1330 -0.2287
  934MOL0     C23221   8.030   4.034   6.259  0.5048 -0.7769 -0.8155
  934MOL0     C23222   7.915   4.026   6.344 -0.4204 -0.5091 -0.2354
  934MOL0     H23223   7.486   3.861   6.330 -0.6185  0.2540 -0.1156
  934MOL0     H23224   7.275   3.759   6.442 -0.5759  0.2528 -0.5746
  934MOL0     H23225   7.150   3.942   6.837  3.0689  0.9276 -1.7203
  934MOL0     H23226   7.255   3.798   6.884 -0.1286  0.4383  0.5373
  934MOL0     H23227   7.042   3.748   6.969  0.2144 -1.5606  0.0802
  934MOL0     H23228   7.040   3.660   6.826 -1.3198 -1.2891  2.8588
  934MOL0     H23229   6.942   3.830   6.688 -1.0704  0.8445 -0.3876
  934MOL0     H23230   6.916   3.942   6.826  0.8489 -0.4655  2.9618
  934MOL0     H23231   6.711   3.813   6.771 -0.5357  0.1083 -0.3272
  934MOL0     H23232   6.801   3.657   6.793  0.5381 -0.2144 -0.1143
  934MOL0     H23233   6.741   3.863   7.018 -1.0896  0.8098 -1.4946
  934MOL0     H23234   6.844   3.713   7.033 -0.1376 -0.8354 -1.0350
  934MOL0     H23235   6.556   3.753   6.939  1.3886  1.5060 -0.2027
  934MOL0     H23236   6.591   3.685   7.100  0.4637  3.5971  0.9452
  934MOL0     H23237   6.605   3.555   6.840  2.7436 -0.3068 -0.2131
  934MOL0     H23238   6.713   3.488   6.961 -0.1653  0.4820  0.4124
  934MOL0     H23239   6.523   3.424   7.105  2.8990  4.1918  0.3116
  934MOL0     H23240   6.515   3.362   6.941  3.6873  1.7767 -2.2166
  934MOL0     H23241   6.288   3.394   7.167  4.4390  0.3570 -1.5005
  934MOL0     H23242   6.030   3.387   7.144  0.1320  0.1085 -0.5357
  934MOL0     H23243   5.953   3.497   7.033 -0.7670  1.0221  1.7503
  934MOL0     H23244   6.071   3.584   7.299 -2.4593  0.9453  1.2154
  934MOL0     H23245   5.912   3.520   7.273 -2.5649  0.6321 -3.3365
  934MOL0     H23246   6.038   3.767   7.126 -1.6383  3.1328  1.6774
  934MOL0     H23247   5.873   3.707   7.104  0.7560  0.6425  0.1291
  934MOL0     H23248   5.877   3.913   7.255  1.3449  1.6927  2.9205
  934MOL0     H23249   6.000   3.846   7.357 -1.9421  1.7937  1.4545
  934MOL0     H23250   5.788   3.913   7.569  0.1088  1.1926  0.0224
  934MOL0     H23251   5.580   4.019   7.634 -4.9319  1.7774 -0.4407
  934MOL0     H23252   5.398   4.344   7.701  1.2426 -2.9126  4.6514
  934MOL0     H23253   5.236   4.510   7.752 -5.2280  2.1155 -0.7476
  934MOL0     H23254   4.956   4.590   7.642 -0.1098  3.9838  0.4174
  934MOL0     H23255   5.062   4.637   7.777  0.1762 -0.3788  0.0993
  934MOL0     H23256   4.750   4.630   7.756 -2.0653  4.6948 -0.4311
  934MOL0     H23257   4.856   4.772   7.758  0.3820 -1.1446 -1.2062
  934MOL0     H23258   4.928   4.745   7.980  1.5356 -2.2387  0.5337
  934MOL0     H23259   4.848   4.592   7.994 -0.0655 -0.4393  0.7098
  934MOL0     H23260   4.702   4.854   7.927  0.5261 -0.0682  0.8081
  934MOL0     H23261   4.630   4.700   7.917 -0.3407  1.9135 -1.6672
  934MOL0     H23262   4.586   4.815   8.139  1.6497  0.4869 -0.3263
  934MOL0     H23263   4.768   4.843   8.158  3.7324 -1.4735 -1.7620
  934MOL0     H23264   4.796   4.615   8.223 -0.3389  0.9414  2.6327
  934MOL0     H23265   4.647   4.570   8.143 -0.9832  1.5209 -0.7584
  934MOL0     H23266   4.707   4.689   8.410 -0.2902  0.9680 -1.3569
  934MOL0     H23267   4.547   4.728   8.349 -1.0268 -1.2366  0.5192
  934MOL0     H23268   4.480   4.504   8.364 -1.5037  0.5057  0.9501
  934MOL0     H23269   4.543   4.571   8.514  2.8332  0.9866  0.4790
  934MOL0     H23270   4.943   4.193   7.782  0.1481  1.6292  2.7229
  934MOL0     H23271   5.123   4.027   7.714  3.4700 -0.6913 -0.6678
  934MOL0     H23272   5.368   3.818   7.323 -1.2162  0.4334  1.0462
  934MOL0     H23273   5.562   3.696   7.259 -4.0214 -1.4657  1.9215
  934MOL0     H23274   7.382   3.964   6.809 -1.2126 -1.9262  0.8427
  934MOL0     H23275   7.603   4.018   6.708 -2.2497  1.4444  1.8487
  934MOL0     H23276   8.006   3.733   6.502  0.3592 -0.9447 -1.2765
  934MOL0     H23277   8.213   3.772   6.349  0.9621 -0.1281 -2.4197
  934MOL0     H23278   8.320   4.102   6.314  5.0117 -1.4897  0.6984
  934MOL0     H23279   8.277   4.172   6.162  0.2284  0.0138  0.4606
  934MOL0     H23280   8.505   3.963   6.181  0.5823 -0.1906  0.2687
  934MOL0     H23281   8.461   4.052   6.034 -1.2825 -2.3069  0.3025
  934MOL0     H23282   8.591   4.160   6.296  1.5860 -0.7858  0.0572
  934MOL0     H23283   8.556   4.259   6.155  3.0808  0.8251 -1.0749
  934MOL0     H23284   8.704   4.100   6.025 -0.8635 -2.9219  0.1153
  934MOL0     H23285   8.775   4.212   6.130 -1.1367  1.6745  1.8193
  934MOL0     H23286   8.862   3.825   6.308  0.7662  0.9232 -0.6775
  934MOL0     H23287   8.044   4.127   6.205  3.0384  0.3883  1.6008
  934MOL0     H23288   7.837   4.101   6.336 -1.0056 -1.2500 -1.9772
  935MOL0     O23289   8.278   2.985  10.966  0.3388 -0.1301 -0.7295
  935MOL0     C23290   8.369   2.928  10.907  0.5209  0.2778  0.4352
  935MOL0     O23291   8.358   2.875  10.777  0.0982  0.3880  0.4515
  935MOL0     C23292   8.239   2.855  10.703  0.1193  0.6334 -0.3085
  935MOL0     C23293   8.145   2.950  10.666 -0.1455  0.0345 -0.4120
  935MOL0     C23294   8.039   2.932  10.580  0.1310 -0.0989 -0.9964
  935MOL0     C23295   8.008   2.806  10.531 -0.2038  0.5643  0.5194
  935MOL0     O23296   7.905   2.769  10.452  0.3688  0.0600  0.0176
  935MOL0     C23297   7.778   2.840  10.471  0.0231 -0.4417 -0.6431
  935MOL0     C23298   7.666   2.736  10.489  0.6365  0.1107  0.1604
  935MOL0     C23299   7.535   2.795  10.533  0.5871  0.1587 -0.1327
  935MOL0     C23300   7.432   2.689  10.606 -0.7418 -0.3966  0.5612
  935MOL0     C23301   7.320   2.757  10.679 -0.2430  0.1737  0.4194
  935MOL0     C23302   7.206   2.665  10.724  0.6612 -0.4394  0.1683
  935MOL0     C23303   7.121   2.732  10.835 -0.6365 -0.1565  0.9008
  935MOL0     C23304   7.024   2.626  10.905  0.1130  0.3573 -0.0976
  935MOL0     N23305   6.915   2.582  10.818  0.0970  0.5183 -0.6341
  935MOL0     C23306   6.781   2.632  10.821  0.2446 -0.3740  0.1853
  935MOL0     C23307   6.708   2.564  10.726  0.4124  0.4111  0.2012
  935MOL0     C23308   6.565   2.561  10.686 -0.1769 -0.2471  0.1057
  935MOL0     C23309   6.476   2.572  10.815 -0.2791  0.2651 -0.1513
  935MOL0     C23310   6.329   2.542  10.781  0.2044  0.4058 -0.1774
  935MOL0     C23311   6.278   2.635  10.662  0.3633  0.7376  0.4573
  935MOL0     O23312   6.297   2.772  10.678 -0.4919 -0.3499 -0.7020
  935MOL0     C23313   6.178   2.831  10.704  0.1871  0.0536 -0.5365
  935MOL0     C23314   6.112   2.914  10.611 -0.3503  1.4048  0.1356
  935MOL0     C23315   5.986   2.967  10.637 -0.4783 -0.7866  0.3224
  935MOL0     C23316   5.927   2.948  10.765  0.4570 -0.8563  0.4431
  935MOL0     C23317   5.785   3.001  10.791  0.2804  0.8513  0.7184
  935MOL0     O23318   5.734   2.982  10.915  0.1505  0.3110  0.0966
  935MOL0     C23319   5.605   3.014  10.953  0.6072 -0.6693  0.0915
  935MOL0     C23320   5.536   3.133  10.910  0.9547 -0.3431  0.5589
  935MOL0     C23321   5.416   3.176  10.976 -0.7822 -0.1578  0.5513
  935MOL0     C23322   5.350   3.077  11.059  0.3759 -0.1033 -0.8115
  935MOL0     O23323   5.225   3.108  11.113  0.0059  0.6328  0.4839
  935MOL0     C23324   5.183   3.048  11.231  0.5487 -0.6274  0.9615
  935MOL0     C23325   5.040   3.100  11.262  0.0858  0.2335 -0.4332
  935MOL0     C23326   4.914   3.020  11.204  0.4253 -0.1578 -0.7672
  935MOL0     C23327   4.927   3.001  11.055  0.2170  0.0738 -0.6752
  935MOL0     C23328   4.792   2.962  10.995 -0.5695  0.0182  0.3487
  935MOL0     C23329   4.802   2.944  10.843 -0.2376  0.6372 -0.1984
  935MOL0     C23330   4.691   2.864  10.770 -0.1024  0.7957 -0.2103
  935MOL0     C23331   4.744   2.792  10.647 -0.3511 -0.4243  0.5938
  935MOL0    Cl23332   4.808   2.920  10.545 -0.2403  0.0855  0.5271
  935MOL0     C23333   5.429   2.966  11.103  0.0440  0.2969 -0.2742
  935MOL0     C23334   5.547   2.939  11.052  0.6323 -0.0750 -0.7887
  935MOL0     O23335   5.728   3.068  10.702  0.0465 -0.1273 -1.0708
  935MOL0     C23336   5.987   2.864  10.863 -0.4501  0.4887  0.9085
  935MOL0     C23337   6.110   2.803  10.834 -0.2734  0.2848  0.3195
  935MOL0     N23338   6.810   2.488  10.658  0.0588 -0.3256 -0.4300
  935MOL0     N23339   6.931   2.516  10.700  0.6542  0.4039 -0.6775
  935MOL0     C23340   8.095   2.700  10.577 -0.4172  0.0534  0.4139
  935MOL0     C23341   8.204   2.725  10.661 -0.1944  0.2582 -0.5561
  935MOL0     C23342   8.503   2.930  10.975 -0.1748 -0.3322  0.9934
  935MOL0     C23343   8.623   2.907  10.895  0.4823 -1.0001 -0.6650
  935MOL0     C23344   8.750   2.918  10.958  0.8987 -0.5390 -0.5120
  935MOL0     C23345   8.763   2.938  11.091  0.0229  0.5702  0.7962
  935MOL0     O23346   8.878   2.942  11.164  0.1535 -0.2792 -0.3375
  935MOL0     C23347   9.011   2.950  11.100  0.1690 -0.5001 -0.2780
  935MOL0     C23348   9.105   3.016  11.194 -0.3079  0.1497  0.1280
  935MOL0     C23349   9.249   2.989  11.156 -0.4450  0.0307  1.1937
  935MOL0     C23350   9.285   3.068  11.029  0.4403  0.5497 -1.2194
  935MOL0     C23351   9.433   3.055  11.002  0.6478  0.1682  1.1307
  935MOL0     C23352   9.550   3.068  10.959 -0.4422 -0.4248  0.5761
  935MOL0     C23353   8.648   2.955  11.169 -0.8010  0.1527  0.3818
  935MOL0     C23354   8.520   2.962  11.109  0.6991  0.1265 -0.4086
  935MOL0     H23355   8.167   3.048  10.706  0.7848 -0.1758 -0.3857
  935MOL0     H23356   7.985   3.022  10.552  2.3929  2.1315  1.1908
  935MOL0     H23357   7.746   2.901  10.386 -4.2925 -0.1972  0.8729
  935MOL0     H23358   7.778   2.910  10.555 -2.5289  0.2571 -1.1299
  935MOL0     H23359   7.688   2.662  10.567 -0.4276 -2.7573 -2.0833
  935MOL0     H23360   7.666   2.676  10.398 -0.0138 -0.7786  0.7297
  935MOL0     H23361   7.489   2.848  10.450  0.0299 -1.0506 -0.6285
  935MOL0     H23362   7.558   2.869  10.610  2.0351  0.0932 -0.4670
  935MOL0     H23363   7.401   2.605  10.543 -0.4634  0.4274 -0.7128
  935MOL0     H23364   7.494   2.659  10.691  0.2254  2.5382  1.0182
  935MOL0     H23365   7.282   2.831  10.607 -0.9218  0.2388  0.8367
  935MOL0     H23366   7.368   2.821  10.754  1.9783  2.2605 -2.5165
  935MOL0     H23367   7.246   2.569  10.758  2.6783 -0.6320 -2.4203
  935MOL0     H23368   7.155   2.638  10.631 -0.3997 -0.9903  0.8802
  935MOL0     H23369   7.195   2.753  10.913 -0.3443 -1.9593  1.1675
  935MOL0     H23370   7.068   2.821  10.800 -2.3123 -2.2465 -2.3742
  935MOL0     H23371   6.982   2.665  10.997 -1.6260 -1.7782  0.1005
  935MOL0     H23372   7.079   2.536  10.933  2.1263  1.4026 -0.4946
  935MOL0     H23373   6.737   2.698  10.895  2.6599  0.4442  0.9950
  935MOL0     H23374   6.538   2.469  10.633 -0.0953  0.4077 -1.1035
  935MOL0     H23375   6.540   2.642  10.616 -4.5405 -2.7956 -1.6843
  935MOL0     H23376   6.481   2.667  10.870  0.8691  0.0070  0.2136
  935MOL0     H23377   6.505   2.493  10.884 -0.7322 -1.0293 -1.3816
  935MOL0     H23378   6.323   2.437  10.750 -0.8579  0.0331  1.2044
  935MOL0     H23379   6.262   2.557  10.866  1.6809 -0.3355  1.1563
  935MOL0     H23380   6.173   2.609  10.646  0.6868  0.5824 -1.7589
  935MOL0     H23381   6.317   2.601  10.566 -1.7994 -3.0626  0.7410
  935MOL0     H23382   6.156   2.933  10.513  1.2921 -2.3684 -0.0388
  935MOL0     H23383   5.926   3.014  10.560  1.4843  0.1326 -0.7144
  935MOL0     H23384   5.593   3.199  10.845  0.4325  0.0287  0.4727
  935MOL0     H23385   5.370   3.273  10.963 -0.5183  0.2723  2.5115
  935MOL0     H23386   5.251   3.082  11.310  0.2806 -0.2991  1.0590
  935MOL0     H23387   5.180   2.941  11.209  1.4144 -0.1151 -1.9924
  935MOL0     H23388   5.019   3.200  11.224 -5.2517 -0.5131 -0.3276
  935MOL0     H23389   5.028   3.087  11.370 -0.7424  1.1354 -0.4027
  935MOL0     H23390   4.817   3.067  11.219 -0.5999 -2.4991  0.3959
  935MOL0     H23391   4.919   2.924  11.257 -2.3860  1.6254  3.1434
  935MOL0     H23392   4.962   3.092  11.005  0.1251  1.4834  1.6762
  935MOL0     H23393   4.993   2.916  11.034 -1.3588 -2.2820  2.8046
  935MOL0     H23394   4.706   3.027  11.011  0.7952  1.4996  2.0374
  935MOL0     H23395   4.765   2.866  11.040  2.6951  0.4376  3.7232
  935MOL0     H23396   4.902   2.908  10.818  0.3147  0.6401  1.8186
  935MOL0     H23397   4.802   3.048  10.807  2.8908  0.1809 -1.8365
  935MOL0     H23398   4.653   2.779  10.828  1.2141  0.3357  0.0098
  935MOL0     H23399   4.604   2.923  10.740  0.0026  1.3775  0.5646
  935MOL0     H23400   4.663   2.737  10.599 -1.4206  0.0241  1.8547
  935MOL0     H23401   4.827   2.723  10.667 -0.8692 -0.9533  0.9392
  935MOL0     H23402   5.393   2.896  11.178 -1.6477  0.4912 -0.8600
  935MOL0     H23403   5.605   2.861  11.099 -0.4470  0.6171  1.8690
  935MOL0     H23404   5.943   2.834  10.958  1.0262  3.7169  2.7812
  935MOL0     H23405   6.156   2.743  10.912 -0.1340  1.6243  1.3099
  935MOL0     H23406   8.067   2.597  10.557 -1.6933  0.6247 -0.9042
  935MOL0     H23407   8.274   2.646  10.686 -2.5518 -0.7644  3.9147
  935MOL0     H23408   8.617   2.877  10.791  0.3561 -0.2928 -0.8662
  935MOL0     H23409   8.840   2.907  10.897 -1.1143 -0.5295 -3.6855
  935MOL0     H23410   8.995   3.009  11.009  2.8671 -0.5231 -0.8577
  935MOL0     H23411   9.053   2.851  11.080  3.1774  0.3250  1.3445
  935MOL0     H23412   9.086   3.124  11.205  6.0109  1.6828 -0.4608
  935MOL0     H23413   9.088   2.973  11.293  0.2124 -0.7839 -0.1742
  935MOL0     H23414   9.277   2.884  11.144  1.3652  0.7677 -3.5382
  935MOL0     H23415   9.312   3.025  11.237  0.5474  0.5922  0.2098
  935MOL0     H23416   9.226   3.030  10.945 -1.1041 -2.0896  0.9375
  935MOL0     H23417   9.256   3.171  11.052 -4.0774 -1.0215  1.3347
  935MOL0     H23418   9.651   3.084  10.930 -0.6880  0.9067  0.3933
  935MOL0     H23419   8.662   2.976  11.275  2.0161 -0.4003  0.2010
  935MOL0     H23420   8.432   2.980  11.170  0.2840 -2.0514 -0.2923
  936MOL0     O23421   7.676   0.293   0.969 -0.6893  0.1597 -0.2589
  936MOL0     C23422   7.772   0.290   0.890 -0.9714 -0.0236  0.2248
  936MOL0     O23423   7.768   0.288   0.752  0.2643  0.3663  0.5900
  936MOL0     C23424   7.650   0.294   0.684 -0.3541  0.8854 -0.3756
  936MOL0     C23425   7.644   0.226   0.565 -1.4177  0.1910  0.5464
  936MOL0     C23426   7.522   0.202   0.487 -0.1680 -0.9016 -0.0363
  936MOL0     C23427   7.405   0.261   0.526  1.1464 -0.6832 -0.7040
  936MOL0     O23428   7.291   0.263   0.450 -0.1888 -0.2172 -0.3259
  936MOL0     C23429   7.254   0.133   0.396  0.2513 -0.6486 -0.0618
  936MOL0     C23430   7.193   0.033   0.501  0.0527 -0.4518  0.4986
  936MOL0     C23431   7.050   0.076   0.559 -0.5830  0.9538 -0.2182
  936MOL0     C23432   6.928   0.070   0.459 -0.7261 -0.8351 -0.2577
  936MOL0     C23433   6.928  -0.067   0.379 -0.1272 -1.1918  0.2752
  936MOL0     C23434   6.775  -0.100   0.336  0.1390 -0.2033 -0.3354
  936MOL0     C23435   6.718   0.024   0.252  0.0783 -0.2945 -0.3060
  936MOL0     C23436   6.601  -0.024   0.169  0.4132  0.4204  0.0510
  936MOL0     N23437   6.556   0.088   0.092 -0.2918  0.0578 -0.0474
  936MOL0     C23438   6.571   0.118  -0.043 -0.6116  0.0911 -1.1444
  936MOL0     C23439   6.513   0.248  -0.052 -0.5279  0.4997 -0.1788
  936MOL0     C23440   6.503   0.324  -0.174  0.2171  0.3605  0.8010
  936MOL0     C23441   6.369   0.315  -0.240 -0.3958 -0.4371 -0.0116
  936MOL0     C23442   6.373   0.399  -0.361  0.4827 -0.1720  0.5364
  936MOL0     C23443   6.240   0.402  -0.436  0.4101 -1.2499 -0.3241
  936MOL0     O23444   6.184   0.274  -0.472  0.0707 -0.7630  0.4962
  936MOL0     C23445   6.049   0.287  -0.488  0.1650  0.1149  1.7003
  936MOL0     C23446   5.969   0.181  -0.438 -0.2208 -0.7879 -0.7417
  936MOL0     C23447   5.835   0.187  -0.467 -0.1106  0.3947 -1.5585
  936MOL0     C23448   5.771   0.297  -0.533  0.4169 -0.5244  0.7221
  936MOL0     C23449   5.615   0.299  -0.538 -0.3896  0.3504  0.1214
  936MOL0     O23450   5.541   0.194  -0.487 -0.0129 -0.3828  1.0382
  936MOL0     C23451   5.399   0.191  -0.496 -0.1112  1.7798  0.2477
  936MOL0     C23452   5.326   0.244  -0.610 -0.0442 -0.0116 -0.0824
  936MOL0     C23453   5.185   0.232  -0.602 -0.5713 -0.4725 -0.6518
  936MOL0     C23454   5.111   0.180  -0.491 -1.3489  0.9856 -0.5472
  936MOL0     O23455   4.980   0.144  -0.482  1.3558 -0.3998  0.2066
  936MOL0     C23456   4.904   0.270  -0.501 -1.0143  0.3730  0.2628
  936MOL0     C23457   4.760   0.225  -0.503 -0.2650  0.1498 -0.3077
  936MOL0     C23458   4.672   0.325  -0.578 -0.7385  0.1880  0.5732
  936MOL0     C23459   4.529   0.288  -0.565 -0.1779  1.0793 -0.5089
  936MOL0     C23460   4.441   0.380  -0.655  0.9111  0.3859 -0.0607
  936MOL0     C23461   4.295   0.379  -0.606 -0.5300 -0.0497 -1.0358
  936MOL0     C23462   4.201   0.475  -0.678 -0.4061 -0.4242 -0.9592
  936MOL0     C23463   4.258   0.614  -0.676 -0.1284 -1.1447  0.4158
  936MOL0    Cl23464   4.124   0.728  -0.744  0.3713 -0.1735 -0.1399
  936MOL0     C23465   5.200   0.142  -0.377  0.1301  0.4392 -0.5338
  936MOL0     C23466   5.335   0.143  -0.382  0.4726  0.0173 -0.3576
  936MOL0     O23467   5.574   0.392  -0.607  1.6997  0.2105  0.3770
  936MOL0     C23468   5.847   0.397  -0.580 -0.9149 -0.2494  0.6178
  936MOL0     C23469   5.986   0.396  -0.557  0.5935 -0.1457 -0.8645
  936MOL0     N23470   6.455   0.282   0.073 -0.0537 -0.0024  0.1565
  936MOL0     N23471   6.486   0.186   0.150  0.1484 -0.5807  0.0488
  936MOL0     C23472   7.411   0.339   0.643 -0.2634 -0.5102 -0.0840
  936MOL0     C23473   7.525   0.348   0.724 -0.0894  0.5487  0.5004
  936MOL0     C23474   7.906   0.314   0.950  0.1660  0.4593 -0.1272
  936MOL0     C23475   7.928   0.288   1.087 -0.6163 -0.0712 -0.1199
  936MOL0     C23476   8.055   0.314   1.137 -1.1715  0.4644  0.8021
  936MOL0     C23477   8.169   0.343   1.055  0.2287 -0.7354  0.6728
  936MOL0     O23478   8.293   0.349   1.125  0.8056 -0.3128  0.0505
  936MOL0     C23479   8.399   0.408   1.047 -0.2562  0.4334 -0.6026
  936MOL0     C23480   8.525   0.436   1.130  0.3102  0.1573 -0.0206
  936MOL0     C23481   8.599   0.317   1.177  1.0848 -0.2707 -0.3639
  936MOL0     C23482   8.537   0.227   1.288 -0.1590 -0.0829  0.3365
  936MOL0     C23483   8.615   0.105   1.304 -0.9478  0.1033 -0.1113
  936MOL0     C23484   8.673  -0.001   1.308  0.3341 -0.9874  0.4073
  936MOL0     C23485   8.140   0.380   0.918  0.3415  1.0328 -0.0111
  936MOL0     C23486   8.014   0.350   0.869  0.1706  0.1390 -0.0798
  936MOL0     H23487   7.736   0.187   0.522 -0.5290 -0.2974  2.7648
  936MOL0     H23488   7.534   0.164   0.386  2.7850 -0.7860  0.1797
  936MOL0     H23489   7.344   0.086   0.355  1.2324 -0.8535  2.1961
  936MOL0     H23490   7.190   0.149   0.308  0.1587 -2.8978 -0.4730
  936MOL0     H23491   7.258   0.019   0.588  0.4199 -0.3958  0.2384
  936MOL0     H23492   7.183  -0.063   0.449  0.8068 -0.5942  0.6000
  936MOL0     H23493   7.054   0.179   0.596  3.0792  1.0758 -0.5939
  936MOL0     H23494   7.034   0.001   0.637  1.3290  0.1764 -0.5094
  936MOL0     H23495   6.840   0.088   0.521  0.5179 -1.1500  1.6736
  936MOL0     H23496   6.933   0.157   0.392  0.5294  0.4053  1.3639
  936MOL0     H23497   6.947  -0.157   0.438 -1.6495 -1.3792  0.5344
  936MOL0     H23498   6.999  -0.051   0.298 -2.6037  1.3433 -1.5918
  936MOL0     H23499   6.712  -0.123   0.422 -0.9833 -0.3529 -1.1767
  936MOL0     H23500   6.778  -0.183   0.264 -2.2393 -1.9154  1.3636
  936MOL0     H23501   6.692   0.098   0.328 -0.1422  1.1686 -1.7580
  936MOL0     H23502   6.785   0.076   0.184 -0.0617 -0.7486 -0.7948
  936MOL0     H23503   6.528  -0.061   0.241  1.5138 -0.8202  0.5582
  936MOL0     H23504   6.618  -0.107   0.100 -1.1058  0.9864 -1.0743
  936MOL0     H23505   6.636   0.068  -0.115  1.3778 -0.6730  1.0464
  936MOL0     H23506   6.584   0.285  -0.236 -0.3606 -0.5869  0.6164
  936MOL0     H23507   6.521   0.429  -0.149  1.4194 -0.1432  2.1935
  936MOL0     H23508   6.303   0.351  -0.160 -0.7095 -4.7307  1.9617
  936MOL0     H23509   6.345   0.211  -0.262 -1.1746  0.1076 -1.8805
  936MOL0     H23510   6.391   0.503  -0.331 -0.9785  0.0835  0.5736
  936MOL0     H23511   6.459   0.371  -0.422 -0.3083  1.1065 -1.2651
  936MOL0     H23512   6.254   0.463  -0.526  2.4762 -1.5359 -0.2556
  936MOL0     H23513   6.171   0.451  -0.367 -0.6864 -1.6641 -1.0926
  936MOL0     H23514   6.013   0.090  -0.397  1.4573 -1.3812 -3.5543
  936MOL0     H23515   5.769   0.113  -0.423  0.9883 -0.0571 -0.6336
  936MOL0     H23516   5.376   0.298  -0.690  0.6978  2.5625  1.9610
  936MOL0     H23517   5.133   0.265  -0.692  0.0227  2.6868  0.0195
  936MOL0     H23518   4.942   0.327  -0.587  0.9117 -0.4381  0.5180
  936MOL0     H23519   4.919   0.334  -0.413  3.6074 -1.3879  1.0635
  936MOL0     H23520   4.726   0.240  -0.400 -0.1193  0.9406 -0.3715
  936MOL0     H23521   4.744   0.122  -0.535  2.0376 -0.3983  0.1061
  936MOL0     H23522   4.705   0.314  -0.682  0.0906  3.3307  0.3949
  936MOL0     H23523   4.696   0.429  -0.556  0.9198 -0.0823  0.1820
  936MOL0     H23524   4.523   0.183  -0.598 -0.5492  1.0172 -0.2473
  936MOL0     H23525   4.505   0.289  -0.459 -0.8777  0.1497 -0.6391
  936MOL0     H23526   4.440   0.345  -0.759 -3.2884 -1.1917  0.3039
  936MOL0     H23527   4.472   0.485  -0.648 -2.5183  1.4463  1.3233
  936MOL0     H23528   4.299   0.415  -0.503 -0.8227 -1.5409 -0.4791
  936MOL0     H23529   4.267   0.274  -0.603 -1.6080  0.2001  2.8725
  936MOL0     H23530   4.180   0.448  -0.782 -2.3114 -1.2411 -0.4046
  936MOL0     H23531   4.102   0.475  -0.631  0.0420  0.9506  0.0417
  936MOL0     H23532   4.350   0.644  -0.728 -0.6895  4.2203  1.9959
  936MOL0     H23533   4.268   0.652  -0.574 -1.7280  1.5209 -0.3320
  936MOL0     H23534   5.156   0.111  -0.283  2.4825  2.4064  1.3286
  936MOL0     H23535   5.393   0.121  -0.293  0.1538  1.5122  0.2467
  936MOL0     H23536   5.800   0.475  -0.639  2.2814  1.1445 -0.3117
  936MOL0     H23537   6.039   0.482  -0.597  0.3068 -0.0423 -1.0297
  936MOL0     H23538   7.317   0.385   0.671 -0.1860  0.1391 -0.8783
  936MOL0     H23539   7.512   0.402   0.818 -3.3264  1.3531 -0.2770
  936MOL0     H23540   7.838   0.258   1.138 -1.1207  2.5541  0.6724
  936MOL0     H23541   8.085   0.296   1.240  0.2327  0.1565  0.3601
  936MOL0     H23542   8.373   0.501   0.997  1.5762  1.2390 -0.1552
  936MOL0     H23543   8.428   0.338   0.968  1.1147 -1.0555  1.1276
  936MOL0     H23544   8.600   0.489   1.071 -0.2941  0.5717 -0.4385
  936MOL0     H23545   8.501   0.498   1.217 -0.0491 -0.9920  0.7232
  936MOL0     H23546   8.690   0.352   1.228 -0.6539 -0.7586  3.3930
  936MOL0     H23547   8.617   0.257   1.087 -2.6612 -0.5243 -1.0881
  936MOL0     H23548   8.533   0.281   1.383  1.9708  0.0708  0.3804
  936MOL0     H23549   8.443   0.180   1.257  0.0396 -1.1658  1.3134
  936MOL0     H23550   8.721  -0.096   1.310 -0.3294 -1.3302  0.3317
  936MOL0     H23551   8.208   0.419   0.843 -0.9625  1.5611 -0.9459
  936MOL0     H23552   7.997   0.350   0.762 -1.4718  0.2885  0.1491
  937MOL0     O23553   4.376   1.241   5.258  0.6212  0.4814 -0.6017
  937MOL0     C23554   4.369   1.155   5.171  1.1731 -0.4289 -1.4067
  937MOL0     O23555   4.258   1.128   5.110 -0.5386 -0.2460 -0.2191
  937MOL0     C23556   4.145   1.197   5.139  0.2521  0.1034 -0.5814
  937MOL0     C23557   4.125   1.327   5.096  0.1096  1.2623 -0.0966
  937MOL0     C23558   4.011   1.402   5.139 -0.1269  0.0488  0.5465
  937MOL0     C23559   3.922   1.346   5.222 -0.2549  0.6324 -0.5946
  937MOL0     O23560   3.821   1.408   5.282 -0.3410 -0.7109 -0.0354
  937MOL0     C23561   3.722   1.454   5.191 -0.7240 -0.4404 -0.1540
  937MOL0     C23562   3.606   1.435   5.274  0.4947  0.1517 -0.2383
  937MOL0     C23563   3.469   1.444   5.197 -0.9981 -1.0172 -0.4184
  937MOL0     C23564   3.342   1.415   5.289  0.0310 -1.0248 -0.6375
  937MOL0     C23565   3.344   1.502   5.414  0.8486  0.8746  0.1375
  937MOL0     C23566   3.214   1.478   5.499 -0.9892 -0.3813 -0.0584
  937MOL0     C23567   3.202   1.581   5.617 -0.1387  0.0316  0.5252
  937MOL0     C23568   3.072   1.573   5.699  0.4242  0.1063  0.0809
  937MOL0     N23569   2.963   1.622   5.623  0.2017 -0.3085  0.5533
  937MOL0     C23570   2.931   1.757   5.618 -0.8302 -0.1044 -0.2959
  937MOL0     C23571   2.823   1.764   5.532  0.1458  0.1561 -0.5257
  937MOL0     C23572   2.749   1.889   5.488 -0.3730 -0.1331 -0.3827
  937MOL0     C23573   2.656   1.956   5.597 -0.0172 -0.5119  0.1274
  937MOL0     C23574   2.526   2.023   5.553  0.1292  0.0406  0.2197
  937MOL0     C23575   2.407   1.926   5.526 -1.3377 -0.3090  0.7323
  937MOL0     O23576   2.364   1.881   5.656 -0.0942 -0.5032  0.6389
  937MOL0     C23577   2.251   1.943   5.713 -0.3936  0.8519  0.5186
  937MOL0     C23578   2.183   1.858   5.798 -0.4388  0.5344  0.0353
  937MOL0     C23579   2.065   1.898   5.857 -0.2021  0.1312 -0.1898
  937MOL0     C23580   2.015   2.027   5.820 -0.0265 -0.2179  0.0480
  937MOL0     C23581   1.879   2.057   5.871  0.7734  0.7306 -0.0349
  937MOL0     O23582   1.799   2.150   5.789 -0.6264  0.0303 -1.0939
  937MOL0     C23583   1.665   2.170   5.816  0.4487 -0.6209 -0.7261
  937MOL0     C23584   1.602   2.288   5.771  0.1627  0.3239  0.0910
  937MOL0     C23585   1.468   2.305   5.781 -0.2097 -0.5706 -0.5976
  937MOL0     C23586   1.388   2.208   5.852  0.1032 -0.8419  0.3085
  937MOL0     O23587   1.249   2.239   5.846 -0.5875 -0.0398 -0.1440
  937MOL0     C23588   1.158   2.144   5.892  0.5665 -0.1003 -0.3529
  937MOL0     C23589   1.014   2.176   5.855 -0.4701  0.0346  0.3315
  937MOL0     C23590   0.920   2.110   5.963  0.4736  0.0646  0.4495
  937MOL0     C23591   0.769   2.126   5.938  1.4290 -0.4982  0.3550
  937MOL0     C23592   0.673   2.033   6.014  0.0078 -0.1903 -0.2289
  937MOL0     C23593   0.516   2.071   5.988  0.1632  0.2738 -0.1945
  937MOL0     C23594   0.484   2.219   6.015 -0.4726  0.3246 -0.2947
  937MOL0     C23595   0.328   2.247   5.991  0.3878 -0.1647 -0.1419
  937MOL0    Cl23596   0.211   2.177   6.111  0.1176  0.2973  0.0235
  937MOL0     C23597   1.452   2.097   5.897 -0.0425  0.1002  0.4958
  937MOL0     C23598   1.581   2.070   5.873  0.2670  0.3215 -0.1917
  937MOL0     O23599   1.845   1.999   5.974  0.6752 -0.2582 -0.1317
  937MOL0     C23600   2.086   2.109   5.733 -0.0798 -0.5399 -0.6458
  937MOL0     C23601   2.204   2.070   5.684 -1.2232  0.4222 -0.6362
  937MOL0     N23602   2.800   1.642   5.474  0.2354 -0.0969 -1.2068
  937MOL0     N23603   2.888   1.567   5.522 -0.1152 -0.2803 -1.1886
  937MOL0     C23604   3.941   1.210   5.258  0.1489  0.3969 -0.1450
  937MOL0     C23605   4.054   1.137   5.224  0.3985  0.1794  0.4517
  937MOL0     C23606   4.500   1.088   5.140 -0.8113  0.3842  0.8806
  937MOL0     C23607   4.620   1.120   5.214 -0.8251 -0.3540  0.2265
  937MOL0     C23608   4.739   1.048   5.185 -0.7368 -0.3017  0.5247
  937MOL0     C23609   4.737   0.948   5.084  1.2890 -0.5077 -0.7583
  937MOL0     O23610   4.847   0.868   5.054  0.3412  0.4365  0.0658
  937MOL0     C23611   4.976   0.893   5.108 -0.0965 -0.4738  0.0446
  937MOL0     C23612   5.066   0.769   5.099  0.9275 -0.0590  0.4749
  937MOL0     C23613   5.043   0.681   5.215 -0.1094 -0.4439 -0.3665
  937MOL0     C23614   5.108   0.540   5.204 -0.2628 -1.0810 -0.9798
  937MOL0     C23615   5.245   0.559   5.164 -0.9880 -0.6732  0.4231
  937MOL0     C23616   5.357   0.580   5.135 -0.2138  0.4463  0.4844
  937MOL0     C23617   4.625   0.926   5.013  0.1553 -0.0831  0.6947
  937MOL0     C23618   4.507   0.993   5.034 -0.6498  0.3251 -0.4077
  937MOL0     H23619   4.190   1.384   5.030 -2.1336  3.5198 -0.5241
  937MOL0     H23620   4.011   1.502   5.097 -0.6997 -0.3225 -0.3827
  937MOL0     H23621   3.714   1.398   5.097 -4.2128  0.7561 -0.7263
  937MOL0     H23622   3.739   1.559   5.167 -2.8834  0.0997  0.4449
  937MOL0     H23623   3.604   1.503   5.360  0.5056 -3.3913  2.8261
  937MOL0     H23624   3.605   1.336   5.320  5.1292 -0.5913 -1.2809
  937MOL0     H23625   3.458   1.373   5.114  1.0296 -2.1983  0.2339
  937MOL0     H23626   3.457   1.543   5.153  2.6031 -0.8616 -1.3628
  937MOL0     H23627   3.246   1.426   5.238 -0.7472 -0.2505  0.9155
  937MOL0     H23628   3.340   1.312   5.325 -0.5487  0.1423  3.2232
  937MOL0     H23629   3.342   1.604   5.374 -0.9413  0.2214 -1.5739
  937MOL0     H23630   3.432   1.490   5.478  1.4473 -1.5129 -1.0346
  937MOL0     H23631   3.235   1.376   5.534  0.6418  0.0416  0.2652
  937MOL0     H23632   3.122   1.475   5.439 -1.2845 -2.4701  0.3979
  937MOL0     H23633   3.287   1.571   5.686  1.4614  0.0911 -1.3444
  937MOL0     H23634   3.217   1.683   5.581  3.1452  0.0090  1.5254
  937MOL0     H23635   3.076   1.632   5.791  0.0050 -0.0806  0.2226
  937MOL0     H23636   3.045   1.470   5.727  0.8155 -0.0500 -0.1172
  937MOL0     H23637   2.969   1.844   5.671 -0.9959 -0.9104  1.2206
  937MOL0     H23638   2.701   1.869   5.391 -3.3718 -3.0766  1.4826
  937MOL0     H23639   2.822   1.968   5.470  2.0018 -2.2333 -0.6060
  937MOL0     H23640   2.715   2.016   5.667  1.2929 -0.6274 -0.8438
  937MOL0     H23641   2.629   1.864   5.650 -1.1670 -0.8064 -0.9228
  937MOL0     H23642   2.500   2.091   5.635 -4.4304 -1.4495  0.2894
  937MOL0     H23643   2.535   2.089   5.466 -0.9645 -0.8825 -0.6256
  937MOL0     H23644   2.445   1.837   5.476 -1.6586 -0.2768  0.4235
  937MOL0     H23645   2.329   1.968   5.462 -0.4269 -2.4056 -1.9477
  937MOL0     H23646   2.214   1.756   5.816 -1.3132  0.1208 -0.7213
  937MOL0     H23647   2.008   1.830   5.919 -1.4536  0.8896 -0.4540
  937MOL0     H23648   1.658   2.373   5.732 -1.5850  1.5473  0.1103
  937MOL0     H23649   1.439   2.399   5.734  0.1212 -1.0786 -1.8600
  937MOL0     H23650   1.154   2.141   6.001 -0.1493  0.6881 -0.3457
  937MOL0     H23651   1.175   2.042   5.855 -1.3484 -2.2140  3.8999
  937MOL0     H23652   0.989   2.130   5.759  0.2234 -1.0226  0.6461
  937MOL0     H23653   1.001   2.285   5.859 -1.5023 -0.0877  0.6649
  937MOL0     H23654   0.933   2.128   6.070 -0.7915 -0.2449  0.6751
  937MOL0     H23655   0.945   2.004   5.953 -2.7515 -0.6326 -2.2015
  937MOL0     H23656   0.750   2.230   5.966  1.9261 -0.6158  1.1657
  937MOL0     H23657   0.741   2.124   5.833  0.9783  2.6112  0.3189
  937MOL0     H23658   0.692   2.041   6.121 -2.4490 -0.9554  0.3390
  937MOL0     H23659   0.707   1.930   6.004  1.9601  0.4515 -0.7129
  937MOL0     H23660   0.454   2.015   6.060 -0.7612  1.3174 -0.1501
  937MOL0     H23661   0.472   2.045   5.891 -0.4121 -0.6463  0.2939
  937MOL0     H23662   0.520   2.236   6.117 -1.3859 -3.4652  0.8208
  937MOL0     H23663   0.547   2.281   5.951  1.2551 -0.2100  0.8069
  937MOL0     H23664   0.306   2.214   5.889  0.4229 -3.7489  0.8612
  937MOL0     H23665   0.310   2.354   6.003 -4.1148 -0.6112 -1.0066
  937MOL0     H23666   1.391   2.010   5.919 -3.2668  1.5997 -1.6282
  937MOL0     H23667   1.618   1.969   5.887 -0.4204  0.2479  1.3503
  937MOL0     H23668   2.041   2.202   5.700 -0.6129  0.7093  3.0552
  937MOL0     H23669   2.260   2.129   5.612 -1.8983 -0.3104 -1.7798
  937MOL0     H23670   3.866   1.161   5.320  1.7006  0.2770  1.7229
  937MOL0     H23671   4.058   1.031   5.246 -1.1579  0.0556  0.2835
  937MOL0     H23672   4.621   1.195   5.292  1.2472  0.8845 -0.9004
  937MOL0     H23673   4.828   1.079   5.239 -1.6607 -0.4621  2.2285
  937MOL0     H23674   4.969   0.914   5.215  2.4875  0.1646  0.1595
  937MOL0     H23675   5.011   0.977   5.046 -0.5760 -0.8875 -0.8118
  937MOL0     H23676   5.043   0.711   5.010  0.1565 -1.2196  1.3899
  937MOL0     H23677   5.169   0.806   5.096  0.6729  0.6233 -2.7822
  937MOL0     H23678   4.937   0.667   5.240  0.0746  0.4658  0.9960
  937MOL0     H23679   5.083   0.738   5.299  0.7236 -0.7333 -0.5497
  937MOL0     H23680   5.111   0.511   5.309  0.9008  0.3533 -0.5804
  937MOL0     H23681   5.049   0.473   5.141 -3.8867  1.9756 -1.1724
  937MOL0     H23682   5.463   0.585   5.115  0.4392 -1.0991  3.1399
  937MOL0     H23683   4.630   0.853   4.933  0.1512 -0.7404  1.2848
  937MOL0     H23684   4.428   0.967   4.964  2.3993  0.2619 -4.1632
  938MOL0     O23685   3.720   9.673   6.590  0.1141  0.3726  0.2720
  938MOL0     C23686   3.783   9.590   6.523 -0.1928  1.0472 -0.8952
  938MOL0     O23687   3.732   9.506   6.425  0.2449  0.0837  0.2106
  938MOL0     C23688   3.597   9.493   6.412  0.3286  0.6817 -0.5298
  938MOL0     C23689   3.526   9.542   6.301 -0.3633  0.2026 -0.2330
  938MOL0     C23690   3.391   9.521   6.292 -0.4024  0.3618  0.3105
  938MOL0     C23691   3.323   9.435   6.381  1.4453 -1.1512 -0.2281
  938MOL0     O23692   3.187   9.413   6.360 -0.3049 -0.6178  0.5642
  938MOL0     C23693   3.127   9.325   6.451  0.7252 -0.0163 -0.3587
  938MOL0     C23694   2.976   9.320   6.412 -0.0970  1.9167  0.3840
  938MOL0     C23695   2.906   9.214   6.498  0.2774  0.8449  1.0744
  938MOL0     C23696   2.778   9.178   6.427  0.6475  1.2306 -1.0625
  938MOL0     C23697   2.719   9.053   6.485  0.4288 -0.0411 -0.0293
  938MOL0     C23698   2.635   9.077   6.608 -0.1447  0.3067  0.4497
  938MOL0     C23699   2.638   8.970   6.718 -1.3660  0.9207 -0.0141
  938MOL0     C23700   2.610   8.823   6.684 -0.2865 -0.3084 -0.4061
  938MOL0     N23701   2.470   8.817   6.630 -0.7720 -0.1385 -0.2510
  938MOL0     C23702   2.362   8.776   6.703 -1.0767  0.0611  0.2715
  938MOL0     C23703   2.260   8.769   6.607 -0.0439 -0.7515 -0.9753
  938MOL0     C23704   2.114   8.756   6.641 -0.4116 -0.1650  0.3432
  938MOL0     C23705   2.051   8.638   6.584  0.0305 -0.1248  0.5585
  938MOL0     C23706   1.931   8.584   6.655 -0.0375  0.7324 -0.4920
  938MOL0     C23707   1.879   8.458   6.584 -0.1070  0.2154 -0.3916
  938MOL0     O23708   1.815   8.367   6.678  0.0511  0.0991 -0.4301
  938MOL0     C23709   1.731   8.278   6.616  0.1802 -0.2979  0.3815
  938MOL0     C23710   1.604   8.269   6.666 -0.2655  0.7375 -0.0193
  938MOL0     C23711   1.511   8.190   6.605  0.4902  0.2555  0.4410
  938MOL0     C23712   1.546   8.113   6.483  0.2022 -0.1087 -1.0648
  938MOL0     C23713   1.445   8.029   6.417  0.3054 -0.8492 -0.4402
  938MOL0     O23714   1.475   7.975   6.303  0.2063  0.4631  0.0723
  938MOL0     C23715   1.370   7.946   6.229  0.3858 -0.3290 -0.3418
  938MOL0     C23716   1.337   8.028   6.119  0.6633  1.1353 -0.8374
  938MOL0     C23717   1.231   7.993   6.036 -0.1939 -0.3172 -0.6569
  938MOL0     C23718   1.152   7.877   6.070 -0.0817 -0.9629 -0.0591
  938MOL0     O23719   1.028   7.821   6.006 -0.7517 -0.5910 -0.3571
  938MOL0     C23720   1.000   7.892   5.880  0.3630 -0.3392 -0.3565
  938MOL0     C23721   0.879   7.842   5.805  0.6208 -0.8843 -0.4026
  938MOL0     C23722   0.858   7.693   5.824  0.3409  0.6773  0.2695
  938MOL0     C23723   0.739   7.629   5.749 -0.1897  0.2930  0.2829
  938MOL0     C23724   0.710   7.479   5.785 -0.1607 -0.0573  0.9297
  938MOL0     C23725   0.585   7.425   5.709  1.1417  0.2773 -0.4521
  938MOL0     C23726   0.444   7.463   5.782 -0.3703  0.4477  0.3640
  938MOL0     C23727   0.316   7.379   5.738 -0.8918 -0.6720 -0.1679
  938MOL0    Cl23728   0.283   7.376   5.566  0.4149 -0.1417 -0.0099
  938MOL0     C23729   1.192   7.798   6.168 -0.3524 -0.5495 -1.0428
  938MOL0     C23730   1.303   7.827   6.246  1.0001  0.0816  0.3747
  938MOL0     O23731   1.333   8.029   6.465 -0.1196 -0.8535  0.2589
  938MOL0     C23732   1.674   8.119   6.440 -0.5206  0.0489 -0.5183
  938MOL0     C23733   1.770   8.193   6.513 -0.0698  0.7950  0.5878
  938MOL0     N23734   2.311   8.812   6.486 -0.3343  0.1700  0.3213
  938MOL0     N23735   2.439   8.843   6.503  0.6105 -0.0189  0.3457
  938MOL0     C23736   3.396   9.389   6.494 -0.0355  0.0991  0.0253
  938MOL0     C23737   3.530   9.416   6.512 -0.5797 -0.0420 -0.6697
  938MOL0     C23738   3.924   9.596   6.542  0.7767  0.0911 -1.2927
  938MOL0     C23739   3.996   9.481   6.554  0.3273 -0.0591  0.3384
  938MOL0     C23740   4.134   9.475   6.587 -0.1947 -0.3939 -0.5248
  938MOL0     C23741   4.205   9.594   6.581 -0.2665 -0.2132  0.3387
  938MOL0     O23742   4.344   9.605   6.596  0.1687  0.2829 -0.3848
  938MOL0     C23743   4.425   9.491   6.623  0.3674 -0.5035  0.4443
  938MOL0     C23744   4.565   9.544   6.637  1.0298 -0.1386  0.6504
  938MOL0     C23745   4.667   9.437   6.664 -0.2064 -0.0021 -0.2216
  938MOL0     C23746   4.799   9.513   6.697  0.3005 -0.1581 -0.5997
  938MOL0     C23747   4.907   9.427   6.745  0.3133 -0.8257  0.5332
  938MOL0     C23748   5.002   9.370   6.798  0.4008  0.7926  0.9325
  938MOL0     C23749   4.132   9.708   6.578 -0.3399  0.2466  0.2431
  938MOL0     C23750   3.994   9.713   6.571 -0.0924 -0.4986 -0.4068
  938MOL0     H23751   3.581   9.596   6.226  0.1141  0.0661  0.0164
  938MOL0     H23752   3.336   9.572   6.214 -1.5939 -0.7454  0.3996
  938MOL0     H23753   3.149   9.351   6.555  0.6443  2.2655 -0.8631
  938MOL0     H23754   3.171   9.227   6.431  2.0592  0.5231 -0.2192
  938MOL0     H23755   2.979   9.283   6.309 -1.2611  1.4844  0.4843
  938MOL0     H23756   2.933   9.420   6.399 -1.9717  0.9930 -1.0623
  938MOL0     H23757   2.876   9.257   6.594  0.2314  0.4322  1.2458
  938MOL0     H23758   2.978   9.134   6.515 -0.2416  0.2944  0.7195
  938MOL0     H23759   2.709   9.263   6.434 -1.2652 -0.3985  2.4857
  938MOL0     H23760   2.794   9.167   6.320 -2.0290  1.6762 -1.5750
  938MOL0     H23761   2.798   8.982   6.512 -1.3613 -1.7091  1.1611
  938MOL0     H23762   2.651   9.012   6.409  2.5842 -2.9932 -0.5543
  938MOL0     H23763   2.539   9.113   6.568 -0.7273  0.2158  1.7211
  938MOL0     H23764   2.676   9.163   6.661 -0.6815 -0.4116  2.0853
  938MOL0     H23765   2.737   8.965   6.763 -1.4559  0.7628  0.1647
  938MOL0     H23766   2.571   9.001   6.799 -0.8852  0.9436  0.3814
  938MOL0     H23767   2.621   8.756   6.770 -0.2626  1.4436  1.0268
  938MOL0     H23768   2.673   8.781   6.606  0.0976 -2.0454  0.7962
  938MOL0     H23769   2.352   8.758   6.809 -0.3127 -0.2663  0.2908
  938MOL0     H23770   2.073   8.844   6.591 -2.7437 -0.5594  1.4503
  938MOL0     H23771   2.094   8.759   6.748 -0.0497  1.4194  0.3972
  938MOL0     H23772   2.132   8.565   6.585 -0.0021 -0.1783 -0.1818
  938MOL0     H23773   2.022   8.649   6.479 -3.0750  0.7189  1.3767
  938MOL0     H23774   1.952   8.555   6.758  0.5498 -1.3181 -1.1476
  938MOL0     H23775   1.856   8.664   6.658  0.1332  0.9149 -1.0042
  938MOL0     H23776   1.966   8.407   6.542  2.1707  0.9167  3.0496
  938MOL0     H23777   1.813   8.485   6.500  0.5702  2.9503 -0.1428
  938MOL0     H23778   1.570   8.331   6.749 -1.3712 -0.0377  0.1274
  938MOL0     H23779   1.409   8.192   6.641  0.3131 -1.2131  0.1044
  938MOL0     H23780   1.384   8.125   6.108 -0.0435  1.4784 -0.8544
  938MOL0     H23781   1.207   8.058   5.952  0.5323  0.5379 -0.2286
  938MOL0     H23782   1.081   7.867   5.811 -1.1094  0.4434 -2.4567
  938MOL0     H23783   0.989   8.000   5.891  1.6015 -0.4668  3.9775
  938MOL0     H23784   0.882   7.864   5.698 -2.5546 -0.8283 -0.5825
  938MOL0     H23785   0.782   7.875   5.843  0.0492 -4.0637  1.2081
  938MOL0     H23786   0.832   7.682   5.930 -1.5361 -0.6963 -0.2768
  938MOL0     H23787   0.947   7.644   5.785 -0.3601  1.2941 -2.2744
  938MOL0     H23788   0.652   7.692   5.768 -1.6696 -1.1928 -1.2720
  938MOL0     H23789   0.757   7.631   5.641 -1.0996 -0.4019  0.1152
  938MOL0     H23790   0.694   7.468   5.893  1.4761  2.6473  1.5374
  938MOL0     H23791   0.797   7.424   5.751  0.6544  0.2825  2.3668
  938MOL0     H23792   0.590   7.317   5.692 -2.6600  0.3173 -3.0097
  938MOL0     H23793   0.590   7.479   5.614  0.7540  0.2077 -0.5158
  938MOL0     H23794   0.465   7.459   5.890 -0.7411 -1.4853  0.3975
  938MOL0     H23795   0.421   7.566   5.755  1.1040  0.1816 -2.1845
  938MOL0     H23796   0.232   7.420   5.795 -2.4021 -3.0037 -0.6052
  938MOL0     H23797   0.315   7.274   5.768  1.2134 -0.9599 -0.8913
  938MOL0     H23798   1.126   7.715   6.193 -1.0167  0.2276 -0.1169
  938MOL0     H23799   1.331   7.754   6.321 -3.0680 -1.3080  0.7404
  938MOL0     H23800   1.694   8.088   6.338  0.3584  0.7252 -0.5613
  938MOL0     H23801   1.873   8.201   6.481 -0.0183 -2.9096 -0.5960
  938MOL0     H23802   3.352   9.315   6.562 -0.2760  1.4110  1.3441
  938MOL0     H23803   3.583   9.377   6.598  0.8464  1.6983 -0.6921
  938MOL0     H23804   3.927   9.397   6.552  0.0473  0.0326  2.6904
  938MOL0     H23805   4.181   9.378   6.597  1.9219  0.8123  2.7368
  938MOL0     H23806   4.431   9.429   6.533  2.4135  0.1260  0.0995
  938MOL0     H23807   4.388   9.430   6.705  1.4866  0.0929  1.4184
  938MOL0     H23808   4.594   9.592   6.544  0.3174  0.7246  0.8626
  938MOL0     H23809   4.552   9.623   6.712 -0.8355  2.8320 -2.5141
  938MOL0     H23810   4.677   9.379   6.572 -3.0149 -0.1984 -0.4848
  938MOL0     H23811   4.625   9.385   6.751 -0.4344 -0.3140 -0.5146
  938MOL0     H23812   4.820   9.576   6.610  4.7980  2.8478  2.2352
  938MOL0     H23813   4.791   9.585   6.779  5.9666  1.8550 -1.3167
  938MOL0     H23814   5.090   9.319   6.832  0.8896 -0.4345 -1.8670
  938MOL0     H23815   4.188   9.798   6.598  0.0269  0.5106 -1.7238
  938MOL0     H23816   3.934   9.797   6.603  0.7462  0.4548 -1.2818
  939MOL0     O23817   6.645   1.901   8.382 -0.5407  0.2174 -0.5534
  939MOL0     C23818   6.560   1.891   8.296  1.2831  1.0657 -0.0409
  939MOL0     O23819   6.576   1.844   8.173  0.1650  0.2601  0.2764
  939MOL0     C23820   6.706   1.820   8.139 -0.2275 -0.8866 -0.0499
  939MOL0     C23821   6.762   1.906   8.035 -0.8227  0.4201 -0.0062
  939MOL0     C23822   6.894   1.887   7.992  0.0106 -0.1938 -0.1359
  939MOL0     C23823   6.974   1.779   8.036  0.2407  0.0255  0.7556
  939MOL0     O23824   7.104   1.783   7.988  0.3215  0.3140  0.2504
  939MOL0     C23825   7.211   1.728   8.057  0.6426 -0.4162  0.4816
  939MOL0     C23826   7.253   1.808   8.184 -0.9564  0.4640 -0.5229
  939MOL0     C23827   7.260   1.966   8.167 -0.2147 -0.1995  0.8239
  939MOL0     C23828   7.226   2.043   8.295 -0.0775  0.1567 -0.6671
  939MOL0     C23829   7.074   2.047   8.313  0.6260 -0.0446  0.4590
  939MOL0     C23830   6.993   2.156   8.229  0.1830  0.6747 -0.5127
  939MOL0     C23831   6.914   2.242   8.326 -0.0464 -0.1097 -0.7358
  939MOL0     C23832   6.799   2.159   8.398 -0.6313  0.4363  0.2137
  939MOL0     N23833   6.724   2.234   8.490  0.6527  0.2234 -0.1758
  939MOL0     C23834   6.653   2.351   8.464 -0.9973 -0.3669 -0.1570
  939MOL0     C23835   6.600   2.376   8.588 -0.5781  0.4395  0.5903
  939MOL0     C23836   6.524   2.501   8.623 -0.3255 -0.5611  0.2517
  939MOL0     C23837   6.381   2.478   8.685  0.1185 -0.6105 -0.0063
  939MOL0     C23838   6.319   2.616   8.700 -0.5578  1.0333 -0.5036
  939MOL0     C23839   6.174   2.612   8.769 -1.1132 -0.6544 -0.2907
  939MOL0     O23840   6.176   2.516   8.877  0.4000 -0.4205 -0.1886
  939MOL0     C23841   6.048   2.464   8.906 -1.2484 -0.3265 -0.8044
  939MOL0     C23842   5.975   2.532   8.998 -0.0305 -0.1667 -0.3031
  939MOL0     C23843   5.854   2.469   9.039  0.1261  0.6130 -0.0767
  939MOL0     C23844   5.811   2.351   8.986 -0.0194  0.8984 -0.2951
  939MOL0     C23845   5.676   2.298   9.029 -0.2181  0.0477 -0.0270
  939MOL0     O23846   5.632   2.332   9.154 -0.1785 -0.5997  0.3538
  939MOL0     C23847   5.541   2.247   9.204  0.4019 -1.0519  0.3225
  939MOL0     C23848   5.570   2.117   9.235  0.2124 -0.1742 -0.4960
  939MOL0     C23849   5.465   2.026   9.259  0.2368  0.0905 -0.0550
  939MOL0     C23850   5.328   2.067   9.251 -0.4829  0.6434  0.3307
  939MOL0     O23851   5.225   1.986   9.281  0.5746  0.6751 -0.0590
  939MOL0     C23852   5.173   1.993   9.413 -0.4907 -0.9382 -0.1676
  939MOL0     C23853   5.058   1.900   9.439 -0.5040  0.2663  0.3448
  939MOL0     C23854   5.104   1.749   9.424 -0.1374  0.2217 -0.0614
  939MOL0     C23855   5.247   1.718   9.484 -0.1580  0.5781 -0.0706
  939MOL0     C23856   5.266   1.570   9.514 -0.2991  0.0160 -0.2661
  939MOL0     C23857   5.396   1.544   9.589 -0.2652 -0.4399  0.8870
  939MOL0     C23858   5.513   1.528   9.491  0.4421 -0.7010  0.9620
  939MOL0     C23859   5.645   1.519   9.564 -0.5955  0.3685  1.1961
  939MOL0    Cl23860   5.642   1.358   9.630 -0.1445  0.0122  0.0346
  939MOL0     C23861   5.309   2.200   9.224  1.3465  0.4119  0.5784
  939MOL0     C23862   5.412   2.286   9.209  0.5018 -0.1569  1.4351
  939MOL0     O23863   5.618   2.220   8.950 -0.0973  0.4431 -1.0226
  939MOL0     C23864   5.891   2.283   8.897 -0.7578  0.8397 -0.6023
  939MOL0     C23865   6.014   2.334   8.865  0.3501  0.5767  0.4052
  939MOL0     N23866   6.620   2.261   8.662 -0.0030 -0.6492  0.0758
  939MOL0     N23867   6.689   2.180   8.606  0.3707 -0.6020  0.2165
  939MOL0     C23868   6.913   1.689   8.125  0.6155  0.1392 -0.3809
  939MOL0     C23869   6.782   1.708   8.173  0.1482  0.1645  1.1894
  939MOL0     C23870   6.425   1.948   8.320  0.6797  0.5800 -0.4772
  939MOL0     C23871   6.324   1.940   8.220 -0.2879 -1.1045 -0.0055
  939MOL0     C23872   6.204   2.013   8.239 -0.3516 -1.3132 -0.1620
  939MOL0     C23873   6.165   2.070   8.368 -0.2995  0.6636  1.3031
  939MOL0     O23874   6.039   2.117   8.386 -0.5972 -0.4617 -0.2059
  939MOL0     C23875   5.938   2.052   8.311 -0.5147 -0.7868 -0.0121
  939MOL0     C23876   5.801   2.089   8.369 -0.2221 -0.7834  0.1874
  939MOL0     C23877   5.773   1.993   8.490  0.7795  0.0039 -0.0368
  939MOL0     C23878   5.673   2.063   8.592 -0.1474  0.2087 -0.5399
  939MOL0     C23879   5.533   2.067   8.557  0.4685 -0.5289  0.0388
  939MOL0     C23880   5.414   2.072   8.529 -0.2681  0.3323  0.0098
  939MOL0     C23881   6.262   2.069   8.474 -0.1236  0.5746  0.7606
  939MOL0     C23882   6.388   2.007   8.450 -0.7423 -0.3364 -0.2140
  939MOL0     H23883   6.705   1.992   8.001 -3.5008 -0.9160  0.8617
  939MOL0     H23884   6.933   1.953   7.916 -1.7252 -0.8804 -1.7168
  939MOL0     H23885   7.298   1.708   7.993  1.1485  1.7055  0.4329
  939MOL0     H23886   7.174   1.629   8.085 -3.9887  0.9947  0.0814
  939MOL0     H23887   7.347   1.774   8.228 -2.4144  0.3991  2.7747
  939MOL0     H23888   7.178   1.789   8.261  0.9465 -0.5827  1.1642
  939MOL0     H23889   7.179   1.989   8.096  0.6186 -4.2067 -1.8046
  939MOL0     H23890   7.348   2.004   8.115 -1.4991  1.1961 -0.4256
  939MOL0     H23891   7.280   1.993   8.377 -0.2886  1.3283  0.2124
  939MOL0     H23892   7.272   2.141   8.285  0.3498 -0.1313 -1.5875
  939MOL0     H23893   7.052   2.064   8.419  0.2768  1.0673  0.2268
  939MOL0     H23894   7.026   1.952   8.288 -0.8255  1.3704 -2.6304
  939MOL0     H23895   6.931   2.101   8.158  2.4923 -3.3248  0.2114
  939MOL0     H23896   7.064   2.217   8.171 -1.1750  2.4622 -0.3728
  939MOL0     H23897   6.989   2.283   8.396 -0.6522  1.2593 -0.8484
  939MOL0     H23898   6.861   2.320   8.270  0.7864 -0.7293 -2.4548
  939MOL0     H23899   6.856   2.076   8.443  2.5143  2.3652  0.0965
  939MOL0     H23900   6.744   2.117   8.314 -0.6085 -2.3280  1.4790
  939MOL0     H23901   6.642   2.414   8.376 -1.7596  2.0408  1.5513
  939MOL0     H23902   6.510   2.565   8.536  1.2958 -1.4206 -0.6937
  939MOL0     H23903   6.589   2.556   8.691  2.3168 -0.3768 -2.2450
  939MOL0     H23904   6.398   2.428   8.781  1.5073 -0.5688 -0.2239
  939MOL0     H23905   6.320   2.424   8.612  1.8637  0.8552 -2.6861
  939MOL0     H23906   6.379   2.682   8.764  0.5777 -2.2924  2.1767
  939MOL0     H23907   6.299   2.665   8.605 -1.9876  2.3882  0.4448
  939MOL0     H23908   6.088   2.597   8.702 -1.7446 -2.1432  0.8000
  939MOL0     H23909   6.167   2.715   8.806 -0.3154 -0.6356 -0.1761
  939MOL0     H23910   6.008   2.631   9.026  0.6311  0.0966 -1.9176
  939MOL0     H23911   5.783   2.515   9.108 -1.3198 -2.3502  0.6028
  939MOL0     H23912   5.677   2.097   9.236  0.5370  1.4603 -0.0920
  939MOL0     H23913   5.499   1.926   9.283  3.5075  1.4241  1.4125
  939MOL0     H23914   5.139   2.095   9.430  0.1594 -1.1242  2.8320
  939MOL0     H23915   5.255   1.982   9.485 -0.7562  0.5823  0.3903
  939MOL0     H23916   4.979   1.918   9.366 -1.7211 -1.8203  1.0580
  939MOL0     H23917   5.028   1.905   9.545 -1.9434 -1.4567  0.0660
  939MOL0     H23918   5.101   1.735   9.315 -2.0887 -1.9648  0.2040
  939MOL0     H23919   5.027   1.684   9.465 -1.2458  2.1724  1.1046
  939MOL0     H23920   5.324   1.753   9.414  0.7565 -1.1881 -0.0109
  939MOL0     H23921   5.259   1.769   9.580 -0.2453  0.5809 -0.0617
  939MOL0     H23922   5.260   1.515   9.419 -4.2556 -3.3067  1.6010
  939MOL0     H23923   5.183   1.533   9.575  0.9188 -1.0586  0.7801
  939MOL0     H23924   5.388   1.447   9.637  0.8617 -1.2679 -0.5136
  939MOL0     H23925   5.411   1.625   9.660 -2.5138  0.4106  0.4902
  939MOL0     H23926   5.494   1.434   9.439  3.6270  0.4035 -2.6932
  939MOL0     H23927   5.514   1.608   9.416 -0.9885 -0.6575  0.9711
  939MOL0     H23928   5.672   1.597   9.636  2.0403  1.8706 -1.2416
  939MOL0     H23929   5.720   1.526   9.485 -0.4762 -0.8342  1.1919
  939MOL0     H23930   5.208   2.236   9.204  1.9195  2.0115  0.5016
  939MOL0     H23931   5.390   2.386   9.173  0.5697 -0.5375  0.2921
  939MOL0     H23932   5.869   2.188   8.849  1.9944 -1.1397  1.6811
  939MOL0     H23933   6.077   2.286   8.791 -0.2928 -0.9160  0.7725
  939MOL0     H23934   6.974   1.604   8.152 -1.7784 -1.5228  0.0698
  939MOL0     H23935   6.753   1.627   8.240  0.8322  1.7990  3.6266
  939MOL0     H23936   6.349   1.909   8.120  0.3483  3.1918 -1.3871
  939MOL0     H23937   6.143   2.013   8.149  1.1837 -1.5158 -1.2458
  939MOL0     H23938   5.933   1.944   8.294 -2.1186 -0.6244 -0.7741
  939MOL0     H23939   5.934   2.101   8.213  0.5545  0.3690  0.5006
  939MOL0     H23940   5.783   2.194   8.392  3.1422 -0.3449  1.3290
  939MOL0     H23941   5.721   2.078   8.295 -2.7732  0.7871  2.5362
  939MOL0     H23942   5.867   1.983   8.545  0.2215  1.8481  1.3482
  939MOL0     H23943   5.734   1.893   8.467  1.3212 -0.3950  0.7519
  939MOL0     H23944   5.677   2.021   8.692  2.9383 -3.5874 -1.9783
  939MOL0     H23945   5.699   2.169   8.601 -1.1117  0.3110  1.4565
  939MOL0     H23946   5.310   2.077   8.505  0.2083  4.2654 -2.1148
  939MOL0     H23947   6.248   2.122   8.568  2.9509  1.0019  1.0565
  939MOL0     H23948   6.464   2.017   8.528 -1.1208  1.7019 -0.0552
  940MOL0     O23949   0.824   3.761   8.303 -0.5055 -0.4877 -0.1783
  940MOL0     C23950   0.798   3.880   8.275  0.8011 -0.8255  0.3313
  940MOL0     O23951   0.868   3.988   8.324  0.0867 -0.1628 -0.5621
  940MOL0     C23952   0.985   3.973   8.393  0.0576 -0.2839  0.3222
  940MOL0     C23953   1.002   4.059   8.497 -0.6843 -0.5657  0.1236
  940MOL0     C23954   1.111   4.067   8.576  0.3117 -0.0283 -1.0289
  940MOL0     C23955   1.207   3.970   8.568  1.1377  0.0658 -1.0021
  940MOL0     O23956   1.316   3.984   8.657 -1.2977 -0.2916  0.5033
  940MOL0     C23957   1.440   3.933   8.616 -0.1494 -0.8783  0.2251
  940MOL0     C23958   1.464   3.788   8.665  0.1504  0.7674 -0.2374
  940MOL0     C23959   1.612   3.750   8.669 -0.6832  0.9281 -0.6425
  940MOL0     C23960   1.623   3.594   8.652  0.9793  1.3561 -0.3572
  940MOL0     C23961   1.756   3.540   8.694  0.6005 -0.6316 -0.6851
  940MOL0     C23962   1.868   3.587   8.609 -0.3484 -0.5080  0.0900
  940MOL0     C23963   2.009   3.535   8.647  0.1097  0.5000  0.1035
  940MOL0     C23964   2.035   3.380   8.655  0.2701  0.4584 -0.4837
  940MOL0     N23965   2.037   3.320   8.525  0.2894 -0.2375  0.3248
  940MOL0     C23966   2.141   3.336   8.444 -0.6616  0.0518  0.6637
  940MOL0     C23967   2.110   3.255   8.339 -0.1602  0.5374  0.1598
  940MOL0     C23968   2.187   3.206   8.214  0.7671 -0.1153 -0.5195
  940MOL0     C23969   2.325   3.269   8.181 -0.0728  0.1838 -0.3901
  940MOL0     C23970   2.298   3.407   8.125  0.1048  0.7588 -0.2866
  940MOL0     C23971   2.422   3.470   8.063 -0.3550 -0.5648  0.7747
  940MOL0     O23972   2.512   3.522   8.166  0.9002  0.0255  0.6651
  940MOL0     C23973   2.641   3.495   8.173  0.4739  0.0933 -0.2090
  940MOL0     C23974   2.716   3.541   8.275  0.3061  0.5835 -0.6673
  940MOL0     C23975   2.860   3.510   8.295 -0.3547 -0.3707  0.7340
  940MOL0     C23976   2.917   3.410   8.206 -0.3477  0.3362 -0.0865
  940MOL0     C23977   3.056   3.372   8.205  0.8236  0.0310 -0.4084
  940MOL0     O23978   3.132   3.423   8.311  0.0386  0.6628  0.5799
  940MOL0     C23979   3.264   3.442   8.291  0.7549  0.4063 -0.9862
  940MOL0     C23980   3.338   3.445   8.408 -0.2754 -0.0924  0.1790
  940MOL0     C23981   3.482   3.464   8.391  0.3886  0.7096  0.0065
  940MOL0     C23982   3.544   3.482   8.263 -0.2208  0.1963  0.5414
  940MOL0     O23983   3.684   3.516   8.254 -0.4317 -0.0002 -0.2026
  940MOL0     C23984   3.769   3.550   8.367  0.0836 -0.6965 -0.8610
  940MOL0     C23985   3.766   3.699   8.399  0.1629 -0.2371  0.5280
  940MOL0     C23986   3.644   3.736   8.465  0.3719  0.0592 -1.1827
  940MOL0     C23987   3.670   3.869   8.539  0.4232  0.1635  0.4892
  940MOL0     C23988   3.561   3.908   8.635  0.7731  0.2093 -0.1729
  940MOL0     C23989   3.418   3.934   8.569 -0.1152  0.4319  0.7670
  940MOL0     C23990   3.311   3.972   8.669 -0.1190 -0.0132 -0.2399
  940MOL0     C23991   3.201   3.869   8.700 -0.8699 -0.0287  0.4205
  940MOL0    Cl23992   3.271   3.698   8.696 -0.0362  0.5563  0.3024
  940MOL0     C23993   3.464   3.478   8.147  0.9306 -0.1011 -0.1829
  940MOL0     C23994   3.326   3.463   8.162 -0.0268  0.2845 -0.4851
  940MOL0     O23995   3.098   3.304   8.113 -0.0804  0.0060  0.5981
  940MOL0     C23996   2.822   3.345   8.114  0.3621  0.2549 -0.2450
  940MOL0     C23997   2.692   3.389   8.099  1.1154  0.0145  0.5319
  940MOL0     N23998   1.989   3.192   8.374  0.1504  0.0479 -0.2788
  940MOL0     N23999   1.943   3.230   8.483 -0.6981 -0.1009 -0.7909
  940MOL0     C24000   1.205   3.879   8.460  0.1973  0.1152  0.3187
  940MOL0     C24001   1.091   3.878   8.375  1.2458  0.2331  0.2219
  940MOL0     C24002   0.694   3.897   8.169 -0.1318  0.5450 -0.3781
  940MOL0     C24003   0.619   3.786   8.134  0.2514 -0.5005  0.4372
  940MOL0     C24004   0.507   3.800   8.054 -0.5547  0.2314  0.2390
  940MOL0     C24005   0.469   3.924   8.000  0.0449 -0.1179 -0.6746
  940MOL0     O24006   0.358   3.939   7.913 -0.0916  0.0458 -0.5609
  940MOL0     C24007   0.311   3.825   7.849 -0.0917 -1.2219 -0.1913
  940MOL0     C24008   0.209   3.856   7.750 -1.0323 -0.0956 -0.2781
  940MOL0     C24009   0.134   3.739   7.690  0.3578  1.1517 -0.0868
  940MOL0     C24010   0.225   3.627   7.630 -0.6011 -0.4585  0.3856
  940MOL0     C24011   0.290   3.674   7.497 -0.3482 -0.6387 -0.4229
  940MOL0     C24012   0.341   3.718   7.394  0.8888  0.3168 -0.3579
  940MOL0     C24013   0.543   4.036   8.029 -0.3265  1.0905 -0.9303
  940MOL0     C24014   0.658   4.025   8.113  0.0880 -0.0662  0.4573
  940MOL0     H24015   0.927   4.134   8.522  0.5218  0.3423  1.1386
  940MOL0     H24016   1.128   4.139   8.656 -0.1200  0.2321 -1.1742
  940MOL0     H24017   1.514   4.000   8.662 -1.7050 -0.5946  2.4820
  940MOL0     H24018   1.458   3.943   8.509 -0.1848 -1.8362  0.1262
  940MOL0     H24019   1.404   3.716   8.608 -2.4328 -0.4095  3.5837
  940MOL0     H24020   1.429   3.797   8.768  1.0461  0.5250  0.0923
  940MOL0     H24021   1.656   3.785   8.763  1.9101 -2.3645 -0.4513
  940MOL0     H24022   1.668   3.793   8.586 -1.1295 -1.0239 -2.0203
  940MOL0     H24023   1.539   3.549   8.706 -0.2672  2.2701 -1.4362
  940MOL0     H24024   1.616   3.566   8.546  0.1724  1.9529 -0.4762
  940MOL0     H24025   1.767   3.431   8.695  2.6925 -0.4596 -0.8399
  940MOL0     H24026   1.770   3.573   8.798  0.5477 -0.3252 -0.7725
  940MOL0     H24027   1.879   3.693   8.634 -1.3111 -0.7061  1.4332
  940MOL0     H24028   1.852   3.571   8.502  2.6648  0.9230 -0.6639
  940MOL0     H24029   2.079   3.570   8.570  2.3619  0.2864  1.9439
  940MOL0     H24030   2.040   3.585   8.739 -0.1818 -0.0694  0.5195
  940MOL0     H24031   1.960   3.325   8.712  0.3238 -1.0986 -1.8430
  940MOL0     H24032   2.132   3.365   8.702  0.1411 -2.0261 -0.8809
  940MOL0     H24033   2.233   3.389   8.465  0.8095 -2.2959  0.5550
  940MOL0     H24034   2.124   3.238   8.131  1.3813  3.5653  0.2728
  940MOL0     H24035   2.207   3.101   8.240  1.8402  0.3822  0.8311
  940MOL0     H24036   2.380   3.206   8.111 -1.0507 -1.5445  0.3277
  940MOL0     H24037   2.383   3.283   8.273  1.2025  2.5421 -1.4660
  940MOL0     H24038   2.217   3.394   8.053 -0.1440 -0.0501  0.1244
  940MOL0     H24039   2.268   3.471   8.209 -1.2340 -2.4194  1.8679
  940MOL0     H24040   2.388   3.558   8.008  0.7375  1.0857  2.5968
  940MOL0     H24041   2.469   3.402   7.991  0.1874 -1.3758  1.8663
  940MOL0     H24042   2.664   3.596   8.353  1.5239  0.6857  0.0931
  940MOL0     H24043   2.921   3.554   8.374 -2.3785  2.5159  0.8401
  940MOL0     H24044   3.298   3.431   8.508 -0.9769 -1.5336 -0.2665
  940MOL0     H24045   3.548   3.463   8.477 -0.0465 -0.9410  0.3480
  940MOL0     H24046   3.873   3.523   8.348  0.5947 -1.9772  2.9170
  940MOL0     H24047   3.743   3.504   8.463 -0.6600 -0.8709 -1.1422
  940MOL0     H24048   3.769   3.748   8.301 -0.4339 -2.8985 -0.9148
  940MOL0     H24049   3.851   3.735   8.457 -0.8655  5.5392 -0.9119
  940MOL0     H24050   3.616   3.649   8.525 -0.5876  0.2894 -1.2892
  940MOL0     H24051   3.563   3.735   8.391 -1.9062 -0.0586  1.1897
  940MOL0     H24052   3.757   3.862   8.606  0.8021  1.6257  0.1704
  940MOL0     H24053   3.694   3.949   8.468 -1.4066  1.2393  1.0281
  940MOL0     H24054   3.592   3.988   8.703  1.3538 -0.8834  0.8744
  940MOL0     H24055   3.549   3.826   8.706  1.0813  1.2289  1.1035
  940MOL0     H24056   3.397   3.838   8.520 -1.7732  1.3900 -0.5222
  940MOL0     H24057   3.426   4.021   8.503 -2.2559  0.9733  1.1382
  940MOL0     H24058   3.357   3.983   8.768  0.3242 -3.9024  0.1355
  940MOL0     H24059   3.267   4.067   8.639 -0.6841 -0.4796 -0.9206
  940MOL0     H24060   3.127   3.882   8.620  1.0386 -1.6162 -1.7574
  940MOL0     H24061   3.161   3.887   8.800 -1.5029  3.0426 -0.2850
  940MOL0     H24062   3.511   3.484   8.049  0.0963  0.3114 -0.5684
  940MOL0     H24063   3.266   3.466   8.072  1.3590  3.6185 -1.4338
  940MOL0     H24064   2.852   3.273   8.039 -0.1714  0.7181 -0.9237
  940MOL0     H24065   2.651   3.333   8.016  0.6822 -0.0147  0.7681
  940MOL0     H24066   1.280   3.814   8.417  0.3201  2.6817 -3.8834
  940MOL0     H24067   1.085   3.815   8.286  3.4690 -0.5679  0.5743
  940MOL0     H24068   0.639   3.686   8.170  0.9679 -1.2221 -1.7778
  940MOL0     H24069   0.453   3.711   8.021 -0.8614  0.6301 -0.3433
  940MOL0     H24070   0.266   3.746   7.911 -0.4690 -0.3539  0.6554
  940MOL0     H24071   0.398   3.780   7.800 -0.1737 -2.2214  0.5378
  940MOL0     H24072   0.128   3.916   7.792 -1.4990 -1.0430  0.2225
  940MOL0     H24073   0.250   3.924   7.675 -1.4112  0.0570 -0.3508
  940MOL0     H24074   0.072   3.770   7.605  0.2415 -0.3381 -0.5796
  940MOL0     H24075   0.072   3.694   7.769  2.5435  1.9918  2.2589
  940MOL0     H24076   0.309   3.602   7.696  2.3080 -0.0759 -2.9021
  940MOL0     H24077   0.173   3.535   7.604 -3.3592  0.6244  1.6396
  940MOL0     H24078   0.390   3.761   7.309  1.7699  3.3715  1.5348
  940MOL0     H24079   0.535   4.135   7.986  4.1041  1.1818 -2.1050
  940MOL0     H24080   0.717   4.113   8.136  1.3933 -0.7150 -0.2541
  941MOL0     O24081   4.807   3.768   5.783 -0.3655 -0.3756  0.6658
  941MOL0     C24082   4.773   3.888   5.803 -0.4679  0.0787  0.2700
  941MOL0     O24083   4.829   3.992   5.735 -0.0666  0.0979 -0.0369
  941MOL0     C24084   4.931   3.971   5.654 -0.3985 -0.2511 -0.6082
  941MOL0     C24085   5.063   4.014   5.694  0.9781  0.1839 -0.2591
  941MOL0     C24086   5.168   4.003   5.610 -0.7756  0.5756 -0.1135
  941MOL0     C24087   5.158   3.937   5.485  0.6743 -0.0061 -1.7199
  941MOL0     O24088   5.261   3.941   5.400 -0.7549  0.1920  0.0104
  941MOL0     C24089   5.259   3.867   5.274 -0.7078 -0.2553 -0.0123
  941MOL0     C24090   5.395   3.846   5.216  0.7412  0.0034 -0.1055
  941MOL0     C24091   5.461   3.969   5.151 -0.2221 -0.6799  0.6705
  941MOL0     C24092   5.564   3.939   5.038  0.4955 -0.3572  0.0959
  941MOL0     C24093   5.641   4.071   5.018  0.0433  0.2336  0.1959
  941MOL0     C24094   5.740   4.070   4.905 -0.3596 -0.4301  0.0391
  941MOL0     C24095   5.756   4.211   4.852  0.8753  1.1715 -0.5518
  941MOL0     C24096   5.686   4.241   4.722 -0.1954 -0.3540  0.4470
  941MOL0     N24097   5.542   4.212   4.725  0.8375  0.5811  0.4911
  941MOL0     C24098   5.449   4.306   4.774  0.0729 -0.3857  0.3426
  941MOL0     C24099   5.340   4.224   4.801 -1.1420 -0.4089  0.0544
  941MOL0     C24100   5.209   4.268   4.850  1.4112  0.5685 -0.3260
  941MOL0     C24101   5.103   4.199   4.761  0.1980 -0.3815 -0.1541
  941MOL0     C24102   4.961   4.245   4.782 -0.1673 -0.3266 -0.3393
  941MOL0     C24103   4.863   4.140   4.725  0.3711 -0.6208  0.0070
  941MOL0     O24104   4.743   4.207   4.679 -0.3492  0.3960  0.6378
  941MOL0     C24105   4.668   4.257   4.774  1.0969 -0.3787  1.0225
  941MOL0     C24106   4.672   4.236   4.914  0.2123  0.2459 -0.1388
  941MOL0     C24107   4.581   4.291   5.005  0.4679  0.5059  0.4039
  941MOL0     C24108   4.465   4.354   4.953  0.0360 -0.0301  0.2067
  941MOL0     C24109   4.359   4.404   5.037  0.8990  1.2571 -0.6965
  941MOL0     O24110   4.274   4.498   4.989  0.4760  0.2086  0.6058
  941MOL0     C24111   4.152   4.535   5.055 -0.3545  0.2896 -0.2293
  941MOL0     C24112   4.129   4.666   5.083  0.0972 -0.8336 -0.2642
  941MOL0     C24113   4.003   4.704   5.128  0.2223 -1.0283  0.5584
  941MOL0     C24114   3.907   4.619   5.172 -0.1209 -0.2039 -0.6393
  941MOL0     O24115   3.800   4.675   5.232 -0.1737 -0.0158 -0.6987
  941MOL0     C24116   3.700   4.591   5.291  0.4965 -0.0779 -0.4484
  941MOL0     C24117   3.730   4.554   5.437  0.1747 -0.1688 -0.6598
  941MOL0     C24118   3.805   4.659   5.524  0.4412  0.4768 -0.0002
  941MOL0     C24119   3.840   4.612   5.664  0.2990  0.4074  0.1088
  941MOL0     C24120   3.911   4.726   5.736  0.5817 -0.1508  0.6166
  941MOL0     C24121   3.962   4.677   5.866 -0.3372  0.6465 -0.4859
  941MOL0     C24122   4.102   4.606   5.852  0.5067 -0.0111  0.9425
  941MOL0     C24123   4.176   4.600   5.976 -0.1022  0.4614 -0.1973
  941MOL0    Cl24124   4.074   4.500   6.089  0.5128  0.3903  0.1147
  941MOL0     C24125   3.929   4.480   5.149  0.2519  0.5916  0.6791
  941MOL0     C24126   4.049   4.441   5.084 -0.5750 -0.9082  0.3477
  941MOL0     O24127   4.346   4.337   5.145  0.4803 -0.0890 -0.2546
  941MOL0     C24128   4.455   4.380   4.819 -0.6643 -0.8547 -0.2154
  941MOL0     C24129   4.555   4.335   4.728  0.0410 -0.1178 -0.2531
  941MOL0     N24130   5.370   4.096   4.761  1.2648  0.8640 -0.0193
  941MOL0     N24131   5.483   4.101   4.693 -0.1084  0.5959  0.1736
  941MOL0     C24132   5.034   3.889   5.450  0.8575  0.2272 -1.1420
  941MOL0     C24133   4.923   3.904   5.532  0.6195  0.0319 -0.2960
  941MOL0     C24134   4.668   3.925   5.904  1.0764  0.2372  0.2051
  941MOL0     C24135   4.613   3.808   5.971  0.3016  0.8343 -0.0778
  941MOL0     C24136   4.497   3.822   6.042  0.2825 -0.0143 -0.4227
  941MOL0     C24137   4.444   3.947   6.069 -0.9347  0.2280 -0.6145
  941MOL0     O24138   4.337   3.945   6.167 -0.4225 -0.1770 -0.0695
  941MOL0     C24139   4.270   4.070   6.190  1.5691 -0.3688  0.0201
  941MOL0     C24140   4.134   4.032   6.241  0.3601 -0.3211  0.1624
  941MOL0     C24141   4.065   4.164   6.282  0.6096 -0.3107  0.2046
  941MOL0     C24142   3.921   4.125   6.332 -0.4376 -0.4115  0.1832
  941MOL0     C24143   3.853   4.239   6.406 -1.1403  0.0456  1.1913
  941MOL0     C24144   3.797   4.322   6.474 -0.2024  0.3044  0.1553
  941MOL0     C24145   4.503   4.068   6.012  0.1400 -0.4948  0.3070
  941MOL0     C24146   4.605   4.052   5.922  0.0722 -0.2628  0.3937
  941MOL0     H24147   5.073   4.062   5.791  2.7569 -3.3779  1.5345
  941MOL0     H24148   5.269   4.027   5.641  0.2761 -1.4998 -1.6440
  941MOL0     H24149   5.199   3.913   5.195 -2.1690 -1.1391  0.5476
  941MOL0     H24150   5.220   3.764   5.278 -0.4954 -0.3602 -0.5285
  941MOL0     H24151   5.388   3.765   5.142 -0.6807 -0.0157  0.0178
  941MOL0     H24152   5.471   3.811   5.287 -0.4612 -1.6369  0.4342
  941MOL0     H24153   5.507   4.026   5.232 -1.1456  1.7924 -0.4337
  941MOL0     H24154   5.377   4.026   5.109 -0.8183 -0.8252  1.6376
  941MOL0     H24155   5.632   3.865   5.080 -0.9945 -0.2325  3.0747
  941MOL0     H24156   5.518   3.903   4.946 -1.0192  1.1242  0.2055
  941MOL0     H24157   5.688   4.103   5.111  2.0601  0.9266 -1.0148
  941MOL0     H24158   5.570   4.150   4.990 -0.5536 -0.7714 -1.3174
  941MOL0     H24159   5.714   4.000   4.825  0.5078  0.9165 -1.4730
  941MOL0     H24160   5.836   4.032   4.942 -1.2796 -1.2811  1.6999
  941MOL0     H24161   5.731   4.279   4.934 -0.4488  1.2827 -1.0163
  941MOL0     H24162   5.861   4.240   4.838  0.5795  2.7549  0.2531
  941MOL0     H24163   5.728   4.184   4.639  0.7428  1.1464 -0.1488
  941MOL0     H24164   5.699   4.348   4.705  1.9912 -0.8884 -1.7860
  941MOL0     H24165   5.454   4.412   4.794 -0.9323  0.3602 -2.7702
  941MOL0     H24166   5.193   4.376   4.849 -0.8087  0.2797 -0.9889
  941MOL0     H24167   5.185   4.231   4.950 -4.3422  0.5579 -1.3661
  941MOL0     H24168   5.117   4.091   4.773 -0.6435 -0.3688  1.1624
  941MOL0     H24169   5.127   4.229   4.659 -0.6806  0.0051 -0.2580
  941MOL0     H24170   4.939   4.247   4.889  0.3250  0.7885 -0.2470
  941MOL0     H24171   4.952   4.348   4.744  3.0167 -0.3127 -1.3140
  941MOL0     H24172   4.846   4.054   4.790 -2.2406 -1.9756 -2.2546
  941MOL0     H24173   4.911   4.117   4.630  2.6726  2.5881  0.2260
  941MOL0     H24174   4.750   4.171   4.951 -2.0297 -2.4014  0.2996
  941MOL0     H24175   4.597   4.283   5.112 -0.0272  3.6006  0.7939
  941MOL0     H24176   4.204   4.732   5.042 -1.4595 -0.4441 -2.6985
  941MOL0     H24177   3.983   4.811   5.126  1.4035 -0.7209  2.5670
  941MOL0     H24178   3.666   4.504   5.234 -4.0228  0.4343  1.0238
  941MOL0     H24179   3.616   4.661   5.303  0.3874 -0.2342 -0.2984
  941MOL0     H24180   3.803   4.473   5.432  2.8391  1.8255  2.1121
  941MOL0     H24181   3.635   4.524   5.481  0.3240 -0.5613 -0.6054
  941MOL0     H24182   3.746   4.750   5.532  0.9633  0.7814  0.4327
  941MOL0     H24183   3.897   4.695   5.476  1.4249  0.4618  1.8108
  941MOL0     H24184   3.754   4.573   5.720  2.4751 -0.9029  2.7707
  941MOL0     H24185   3.911   4.529   5.655  0.4850  0.4347  1.1977
  941MOL0     H24186   3.835   4.804   5.732 -2.0215 -2.5760 -1.4592
  941MOL0     H24187   3.996   4.758   5.675  0.2171 -1.7145 -0.7659
  941MOL0     H24188   3.892   4.608   5.914 -0.4463  1.1801  0.1381
  941MOL0     H24189   3.991   4.758   5.933  2.7742 -1.3126  0.7770
  941MOL0     H24190   4.090   4.510   5.802  2.1568  0.3386 -0.2224
  941MOL0     H24191   4.171   4.661   5.787  2.1537 -0.6338  2.0920
  941MOL0     H24192   4.195   4.695   6.026  0.4293 -0.0055  0.5179
  941MOL0     H24193   4.274   4.561   5.947 -2.3982 -4.0338 -3.1923
  941MOL0     H24194   3.859   4.401   5.174  1.9016 -1.1959 -0.0953
  941MOL0     H24195   4.065   4.335   5.071  1.1093 -0.5251 -0.9225
  941MOL0     H24196   4.359   4.405   4.776 -0.2794  0.4087 -0.3785
  941MOL0     H24197   4.529   4.344   4.623 -0.2864 -0.4295 -0.2008
  941MOL0     H24198   5.019   3.825   5.363  0.9749  1.9250 -2.4790
  941MOL0     H24199   4.823   3.865   5.515 -0.8955  3.5529 -0.3179
  941MOL0     H24200   4.667   3.713   5.966 -2.7545 -0.9670 -1.5820
  941MOL0     H24201   4.437   3.743   6.084  0.7888  0.4407  1.2360
  941MOL0     H24202   4.260   4.133   6.100  2.7345  2.2318  1.5897
  941MOL0     H24203   4.320   4.128   6.268 -0.2879 -0.1636  1.1166
  941MOL0     H24204   4.073   3.989   6.161  0.4463  2.0434 -1.2820
  941MOL0     H24205   4.147   3.955   6.317  0.8722 -3.4048 -2.8444
  941MOL0     H24206   4.047   4.228   6.196 -1.1802 -2.6406 -1.2879
  941MOL0     H24207   4.124   4.217   6.358  2.1640 -1.1658 -0.3512
  941MOL0     H24208   3.862   4.096   6.245  0.5472 -3.7749  0.4865
  941MOL0     H24209   3.912   4.041   6.401 -1.0736 -0.3596  0.1643
  941MOL0     H24210   3.763   4.412   6.521 -0.0437  1.8017 -2.3650
  941MOL0     H24211   4.456   4.166   6.020  1.1973 -0.0605  1.4298
  941MOL0     H24212   4.635   4.130   5.853  0.7426  0.8766  1.9375
  942MOL0     O24213   9.987   8.057   0.487  0.4525  0.1903 -0.1727
  942MOL0     C24214   9.918   8.081   0.588  0.1970  0.0908 -0.4201
  942MOL0     O24215   9.780   8.086   0.593  0.1980 -0.3573 -0.5925
  942MOL0     C24216   9.720   8.119   0.481  0.1989 -0.0042 -0.4351
  942MOL0     C24217   9.692   8.011   0.403  0.9685  0.1912  0.3632
  942MOL0     C24218   9.630   8.032   0.281 -0.3379  0.5160 -0.6439
  942MOL0     C24219   9.586   8.163   0.238 -0.6617  0.9665  0.3388
  942MOL0     O24220   9.527   8.166   0.115 -1.6141  0.0306  0.6810
  942MOL0     C24221   9.508   8.292   0.037  0.2759  0.0575 -0.1505
  942MOL0     C24222   9.490   8.246  -0.111 -0.5273  0.0535 -0.0197
  942MOL0     C24223   9.617   8.190  -0.182  0.3427  0.0152 -0.5323
  942MOL0     C24224   9.603   8.148  -0.328 -0.5951 -0.4671  0.2368
  942MOL0     C24225   9.727   8.138  -0.403 -0.6238 -0.8435  0.1090
  942MOL0     C24226   9.799   8.004  -0.374 -0.1064  0.0323 -0.3871
  942MOL0     C24227   9.892   7.993  -0.491 -0.3269 -0.4699 -0.0099
  942MOL0     C24228   9.969   7.867  -0.484 -0.4423  0.7508  0.6490
  942MOL0     N24229  10.086   7.882  -0.562  0.0713  1.7645  0.4504
  942MOL0     C24230  10.214   7.900  -0.518  0.7546  0.1523 -0.5164
  942MOL0     C24231  10.291   7.908  -0.634 -0.3539  0.0651 -0.9337
  942MOL0     C24232  10.444   7.958  -0.640  0.6012 -0.7880 -0.6080
  942MOL0     C24233  10.456   8.102  -0.685  0.1574 -0.8021 -0.7853
  942MOL0     C24234  10.436   8.137  -0.836 -0.0169 -1.3809  0.4922
  942MOL0     C24235  10.293   8.186  -0.866  0.2448 -0.0424 -0.3503
  942MOL0     O24236  10.281   8.304  -0.794  0.1286 -1.1361  0.1867
  942MOL0     C24237  10.171   8.388  -0.826  0.9378 -0.1211  0.4089
  942MOL0     C24238  10.064   8.345  -0.914  0.0818 -0.1402 -0.6363
  942MOL0     C24239   9.957   8.425  -0.956 -0.3965 -0.6855  0.4079
  942MOL0     C24240   9.948   8.554  -0.893  0.0174 -0.0143  0.3919
  942MOL0     C24241   9.847   8.651  -0.938 -0.2628 -0.6766 -0.5467
  942MOL0     O24242   9.821   8.768  -0.862 -0.4758 -0.4711  0.1137
  942MOL0     C24243   9.706   8.837  -0.881  0.2917  0.2019  0.4165
  942MOL0     C24244   9.684   8.889  -1.011 -0.2549  0.1563  0.2105
  942MOL0     C24245   9.559   8.942  -1.044  0.0401 -0.2316  0.2802
  942MOL0     C24246   9.463   8.955  -0.954 -0.0473  0.0443 -0.3874
  942MOL0     O24247   9.346   9.011  -0.999 -0.1403 -0.0964 -0.1057
  942MOL0     C24248   9.261   9.084  -0.913  0.1134  0.3201 -0.0021
  942MOL0     C24249   9.133   9.104  -0.992 -1.6418 -0.0814  0.4936
  942MOL0     C24250   9.013   9.175  -0.923 -0.2010  0.4694  0.2385
  942MOL0     C24251   8.880   9.169  -1.011 -0.5378 -0.3329  0.6414
  942MOL0     C24252   8.879   9.289  -1.107  0.0497 -0.6267  0.3517
  942MOL0     C24253   8.738   9.308  -1.160  0.5221 -0.2825 -0.1262
  942MOL0     C24254   8.722   9.425  -1.260  0.3220  0.7311 -0.7879
  942MOL0     C24255   8.588   9.417  -1.329 -0.5547 -0.0389  0.3510
  942MOL0    Cl24256   8.546   9.559  -1.425  0.0321  0.1559  0.0992
  942MOL0     C24257   9.482   8.902  -0.822 -0.2756 -0.9314  0.2876
  942MOL0     C24258   9.606   8.845  -0.778 -0.5106 -0.7190  0.3901
  942MOL0     O24259   9.772   8.614  -1.025  0.8764 -0.6224 -0.0835
  942MOL0     C24260  10.051   8.590  -0.814  0.5834  0.0192  0.1619
  942MOL0     C24261  10.161   8.512  -0.775  0.6431  0.1828  0.1673
  942MOL0     N24262  10.206   7.877  -0.749 -0.1498  0.1050  0.5293
  942MOL0     N24263  10.088   7.861  -0.694  0.7872  0.0040  0.2703
  942MOL0     C24264   9.614   8.269   0.317  0.3365 -0.5077  1.1578
  942MOL0     C24265   9.689   8.252   0.437  0.3239  0.1372 -1.3350
  942MOL0     C24266   9.998   8.092   0.710 -0.3845  0.2096 -0.1986
  942MOL0     C24267   9.937   8.110   0.845 -1.0991 -0.3483  0.2034
  942MOL0     C24268  10.012   8.095   0.963  0.0254  0.8798  0.2920
  942MOL0     C24269  10.142   8.063   0.967  0.3402 -0.1873  0.8326
  942MOL0     O24270  10.184   8.034   1.094  0.3147  0.3023  0.6199
  942MOL0     C24271  10.326   7.985   1.106  0.8073 -0.7368  0.1886
  942MOL0     C24272  10.413   8.109   1.130  0.0176  0.1024 -0.0312
  942MOL0     C24273  10.553   8.069   1.158 -0.0129 -0.9806 -0.7032
  942MOL0     C24274  10.619   7.997   1.034 -0.7111  0.3272  0.9113
  942MOL0     C24275  10.601   8.053   0.900 -0.2460  0.4891 -0.6618
  942MOL0     C24276  10.609   8.101   0.784 -0.3198  0.1379  0.6978
  942MOL0     C24277  10.203   8.050   0.843  0.2902  1.0002  0.7348
  942MOL0     C24278  10.136   8.065   0.717  0.0616  0.1996  0.0890
  942MOL0     H24279   9.709   7.907   0.430  0.0481 -0.0786 -0.0493
  942MOL0     H24280   9.595   7.963   0.205 -0.0851 -1.3421  0.8596
  942MOL0     H24281   9.594   8.360   0.037  0.2075  0.1579  0.7037
  942MOL0     H24282   9.420   8.346   0.074 -1.0022 -3.2042  2.0063
  942MOL0     H24283   9.457   8.327  -0.176 -2.3243 -1.9595 -1.7922
  942MOL0     H24284   9.410   8.172  -0.126 -0.7067  0.4188 -0.9233
  942MOL0     H24285   9.638   8.100  -0.123 -0.6882  0.7380  0.9902
  942MOL0     H24286   9.703   8.257  -0.180  1.6036 -1.3076 -3.5464
  942MOL0     H24287   9.541   8.058  -0.336 -1.3614 -0.1869  2.2043
  942MOL0     H24288   9.542   8.224  -0.378 -1.1117  0.3851  2.0686
  942MOL0     H24289   9.794   8.219  -0.376 -0.7434 -0.5181 -0.5369
  942MOL0     H24290   9.710   8.157  -0.510 -0.9360 -2.7217 -0.2113
  942MOL0     H24291   9.736   7.914  -0.371  1.2721 -1.0020 -1.4415
  942MOL0     H24292   9.860   8.017  -0.284  0.0132 -0.0977 -0.4489
  942MOL0     H24293   9.836   7.996  -0.585 -0.1304 -1.2867 -0.1550
  942MOL0     H24294   9.960   8.077  -0.506  2.6475 -2.5275  1.1194
  942MOL0     H24295   9.918   7.780  -0.527  1.3325 -1.6458  3.0523
  942MOL0     H24296   9.999   7.840  -0.382 -1.9347 -1.5222  0.5436
  942MOL0     H24297  10.243   7.920  -0.415 -2.3379 -2.1873  0.9788
  942MOL0     H24298  10.498   7.882  -0.698  1.3209 -1.4511  0.8820
  942MOL0     H24299  10.493   7.956  -0.543  1.9173  0.6706 -1.2027
  942MOL0     H24300  10.562   8.118  -0.661  0.0781  1.0433 -1.4912
  942MOL0     H24301  10.396   8.160  -0.615 -0.9148 -3.0499  0.2598
  942MOL0     H24302  10.504   8.221  -0.853  0.1020 -1.7174 -0.8265
  942MOL0     H24303  10.459   8.057  -0.907 -0.7072  0.3316 -1.7995
  942MOL0     H24304  10.226   8.103  -0.844  4.1789 -4.1552 -2.1627
  942MOL0     H24305  10.274   8.210  -0.971 -0.3746  1.8732  0.1466
  942MOL0     H24306  10.051   8.240  -0.937 -1.4215  0.2143 -1.5850
  942MOL0     H24307   9.882   8.369  -1.011 -0.0442 -1.1261  0.3788
  942MOL0     H24308   9.765   8.879  -1.083 -1.7561 -0.5757 -1.4229
  942MOL0     H24309   9.533   8.944  -1.150 -2.5480 -2.4013  0.7719
  942MOL0     H24310   9.305   9.183  -0.898  2.0326 -0.8115  2.4951
  942MOL0     H24311   9.247   9.037  -0.815  0.9325 -0.3576 -0.2008
  942MOL0     H24312   9.106   9.004  -1.027  1.1822 -0.0166 -2.3181
  942MOL0     H24313   9.167   9.154  -1.083  0.8852 -2.8303 -0.2481
  942MOL0     H24314   9.042   9.278  -0.900  1.0840  0.5566 -1.5203
  942MOL0     H24315   9.003   9.124  -0.827  2.6154  2.3233  1.6612
  942MOL0     H24316   8.865   9.076  -1.066 -0.6465 -0.6370  1.1775
  942MOL0     H24317   8.793   9.176  -0.945  2.3246 -0.6175  4.8852
  942MOL0     H24318   8.952   9.265  -1.184  1.1726 -0.4396  1.3368
  942MOL0     H24319   8.922   9.374  -1.053  1.2303 -2.0306  1.7101
  942MOL0     H24320   8.669   9.329  -1.077 -0.5221  1.3454 -1.3503
  942MOL0     H24321   8.721   9.209  -1.204  3.7792 -2.3535  2.6812
  942MOL0     H24322   8.721   9.514  -1.196 -2.3566 -0.2763  0.7423
  942MOL0     H24323   8.798   9.424  -1.338 -1.0266 -1.0644 -2.1521
  942MOL0     H24324   8.511   9.401  -1.253 -0.1193  0.9724  1.0170
  942MOL0     H24325   8.580   9.325  -1.388 -1.2436 -0.3808  0.9571
  942MOL0     H24326   9.411   8.928  -0.745 -0.8891 -1.1860 -0.1899
  942MOL0     H24327   9.617   8.801  -0.680 -0.8205  0.8516  1.1566
  942MOL0     H24328  10.038   8.690  -0.773 -3.2148  0.5079 -1.7828
  942MOL0     H24329  10.242   8.560  -0.721 -0.7884  0.5185  2.1096
  942MOL0     H24330   9.587   8.372   0.292 -0.0746 -0.8071  0.3382
  942MOL0     H24331   9.710   8.330   0.510  0.0699 -0.9024 -0.0920
  942MOL0     H24332   9.834   8.137   0.865 -0.6028  1.4140  0.5626
  942MOL0     H24333   9.964   8.102   1.060  2.5752 -0.3580  1.7431
  942MOL0     H24334  10.362   7.925   1.022  0.0449 -0.3127 -0.4577
  942MOL0     H24335  10.341   7.917   1.191 -0.5604 -1.6508 -0.2552
  942MOL0     H24336  10.402   8.180   1.048  2.3383 -1.6789 -2.0521
  942MOL0     H24337  10.376   8.153   1.222 -3.2200 -0.0434 -1.1218
  942MOL0     H24338  10.566   8.002   1.243  2.3209  1.5713  1.1523
  942MOL0     H24339  10.613   8.154   1.192 -0.2890 -1.3238  0.6800
  942MOL0     H24340  10.728   7.994   1.040 -0.1899  3.4019 -2.8896
  942MOL0     H24341  10.586   7.892   1.030 -0.3428  0.2481 -1.3365
  942MOL0     H24342  10.624   8.128   0.681 -0.5928  0.4053  0.7266
  942MOL0     H24343  10.304   8.014   0.830 -0.0061  0.7943 -1.4723
  942MOL0     H24344  10.185   8.049   0.621 -1.1907  3.7706 -1.3157
  943MOL0     O24345   6.983   0.976  10.563 -0.8909  0.4260 -0.2454
  943MOL0     C24346   7.011   1.086  10.519  0.9220  0.2527  0.2713
  943MOL0     O24347   6.923   1.176  10.481  0.6410 -0.1715  0.2636
  943MOL0     C24348   6.791   1.142  10.460 -0.5428  0.1350 -0.0104
  943MOL0     C24349   6.701   1.244  10.480  0.4856 -0.1042 -0.8791
  943MOL0     C24350   6.564   1.232  10.455  0.1934 -0.0007 -0.7695
  943MOL0     C24351   6.514   1.106  10.420  0.4192  0.1210 -0.1208
  943MOL0     O24352   6.383   1.078  10.387  0.1107 -0.7173  0.6459
  943MOL0     C24353   6.285   1.156  10.441 -0.0203 -0.2247 -0.9809
  943MOL0     C24354   6.153   1.143  10.358 -0.1078 -0.4518  0.9076
  943MOL0     C24355   6.041   1.207  10.439  1.0618 -0.1716  0.3315
  943MOL0     C24356   5.969   1.127  10.551 -0.1287  0.9010 -0.5737
  943MOL0     C24357   5.841   1.187  10.597 -0.2306 -0.8470 -0.5348
  943MOL0     C24358   5.766   1.091  10.706 -0.2759 -0.2840 -0.0046
  943MOL0     C24359   5.658   1.161  10.793 -0.4484 -0.8796 -0.5263
  943MOL0     C24360   5.603   1.040  10.878  0.5903  1.0222 -0.5692
  943MOL0     N24361   5.481   1.072  10.950 -1.1055 -0.0907 -0.6287
  943MOL0     C24362   5.489   1.179  11.042 -0.1517  0.3400  0.7131
  943MOL0     C24363   5.361   1.216  11.045  0.4702 -0.0868  0.3447
  943MOL0     C24364   5.320   1.330  11.124  0.0510 -0.2346  0.1669
  943MOL0     C24365   5.359   1.317  11.275 -0.8250  0.1259  0.6036
  943MOL0     C24366   5.270   1.402  11.365 -0.6947  0.7148 -0.9628
  943MOL0     C24367   5.132   1.348  11.378  0.4419  0.0605 -0.3740
  943MOL0     O24368   5.044   1.438  11.301  0.1301  0.6323 -1.3479
  943MOL0     C24369   4.926   1.492  11.351 -0.2126  0.4534 -1.5768
  943MOL0     C24370   4.898   1.503  11.486  0.3372  0.1462  0.3721
  943MOL0     C24371   4.785   1.576  11.516  0.8345 -0.5523 -0.6358
  943MOL0     C24372   4.704   1.657  11.425 -0.3102  0.0979  0.2037
  943MOL0     C24373   4.574   1.723  11.449 -0.3643 -0.6001  0.2360
  943MOL0     O24374   4.518   1.688  11.567 -0.0008 -0.2851 -0.0440
  943MOL0     C24375   4.398   1.731  11.587 -0.5838 -0.5829  0.2401
  943MOL0     C24376   4.375   1.776  11.717 -0.0928  1.0650 -0.0096
  943MOL0     C24377   4.240   1.820  11.753 -0.7924 -0.5434 -0.1667
  943MOL0     C24378   4.133   1.809  11.668 -0.6449 -0.8456 -0.2449
  943MOL0     O24379   4.010   1.840  11.721 -0.1596  0.5856 -0.1931
  943MOL0     C24380   3.890   1.793  11.656 -0.1638  0.2546  0.6166
  943MOL0     C24381   3.771   1.812  11.752  0.4899 -0.1411 -0.5732
  943MOL0     C24382   3.631   1.807  11.684 -0.4440 -0.1595  0.1954
  943MOL0     C24383   3.520   1.827  11.796 -0.8020  0.2610  0.5899
  943MOL0     C24384   3.382   1.813  11.747 -0.1917  0.3501 -0.5045
  943MOL0     C24385   3.355   1.663  11.742  0.4762  0.9496  0.9104
  943MOL0     C24386   3.217   1.615  11.709  0.2190  0.6906  0.0364
  943MOL0     C24387   3.114   1.683  11.796  0.8172  0.8446  0.5001
  943MOL0    Cl24388   3.057   1.842  11.719 -0.3238  0.3574 -0.0050
  943MOL0     C24389   4.157   1.775  11.531 -0.3805 -0.2188  0.1533
  943MOL0     C24390   4.291   1.738  11.495  1.4120 -0.3122 -0.1017
  943MOL0     O24391   4.527   1.810  11.371 -0.7460  0.8205 -0.0720
  943MOL0     C24392   4.746   1.652  11.288 -0.5061  0.9072 -0.0018
  943MOL0     C24393   4.860   1.568  11.257 -0.3991 -0.0167  0.0757
  943MOL0     N24394   5.286   1.127  10.973 -0.0411 -0.0131  0.3470
  943MOL0     N24395   5.357   1.039  10.911  0.7862  0.0055 -0.1793
  943MOL0     C24396   6.604   0.999  10.409 -0.3766  0.1796  0.3897
  943MOL0     C24397   6.741   1.019  10.422 -0.0966  0.9215 -0.4677
  943MOL0     C24398   7.146   1.132  10.516 -0.1914 -0.4950  0.1110
  943MOL0     C24399   7.249   1.038  10.536  0.4092  0.2415 -0.7270
  943MOL0     C24400   7.388   1.070  10.529  0.2554  0.0220  0.6930
  943MOL0     C24401   7.423   1.193  10.489 -0.8881  0.1330  0.0211
  943MOL0     O24402   7.556   1.217  10.467 -0.3218  0.2551  0.1270
  943MOL0     C24403   7.600   1.349  10.446  0.3930 -0.0825 -0.0679
  943MOL0     C24404   7.755   1.357  10.435  0.6293 -0.0856 -0.1115
  943MOL0     C24405   7.815   1.261  10.332  0.9053 -0.2967 -0.3956
  943MOL0     C24406   7.959   1.313  10.296  0.0535  0.3743 -0.4054
  943MOL0     C24407   8.033   1.375  10.407 -0.4416 -0.6640 -0.1029
  943MOL0     C24408   8.098   1.430  10.493  0.6929  0.6184 -0.1853
  943MOL0     C24409   7.319   1.289  10.463  0.7805  0.4128 -0.3374
  943MOL0     C24410   7.180   1.255  10.471  0.1609 -0.4648 -0.0095
  943MOL0     H24411   6.743   1.341  10.506 -1.2116  0.3200  0.4527
  943MOL0     H24412   6.499   1.316  10.475 -0.1573 -1.2797  5.6482
  943MOL0     H24413   6.311   1.262  10.433  0.7820  0.2251  4.3347
  943MOL0     H24414   6.286   1.109  10.539  1.8137  0.9633 -0.3811
  943MOL0     H24415   6.135   1.035  10.346 -3.5943 -0.0373  1.1757
  943MOL0     H24416   6.162   1.193  10.261  1.0582 -1.4962  0.4480
  943MOL0     H24417   5.958   1.232  10.372  0.4955  2.0699  1.7129
  943MOL0     H24418   6.076   1.305  10.474  2.3288 -0.9609  1.3176
  943MOL0     H24419   5.939   1.030  10.511 -0.0635 -0.2679  2.0452
  943MOL0     H24420   6.029   1.109  10.640 -1.6523 -1.3133  0.0904
  943MOL0     H24421   5.780   1.203  10.508  1.1562  0.5608 -1.2868
  943MOL0     H24422   5.855   1.289  10.634  0.8908  0.2680 -3.6662
  943MOL0     H24423   5.846   1.054  10.771  1.8150 -0.5752 -2.5687
  943MOL0     H24424   5.729   1.001  10.656 -0.7441  0.2070 -0.5508
  943MOL0     H24425   5.703   1.233  10.862 -0.6707 -0.4894 -0.7797
  943MOL0     H24426   5.590   1.209  10.721  3.7898  2.8388 -2.5657
  943MOL0     H24427   5.683   1.000  10.941  0.4648 -0.4116 -1.2772
  943MOL0     H24428   5.575   0.964  10.805 -0.7473 -0.6995  1.6051
  943MOL0     H24429   5.570   1.209  11.107  1.0311 -0.5918 -0.2839
  943MOL0     H24430   5.212   1.330  11.109  0.2733  0.8210 -1.7386
  943MOL0     H24431   5.360   1.427  11.092 -0.7536  0.5879  1.5553
  943MOL0     H24432   5.461   1.354  11.290 -1.3362  0.9893  2.1729
  943MOL0     H24433   5.345   1.215  11.312 -1.9906 -0.3076 -0.9609
  943MOL0     H24434   5.313   1.406  11.466 -2.4333  1.3810 -0.2162
  943MOL0     H24435   5.267   1.502  11.321  0.0176 -0.0498 -2.8178
  943MOL0     H24436   5.111   1.360  11.485  0.9212 -3.3017  0.2200
  943MOL0     H24437   5.113   1.246  11.341  0.6916 -0.2433  0.3193
  943MOL0     H24438   4.949   1.448  11.564  0.0780  0.1887  0.5731
  943MOL0     H24439   4.766   1.580  11.623  2.9620  1.8243 -0.2394
  943MOL0     H24440   4.461   1.783  11.782  0.2020  0.5102 -0.3319
  943MOL0     H24441   4.229   1.866  11.851 -0.9907  1.4406 -1.0666
  943MOL0     H24442   3.896   1.685  11.642 -2.0912  0.2997 -0.8982
  943MOL0     H24443   3.867   1.849  11.565 -2.3728  0.2297  1.0900
  943MOL0     H24444   3.788   1.904  11.809 -0.3805 -1.1710  1.4361
  943MOL0     H24445   3.779   1.732  11.826 -0.4139  0.5366  0.2879
  943MOL0     H24446   3.623   1.710  11.634 -0.0638  0.0304 -0.2455
  943MOL0     H24447   3.631   1.886  11.608  0.0575  0.1698  0.5270
  943MOL0     H24448   3.532   1.755  11.877  1.6968  1.2093  1.1421
  943MOL0     H24449   3.527   1.923  11.849  2.1345 -0.2439  1.2996
  943MOL0     H24450   3.352   1.866  11.656 -0.3593 -0.6214 -1.0377
  943MOL0     H24451   3.320   1.846  11.831  1.4005  2.2786 -0.0207
  943MOL0     H24452   3.378   1.607  11.833  0.2799 -2.5571 -1.0145
  943MOL0     H24453   3.407   1.608  11.663 -3.8364 -2.3584 -0.0117
  943MOL0     H24454   3.197   1.650  11.607 -0.3162  2.1098  0.5953
  943MOL0     H24455   3.202   1.506  11.707  0.7363  0.6131 -2.1165
  943MOL0     H24456   3.147   1.692  11.900 -0.9056  0.5148  1.1078
  943MOL0     H24457   3.026   1.619  11.793  1.8044 -0.5345 -1.0560
  943MOL0     H24458   4.075   1.766  11.460 -0.9142 -0.5185  0.7940
  943MOL0     H24459   4.302   1.712  11.390  0.1217  3.4896 -1.3273
  943MOL0     H24460   4.692   1.704  11.210 -0.1823  2.6985  0.9022
  943MOL0     H24461   4.893   1.554  11.155  4.4417 -2.2077  1.6296
  943MOL0     H24462   6.557   0.904  10.384 -1.2597  0.1713  1.9742
  943MOL0     H24463   6.799   0.929  10.407  0.3507  1.1912 -0.3872
  943MOL0     H24464   7.232   0.934  10.560  1.3731  0.0329 -0.8979
  943MOL0     H24465   7.462   0.994  10.550 -1.4226 -1.4683  1.4528
  943MOL0     H24466   7.583   1.402  10.540  1.1134 -0.4053  0.2514
  943MOL0     H24467   7.552   1.383  10.353 -1.5931 -3.2503 -0.3465
  943MOL0     H24468   7.776   1.463  10.417  2.5538 -0.4149 -0.0118
  943MOL0     H24469   7.798   1.335  10.533  0.3227  1.0764  0.2968
  943MOL0     H24470   7.752   1.237  10.246  2.3350  0.1039 -1.6007
  943MOL0     H24471   7.831   1.164  10.380  1.5502 -0.3377 -0.6931
  943MOL0     H24472   8.017   1.230  10.256 -2.4929 -0.3995 -2.7228
  943MOL0     H24473   7.946   1.387  10.216 -0.0433  1.0220  0.1958
  943MOL0     H24474   8.155   1.478  10.570  1.0514  5.5015 -3.1086
  943MOL0     H24475   7.330   1.393  10.432 -0.6656  0.8275  0.4313
  943MOL0     H24476   7.110   1.330  10.435 -0.6408 -0.9077  0.6051
  944MOL0     O24477  10.061   4.026  10.149 -0.0167 -1.4085  0.0480
  944MOL0     C24478   9.981   4.040  10.241 -0.7722  0.9022 -0.3056
  944MOL0     O24479  10.018   4.063  10.366 -0.3266  0.5239 -0.1184
  944MOL0     C24480  10.140   4.123  10.384 -0.4331 -0.2917  0.4632
  944MOL0     C24481  10.156   4.247  10.316 -0.1470  0.1434 -0.2929
  944MOL0     C24482  10.273   4.323  10.331  0.4635  0.0614  1.6086
  944MOL0     C24483  10.371   4.272  10.417 -0.3096 -0.0179  0.4799
  944MOL0     O24484  10.493   4.333  10.432  0.2859  0.4392 -0.0898
  944MOL0     C24485  10.511   4.470  10.386  0.5227 -0.0263 -0.0429
  944MOL0     C24486  10.648   4.526  10.429  0.1888  0.7443  0.3698
  944MOL0     C24487  10.765   4.426  10.401  0.5363  0.0301  0.1352
  944MOL0     C24488  10.900   4.494  10.458  0.4523 -0.9857 -0.1588
  944MOL0     C24489  11.027   4.446  10.392 -0.1457 -0.2174 -0.9352
  944MOL0     C24490  11.144   4.524  10.443 -0.5919  0.6512 -0.2181
  944MOL0     C24491  11.280   4.515  10.366  0.5955 -0.3573 -0.1496
  944MOL0     C24492  11.266   4.556  10.222  0.4447 -0.3382  0.8165
  944MOL0     N24493  11.406   4.561  10.171  0.2641 -0.3415  0.2392
  944MOL0     C24494  11.493   4.460  10.139  0.9647  0.7806 -1.0160
  944MOL0     C24495  11.602   4.519  10.075  0.6946  0.5642 -0.0267
  944MOL0     C24496  11.729   4.451  10.023 -0.1960 -0.3556  0.0820
  944MOL0     C24497  11.787   4.526   9.901  0.7673  0.1258 -0.1385
  944MOL0     C24498  11.935   4.476   9.847 -1.0134 -0.4804 -0.1860
  944MOL0     C24499  11.936   4.356   9.759  0.1111  0.1529 -0.1832
  944MOL0     O24500  11.999   4.384   9.628  0.3162  0.5421  0.3470
  944MOL0     C24501  11.971   4.482   9.539  0.7399 -0.1387  0.3087
  944MOL0     C24502  11.845   4.542   9.525 -0.4307 -0.0614 -0.8086
  944MOL0     C24503  11.827   4.646   9.435  0.5029 -0.2003  0.2402
  944MOL0     C24504  11.928   4.685   9.351  0.1215 -0.3040  0.7872
  944MOL0     C24505  11.904   4.793   9.257 -0.2393 -0.5931 -0.3421
  944MOL0     O24506  12.001   4.815   9.161 -0.0476 -0.0361 -0.5108
  944MOL0     C24507  11.998   4.909   9.066 -1.4393  0.7622  0.5595
  944MOL0     C24508  12.045   4.873   8.935 -0.2725 -0.0940  0.1111
  944MOL0     C24509  12.058   4.972   8.835  0.5421  0.2787  0.0432
  944MOL0     C24510  12.030   5.108   8.856 -0.1922  0.2829 -0.0418
  944MOL0     O24511  12.039   5.194   8.744 -0.5052  0.7767 -0.1970
  944MOL0     C24512  12.033   5.336   8.783  0.1230 -1.4362 -0.1037
  944MOL0     C24513  12.062   5.425   8.663  0.0993  0.0153 -0.3606
  944MOL0     C24514  11.942   5.450   8.567 -1.0832 -0.5183  0.3126
  944MOL0     C24515  11.926   5.325   8.476 -0.6655 -0.5009  0.4285
  944MOL0     C24516  11.843   5.356   8.342  0.6342 -1.1593 -0.5811
  944MOL0     C24517  11.827   5.231   8.252 -0.8427 -0.0300  0.1331
  944MOL0     C24518  11.756   5.252   8.124  0.6263 -0.0892 -0.1378
  944MOL0     C24519  11.603   5.256   8.146  0.7632 -0.9630 -0.0120
  944MOL0    Cl24520  11.535   5.093   8.138  0.6668  0.2339 -0.5024
  944MOL0     C24521  11.977   5.138   8.991 -0.5467  0.5357  1.1660
  944MOL0     C24522  11.973   5.042   9.098 -0.5073  1.2287  0.8514
  944MOL0     O24523  11.810   4.867   9.274 -0.1521  0.4957 -0.7167
  944MOL0     C24524  12.049   4.614   9.349  0.3466  0.0940  0.1762
  944MOL0     C24525  12.076   4.513   9.444 -0.1798 -0.1296  0.2456
  944MOL0     N24526  11.576   4.650  10.072 -0.9171 -0.9355 -1.2042
  944MOL0     N24527  11.468   4.678  10.135  0.5836  0.7303 -0.2365
  944MOL0     C24528  10.353   4.150  10.478  0.2202 -0.1179 -0.3122
  944MOL0     C24529  10.235   4.076  10.474  0.8536  0.0813 -0.0576
  944MOL0     C24530   9.839   4.020  10.222  0.6509  1.0258 -0.0858
  944MOL0     C24531   9.783   4.011  10.097  0.8533  0.1753  0.8933
  944MOL0     C24532   9.642   4.009  10.082 -0.4075  0.5832  0.2291
  944MOL0     C24533   9.552   4.018  10.185 -0.7323 -0.0816 -0.0284
  944MOL0     O24534   9.415   4.021  10.168 -0.3386  0.0692  0.2563
  944MOL0     C24535   9.355   4.000  10.039  0.4928 -0.2560  0.4597
  944MOL0     C24536   9.210   4.037  10.032 -0.4687  0.3341 -0.0829
  944MOL0     C24537   9.185   4.184   9.982  0.6484 -0.7636  0.1526
  944MOL0     C24538   9.042   4.214  10.029 -0.0078 -0.7495 -0.7661
  944MOL0     C24539   8.981   4.334   9.967  0.2508 -0.2659 -1.5456
  944MOL0     C24540   8.909   4.415   9.931 -0.4991 -0.2299  0.7810
  944MOL0     C24541   9.615   4.029  10.307 -0.2006  0.3611 -0.0986
  944MOL0     C24542   9.751   4.032  10.332  0.3572  0.5721  0.0267
  944MOL0     H24543  10.075   4.282  10.254 -0.5080  1.5018  0.8913
  944MOL0     H24544  10.289   4.417  10.279  0.8056  0.2268  2.0068
  944MOL0     H24545  10.433   4.540  10.417  1.2686  1.5382 -1.5405
  944MOL0     H24546  10.498   4.471  10.277 -1.6063  0.0407  0.1656
  944MOL0     H24547  10.646   4.534  10.538  0.8565 -1.0591  0.5349
  944MOL0     H24548  10.660   4.628  10.392  2.1481 -0.0513 -1.3738
  944MOL0     H24549  10.767   4.407  10.293 -2.1696  2.4033 -0.4588
  944MOL0     H24550  10.754   4.327  10.446  0.9415 -0.2676 -0.3927
  944MOL0     H24551  10.897   4.598  10.425  1.7163 -1.9428 -3.7601
  944MOL0     H24552  10.893   4.485  10.567 -1.7168  0.0020 -0.1666
  944MOL0     H24553  11.021   4.453  10.283 -3.9646  0.1431 -0.8070
  944MOL0     H24554  11.049   4.341  10.415  0.6014  0.9333  5.7043
  944MOL0     H24555  11.174   4.518  10.548  2.8486  0.6839 -1.0569
  944MOL0     H24556  11.112   4.629  10.436 -1.6745  0.3973  0.7542
  944MOL0     H24557  11.358   4.573  10.415  1.0755 -3.1218  2.6401
  944MOL0     H24558  11.309   4.410  10.359  4.5616  0.5377  0.6523
  944MOL0     H24559  11.238   4.660  10.202 -0.3642 -1.0810 -2.4033
  944MOL0     H24560  11.211   4.490  10.154  3.0508  0.8227 -2.7165
  944MOL0     H24561  11.484   4.353  10.160 -2.1156  0.5100 -3.0163
  944MOL0     H24562  11.723   4.345  10.000 -2.4446 -0.3569  0.5229
  944MOL0     H24563  11.802   4.464  10.104  1.6296  0.2690 -1.5633
  944MOL0     H24564  11.796   4.631   9.931 -0.4609  0.5028 -1.0207
  944MOL0     H24565  11.716   4.519   9.818 -2.1241 -4.0301  2.3276
  944MOL0     H24566  11.988   4.560   9.801  0.3152 -2.9461 -3.5133
  944MOL0     H24567  11.997   4.463   9.936  0.8683 -0.0620 -1.3838
  944MOL0     H24568  11.836   4.310   9.756  0.6095 -1.0097  0.3866
  944MOL0     H24569  12.001   4.284   9.808 -1.9147  0.3372  3.1137
  944MOL0     H24570  11.762   4.513   9.589  1.5698 -2.9326  0.6902
  944MOL0     H24571  11.724   4.675   9.418 -0.3253 -3.4286 -0.8811
  944MOL0     H24572  12.062   4.768   8.916 -0.0229 -0.4650  2.1927
  944MOL0     H24573  12.089   4.940   8.736  2.1578  0.8671  0.3240
  944MOL0     H24574  12.100   5.360   8.865  0.6366 -0.3279 -0.8180
  944MOL0     H24575  11.932   5.363   8.813  0.6350  1.7348 -0.9070
  944MOL0     H24576  12.142   5.383   8.602 -0.7746 -3.2192  0.5361
  944MOL0     H24577  12.100   5.520   8.702 -2.4280  0.4098  1.3968
  944MOL0     H24578  11.976   5.533   8.505 -3.0072 -0.2959 -0.5218
  944MOL0     H24579  11.845   5.477   8.609 -0.6559 -1.4882  1.9990
  944MOL0     H24580  12.028   5.298   8.445 -0.5884  0.4515 -0.1946
  944MOL0     H24581  11.870   5.250   8.532 -0.9674  1.0282  2.3010
  944MOL0     H24582  11.889   5.440   8.289  2.8134 -1.3096  0.9377
  944MOL0     H24583  11.742   5.384   8.374  1.0896  2.7695 -2.0220
  944MOL0     H24584  11.775   5.153   8.308 -0.7952 -0.9321 -1.0332
  944MOL0     H24585  11.926   5.193   8.223 -0.5412  0.8702 -0.0576
  944MOL0     H24586  11.773   5.351   8.082  0.1693  0.5051  1.0458
  944MOL0     H24587  11.793   5.187   8.045 -0.4730  1.1806 -1.7672
  944MOL0     H24588  11.557   5.323   8.073  0.9862  2.1452  2.4549
  944MOL0     H24589  11.575   5.312   8.236  0.0700 -1.5277  0.1383
  944MOL0     H24590  11.937   5.235   9.020  1.7543  1.6454  0.8558
  944MOL0     H24591  11.940   5.067   9.198  0.5890 -2.7718  2.4299
  944MOL0     H24592  12.132   4.641   9.283 -0.3235  2.0277  0.0532
  944MOL0     H24593  12.163   4.448   9.448 -0.1208 -0.0080  1.2113
  944MOL0     H24594  10.428   4.102  10.540 -0.7963  2.7490  3.5525
  944MOL0     H24595  10.222   3.978  10.518 -2.5322 -1.2159 -3.3877
  944MOL0     H24596   9.850   4.013  10.012  0.6392  2.7948  0.6844
  944MOL0     H24597   9.617   3.974   9.982  0.2802 -1.1420  0.6290
  944MOL0     H24598   9.360   3.892  10.021  2.7186  0.3384 -4.0334
  944MOL0     H24599   9.412   4.048   9.959  0.7327  1.0605  1.3993
  944MOL0     H24600   9.166   3.979   9.951 -1.6549  0.6179  0.3324
  944MOL0     H24601   9.163   4.008  10.126  1.8122 -1.8525  0.5039
  944MOL0     H24602   9.208   4.183   9.875  1.9499 -2.6119  0.3956
  944MOL0     H24603   9.249   4.248  10.043 -1.3394  1.6603 -0.1671
  944MOL0     H24604   8.977   4.127  10.020  0.1515 -0.8267 -1.2156
  944MOL0     H24605   9.051   4.238  10.135  2.0520 -1.3017 -0.7677
  944MOL0     H24606   8.837   4.492   9.912  1.6672  1.6270 -0.3353
  944MOL0     H24607   9.539   4.050  10.382  0.0729  2.9017 -0.4411
  944MOL0     H24608   9.790   4.033  10.433  1.5908 -0.3486 -0.4134
  945MOL0     O24609   8.157   7.032   3.444 -0.5724  0.8681 -0.1226
  945MOL0     C24610   8.224   7.060   3.546 -0.9497 -0.5035 -0.0567
  945MOL0     O24611   8.199   7.168   3.627 -0.2998  0.0155 -0.4130
  945MOL0     C24612   8.096   7.253   3.611  0.4705 -0.4661 -0.2368
  945MOL0     C24613   8.143   7.383   3.615  0.8802 -0.9320  0.4258
  945MOL0     C24614   8.047   7.483   3.628  0.7262 -0.4267  0.5319
  945MOL0     C24615   7.906   7.455   3.636 -0.9094  0.1713  0.8331
  945MOL0     O24616   7.817   7.555   3.652  0.4289 -0.1725  0.3231
  945MOL0     C24617   7.775   7.622   3.525  0.0505 -0.4355 -0.3092
  945MOL0     C24618   7.637   7.574   3.484 -0.1554 -0.0991  0.3905
  945MOL0     C24619   7.534   7.639   3.572  0.2604 -0.2797  0.1579
  945MOL0     C24620   7.396   7.584   3.562 -0.4484 -0.1835 -0.2656
  945MOL0     C24621   7.279   7.658   3.641  0.0569 -0.8500  0.6943
  945MOL0     C24622   7.300   7.646   3.791  0.6615 -0.4547  0.2888
  945MOL0     C24623   7.181   7.708   3.859 -0.6124  0.0902  0.9243
  945MOL0     C24624   7.192   7.737   4.010 -0.3942 -0.0522  0.1638
  945MOL0     N24625   7.057   7.774   4.068  0.5490 -0.0525  1.1382
  945MOL0     C24626   6.971   7.874   4.015  0.4643 -0.8094 -0.5255
  945MOL0     C24627   6.864   7.890   4.105  0.1144 -0.6468  0.9534
  945MOL0     C24628   6.757   7.989   4.091 -0.7231  0.2560 -0.7662
  945MOL0     C24629   6.703   8.067   4.209  0.5541  0.7727 -0.2137
  945MOL0     C24630   6.812   8.116   4.310  0.3804 -0.8271 -1.7114
  945MOL0     C24631   6.758   8.234   4.390  0.0710 -1.0947 -0.3102
  945MOL0     O24632   6.706   8.337   4.307  0.1989 -0.0073 -0.6653
  945MOL0     C24633   6.595   8.403   4.367 -0.1740 -0.4692  0.0315
  945MOL0     C24634   6.484   8.426   4.271  0.6229  0.3043  0.2544
  945MOL0     C24635   6.368   8.489   4.315 -0.2917 -0.5814  0.6371
  945MOL0     C24636   6.351   8.529   4.454  0.3829  1.0192  0.5903
  945MOL0     C24637   6.232   8.628   4.488 -0.6528  0.6376  0.5065
  945MOL0     O24638   6.228   8.677   4.615 -0.3167 -0.0375 -0.0667
  945MOL0     C24639   6.123   8.754   4.665 -0.2487  0.3790 -0.2716
  945MOL0     C24640   6.158   8.875   4.726  0.7233 -0.4274 -0.3709
  945MOL0     C24641   6.059   8.963   4.770  1.0500  0.0819  0.8082
  945MOL0     C24642   5.919   8.937   4.771  0.0435 -0.1796  0.7883
  945MOL0     O24643   5.813   9.015   4.816  0.2648 -0.1300  0.1705
  945MOL0     C24644   5.831   9.156   4.792 -0.1969  0.3529 -0.3285
  945MOL0     C24645   5.732   9.222   4.890 -0.1803 -0.1235  0.6971
  945MOL0     C24646   5.596   9.167   4.881  0.0476  0.1665  0.5129
  945MOL0     C24647   5.525   9.195   4.747  1.0371  0.2792 -1.4958
  945MOL0     C24648   5.506   9.339   4.708 -0.8848  1.0654  0.7350
  945MOL0     C24649   5.403   9.363   4.601  0.5707 -0.5682 -0.7053
  945MOL0     C24650   5.334   9.495   4.612  0.0113  0.4216  0.9257
  945MOL0     C24651   5.305   9.567   4.477 -0.0618 -0.2812  0.0324
  945MOL0    Cl24652   5.147   9.509   4.409 -0.2643  0.3004 -0.6408
  945MOL0     C24653   5.891   8.820   4.713 -0.2099  0.6404  0.7664
  945MOL0     C24654   5.982   8.725   4.656  1.5149 -0.7176 -0.4362
  945MOL0     O24655   6.145   8.647   4.404  0.3308 -0.2199  0.5481
  945MOL0     C24656   6.456   8.507   4.547  1.0477  0.2426  0.7991
  945MOL0     C24657   6.580   8.455   4.499  0.4134  0.9153 -1.3335
  945MOL0     N24658   6.892   7.795   4.208  0.3406 -0.5987  0.7387
  945MOL0     N24659   7.006   7.731   4.184 -0.5377  0.3524  1.3237
  945MOL0     C24660   7.866   7.324   3.621 -0.3876 -0.8608 -0.1883
  945MOL0     C24661   7.959   7.222   3.608 -0.3160  0.5413  0.5089
  945MOL0     C24662   8.355   6.978   3.558  0.2518  0.0833 -0.1364
  945MOL0     C24663   8.396   6.867   3.475 -0.0699  0.1175  0.0942
  945MOL0     C24664   8.510   6.795   3.501 -0.6462  0.0005  0.0004
  945MOL0     C24665   8.596   6.834   3.605  0.2793  0.3513  0.9342
  945MOL0     O24666   8.715   6.773   3.644 -0.3837  0.1167 -0.4332
  945MOL0     C24667   8.745   6.635   3.619 -0.2818 -0.0073  0.1625
  945MOL0     C24668   8.880   6.645   3.543 -0.4225 -0.4406 -0.8385
  945MOL0     C24669   8.951   6.510   3.521  0.0262 -0.5580  0.0245
  945MOL0     C24670   9.096   6.517   3.481 -0.2275  0.2896 -0.3047
  945MOL0     C24671   9.139   6.383   3.422  1.3607 -0.3911  0.6594
  945MOL0     C24672   9.177   6.278   3.366  0.5917  1.3879 -0.4563
  945MOL0     C24673   8.564   6.943   3.682 -0.2197  0.8147  0.3172
  945MOL0     C24674   8.436   7.015   3.660  0.2848  0.4073 -0.0873
  945MOL0     H24675   8.250   7.394   3.626  0.9339 -2.3284  1.5301
  945MOL0     H24676   8.080   7.585   3.644 -0.3888 -0.3016  2.3259
  945MOL0     H24677   7.849   7.602   3.447  0.0495 -2.5767  0.1807
  945MOL0     H24678   7.776   7.732   3.524 -2.5758 -0.2993 -2.3789
  945MOL0     H24679   7.634   7.467   3.507 -0.3088 -0.1177  0.2850
  945MOL0     H24680   7.619   7.593   3.378 -3.9616 -3.1330  0.2449
  945MOL0     H24681   7.528   7.741   3.531  1.2111  0.5754  2.0049
  945MOL0     H24682   7.563   7.636   3.678 -0.9887 -3.6217  0.4961
  945MOL0     H24683   7.360   7.589   3.459  1.7366 -0.4644 -1.0910
  945MOL0     H24684   7.402   7.478   3.588 -1.5023 -0.9605 -2.9172
  945MOL0     H24685   7.180   7.623   3.608  1.2705 -1.9202 -2.1946
  945MOL0     H24686   7.283   7.764   3.615 -2.4426 -1.3544 -2.3972
  945MOL0     H24687   7.396   7.693   3.814  0.9108 -0.4736 -0.6737
  945MOL0     H24688   7.308   7.540   3.819 -0.6222 -0.5284  0.4174
  945MOL0     H24689   7.159   7.801   3.806 -2.3747 -0.6340  0.2863
  945MOL0     H24690   7.096   7.639   3.846 -2.2200  1.7369  2.1884
  945MOL0     H24691   7.260   7.823   4.010 -0.4640  0.0250  1.4383
  945MOL0     H24692   7.232   7.650   4.062  1.0782  1.2232  1.2694
  945MOL0     H24693   6.986   7.930   3.924  0.5906  2.1564  1.1701
  945MOL0     H24694   6.665   7.941   4.057 -1.4971  0.1995  1.2343
  945MOL0     H24695   6.785   8.056   4.010  3.5058 -0.1459  0.1674
  945MOL0     H24696   6.626   8.001   4.251  0.4840 -0.1841 -1.7617
  945MOL0     H24697   6.651   8.157   4.175 -1.5723  0.9015  3.0384
  945MOL0     H24698   6.847   8.046   4.386  1.3976 -0.0699 -1.4599
  945MOL0     H24699   6.905   8.148   4.262 -0.4602  2.0183 -1.6307
  945MOL0     H24700   6.836   8.280   4.450  2.7879 -3.2122 -1.9803
  945MOL0     H24701   6.692   8.177   4.457  0.0131 -1.3308 -0.5645
  945MOL0     H24702   6.502   8.400   4.167  3.0668  0.6543  0.5254
  945MOL0     H24703   6.291   8.513   4.242  1.9888  0.2334 -1.6362
  945MOL0     H24704   6.263   8.904   4.727  0.3621  1.0489 -1.3979
  945MOL0     H24705   6.098   9.059   4.801  0.5173  0.1118  1.4039
  945MOL0     H24706   5.813   9.186   4.688 -0.0243 -1.0664 -0.7901
  945MOL0     H24707   5.929   9.194   4.822  0.4262 -2.4900  1.6417
  945MOL0     H24708   5.730   9.331   4.882 -0.9201  0.0680  2.8656
  945MOL0     H24709   5.776   9.204   4.988 -0.7479  1.1837  1.2147
  945MOL0     H24710   5.533   9.208   4.961  0.2641 -0.4889  1.0350
  945MOL0     H24711   5.581   9.060   4.901 -2.9380  0.3108 -0.5163
  945MOL0     H24712   5.582   9.153   4.663  1.5490  1.9223 -2.0099
  945MOL0     H24713   5.431   9.139   4.751  1.4423 -0.3054  0.1790
  945MOL0     H24714   5.597   9.389   4.675 -2.0814  3.3907  0.7845
  945MOL0     H24715   5.478   9.392   4.799 -2.9612  0.4825  0.4961
  945MOL0     H24716   5.330   9.285   4.623  0.9749 -0.7701 -0.0398
  945MOL0     H24717   5.449   9.346   4.503 -1.5754 -3.8175 -1.3154
  945MOL0     H24718   5.236   9.483   4.658 -0.3452  0.2710  0.1467
  945MOL0     H24719   5.398   9.563   4.669  1.3900  0.5750 -0.7169
  945MOL0     H24720   5.388   9.543   4.410 -1.1573  2.6987 -2.6561
  945MOL0     H24721   5.303   9.673   4.504  1.6052  0.7644 -3.3632
  945MOL0     H24722   5.785   8.794   4.709  0.3519 -2.1863  2.0687
  945MOL0     H24723   5.941   8.635   4.610 -1.7355  2.2763 -4.1628
  945MOL0     H24724   6.446   8.552   4.645  0.9014  4.5719 -1.0041
  945MOL0     H24725   6.664   8.441   4.567 -0.9569 -2.4251 -0.1324
  945MOL0     H24726   7.763   7.289   3.623  0.0137 -2.3386 -2.0352
  945MOL0     H24727   7.926   7.118   3.605  0.7131  0.1509  1.9430
  945MOL0     H24728   8.321   6.851   3.398  0.2854  0.3807 -0.3130
  945MOL0     H24729   8.545   6.713   3.439 -0.5345  0.6094 -0.7630
  945MOL0     H24730   8.661   6.580   3.575 -0.8099 -0.7143  1.9828
  945MOL0     H24731   8.760   6.592   3.718  1.8107  1.4232  0.5221
  945MOL0     H24732   8.852   6.684   3.445 -2.8674 -0.0549 -0.0579
  945MOL0     H24733   8.945   6.720   3.590 -2.9279  0.2037  1.8763
  945MOL0     H24734   8.910   6.469   3.428  0.5594 -1.0089 -0.0217
  945MOL0     H24735   8.936   6.441   3.605  0.2491 -0.5668  0.0599
  945MOL0     H24736   9.137   6.602   3.426 -2.2582  0.5170 -1.5637
  945MOL0     H24737   9.143   6.529   3.579 -2.4669  0.8232  0.7705
  945MOL0     H24738   9.210   6.186   3.322 -1.0412  1.8048 -2.7706
  945MOL0     H24739   8.626   6.959   3.770 -0.0980  0.0263  0.3902
  945MOL0     H24740   8.414   7.095   3.730  2.5348 -0.1038  1.3216
  946MOL0     O24741   3.506   7.421  11.233  0.6158  0.1823  0.6977
  946MOL0     C24742   3.403   7.462  11.172 -0.0115 -0.8350 -0.1811
  946MOL0     O24743   3.374   7.448  11.045  0.0235  0.8391 -0.5742
  946MOL0     C24744   3.452   7.348  10.984 -0.1249 -0.5824 -0.5591
  946MOL0     C24745   3.591   7.356  10.956 -0.2622  1.0978 -0.2363
  946MOL0     C24746   3.664   7.262  10.883 -0.2331 -0.4218  0.9499
  946MOL0     C24747   3.591   7.159  10.822 -0.2871 -0.4643 -0.0392
  946MOL0     O24748   3.650   7.070  10.744 -0.6535 -0.8736  0.1928
  946MOL0     C24749   3.703   7.114  10.619 -0.3112  0.1763  0.5758
  946MOL0     C24750   3.706   6.982  10.535  0.4483  0.6277 -0.0783
  946MOL0     C24751   3.821   6.897  10.580 -0.5244 -0.1124  1.4294
  946MOL0     C24752   3.846   6.762  10.518 -0.3019 -0.6092 -0.5640
  946MOL0     C24753   3.972   6.712  10.575 -0.4249 -0.0979 -1.3634
  946MOL0     C24754   3.987   6.562  10.553 -0.5820  0.7969 -1.0464
  946MOL0     C24755   4.101   6.498  10.632 -0.1953 -0.5857  0.1570
  946MOL0     C24756   4.229   6.548  10.578 -0.6219 -0.5828 -0.2587
  946MOL0     N24757   4.342   6.467  10.621  0.7426  0.0517 -0.0748
  946MOL0     C24758   4.385   6.447  10.757 -0.0945  0.9766 -0.1736
  946MOL0     C24759   4.433   6.320  10.759 -0.0899 -0.0794 -0.3314
  946MOL0     C24760   4.500   6.273  10.881 -0.4122  0.6576  0.0160
  946MOL0     C24761   4.586   6.144  10.872 -0.2008 -0.4861  0.3418
  946MOL0     C24762   4.733   6.165  10.846  0.7796 -0.2422  1.1735
  946MOL0     C24763   4.828   6.040  10.843  0.6389 -0.6498  0.0273
  946MOL0     O24764   4.961   6.091  10.854  0.5017 -0.8631 -0.2752
  946MOL0     C24765   5.068   6.005  10.866 -0.5962 -0.1009 -0.7415
  946MOL0     C24766   5.050   5.864  10.894  0.5037 -0.7224  0.6096
  946MOL0     C24767   5.153   5.775  10.877  0.1053  0.1729 -0.3971
  946MOL0     C24768   5.283   5.831  10.858  0.0199  0.0685  0.0934
  946MOL0     C24769   5.391   5.735  10.849 -0.9556  0.4416 -0.0270
  946MOL0     O24770   5.506   5.779  10.807  0.4652 -0.8775 -0.0615
  946MOL0     C24771   5.610   5.699  10.769 -0.8373  0.7345 -0.3021
  946MOL0     C24772   5.687   5.638  10.857  0.7882 -0.3742 -0.1454
  946MOL0     C24773   5.796   5.564  10.833 -0.6020  0.0135  0.3878
  946MOL0     C24774   5.837   5.554  10.697  0.3400  0.5805  0.4720
  946MOL0     O24775   5.964   5.516  10.669  0.3400  0.0109  0.0771
  946MOL0     C24776   5.985   5.446  10.545  0.7068 -0.2538  1.0827
  946MOL0     C24777   6.131   5.415  10.529  0.5253  0.1510  0.4270
  946MOL0     C24778   6.163   5.424  10.380  0.8893 -0.5026  0.2706
  946MOL0     C24779   6.296   5.383  10.329 -0.7086 -1.2256 -0.2434
  946MOL0     C24780   6.301   5.229  10.320 -0.1941 -0.3134 -0.1875
  946MOL0     C24781   6.430   5.169  10.274  0.0876 -0.3356  0.2027
  946MOL0     C24782   6.557   5.245  10.313 -0.7027 -0.4404 -0.2100
  946MOL0     C24783   6.683   5.192  10.256  0.3780  0.0085 -0.1108
  946MOL0    Cl24784   6.677   5.220  10.077 -0.1882 -0.0076  0.4829
  946MOL0     C24785   5.751   5.612  10.595  0.4011  0.0532  0.1881
  946MOL0     C24786   5.637   5.683  10.633  0.0954 -0.1699 -0.4021
  946MOL0     O24787   5.366   5.617  10.861  0.0574  0.2285  0.7271
  946MOL0     C24788   5.304   5.971  10.850 -0.8072  0.4687 -0.4978
  946MOL0     C24789   5.194   6.056  10.849  0.5201 -0.2320  0.1505
  946MOL0     N24790   4.435   6.279  10.633  0.0232 -0.2132  0.1430
  946MOL0     N24791   4.392   6.365  10.550  0.0050 -0.5184  0.6640
  946MOL0     C24792   3.451   7.151  10.828  0.3893 -0.6484  0.7226
  946MOL0     C24793   3.385   7.247  10.909 -0.5819  0.2126 -0.2395
  946MOL0     C24794   3.312   7.544  11.253 -0.7422  0.7470  0.3254
  946MOL0     C24795   3.344   7.599  11.378  0.2293 -0.6929  0.6477
  946MOL0     C24796   3.255   7.669  11.455 -0.2022 -0.1510  0.3629
  946MOL0     C24797   3.120   7.667  11.417 -0.5005 -0.1829  0.9497
  946MOL0     O24798   3.018   7.717  11.486 -0.3948  0.6483  0.3414
  946MOL0     C24799   3.039   7.809  11.592 -0.0006 -0.2032 -0.8308
  946MOL0     C24800   2.904   7.854  11.654 -0.4151  0.0386  0.3547
  946MOL0     C24801   2.920   7.982  11.745 -0.3695  0.5377  0.0604
  946MOL0     C24802   2.788   8.017  11.830 -0.5069  0.3601  0.5542
  946MOL0     C24803   2.666   8.015  11.742 -0.0842  0.3514  0.6749
  946MOL0     C24804   2.566   8.012  11.667 -0.2551  0.1665 -0.1845
  946MOL0     C24805   3.087   7.608  11.295 -0.1585 -0.2718 -0.6256
  946MOL0     C24806   3.177   7.551  11.210 -0.3788  0.0632  0.0075
  946MOL0     H24807   3.646   7.442  10.993  2.1425 -1.9491  3.9637
  946MOL0     H24808   3.771   7.271  10.870 -0.2305 -0.0689  1.2243
  946MOL0     H24809   3.805   7.152  10.620  0.6111 -1.9374 -2.0194
  946MOL0     H24810   3.631   7.180  10.569  0.6585  1.2156  0.5111
  946MOL0     H24811   3.715   7.019  10.432  2.9097  0.1460 -0.0907
  946MOL0     H24812   3.606   6.936  10.536 -0.4869  2.5461  1.0272
  946MOL0     H24813   3.812   6.869  10.685  1.5448 -0.3006  1.6076
  946MOL0     H24814   3.914   6.955  10.583  0.0526 -0.9861  0.9238
  946MOL0     H24815   3.762   6.701  10.553  0.1622 -0.4772  0.8416
  946MOL0     H24816   3.855   6.766  10.409 -2.7053 -0.8399 -0.8147
  946MOL0     H24817   3.993   6.746  10.677  2.9233  2.6503 -2.7594
  946MOL0     H24818   4.063   6.756  10.532  2.8539 -1.4960  3.3458
  946MOL0     H24819   4.003   6.557  10.444  0.6730  2.5575 -0.9891
  946MOL0     H24820   3.891   6.517  10.579 -0.4562  0.8678 -0.4472
  946MOL0     H24821   4.102   6.522  10.739  4.2490  0.7101  0.0297
  946MOL0     H24822   4.100   6.389  10.619  0.5436 -0.7272  1.1793
  946MOL0     H24823   4.242   6.655  10.601  1.3211 -1.1340  1.4975
  946MOL0     H24824   4.226   6.523  10.471 -0.2296  0.7355 -0.5963
  946MOL0     H24825   4.367   6.509  10.844 -2.9070  1.4163 -0.9662
  946MOL0     H24826   4.417   6.260  10.951  0.6742  0.6040  1.3389
  946MOL0     H24827   4.558   6.352  10.929  0.4359 -1.1551  2.1379
  946MOL0     H24828   4.543   6.073  10.801 -1.2072  0.5939 -0.1581
  946MOL0     H24829   4.574   6.085  10.963  2.3740 -1.6861 -0.0136
  946MOL0     H24830   4.731   6.215  10.748 -1.5026 -1.2074  0.6553
  946MOL0     H24831   4.777   6.217  10.931  2.4686 -1.5357  1.1292
  946MOL0     H24832   4.807   5.984  10.752 -0.9052 -1.4433  0.8242
  946MOL0     H24833   4.797   5.982  10.931  1.3531 -2.0320 -0.5937
  946MOL0     H24834   4.951   5.820  10.911  0.6356 -0.4469  2.1727
  946MOL0     H24835   5.128   5.670  10.892 -0.6044  0.6301  2.0125
  946MOL0     H24836   5.649   5.643  10.959 -1.0571 -1.4169 -0.7468
  946MOL0     H24837   5.854   5.518  10.911  1.0807 -0.8932 -1.3065
  946MOL0     H24838   5.960   5.513  10.462  4.7595  0.8939  0.5612
  946MOL0     H24839   5.928   5.353  10.540 -1.8477  1.2751 -0.7190
  946MOL0     H24840   6.157   5.321  10.578 -0.8745 -0.6963 -0.3979
  946MOL0     H24841   6.183   5.499  10.577  0.8712  0.6406 -0.7594
  946MOL0     H24842   6.165   5.529  10.348 -0.4353 -1.5388 -3.7838
  946MOL0     H24843   6.087   5.376  10.318  2.2692  0.4243 -2.3146
  946MOL0     H24844   6.311   5.440  10.237  0.2289 -0.8148  0.1453
  946MOL0     H24845   6.379   5.419  10.391  2.0739 -0.5917 -3.9658
  946MOL0     H24846   6.221   5.192  10.255 -0.8847 -0.1048  0.5308
  946MOL0     H24847   6.281   5.190  10.420  0.1319  1.4890  0.6220
  946MOL0     H24848   6.430   5.149  10.166 -3.4455 -0.8177  0.1911
  946MOL0     H24849   6.430   5.070  10.321 -1.6097 -1.0071 -1.0990
  946MOL0     H24850   6.553   5.352  10.294 -3.4944 -0.5385 -0.5207
  946MOL0     H24851   6.547   5.235  10.422 -0.1344  1.4352  0.0454
  946MOL0     H24852   6.684   5.084  10.274 -1.1287  0.2237  1.6375
  946MOL0     H24853   6.767   5.247  10.299  2.4661 -2.3588 -0.9503
  946MOL0     H24854   5.778   5.601  10.491  4.0296 -2.5311  1.1786
  946MOL0     H24855   5.569   5.731  10.564  0.5155 -0.1423 -0.8002
  946MOL0     H24856   5.406   6.007  10.837  0.0047 -1.3681  0.4185
  946MOL0     H24857   5.209   6.158  10.816  1.1543  0.2652  1.9077
  946MOL0     H24858   3.403   7.069  10.776  2.5548 -0.7266 -1.2936
  946MOL0     H24859   3.277   7.249  10.902 -0.5954  1.4992  0.1426
  946MOL0     H24860   3.445   7.593  11.417 -0.0727  0.2808  1.6527
  946MOL0     H24861   3.284   7.732  11.537 -1.2719  2.0228 -0.8487
  946MOL0     H24862   3.081   7.896  11.541  1.7750  1.6496  3.3205
  946MOL0     H24863   3.113   7.779  11.667 -1.8573 -2.6226  0.1637
  946MOL0     H24864   2.837   7.880  11.572  1.0141 -0.0429 -0.9062
  946MOL0     H24865   2.841   7.783  11.708 -2.2714  0.5787 -1.0220
  946MOL0     H24866   2.943   8.064  11.676  0.5219  0.3707  0.1454
  946MOL0     H24867   3.012   7.969  11.804  0.1874 -2.0825 -1.2219
  946MOL0     H24868   2.784   7.940  11.907 -0.9265 -2.1923 -1.8395
  946MOL0     H24869   2.811   8.113  11.878 -3.2648  1.4093 -0.0441
  946MOL0     H24870   2.477   8.005  11.609  0.6675  0.5486 -1.6943
  946MOL0     H24871   2.982   7.610  11.270  0.0688 -1.3247 -1.7711
  946MOL0     H24872   3.132   7.514  11.119 -1.7048  0.6997  0.3847
  947MOL0     O24873   0.299   3.380   1.717 -0.7006 -0.7875 -0.3928
  947MOL0     C24874   0.298   3.398   1.592  0.3393 -0.1679  0.3694
  947MOL0     O24875   0.185   3.415   1.518  0.1701 -0.0191  0.1632
  947MOL0     C24876   0.069   3.411   1.585  0.2460  0.5374  0.5079
  947MOL0     C24877  -0.016   3.306   1.569  0.2105 -0.0540 -0.5432
  947MOL0     C24878  -0.138   3.303   1.639  0.7253 -0.8218  0.4106
  947MOL0     C24879  -0.170   3.406   1.732  0.0999  0.1248  0.9796
  947MOL0     O24880  -0.279   3.394   1.820 -0.3972 -0.8155  0.0573
  947MOL0     C24881  -0.403   3.339   1.772 -0.4653  0.5695 -0.8216
  947MOL0     C24882  -0.518   3.388   1.862  0.0572  0.3963  0.8485
  947MOL0     C24883  -0.503   3.361   2.011  0.1292 -0.3227 -0.7843
  947MOL0     C24884  -0.641   3.362   2.079  0.2339  0.7023  0.4988
  947MOL0     C24885  -0.623   3.359   2.233  0.4246  0.0889  0.4785
  947MOL0     C24886  -0.754   3.364   2.307 -0.4085  0.2771 -0.7530
  947MOL0     C24887  -0.822   3.507   2.304 -0.2040  0.3930 -0.4360
  947MOL0     C24888  -0.753   3.610   2.398 -1.0322 -0.7705  0.1062
  947MOL0     N24889  -0.848   3.725   2.396  0.3757 -0.5028  0.6737
  947MOL0     C24890  -0.839   3.838   2.310 -0.3330 -0.0686 -0.2085
  947MOL0     C24891  -0.960   3.910   2.318  0.5150  0.4944 -0.0503
  947MOL0     C24892  -0.988   4.041   2.251 -0.1673 -0.1741 -0.5898
  947MOL0     C24893  -1.138   4.055   2.254 -0.5498  0.0834  0.5593
  947MOL0     C24894  -1.179   4.192   2.204 -0.0675 -0.1712  0.1388
  947MOL0     C24895  -1.325   4.214   2.186 -0.5633  0.3800 -0.0589
  947MOL0     O24896  -1.393   4.194   2.305 -0.3711 -0.5007 -1.4895
  947MOL0     C24897  -1.525   4.225   2.318  0.0878  0.4142  0.1735
  947MOL0     C24898  -1.587   4.194   2.436 -0.3403 -0.2900  0.6989
  947MOL0     C24899  -1.719   4.227   2.459 -0.0705  0.2272 -0.8298
  947MOL0     C24900  -1.799   4.279   2.352  0.8176  0.1987 -0.2859
  947MOL0     C24901  -1.933   4.321   2.374  0.3580 -0.0385 -0.8734
  947MOL0     O24902  -2.000   4.293   2.492  0.2054  0.8928 -0.4100
  947MOL0     C24903  -2.119   4.347   2.506  0.5295 -0.4585  0.1361
  947MOL0     C24904  -2.127   4.475   2.549 -0.4666 -1.3014  0.2216
  947MOL0     C24905  -2.248   4.541   2.551 -0.6435  0.1762 -0.1709
  947MOL0     C24906  -2.369   4.476   2.518 -0.5458 -0.0520 -0.0231
  947MOL0     O24907  -2.499   4.524   2.526 -0.3335  0.2401  0.6696
  947MOL0     C24908  -2.523   4.641   2.607  0.7756 -0.2938 -0.3827
  947MOL0     C24909  -2.548   4.593   2.753 -0.5951  0.0424 -0.8526
  947MOL0     C24910  -2.536   4.710   2.857 -0.1362  0.0695 -0.7039
  947MOL0     C24911  -2.607   4.836   2.824  0.0961  1.1258 -0.0089
  947MOL0     C24912  -2.618   4.923   2.944  0.0093 -0.1228  0.5741
  947MOL0     C24913  -2.696   5.053   2.916 -0.1594  0.0330 -0.6340
  947MOL0     C24914  -2.707   5.145   3.045  0.3900 -0.5270 -0.2140
  947MOL0     C24915  -2.577   5.172   3.133  0.1869 -0.3556 -0.2834
  947MOL0    Cl24916  -2.637   5.273   3.268  0.6663 -0.0544 -0.0719
  947MOL0     C24917  -2.355   4.339   2.483  0.6013 -0.1998  0.2313
  947MOL0     C24918  -2.240   4.273   2.475  0.6555 -0.5469 -0.1121
  947MOL0     O24919  -1.971   4.394   2.281 -0.0610  0.7366 -0.4898
  947MOL0     C24920  -1.726   4.305   2.228 -0.0448  0.4081 -0.7050
  947MOL0     C24921  -1.593   4.286   2.214 -0.7050  0.0770 -0.4669
  947MOL0     N24922  -1.022   3.856   2.431 -0.2979 -0.2887  0.5207
  947MOL0     N24923  -0.972   3.737   2.457  0.4332 -0.2820  0.3145
  947MOL0     C24924  -0.083   3.512   1.743  0.3995 -0.5249 -0.1684
  947MOL0     C24925   0.035   3.504   1.681  0.3851  0.2195  0.5282
  947MOL0     C24926   0.427   3.385   1.522  0.6344  0.0557 -1.1464
  947MOL0     C24927   0.541   3.364   1.610 -0.0392  0.8369  0.5631
  947MOL0     C24928   0.673   3.368   1.557 -0.2333 -0.7219 -0.0289
  947MOL0     C24929   0.694   3.381   1.420  0.6905 -0.4186 -0.5118
  947MOL0     O24930   0.810   3.406   1.358 -0.7348 -0.0987  0.2208
  947MOL0     C24931   0.926   3.464   1.438 -0.1546  0.1917 -0.5760
  947MOL0     C24932   1.054   3.448   1.358  0.2441  0.1928 -0.1475
  947MOL0     C24933   1.054   3.541   1.239  0.1322 -0.6027  0.0655
  947MOL0     C24934   1.177   3.544   1.140  0.5872  0.0476  0.5863
  947MOL0     C24935   1.176   3.432   1.040 -0.4073  0.3822 -0.3177
  947MOL0     C24936   1.167   3.348   0.952 -0.4995 -0.9668 -0.8718
  947MOL0     C24937   0.583   3.406   1.343 -0.0078  0.6659 -0.0071
  947MOL0     C24938   0.449   3.405   1.384 -0.2733  0.7767 -0.5179
  947MOL0     H24939   0.015   3.226   1.503  3.4272  0.1488  0.5536
  947MOL0     H24940  -0.205   3.218   1.628  1.5310 -1.5983  1.3022
  947MOL0     H24941  -0.385   3.231   1.773  1.6733  0.8655  0.0929
  947MOL0     H24942  -0.410   3.356   1.665 -0.6860  0.6689 -0.7912
  947MOL0     H24943  -0.616   3.350   1.830  0.0782  0.5227  0.6325
  947MOL0     H24944  -0.526   3.497   1.852  0.6772  0.4123  0.5066
  947MOL0     H24945  -0.442   3.440   2.056  1.1646 -1.7237  0.4084
  947MOL0     H24946  -0.452   3.267   2.038 -0.9295 -1.2322 -1.8243
  947MOL0     H24947  -0.696   3.453   2.055 -0.9091 -0.5532 -2.1108
  947MOL0     H24948  -0.692   3.275   2.035  1.8520 -0.7449  1.3728
  947MOL0     H24949  -0.563   3.444   2.267 -0.6892  0.4862  1.4999
  947MOL0     H24950  -0.566   3.275   2.275  0.5027  0.5473  1.3044
  947MOL0     H24951  -0.739   3.332   2.410 -3.4653 -4.5400 -1.5107
  947MOL0     H24952  -0.823   3.288   2.269 -0.2845  0.2763 -0.9778
  947MOL0     H24953  -0.832   3.541   2.201 -1.2010  0.2973 -0.3784
  947MOL0     H24954  -0.923   3.483   2.337 -0.3840  0.4824 -0.9177
  947MOL0     H24955  -0.655   3.635   2.355 -0.4131 -2.1488  0.6330
  947MOL0     H24956  -0.733   3.572   2.499 -0.7807 -0.4005  0.1986
  947MOL0     H24957  -0.755   3.860   2.243 -0.7465  1.1915 -0.3447
  947MOL0     H24958  -0.942   4.050   2.152  1.7258 -1.3945  0.1286
  947MOL0     H24959  -0.942   4.112   2.319 -1.0225  0.1865 -0.3744
  947MOL0     H24960  -1.179   4.064   2.355 -4.1240  0.3824 -0.7551
  947MOL0     H24961  -1.176   3.967   2.200 -0.6704  1.7532 -2.2928
  947MOL0     H24962  -1.150   4.263   2.282 -3.3228  0.5038  0.8632
  947MOL0     H24963  -1.139   4.224   2.107 -1.6558  1.8444  0.0967
  947MOL0     H24964  -1.358   4.137   2.116  2.3758 -2.0476  1.0223
  947MOL0     H24965  -1.341   4.309   2.134  4.2332  0.9565 -0.9730
  947MOL0     H24966  -1.523   4.164   2.518  0.7293  2.0806  0.8077
  947MOL0     H24967  -1.766   4.217   2.557  4.0981 -3.2979  1.1907
  947MOL0     H24968  -2.032   4.515   2.582  0.7065 -2.5475 -1.5030
  947MOL0     H24969  -2.267   4.645   2.576 -1.0585  0.2230 -0.6445
  947MOL0     H24970  -2.613   4.696   2.579 -0.5093 -2.6158 -1.0796
  947MOL0     H24971  -2.448   4.720   2.601 -1.7914  2.2527 -0.9468
  947MOL0     H24972  -2.473   4.519   2.784  1.0171  1.4551 -1.2155
  947MOL0     H24973  -2.642   4.537   2.763 -0.5313  0.3389  2.1637
  947MOL0     H24974  -2.431   4.737   2.860 -0.2749  0.7366  2.9783
  947MOL0     H24975  -2.565   4.670   2.955  2.4201  0.3692  0.2316
  947MOL0     H24976  -2.546   4.884   2.747  0.3632 -0.0147 -0.5305
  947MOL0     H24977  -2.706   4.809   2.785  0.2448 -2.4008  1.6387
  947MOL0     H24978  -2.514   4.932   2.974  0.1793  0.3032 -0.1153
  947MOL0     H24979  -2.683   4.879   3.021 -1.2171 -1.9591 -1.3731
  947MOL0     H24980  -2.797   5.037   2.876 -0.0358 -3.3680  0.1216
  947MOL0     H24981  -2.650   5.103   2.830  3.1875 -1.5033  0.1275
  947MOL0     H24982  -2.743   5.240   3.005  0.8222 -0.5472 -0.6578
  947MOL0     H24983  -2.780   5.104   3.116 -0.0145  1.2654  0.4724
  947MOL0     H24984  -2.502   5.233   3.081  1.1294 -0.5373  0.8174
  947MOL0     H24985  -2.543   5.074   3.168 -2.1533 -1.7338 -1.6162
  947MOL0     H24986  -2.444   4.284   2.454  0.0830  0.1585  1.0894
  947MOL0     H24987  -2.220   4.175   2.432  4.5683  0.1449 -0.2874
  947MOL0     H24988  -1.773   4.347   2.140  0.5036  1.1547 -0.6464
  947MOL0     H24989  -1.550   4.350   2.138 -1.5559  1.5704  0.2501
  947MOL0     H24990  -0.103   3.586   1.820 -1.2223  0.6813 -1.6752
  947MOL0     H24991   0.100   3.590   1.698  2.4346 -1.3014  0.7033
  947MOL0     H24992   0.533   3.349   1.717 -0.5308 -2.9515  0.1530
  947MOL0     H24993   0.761   3.353   1.620 -0.1446  1.8118  0.5604
  947MOL0     H24994   0.942   3.400   1.526 -0.0965  2.1816  0.9408
  947MOL0     H24995   0.898   3.566   1.468  1.1087  0.1558  0.8355
  947MOL0     H24996   1.142   3.469   1.418  0.2213 -0.7012  0.2173
  947MOL0     H24997   1.062   3.343   1.327 -0.2203 -0.4110  1.6825
  947MOL0     H24998   1.043   3.640   1.284 -1.8470 -0.7195 -0.0563
  947MOL0     H24999   0.959   3.530   1.185 -0.3847  3.1180 -0.0402
  947MOL0     H25000   1.179   3.641   1.089  4.0538  1.5360  3.1088
  947MOL0     H25001   1.264   3.554   1.207  0.2710  1.2326  0.8532
  947MOL0     H25002   1.156   3.276   0.874  0.5010  0.3401 -2.2772
  947MOL0     H25003   0.601   3.420   1.237 -0.6693 -4.1945 -1.0020
  947MOL0     H25004   0.362   3.426   1.322 -2.1195  0.4020  1.7848
  948MOL0     O25005   6.707   9.885   8.821 -0.1886  0.0222  0.6799
  948MOL0     C25006   6.765   9.909   8.928 -0.0969  0.7209 -0.5091
  948MOL0     O25007   6.712   9.977   9.027 -0.4016  0.1595  0.0536
  948MOL0     C25008   6.595  10.039   9.007 -0.7522  0.1277  0.1431
  948MOL0     C25009   6.488  10.010   9.089 -0.5039  0.0537  0.3961
  948MOL0     C25010   6.364  10.069   9.070  0.5581 -0.0129  0.0161
  948MOL0     C25011   6.348  10.172   8.970 -0.4857  0.2586 -0.3985
  948MOL0     O25012   6.226  10.219   8.958 -0.5130 -0.9943  0.7334
  948MOL0     C25013   6.206  10.353   8.906 -0.7363 -0.0668 -0.7371
  948MOL0     C25014   6.048  10.384   8.891  0.0841 -0.4617 -0.4129
  948MOL0     C25015   6.020  10.531   8.887  0.1361 -0.1319 -0.1365
  948MOL0     C25016   5.860  10.554   8.859 -0.2126 -0.7093  0.4378
  948MOL0     C25017   5.823  10.692   8.804 -0.5447  0.0391  0.5478
  948MOL0     C25018   5.674  10.727   8.836 -0.4846 -0.5057  0.4314
  948MOL0     C25019   5.658  10.876   8.799  0.0421  0.0536 -0.8106
  948MOL0     C25020   5.547  10.905   8.705 -0.0732 -0.2644 -0.3106
  948MOL0     N25021   5.513  11.049   8.729  0.0332 -0.1306  1.0149
  948MOL0     C25022   5.560  11.154   8.651 -1.0592 -0.0754 -0.7380
  948MOL0     C25023   5.493  11.258   8.701 -0.2350 -0.0584 -0.2069
  948MOL0     C25024   5.511  11.397   8.646 -0.0485 -0.1018  0.7638
  948MOL0     C25025   5.376  11.447   8.587 -0.1225  0.6085  0.3201
  948MOL0     C25026   5.315  11.352   8.483 -0.8200 -0.0797 -0.0711
  948MOL0     C25027   5.217  11.428   8.402 -0.8192  0.0025  0.1589
  948MOL0     O25028   5.116  11.479   8.490  0.5118  0.0791  0.0767
  948MOL0     C25029   5.039  11.579   8.435  0.8081 -0.3783 -0.8191
  948MOL0     C25030   5.052  11.638   8.306  0.7179  1.9113  0.9779
  948MOL0     C25031   4.955  11.726   8.261  0.9926  0.1281  0.2138
  948MOL0     C25032   4.886  11.807   8.356 -0.0977  1.1715 -0.8616
  948MOL0     C25033   4.807  11.921   8.317  0.8861 -0.1968  0.4617
  948MOL0     O25034   4.817  11.963   8.186 -0.9824 -1.1787  0.4258
  948MOL0     C25035   4.749  12.074   8.150 -0.2935 -0.6510 -0.4946
  948MOL0     C25036   4.793  12.171   8.061 -0.0689 -0.6814  1.0673
  948MOL0     C25037   4.721  12.282   8.024  0.7284  0.1597 -0.5697
  948MOL0     C25038   4.589  12.305   8.065 -0.3519 -0.0493 -0.6553
  948MOL0     O25039   4.525  12.413   8.017  0.4555  0.5552 -0.1014
  948MOL0     C25040   4.420  12.472   8.093 -0.1793  1.3349 -0.0073
  948MOL0     C25041   4.360  12.587   8.024  0.4586  0.0154  0.4429
  948MOL0     C25042   4.431  12.721   8.041  0.8694  0.2135  0.0484
  948MOL0     C25043   4.567  12.715   7.970 -0.0399  0.5930 -1.0432
  948MOL0     C25044   4.648  12.840   7.993  0.2972  0.1484 -0.2925
  948MOL0     C25045   4.586  12.959   7.919 -0.0881  0.1384 -0.0711
  948MOL0     C25046   4.662  13.081   7.942  0.1910  0.2229 -0.0174
  948MOL0     C25047   4.581  13.214   7.939  0.2962  0.1865  0.5698
  948MOL0    Cl25048   4.486  13.232   8.097  0.0287 -0.4573 -0.6321
  948MOL0     C25049   4.538  12.203   8.146 -0.3476  0.0790 -0.3641
  948MOL0     C25050   4.619  12.093   8.185  1.2122  0.2338  0.6494
  948MOL0     O25051   4.743  11.978   8.401 -0.1026 -0.1432 -0.2436
  948MOL0     C25052   4.890  11.765   8.492  0.0446  1.0291  0.1795
  948MOL0     C25053   4.963  11.653   8.530 -0.3248 -0.0650 -0.2347
  948MOL0     N25054   5.427  11.220   8.820 -1.1491 -0.1009  0.5468
  948MOL0     N25055   5.431  11.098   8.822 -0.3445  0.2333 -0.4244
  948MOL0     C25056   6.461  10.209   8.894 -0.0031  0.2375 -0.5308
  948MOL0     C25057   6.586  10.143   8.907  0.1021 -0.3922 -0.1442
  948MOL0     C25058   6.904   9.865   8.928  0.3330  0.7938  0.4332
  948MOL0     C25059   6.982   9.894   9.038  0.4697 -0.1738 -0.2989
  948MOL0     C25060   7.103   9.824   9.057 -0.6359 -0.0196  1.1435
  948MOL0     C25061   7.160   9.750   8.959 -0.4706 -0.3306 -0.5131
  948MOL0     O25062   7.275   9.684   8.970  0.1503  0.5527  0.1175
  948MOL0     C25063   7.308   9.567   8.892 -1.3832  0.4083  0.7497
  948MOL0     C25064   7.419   9.613   8.803 -0.5643  0.7826  0.3002
  948MOL0     C25065   7.531   9.686   8.876 -0.5539  0.0625 -0.4706
  948MOL0     C25066   7.600   9.608   8.980 -1.0031 -0.0374 -1.5445
  948MOL0     C25067   7.749   9.627   8.983  0.1077  0.5226  0.4010
  948MOL0     C25068   7.871   9.643   8.995  0.0912  0.6437  0.6575
  948MOL0     C25069   7.100   9.749   8.834 -0.3082 -0.2546 -0.5829
  948MOL0     C25070   6.970   9.793   8.823 -0.6410  0.6703  0.6781
  948MOL0     H25071   6.502   9.932   9.163 -0.8631  2.7829  3.5725
  948MOL0     H25072   6.282  10.046   9.138 -0.6400 -0.9986 -1.6878
  948MOL0     H25073   6.256  10.378   8.811 -0.2628 -0.4082 -0.5789
  948MOL0     H25074   6.238  10.425   8.982 -3.0167  0.0479  0.2142
  948MOL0     H25075   6.003  10.342   8.982 -0.9357 -0.5755 -0.9563
  948MOL0     H25076   6.005  10.333   8.805 -0.0481  1.4406 -1.5205
  948MOL0     H25077   6.085  10.575   8.810 -0.9597 -0.0201 -1.0209
  948MOL0     H25078   6.039  10.581   8.982 -0.5772 -1.7814  0.9229
  948MOL0     H25079   5.829  10.465   8.803 -2.0715 -0.2371  0.6656
  948MOL0     H25080   5.815  10.545   8.958 -0.0775  0.0265  0.5721
  948MOL0     H25081   5.846  10.691   8.697  2.2306  0.6353  1.0662
  948MOL0     H25082   5.896  10.756   8.855  0.1030 -0.5739  0.4157
  948MOL0     H25083   5.650  10.706   8.941 -1.9492 -3.4832 -0.3901
  948MOL0     H25084   5.614  10.666   8.767 -2.6564  1.5654  0.3551
  948MOL0     H25085   5.654  10.929   8.895 -0.0135  2.0352 -1.8682
  948MOL0     H25086   5.749  10.902   8.744  1.2536 -1.7239  0.2216
  948MOL0     H25087   5.470  10.828   8.720 -0.7384  0.3409 -0.5605
  948MOL0     H25088   5.587  10.894   8.604 -1.2420  2.6462 -1.1865
  948MOL0     H25089   5.609  11.160   8.555  1.3127  0.8466  0.4409
  948MOL0     H25090   5.576  11.397   8.558  0.0194  0.7958  0.8111
  948MOL0     H25091   5.536  11.463   8.729 -1.6995 -0.2051  1.3803
  948MOL0     H25092   5.408  11.542   8.542  1.2983 -1.0407 -2.3913
  948MOL0     H25093   5.302  11.465   8.665  1.0128 -0.2523  1.6344
  948MOL0     H25094   5.397  11.315   8.422 -1.0042  0.6569 -0.7937
  948MOL0     H25095   5.252  11.277   8.532 -1.1743  0.4319  0.2694
  948MOL0     H25096   5.180  11.371   8.316  0.1782  1.0979 -1.0264
  948MOL0     H25097   5.274  11.513   8.363  0.3547 -1.4135 -1.3617
  948MOL0     H25098   5.110  11.596   8.224  0.8913  1.7159  1.1977
  948MOL0     H25099   4.946  11.760   8.158 -2.5454 -0.8455  0.0596
  948MOL0     H25100   4.887  12.162   8.008 -0.0667  0.5202  0.8214
  948MOL0     H25101   4.769  12.345   7.949 -1.3564 -1.1829 -3.2097
  948MOL0     H25102   4.467  12.512   8.182  2.0054 -0.2870 -0.3372
  948MOL0     H25103   4.348  12.390   8.104  2.4524 -1.4680 -1.9814
  948MOL0     H25104   4.258  12.607   8.058 -0.0024 -0.1911 -0.7739
  948MOL0     H25105   4.367  12.573   7.916 -0.4334  0.2859  0.3342
  948MOL0     H25106   4.436  12.743   8.148  3.8706 -0.9511  0.2622
  948MOL0     H25107   4.375  12.803   7.997 -1.7457  1.1140  4.5049
  948MOL0     H25108   4.630  12.636   8.011 -2.6934 -1.6244 -0.9643
  948MOL0     H25109   4.554  12.700   7.863 -1.2682 -1.7916 -0.6389
  948MOL0     H25110   4.742  12.834   7.938  0.4304 -1.1624  0.0531
  948MOL0     H25111   4.664  12.853   8.100  2.8663  0.8305 -0.6893
  948MOL0     H25112   4.483  12.971   7.955 -0.6090 -2.5307 -0.4652
  948MOL0     H25113   4.570  12.948   7.812 -3.7982  1.5938  0.1853
  948MOL0     H25114   4.715  13.073   8.038 -0.3788 -0.4905  0.2484
  948MOL0     H25115   4.738  13.099   7.865 -1.0329 -1.7281 -1.8004
  948MOL0     H25116   4.515  13.219   7.852 -2.1533 -0.4969  2.2897
  948MOL0     H25117   4.653  13.297   7.940  3.6540 -2.3733 -2.3453
  948MOL0     H25118   4.430  12.195   8.146 -0.3087 -1.5241  2.4135
  948MOL0     H25119   4.558  12.017   8.233  0.1037  0.3102 -0.5882
  948MOL0     H25120   4.841  11.815   8.575  1.2926 -0.9547  2.2220
  948MOL0     H25121   4.972  11.616   8.632  0.4605 -2.0960 -0.9936
  948MOL0     H25122   6.438  10.286   8.821 -2.1898  1.1646  1.0390
  948MOL0     H25123   6.665  10.155   8.833 -0.7152 -0.9249 -1.1418
  948MOL0     H25124   6.938   9.955   9.116  3.9321  1.3076  0.6839
  948MOL0     H25125   7.162   9.825   9.148 -1.0540  1.1827  1.4258
  948MOL0     H25126   7.224   9.524   8.836 -1.5742  0.2147  1.1833
  948MOL0     H25127   7.346   9.487   8.956  1.0283 -0.8065 -1.9668
  948MOL0     H25128   7.474   9.528   8.763  0.1499  0.1940  2.3798
  948MOL0     H25129   7.371   9.674   8.726 -1.3848 -0.3397 -0.1101
  948MOL0     H25130   7.495   9.777   8.926  1.7275 -0.5303  2.5771
  948MOL0     H25131   7.603   9.710   8.797  1.7294 -1.9066  0.8627
  948MOL0     H25132   7.565   9.657   9.071 -0.3737  2.5501 -2.6209
  948MOL0     H25133   7.579   9.501   8.985  1.6095 -0.5353  1.1360
  948MOL0     H25134   7.977   9.652   9.002  0.3169 -1.9995  1.8724
  948MOL0     H25135   7.142   9.697   8.748  0.7367  1.6547 -1.3044
  948MOL0     H25136   6.909   9.767   8.737  1.1903 -1.3925 -0.0921
  949MOL0     O25137   8.702  10.486   6.369  1.2763 -0.3480 -0.4549
  949MOL0     C25138   8.759  10.381   6.397  0.3203 -0.4060 -0.2040
  949MOL0     O25139   8.713  10.291   6.484  0.1471 -0.4729  0.3328
  949MOL0     C25140   8.590  10.315   6.546 -0.0432 -0.0312 -0.1727
  949MOL0     C25141   8.571  10.415   6.644 -0.4121  0.7435 -0.2575
  949MOL0     C25142   8.456  10.440   6.705  0.6967 -0.6370  0.0582
  949MOL0     C25143   8.346  10.366   6.666  0.1229  0.6516  0.3192
  949MOL0     O25144   8.232  10.397   6.734  0.2080  0.1945 -1.6016
  949MOL0     C25145   8.129  10.296   6.743 -0.2335 -0.5878 -0.0745
  949MOL0     C25146   8.004  10.350   6.828  0.0423  0.8000  0.9100
  949MOL0     C25147   7.936  10.485   6.776  0.5583  0.7328 -0.5126
  949MOL0     C25148   7.821  10.522   6.870  0.0544  0.0430  0.7223
  949MOL0     C25149   7.704  10.417   6.865 -0.4498  0.2788 -0.5864
  949MOL0     C25150   7.587  10.456   6.969 -0.2823  0.2234 -0.7719
  949MOL0     C25151   7.618  10.380   7.103 -0.0351  0.2035 -1.0358
  949MOL0     C25152   7.509  10.388   7.206 -0.5815  0.9632  0.3020
  949MOL0     N25153   7.546  10.298   7.318 -0.5224 -0.7852 -0.5008
  949MOL0     C25154   7.521  10.171   7.331  0.8017  0.3163 -0.0146
  949MOL0     C25155   7.554  10.135   7.446  0.7962 -0.2820 -0.7314
  949MOL0     C25156   7.552  10.004   7.507  1.1859 -0.2910 -0.2030
  949MOL0     C25157   7.661   9.893   7.477 -0.5110  0.0830  0.7622
  949MOL0     C25158   7.774   9.922   7.574  0.2503 -0.5132 -0.2961
  949MOL0     C25159   7.880   9.820   7.561 -0.1632  0.5474  0.1979
  949MOL0     O25160   7.898   9.783   7.428 -0.7802  0.8496  0.4685
  949MOL0     C25161   8.002   9.696   7.385  0.0032 -0.0484 -0.4151
  949MOL0     C25162   8.004   9.679   7.252 -0.1353  0.6219 -0.1439
  949MOL0     C25163   8.098   9.591   7.193  0.1476  0.3206  1.2275
  949MOL0     C25164   8.168   9.496   7.272  0.7882  1.0407 -0.2698
  949MOL0     C25165   8.247   9.388   7.210  0.4884  0.8030  1.0223
  949MOL0     O25166   8.246   9.393   7.072 -0.3260  0.7290 -0.1097
  949MOL0     C25167   8.315   9.291   7.002  0.2061  0.7884  0.0547
  949MOL0     C25168   8.253   9.167   6.977  0.2535  0.3260  0.6098
  949MOL0     C25169   8.313   9.059   6.911 -0.9021 -0.3566 -0.6483
  949MOL0     C25170   8.435   9.066   6.862 -0.1370  0.8045  0.0313
  949MOL0     O25171   8.495   8.961   6.797  0.4052  0.0756 -0.4213
  949MOL0     C25172   8.624   8.979   6.731  0.2296  0.2970  0.7423
  949MOL0     C25173   8.650   8.885   6.618 -0.9591  0.2359  0.6381
  949MOL0     C25174   8.541   8.881   6.513  0.1647 -0.0683  0.7756
  949MOL0     C25175   8.582   8.786   6.396  0.8389 -0.3209 -0.4815
  949MOL0     C25176   8.598   8.645   6.448 -0.9257 -0.5685  0.6322
  949MOL0     C25177   8.603   8.560   6.326  0.0840  0.6033  0.1950
  949MOL0     C25178   8.638   8.409   6.356 -0.5271 -0.4386  0.7104
  949MOL0     C25179   8.651   8.324   6.230 -0.3972 -0.0298 -0.1726
  949MOL0    Cl25180   8.496   8.333   6.148 -0.2024  0.3983  0.5650
  949MOL0     C25181   8.506   9.192   6.888  0.6619 -0.8910 -0.2085
  949MOL0     C25182   8.446   9.305   6.956  0.3024 -0.0293 -1.1441
  949MOL0     O25183   8.310   9.311   7.284 -1.2236 -0.0041  0.0624
  949MOL0     C25184   8.167   9.502   7.409 -0.0287 -0.0322 -0.6183
  949MOL0     C25185   8.081   9.607   7.466  0.7309  0.7016  0.7941
  949MOL0     N25186   7.597  10.242   7.518 -0.1783 -0.1155  0.5516
  949MOL0     N25187   7.587  10.345   7.436  0.5801 -0.0510  0.2113
  949MOL0     C25188   8.351  10.261   6.569 -1.2586 -0.0766  0.9507
  949MOL0     C25189   8.478  10.241   6.511  1.1007  0.0120 -1.3849
  949MOL0     C25190   8.891  10.362   6.340  0.9500 -0.8011 -0.2391
  949MOL0     C25191   8.993  10.299   6.419 -0.4636 -0.4405  0.0459
  949MOL0     C25192   9.125  10.286   6.369 -1.3373  1.1186  0.7850
  949MOL0     C25193   9.158  10.337   6.243 -0.4262 -0.0252  0.0100
  949MOL0     O25194   9.283  10.320   6.190  0.3799 -0.2352  0.5605
  949MOL0     C25195   9.284  10.247   6.060 -0.6455 -0.3146 -0.7216
  949MOL0     C25196   9.314  10.341   5.944  0.1484 -0.3356 -0.3216
  949MOL0     C25197   9.230  10.307   5.819 -0.0243 -0.0139 -0.8973
  949MOL0     C25198   9.245  10.392   5.695 -0.2704  0.0792  0.7533
  949MOL0     C25199   9.382  10.421   5.658  0.0726  0.1330 -0.3856
  949MOL0     C25200   9.494  10.461   5.636  0.4455 -0.1476 -0.5808
  949MOL0     C25201   9.060  10.408   6.170  0.5273  0.1391 -0.4106
  949MOL0     C25202   8.920  10.415   6.210 -0.8629 -0.7934 -0.0913
  949MOL0     H25203   8.659  10.472   6.673 -0.2556  0.2665  0.2172
  949MOL0     H25204   8.448  10.516   6.782 -2.3013  1.9614 -2.5349
  949MOL0     H25205   8.160  10.213   6.807 -0.8730 -2.9097 -2.6378
  949MOL0     H25206   8.097  10.257   6.646  2.7449  1.6208 -2.1583
  949MOL0     H25207   8.044  10.373   6.927  1.9758  0.4841  0.2370
  949MOL0     H25208   7.937  10.264   6.836 -0.8074  1.6293  3.4715
  949MOL0     H25209   7.899  10.463   6.675  0.5223 -2.8602  0.1594
  949MOL0     H25210   8.009  10.566   6.773  2.3383 -0.7222  0.9341
  949MOL0     H25211   7.865  10.528   6.970  0.0786  1.7401  0.6346
  949MOL0     H25212   7.789  10.623   6.844  0.5894  0.5539  1.9660
  949MOL0     H25213   7.724  10.310   6.878 -0.0548  0.1555 -1.9653
  949MOL0     H25214   7.666  10.412   6.762  2.3841 -1.1824 -1.6791
  949MOL0     H25215   7.490  10.414   6.938  1.0897 -1.1085 -3.6757
  949MOL0     H25216   7.592  10.564   6.985  1.1737  0.2474 -1.2714
  949MOL0     H25217   7.642  10.274   7.091  0.2904  0.4381 -2.7413
  949MOL0     H25218   7.705  10.419   7.157  0.0083 -0.8565 -0.3111
  949MOL0     H25219   7.419  10.351   7.155 -1.7693  2.5543  1.1269
  949MOL0     H25220   7.499  10.492   7.237  2.9717  2.4999 -3.0616
  949MOL0     H25221   7.458  10.106   7.272 -1.7638 -1.4806  4.1917
  949MOL0     H25222   7.467   9.950   7.464  0.4469 -1.4329  2.5194
  949MOL0     H25223   7.518  10.014   7.610 -0.5245  0.0123 -0.7631
  949MOL0     H25224   7.692   9.902   7.373 -1.4739 -0.8624  0.3763
  949MOL0     H25225   7.621   9.792   7.490 -0.9909  0.4992  2.9899
  949MOL0     H25226   7.808  10.018   7.534 -0.3890 -1.0220 -2.1556
  949MOL0     H25227   7.735   9.930   7.676  0.0169 -1.1433 -0.3302
  949MOL0     H25228   7.858   9.729   7.618 -0.4084  1.0933  0.9927
  949MOL0     H25229   7.971   9.854   7.611 -0.0663 -1.0949  1.2289
  949MOL0     H25230   7.940   9.740   7.189 -1.1940 -0.6434 -0.3343
  949MOL0     H25231   8.101   9.588   7.084  0.2977  1.5740  1.1766
  949MOL0     H25232   8.151   9.154   7.012 -0.3356  0.7124 -0.8707
  949MOL0     H25233   8.260   8.964   6.913 -0.4571 -0.5961 -0.1656
  949MOL0     H25234   8.713   8.981   6.794  1.1483  1.9967 -0.5574
  949MOL0     H25235   8.631   9.073   6.676  0.1327 -0.1704 -0.0994
  949MOL0     H25236   8.670   8.785   6.657  0.0495  2.1537  5.9077
  949MOL0     H25237   8.744   8.922   6.578  0.7709 -1.9341  2.4505
  949MOL0     H25238   8.521   8.979   6.468 -1.8183 -2.1251 -3.3970
  949MOL0     H25239   8.450   8.836   6.553  0.6777 -2.9505 -0.9699
  949MOL0     H25240   8.499   8.804   6.327 -1.0854  3.9246  2.4685
  949MOL0     H25241   8.673   8.827   6.352  1.5037  0.9324  1.8534
  949MOL0     H25242   8.515   8.615   6.511 -1.3315  2.7390  1.8627
  949MOL0     H25243   8.691   8.634   6.504  0.3038 -0.7708 -1.3157
  949MOL0     H25244   8.683   8.597   6.262  0.3831  0.6512  0.5918
  949MOL0     H25245   8.512   8.560   6.266  0.5242  1.1638 -0.4858
  949MOL0     H25246   8.736   8.400   6.404 -0.0902 -1.2390 -0.2892
  949MOL0     H25247   8.563   8.361   6.419  1.0091 -1.0362  2.1439
  949MOL0     H25248   8.682   8.219   6.241 -4.2861 -1.3063  0.5262
  949MOL0     H25249   8.724   8.375   6.167 -1.8205 -0.7385 -2.5605
  949MOL0     H25250   8.612   9.199   6.862  1.2630  2.1767  2.4368
  949MOL0     H25251   8.486   9.403   6.979 -0.8333  1.0718 -3.4732
  949MOL0     H25252   8.219   9.435   7.476  1.5510  1.9955  0.2799
  949MOL0     H25253   8.079   9.620   7.574  0.3521 -2.8218  1.3307
  949MOL0     H25254   8.264  10.201   6.544  0.5292 -1.9457 -1.1969
  949MOL0     H25255   8.475  10.157   6.443  1.9073  0.4985 -2.0374
  949MOL0     H25256   8.966  10.256   6.515 -0.4181 -0.4072  0.0734
  949MOL0     H25257   9.205  10.239   6.426  0.2655 -0.7983 -2.7514
  949MOL0     H25258   9.196  10.184   6.043 -0.4530  0.2786 -4.8984
  949MOL0     H25259   9.366  10.175   6.072  0.0181  0.0151 -2.9246
  949MOL0     H25260   9.289  10.443   5.973 -0.0220 -1.2623  3.2588
  949MOL0     H25261   9.419  10.343   5.914  0.1961  1.1975 -0.1332
  949MOL0     H25262   9.132  10.326   5.864  0.8457 -1.8206  1.9634
  949MOL0     H25263   9.234  10.201   5.794 -2.3853 -0.8712  1.7583
  949MOL0     H25264   9.205  10.335   5.611 -0.4387  1.5722 -0.2215
  949MOL0     H25265   9.192  10.486   5.706 -1.3161 -0.3054 -0.7083
  949MOL0     H25266   9.592  10.500   5.617 -0.3811  2.7016  0.3278
  949MOL0     H25267   9.104  10.460   6.085 -1.5772  1.4076 -0.8020
  949MOL0     H25268   8.851  10.462   6.140  5.1453  2.3085 -4.8450
  950MOL0     O25269   6.727   0.421   3.267  0.3968 -0.0908  0.3321
  950MOL0     C25270   6.779   0.520   3.217 -0.0939 -0.5833  0.8585
  950MOL0     O25271   6.712   0.621   3.147 -0.2238  0.4291  0.1989
  950MOL0     C25272   6.583   0.647   3.179  0.8859 -0.1302  0.3331
  950MOL0     C25273   6.546   0.693   3.305 -0.2971 -0.1334  0.1786
  950MOL0     C25274   6.417   0.726   3.337 -0.0657  0.0022 -0.8385
  950MOL0     C25275   6.316   0.711   3.240  0.3554 -0.3792  0.3246
  950MOL0     O25276   6.183   0.736   3.269  0.7195 -0.2387  0.5940
  950MOL0     C25277   6.083   0.720   3.169 -0.1120  0.5777  0.2912
  950MOL0     C25278   5.955   0.767   3.223  0.2948  0.2949  0.5235
  950MOL0     C25279   5.839   0.779   3.126  0.3841 -0.4477  0.5306
  950MOL0     C25280   5.705   0.806   3.195  0.8576 -0.3415  0.5352
  950MOL0     C25281   5.590   0.845   3.104 -0.2961 -0.2468 -0.0230
  950MOL0     C25282   5.468   0.883   3.199  0.2385  0.3199  0.0683
  950MOL0     C25283   5.363   0.777   3.201 -0.4122 -0.0915 -0.2586
  950MOL0     C25284   5.240   0.817   3.274  0.7386  0.0565 -0.0889
  950MOL0     N25285   5.117   0.768   3.210  0.0963  0.5793  0.4511
  950MOL0     C25286   5.037   0.657   3.235  0.3087 -0.1491 -0.4090
  950MOL0     C25287   4.929   0.683   3.159  0.3489 -0.1893 -0.5347
  950MOL0     C25288   4.798   0.606   3.145  0.0212 -0.0881  0.4315
  950MOL0     C25289   4.800   0.471   3.207  0.0684 -0.0899  0.3461
  950MOL0     C25290   4.798   0.484   3.355 -0.3715  0.6209  0.2783
  950MOL0     C25291   4.788   0.354   3.430  0.2955 -0.3934 -0.5549
  950MOL0     O25292   4.655   0.296   3.438  0.1765 -0.2998  0.4473
  950MOL0     C25293   4.627   0.193   3.513 -0.6065  0.6382 -0.9079
  950MOL0     C25294   4.720   0.139   3.604 -0.2701  1.0792 -0.9809
  950MOL0     C25295   4.694   0.012   3.671  1.3999  0.2609  0.0307
  950MOL0     C25296   4.579  -0.061   3.644  1.1314  0.0771 -0.1200
  950MOL0     C25297   4.550  -0.195   3.707  0.2268  0.1372 -0.7268
  950MOL0     O25298   4.462  -0.279   3.651 -0.6572  0.0620  0.3952
  950MOL0     C25299   4.444  -0.407   3.686  0.3970  0.6142 -0.4260
  950MOL0     C25300   4.524  -0.485   3.772  0.4664 -0.3615 -0.7082
  950MOL0     C25301   4.493  -0.611   3.815  0.2396 -0.2160 -0.7409
  950MOL0     C25302   4.380  -0.672   3.754  0.2260 -0.1047 -0.1904
  950MOL0     O25303   4.358  -0.805   3.750  0.0606  0.2933 -0.0826
  950MOL0     C25304   4.328  -0.875   3.873  0.4224 -0.4762 -0.4253
  950MOL0     C25305   4.376  -1.016   3.880  0.0573  0.0768  0.0777
  950MOL0     C25306   4.532  -1.031   3.900  1.5163  0.1903  0.1284
  950MOL0     C25307   4.575  -1.182   3.898 -0.0248  0.4968 -0.4213
  950MOL0     C25308   4.730  -1.215   3.895 -0.8648 -0.6300 -0.9214
  950MOL0     C25309   4.814  -1.160   4.011 -1.4367  0.7827  0.0734
  950MOL0     C25310   4.751  -1.180   4.149 -0.8415 -0.0005  0.0356
  950MOL0     C25311   4.855  -1.179   4.258 -0.8192 -0.2754 -0.4241
  950MOL0    Cl25312   4.960  -1.328   4.245 -0.1080  0.4003  0.3193
  950MOL0     C25313   4.303  -0.595   3.663  0.8432  0.1493  0.0166
  950MOL0     C25314   4.336  -0.469   3.639 -0.7376  0.8886  1.1879
  950MOL0     O25315   4.614  -0.211   3.813 -0.4625  0.0848  0.3895
  950MOL0     C25316   4.487  -0.003   3.551  0.5475  0.0802  0.8145
  950MOL0     C25317   4.506   0.124   3.494  0.0402  0.3593 -0.1791
  950MOL0     N25318   4.949   0.793   3.077 -0.3241  0.4935  0.4206
  950MOL0     N25319   5.061   0.848   3.114  0.8134  0.4363  0.6979
  950MOL0     C25320   6.354   0.646   3.121 -0.8706 -0.4809  0.4392
  950MOL0     C25321   6.486   0.620   3.085 -0.6347  0.2676 -0.4152
  950MOL0     C25322   6.928   0.542   3.213  0.1632 -0.1234 -1.4030
  950MOL0     C25323   6.978   0.667   3.183 -0.8258 -0.5585  0.5487
  950MOL0     C25324   7.119   0.682   3.188 -0.4650  0.5356  0.1941
  950MOL0     C25325   7.211   0.583   3.240  0.0501  0.0955 -0.6435
  950MOL0     O25326   7.343   0.612   3.240  0.5211 -0.0229 -0.6645
  950MOL0     C25327   7.445   0.512   3.280  0.1019  0.2792  0.0337
  950MOL0     C25328   7.590   0.562   3.259  0.3497 -0.1575 -0.1445
  950MOL0     C25329   7.628   0.660   3.373 -0.5339  1.2753 -0.1731
  950MOL0     C25330   7.760   0.726   3.318  0.2475 -0.6373 -0.6823
  950MOL0     C25331   7.832   0.795   3.433  0.2181 -0.2311  0.6176
  950MOL0     C25332   7.881   0.851   3.526  0.1570  0.9032 -0.7106
  950MOL0     C25333   7.159   0.456   3.275  0.7235 -0.8939  0.2870
  950MOL0     C25334   7.017   0.441   3.252 -0.2380 -0.0664  0.7670
  950MOL0     H25335   6.621   0.708   3.382 -0.9291 -0.5687  0.8856
  950MOL0     H25336   6.384   0.774   3.429 -0.1917  4.3725 -2.8916
  950MOL0     H25337   6.070   0.617   3.133 -0.5957  0.6854  0.1503
  950MOL0     H25338   6.113   0.797   3.097  1.3361  3.0481  3.3064
  950MOL0     H25339   5.966   0.867   3.267 -0.4905  1.1436 -1.1360
  950MOL0     H25340   5.923   0.697   3.301 -3.6726  0.2186 -0.9266
  950MOL0     H25341   5.828   0.681   3.078  0.4572 -0.9583  1.5342
  950MOL0     H25342   5.871   0.854   3.053 -0.3215 -1.7030 -1.1244
  950MOL0     H25343   5.680   0.713   3.247 -1.8436  1.2623  2.3418
  950MOL0     H25344   5.725   0.885   3.268 -0.1702  1.2171 -0.7946
  950MOL0     H25345   5.567   0.762   3.037  0.2750  0.5830 -1.2803
  950MOL0     H25346   5.611   0.929   3.037 -3.6941 -0.5956 -1.7516
  950MOL0     H25347   5.419   0.975   3.167 -1.7801 -0.9622 -0.7521
  950MOL0     H25348   5.500   0.906   3.301 -2.6507 -1.5643  1.5498
  950MOL0     H25349   5.340   0.758   3.095  1.8629  1.8529 -1.1952
  950MOL0     H25350   5.400   0.689   3.254 -1.3813  1.0455  2.4810
  950MOL0     H25351   5.249   0.926   3.274  4.6315 -0.0081 -4.0940
  950MOL0     H25352   5.244   0.781   3.377  1.6731  1.4483  0.3871
  950MOL0     H25353   5.057   0.572   3.300 -1.3353  0.5677  1.1122
  950MOL0     H25354   4.785   0.581   3.040  3.6641 -1.9593  0.2633
  950MOL0     H25355   4.725   0.677   3.186  0.1883  0.2281  0.1881
  950MOL0     H25356   4.886   0.411   3.177  1.4759  1.4401  1.1883
  950MOL0     H25357   4.705   0.421   3.184  0.2988  0.0702 -1.0752
  950MOL0     H25358   4.882   0.535   3.404 -0.4010  1.7330 -0.7834
  950MOL0     H25359   4.705   0.533   3.384 -0.8542  0.3478 -0.7905
  950MOL0     H25360   4.809   0.389   3.532  5.0465 -3.2849 -0.2315
  950MOL0     H25361   4.867   0.284   3.403  1.8452  1.1705 -0.2501
  950MOL0     H25362   4.816   0.182   3.629  0.9118 -1.1165 -1.5807
  950MOL0     H25363   4.774  -0.024   3.735  0.4122 -1.2282  0.4769
  950MOL0     H25364   4.622  -0.445   3.795 -0.1411  1.6585 -1.3946
  950MOL0     H25365   4.561  -0.661   3.883  0.8326 -1.9937 -2.5325
  950MOL0     H25366   4.221  -0.874   3.895  0.5359 -0.6754  0.1670
  950MOL0     H25367   4.371  -0.824   3.960  2.1037  0.1595 -1.5738
  950MOL0     H25368   4.358  -1.046   3.776  0.7681 -3.4989  0.8767
  950MOL0     H25369   4.316  -1.078   3.947 -1.7359 -1.3265 -2.6245
  950MOL0     H25370   4.549  -0.989   3.999 -1.5315  0.5708  0.6025
  950MOL0     H25371   4.587  -0.972   3.825  0.0986  1.3351 -0.0664
  950MOL0     H25372   4.533  -1.238   3.982 -2.0596 -1.2443 -2.4639
  950MOL0     H25373   4.534  -1.231   3.809  0.6968 -1.4762  0.2604
  950MOL0     H25374   4.766  -1.170   3.801 -0.5034  0.7890 -0.1294
  950MOL0     H25375   4.751  -1.323   3.891  1.1937 -0.3036 -0.1044
  950MOL0     H25376   4.827  -1.053   3.993 -0.2890  0.4330 -1.4405
  950MOL0     H25377   4.913  -1.207   4.015 -0.0365  3.6285  1.9180
  950MOL0     H25378   4.684  -1.096   4.169  0.4439  1.4237 -1.4602
  950MOL0     H25379   4.695  -1.274   4.153 -0.8900 -0.0219 -0.8920
  950MOL0     H25380   4.802  -1.172   4.353 -3.3396 -1.6367 -1.6204
  950MOL0     H25381   4.922  -1.093   4.256  0.2437 -1.0236  1.1342
  950MOL0     H25382   4.215  -0.637   3.617  0.2584 -0.0310  1.2430
  950MOL0     H25383   4.272  -0.410   3.573 -0.0076  0.7807  0.3632
  950MOL0     H25384   4.394  -0.053   3.524  0.3654  1.5337 -1.5491
  950MOL0     H25385   4.434   0.163   3.423 -0.5147 -0.6055 -0.1657
  950MOL0     H25386   6.281   0.612   3.048  1.8412 -2.1171 -1.7446
  950MOL0     H25387   6.506   0.574   2.989 -0.6000 -1.4755  0.3981
  950MOL0     H25388   6.906   0.742   3.151  1.1983 -0.4652 -4.8309
  950MOL0     H25389   7.180   0.768   3.161  0.6165 -0.7741 -1.7969
  950MOL0     H25390   7.428   0.423   3.219 -4.5483  1.8591 -1.4043
  950MOL0     H25391   7.431   0.479   3.383  0.3911  0.3769  0.1041
  950MOL0     H25392   7.649   0.470   3.266 -3.0727 -2.4756  0.2079
  950MOL0     H25393   7.599   0.603   3.158 -1.5547 -1.2815 -0.8088
  950MOL0     H25394   7.643   0.614   3.470  1.7587  1.1063 -0.5526
  950MOL0     H25395   7.553   0.740   3.382 -2.6499 -0.4227 -1.6049
  950MOL0     H25396   7.814   0.647   3.266  1.0127  0.9263 -2.4072
  950MOL0     H25397   7.726   0.801   3.245  0.2311  0.9713  0.9072
  950MOL0     H25398   7.919   0.893   3.617 -1.6328 -1.4985  1.2838
  950MOL0     H25399   7.216   0.380   3.327 -0.9275 -0.6824  2.5433
  950MOL0     H25400   6.987   0.337   3.260 -0.2474 -0.3165 -1.7654
  951MOL0     O25401   9.181   2.565  11.197  0.1407  0.7799  0.2358
  951MOL0     C25402   9.085   2.487  11.191 -0.1182  0.0494  0.7372
  951MOL0     O25403   8.999   2.472  11.080  0.1190  0.8333 -0.6351
  951MOL0     C25404   9.043   2.499  10.955 -0.6408  0.0132  0.0082
  951MOL0     C25405   9.156   2.440  10.894  0.3506 -0.3392  0.0051
  951MOL0     C25406   9.189   2.468  10.763 -0.1017 -0.1074  0.1278
  951MOL0     C25407   9.118   2.572  10.693 -1.1924  0.3813 -0.5542
  951MOL0     O25408   9.145   2.607  10.561 -0.1032 -0.0896  0.0873
  951MOL0     C25409   9.197   2.499  10.479 -0.0854  0.7139 -0.3258
  951MOL0     C25410   9.162   2.537  10.337 -0.2450  0.0130 -0.6300
  951MOL0     C25411   9.015   2.521  10.312  1.3004  0.9395 -0.0345
  951MOL0     C25412   8.986   2.544  10.159  0.3256 -0.0054  0.2799
  951MOL0     C25413   8.832   2.530  10.139 -0.3278  0.1165  0.3873
  951MOL0     C25414   8.790   2.524   9.989  0.6957 -0.4958 -0.2767
  951MOL0     C25415   8.639   2.537   9.967 -0.1634 -0.8393 -0.3782
  951MOL0     C25416   8.598   2.481   9.840  1.6849 -0.3286 -0.4595
  951MOL0     N25417   8.447   2.498   9.844  0.0486  0.1529  0.0467
  951MOL0     C25418   8.386   2.618   9.821 -0.7674 -0.8098  0.2146
  951MOL0     C25419   8.258   2.582   9.798 -0.7573 -0.4465  0.3814
  951MOL0     C25420   8.160   2.702   9.789  0.8721  0.7505  1.3626
  951MOL0     C25421   8.134   2.754   9.645  0.0394  1.0103 -0.2354
  951MOL0     C25422   8.047   2.869   9.640 -0.6275 -0.4009 -0.1836
  951MOL0     C25423   7.888   2.845   9.646  0.1294 -0.1259 -1.2174
  951MOL0     O25424   7.815   2.965   9.687 -0.0594 -0.5416 -0.2605
  951MOL0     C25425   7.678   2.964   9.680 -0.6490 -0.2315  0.0917
  951MOL0     C25426   7.594   2.879   9.602  1.4500  0.0968  0.6411
  951MOL0     C25427   7.459   2.903   9.587 -0.3891  0.2351  0.4698
  951MOL0     C25428   7.401   3.018   9.648 -0.0370  1.0962 -0.3286
  951MOL0     C25429   7.258   3.042   9.635  0.6771 -0.0329  0.2330
  951MOL0     O25430   7.188   2.960   9.547  0.2300 -0.3565  1.1532
  951MOL0     C25431   7.056   2.984   9.532  0.2494 -0.1395 -0.7895
  951MOL0     C25432   6.957   2.925   9.615 -0.2817  0.3173  0.1895
  951MOL0     C25433   6.824   2.954   9.603 -0.0067 -0.5181 -0.7134
  951MOL0     C25434   6.777   3.042   9.499  0.4045  0.5032 -0.3652
  951MOL0     O25435   6.643   3.057   9.486 -0.0490 -0.3728  0.5225
  951MOL0     C25436   6.558   2.942   9.507 -0.0367 -0.6479  0.7694
  951MOL0     C25437   6.416   2.981   9.450  0.7408  0.5153 -1.0336
  951MOL0     C25438   6.296   2.893   9.476 -0.2971 -0.0311  0.1971
  951MOL0     C25439   6.250   2.924   9.619 -0.8422 -0.2984 -0.7623
  951MOL0     C25440   6.141   2.838   9.673 -0.1425  0.3469  0.1607
  951MOL0     C25441   6.117   2.842   9.825  0.1163 -0.5163  0.3265
  951MOL0     C25442   5.990   2.771   9.862 -0.2876  0.3290 -0.7771
  951MOL0     C25443   5.982   2.631   9.800 -0.3914 -0.6869  0.1394
  951MOL0    Cl25444   6.100   2.511   9.846 -0.0611  0.9568  0.1330
  951MOL0     C25445   6.866   3.084   9.403 -0.2941  0.3703 -0.8297
  951MOL0     C25446   7.005   3.065   9.430 -0.5717  0.8104  0.5728
  951MOL0     O25447   7.202   3.124   9.709 -0.4550  0.3451 -0.3908
  951MOL0     C25448   7.483   3.107   9.726  0.3162  0.1403  1.8106
  951MOL0     C25449   7.622   3.082   9.736  0.4160  0.2518 -0.2199
  951MOL0     N25450   8.240   2.444   9.814 -0.6455 -0.5461 -0.2520
  951MOL0     N25451   8.357   2.399   9.840 -0.0107 -0.1177  0.5057
  951MOL0     C25452   9.017   2.640  10.758  0.1844  0.3288  0.8175
  951MOL0     C25453   8.967   2.592  10.878  0.2042 -0.2599 -0.2149
  951MOL0     C25454   9.072   2.395  11.310 -0.0347 -0.5549  0.2360
  951MOL0     C25455   8.973   2.292  11.324  0.0028  1.0154  0.1089
  951MOL0     C25456   8.950   2.221  11.435  0.1431  1.3518 -0.2341
  951MOL0     C25457   9.021   2.258  11.550  0.2040  0.0708  0.4726
  951MOL0     O25458   9.005   2.190  11.675 -0.3156 -0.2415  0.9612
  951MOL0     C25459   8.871   2.154  11.709 -1.1339 -0.0340 -0.1286
  951MOL0     C25460   8.863   2.094  11.852 -0.1251  0.0034 -0.3395
  951MOL0     C25461   8.716   2.054  11.884 -0.4428  0.1340 -0.0561
  951MOL0     C25462   8.692   2.022  12.032  0.8007  0.2799  0.6338
  951MOL0     C25463   8.788   1.911  12.074  0.6427 -0.9288  0.4714
  951MOL0     C25464   8.857   1.822  12.107 -0.2767 -0.0267 -0.7998
  951MOL0     C25465   9.132   2.348  11.541  0.1235  0.0317  0.2117
  951MOL0     C25466   9.159   2.420  11.421 -0.3951 -1.0881  0.3617
  951MOL0     H25467   9.207   2.360  10.947 -1.7740 -0.3737  2.1643
  951MOL0     H25468   9.267   2.412  10.712  1.1919  0.9608  0.8671
  951MOL0     H25469   9.151   2.404  10.507  1.8113  0.2287  1.4418
  951MOL0     H25470   9.303   2.489  10.501 -0.4225  2.3639  2.6985
  951MOL0     H25471   9.217   2.470  10.271  0.8533  0.7729 -0.5115
  951MOL0     H25472   9.180   2.643  10.314 -3.8378  0.8189 -0.4409
  951MOL0     H25473   8.960   2.591  10.375  1.5609  1.9675 -0.9110
  951MOL0     H25474   8.989   2.419  10.342 -0.2103  2.1387  3.0842
  951MOL0     H25475   9.030   2.636  10.120 -0.7001  0.3887  0.0215
  951MOL0     H25476   9.037   2.465  10.104 -1.4724 -0.8607 -0.2202
  951MOL0     H25477   8.807   2.626  10.185 -2.0270  0.8873 -1.9470
  951MOL0     H25478   8.791   2.446  10.194  1.3494 -2.2400 -1.7350
  951MOL0     H25479   8.832   2.429   9.956  3.6497  0.8487 -0.6293
  951MOL0     H25480   8.844   2.597   9.929 -0.5704 -0.5271 -1.5144
  951MOL0     H25481   8.581   2.488  10.047 -1.1575  1.4840  0.4055
  951MOL0     H25482   8.619   2.644   9.964 -0.3527 -0.8838 -0.8426
  951MOL0     H25483   8.631   2.377   9.836 -1.0521 -1.2509 -1.4851
  951MOL0     H25484   8.641   2.543   9.760 -0.6477 -0.3029 -1.8081
  951MOL0     H25485   8.426   2.718   9.803 -1.9189 -0.5812 -1.2895
  951MOL0     H25486   8.211   2.780   9.847  0.4422  1.3347  0.9680
  951MOL0     H25487   8.068   2.669   9.838 -2.1488  1.1203 -3.4920
  951MOL0     H25488   8.084   2.673   9.592  0.9806  0.1394  0.1630
  951MOL0     H25489   8.228   2.779   9.594  0.8427  0.5709  0.9720
  951MOL0     H25490   8.076   2.943   9.715 -0.5501  1.5585 -2.0674
  951MOL0     H25491   8.057   2.915   9.542  0.2184 -1.2796 -0.5273
  951MOL0     H25492   7.866   2.774   9.726  0.2093  2.6662  1.4201
  951MOL0     H25493   7.844   2.807   9.553 -2.0722 -0.6958 -0.0026
  951MOL0     H25494   7.638   2.801   9.541  0.0932  1.4438 -2.2123
  951MOL0     H25495   7.404   2.842   9.516 -0.9300  0.8056  0.3862
  951MOL0     H25496   6.991   2.870   9.702 -0.9889  1.8649  1.5071
  951MOL0     H25497   6.753   2.911   9.672  1.6801  0.2422  1.6158
  951MOL0     H25498   6.548   2.929   9.615  2.3885 -0.7751  1.0448
  951MOL0     H25499   6.611   2.858   9.462  1.7009  2.4189 -3.5787
  951MOL0     H25500   6.423   2.988   9.341 -0.6513  0.4780 -1.1418
  951MOL0     H25501   6.382   3.081   9.481  1.1654 -0.2195  2.1942
  951MOL0     H25502   6.311   2.786   9.455 -0.3754  0.1423 -0.8182
  951MOL0     H25503   6.213   2.927   9.412  1.0545  0.6087 -1.2815
  951MOL0     H25504   6.334   2.912   9.687 -1.2419 -1.1675 -0.4042
  951MOL0     H25505   6.215   3.027   9.622 -1.8655 -0.6487 -0.4135
  951MOL0     H25506   6.169   2.734   9.653 -1.8835  0.0763 -1.0786
  951MOL0     H25507   6.051   2.872   9.621  2.5270  1.8324 -3.9896
  951MOL0     H25508   6.112   2.942   9.870 -1.2668  0.4293 -1.8050
  951MOL0     H25509   6.201   2.786   9.869  1.5983  0.3528 -1.3031
  951MOL0     H25510   5.984   2.767   9.971 -0.6632 -2.8420 -0.8138
  951MOL0     H25511   5.904   2.829   9.828 -0.1569  0.8839 -0.1807
  951MOL0     H25512   5.976   2.646   9.692  3.5677  1.5390  0.0534
  951MOL0     H25513   5.889   2.581   9.828 -1.7104 -0.1565 -2.8985
  951MOL0     H25514   6.844   3.148   9.318  1.2027  3.0440  0.6537
  951MOL0     H25515   7.077   3.098   9.355 -2.6074  0.1828 -1.7962
  951MOL0     H25516   7.439   3.194   9.775  2.3798  2.2891  0.1130
  951MOL0     H25517   7.690   3.147   9.789  4.2476 -4.5439  1.4742
  951MOL0     H25518   8.969   2.721  10.705  0.0554 -0.7091 -0.7233
  951MOL0     H25519   8.876   2.628  10.925 -0.8401 -0.2433 -2.1676
  951MOL0     H25520   8.903   2.275  11.243 -0.9126 -1.2702  1.2794
  951MOL0     H25521   8.880   2.138  11.429  0.6846  0.9438 -1.0751
  951MOL0     H25522   8.834   2.073  11.646 -1.2119  0.7132 -1.0539
  951MOL0     H25523   8.812   2.246  11.703 -0.4726  0.3004 -1.7490
  951MOL0     H25524   8.930   2.007  11.857 -1.3087 -0.8612  1.6510
  951MOL0     H25525   8.897   2.151  11.938  1.0998 -0.6237 -0.3824
  951MOL0     H25526   8.684   1.964  11.829  2.2548 -3.6691  3.9666
  951MOL0     H25527   8.652   2.139  11.860 -2.0301 -1.4186 -1.7536
  951MOL0     H25528   8.689   2.117  12.088 -3.3724 -0.0154  1.2446
  951MOL0     H25529   8.588   1.991  12.044  0.4190  0.9027 -0.9084
  951MOL0     H25530   8.914   1.739  12.144 -1.0215  1.1198  3.3836
  951MOL0     H25531   9.183   2.357  11.636  3.6243 -2.0136 -1.2559
  951MOL0     H25532   9.238   2.494  11.415  1.3107 -2.5560  3.0186
  952MOL0     O25533   3.408   4.556   4.505  0.7803  0.1875  0.1583
  952MOL0     C25534   3.437   4.671   4.479  0.4294 -0.1412 -0.8178
  952MOL0     O25535   3.384   4.781   4.543 -0.3097  0.1118 -0.5519
  952MOL0     C25536   3.272   4.751   4.615  0.2793  0.0253  1.0796
  952MOL0     C25537   3.280   4.711   4.746  0.1423  0.0070 -0.0750
  952MOL0     C25538   3.174   4.660   4.816 -0.3070 -0.7234  0.2427
  952MOL0     C25539   3.053   4.679   4.769  0.5623 -0.2067 -0.5626
  952MOL0     O25540   2.955   4.634   4.843  0.0965  0.7076  0.0021
  952MOL0     C25541   2.817   4.692   4.845  0.0112  0.3692 -0.3459
  952MOL0     C25542   2.728   4.611   4.746  0.7935 -0.5362 -0.7718
  952MOL0     C25543   2.599   4.685   4.745 -0.0828  0.3866  1.0237
  952MOL0     C25544   2.478   4.603   4.685 -0.7038 -0.5287 -0.4419
  952MOL0     C25545   2.364   4.700   4.649 -0.3980 -1.1887  0.1311
  952MOL0     C25546   2.276   4.739   4.767  0.2131 -0.8176 -0.1496
  952MOL0     C25547   2.147   4.788   4.703  0.5583  0.5293  0.2984
  952MOL0     C25548   2.046   4.830   4.803  0.1819  0.2992 -0.6323
  952MOL0     N25549   1.943   4.931   4.749  0.8599  1.1832 -0.3483
  952MOL0     C25550   1.950   5.066   4.741  0.1852  0.3574 -0.8985
  952MOL0     C25551   1.830   5.100   4.685  0.8824 -0.4286 -0.3612
  952MOL0     C25552   1.789   5.237   4.642  0.1199  0.0257 -0.3249
  952MOL0     C25553   1.701   5.315   4.734  0.0649 -0.1171  0.6599
  952MOL0     C25554   1.553   5.311   4.700 -0.6204  0.7956  0.0532
  952MOL0     C25555   1.510   5.340   4.554 -0.5795 -0.1841 -0.1588
  952MOL0     O25556   1.395   5.425   4.543  0.2878 -0.4426  1.1628
  952MOL0     C25557   1.275   5.362   4.539 -0.4232  0.1083  0.5088
  952MOL0     C25558   1.158   5.430   4.477 -0.3762 -0.2639 -0.0916
  952MOL0     C25559   1.035   5.361   4.461  0.9392  1.1448 -0.3363
  952MOL0     C25560   1.017   5.229   4.489 -0.1622  0.8764  0.0177
  952MOL0     C25561   0.892   5.161   4.467  0.2465 -0.3020 -1.1669
  952MOL0     O25562   0.795   5.251   4.423  0.5818  0.5160 -0.5332
  952MOL0     C25563   0.655   5.238   4.434 -0.0113  0.3565  0.3258
  952MOL0     C25564   0.567   5.291   4.340  0.9052  0.0500 -0.5430
  952MOL0     C25565   0.423   5.282   4.360  0.1818 -0.5669  0.3020
  952MOL0     C25566   0.363   5.231   4.476 -0.3455  0.0106  0.0877
  952MOL0     O25567   0.229   5.218   4.467  0.6964  0.3159  0.4722
  952MOL0     C25568   0.165   5.115   4.545  0.2348 -0.1184  0.6359
  952MOL0     C25569   0.011   5.139   4.514 -0.7366  0.4932  0.1272
  952MOL0     C25570  -0.073   5.051   4.605 -0.3644 -0.5056  0.5248
  952MOL0     C25571  -0.224   5.075   4.602 -0.4612 -0.3632  0.1394
  952MOL0     C25572  -0.278   5.185   4.696  0.9013 -0.0472  0.1071
  952MOL0     C25573  -0.438   5.201   4.699 -0.6415  0.6611 -0.3714
  952MOL0     C25574  -0.495   5.215   4.558  0.2888 -0.6289 -0.6743
  952MOL0     C25575  -0.646   5.217   4.564 -0.0241  0.2916  0.1726
  952MOL0    Cl25576  -0.724   5.205   4.403 -0.2486 -0.1036 -0.5098
  952MOL0     C25577   0.451   5.164   4.566 -0.2369  0.3367 -0.1278
  952MOL0     C25578   0.590   5.180   4.545 -0.7170 -0.4016 -0.4416
  952MOL0     O25579   0.867   5.053   4.516 -0.1205  0.1968  0.5216
  952MOL0     C25580   1.123   5.169   4.549 -0.0696 -0.7835  1.0537
  952MOL0     C25581   1.253   5.230   4.573  0.5286 -0.3262 -0.2480
  952MOL0     N25582   1.748   4.991   4.672 -0.5591 -0.1730  0.0169
  952MOL0     N25583   1.816   4.885   4.720 -0.4528  0.8336 -0.2316
  952MOL0     C25584   3.035   4.753   4.651  0.5053  0.7501  0.7438
  952MOL0     C25585   3.143   4.772   4.567  0.1099 -0.2976 -0.0070
  952MOL0     C25586   3.557   4.699   4.407  0.7881  1.1054  0.4088
  952MOL0     C25587   3.584   4.622   4.293 -0.9362  0.6939 -0.6091
  952MOL0     C25588   3.700   4.638   4.216  0.2160  0.6724  0.6453
  952MOL0     C25589   3.805   4.726   4.259 -0.2359 -0.2708 -0.5901
  952MOL0     O25590   3.930   4.748   4.206  0.2233 -0.2091  0.1166
  952MOL0     C25591   3.939   4.730   4.069 -0.0467 -0.2682  0.4105
  952MOL0     C25592   4.086   4.725   4.032 -0.2062 -0.6810 -0.4586
  952MOL0     C25593   4.131   4.875   4.031  0.6787  0.5892 -0.3612
  952MOL0     C25594   4.279   4.895   3.994 -0.3902  0.9274  0.3881
  952MOL0     C25595   4.335   5.028   4.025  0.2733  0.1004 -0.3730
  952MOL0     C25596   4.360   5.143   4.051  0.5971  0.5458 -0.4715
  952MOL0     C25597   3.769   4.811   4.369 -0.7075 -0.1392  0.4264
  952MOL0     C25598   3.649   4.792   4.447  0.1170 -0.8164 -0.1147
  952MOL0     H25599   3.381   4.691   4.781  0.2157  1.3366  0.5242
  952MOL0     H25600   3.190   4.603   4.907  2.2620  2.2272  1.8650
  952MOL0     H25601   2.817   4.799   4.823  0.4805  0.1944 -1.2016
  952MOL0     H25602   2.777   4.678   4.946  0.5968 -1.9948 -0.3716
  952MOL0     H25603   2.698   4.509   4.772 -0.3052 -0.3988 -1.3961
  952MOL0     H25604   2.778   4.603   4.649  1.3559  1.8563 -0.7388
  952MOL0     H25605   2.606   4.782   4.695 -2.6695 -0.1228 -0.4699
  952MOL0     H25606   2.576   4.703   4.851 -1.1695  0.6799  0.7458
  952MOL0     H25607   2.515   4.550   4.596  1.6485 -2.1755  1.3817
  952MOL0     H25608   2.442   4.521   4.748  2.4285 -1.7668 -0.0761
  952MOL0     H25609   2.293   4.643   4.588 -1.9130 -0.9889  1.6319
  952MOL0     H25610   2.409   4.786   4.598 -0.9289 -0.4207  0.9327
  952MOL0     H25611   2.333   4.815   4.822  0.0520 -1.3816  0.8270
  952MOL0     H25612   2.262   4.653   4.834  1.9067 -0.7809  0.2793
  952MOL0     H25613   2.176   4.873   4.640  0.5352 -0.1263 -0.6252
  952MOL0     H25614   2.104   4.709   4.641  0.4877 -0.2605  1.3256
  952MOL0     H25615   2.091   4.872   4.894 -2.4608 -1.0941  1.4788
  952MOL0     H25616   1.991   4.742   4.837 -0.0293  0.7196  0.1383
  952MOL0     H25617   2.035   5.127   4.767  2.4607 -2.6548 -0.7343
  952MOL0     H25618   1.743   5.226   4.543  0.3159  0.9309 -0.5211
  952MOL0     H25619   1.882   5.294   4.639 -0.1779  0.4989 -2.3315
  952MOL0     H25620   1.729   5.421   4.742 -0.4681  0.0625  0.2017
  952MOL0     H25621   1.710   5.285   4.839 -0.5965 -1.8170  0.2544
  952MOL0     H25622   1.508   5.215   4.730  0.8151 -0.5513 -1.8542
  952MOL0     H25623   1.508   5.390   4.761 -1.5654  0.3261 -0.0169
  952MOL0     H25624   1.506   5.246   4.498 -2.2922 -1.4966  2.0240
  952MOL0     H25625   1.599   5.388   4.511  0.0923 -1.3817 -0.1506
  952MOL0     H25626   1.174   5.532   4.444 -1.4388 -0.5603 -1.6386
  952MOL0     H25627   0.954   5.423   4.426  1.0380  0.8785 -1.0609
  952MOL0     H25628   0.609   5.329   4.248  1.1527  0.1784 -0.3760
  952MOL0     H25629   0.363   5.317   4.277  1.3901 -0.8741 -0.7275
  952MOL0     H25630   0.190   5.121   4.652 -1.0855  0.8538  0.9141
  952MOL0     H25631   0.192   5.015   4.511  0.5824  0.8855 -2.3342
  952MOL0     H25632  -0.017   5.118   4.410  0.9040 -1.1514 -0.0265
  952MOL0     H25633  -0.021   5.244   4.521 -2.5309 -0.0388  0.3886
  952MOL0     H25634  -0.040   5.059   4.709 -0.7736 -2.2411  0.8117
  952MOL0     H25635  -0.044   4.949   4.581  1.0259  0.1097 -0.5468
  952MOL0     H25636  -0.260   5.087   4.499 -2.3901 -1.8284  0.5946
  952MOL0     H25637  -0.261   4.980   4.642  0.3104 -1.4679 -1.6618
  952MOL0     H25638  -0.231   5.273   4.651 -1.7353 -0.1372 -3.1701
  952MOL0     H25639  -0.238   5.186   4.799 -0.4580  2.0463  0.6872
  952MOL0     H25640  -0.467   5.291   4.755 -0.1825  1.0301 -0.7266
  952MOL0     H25641  -0.482   5.121   4.759  2.8268 -0.5754  0.7610
  952MOL0     H25642  -0.461   5.311   4.516  0.3003  0.8160  2.3505
  952MOL0     H25643  -0.474   5.129   4.495 -2.0788 -2.7357  1.2162
  952MOL0     H25644  -0.686   5.305   4.614 -1.4470 -1.4940  2.3823
  952MOL0     H25645  -0.680   5.129   4.620  0.3017 -0.6420 -1.0537
  952MOL0     H25646   0.419   5.105   4.651  2.6986 -0.6585  0.3747
  952MOL0     H25647   0.655   5.130   4.617  0.7165  0.7143 -0.9076
  952MOL0     H25648   1.098   5.064   4.566 -1.2503 -0.5614  0.7873
  952MOL0     H25649   1.332   5.167   4.610 -1.1393 -2.3889 -0.0555
  952MOL0     H25650   2.932   4.766   4.617  0.4140 -1.7257 -0.1420
  952MOL0     H25651   3.124   4.820   4.472  0.3315 -1.9550 -0.9330
  952MOL0     H25652   3.518   4.551   4.246 -0.2109 -1.6192  1.6277
  952MOL0     H25653   3.718   4.581   4.126  3.1560 -0.2645  1.7018
  952MOL0     H25654   3.881   4.808   4.018  0.5492 -0.7364 -1.0395
  952MOL0     H25655   3.910   4.632   4.031 -1.6341  0.9567 -1.8690
  952MOL0     H25656   4.155   4.678   4.103 -2.4616 -0.1823  2.2008
  952MOL0     H25657   4.091   4.677   3.933  0.2493 -0.7076 -0.4237
  952MOL0     H25658   4.099   4.923   4.124 -0.6181  0.4697 -0.7246
  952MOL0     H25659   4.065   4.929   3.962 -2.6045 -0.7408  1.4715
  952MOL0     H25660   4.335   4.819   4.048 -1.9094 -0.0502  0.6495
  952MOL0     H25661   4.288   4.866   3.889  0.1758  0.6257  0.5141
  952MOL0     H25662   4.368   5.248   4.070  0.4301  0.6374 -0.9138
  952MOL0     H25663   3.834   4.896   4.385 -0.9019 -0.2350  1.8855
  952MOL0     H25664   3.617   4.854   4.530 -4.6096 -0.7329 -1.7413
  953MOL0     O25665   4.815   6.978   8.755  0.6601  0.2828  0.0172
  953MOL0     C25666   4.771   6.870   8.714 -0.3098 -0.5834 -0.3051
  953MOL0     O25667   4.697   6.789   8.780  0.7355 -0.2553 -0.5403
  953MOL0     C25668   4.661   6.812   8.908 -0.8873  0.2961  0.7516
  953MOL0     C25669   4.528   6.779   8.944  0.5314  0.2491  0.8712
  953MOL0     C25670   4.489   6.777   9.075 -0.3001  0.2996 -0.3422
  953MOL0     C25671   4.577   6.810   9.171  0.0649  0.2828 -0.1036
  953MOL0     O25672   4.524   6.834   9.297 -0.1373 -0.0960 -0.1070
  953MOL0     C25673   4.619   6.832   9.412 -0.5107  0.2339  0.7966
  953MOL0     C25674   4.548   6.866   9.538  0.6395  0.2627 -0.3762
  953MOL0     C25675   4.411   6.794   9.534  0.0090  0.6589 -0.4431
  953MOL0     C25676   4.365   6.762   9.680 -1.3553 -0.2285 -0.7170
  953MOL0     C25677   4.249   6.658   9.680 -1.2556  0.4472 -0.2300
  953MOL0     C25678   4.172   6.658   9.808  0.3456 -0.4097 -0.3297
  953MOL0     C25679   4.080   6.532   9.805 -1.1023 -0.9164  0.9992
  953MOL0     C25680   4.009   6.511   9.938 -0.4917 -0.2638  0.6265
  953MOL0     N25681   4.093   6.455  10.038  0.5223  0.2803  0.7844
  953MOL0     C25682   4.191   6.360  10.025 -0.4220 -0.2122 -0.9074
  953MOL0     C25683   4.218   6.330  10.158  0.6483  0.3565 -0.1644
  953MOL0     C25684   4.306   6.216  10.199 -0.0397  0.1690 -0.7024
  953MOL0     C25685   4.233   6.079  10.216  0.4741 -0.7325 -0.2002
  953MOL0     C25686   4.113   6.082  10.322 -0.4018 -0.0999  0.8583
  953MOL0     C25687   4.161   6.101  10.454  0.0400  0.0749 -0.4542
  953MOL0     O25688   4.078   6.021  10.553 -0.4540  0.1934 -0.1452
  953MOL0     C25689   3.954   6.071  10.602 -0.1433  0.1084 -0.3961
  953MOL0     C25690   3.894   5.996  10.701  0.4115  1.0158 -0.2063
  953MOL0     C25691   3.766   6.034  10.758 -0.0695 -0.8084  0.3680
  953MOL0     C25692   3.702   6.150  10.709  0.3515  0.0205 -0.4770
  953MOL0     C25693   3.577   6.181  10.768  0.0102  0.4965  0.6374
  953MOL0     O25694   3.568   6.163  10.898 -0.6077  0.3053 -0.2466
  953MOL0     C25695   3.446   6.183  10.957  0.0187 -0.3641  0.0945
  953MOL0     C25696   3.390   6.308  10.983  0.6093 -0.5390 -0.0309
  953MOL0     C25697   3.267   6.321  11.056 -0.3428  0.3400  0.1833
  953MOL0     C25698   3.186   6.209  11.086 -0.2368 -0.2565  0.2298
  953MOL0     O25699   3.059   6.218  11.145  0.0160 -0.1382 -0.3522
  953MOL0     C25700   2.970   6.326  11.104 -0.4678 -0.4320 -0.1813
  953MOL0     C25701   2.900   6.367  11.238  0.1879 -0.1447 -0.6021
  953MOL0     C25702   2.791   6.279  11.286 -0.1630 -0.8240 -0.2369
  953MOL0     C25703   2.753   6.317  11.433  0.7883 -0.5604  0.0917
  953MOL0     C25704   2.638   6.231  11.493  0.6745  0.5119 -0.0380
  953MOL0     C25705   2.644   6.244  11.646  0.3561  0.5140 -0.6446
  953MOL0     C25706   2.527   6.178  11.714  0.3950  1.1712 -0.4917
  953MOL0     C25707   2.397   6.249  11.680 -0.0788 -1.1630  1.0554
  953MOL0    Cl25708   2.287   6.265  11.817 -0.2521 -0.6903  0.7310
  953MOL0     C25709   3.232   6.089  11.044 -0.1838 -0.3450 -0.5562
  953MOL0     C25710   3.363   6.074  10.981 -0.1367  0.5778 -0.1619
  953MOL0     O25711   3.488   6.217  10.684  0.0470 -0.3825  0.1106
  953MOL0     C25712   3.770   6.230  10.615  0.0691  0.1389  0.2462
  953MOL0     C25713   3.892   6.186  10.557  1.0635  0.3188 -0.8316
  953MOL0     N25714   4.146   6.414  10.246 -0.6859  0.5226 -0.0536
  953MOL0     N25715   4.063   6.485  10.170 -0.4782 -0.8330  0.0009
  953MOL0     C25716   4.714   6.816   9.139 -0.6710 -0.5344 -0.6706
  953MOL0     C25717   4.753   6.818   9.006  0.0885 -0.2387  0.9878
  953MOL0     C25718   4.811   6.823   8.583  0.5195 -0.0375 -0.4394
  953MOL0     C25719   4.820   6.689   8.554 -1.8188  0.0611  0.1297
  953MOL0     C25720   4.870   6.638   8.436 -0.4164  0.7284  1.0447
  953MOL0     C25721   4.893   6.722   8.326 -1.3966 -0.3633  0.3055
  953MOL0     O25722   4.928   6.681   8.204 -0.2541  0.5599 -0.3382
  953MOL0     C25723   4.892   6.553   8.156  0.8233  0.2325 -0.3058
  953MOL0     C25724   4.741   6.535   8.139  0.1944  0.3210  0.2576
  953MOL0     C25725   4.680   6.650   8.053 -0.5249  0.1942  0.5386
  953MOL0     C25726   4.708   6.641   7.902 -0.2564 -0.6922  0.5826
  953MOL0     C25727   4.702   6.505   7.850  0.5878 -0.0658 -0.5623
  953MOL0     C25728   4.688   6.401   7.792 -1.2495  0.2758 -0.4149
  953MOL0     C25729   4.893   6.858   8.356 -0.1032  0.3215  0.0347
  953MOL0     C25730   4.857   6.909   8.486 -0.4527 -0.1156  1.5011
  953MOL0     H25731   4.461   6.766   8.859 -1.2881  1.1742  2.1149
  953MOL0     H25732   4.384   6.776   9.100 -0.3881 -0.8820 -0.7062
  953MOL0     H25733   4.694   6.911   9.399 -0.8088  0.7170  1.8548
  953MOL0     H25734   4.659   6.732   9.425  0.8732  0.5866 -0.4835
  953MOL0     H25735   4.536   6.975   9.544  2.9009  0.6884 -2.2966
  953MOL0     H25736   4.600   6.829   9.627 -3.4344 -0.9409  1.7039
  953MOL0     H25737   4.416   6.696   9.486  0.7636  0.8790 -0.8328
  953MOL0     H25738   4.340   6.855   9.476 -0.2438  2.8169  1.9677
  953MOL0     H25739   4.456   6.727   9.732 -1.6266  0.5777  0.3494
  953MOL0     H25740   4.334   6.856   9.726 -2.3509  0.1160 -2.0562
  953MOL0     H25741   4.292   6.560   9.661  0.1431  1.3860 -2.2468
  953MOL0     H25742   4.181   6.689   9.600 -0.5436 -0.5765 -1.2550
  953MOL0     H25743   4.116   6.752   9.811 -0.2901 -0.7611  3.0528
  953MOL0     H25744   4.239   6.658   9.894  0.5100 -0.1716 -0.4563
  953MOL0     H25745   4.011   6.554   9.724  0.8406  1.1292 -0.2406
  953MOL0     H25746   4.148   6.450   9.784  1.2128  1.5506 -2.2156
  953MOL0     H25747   3.931   6.438   9.912 -1.0306  1.3729 -3.0129
  953MOL0     H25748   3.957   6.602   9.968 -2.8805  0.4685 -4.4688
  953MOL0     H25749   4.233   6.321   9.933  1.9479  0.9221 -0.3789
  953MOL0     H25750   4.361   6.235  10.292 -0.6984  0.8343 -0.4351
  953MOL0     H25751   4.376   6.197  10.117  0.0231  0.2391 -0.6663
  953MOL0     H25752   4.310   6.004  10.232  1.8761  0.3986 -1.3506
  953MOL0     H25753   4.183   6.059  10.121 -0.4222 -1.4574  0.4102
  953MOL0     H25754   4.042   6.162  10.299 -0.2013  0.1363  1.0494
  953MOL0     H25755   4.060   5.987  10.322  1.6473 -1.3511  2.8762
  953MOL0     H25756   4.169   6.207  10.483 -1.3439 -0.0119  0.3507
  953MOL0     H25757   4.259   6.053  10.459  0.4620  0.9901  3.8211
  953MOL0     H25758   3.929   5.898  10.733  1.1918  0.5378 -2.3405
  953MOL0     H25759   3.714   5.975  10.832  0.3270 -0.0800  1.2493
  953MOL0     H25760   3.445   6.397  10.952  4.9111 -2.5292  1.1806
  953MOL0     H25761   3.244   6.424  11.078 -1.6354 -0.1933  1.5122
  953MOL0     H25762   2.898   6.294  11.027  2.8672 -2.8234 -2.6215
  953MOL0     H25763   3.024   6.414  11.068  0.7823 -0.8121  0.7140
  953MOL0     H25764   2.856   6.465  11.217 -2.5328 -1.5045 -1.6970
  953MOL0     H25765   2.975   6.379  11.318  0.4803  1.4598 -1.0735
  953MOL0     H25766   2.823   6.175  11.281  2.7061 -0.0022 -0.6996
  953MOL0     H25767   2.709   6.294  11.215 -0.2169 -2.4152 -0.5559
  953MOL0     H25768   2.835   6.314  11.505  1.6068  0.1297 -0.7958
  953MOL0     H25769   2.720   6.420  11.416  2.3530 -0.0629 -0.1020
  953MOL0     H25770   2.639   6.125  11.469 -0.5378  0.9747 -2.4694
  953MOL0     H25771   2.543   6.267  11.453  0.2731 -0.3700  0.0979
  953MOL0     H25772   2.643   6.352  11.663  0.4018  0.6030 -1.1792
  953MOL0     H25773   2.744   6.214  11.680  0.4330  0.4237 -0.9531
  953MOL0     H25774   2.520   6.072  11.692 -3.6746  1.0556  0.5004
  953MOL0     H25775   2.546   6.186  11.822  0.1678  2.5849 -0.5346
  953MOL0     H25776   2.342   6.179  11.618  0.6678  0.0941 -1.1365
  953MOL0     H25777   2.419   6.338  11.620 -0.6134 -1.7686 -0.0476
  953MOL0     H25778   3.172   6.002  11.069  0.3950 -2.7045 -5.9463
  953MOL0     H25779   3.392   5.971  10.960 -1.0811  0.1635  0.5268
  953MOL0     H25780   3.715   6.315  10.577 -0.4215 -0.4192 -0.3109
  953MOL0     H25781   3.937   6.252  10.484 -0.4052  2.8168  0.3957
  953MOL0     H25782   4.792   6.834   9.212 -0.4019 -0.2566 -1.0229
  953MOL0     H25783   4.857   6.841   8.983 -0.0736 -1.3977 -1.1053
  953MOL0     H25784   4.807   6.621   8.638  1.8600 -0.3268  0.5844
  953MOL0     H25785   4.872   6.531   8.422  3.0871  0.9138 -0.8699
  953MOL0     H25786   4.934   6.465   8.205 -2.1453 -3.2318 -3.3465
  953MOL0     H25787   4.936   6.536   8.057  2.3041 -0.6147  0.4798
  953MOL0     H25788   4.731   6.442   8.082  4.4341 -1.8561  2.5821
  953MOL0     H25789   4.686   6.511   8.230  2.9123 -0.6621  1.7539
  953MOL0     H25790   4.723   6.745   8.087  1.5210 -1.1851  2.0415
  953MOL0     H25791   4.571   6.651   8.063 -0.3574  0.3985  2.9908
  953MOL0     H25792   4.636   6.706   7.851  3.3307  2.9809 -0.4030
  953MOL0     H25793   4.807   6.685   7.885 -0.5656  1.1045  2.9173
  953MOL0     H25794   4.662   6.301   7.761 -1.2322 -0.3462  1.4028
  953MOL0     H25795   4.921   6.937   8.287  0.7488 -1.3636 -1.6152
  953MOL0     H25796   4.863   7.016   8.503 -1.2931  0.3846 -0.8551
  954MOL0     O25797   0.984   4.679   5.676  0.2169 -0.5556 -0.3553
  954MOL0     C25798   1.002   4.716   5.559  0.5290 -0.6637  0.1739
  954MOL0     O25799   0.904   4.784   5.488 -0.6932  0.5509  0.7119
  954MOL0     C25800   0.776   4.784   5.543  0.9320  1.0818  0.3799
  954MOL0     C25801   0.748   4.834   5.669  0.1630  0.0829 -1.2986
  954MOL0     C25802   0.620   4.876   5.714  0.1895  0.6357  0.2869
  954MOL0     C25803   0.508   4.859   5.627 -0.2745  0.0094  0.0497
  954MOL0     O25804   0.380   4.905   5.638 -0.0192  0.1443  0.1907
  954MOL0     C25805   0.309   4.928   5.770 -0.1335  0.4847 -0.6380
  954MOL0     C25806   0.167   4.968   5.729 -0.6669  0.6744 -1.3978
  954MOL0     C25807   0.081   5.001   5.848  0.0975 -0.2267 -0.4176
  954MOL0     C25808   0.029   4.877   5.915 -0.1987  0.0330 -0.1256
  954MOL0     C25809  -0.029   4.891   6.060 -0.6989  0.2639  0.6197
  954MOL0     C25810  -0.087   4.760   6.130  0.3151 -0.7336 -0.0452
  954MOL0     C25811  -0.117   4.799   6.275  0.5400  0.2013  0.4117
  954MOL0     C25812  -0.222   4.914   6.303 -0.9527  0.8185  0.0425
  954MOL0     N25813  -0.341   4.874   6.225  0.0948 -0.3693  0.4220
  954MOL0     C25814  -0.366   4.899   6.091  0.2267 -0.3441 -0.4742
  954MOL0     C25815  -0.508   4.866   6.084 -0.1270 -0.4451 -0.7145
  954MOL0     C25816  -0.605   4.857   5.972 -0.5508  0.5646  0.2606
  954MOL0     C25817  -0.667   4.998   5.944  0.6791 -0.0568 -0.2743
  954MOL0     C25818  -0.735   5.075   6.071 -0.6175  0.5378  0.5077
  954MOL0     C25819  -0.865   4.999   6.113  0.0294  0.0882  0.1574
  954MOL0     O25820  -0.978   5.077   6.131 -0.7303 -0.2132 -0.6828
  954MOL0     C25821  -1.086   5.014   6.171  0.9232  0.2546 -0.2309
  954MOL0     C25822  -1.196   5.090   6.197 -0.6981  0.1060  0.8807
  954MOL0     C25823  -1.318   5.042   6.239 -0.0622 -0.5107 -0.5778
  954MOL0     C25824  -1.346   4.898   6.231 -0.5012  0.4452  0.4563
  954MOL0     C25825  -1.486   4.853   6.242  1.5635  0.4681  0.3213
  954MOL0     O25826  -1.504   4.717   6.221  0.2784  0.3158 -0.0323
  954MOL0     C25827  -1.630   4.679   6.240  0.0583  0.3209 -0.2835
  954MOL0     C25828  -1.710   4.719   6.347  0.2735 -0.1345 -1.3305
  954MOL0     C25829  -1.829   4.653   6.374 -0.3963 -0.4306 -1.1019
  954MOL0     C25830  -1.879   4.561   6.276  1.1392  0.1226  0.8826
  954MOL0     O25831  -2.000   4.495   6.281  0.4422  0.0347 -0.0145
  954MOL0     C25832  -2.065   4.512   6.410 -0.1593  0.3782  0.0775
  954MOL0     C25833  -2.189   4.419   6.415 -0.0436  0.7214  0.0186
  954MOL0     C25834  -2.299   4.461   6.518  0.2010  0.1209 -0.1536
  954MOL0     C25835  -2.424   4.370   6.496  0.0611 -1.0689  0.5126
  954MOL0     C25836  -2.514   4.376   6.624 -0.5715  0.1657  0.2118
  954MOL0     C25837  -2.628   4.273   6.609 -0.9147 -0.2375  0.3933
  954MOL0     C25838  -2.717   4.294   6.734 -0.5523 -0.1524 -0.0888
  954MOL0     C25839  -2.842   4.205   6.734 -1.2694 -1.4428  0.3805
  954MOL0    Cl25840  -2.939   4.243   6.586 -0.1363 -0.0512 -0.3249
  954MOL0     C25841  -1.816   4.539   6.161  0.3296 -0.7976  0.2850
  954MOL0     C25842  -1.690   4.596   6.139 -0.5753  0.6004 -0.0121
  954MOL0     O25843  -1.576   4.932   6.276  0.2653 -0.2856 -0.2043
  954MOL0     C25844  -1.230   4.814   6.198 -0.4032 -1.0117 -0.2487
  954MOL0     C25845  -1.101   4.872   6.174 -0.1268  0.6556  0.4779
  954MOL0     N25846  -0.553   4.818   6.207  0.3709 -0.4380  0.4792
  954MOL0     N25847  -0.455   4.831   6.291 -0.6973 -0.1261 -0.5534
  954MOL0     C25848   0.536   4.799   5.498  0.2726 -0.4398 -0.3169
  954MOL0     C25849   0.663   4.770   5.460 -0.0626 -0.2245 -0.6313
  954MOL0     C25850   1.131   4.684   5.491 -0.0079 -0.3629 -0.5400
  954MOL0     C25851   1.218   4.581   5.534  0.1900 -0.2448  0.0502
  954MOL0     C25852   1.341   4.556   5.468  0.5424  0.1141  0.4870
  954MOL0     C25853   1.370   4.621   5.346  0.9083  0.5033 -0.5780
  954MOL0     O25854   1.496   4.607   5.281  0.2031  0.5495 -0.1574
  954MOL0     C25855   1.551   4.707   5.197 -0.3415 -0.1574  0.4238
  954MOL0     C25856   1.701   4.700   5.195  1.4169 -1.0035 -0.6348
  954MOL0     C25857   1.759   4.595   5.100 -0.0485 -0.2701 -0.8508
  954MOL0     C25858   1.909   4.576   5.120  0.5005 -0.3640  0.1841
  954MOL0     C25859   1.981   4.705   5.122  0.5481  0.3007 -0.4387
  954MOL0     C25860   2.034   4.812   5.133  0.0525 -0.8872 -0.0404
  954MOL0     C25861   1.275   4.716   5.304  0.6909  0.3429  0.5725
  954MOL0     C25862   1.165   4.754   5.379  0.3562 -0.8283 -0.2689
  954MOL0     H25863   0.841   4.857   5.721  1.0861  1.8016 -3.5522
  954MOL0     H25864   0.614   4.930   5.808  1.6099  1.1591  0.0972
  954MOL0     H25865   0.355   5.016   5.817 -0.0855  0.2835 -0.3086
  954MOL0     H25866   0.313   4.839   5.833  1.7091  0.6557 -0.4666
  954MOL0     H25867   0.125   4.883   5.674  1.3899 -0.7127 -0.9344
  954MOL0     H25868   0.174   5.060   5.671  0.8974  0.8244 -1.0231
  954MOL0     H25869  -0.004   5.066   5.826  1.0328  1.7402  1.3851
  954MOL0     H25870   0.141   5.065   5.914 -0.4537  0.9891 -1.0585
  954MOL0     H25871  -0.046   4.831   5.850 -2.0074  1.4289  0.8561
  954MOL0     H25872   0.117   4.813   5.927  2.4617  3.4093 -0.1813
  954MOL0     H25873  -0.098   4.976   6.071  0.4489  1.0585  1.9763
  954MOL0     H25874   0.056   4.926   6.119 -0.0193  2.5782 -1.5508
  954MOL0     H25875  -0.005   4.689   6.122  0.7706 -0.1450 -0.7481
  954MOL0     H25876  -0.181   4.720   6.091 -1.0026  0.6452  1.5306
  954MOL0     H25877  -0.151   4.706   6.322  0.5290 -1.4100 -2.5524
  954MOL0     H25878  -0.020   4.829   6.316  1.8445  0.0677 -2.3398
  954MOL0     H25879  -0.180   5.015   6.292 -0.6572  0.7343  0.3476
  954MOL0     H25880  -0.252   4.918   6.408  1.4678  2.1292  0.7735
  954MOL0     H25881  -0.301   4.927   6.010  1.0152  2.5537  1.0498
  954MOL0     H25882  -0.681   4.784   6.001  1.0285  0.0987  3.6717
  954MOL0     H25883  -0.544   4.822   5.887  1.0649  2.3170  0.6246
  954MOL0     H25884  -0.748   4.996   5.871 -1.5081  3.2902  1.7852
  954MOL0     H25885  -0.596   5.066   5.897 -3.4352  1.5515 -5.0267
  954MOL0     H25886  -0.658   5.077   6.148 -1.3145  0.7943  1.2069
  954MOL0     H25887  -0.760   5.181   6.055  1.2608  0.7196 -1.7141
  954MOL0     H25888  -0.839   4.955   6.210  0.7346  0.1057 -0.0186
  954MOL0     H25889  -0.882   4.924   6.035  3.1497 -0.8518  0.2470
  954MOL0     H25890  -1.186   5.198   6.193  0.1928  0.2215  3.8264
  954MOL0     H25891  -1.396   5.106   6.277  1.1184  0.6028  0.0400
  954MOL0     H25892  -1.679   4.787   6.426 -0.9825 -1.3110  0.2627
  954MOL0     H25893  -1.877   4.668   6.470 -0.7190 -2.2529 -0.9255
  954MOL0     H25894  -2.104   4.614   6.417  0.2520  0.4411  2.1157
  954MOL0     H25895  -1.996   4.487   6.491  0.1635 -2.6598 -1.0051
  954MOL0     H25896  -2.158   4.317   6.440 -2.4966 -0.3750 -1.0543
  954MOL0     H25897  -2.237   4.419   6.317 -2.2462 -2.3377  0.9377
  954MOL0     H25898  -2.320   4.567   6.501 -3.4258 -0.6229 -1.1469
  954MOL0     H25899  -2.261   4.456   6.621  2.2705 -2.2103 -0.9300
  954MOL0     H25900  -2.490   4.388   6.411 -0.4683  1.4259  1.3804
  954MOL0     H25901  -2.385   4.269   6.482 -0.1858 -0.8821 -2.0068
  954MOL0     H25902  -2.553   4.478   6.630 -1.8392 -0.3445  1.1960
  954MOL0     H25903  -2.455   4.357   6.714 -1.8808  2.6049  1.6982
  954MOL0     H25904  -2.584   4.174   6.594 -0.6132  0.1980 -2.0032
  954MOL0     H25905  -2.675   4.301   6.515  0.5225  0.2296 -0.2056
  954MOL0     H25906  -2.658   4.285   6.825 -1.4464 -0.0840  0.5133
  954MOL0     H25907  -2.753   4.398   6.733  2.3336  0.9574  1.0651
  954MOL0     H25908  -2.903   4.223   6.823 -3.2879 -2.7228 -0.6581
  954MOL0     H25909  -2.810   4.101   6.734  0.6409 -0.8881 -0.4177
  954MOL0     H25910  -1.860   4.457   6.105 -0.9094  0.2671 -0.3519
  954MOL0     H25911  -1.633   4.550   6.060 -1.1861 -1.3865  0.6221
  954MOL0     H25912  -1.249   4.708   6.203 -1.0149 -0.8928  0.0063
  954MOL0     H25913  -1.019   4.809   6.139 -2.0594 -1.1643 -1.0103
  954MOL0     H25914   0.459   4.798   5.422  0.1996  0.4019 -0.2625
  954MOL0     H25915   0.691   4.743   5.358 -0.0871  2.2239 -1.3631
  954MOL0     H25916   1.197   4.543   5.633 -0.5502 -1.6761 -0.6366
  954MOL0     H25917   1.424   4.494   5.500 -2.2582 -4.0144  0.5117
  954MOL0     H25918   1.509   4.797   5.241 -6.3208 -2.1362 -0.3146
  954MOL0     H25919   1.523   4.697   5.092  0.4273  0.5046  0.1428
  954MOL0     H25920   1.749   4.794   5.167  0.6058 -0.6680 -0.9222
  954MOL0     H25921   1.729   4.683   5.300 -0.5173 -3.3214 -0.4007
  954MOL0     H25922   1.748   4.626   4.996  0.8262  2.1211 -0.2997
  954MOL0     H25923   1.708   4.500   5.117  0.8595 -0.5466  0.5588
  954MOL0     H25924   1.923   4.517   5.211 -1.3583 -1.2052 -0.0387
  954MOL0     H25925   1.944   4.507   5.041 -1.7260 -2.0196  0.5515
  954MOL0     H25926   2.069   4.913   5.147  0.0820 -1.0167  0.8855
  954MOL0     H25927   1.285   4.744   5.199  2.4601 -1.8926  0.0714
  954MOL0     H25928   1.100   4.835   5.346  0.5343 -1.4798 -2.3450
  955MOL0     O25929   2.770   5.492   8.613  0.5352 -0.2517  0.6347
  955MOL0     C25930   2.728   5.559   8.522  0.7850  0.4168  0.5092
  955MOL0     O25931   2.596   5.600   8.509  0.9424 -0.4745  0.3304
  955MOL0     C25932   2.509   5.601   8.621  0.1633 -0.0738 -0.3785
  955MOL0     C25933   2.396   5.508   8.631  0.3536  0.4703 -0.9053
  955MOL0     C25934   2.305   5.520   8.739 -0.3240  0.9368 -0.0180
  955MOL0     C25935   2.329   5.616   8.838  1.3632  0.4139  0.9472
  955MOL0     O25936   2.263   5.632   8.956 -0.2460 -0.8825 -0.4000
  955MOL0     C25937   2.147   5.554   8.980 -0.8503  0.3213  0.7842
  955MOL0     C25938   2.062   5.599   9.100 -0.3897 -0.3449 -0.2327
  955MOL0     C25939   1.928   5.540   9.114 -0.4558  0.4157  0.0224
  955MOL0     C25940   1.877   5.551   9.258  0.2093  0.2669 -0.7778
  955MOL0     C25941   1.739   5.480   9.274  0.1062 -0.5551 -0.0214
  955MOL0     C25942   1.678   5.490   9.420  0.4453  0.1931 -0.4094
  955MOL0     C25943   1.604   5.360   9.461  0.4328  0.1948  0.6165
  955MOL0     C25944   1.529   5.393   9.597 -0.3892 -0.5295  0.8840
  955MOL0     N25945   1.475   5.273   9.659  0.7899  0.4647  0.0388
  955MOL0     C25946   1.346   5.229   9.654 -0.4546  0.4368 -0.5485
  955MOL0     C25947   1.352   5.111   9.712 -0.3029  0.2249 -0.2273
  955MOL0     C25948   1.238   5.011   9.729  0.5336  0.3795  0.1078
  955MOL0     C25949   1.192   4.974   9.874 -0.6405 -0.3517 -0.6823
  955MOL0     C25950   1.057   4.902   9.869 -0.2638  0.7310  0.0354
  955MOL0     C25951   1.023   4.875  10.012  0.5295 -0.2687 -1.1664
  955MOL0     O25952   0.898   4.810  10.021 -0.2242 -0.2710  0.1322
  955MOL0     C25953   0.829   4.816  10.135  0.1698 -0.4740  0.2388
  955MOL0     C25954   0.868   4.878  10.254  0.5600  0.3351  0.1569
  955MOL0     C25955   0.770   4.899  10.352  0.0622  0.0340 -0.6867
  955MOL0     C25956   0.633   4.856  10.333  0.1030 -0.5265  0.3126
  955MOL0     C25957   0.527   4.882  10.434 -0.1822 -0.8127 -0.7086
  955MOL0     O25958   0.409   4.817  10.419 -0.0072 -0.2455 -0.2901
  955MOL0     C25959   0.336   4.790  10.529  0.1673 -0.6561 -0.1122
  955MOL0     C25960   0.397   4.739  10.651  1.0092 -0.2261 -0.1510
  955MOL0     C25961   0.318   4.689  10.760 -0.4250 -0.0935 -0.2211
  955MOL0     C25962   0.180   4.691  10.755 -0.2259 -0.1053 -0.1095
  955MOL0     O25963   0.108   4.671  10.867 -0.3793  0.7324 -0.0601
  955MOL0     C25964   0.147   4.577  10.968  0.3008  0.6096 -0.3278
  955MOL0     C25965   0.144   4.425  10.916 -0.0496 -0.3394  0.5073
  955MOL0     C25966   0.001   4.387  10.868  0.3077 -0.8741  0.7325
  955MOL0     C25967  -0.107   4.402  10.978 -0.2894  0.3472 -1.1111
  955MOL0     C25968  -0.247   4.371  10.940  0.3026 -0.2983  0.3587
  955MOL0     C25969  -0.263   4.231  10.871  0.4470 -0.1713  0.3534
  955MOL0     C25970  -0.416   4.198  10.837 -0.1491 -0.2493  0.6640
  955MOL0     C25971  -0.479   4.277  10.720 -0.7040  0.1277 -0.1589
  955MOL0    Cl25972  -0.642   4.216  10.709  0.1854  0.2240 -0.1022
  955MOL0     C25973   0.121   4.733  10.634  0.7148 -0.0864  0.5299
  955MOL0     C25974   0.200   4.784  10.525  0.6606 -1.1545 -0.1862
  955MOL0     O25975   0.566   4.942  10.540  0.2015  0.6928  0.0798
  955MOL0     C25976   0.599   4.789  10.213  0.4239 -0.9230 -0.4068
  955MOL0     C25977   0.700   4.768  10.118  0.4409 -0.7573 -0.5938
  955MOL0     N25978   1.484   5.089   9.758 -0.0257  0.0730 -0.0547
  955MOL0     N25979   1.558   5.186   9.715 -0.4037 -0.9329 -0.6459
  955MOL0     C25980   2.440   5.694   8.834  0.4214  0.6805  0.1630
  955MOL0     C25981   2.531   5.687   8.732  0.2430  0.4275  0.6028
  955MOL0     C25982   2.831   5.603   8.420 -0.8326 -0.3854 -0.1484
  955MOL0     C25983   2.792   5.705   8.329  0.1861 -0.9797  0.2669
  955MOL0     C25984   2.892   5.754   8.243 -0.2934 -0.1505  1.2120
  955MOL0     C25985   3.022   5.702   8.240  0.5971 -0.0787 -0.5742
  955MOL0     O25986   3.108   5.750   8.148  0.9118  0.2926 -0.1220
  955MOL0     C25987   3.199   5.660   8.086  1.3793  0.3875 -0.3425
  955MOL0     C25988   3.235   5.706   7.954 -0.3677 -0.0952  0.3737
  955MOL0     C25989   3.103   5.739   7.863 -0.4586  0.1790 -0.1157
  955MOL0     C25990   3.132   5.746   7.716  0.0014  0.0601  0.0979
  955MOL0     C25991   3.131   5.613   7.658 -0.2055  0.2955 -0.2505
  955MOL0     C25992   3.137   5.496   7.628  0.5144  0.5956  0.5931
  955MOL0     C25993   3.050   5.599   8.321  1.1226  0.2358 -0.0827
  955MOL0     C25994   2.959   5.548   8.418 -0.0712 -0.7092  1.0029
  955MOL0     H25995   2.369   5.440   8.551 -1.5387  2.0133 -1.6862
  955MOL0     H25996   2.218   5.455   8.736  1.4877 -1.7497  1.1228
  955MOL0     H25997   2.156   5.445   8.985 -3.4201  0.1137  2.4570
  955MOL0     H25998   2.086   5.567   8.890  0.2751 -1.6612 -0.3433
  955MOL0     H25999   2.037   5.705   9.092  0.9951  0.1212  1.0865
  955MOL0     H26000   2.121   5.589   9.192 -3.2579 -2.0679  1.5496
  955MOL0     H26001   1.934   5.432   9.097  1.9533  0.4572  0.2593
  955MOL0     H26002   1.847   5.578   9.051  0.8877 -1.2257 -2.8869
  955MOL0     H26003   1.944   5.495   9.323 -1.4113 -3.0861 -1.7856
  955MOL0     H26004   1.866   5.651   9.302  2.2968 -1.3373  4.0670
  955MOL0     H26005   1.758   5.374   9.256  1.0093 -0.2856 -0.7084
  955MOL0     H26006   1.666   5.513   9.200  0.3590  2.2379  0.8327
  955MOL0     H26007   1.617   5.575   9.449 -0.5139 -1.6218  3.5285
  955MOL0     H26008   1.765   5.514   9.482  0.2851 -1.3811  0.4783
  955MOL0     H26009   1.538   5.323   9.382  4.3110  3.0386 -4.5865
  955MOL0     H26010   1.680   5.282   9.476 -1.1033 -1.2005  1.4844
  955MOL0     H26011   1.450   5.468   9.587  0.4510  0.2601 -0.0815
  955MOL0     H26012   1.603   5.434   9.667 -0.9430  2.3712 -0.0938
  955MOL0     H26013   1.254   5.271   9.613 -0.4035  2.2281  0.9826
  955MOL0     H26014   1.273   4.914   9.690 -0.1093 -0.1762  0.8881
  955MOL0     H26015   1.164   5.044   9.656  1.9176 -0.0403 -1.5510
  955MOL0     H26016   1.194   5.062   9.939  2.0261  0.3329 -1.5955
  955MOL0     H26017   1.272   4.910   9.914 -0.6901 -0.7888 -1.2730
  955MOL0     H26018   0.982   4.965   9.821  0.2767  0.7867 -0.7599
  955MOL0     H26019   1.074   4.805   9.820 -2.5436  0.2831  0.0319
  955MOL0     H26020   1.025   4.966  10.072 -0.8623 -1.3626  0.6031
  955MOL0     H26021   1.108   4.819  10.052 -2.1359 -2.5231  1.8223
  955MOL0     H26022   0.963   4.928  10.272  0.6990  0.8018 -1.6916
  955MOL0     H26023   0.794   4.970  10.431 -0.2534 -0.0787 -0.4859
  955MOL0     H26024   0.503   4.724  10.667  1.9830  2.2877 -3.2637
  955MOL0     H26025   0.363   4.641  10.846  2.6406 -2.6579 -2.9944
  955MOL0     H26026   0.085   4.585  11.058 -0.3452 -0.5553 -0.6498
  955MOL0     H26027   0.251   4.579  11.002  0.3909 -1.4861 -0.3513
  955MOL0     H26028   0.171   4.365  11.003  0.5905  5.2693  4.7243
  955MOL0     H26029   0.218   4.399  10.840  0.7285  0.4832  0.9803
  955MOL0     H26030  -0.000   4.288  10.823  1.0049  0.1291 -1.6255
  955MOL0     H26031  -0.033   4.441  10.780 -2.1669  0.7629  2.5391
  955MOL0     H26032  -0.083   4.328  11.054  1.4436  0.7808 -1.1911
  955MOL0     H26033  -0.103   4.494  11.037  2.2406  0.6045 -1.5687
  955MOL0     H26034  -0.290   4.436  10.864 -3.4006  0.3987  2.8188
  955MOL0     H26035  -0.311   4.384  11.027 -0.7866  2.6180 -0.7473
  955MOL0     H26036  -0.233   4.149  10.937 -4.1565 -1.4492  1.1964
  955MOL0     H26037  -0.209   4.223  10.776 -0.4278 -0.4808 -0.1299
  955MOL0     H26038  -0.420   4.090  10.821 -0.4795 -0.3535  1.4024
  955MOL0     H26039  -0.487   4.200  10.920 -0.2090  1.0534  0.5933
  955MOL0     H26040  -0.436   4.245  10.625  2.7531 -0.9555  1.5900
  955MOL0     H26041  -0.472   4.384  10.739 -2.0830  0.9027 -3.3452
  955MOL0     H26042   0.013   4.741  10.636  0.6852  0.3149 -1.1495
  955MOL0     H26043   0.144   4.817  10.439 -0.4854  0.3545  1.0773
  955MOL0     H26044   0.493   4.784  10.189  0.8557  0.9288 -3.1166
  955MOL0     H26045   0.692   4.710  10.026 -0.9177 -0.5479 -0.6199
  955MOL0     H26046   2.457   5.777   8.903  0.2648  1.5289 -0.8047
  955MOL0     H26047   2.623   5.744   8.742  0.5171  0.1575 -0.2423
  955MOL0     H26048   2.694   5.753   8.328 -0.1296 -1.6089  0.5529
  955MOL0     H26049   2.864   5.815   8.158 -0.5282 -0.3304  1.1604
  955MOL0     H26050   3.156   5.559   8.082 -0.5643  0.9091  3.0237
  955MOL0     H26051   3.288   5.653   8.150  1.4869 -1.3757 -0.6322
  955MOL0     H26052   3.310   5.786   7.957 -0.2674 -0.2286  2.1773
  955MOL0     H26053   3.292   5.626   7.906 -1.8604  0.1240 -1.9381
  955MOL0     H26054   3.064   5.836   7.896  0.1452  0.5054 -0.3407
  955MOL0     H26055   3.015   5.678   7.885 -2.1378  1.9771 -1.4355
  955MOL0     H26056   3.049   5.799   7.669 -0.7103  0.6691  1.9395
  955MOL0     H26057   3.219   5.808   7.692  0.6595 -1.2545 -1.0309
  955MOL0     H26058   3.166   5.396   7.604 -0.8542  0.9792 -3.4755
  955MOL0     H26059   3.151   5.560   8.325  0.9113 -0.3531 -0.2153
  955MOL0     H26060   2.985   5.461   8.478  0.7033 -0.9256  0.3628
  956MOL0     O26061   1.226   5.475   3.552  0.0953  0.2035 -0.1117
  956MOL0     C26062   1.273   5.364   3.522  0.2336 -0.4297 -0.3619
  956MOL0     O26063   1.205   5.249   3.521  0.2384 -0.0561  0.4806
  956MOL0     C26064   1.072   5.247   3.561  0.1314  0.1412  1.1254
  956MOL0     C26065   0.972   5.236   3.460 -0.0181  0.4710  0.2498
  956MOL0     C26066   0.835   5.245   3.496  0.5426 -0.3610 -0.3630
  956MOL0     C26067   0.804   5.257   3.630 -0.5369  0.0252  0.3623
  956MOL0     O26068   0.665   5.250   3.664  0.1473 -0.2482 -0.0919
  956MOL0     C26069   0.634   5.336   3.778  0.1798  0.6897  0.3104
  956MOL0     C26070   0.485   5.337   3.789 -0.3685 -0.1996  0.8602
  956MOL0     C26071   0.440   5.422   3.902 -0.1141 -0.1126 -0.2150
  956MOL0     C26072   0.282   5.424   3.915 -0.0748 -0.2447  0.4573
  956MOL0     C26073   0.244   5.533   4.018 -0.7648  0.2768  0.0488
  956MOL0     C26074   0.093   5.521   4.055  0.1470  0.8401 -0.2708
  956MOL0     C26075   0.048   5.400   4.131  0.7059  0.7436  0.2775
  956MOL0     C26076  -0.085   5.431   4.200  0.1900 -0.1624 -0.1912
  956MOL0     N26077  -0.192   5.455   4.103 -0.2534 -0.1988  0.4650
  956MOL0     C26078  -0.260   5.369   4.024  0.6478 -0.1895 -0.6222
  956MOL0     C26079  -0.343   5.433   3.943  0.3541  0.2567  0.2490
  956MOL0     C26080  -0.414   5.361   3.837  0.6565  0.9485 -0.0014
  956MOL0     C26081  -0.567   5.382   3.852  0.0650 -0.2220 -0.1768
  956MOL0     C26082  -0.638   5.302   3.962 -0.7996  0.2518  0.2442
  956MOL0     C26083  -0.784   5.337   3.962 -1.3637  0.6177  0.2584
  956MOL0     O26084  -0.838   5.304   4.094 -0.9924 -1.1064 -0.0428
  956MOL0     C26085  -0.966   5.345   4.127  0.3930 -0.4968 -0.5401
  956MOL0     C26086  -1.018   5.471   4.084 -0.0108  0.8239 -0.3626
  956MOL0     C26087  -1.142   5.518   4.121  0.4474 -0.0278  0.0737
  956MOL0     C26088  -1.218   5.433   4.202 -0.9230 -0.2744  0.5399
  956MOL0     C26089  -1.359   5.474   4.243 -0.8215 -0.0286 -0.2433
  956MOL0     O26090  -1.418   5.580   4.182 -0.3659  0.7690  0.4155
  956MOL0     C26091  -1.538   5.616   4.221 -0.4164 -1.4652  0.2542
  956MOL0     C26092  -1.642   5.528   4.219  0.0832  0.1510 -0.2591
  956MOL0     C26093  -1.775   5.568   4.244 -0.2372 -1.1521  0.2087
  956MOL0     C26094  -1.813   5.701   4.263  0.4701 -0.3290 -0.8407
  956MOL0     O26095  -1.951   5.729   4.268  0.1155  0.1593 -0.2635
  956MOL0     C26096  -2.032   5.744   4.389 -0.2896 -0.0499  0.1263
  956MOL0     C26097  -2.133   5.634   4.388  0.5358 -0.4454  0.5257
  956MOL0     C26098  -2.281   5.653   4.336 -0.2365 -0.0480 -0.3165
  956MOL0     C26099  -2.353   5.745   4.440 -0.9040  1.2145  0.6581
  956MOL0     C26100  -2.484   5.773   4.365  0.1737 -0.7326  0.1718
  956MOL0     C26101  -2.573   5.869   4.434  0.2847 -0.6126  0.3854
  956MOL0     C26102  -2.717   5.886   4.372  0.4783 -0.3329  0.8298
  956MOL0     C26103  -2.807   5.962   4.471 -0.2013 -0.4681  0.2537
  956MOL0    Cl26104  -2.973   6.013   4.414 -0.0708  0.3041 -0.3854
  956MOL0     C26105  -1.707   5.789   4.259 -0.8405  0.4523  0.1934
  956MOL0     C26106  -1.569   5.753   4.242  0.8524 -0.8155 -0.1153
  956MOL0     O26107  -1.403   5.411   4.343 -0.1872 -0.6433 -0.8148
  956MOL0     C26108  -1.175   5.302   4.241 -0.0449  0.1648 -0.9546
  956MOL0     C26109  -1.047   5.265   4.212 -0.1212  0.2869  0.0790
  956MOL0     N26110  -0.324   5.563   3.976 -0.0796 -0.3637  0.8453
  956MOL0     N26111  -0.225   5.581   4.061  0.2387 -0.5506  0.0118
  956MOL0     C26112   0.904   5.292   3.727 -0.9831  0.1648 -0.1303
  956MOL0     C26113   1.036   5.285   3.683  0.4374  0.4195  0.0873
  956MOL0     C26114   1.423   5.359   3.496  0.4607  0.0763 -0.3949
  956MOL0     C26115   1.505   5.475   3.479  0.1873 -0.4325 -0.7207
  956MOL0     C26116   1.641   5.466   3.455 -0.3175 -0.0406  0.1325
  956MOL0     C26117   1.702   5.345   3.453  0.6575  0.3257 -0.5411
  956MOL0     O26118   1.840   5.355   3.464  0.1819 -0.5381 -0.4165
  956MOL0     C26119   1.924   5.240   3.465  1.1389  0.2406 -0.0983
  956MOL0     C26120   2.073   5.274   3.447 -0.8085 -0.2175  0.9895
  956MOL0     C26121   2.142   5.308   3.575  0.3383  0.4730  0.0149
  956MOL0     C26122   2.059   5.406   3.652 -0.8366 -0.2695  0.0657
  956MOL0     C26123   2.071   5.537   3.597 -0.2919  0.1547 -0.2711
  956MOL0     C26124   2.072   5.641   3.536  0.0035  0.1467  0.0361
  956MOL0     C26125   1.631   5.230   3.461  0.6299 -1.6529 -0.2835
  956MOL0     C26126   1.492   5.237   3.485 -0.7368  0.4913  0.1487
  956MOL0     H26127   0.998   5.227   3.355  1.8618 -2.9936  0.8706
  956MOL0     H26128   0.754   5.240   3.424 -2.2236  0.6906  2.4779
  956MOL0     H26129   0.665   5.440   3.761 -0.7209  1.1294  1.2428
  956MOL0     H26130   0.677   5.288   3.867  0.2698  0.3435  0.0840
  956MOL0     H26131   0.439   5.238   3.794  0.6031 -0.8239 -1.3538
  956MOL0     H26132   0.441   5.388   3.702  0.7573 -0.9317 -0.1809
  956MOL0     H26133   0.476   5.524   3.886 -0.0864 -0.0730  0.0911
  956MOL0     H26134   0.478   5.379   3.995 -3.3364  0.2885  1.4160
  956MOL0     H26135   0.247   5.459   3.818  2.7392  0.0499 -0.5289
  956MOL0     H26136   0.235   5.332   3.949 -1.7881  0.7080  0.7817
  956MOL0     H26137   0.264   5.635   3.983  1.2623  0.8869  2.6724
  956MOL0     H26138   0.313   5.514   4.101  1.8327 -1.0310 -2.2317
  956MOL0     H26139   0.028   5.531   3.968 -0.8688  1.1616  0.5080
  956MOL0     H26140   0.067   5.608   4.116 -0.0307  0.6600 -0.0880
  956MOL0     H26141   0.036   5.315   4.063  1.9511  0.0768  0.8618
  956MOL0     H26142   0.123   5.371   4.205  1.3151  0.0068 -0.6063
  956MOL0     H26143  -0.062   5.514   4.268 -0.7097  0.6118 -0.8180
  956MOL0     H26144  -0.116   5.342   4.256 -2.4088  0.0697 -1.1402
  956MOL0     H26145  -0.251   5.262   4.010 -4.3171 -0.3954 -5.9105
  956MOL0     H26146  -0.399   5.253   3.847 -0.9692  0.8386  2.0032
  956MOL0     H26147  -0.392   5.410   3.742 -2.5369 -0.0024 -1.3584
  956MOL0     H26148  -0.616   5.356   3.758  2.4925  0.8349 -1.8556
  956MOL0     H26149  -0.585   5.489   3.870 -0.3394  0.3817 -3.4574
  956MOL0     H26150  -0.620   5.195   3.947  2.3363  0.7061  0.0297
  956MOL0     H26151  -0.582   5.316   4.055  0.7946  2.0958 -0.9004
  956MOL0     H26152  -0.822   5.282   3.875  3.6919  2.0778 -3.3220
  956MOL0     H26153  -0.786   5.443   3.938 -0.9361  0.9193  1.4608
  956MOL0     H26154  -0.960   5.533   4.017 -1.6358  0.7445 -1.8938
  956MOL0     H26155  -1.181   5.615   4.093  0.0169 -0.8190 -2.3394
  956MOL0     H26156  -1.620   5.424   4.196  3.5983  0.6418  0.3335
  956MOL0     H26157  -1.861   5.503   4.259 -2.3479  1.0931 -1.2849
  956MOL0     H26158  -2.075   5.845   4.385 -0.3479  0.0518  2.3662
  956MOL0     H26159  -1.967   5.736   4.476  1.6989  1.8232 -1.0629
  956MOL0     H26160  -2.132   5.599   4.491 -1.3707  1.3672  1.2243
  956MOL0     H26161  -2.100   5.556   4.317 -0.8112 -0.3454 -0.2517
  956MOL0     H26162  -2.334   5.559   4.323 -0.9885  0.4669 -1.0610
  956MOL0     H26163  -2.270   5.707   4.242  0.2374  1.1719  0.4033
  956MOL0     H26164  -2.363   5.690   4.534  2.3659 -2.1674 -0.7186
  956MOL0     H26165  -2.299   5.840   4.446 -0.4087  1.2506 -2.6412
  956MOL0     H26166  -2.534   5.676   4.361  0.0772 -0.6802  0.1242
  956MOL0     H26167  -2.467   5.813   4.264 -1.0764  2.8133  1.2150
  956MOL0     H26168  -2.529   5.969   4.437  0.4877 -0.6578 -0.6001
  956MOL0     H26169  -2.588   5.823   4.532 -0.4837 -0.6384  0.2626
  956MOL0     H26170  -2.705   5.959   4.291  1.7756  1.2103  2.3143
  956MOL0     H26171  -2.757   5.788   4.345  0.3252 -0.4105  1.3260
  956MOL0     H26172  -2.754   6.050   4.511  2.1974 -1.7537  0.0655
  956MOL0     H26173  -2.819   5.891   4.553 -1.0676 -0.1814  0.3818
  956MOL0     H26174  -1.739   5.893   4.262 -0.9092  0.5571 -2.3361
  956MOL0     H26175  -1.499   5.835   4.252 -0.8386  0.3963  3.6336
  956MOL0     H26176  -1.228   5.234   4.306 -0.4992  0.1945 -1.2875
  956MOL0     H26177  -1.011   5.167   4.239  2.2324  0.6672 -1.3394
  956MOL0     H26178   0.883   5.308   3.832 -0.8462 -2.1633  0.3027
  956MOL0     H26179   1.125   5.286   3.747  0.3446 -1.6237  0.3226
  956MOL0     H26180   1.462   5.575   3.479 -2.1697 -1.3223  1.3485
  956MOL0     H26181   1.705   5.553   3.465 -1.9229  1.0360  1.4801
  956MOL0     H26182   1.899   5.165   3.389 -0.3358  0.1074  0.4974
  956MOL0     H26183   1.899   5.187   3.558 -3.4231 -1.8706 -2.2023
  956MOL0     H26184   2.124   5.186   3.406 -1.9633  0.4381 -2.1445
  956MOL0     H26185   2.085   5.364   3.385  2.3880  0.0536  1.8086
  956MOL0     H26186   2.249   5.332   3.567  0.1874  1.4368  0.6912
  956MOL0     H26187   2.144   5.218   3.637  1.5907 -0.2071 -0.9595
  956MOL0     H26188   1.953   5.381   3.662 -1.7560  2.6569 -1.2229
  956MOL0     H26189   2.111   5.415   3.748  0.9954  1.9918 -1.0246
  956MOL0     H26190   2.059   5.728   3.475 -2.8580 -0.6739 -0.6540
  956MOL0     H26191   1.684   5.136   3.472  0.2635 -1.7237  1.1462
  956MOL0     H26192   1.430   5.151   3.511 -1.8209  0.9525 -0.7735
  957MOL0     O26193  10.277   4.565   6.066 -0.2847  0.4875  0.0050
  957MOL0     C26194  10.336   4.540   5.957  1.3272 -0.5510 -0.8212
  957MOL0     O26195  10.275   4.529   5.838  0.5206  1.0280 -0.2325
  957MOL0     C26196  10.135   4.557   5.826 -0.3878 -0.2266  1.0533
  957MOL0     C26197  10.096   4.621   5.710 -0.1945  0.7186  0.0749
  957MOL0     C26198   9.967   4.624   5.671 -0.2966  0.0490 -0.7581
  957MOL0     C26199   9.869   4.559   5.740 -0.7344 -0.5645  0.2862
  957MOL0     O26200   9.741   4.567   5.689  0.0631  0.2487  0.6134
  957MOL0     C26201   9.632   4.511   5.766 -0.3464 -0.9938  0.1056
  957MOL0     C26202   9.604   4.367   5.742 -0.6336  0.1737  0.1897
  957MOL0     C26203   9.485   4.310   5.818  0.4566 -0.6037 -0.2071
  957MOL0     C26204   9.349   4.388   5.798 -0.2528  0.6305 -0.6615
  957MOL0     C26205   9.234   4.337   5.891  0.5016  0.4414 -0.6786
  957MOL0     C26206   9.179   4.198   5.832 -0.4015 -0.2460  0.5066
  957MOL0     C26207   9.071   4.115   5.899 -0.3950  0.2254  0.7907
  957MOL0     C26208   9.046   3.986   5.824 -0.0532 -0.1528 -0.2934
  957MOL0     N26209   8.913   3.940   5.866  0.3096 -0.1826  0.3838
  957MOL0     C26210   8.890   3.828   5.949  0.6348  0.1413 -0.1242
  957MOL0     C26211   8.754   3.811   5.941  0.1261  0.5843 -0.7598
  957MOL0     C26212   8.682   3.691   6.009 -0.4282  0.8214 -0.1893
  957MOL0     C26213   8.534   3.682   5.969  0.5042  0.6243  0.5394
  957MOL0     C26214   8.461   3.584   6.063 -0.4440 -0.7015 -0.8860
  957MOL0     C26215   8.323   3.536   5.994 -0.8113 -0.3616  0.1888
  957MOL0     O26216   8.253   3.456   6.087  0.2628 -0.7404  0.5915
  957MOL0     C26217   8.122   3.473   6.122  0.5702 -0.8114 -0.6684
  957MOL0     C26218   8.059   3.597   6.124  0.4952 -0.1124  0.3806
  957MOL0     C26219   7.929   3.614   6.176 -0.2758 -0.1391 -1.0058
  957MOL0     C26220   7.864   3.502   6.235  0.0148 -0.4848  0.9390
  957MOL0     C26221   7.724   3.507   6.286  0.6468  0.1172  0.3641
  957MOL0     O26222   7.682   3.406   6.359  0.8050 -0.2418 -0.3850
  957MOL0     C26223   7.554   3.394   6.392  0.8851  0.2649 -1.2538
  957MOL0     C26224   7.474   3.489   6.468 -0.0301  0.4988 -0.1081
  957MOL0     C26225   7.342   3.456   6.509 -0.3292  0.3666 -0.0787
  957MOL0     C26226   7.293   3.328   6.467  0.5124  0.7228 -0.2588
  957MOL0     O26227   7.158   3.292   6.469 -0.9069  0.9020 -0.3833
  957MOL0     C26228   7.073   3.371   6.558 -0.9425 -0.6002 -0.2633
  957MOL0     C26229   6.943   3.293   6.581 -0.8706 -0.6336  0.6038
  957MOL0     C26230   6.955   3.141   6.592 -0.0664 -0.4973 -0.0503
  957MOL0     C26231   6.827   3.070   6.654 -0.6395 -0.8806 -0.2115
  957MOL0     C26232   6.813   3.086   6.804 -0.8753 -1.1097  0.0624
  957MOL0     C26233   6.689   3.165   6.852  1.0044  0.0868  0.3207
  957MOL0     C26234   6.548   3.115   6.805  0.2678 -0.2982  0.5481
  957MOL0     C26235   6.488   3.022   6.905  1.0189  0.6340 -0.5587
  957MOL0    Cl26236   6.403   3.111   7.037  0.2256  0.0494 -0.2415
  957MOL0     C26237   7.375   3.241   6.389 -0.4656  0.1649 -0.1151
  957MOL0     C26238   7.499   3.275   6.348  0.2752 -0.5921 -0.3201
  957MOL0     O26239   7.657   3.610   6.272 -0.7099  0.5770 -0.4948
  957MOL0     C26240   7.923   3.376   6.218 -0.0842  0.2655 -0.1467
  957MOL0     C26241   8.053   3.367   6.177  0.0679  0.0333  0.4521
  957MOL0     N26242   8.702   3.895   5.847 -0.1342 -0.5601 -0.9461
  957MOL0     N26243   8.795   3.978   5.807  0.4677 -0.2521  0.2692
  957MOL0     C26244   9.908   4.497   5.863  0.8405  0.2836  0.5699
  957MOL0     C26245  10.042   4.503   5.909  0.5968 -0.1312 -0.2643
  957MOL0     C26246  10.482   4.515   5.955 -1.0904 -0.4197 -0.4537
  957MOL0     C26247  10.543   4.479   5.835 -0.1167 -0.4947 -0.1240
  957MOL0     C26248  10.683   4.457   5.834 -0.3069  0.3123  0.3107
  957MOL0     C26249  10.755   4.476   5.949 -0.5684 -0.2242  0.2191
  957MOL0     O26250  10.888   4.443   5.959 -0.7701  0.8519  0.5602
  957MOL0     C26251  10.958   4.453   5.835  0.2800  0.3691  0.6689
  957MOL0     C26252  11.107   4.441   5.852  0.1851 -0.6647  0.1245
  957MOL0     C26253  11.199   4.497   5.738 -0.3034  0.1981 -0.3977
  957MOL0     C26254  11.346   4.475   5.779 -0.0598  0.3646 -0.1038
  957MOL0     C26255  11.428   4.540   5.684  0.3164  0.8453  0.7046
  957MOL0     C26256  11.483   4.591   5.584 -0.3554 -0.5935 -0.8172
  957MOL0     C26257  10.692   4.516   6.069  0.3729  0.4667 -0.0805
  957MOL0     C26258  10.557   4.528   6.074  0.7213 -0.1479 -0.3035
  957MOL0     H26259  10.157   4.662   5.630  0.7335  0.7988  0.8063
  957MOL0     H26260   9.946   4.681   5.580  1.2223  2.7467  0.4574
  957MOL0     H26261   9.546   4.560   5.719 -0.6647 -3.6627 -2.3380
  957MOL0     H26262   9.634   4.545   5.870 -2.3793  1.4620 -0.5751
  957MOL0     H26263   9.695   4.309   5.750 -0.1650  0.6569 -1.3260
  957MOL0     H26264   9.585   4.363   5.635  3.3476 -0.6685 -0.6108
  957MOL0     H26265   9.501   4.316   5.926 -1.4340  1.3924  0.0478
  957MOL0     H26266   9.466   4.208   5.784  2.1360 -0.6511 -1.0794
  957MOL0     H26267   9.359   4.492   5.829  0.3511  0.2598  0.4329
  957MOL0     H26268   9.325   4.384   5.691  0.8479 -0.7118 -0.8930
  957MOL0     H26269   9.151   4.408   5.890  1.1655  1.4434  2.7124
  957MOL0     H26270   9.279   4.329   5.990  0.3692 -2.8471 -0.7754
  957MOL0     H26271   9.266   4.132   5.824 -0.4692 -0.1443 -3.3439
  957MOL0     H26272   9.157   4.215   5.726  0.9536 -0.1593  0.2156
  957MOL0     H26273   9.092   4.101   6.005  0.2827  3.1784  1.1388
  957MOL0     H26274   8.982   4.179   5.899  0.0457  0.8660  1.8205
  957MOL0     H26275   9.122   3.912   5.849  1.3566  1.6768  1.2230
  957MOL0     H26276   9.067   3.994   5.717  0.0406 -3.0369 -0.5725
  957MOL0     H26277   8.959   3.764   6.003  0.1742  0.4287  0.8289
  957MOL0     H26278   8.682   3.711   6.117 -1.2855 -1.8366  0.3844
  957MOL0     H26279   8.737   3.597   6.001 -2.9425 -0.6424 -1.5620
  957MOL0     H26280   8.512   3.647   5.867 -5.1539 -0.6995  1.8287
  957MOL0     H26281   8.489   3.781   5.977 -1.4800 -0.1638 -0.0497
  957MOL0     H26282   8.528   3.498   6.073  1.6491  0.8254 -1.1859
  957MOL0     H26283   8.437   3.628   6.160  0.6883 -2.8205  0.4430
  957MOL0     H26284   8.350   3.478   5.905  2.8541  0.6443  0.4556
  957MOL0     H26285   8.269   3.624   5.958  0.7583 -0.1027 -1.7469
  957MOL0     H26286   8.107   3.694   6.110 -0.5684  0.6257  1.6304
  957MOL0     H26287   7.885   3.709   6.205 -0.1726 -0.4788  0.3259
  957MOL0     H26288   7.517   3.583   6.500 -0.8369  0.1102  2.3160
  957MOL0     H26289   7.284   3.538   6.550  1.3181  0.9365  1.2098
  957MOL0     H26290   7.054   3.474   6.529  0.0802  0.3681  2.2252
  957MOL0     H26291   7.129   3.382   6.651  0.9104 -0.1033 -1.3999
  957MOL0     H26292   6.883   3.311   6.491 -0.5223  1.1684  0.7029
  957MOL0     H26293   6.876   3.327   6.661 -2.3088 -0.4737 -0.6158
  957MOL0     H26294   7.044   3.119   6.652 -0.1826 -0.9648 -0.0533
  957MOL0     H26295   6.966   3.109   6.488  2.2462  1.7895 -0.6377
  957MOL0     H26296   6.732   3.090   6.604 -0.2365 -0.7996 -0.9658
  957MOL0     H26297   6.851   2.964   6.636  0.9994 -0.7810  1.1755
  957MOL0     H26298   6.896   3.149   6.838 -3.3618  3.4342 -1.4334
  957MOL0     H26299   6.812   2.987   6.851  0.0699 -1.7248 -1.1644
  957MOL0     H26300   6.708   3.262   6.805 -0.4446  0.5098  0.5700
  957MOL0     H26301   6.689   3.173   6.961 -0.9419 -0.3155  0.3763
  957MOL0     H26302   6.481   3.198   6.780 -1.7228 -1.5719  1.3497
  957MOL0     H26303   6.546   3.057   6.712 -0.4566  0.5690  0.0010
  957MOL0     H26304   6.565   2.956   6.947  1.6669  1.6986 -0.0578
  957MOL0     H26305   6.412   2.963   6.852 -2.4904  3.8344  0.4827
  957MOL0     H26306   7.330   3.149   6.351 -1.0063  0.4195 -0.1010
  957MOL0     H26307   7.554   3.202   6.290 -2.3746 -1.7380 -1.5821
  957MOL0     H26308   7.864   3.287   6.235  2.2047 -2.0862 -3.2064
  957MOL0     H26309   8.094   3.266   6.177 -2.2419 -0.9975  2.2438
  957MOL0     H26310   9.837   4.446   5.927  0.4470 -0.4075 -0.3982
  957MOL0     H26311  10.070   4.458   6.004  2.8912  0.5608 -0.5497
  957MOL0     H26312  10.485   4.456   5.746  0.1649 -0.9243 -0.1958
  957MOL0     H26313  10.726   4.423   5.740  4.3174 -1.8331  2.8480
  957MOL0     H26314  10.936   4.544   5.778  3.1040  1.9658  1.9267
  957MOL0     H26315  10.921   4.366   5.781 -2.8006  0.2911  2.6506
  957MOL0     H26316  11.123   4.501   5.942 -3.6588 -1.1506  1.3174
  957MOL0     H26317  11.139   4.336   5.857  2.6345  0.0081 -0.2673
  957MOL0     H26318  11.177   4.594   5.692 -0.2659 -0.6049 -2.2263
  957MOL0     H26319  11.191   4.427   5.654 -1.0346 -0.4329  0.1874
  957MOL0     H26320  11.371   4.506   5.881  0.2260 -1.3601  0.3875
  957MOL0     H26321  11.363   4.367   5.785 -3.5926 -0.3175 -0.3390
  957MOL0     H26322  11.539   4.627   5.500  3.5763 -4.8133 -0.4181
  957MOL0     H26323  10.741   4.524   6.165 -0.0220 -1.5020  0.3357
  957MOL0     H26324  10.522   4.550   6.174 -1.9554 -0.3403 -1.1199
  958MOL0     O26325  10.054   2.330   5.409  0.2191 -0.2463 -0.5937
  958MOL0     C26326  10.148   2.254   5.426 -1.0958  0.6102 -0.6247
  958MOL0     O26327  10.151   2.117   5.404 -0.2994 -0.3223 -0.4087
  958MOL0     C26328  10.035   2.056   5.367  0.5285  0.1008  0.0821
  958MOL0     C26329  10.006   2.001   5.245  0.3594 -1.0355 -0.1090
  958MOL0     C26330   9.874   1.949   5.221 -0.9976 -1.0067 -0.1663
  958MOL0     C26331   9.778   1.948   5.323  0.1378  0.6317  0.2252
  958MOL0     O26332   9.647   1.896   5.311 -0.1766 -0.1054  0.6728
  958MOL0     C26333   9.607   1.847   5.179 -0.4198  0.3332 -0.3144
  958MOL0     C26334   9.460   1.850   5.173  0.4604  0.7598  0.7381
  958MOL0     C26335   9.378   1.981   5.197 -1.0821  1.2283  0.2524
  958MOL0     C26336   9.227   1.959   5.204  0.0590  1.1324  0.2334
  958MOL0     C26337   9.173   2.102   5.245  0.1722  0.1154 -0.7379
  958MOL0     C26338   9.040   2.085   5.311 -0.6997 -0.8626  0.4679
  958MOL0     C26339   8.988   2.216   5.360  0.5096 -0.0852 -0.2201
  958MOL0     C26340   8.850   2.200   5.418  0.5805  0.5257 -0.5308
  958MOL0     N26341   8.779   2.330   5.426 -0.3556  0.6772  0.6800
  958MOL0     C26342   8.742   2.403   5.315  0.2338  0.0918  0.5643
  958MOL0     C26343   8.676   2.510   5.367  0.2068  0.5188 -0.2079
  958MOL0     C26344   8.598   2.620   5.296  0.3781 -0.3720 -0.4509
  958MOL0     C26345   8.684   2.697   5.193  0.8207 -0.0302  0.2233
  958MOL0     C26346   8.598   2.749   5.077  0.3838  0.0924  0.5028
  958MOL0     C26347   8.557   2.648   4.977  0.1159  0.2772  0.2723
  958MOL0     O26348   8.491   2.707   4.868 -0.1902  0.1085 -1.6825
  958MOL0     C26349   8.365   2.755   4.891 -0.6204 -0.7305 -0.4187
  958MOL0     C26350   8.256   2.676   4.943 -0.5031 -0.4699 -0.1895
  958MOL0     C26351   8.130   2.731   4.946  0.5278 -1.0994  0.1184
  958MOL0     C26352   8.113   2.861   4.897 -0.0525  0.4644 -1.3888
  958MOL0     C26353   7.971   2.918   4.894 -0.6369  0.0693  0.4341
  958MOL0     O26354   7.869   2.826   4.890  0.4100  0.4935  0.0047
  958MOL0     C26355   7.735   2.862   4.903  0.1093  0.6996 -0.3075
  958MOL0     C26356   7.688   2.954   5.002 -0.7754  0.7935 -0.8129
  958MOL0     C26357   7.559   2.983   5.017  0.0877  0.6448 -0.3971
  958MOL0     C26358   7.464   2.918   4.925  0.5312  1.6399 -0.0000
  958MOL0     O26359   7.334   2.961   4.944  0.2313  0.5140  0.2069
  958MOL0     C26360   7.260   2.974   4.824 -0.0420  0.0784 -0.6778
  958MOL0     C26361   7.130   3.057   4.854 -0.1981  0.3375 -0.9280
  958MOL0     C26362   7.020   2.956   4.895  0.0924  0.5282 -0.8881
  958MOL0     C26363   6.891   3.029   4.914 -0.2508  0.9193 -0.2305
  958MOL0     C26364   6.784   2.937   4.956 -0.2954  0.5843  0.0385
  958MOL0     C26365   6.650   2.995   4.926  0.7351  0.2393  0.2771
  958MOL0     C26366   6.591   2.989   4.781  0.0926  0.3028 -0.3180
  958MOL0     C26367   6.566   2.844   4.727 -0.4394 -0.0833 -0.9456
  958MOL0    Cl26368   6.493   2.731   4.857 -0.0779  0.1961  0.3211
  958MOL0     C26369   7.501   2.822   4.827 -0.2545  0.2033 -0.5210
  958MOL0     C26370   7.638   2.797   4.814 -0.2518  0.0999 -0.5619
  958MOL0     O26371   7.967   3.042   4.882  0.0853  0.2891 -0.3152
  958MOL0     C26372   8.216   2.930   4.844 -0.2708 -0.7487  0.3502
  958MOL0     C26373   8.344   2.885   4.838  0.3827  0.7071 -0.4220
  958MOL0     N26374   8.670   2.493   5.507  0.4616  0.1177  0.3644
  958MOL0     N26375   8.738   2.390   5.538  0.3838  0.0087 -0.0447
  958MOL0     C26376   9.813   1.992   5.454  1.4325  1.0322  0.2112
  958MOL0     C26377   9.943   2.039   5.468  0.9333 -0.8409  0.4702
  958MOL0     C26378  10.274   2.297   5.490  0.2387  0.0384 -0.4789
  958MOL0     C26379  10.384   2.209   5.517  0.0434 -0.3924  0.1654
  958MOL0     C26380  10.497   2.258   5.585  0.0786 -0.5449  0.4970
  958MOL0     C26381  10.497   2.389   5.638 -0.7233 -0.8303 -0.0629
  958MOL0     O26382  10.600   2.434   5.717  0.0414  0.4110 -0.0979
  958MOL0     C26383  10.725   2.447   5.638 -0.5725  0.6618 -0.9006
  958MOL0     C26384  10.774   2.587   5.668 -0.1521  0.9490  0.2283
  958MOL0     C26385  10.890   2.628   5.570  0.3105 -0.0041 -0.1504
  958MOL0     C26386  10.890   2.785   5.566  1.4135  0.8342  0.3059
  958MOL0     C26387  10.810   2.830   5.450  1.2601 -0.4076  0.5139
  958MOL0     C26388  10.735   2.873   5.363 -0.4724 -0.1741  0.4415
  958MOL0     C26389  10.393   2.478   5.610 -0.3778  1.2443 -0.7282
  958MOL0     C26390  10.281   2.428   5.533  0.0363 -0.7068 -0.5649
  958MOL0     H26391  10.075   2.014   5.163 -1.1551 -1.5427 -1.5128
  958MOL0     H26392   9.844   1.928   5.119  0.7241 -1.0971 -0.6784
  958MOL0     H26393   9.633   1.741   5.170 -4.5375 -0.8753 -0.4385
  958MOL0     H26394   9.639   1.907   5.093 -2.0363  1.7415  0.0111
  958MOL0     H26395   9.420   1.789   5.254  2.1858 -0.5009  0.6874
  958MOL0     H26396   9.433   1.810   5.074 -2.0932  3.0413  0.3840
  958MOL0     H26397   9.406   2.052   5.119  2.8633 -1.0853 -0.6821
  958MOL0     H26398   9.414   2.033   5.286  0.5863 -1.0757  1.0132
  958MOL0     H26399   9.177   1.932   5.110  1.9838  0.8316 -0.7364
  958MOL0     H26400   9.201   1.889   5.284  2.9757  0.8956  1.0641
  958MOL0     H26401   9.165   2.163   5.154 -1.9166  0.5924 -0.2946
  958MOL0     H26402   9.237   2.139   5.326  0.0630 -1.4845  0.1107
  958MOL0     H26403   9.050   2.020   5.399 -0.6253  1.0429  1.9375
  958MOL0     H26404   8.970   2.043   5.238 -0.7574  0.4266 -0.2478
  958MOL0     H26405   9.066   2.254   5.426  1.1737 -0.4634 -0.7777
  958MOL0     H26406   8.977   2.284   5.275 -0.9478  0.0231  0.0349
  958MOL0     H26407   8.867   2.156   5.516 -1.5843  0.9533  0.0733
  958MOL0     H26408   8.789   2.124   5.368  0.7377 -0.5199  0.8065
  958MOL0     H26409   8.771   2.378   5.214  2.5378  1.5669  0.7722
  958MOL0     H26410   8.546   2.691   5.361 -0.3871 -1.2314 -0.1015
  958MOL0     H26411   8.523   2.554   5.251  0.7549 -1.1726  0.0745
  958MOL0     H26412   8.760   2.633   5.148  0.5624  0.4635 -0.9366
  958MOL0     H26413   8.733   2.781   5.243  0.1806 -0.5539  1.7928
  958MOL0     H26414   8.513   2.793   5.131 -0.8894 -0.6356 -0.8485
  958MOL0     H26415   8.654   2.818   5.014 -0.8497  0.2062 -0.5133
  958MOL0     H26416   8.488   2.577   5.024 -3.1406  2.3108 -1.0413
  958MOL0     H26417   8.637   2.596   4.924  0.1370  0.8665 -0.2855
  958MOL0     H26418   8.280   2.582   4.990  0.5116 -0.4557 -0.6502
  958MOL0     H26419   8.042   2.677   4.981 -0.5132  1.4827  1.8291
  958MOL0     H26420   7.745   3.014   5.072 -0.5309 -1.7928  1.3908
  958MOL0     H26421   7.528   3.063   5.084 -0.5669 -0.0881  0.2074
  958MOL0     H26422   7.227   2.876   4.788  1.6662 -1.4975  1.7480
  958MOL0     H26423   7.323   3.022   4.749 -3.2515  0.8187 -3.1607
  958MOL0     H26424   7.092   3.101   4.761 -0.9389  1.1001 -0.2658
  958MOL0     H26425   7.151   3.138   4.924 -1.8355 -0.5265  0.6330
  958MOL0     H26426   7.043   2.908   4.991 -1.1980 -2.4078 -1.9253
  958MOL0     H26427   7.013   2.879   4.817 -0.2015 -0.6329  0.2323
  958MOL0     H26428   6.904   3.108   4.989 -2.0476  1.0702 -0.0393
  958MOL0     H26429   6.871   3.076   4.818 -1.0821 -0.0209 -0.5302
  958MOL0     H26430   6.796   2.927   5.064  2.0067 -0.0199 -0.2213
  958MOL0     H26431   6.792   2.833   4.922  1.9858  0.1230  1.6962
  958MOL0     H26432   6.658   3.101   4.951 -0.3733  0.5059 -0.4304
  958MOL0     H26433   6.576   2.961   4.999 -0.1496  0.2249 -0.5924
  958MOL0     H26434   6.491   3.033   4.775  0.0295  0.6472  2.1536
  958MOL0     H26435   6.665   3.040   4.718  0.5610  0.4956  0.3694
  958MOL0     H26436   6.653   2.796   4.683 -0.1975  0.6404 -1.2730
  958MOL0     H26437   6.487   2.853   4.651 -0.5712 -1.3187 -0.9726
  958MOL0     H26438   7.432   2.764   4.765 -1.7493  2.7468 -1.4216
  958MOL0     H26439   7.669   2.717   4.749  0.4005  1.5906 -2.1644
  958MOL0     H26440   8.201   3.035   4.822 -1.3197 -0.7940  0.8245
  958MOL0     H26441   8.432   2.940   4.806  0.4531 -0.1559 -1.7974
  958MOL0     H26442   9.740   1.987   5.535  0.0132  2.2035 -0.9353
  958MOL0     H26443   9.964   2.062   5.572  2.1480  1.3985 -0.2077
  958MOL0     H26444  10.390   2.103   5.497  0.6304 -0.1423 -1.0790
  958MOL0     H26445  10.584   2.194   5.596 -0.1171 -2.2125 -4.8104
  958MOL0     H26446  10.704   2.420   5.534 -1.0679 -1.4492 -0.3057
  958MOL0     H26447  10.805   2.383   5.678  1.7172  3.0329 -1.4559
  958MOL0     H26448  10.683   2.643   5.641 -0.7341 -0.8903 -1.8533
  958MOL0     H26449  10.798   2.602   5.774 -2.2359  0.6494  0.7852
  958MOL0     H26450  10.898   2.582   5.471 -0.6495 -2.2092  0.7305
  958MOL0     H26451  10.983   2.599   5.619 -0.0055  1.2931  1.3183
  958MOL0     H26452  10.843   2.822   5.657  1.6252  2.0885 -0.0773
  958MOL0     H26453  10.989   2.830   5.559  1.7491 -0.1269 -2.1279
  958MOL0     H26454  10.662   2.895   5.288 -0.3680 -1.3132 -0.0151
  958MOL0     H26455  10.378   2.578   5.648 -0.8881 -0.1906  3.2762
  958MOL0     H26456  10.207   2.500   5.500 -0.2546 -0.7586 -0.0275
  959MOL0     O26457   6.593   9.909   4.035  0.1343 -0.7309  0.5357
  959MOL0     C26458   6.539   9.802   3.997  0.2564 -0.5080  0.9838
  959MOL0     O26459   6.428   9.802   3.924  0.2175  0.8558 -0.3752
  959MOL0     C26460   6.390   9.903   3.841  0.5990  0.4644  0.0629
  959MOL0     C26461   6.345   9.865   3.709 -0.1421  0.1684  0.2096
  959MOL0     C26462   6.288   9.964   3.627 -0.0739  0.2028  0.1470
  959MOL0     C26463   6.271  10.093   3.669 -1.0492  0.2417 -0.7226
  959MOL0     O26464   6.219  10.198   3.597  0.0398 -0.5283  0.0451
  959MOL0     C26465   6.153  10.182   3.474  0.3271 -0.3963 -0.0265
  959MOL0     C26466   6.087  10.307   3.414 -0.1134 -0.6742 -0.3335
  959MOL0     C26467   6.051  10.281   3.262 -0.8384  0.0257 -0.2180
  959MOL0     C26468   5.944  10.171   3.237  0.0657 -0.5053 -0.0925
  959MOL0     C26469   5.819  10.193   3.321  0.1134 -0.7554  0.4347
  959MOL0     C26470   5.755  10.334   3.287 -1.0674 -0.7131 -0.1758
  959MOL0     C26471   5.642  10.354   3.393  0.2990 -0.4458 -0.1484
  959MOL0     C26472   5.523  10.269   3.370 -0.5202  0.1305  0.6130
  959MOL0     N26473   5.424  10.334   3.457 -0.1099  0.1399 -0.2459
  959MOL0     C26474   5.422  10.358   3.587 -0.6177  0.3863  0.1605
  959MOL0     C26475   5.341  10.458   3.619  1.1791  0.8355 -0.2784
  959MOL0     C26476   5.294  10.510   3.756 -0.0400 -0.8234 -0.6581
  959MOL0     C26477   5.267  10.662   3.750 -0.6526 -1.0178 -0.2476
  959MOL0     C26478   5.229  10.720   3.878 -0.3992 -0.4383 -0.3355
  959MOL0     C26479   5.085  10.679   3.921  0.6308  1.1010 -0.7141
  959MOL0     O26480   5.038  10.767   4.028  0.0429 -0.1548  0.5876
  959MOL0     C26481   4.934  10.714   4.105 -0.0833 -0.1796  0.3607
  959MOL0     C26482   4.897  10.782   4.218  0.7031 -0.8974  0.7041
  959MOL0     C26483   4.794  10.751   4.298  0.8250 -0.0448  0.2267
  959MOL0     C26484   4.725  10.628   4.272 -0.2392 -0.7356 -0.4287
  959MOL0     C26485   4.601  10.585   4.345 -0.7754  0.8191  0.1181
  959MOL0     O26486   4.490  10.546   4.272  0.1270 -0.3584 -0.3427
  959MOL0     C26487   4.373  10.511   4.336  0.8136  0.0323 -0.0604
  959MOL0     C26488   4.339  10.540   4.472 -0.2632  0.2162  0.6514
  959MOL0     C26489   4.228  10.480   4.542 -0.2079 -0.1031 -0.2719
  959MOL0     C26490   4.135  10.397   4.469 -0.6572 -0.3160 -0.1912
  959MOL0     O26491   4.035  10.324   4.527  0.1392 -0.1777 -0.6307
  959MOL0     C26492   3.981  10.373   4.646 -0.0001  0.0074  0.1267
  959MOL0     C26493   3.846  10.308   4.679  0.1008 -0.1215 -0.7141
  959MOL0     C26494   3.743  10.321   4.576  0.2434 -0.2081 -0.1529
  959MOL0     C26495   3.598  10.308   4.611  0.6224  0.2734  0.3306
  959MOL0     C26496   3.503  10.390   4.528  0.9063 -0.7608 -0.6711
  959MOL0     C26497   3.359  10.344   4.558  0.1884  0.1656 -0.8106
  959MOL0     C26498   3.313  10.403   4.690  0.4540  0.1418 -0.6493
  959MOL0     C26499   3.187  10.333   4.766 -0.1624  0.9006  0.5528
  959MOL0    Cl26500   3.042  10.325   4.654 -0.0909 -0.4060  0.1561
  959MOL0     C26501   4.172  10.356   4.344  0.5541  0.4176  0.4173
  959MOL0     C26502   4.280  10.422   4.275 -0.3134 -0.2242  0.0692
  959MOL0     O26503   4.623  10.582   4.463 -0.7694 -0.0563  0.0785
  959MOL0     C26504   4.760  10.560   4.155  0.3235 -0.2183  0.4656
  959MOL0     C26505   4.867  10.589   4.078  0.3004 -0.7726  0.2518
  959MOL0     N26506   5.280  10.484   3.498 -0.4128 -0.0492 -0.6895
  959MOL0     N26507   5.341  10.425   3.401 -0.7521  0.8576  0.1740
  959MOL0     C26508   6.328  10.124   3.801  0.3031 -0.0042 -0.1529
  959MOL0     C26509   6.376  10.028   3.884  0.2440  0.0389  0.0332
  959MOL0     C26510   6.601   9.679   4.045  0.0709 -0.3640 -0.0972
  959MOL0     C26511   6.545   9.564   3.993 -0.1445  0.7312  0.0846
  959MOL0     C26512   6.589   9.447   4.046 -0.1108  0.5414  0.8970
  959MOL0     C26513   6.690   9.441   4.145  0.4432  0.0332  0.2153
  959MOL0     O26514   6.749   9.319   4.174  0.9646  0.5959  0.4072
  959MOL0     C26515   6.670   9.203   4.194  0.0575  0.6593 -1.2595
  959MOL0     C26516   6.592   9.193   4.337  0.6985  0.4129  0.2370
  959MOL0     C26517   6.477   9.302   4.347  0.7295  0.5443 -0.3545
  959MOL0     C26518   6.396   9.304   4.480  0.0162  1.0833  0.1172
  959MOL0     C26519   6.297   9.193   4.478  0.5395 -0.7380  0.0862
  959MOL0     C26520   6.199   9.118   4.477  0.3449 -0.9622  0.5920
  959MOL0     C26521   6.741   9.558   4.200 -0.3013  0.7848  0.1111
  959MOL0     C26522   6.705   9.674   4.141 -0.0178  0.1302  0.9531
  959MOL0     H26523   6.362   9.762   3.680 -1.3523  0.4196 -1.5236
  959MOL0     H26524   6.256   9.946   3.524  3.5672 -0.2331 -1.0445
  959MOL0     H26525   6.074  10.108   3.484 -0.4547  0.3524 -0.5506
  959MOL0     H26526   6.223  10.131   3.407  2.2404 -0.6315  2.0313
  959MOL0     H26527   6.164  10.385   3.409 -0.1066 -0.5036  1.7142
  959MOL0     H26528   6.012  10.347   3.483  0.1945  1.9584 -1.4277
  959MOL0     H26529   6.143  10.261   3.206 -1.9920  2.2301 -3.1522
  959MOL0     H26530   6.016  10.377   3.223 -2.7009 -0.5280 -0.0236
  959MOL0     H26531   5.916  10.177   3.132  1.4217  2.1765 -0.3897
  959MOL0     H26532   5.992  10.074   3.253 -0.4859 -1.0464 -1.5858
  959MOL0     H26533   5.836  10.204   3.428 -4.1730  2.1625  1.0811
  959MOL0     H26534   5.754  10.109   3.298  1.9913 -1.4185 -3.3150
  959MOL0     H26535   5.721  10.355   3.185  0.3430 -0.1854 -0.5697
  959MOL0     H26536   5.826  10.415   3.308 -3.1806  1.4027 -0.7434
  959MOL0     H26537   5.681  10.336   3.493  0.9050 -1.2213 -0.5184
  959MOL0     H26538   5.618  10.461   3.398 -0.0306 -0.5849  3.0871
  959MOL0     H26539   5.549  10.169   3.407 -1.3671  0.4612  2.1899
  959MOL0     H26540   5.488  10.267   3.267 -0.1409  0.5924  0.4704
  959MOL0     H26541   5.473  10.293   3.656 -2.1339 -0.6783  0.3191
  959MOL0     H26542   5.388  10.498   3.812 -0.5471 -0.8887  0.1917
  959MOL0     H26543   5.220  10.441   3.799  2.7435 -3.1172  0.8706
  959MOL0     H26544   5.192  10.689   3.675 -0.8285  0.7063  0.4909
  959MOL0     H26545   5.358  10.712   3.716 -0.2756 -0.7996  1.0359
  959MOL0     H26546   5.297  10.697   3.960 -1.3112  1.5287  1.0848
  959MOL0     H26547   5.243  10.828   3.862 -0.2559 -0.4215 -0.0972
  959MOL0     H26548   5.096  10.574   3.948  2.4180  1.0807 -1.3758
  959MOL0     H26549   5.016  10.692   3.837 -1.2300  2.7414  0.9344
  959MOL0     H26550   4.951  10.873   4.239  1.6753 -1.3497  0.2454
  959MOL0     H26551   4.751  10.805   4.382 -2.8032 -3.6243  0.9676
  959MOL0     H26552   4.397  10.601   4.540  0.6637 -0.2785  0.3308
  959MOL0     H26553   4.220  10.487   4.650 -0.8323 -2.3604 -0.1353
  959MOL0     H26554   3.971  10.482   4.646  2.0029  0.2480 -1.2085
  959MOL0     H26555   4.055  10.342   4.721  2.0801 -0.8837 -2.1371
  959MOL0     H26556   3.797  10.376   4.751 -3.2147 -0.8554 -2.1020
  959MOL0     H26557   3.858  10.207   4.720  1.9846  0.5039  0.4581
  959MOL0     H26558   3.769  10.243   4.505 -1.4746 -1.3421  0.3879
  959MOL0     H26559   3.758  10.413   4.518 -3.4222  0.7754  0.1746
  959MOL0     H26560   3.572  10.202   4.601  0.8469  0.0228  2.1368
  959MOL0     H26561   3.580  10.332   4.716 -0.5792  2.8644 -0.3903
  959MOL0     H26562   3.521  10.371   4.422 -1.3652 -0.7540 -1.1102
  959MOL0     H26563   3.508  10.494   4.561 -2.1687 -0.9766  0.8894
  959MOL0     H26564   3.347  10.235   4.560  0.2603  0.0854  2.9780
  959MOL0     H26565   3.301  10.391   4.479  3.0271  2.7577 -1.5793
  959MOL0     H26566   3.395  10.403   4.763  0.6341 -4.4408 -0.5335
  959MOL0     H26567   3.276  10.504   4.672 -2.4445 -0.0973  2.9103
  959MOL0     H26568   3.165  10.363   4.869 -3.0118 -0.6302  0.4918
  959MOL0     H26569   3.217  10.229   4.778  1.6954  0.9195 -2.6298
  959MOL0     H26570   4.112  10.286   4.286  0.4720  1.7788 -1.2158
  959MOL0     H26571   4.302  10.389   4.173 -1.9529  0.9687 -0.7243
  959MOL0     H26572   4.696  10.476   4.129  2.8014 -1.6913 -1.3932
  959MOL0     H26573   4.891  10.526   3.993 -0.5287  3.2194 -3.2593
  959MOL0     H26574   6.313  10.228   3.830 -0.6538  0.8967 -3.4157
  959MOL0     H26575   6.394  10.055   3.987  0.8807 -1.3896  0.3140
  959MOL0     H26576   6.464   9.571   3.920 -0.2606 -1.2643 -0.0377
  959MOL0     H26577   6.540   9.360   4.004 -4.1375  2.5441  1.0434
  959MOL0     H26578   6.735   9.116   4.180 -0.5604  0.1594 -1.0489
  959MOL0     H26579   6.588   9.184   4.125 -1.9501 -0.2938  1.2410
  959MOL0     H26580   6.549   9.092   4.335  1.7638 -0.0483 -0.5634
  959MOL0     H26581   6.661   9.200   4.422 -0.6169 -0.5668  1.4482
  959MOL0     H26582   6.412   9.301   4.259  3.4473  2.0351 -2.5518
  959MOL0     H26583   6.526   9.400   4.346  2.4629 -0.2379  1.7815
  959MOL0     H26584   6.452   9.295   4.573  0.4617  0.9781 -0.1564
  959MOL0     H26585   6.340   9.398   4.487 -1.8104  0.0580 -0.1665
  959MOL0     H26586   6.104   9.068   4.483  0.0292 -0.2942  1.4072
  959MOL0     H26587   6.824   9.579   4.265  1.6162 -0.9610 -1.6248
  959MOL0     H26588   6.761   9.759   4.179  0.6779 -1.1606  3.0070
  960MOL0     O26589   0.609   4.696   2.836  0.3774  1.3460  0.1219
  960MOL0     C26590   0.690   4.630   2.908  0.5147 -0.0258  0.2484
  960MOL0     O26591   0.671   4.606   3.047 -1.2649 -0.2758 -0.2061
  960MOL0     C26592   0.554   4.627   3.120 -0.8053 -0.3674 -0.3404
  960MOL0     C26593   0.578   4.633   3.253 -0.1937 -0.4498 -0.2926
  960MOL0     C26594   0.471   4.642   3.345 -0.1035  0.6425  0.2142
  960MOL0     C26595   0.347   4.686   3.300  0.9129  0.4693  0.2494
  960MOL0     O26596   0.247   4.715   3.393 -0.6884  0.3216 -0.3836
  960MOL0     C26597   0.110   4.740   3.344 -0.0832  0.0314 -0.1663
  960MOL0     C26598   0.020   4.781   3.464  0.0066  0.0309 -0.2522
  960MOL0     C26599  -0.126   4.793   3.424  0.8295  0.2869 -0.3025
  960MOL0     C26600  -0.225   4.815   3.541 -0.6373 -0.1371  0.1420
  960MOL0     C26601  -0.327   4.918   3.512 -0.6165 -0.1965  1.2321
  960MOL0     C26602  -0.281   5.066   3.501 -0.7095 -0.6875  0.0436
  960MOL0     C26603  -0.390   5.170   3.535  0.2060  0.1988  1.2078
  960MOL0     C26604  -0.517   5.152   3.444  0.2928 -1.2382 -0.1494
  960MOL0     N26605  -0.612   5.261   3.480  0.4485 -0.1694  0.8544
  960MOL0     C26606  -0.586   5.393   3.436 -0.0511  0.4214 -0.0663
  960MOL0     C26607  -0.689   5.461   3.488  0.5093  0.5134 -0.3675
  960MOL0     C26608  -0.718   5.606   3.457 -0.7503 -0.2116  0.0474
  960MOL0     C26609  -0.643   5.722   3.545 -0.0457  0.5662  1.1497
  960MOL0     C26610  -0.677   5.851   3.489 -0.4110 -0.4166  0.4121
  960MOL0     C26611  -0.819   5.894   3.490 -0.4053 -0.8070  0.9608
  960MOL0     O26612  -0.829   6.039   3.505  0.0008  0.5847  0.1595
  960MOL0     C26613  -0.949   6.101   3.485 -0.6503 -0.0581 -0.5483
  960MOL0     C26614  -1.071   6.041   3.488  0.4110  0.9438 -0.3362
  960MOL0     C26615  -1.187   6.119   3.474 -0.3934  0.1029  0.3357
  960MOL0     C26616  -1.182   6.263   3.461 -0.5062  0.6991 -0.7958
  960MOL0     C26617  -1.296   6.351   3.441  0.3202  0.5236  0.3790
  960MOL0     O26618  -1.414   6.298   3.390 -0.1028 -0.0555 -0.6670
  960MOL0     C26619  -1.510   6.372   3.332  0.3821  0.0247 -1.1225
  960MOL0     C26620  -1.644   6.333   3.360  0.6380  0.0272  0.1458
  960MOL0     C26621  -1.760   6.406   3.324  0.3330 -0.5827 -0.4024
  960MOL0     C26622  -1.749   6.534   3.266 -1.4080  0.0481  0.4556
  960MOL0     O26623  -1.856   6.613   3.232  0.0448 -0.0846  0.5454
  960MOL0     C26624  -1.882   6.718   3.317  0.3402 -1.0137 -0.2223
  960MOL0     C26625  -2.012   6.784   3.271 -0.0821  0.6599  0.0505
  960MOL0     C26626  -2.076   6.869   3.378 -0.0752  0.6324 -0.8340
  960MOL0     C26627  -2.214   6.913   3.341 -0.0202 -0.0476  0.5801
  960MOL0     C26628  -2.256   7.012   3.457 -0.1112  0.4854 -0.1121
  960MOL0     C26629  -2.398   7.048   3.422 -0.0239  0.1322  0.0585
  960MOL0     C26630  -2.459   7.128   3.528 -0.3795  0.1935 -0.2653
  960MOL0     C26631  -2.567   7.222   3.486 -0.4702 -1.1847 -0.0743
  960MOL0    Cl26632  -2.653   7.273   3.640  0.2584  0.2655 -0.0774
  960MOL0     C26633  -1.610   6.573   3.241  1.0435 -0.9493  0.5139
  960MOL0     C26634  -1.498   6.494   3.264  0.4804 -0.8187 -0.8139
  960MOL0     O26635  -1.280   6.466   3.489 -0.1983 -0.0792 -0.1556
  960MOL0     C26636  -1.055   6.319   3.477  0.2477 -0.3057 -1.0183
  960MOL0     C26637  -0.941   6.240   3.482 -0.1615 -1.2764 -0.4376
  960MOL0     N26638  -0.775   5.373   3.564 -1.4400 -0.2251  0.6504
  960MOL0     N26639  -0.728   5.254   3.550 -0.0984  0.7525  0.0346
  960MOL0     C26640   0.325   4.684   3.156  0.4271 -0.7420 -0.4489
  960MOL0     C26641   0.429   4.648   3.065 -0.4586 -0.6792 -0.2753
  960MOL0     C26642   0.822   4.591   2.846 -1.0324  0.1309  0.2811
  960MOL0     C26643   0.845   4.582   2.708  0.1422 -0.8195  0.7912
  960MOL0     C26644   0.968   4.545   2.660 -0.2999  0.4329  0.2542
  960MOL0     C26645   1.074   4.523   2.746 -0.6358  0.4594  0.6049
  960MOL0     O26646   1.192   4.510   2.673  0.2846  0.3729 -0.4266
  960MOL0     C26647   1.306   4.510   2.757  0.1671  1.2854 -0.0514
  960MOL0     C26648   1.437   4.505   2.675  0.2483 -0.3561  0.8119
  960MOL0     C26649   1.560   4.555   2.745  0.2639 -0.3111  0.0006
  960MOL0     C26650   1.696   4.505   2.673  0.0701 -0.6180  0.1533
  960MOL0     C26651   1.801   4.613   2.657 -0.0017 -0.0898  0.3232
  960MOL0     C26652   1.884   4.707   2.637 -0.1683 -0.6953 -0.0137
  960MOL0     C26653   1.054   4.526   2.886 -0.4922 -0.4583  1.0510
  960MOL0     C26654   0.928   4.557   2.929 -0.2545  0.3439 -0.6272
  960MOL0     H26655   0.677   4.618   3.295  0.5604 -1.5394 -2.3485
  960MOL0     H26656   0.472   4.636   3.454 -0.6108 -1.4757  0.1400
  960MOL0     H26657   0.073   4.654   3.288  0.5743 -0.5557  0.2789
  960MOL0     H26658   0.087   4.824   3.279 -2.0400 -0.3089  0.0067
  960MOL0     H26659   0.067   4.862   3.520 -0.4211 -0.1184  0.3303
  960MOL0     H26660   0.028   4.700   3.537 -0.1035  3.1930  3.5924
  960MOL0     H26661  -0.164   4.707   3.369  0.6508  0.2817 -0.1700
  960MOL0     H26662  -0.129   4.883   3.362 -3.3736  1.9002  1.8096
  960MOL0     H26663  -0.273   4.718   3.550 -0.1324 -0.4383 -0.3377
  960MOL0     H26664  -0.166   4.847   3.627  0.3301 -0.8787 -0.2264
  960MOL0     H26665  -0.389   4.921   3.602  2.4782 -2.3757  3.6585
  960MOL0     H26666  -0.378   4.887   3.420  0.8380 -0.5809  0.5203
  960MOL0     H26667  -0.242   5.095   3.403 -0.8584  2.0790  0.7211
  960MOL0     H26668  -0.192   5.086   3.562  0.2531  2.8243 -2.2255
  960MOL0     H26669  -0.415   5.147   3.639  3.3999 -0.4627  1.9469
  960MOL0     H26670  -0.345   5.269   3.549 -2.7708  2.1340 -1.5909
  960MOL0     H26671  -0.562   5.053   3.463 -2.0610 -0.2747 -0.3097
  960MOL0     H26672  -0.493   5.170   3.339 -0.6132 -0.6310 -0.2670
  960MOL0     H26673  -0.495   5.421   3.383  0.0086  0.2224 -0.0707
  960MOL0     H26674  -0.824   5.629   3.468 -0.9097 -1.0740  0.3989
  960MOL0     H26675  -0.694   5.617   3.351 -1.9819  1.2675 -0.1047
  960MOL0     H26676  -0.536   5.699   3.534 -0.5420 -1.8527  0.8984
  960MOL0     H26677  -0.676   5.714   3.648 -0.7658 -0.3018  0.8667
  960MOL0     H26678  -0.620   5.924   3.547 -0.2049  0.5524 -0.9717
  960MOL0     H26679  -0.632   5.858   3.390 -0.7305  1.3726  0.3553
  960MOL0     H26680  -0.885   5.831   3.549 -0.5862 -1.5099  0.0195
  960MOL0     H26681  -0.857   5.878   3.389  2.4125 -1.9378 -0.0384
  960MOL0     H26682  -1.082   5.934   3.497  1.8017  0.8633  0.6495
  960MOL0     H26683  -1.286   6.076   3.472 -0.9337  1.3313 -0.6215
  960MOL0     H26684  -1.668   6.244   3.416 -0.0986  0.3385  0.3350
  960MOL0     H26685  -1.856   6.357   3.338 -0.0055 -0.4105 -1.9572
  960MOL0     H26686  -1.800   6.791   3.319 -0.2812 -0.1210 -3.2936
  960MOL0     H26687  -1.893   6.686   3.422 -2.4972  1.2034  0.2615
  960MOL0     H26688  -2.087   6.721   3.222  2.5671  0.1426 -3.7648
  960MOL0     H26689  -1.980   6.845   3.186  1.1913 -0.9044 -0.6618
  960MOL0     H26690  -2.011   6.956   3.391 -0.4292  0.9031 -0.8467
  960MOL0     H26691  -2.079   6.816   3.474  1.6293  1.3916 -0.3247
  960MOL0     H26692  -2.191   6.962   3.246  0.5699 -0.6039  0.4277
  960MOL0     H26693  -2.281   6.830   3.317 -0.1265  0.2664 -0.2476
  960MOL0     H26694  -2.192   7.100   3.468 -0.0742  0.3622  0.8000
  960MOL0     H26695  -2.263   6.955   3.551 -2.1876  1.0216  0.1025
  960MOL0     H26696  -2.458   6.957   3.423  0.4492 -0.1961  1.3692
  960MOL0     H26697  -2.405   7.099   3.326 -3.8733  2.1709  1.2142
  960MOL0     H26698  -2.494   7.052   3.599  1.3802 -1.3865 -0.9981
  960MOL0     H26699  -2.384   7.192   3.575  0.8443 -1.6164  0.3796
  960MOL0     H26700  -2.643   7.170   3.427 -1.0875 -2.3200  1.6435
  960MOL0     H26701  -2.528   7.312   3.438 -0.7780 -0.0037  1.7856
  960MOL0     H26702  -1.597   6.675   3.205 -0.7347 -0.3412  1.4808
  960MOL0     H26703  -1.398   6.530   3.245  1.0603  0.0464  3.1104
  960MOL0     H26704  -1.041   6.426   3.466 -2.4363  0.2028 -0.2659
  960MOL0     H26705  -0.846   6.288   3.460  0.1439 -1.6459  0.0312
  960MOL0     H26706   0.227   4.713   3.119  0.6597  0.2137 -0.3562
  960MOL0     H26707   0.412   4.650   2.958 -0.0080  1.8728 -0.3503
  960MOL0     H26708   0.760   4.605   2.644  0.3460 -0.7828  0.5311
  960MOL0     H26709   0.983   4.546   2.553  0.9128 -0.2890  0.4032
  960MOL0     H26710   1.301   4.430   2.831  1.8715  1.2613  0.0760
  960MOL0     H26711   1.299   4.607   2.807 -3.8099  0.1964  1.9952
  960MOL0     H26712   1.461   4.400   2.653 -0.8170 -0.7595  1.4720
  960MOL0     H26713   1.418   4.561   2.583 -1.6955 -2.8314 -0.4406
  960MOL0     H26714   1.561   4.519   2.848 -0.4954 -0.9878 -0.2162
  960MOL0     H26715   1.555   4.664   2.756 -2.6001 -0.5261  1.7255
  960MOL0     H26716   1.745   4.428   2.733  0.5120 -1.2693 -1.0291
  960MOL0     H26717   1.673   4.461   2.576 -0.4765 -0.6733  0.3038
  960MOL0     H26718   1.938   4.797   2.616  0.3376 -1.4591 -2.3109
  960MOL0     H26719   1.142   4.515   2.950  0.3192  3.1824  0.7874
  960MOL0     H26720   0.913   4.563   3.036  3.0162 -1.7137  0.0919
  961MOL0     O26721   7.433   1.958   0.259 -0.2097 -0.6971 -0.2429
  961MOL0     C26722   7.366   1.926   0.359  0.1727 -0.3161 -0.2312
  961MOL0     O26723   7.388   1.816   0.445 -0.4680 -0.6721  0.2298
  961MOL0     C26724   7.500   1.729   0.432  1.1091  0.7509  0.2267
  961MOL0     C26725   7.554   1.677   0.313 -0.4053 -0.5539 -0.0571
  961MOL0     C26726   7.663   1.590   0.309 -0.1085  0.3426 -0.4809
  961MOL0     C26727   7.726   1.542   0.427  1.1413 -0.5718  1.3647
  961MOL0     O26728   7.834   1.463   0.406  0.5669  0.7900 -0.3739
  961MOL0     C26729   7.885   1.395   0.521 -0.0779 -0.2011  0.3301
  961MOL0     C26730   8.003   1.314   0.469 -0.2176 -0.0332 -0.4837
  961MOL0     C26731   8.096   1.265   0.583  0.0750 -0.4918  0.8668
  961MOL0     C26732   8.226   1.198   0.530 -0.6735  0.3798  0.3827
  961MOL0     C26733   8.352   1.284   0.502  0.7997  0.3866 -0.0187
  961MOL0     C26734   8.337   1.392   0.402 -0.0268  0.2351  0.8414
  961MOL0     C26735   8.469   1.447   0.360  0.2722  0.4127  0.0281
  961MOL0     C26736   8.462   1.588   0.307  0.2681  0.5028  0.6087
  961MOL0     N26737   8.597   1.633   0.264 -0.9083  0.0285 -0.1590
  961MOL0     C26738   8.658   1.637   0.145 -1.2865  0.3095 -0.5433
  961MOL0     C26739   8.791   1.664   0.165 -0.0773 -0.8754 -0.2543
  961MOL0     C26740   8.904   1.679   0.071 -0.3703 -0.7749  0.6610
  961MOL0     C26741   9.046   1.719   0.113 -0.1817  0.6293 -0.2825
  961MOL0     C26742   9.063   1.872   0.071  0.3799 -0.3374 -0.3070
  961MOL0     C26743   9.208   1.919   0.115 -0.6008  1.0200  0.1558
  961MOL0     O26744   9.319   1.860   0.047  0.5421  0.3993 -0.0110
  961MOL0     C26745   9.332   1.887  -0.089 -0.5218  0.9189 -0.4594
  961MOL0     C26746   9.449   1.849  -0.164 -0.3565 -0.2808 -0.8804
  961MOL0     C26747   9.459   1.867  -0.301  0.2748  0.8260 -0.2311
  961MOL0     C26748   9.371   1.950  -0.364 -0.0025  0.0087  1.0667
  961MOL0     C26749   9.386   1.981  -0.503 -0.1014 -0.7159  0.8684
  961MOL0     O26750   9.514   1.969  -0.564  0.4434 -0.0182 -0.6153
  961MOL0     C26751   9.546   2.031  -0.680  0.7402 -0.5949  0.0714
  961MOL0     C26752   9.482   2.156  -0.740 -0.2177  0.4459 -0.4848
  961MOL0     C26753   9.539   2.216  -0.849 -0.3342 -0.5993 -0.0841
  961MOL0     C26754   9.653   2.166  -0.910 -0.5371 -0.0084  0.0824
  961MOL0     O26755   9.717   2.228  -1.017  0.0030  0.0768  0.3865
  961MOL0     C26756   9.779   2.157  -1.124  0.2603 -0.2948 -0.5849
  961MOL0     C26757   9.849   2.258  -1.207 -0.4903  0.1986  0.4441
  961MOL0     C26758   9.758   2.369  -1.256  0.2665 -0.0237  0.6617
  961MOL0     C26759   9.766   2.385  -1.406 -0.0115 -1.2491  0.4693
  961MOL0     C26760   9.726   2.526  -1.451 -0.5175  0.5033  0.0286
  961MOL0     C26761   9.578   2.566  -1.434 -0.1115  0.0472 -0.8420
  961MOL0     C26762   9.544   2.711  -1.488 -0.7197  0.3942  0.3493
  961MOL0     C26763   9.539   2.724  -1.655  0.0792  0.0141 -0.8339
  961MOL0    Cl26764   9.470   2.889  -1.696  0.2218  0.3180 -0.3491
  961MOL0     C26765   9.723   2.060  -0.846  0.4144 -0.4548  1.0085
  961MOL0     C26766   9.669   1.991  -0.739 -0.2369  0.3850 -0.8714
  961MOL0     O26767   9.282   2.011  -0.562 -0.2758 -0.0526 -0.3842
  961MOL0     C26768   9.262   1.998  -0.294  0.4568  0.1497  1.2016
  961MOL0     C26769   9.245   1.974  -0.159 -0.9290 -0.1086  0.3641
  961MOL0     N26770   8.804   1.681   0.298 -0.8595  0.4149  0.3290
  961MOL0     N26771   8.695   1.649   0.362 -0.6949  0.2644 -0.0881
  961MOL0     C26772   7.660   1.585   0.545 -0.1012 -0.5704 -0.6841
  961MOL0     C26773   7.543   1.667   0.551 -0.1222 -0.7509  0.4809
  961MOL0     C26774   7.239   2.004   0.386  0.8599 -1.3399  0.8449
  961MOL0     C26775   7.204   2.111   0.307  0.3463 -0.7023  0.1571
  961MOL0     C26776   7.084   2.177   0.321 -0.2684  0.0650 -0.4019
  961MOL0     C26777   6.995   2.131   0.427  0.0143 -0.0888 -1.3134
  961MOL0     O26778   6.878   2.194   0.427  0.5402  0.2204  0.2073
  961MOL0     C26779   6.790   2.161   0.526 -0.1628 -0.3122  0.3699
  961MOL0     C26780   6.657   2.241   0.496 -0.3399  0.3770  0.3463
  961MOL0     C26781   6.547   2.220   0.606 -0.1593 -0.3971  0.2910
  961MOL0     C26782   6.421   2.299   0.573 -0.0833  0.2443  0.3551
  961MOL0     C26783   6.329   2.210   0.500  0.3323  0.3502  0.2702
  961MOL0     C26784   6.241   2.153   0.440 -0.4116 -1.1188  0.2153
  961MOL0     C26785   7.029   2.021   0.509 -0.1984  0.1693  1.1527
  961MOL0     C26786   7.151   1.960   0.488  0.2062  0.2507  0.7014
  961MOL0     H26787   7.506   1.726   0.230 -1.8543  0.7508  1.4743
  961MOL0     H26788   7.707   1.566   0.213 -0.0028  0.7289 -0.5332
  961MOL0     H26789   7.809   1.326   0.559  0.9656 -1.5485  0.0324
  961MOL0     H26790   7.904   1.464   0.603  0.8075 -0.3054  0.2240
  961MOL0     H26791   8.060   1.384   0.407 -0.5090  0.3731 -0.2966
  961MOL0     H26792   7.967   1.237   0.401 -1.0866 -1.0363  1.0458
  961MOL0     H26793   8.040   1.196   0.646 -1.7757 -0.0112 -0.1738
  961MOL0     H26794   8.125   1.343   0.654  0.8578 -1.3472  1.5021
  961MOL0     H26795   8.244   1.121   0.605 -1.2454  1.7949  2.0391
  961MOL0     H26796   8.194   1.151   0.436  1.0816 -1.4016  0.5895
  961MOL0     H26797   8.420   1.204   0.472  0.0368  0.6955 -2.9419
  961MOL0     H26798   8.391   1.335   0.591  1.2797  2.8078 -1.5117
  961MOL0     H26799   8.275   1.472   0.443  1.7947  0.9351  2.3205
  961MOL0     H26800   8.283   1.344   0.320  2.8755 -1.1145 -0.4168
  961MOL0     H26801   8.528   1.452   0.452 -2.3111  0.1528  1.7782
  961MOL0     H26802   8.531   1.375   0.306  0.0075 -1.4142  2.0484
  961MOL0     H26803   8.429   1.663   0.380  1.3044  2.1622 -0.5489
  961MOL0     H26804   8.394   1.592   0.221  0.6068  1.1545  0.3599
  961MOL0     H26805   8.617   1.621   0.046  1.5352 -1.2909 -1.5755
  961MOL0     H26806   8.869   1.740  -0.012  0.3090 -2.3433 -0.8530
  961MOL0     H26807   8.907   1.579   0.025  0.9630 -0.6526  0.4550
  961MOL0     H26808   9.115   1.667   0.045 -1.4770  2.0166 -2.7934
  961MOL0     H26809   9.074   1.701   0.218  0.4622  1.5846 -0.2796
  961MOL0     H26810   9.048   1.874  -0.037 -1.4017 -2.9506 -0.2177
  961MOL0     H26811   8.984   1.933   0.115 -0.3891 -1.6231  0.1525
  961MOL0     H26812   9.221   1.905   0.222 -2.0460  0.1140  0.2302
  961MOL0     H26813   9.209   2.028   0.102 -2.2314  1.2973  1.9964
  961MOL0     H26814   9.520   1.791  -0.107 -2.8332 -1.5688  1.1197
  961MOL0     H26815   9.551   1.831  -0.344  1.3566  1.6530  1.2966
  961MOL0     H26816   9.389   2.191  -0.696 -0.4694  0.5474 -1.0907
  961MOL0     H26817   9.491   2.300  -0.898 -1.0578 -0.5814  0.6165
  961MOL0     H26818   9.702   2.111  -1.186 -0.4021  1.5583 -1.2049
  961MOL0     H26819   9.849   2.083  -1.085  1.2600  1.5029  1.1798
  961MOL0     H26820   9.882   2.210  -1.299 -1.8263  2.2349 -1.1756
  961MOL0     H26821   9.930   2.303  -1.147 -0.7179 -0.1900  1.0553
  961MOL0     H26822   9.783   2.468  -1.217 -1.7667  0.4373  0.9065
  961MOL0     H26823   9.652   2.354  -1.235  0.1270 -1.1581 -0.7130
  961MOL0     H26824   9.871   2.375  -1.432  1.4688  4.1212  3.0195
  961MOL0     H26825   9.714   2.306  -1.461  0.3842 -0.8078 -0.5679
  961MOL0     H26826   9.752   2.544  -1.556 -1.8164 -1.0239 -0.6091
  961MOL0     H26827   9.798   2.592  -1.402 -0.4201  3.1841 -3.3315
  961MOL0     H26828   9.550   2.555  -1.329  0.7688 -0.5767 -0.6544
  961MOL0     H26829   9.520   2.498  -1.498  2.0052 -0.0921 -2.7813
  961MOL0     H26830   9.445   2.736  -1.450 -0.7928 -1.1763  1.2551
  961MOL0     H26831   9.626   2.778  -1.458  1.6413 -2.2283  0.1667
  961MOL0     H26832   9.483   2.646  -1.707  0.4390  0.9169 -2.6765
  961MOL0     H26833   9.641   2.716  -1.693 -0.0757 -5.1001 -0.8747
  961MOL0     H26834   9.821   2.025  -0.878 -0.4755 -0.6181 -1.9110
  961MOL0     H26835   9.721   1.906  -0.694 -4.4614 -2.1510 -0.2521
  961MOL0     H26836   9.186   2.053  -0.348  1.4785 -0.8581 -1.4160
  961MOL0     H26837   9.170   2.029  -0.103 -2.6074  0.8063 -2.5593
  961MOL0     H26838   7.685   1.544   0.642 -1.6588 -0.0909 -0.0526
  961MOL0     H26839   7.491   1.687   0.644  0.7354 -1.1699  1.0688
  961MOL0     H26840   7.268   2.139   0.225  0.8538  2.3153  1.4294
  961MOL0     H26841   7.057   2.259   0.254  2.4018  1.1548 -0.2579
  961MOL0     H26842   6.831   2.187   0.624  0.9142 -3.9194  1.0010
  961MOL0     H26843   6.768   2.054   0.525 -1.6125 -0.0527  1.3324
  961MOL0     H26844   6.675   2.348   0.480 -2.3356  0.5984 -0.6718
  961MOL0     H26845   6.627   2.206   0.397 -0.3528 -0.9129  0.7998
  961MOL0     H26846   6.588   2.264   0.698 -2.2124  2.0645  0.1516
  961MOL0     H26847   6.541   2.113   0.630 -0.9525 -0.3922  0.1364
  961MOL0     H26848   6.373   2.338   0.664  0.5323 -2.8029  2.1103
  961MOL0     H26849   6.451   2.379   0.504  1.2062  0.8219  1.5383
  961MOL0     H26850   6.155   2.103   0.399 -1.0764 -0.4843  0.7826
  961MOL0     H26851   6.972   1.977   0.591  2.3476 -0.8367  2.5049
  961MOL0     H26852   7.175   1.878   0.554 -3.5559  1.5473  4.1179
  962MOL0     O26853   1.763   1.527   0.329  0.3049  0.2757 -0.0131
  962MOL0     C26854   1.726   1.510   0.213 -0.3272 -0.2625  0.3812
  962MOL0     O26855   1.597   1.508   0.160  1.3783  0.6378 -0.1587
  962MOL0     C26856   1.479   1.500   0.234  0.5398 -0.1261  0.6960
  962MOL0     C26857   1.468   1.522   0.371 -0.1073  0.0129 -0.2106
  962MOL0     C26858   1.348   1.528   0.444 -0.1024 -0.6400  0.5878
  962MOL0     C26859   1.230   1.531   0.375  0.0595  0.0853 -0.1379
  962MOL0     O26860   1.106   1.539   0.436  1.1301  0.1079  0.0531
  962MOL0     C26861   1.045   1.671   0.410 -0.2337  0.9068  0.6281
  962MOL0     C26862   0.936   1.679   0.513 -0.0079 -0.2087 -0.1349
  962MOL0     C26863   0.814   1.588   0.489  1.1399  0.3538 -1.0443
  962MOL0     C26864   0.695   1.662   0.417 -0.2815  0.4246 -0.7722
  962MOL0     C26865   0.572   1.567   0.374 -1.2530 -0.5460  0.1666
  962MOL0     C26866   0.469   1.648   0.304  0.4324 -0.0438 -0.3532
  962MOL0     C26867   0.339   1.563   0.266  0.2685 -0.6299 -0.9810
  962MOL0     C26868   0.261   1.651   0.160  0.7873 -0.3149  1.3133
  962MOL0     N26869   0.156   1.570   0.117  0.1281 -0.6481 -0.3431
  962MOL0     C26870   0.032   1.573   0.179 -0.5040  0.3934 -0.0078
  962MOL0     C26871  -0.050   1.506   0.098 -0.5197 -0.9357  0.5953
  962MOL0     C26872  -0.200   1.493   0.109  0.0761  0.5485  0.9180
  962MOL0     C26873  -0.274   1.625   0.085  0.3555 -0.4644  0.6894
  962MOL0     C26874  -0.418   1.609   0.110  0.3547  0.5280 -1.1460
  962MOL0     C26875  -0.500   1.743   0.097  0.4506  0.2188  0.3777
  962MOL0     O26876  -0.640   1.719   0.145 -0.2210 -0.0287 -0.3428
  962MOL0     C26877  -0.742   1.670   0.071 -0.4060  0.0564  0.1186
  962MOL0     C26878  -0.874   1.678   0.120 -0.2390  0.0408  0.2992
  962MOL0     C26879  -0.979   1.619   0.055 -0.9742  0.1960  0.0530
  962MOL0     C26880  -0.957   1.548  -0.063  0.2477  0.0063  0.0807
  962MOL0     C26881  -1.070   1.470  -0.124 -0.0030 -0.6619 -0.7431
  962MOL0     O26882  -1.175   1.442  -0.035  0.5586 -0.0667  0.1850
  962MOL0     C26883  -1.282   1.369  -0.084 -0.1700 -0.8628 -0.2448
  962MOL0     C26884  -1.292   1.238  -0.043  0.5709 -1.5332  1.1391
  962MOL0     C26885  -1.412   1.161  -0.081  0.5172 -0.2364  0.3911
  962MOL0     C26886  -1.515   1.217  -0.158  0.2956  0.6575  0.2376
  962MOL0     O26887  -1.633   1.153  -0.193  0.2949  0.7684  0.4153
  962MOL0     C26888  -1.656   1.005  -0.182 -0.9303 -0.9647  0.3067
  962MOL0     C26889  -1.747   0.954  -0.298 -0.5569 -0.1572  0.2992
  962MOL0     C26890  -1.676   0.907  -0.424  0.2140  0.3974 -0.1775
  962MOL0     C26891  -1.699   0.764  -0.446  0.1926 -0.1784  0.4971
  962MOL0     C26892  -1.615   0.716  -0.560 -1.0893  0.3333  0.6271
  962MOL0     C26893  -1.584   0.568  -0.543 -0.6902  0.5346  0.6489
  962MOL0     C26894  -1.491   0.520  -0.658  0.6634 -0.5440 -0.4810
  962MOL0     C26895  -1.484   0.368  -0.672  0.0832  0.3993 -0.0982
  962MOL0    Cl26896  -1.640   0.298  -0.737  0.2911 -0.3263 -0.1558
  962MOL0     C26897  -1.497   1.351  -0.196  0.5860 -0.8330 -1.3578
  962MOL0     C26898  -1.384   1.422  -0.164 -0.6650 -0.2178  0.6378
  962MOL0     O26899  -1.068   1.423  -0.235 -0.2300 -0.3107  0.4334
  962MOL0     C26900  -0.831   1.552  -0.119  0.2045 -0.1469  0.0972
  962MOL0     C26901  -0.725   1.616  -0.056  1.1272 -0.6987  0.1780
  962MOL0     N26902   0.020   1.461  -0.015  0.8293  0.0167  0.1504
  962MOL0     N26903   0.143   1.489   0.008 -0.0474 -0.1178  0.4434
  962MOL0     C26904   1.236   1.509   0.238  0.2666  0.8791  0.2737
  962MOL0     C26905   1.356   1.491   0.166  1.0479 -1.0355  0.2026
  962MOL0     C26906   1.838   1.474   0.127  0.3570  0.1710  0.4475
  962MOL0     C26907   1.810   1.428   0.000  0.1988 -0.6451  0.1347
  962MOL0     C26908   1.919   1.411  -0.089  0.3001 -0.8707 -0.1864
  962MOL0     C26909   2.052   1.411  -0.052 -0.1631 -0.5189  0.1264
  962MOL0     O26910   2.149   1.389  -0.146 -0.2874  0.0398 -0.1855
  962MOL0     C26911   2.169   1.257  -0.182 -0.3248  0.1914 -0.7442
  962MOL0     C26912   2.266   1.188  -0.090  0.3000 -0.8009  0.0167
  962MOL0     C26913   2.323   1.062  -0.155 -0.9995  0.3988  0.0058
  962MOL0     C26914   2.423   1.012  -0.048  0.8944 -0.1825  0.4658
  962MOL0     C26915   2.496   0.911  -0.123 -0.0392 -0.1589 -0.5559
  962MOL0     C26916   2.554   0.838  -0.189  1.3134 -0.3381 -0.8470
  962MOL0     C26917   2.082   1.448   0.081 -0.3214  0.5336 -0.5985
  962MOL0     C26918   1.976   1.485   0.168 -0.1592  0.2567  0.2477
  962MOL0     H26919   1.554   1.526   0.437 -0.1825 -0.9111 -0.0397
  962MOL0     H26920   1.343   1.533   0.552  2.7615  0.3831  0.7710
  962MOL0     H26921   1.014   1.688   0.307  3.1344  4.8794 -0.0130
  962MOL0     H26922   1.116   1.752   0.431  2.1994 -1.1225  0.6656
  962MOL0     H26923   0.908   1.785   0.520 -1.5273 -0.4887 -1.2995
  962MOL0     H26924   0.987   1.653   0.606  0.8872 -0.5713 -0.7145
  962MOL0     H26925   0.789   1.566   0.593  1.8177  2.7366 -0.3065
  962MOL0     H26926   0.844   1.497   0.437 -0.4609  0.3877 -2.1342
  962MOL0     H26927   0.664   1.743   0.484 -0.7111 -0.6247  0.3409
  962MOL0     H26928   0.736   1.710   0.328  0.2962  2.0296  0.3061
  962MOL0     H26929   0.534   1.510   0.459  0.5533 -1.6737  0.2759
  962MOL0     H26930   0.606   1.495   0.299  0.1752  1.5625 -1.3289
  962MOL0     H26931   0.514   1.684   0.211  0.6012 -2.0981 -1.1192
  962MOL0     H26932   0.450   1.743   0.355  3.5343 -0.1617  1.2963
  962MOL0     H26933   0.373   1.470   0.220  2.1052 -0.3891 -0.2209
  962MOL0     H26934   0.280   1.537   0.353 -1.1139  0.1867 -1.6430
  962MOL0     H26935   0.325   1.686   0.078 -0.8029  0.6533  0.4472
  962MOL0     H26936   0.209   1.738   0.200 -1.0806  0.1011 -1.7160
  962MOL0     H26937   0.008   1.621   0.273 -2.4422  0.8800 -0.6957
  962MOL0     H26938  -0.236   1.455   0.205  1.2553 -0.3668  1.0267
  962MOL0     H26939  -0.231   1.409   0.046  2.2087 -0.3766  1.0301
  962MOL0     H26940  -0.253   1.661  -0.016  1.0563 -1.2656  0.5391
  962MOL0     H26941  -0.234   1.695   0.158  1.6954 -0.7601  0.2631
  962MOL0     H26942  -0.447   1.524   0.048  1.5650 -1.8912  1.3497
  962MOL0     H26943  -0.440   1.584   0.214 -3.6350 -0.0465 -1.9674
  962MOL0     H26944  -0.506   1.782  -0.005  3.2088 -0.9662 -0.3408
  962MOL0     H26945  -0.440   1.813   0.156  1.2811  0.4747 -0.7277
  962MOL0     H26946  -0.903   1.723   0.214 -1.4414  1.4661 -0.7062
  962MOL0     H26947  -1.067   1.609   0.118  0.8727 -0.6757  2.6378
  962MOL0     H26948  -1.203   1.205   0.011  2.0345 -0.0004 -0.2042
  962MOL0     H26949  -1.405   1.058  -0.048  0.5507  0.1944  1.7984
  962MOL0     H26950  -1.717   0.970  -0.098 -0.5299 -1.9386  0.2019
  962MOL0     H26951  -1.562   0.950  -0.176 -0.2361  0.1992  0.2863
  962MOL0     H26952  -1.825   1.026  -0.323 -2.2352 -0.7951  3.1918
  962MOL0     H26953  -1.807   0.873  -0.256 -0.3335 -1.3788 -1.5882
  962MOL0     H26954  -1.570   0.933  -0.414  0.7174 -2.1577  2.6094
  962MOL0     H26955  -1.717   0.947  -0.517 -0.2999  0.2285 -0.0304
  962MOL0     H26956  -1.675   0.714  -0.352 -2.6043 -0.7623  0.9890
  962MOL0     H26957  -1.805   0.747  -0.468  0.2159 -0.3796  0.5356
  962MOL0     H26958  -1.526   0.779  -0.571 -0.9059  0.4173  2.2966
  962MOL0     H26959  -1.662   0.721  -0.659  0.6262  3.3553 -0.1752
  962MOL0     H26960  -1.683   0.521  -0.540 -0.8935  0.8908  4.3255
  962MOL0     H26961  -1.546   0.543  -0.444 -1.4264 -1.1229  0.5407
  962MOL0     H26962  -1.505   0.560  -0.759  3.0433 -0.8249 -0.9824
  962MOL0     H26963  -1.389   0.550  -0.633  1.1932 -0.9022 -2.1401
  962MOL0     H26964  -1.459   0.324  -0.576  0.1241  1.0359  0.1872
  962MOL0     H26965  -1.402   0.356  -0.743 -0.6189 -2.6596 -0.5266
  962MOL0     H26966  -1.575   1.402  -0.252 -0.9235 -1.9616 -0.3671
  962MOL0     H26967  -1.373   1.527  -0.190  0.7146  0.0931  2.3569
  962MOL0     H26968  -0.836   1.517  -0.222 -1.4138  0.0210  0.0847
  962MOL0     H26969  -0.628   1.621  -0.104  1.1279  1.6310  0.3173
  962MOL0     H26970   1.150   1.521   0.172  2.0200 -2.3127 -2.9702
  962MOL0     H26971   1.362   1.464   0.061  1.0871 -0.6883  0.1147
  962MOL0     H26972   1.710   1.424  -0.042 -0.5238 -0.0502  1.7047
  962MOL0     H26973   1.897   1.406  -0.195 -1.3167 -0.5504  0.0998
  962MOL0     H26974   2.211   1.262  -0.283 -4.3343  0.9350 -2.5597
  962MOL0     H26975   2.076   1.199  -0.181  0.4777 -1.3005  2.8981
  962MOL0     H26976   2.342   1.263  -0.065 -2.9078  1.9612  2.4407
  962MOL0     H26977   2.216   1.161   0.003  0.0536 -0.9857 -0.1686
  962MOL0     H26978   2.359   1.085  -0.256 -0.3967 -2.0076 -0.3912
  962MOL0     H26979   2.247   0.990  -0.186  0.9817 -0.2759 -3.8861
  962MOL0     H26980   2.488   1.093  -0.013  1.6444 -0.8481  0.6431
  962MOL0     H26981   2.371   0.972   0.039 -0.6450  0.4445 -0.1326
  962MOL0     H26982   2.576   0.760  -0.261 -0.8950 -2.3410  0.5127
  962MOL0     H26983   2.184   1.455   0.119 -0.8165  1.0567  0.6917
  962MOL0     H26984   2.000   1.516   0.269 -1.3584 -1.1999  1.0230
  963MOL0     O26985   7.166   5.011   4.259 -0.7939  0.4778 -0.4864
  963MOL0     C26986   7.249   5.064   4.193  0.1459  0.3027 -0.4013
  963MOL0     O26987   7.228   5.185   4.135 -0.1652 -0.1518  0.4280
  963MOL0     C26988   7.108   5.257   4.146 -0.6582  0.5975  0.5419
  963MOL0     C26989   7.047   5.288   4.270 -0.8022 -0.6843  0.1018
  963MOL0     C26990   6.917   5.346   4.279  0.0779 -0.4807  0.5991
  963MOL0     C26991   6.847   5.382   4.167 -0.0950  0.7356 -0.2127
  963MOL0     O26992   6.723   5.450   4.181 -0.7915  0.4140  0.4999
  963MOL0     C26993   6.615   5.415   4.098 -1.1614  0.0529  0.3640
  963MOL0     C26994   6.556   5.279   4.128  0.1752  0.3387 -0.5378
  963MOL0     C26995   6.475   5.229   4.003 -0.5338 -0.6392  0.9200
  963MOL0     C26996   6.332   5.286   3.986 -0.3358 -0.2933  1.4546
  963MOL0     C26997   6.241   5.205   3.892 -0.0077 -0.4353 -0.3030
  963MOL0     C26998   6.245   5.254   3.751  0.3556 -0.2576  0.2527
  963MOL0     C26999   6.172   5.142   3.670 -0.0024  0.0347 -0.3893
  963MOL0     C27000   6.146   5.184   3.521 -0.7594 -0.3490  0.6637
  963MOL0     N27001   6.263   5.240   3.458  0.3609 -0.8039 -0.7601
  963MOL0     C27002   6.370   5.169   3.422  0.6731  0.3466 -1.0918
  963MOL0     C27003   6.455   5.261   3.369  0.7205 -0.2462  0.0749
  963MOL0     C27004   6.581   5.230   3.316 -0.3571 -0.5371  0.7242
  963MOL0     C27005   6.704   5.288   3.379  0.5570  0.0729 -0.1102
  963MOL0     C27006   6.826   5.256   3.299  0.4992  0.4347 -0.1011
  963MOL0     C27007   6.938   5.359   3.299 -0.3671  1.1313  0.2025
  963MOL0     O27008   7.033   5.315   3.395 -0.0888  0.1270  0.2040
  963MOL0     C27009   7.167   5.290   3.364  0.1633  0.4394 -0.4292
  963MOL0     C27010   7.246   5.219   3.460 -0.1039  0.5849 -0.1009
  963MOL0     C27011   7.388   5.208   3.446 -0.0812  0.1285 -0.2713
  963MOL0     C27012   7.447   5.256   3.329 -0.3433 -0.0798 -1.0398
  963MOL0     C27013   7.596   5.245   3.310  0.3191 -0.6826 -0.6340
  963MOL0     O27014   7.659   5.164   3.409 -1.2353 -0.4170  0.4308
  963MOL0     C27015   7.795   5.148   3.399 -0.3773  0.1024  1.1034
  963MOL0     C27016   7.828   5.062   3.294  0.7107 -1.0697 -0.2436
  963MOL0     C27017   7.957   5.017   3.290 -0.3344  0.5387 -0.2739
  963MOL0     C27018   8.056   5.047   3.386 -0.1636 -0.1320 -0.7160
  963MOL0     O27019   8.183   4.991   3.379 -0.8100  0.1632 -0.1431
  963MOL0     C27020   8.278   5.020   3.477  0.6200  0.0841  1.0445
  963MOL0     C27021   8.367   4.896   3.482 -0.2347  0.8994 -0.3491
  963MOL0     C27022   8.508   4.918   3.554  0.3733  0.5919  0.9641
  963MOL0     C27023   8.608   5.006   3.473 -0.4254 -0.2315  0.1199
  963MOL0     C27024   8.745   5.017   3.521 -0.6283  0.1189 -0.7387
  963MOL0     C27025   8.762   5.126   3.640  0.2782  0.6219 -0.8950
  963MOL0     C27026   8.730   5.070   3.783  0.0173  0.1657  0.2400
  963MOL0     C27027   8.774   5.157   3.896  0.3858 -0.3738  0.2464
  963MOL0    Cl27028   8.678   5.305   3.880 -0.1769  0.0725 -0.0178
  963MOL0     C27029   8.015   5.135   3.488 -1.2619 -0.5649  0.6604
  963MOL0     C27030   7.886   5.179   3.493  1.2380  0.4301 -0.2671
  963MOL0     O27031   7.657   5.302   3.219  0.0806  0.9951 -0.0763
  963MOL0     C27032   7.362   5.320   3.231 -0.4564 -0.2028 -0.3019
  963MOL0     C27033   7.228   5.344   3.252  0.7840  0.0771 -0.3184
  963MOL0     N27034   6.402   5.379   3.378  0.7957 -0.9726 -0.6396
  963MOL0     N27035   6.283   5.366   3.426  0.2051 -0.4000 -0.5453
  963MOL0     C27036   6.919   5.375   4.044  0.0284 -0.9413  0.3563
  963MOL0     C27037   7.047   5.309   4.037 -0.5582 -1.2447 -0.2273
  963MOL0     C27038   7.376   5.005   4.182  0.1167 -0.2587 -0.5255
  963MOL0     C27039   7.390   4.871   4.226  0.1150 -0.6432 -0.6610
  963MOL0     C27040   7.513   4.809   4.206  0.1492 -0.2721  0.6035
  963MOL0     C27041   7.626   4.875   4.158  0.2349 -0.4165  0.8663
  963MOL0     O27042   7.754   4.822   4.136  0.5866 -1.0074  0.2473
  963MOL0     C27043   7.810   4.766   4.258 -0.0202 -0.8294 -0.2513
  963MOL0     C27044   7.954   4.729   4.218  0.5406 -0.1802 -0.4711
  963MOL0     C27045   7.985   4.676   4.084 -0.2972 -0.3732 -0.7129
  963MOL0     C27046   7.902   4.554   4.048 -0.7770 -0.2460 -0.6969
  963MOL0     C27047   7.949   4.500   3.920 -0.0889 -0.1336  0.5725
  963MOL0     C27048   7.985   4.440   3.819 -0.1708  0.2323  0.0963
  963MOL0     C27049   7.607   5.009   4.124  1.0095  0.1583  0.0631
  963MOL0     C27050   7.493   5.075   4.144  0.0820 -0.0017 -0.9823
  963MOL0     H27051   7.091   5.245   4.359  1.1612  1.1844  0.0864
  963MOL0     H27052   6.864   5.329   4.372 -0.4364 -0.1168  0.3747
  963MOL0     H27053   6.660   5.422   3.999 -3.4622  0.9286 -0.6782
  963MOL0     H27054   6.536   5.490   4.109 -0.3758  1.2725 -1.7383
  963MOL0     H27055   6.484   5.284   4.210  0.3725 -2.7596 -0.0581
  963MOL0     H27056   6.636   5.206   4.146 -1.3109 -1.1396  0.3907
  963MOL0     H27057   6.471   5.119   4.007 -0.6858 -0.9743 -3.7841
  963MOL0     H27058   6.539   5.234   3.915  1.2980 -0.4622  2.2107
  963MOL0     H27059   6.294   5.278   4.088 -2.2767 -0.0872  0.8022
  963MOL0     H27060   6.331   5.387   3.943 -1.2689 -0.6877  0.5010
  963MOL0     H27061   6.138   5.204   3.928 -0.5046 -0.6363 -1.6627
  963MOL0     H27062   6.277   5.102   3.890  0.8328 -0.1533 -0.2112
  963MOL0     H27063   6.350   5.256   3.718  0.2921  3.3556 -0.1379
  963MOL0     H27064   6.192   5.349   3.740 -1.2620 -1.2803 -1.2659
  963MOL0     H27065   6.227   5.048   3.671  4.2525  2.2396 -0.8150
  963MOL0     H27066   6.077   5.115   3.717 -1.3773  1.2580 -2.2754
  963MOL0     H27067   6.068   5.261   3.518  0.9724  1.4363 -1.0197
  963MOL0     H27068   6.105   5.108   3.454 -1.9364  1.0080 -0.2221
  963MOL0     H27069   6.373   5.064   3.451  0.9568  0.4729 -0.6554
  963MOL0     H27070   6.576   5.248   3.208  1.6268 -0.3548  0.6374
  963MOL0     H27071   6.596   5.121   3.315  1.0805 -0.3476  0.0375
  963MOL0     H27072   6.729   5.249   3.478 -0.3662 -0.1978  0.0258
  963MOL0     H27073   6.689   5.395   3.398  0.0943  0.2475 -1.3476
  963MOL0     H27074   6.861   5.162   3.342 -1.3330 -0.0127  0.5323
  963MOL0     H27075   6.800   5.242   3.194  2.2544  2.2026 -0.8460
  963MOL0     H27076   6.899   5.458   3.326  1.8754  1.2965  3.3230
  963MOL0     H27077   6.968   5.362   3.194 -4.1636  1.8576 -1.0034
  963MOL0     H27078   7.208   5.186   3.556  0.7286  3.3733  1.2836
  963MOL0     H27079   7.448   5.161   3.523 -0.9819 -2.2993 -0.9812
  963MOL0     H27080   7.740   5.026   3.241 -0.9302  0.5210  1.2670
  963MOL0     H27081   7.983   4.951   3.208  1.3086  1.4388 -0.5314
  963MOL0     H27082   8.225   5.020   3.573  0.2017 -0.1367  0.8159
  963MOL0     H27083   8.335   5.111   3.453  3.7477 -1.7404  1.0274
  963MOL0     H27084   8.386   4.858   3.381 -0.2437 -0.5571  0.1868
  963MOL0     H27085   8.299   4.828   3.533 -0.0981  2.1357  1.6204
  963MOL0     H27086   8.553   4.820   3.572 -2.1641 -0.8685 -0.0942
  963MOL0     H27087   8.496   4.969   3.650 -0.1920  3.3521 -0.4767
  963MOL0     H27088   8.608   4.971   3.370 -2.1620 -1.5287  0.5143
  963MOL0     H27089   8.568   5.108   3.469 -0.8690 -0.3808 -4.3121
  963MOL0     H27090   8.813   5.059   3.446  0.0199  1.2353  0.4134
  963MOL0     H27091   8.781   4.918   3.551  1.0496  1.2439  1.2586
  963MOL0     H27092   8.713   5.220   3.613 -2.4824 -1.3160 -3.3233
  963MOL0     H27093   8.868   5.149   3.650  0.5666 -1.6014  3.6282
  963MOL0     H27094   8.623   5.059   3.803  0.0092  0.7663  0.5534
  963MOL0     H27095   8.780   4.973   3.786  1.5690  0.8260 -2.1622
  963MOL0     H27096   8.883   5.168   3.889  0.3202  2.0054  1.8403
  963MOL0     H27097   8.744   5.107   3.989  1.5104 -0.8888  0.3485
  963MOL0     H27098   8.078   5.175   3.567  0.8395  0.1234 -1.2814
  963MOL0     H27099   7.854   5.257   3.561 -0.9012 -0.6906  0.1140
  963MOL0     H27100   7.404   5.347   3.135 -1.2274 -1.4008 -1.0093
  963MOL0     H27101   7.174   5.402   3.179  1.9914  0.4764 -0.9222
  963MOL0     H27102   6.888   5.428   3.955 -2.1429  0.3670  1.7970
  963MOL0     H27103   7.092   5.279   3.943 -1.8712 -3.1508 -0.2957
  963MOL0     H27104   7.305   4.814   4.263  0.2810 -0.3920  0.1061
  963MOL0     H27105   7.526   4.703   4.223 -0.0385 -0.2222  1.0641
  963MOL0     H27106   7.759   4.678   4.296 -0.6803 -1.1301 -1.7788
  963MOL0     H27107   7.810   4.842   4.336  1.6072 -1.5734  0.5263
  963MOL0     H27108   8.021   4.815   4.222  1.1319 -0.5123 -2.4513
  963MOL0     H27109   8.004   4.669   4.295  1.1020  2.3566  1.2792
  963MOL0     H27110   8.094   4.666   4.087  0.0495  2.6141 -0.5397
  963MOL0     H27111   7.966   4.755   4.011  0.2999  1.1247  0.6847
  963MOL0     H27112   7.904   4.476   4.125 -0.7572 -2.4999 -2.8367
  963MOL0     H27113   7.802   4.584   4.017  0.4543  6.0359  0.2295
  963MOL0     H27114   8.018   4.374   3.741 -0.4068 -1.5121  1.4113
  963MOL0     H27115   7.692   5.047   4.068  1.6395 -0.2415  0.7298
  963MOL0     H27116   7.468   5.176   4.111 -0.5354 -0.3861 -1.7213
  964MOL0     O27117   1.620  11.290  10.454 -0.4033  0.3887  0.8384
  964MOL0     C27118   1.571  11.382  10.390 -0.1973  0.2441  0.0891
  964MOL0     O27119   1.642  11.480  10.342 -0.2605 -0.6187  0.3790
  964MOL0     C27120   1.778  11.497  10.360  0.4258 -0.1422  0.5549
  964MOL0     C27121   1.846  11.541  10.250  1.2338  0.7994  0.2629
  964MOL0     C27122   1.984  11.554  10.257 -0.8081 -0.5648 -0.2403
  964MOL0     C27123   2.059  11.531  10.373  0.7517 -0.4063  0.0612
  964MOL0     O27124   2.191  11.522  10.351 -0.1353 -0.4404  0.1695
  964MOL0     C27125   2.278  11.557  10.462 -1.5912  0.5582 -1.0483
  964MOL0     C27126   2.424  11.552  10.423 -0.2452 -0.7420  0.2045
  964MOL0     C27127   2.451  11.681  10.339 -0.0011  0.3538 -0.3122
  964MOL0     C27128   2.586  11.675  10.267 -0.1715  0.7676  1.0390
  964MOL0     C27129   2.720  11.690  10.342  0.1906  0.4149 -0.2984
  964MOL0     C27130   2.715  11.829  10.414  0.2257  0.2519  0.6314
  964MOL0     C27131   2.827  11.847  10.516  0.1973 -0.1140  0.0802
  964MOL0     C27132   2.777  11.777  10.645  0.0786  0.6915  0.2997
  964MOL0     N27133   2.874  11.775  10.750  0.5230  0.0351 -0.0449
  964MOL0     C27134   2.879  11.864  10.856  0.5551 -0.9060 -0.2930
  964MOL0     C27135   2.980  11.825  10.939  0.5911 -0.3265 -1.2976
  964MOL0     C27136   2.998  11.878  11.078  0.3443 -0.2644 -0.5192
  964MOL0     C27137   3.044  11.763  11.166  0.2831 -0.4629 -0.4425
  964MOL0     C27138   2.940  11.639  11.169  0.2161 -0.5537  0.1031
  964MOL0     C27139   2.791  11.660  11.217  0.4413  0.5457  0.0519
  964MOL0     O27140   2.713  11.749  11.135  0.7549  0.2018  0.3283
  964MOL0     C27141   2.580  11.783  11.158 -0.3244  0.4138 -0.0393
  964MOL0     C27142   2.510  11.835  11.050  0.3103 -1.2388 -0.7433
  964MOL0     C27143   2.378  11.881  11.068 -0.2369 -0.7253 -0.6939
  964MOL0     C27144   2.318  11.896  11.195 -0.0444 -0.0299 -0.5856
  964MOL0     C27145   2.188  11.972  11.219 -0.2444  0.2632 -0.8411
  964MOL0     O27146   2.111  11.978  11.113  0.4239 -0.2054 -0.6298
  964MOL0     C27147   1.993  12.034  11.112 -0.1631  0.2758  0.4841
  964MOL0     C27148   1.959  12.129  11.024 -0.6394 -0.1075 -0.0119
  964MOL0     C27149   1.838  12.178  11.020 -0.1888 -0.6060  0.5944
  964MOL0     C27150   1.732  12.141  11.096  0.8693 -0.1754 -0.1642
  964MOL0     O27151   1.607  12.198  11.063 -0.2208  0.6603 -0.5212
  964MOL0     C27152   1.499  12.144  11.139  0.1794  0.4669  0.2044
  964MOL0     C27153   1.362  12.186  11.082  0.5766  0.5156  0.6997
  964MOL0     C27154   1.237  12.164  11.183 -0.8534 -0.4920 -0.2692
  964MOL0     C27155   1.201  12.013  11.189  0.3720 -0.7654  0.5752
  964MOL0     C27156   1.075  11.995  11.272 -0.6448 -0.5366  0.8754
  964MOL0     C27157   1.026  11.854  11.240  0.4274 -0.5777  0.8178
  964MOL0     C27158   0.969  11.812  11.107  0.7788 -0.5912 -0.0468
  964MOL0     C27159   0.945  11.660  11.101 -0.7740 -0.0038  0.4867
  964MOL0    Cl27160   0.910  11.615  10.931  1.0469 -0.1416 -0.1312
  964MOL0     C27161   1.764  12.046  11.190  0.5332  0.1722 -0.9156
  964MOL0     C27162   1.895  11.993  11.205  0.1486  0.3383  0.5574
  964MOL0     O27163   2.164  12.018  11.329 -0.2915 -0.4412 -0.1640
  964MOL0     C27164   2.393  11.850  11.308 -0.0524 -1.1007 -0.3031
  964MOL0     C27165   2.526  11.797  11.288  0.1166 -0.0498 -0.1538
  964MOL0     N27166   3.049  11.721  10.873  0.3069  0.5838  0.2124
  964MOL0     N27167   2.992  11.704  10.757 -0.1617  0.1509 -0.2673
  964MOL0     C27168   1.984  11.494  10.489 -0.3082 -0.2032 -0.2087
  964MOL0     C27169   1.848  11.472  10.474  0.1562  0.6244  0.5222
  964MOL0     C27170   1.418  11.382  10.383  0.9914  0.7062  0.4484
  964MOL0     C27171   1.329  11.294  10.455  0.9732  0.1812  0.7271
  964MOL0     C27172   1.195  11.287  10.431  0.1738 -0.1870 -0.0775
  964MOL0     C27173   1.135  11.374  10.331  0.7950 -0.0856  0.3780
  964MOL0     O27174   0.998  11.392  10.305 -0.0464 -0.2237 -0.3845
  964MOL0     C27175   0.923  11.371  10.429 -1.1305  0.2630  0.4069
  964MOL0     C27176   0.771  11.399  10.423 -0.0862  0.3335 -0.5775
  964MOL0     C27177   0.714  11.370  10.563  0.1638 -0.0801 -0.6173
  964MOL0     C27178   0.557  11.380  10.569 -0.1371  0.0680 -0.7779
  964MOL0     C27179   0.495  11.504  10.529 -0.3169  0.5834  0.7515
  964MOL0     C27180   0.439  11.608  10.497 -0.7119 -0.3244  0.0224
  964MOL0     C27181   1.214  11.450  10.247  0.2744 -0.1679 -0.7430
  964MOL0     C27182   1.357  11.460  10.280  0.8828 -0.0266  0.4618
  964MOL0     H27183   1.791  11.579  10.165 -1.0612  2.4517  2.3517
  964MOL0     H27184   2.045  11.583  10.172  0.3986 -1.3393  0.3520
  964MOL0     H27185   2.273  11.482  10.542  0.5669 -1.0145 -2.2866
  964MOL0     H27186   2.257  11.657  10.501  1.4556  2.4232 -3.6841
  964MOL0     H27187   2.445  11.469  10.354 -0.9215 -1.6207  1.0329
  964MOL0     H27188   2.479  11.543  10.516 -0.7668  4.2166  1.2377
  964MOL0     H27189   2.442  11.763  10.411  1.7369 -0.7781  1.2630
  964MOL0     H27190   2.375  11.685  10.260 -0.6903 -0.0546  0.3124
  964MOL0     H27191   2.603  11.581  10.213 -1.1618 -0.1874  2.3156
  964MOL0     H27192   2.575  11.745  10.184  0.9527 -1.0507 -0.7541
  964MOL0     H27193   2.805  11.682  10.274 -0.3616 -1.5711 -0.8048
  964MOL0     H27194   2.729  11.605  10.410 -0.2829 -0.4980 -1.3475
  964MOL0     H27195   2.619  11.842  10.465  1.1468 -0.7613  2.7867
  964MOL0     H27196   2.727  11.908  10.341  0.4667  1.1945  1.6630
  964MOL0     H27197   2.909  11.798  10.463 -1.8062 -0.3037 -3.1221
  964MOL0     H27198   2.836  11.953  10.543 -1.2921 -0.5317  2.4751
  964MOL0     H27199   2.753  11.673  10.622  0.9400  0.2425  1.3309
  964MOL0     H27200   2.681  11.814  10.682 -1.1109 -1.7702 -0.1442
  964MOL0     H27201   2.802  11.938  10.876  3.7974  2.2272  1.7493
  964MOL0     H27202   2.916  11.929  11.128  0.6448  0.8620 -1.1464
  964MOL0     H27203   3.084  11.944  11.068 -0.7812  1.2667 -0.3930
  964MOL0     H27204   3.057  11.796  11.270  1.1994 -0.4901 -0.5421
  964MOL0     H27205   3.140  11.722  11.133  0.4894 -1.1584  0.9339
  964MOL0     H27206   2.936  11.608  11.064  0.1459  0.2148 -0.1269
  964MOL0     H27207   2.991  11.562  11.228  3.9666  0.3063 -1.7238
  964MOL0     H27208   2.792  11.716  11.311 -1.7422 -1.5801  1.4666
  964MOL0     H27209   2.739  11.568  11.244  0.7133  0.4565  0.2812
  964MOL0     H27210   2.555  11.832  10.951  1.0915  0.1024 -0.4548
  964MOL0     H27211   2.317  11.923  10.988  0.0320  2.5698  0.6797
  964MOL0     H27212   2.031  12.176  10.957  0.4262  0.7602  1.6715
  964MOL0     H27213   1.841  12.259  10.948 -0.0875 -1.1694 -0.0394
  964MOL0     H27214   1.506  12.177  11.243 -1.9908 -1.7275  1.1617
  964MOL0     H27215   1.501  12.035  11.131  0.8665  0.4533  0.5590
  964MOL0     H27216   1.335  12.129  10.993 -2.8614  1.1119  1.2229
  964MOL0     H27217   1.377  12.292  11.060  3.1730 -0.1580 -1.1521
  964MOL0     H27218   1.150  12.215  11.141  1.3147  0.8112 -3.5726
  964MOL0     H27219   1.256  12.193  11.286 -0.0949  1.9489 -1.0355
  964MOL0     H27220   1.181  11.993  11.083 -1.6139 -0.3856  0.8441
  964MOL0     H27221   1.277  11.952  11.238 -1.1225 -0.8473  2.9080
  964MOL0     H27222   1.007  12.070  11.232  0.2788  0.6202  1.4094
  964MOL0     H27223   1.092  12.004  11.379 -4.0802 -0.1320  1.4943
  964MOL0     H27224   0.943  11.831  11.308 -0.3844 -1.3502 -0.3900
  964MOL0     H27225   1.111  11.790  11.263  2.6002  2.2322  1.1006
  964MOL0     H27226   0.873  11.861  11.088  1.5549  1.1032  0.2419
  964MOL0     H27227   1.029  11.861  11.030 -1.4072  3.8306  0.7073
  964MOL0     H27228   0.865  11.627  11.168 -0.6252 -4.0370 -1.0482
  964MOL0     H27229   1.035  11.607  11.131  0.3598  1.4727 -0.1649
  964MOL0     H27230   1.685  12.011  11.255  1.4576 -0.4603 -0.0973
  964MOL0     H27231   1.913  11.926  11.288 -1.9347 -0.5223  0.3781
  964MOL0     H27232   2.350  11.850  11.407 -2.7174  4.0636 -1.0881
  964MOL0     H27233   2.587  11.772  11.374 -0.5960  1.5461  0.8709
  964MOL0     H27234   2.037  11.474  10.582  1.7693  0.1661 -1.2580
  964MOL0     H27235   1.799  11.437  10.565  0.4780  2.8118  1.6164
  964MOL0     H27236   1.371  11.225  10.527 -2.2259 -0.7664  1.8535
  964MOL0     H27237   1.147  11.205  10.483  4.1530 -2.0017  1.1287
  964MOL0     H27238   0.976  11.438  10.496  2.3829  0.5427 -2.3593
  964MOL0     H27239   0.929  11.269  10.469 -3.9722 -0.3457 -0.4463
  964MOL0     H27240   0.762  11.505  10.399 -0.9039  0.6658  1.0373
  964MOL0     H27241   0.706  11.342  10.356 -0.4583  1.5838 -1.3227
  964MOL0     H27242   0.748  11.439  10.642  1.0562 -0.0219 -1.0440
  964MOL0     H27243   0.753  11.277  10.606 -1.7527  0.7404  3.4416
  964MOL0     H27244   0.506  11.299  10.516 -2.4981  0.7337  0.3157
  964MOL0     H27245   0.529  11.349  10.670 -1.9805  0.3097 -1.1642
  964MOL0     H27246   0.395  11.705  10.500 -0.9407 -0.4416  0.7020
  964MOL0     H27247   1.169  11.504  10.163 -3.5017 -4.8772 -2.1594
  964MOL0     H27248   1.418  11.532  10.226  0.9076 -0.8135 -0.5805
  965MOL0     O27249   3.554   7.134   7.951 -0.0996 -0.2402 -0.6805
  965MOL0     C27250   3.590   7.071   8.052  0.4412  0.8377 -0.4214
  965MOL0     O27251   3.720   7.033   8.074  0.1313 -0.0910 -0.0745
  965MOL0     C27252   3.822   7.101   8.017  0.1333  0.3782  1.0268
  965MOL0     C27253   3.933   7.017   7.996 -0.3525  0.2253  0.6338
  965MOL0     C27254   4.043   7.070   7.930  0.0201  0.2231  1.0517
  965MOL0     C27255   4.049   7.202   7.879  0.3192  0.2270  0.7771
  965MOL0     O27256   4.172   7.237   7.824  0.5197 -0.5858  0.1708
  965MOL0     C27257   4.161   7.362   7.746  1.0703  0.5291  0.6125
  965MOL0     C27258   4.286   7.389   7.671 -0.2950 -0.7371 -0.3444
  965MOL0     C27259   4.275   7.519   7.584 -0.1010  0.1092  0.2175
  965MOL0     C27260   4.407   7.564   7.522 -0.2598 -0.4252  0.4075
  965MOL0     C27261   4.438   7.489   7.402  0.3231 -0.3599  0.1231
  965MOL0     C27262   4.574   7.518   7.355  0.2655 -0.5561 -0.3951
  965MOL0     C27263   4.579   7.575   7.206 -0.2143  0.2405 -0.0766
  965MOL0     C27264   4.707   7.657   7.200 -0.4173 -0.4832 -1.2311
  965MOL0     N27265   4.833   7.585   7.214 -1.4141 -0.5004  0.3836
  965MOL0     C27266   4.869   7.494   7.114  0.1659  0.4109 -0.9571
  965MOL0     C27267   5.002   7.464   7.129  0.2764 -0.3329  0.3974
  965MOL0     C27268   5.078   7.377   7.038 -0.0516 -0.5932 -0.1385
  965MOL0     C27269   5.205   7.316   7.078  0.4592 -0.6787  0.0607
  965MOL0     C27270   5.265   7.220   6.972 -0.3004 -0.6110 -0.3043
  965MOL0     C27271   5.407   7.180   7.035  0.0843  0.1043  0.2704
  965MOL0     O27272   5.425   7.054   6.968  0.3119  0.7018  0.2002
  965MOL0     C27273   5.555   7.015   6.945 -0.2508  0.5531 -0.2813
  965MOL0     C27274   5.662   7.102   6.934  1.0814 -0.3429 -0.0557
  965MOL0     C27275   5.796   7.066   6.921 -0.4990  0.3234 -0.2128
  965MOL0     C27276   5.827   6.929   6.915 -0.3113  0.3065  0.3207
  965MOL0     C27277   5.967   6.887   6.900 -0.2736 -0.0897  0.5146
  965MOL0     O27278   6.064   6.966   6.959 -0.1853 -0.3651 -0.5936
  965MOL0     C27279   6.193   6.929   6.929  0.4771  0.7556 -0.2188
  965MOL0     C27280   6.251   6.994   6.825  0.2352  0.0995  0.5511
  965MOL0     C27281   6.386   6.983   6.795  0.0359  0.0308  0.0158
  965MOL0     C27282   6.468   6.912   6.889  0.5856  0.5740  0.0235
  965MOL0     O27283   6.603   6.900   6.883 -0.8167 -0.3235 -0.5106
  965MOL0     C27284   6.689   6.981   6.795 -0.5883  0.1310  0.6560
  965MOL0     C27285   6.836   6.963   6.807  0.1365  0.2403  0.3094
  965MOL0     C27286   6.865   6.835   6.734 -0.8127  0.2341 -0.1092
  965MOL0     C27287   7.007   6.786   6.754  0.1828 -0.0883 -0.1892
  965MOL0     C27288   7.113   6.882   6.712 -0.0024  0.1761  0.1967
  965MOL0     C27289   7.121   6.891   6.564 -0.0407  0.5403 -0.1332
  965MOL0     C27290   7.254   6.937   6.513 -0.8832 -0.2223 -0.0236
  965MOL0     C27291   7.281   6.868   6.377 -1.1447  0.3869 -0.0852
  965MOL0    Cl27292   7.423   6.948   6.306  0.0552 -0.1685  0.0265
  965MOL0     C27293   6.408   6.835   6.996  0.5088  0.0188 -0.1107
  965MOL0     C27294   6.269   6.840   7.012 -0.5243  0.0747  0.1117
  965MOL0     O27295   5.995   6.803   6.814 -0.0692  0.0040  0.5212
  965MOL0     C27296   5.727   6.840   6.908  0.0167  1.3780  0.3293
  965MOL0     C27297   5.591   6.877   6.929 -0.2652  0.3208  0.5228
  965MOL0     N27298   5.040   7.543   7.234  0.2042 -0.3033 -0.4798
  965MOL0     N27299   4.945   7.612   7.283 -0.2520  0.2636  0.5336
  965MOL0     C27300   3.933   7.284   7.905  0.4996  0.9572 -0.4036
  965MOL0     C27301   3.823   7.230   7.967  0.4338 -0.5240 -0.8535
  965MOL0     C27302   3.481   7.042   8.144  0.0173 -0.9638  0.4627
  965MOL0     C27303   3.513   6.982   8.264  0.2142  0.8864 -0.7447
  965MOL0     C27304   3.419   6.944   8.356 -0.9385 -0.2685  0.2644
  965MOL0     C27305   3.284   6.977   8.337 -0.0621  0.4740 -0.0631
  965MOL0     O27306   3.174   6.934   8.413  0.3402  0.2403 -0.0472
  965MOL0     C27307   3.201   6.857   8.526  0.1313 -0.7175  0.4250
  965MOL0     C27308   3.078   6.821   8.615  0.3799 -0.5484  0.9804
  965MOL0     C27309   3.128   6.743   8.744 -0.0130 -0.3115  0.7413
  965MOL0     C27310   3.097   6.825   8.863  0.6903 -0.2433  0.1130
  965MOL0     C27311   3.130   6.756   8.983  0.5940  0.0192  0.1957
  965MOL0     C27312   3.162   6.681   9.068  0.4835  0.0871  0.3526
  965MOL0     C27313   3.253   7.044   8.224  0.1329 -0.4235  0.0714
  965MOL0     C27314   3.345   7.081   8.126  0.6328 -0.2439  0.1884
  965MOL0     H27315   3.939   6.912   8.020  0.5425 -0.7902 -3.3300
  965MOL0     H27316   4.135   7.015   7.914  1.9130  3.6760 -1.1524
  965MOL0     H27317   4.132   7.441   7.816  0.5480  0.5281  0.4002
  965MOL0     H27318   4.084   7.338   7.673  1.1395  0.9142  0.4059
  965MOL0     H27319   4.318   7.303   7.611 -1.0706 -0.0734 -1.7606
  965MOL0     H27320   4.371   7.404   7.738  0.0936 -0.4252 -0.8965
  965MOL0     H27321   4.233   7.603   7.640  1.6273  0.9120  0.3768
  965MOL0     H27322   4.205   7.518   7.501  1.0176  1.7815 -0.7890
  965MOL0     H27323   4.406   7.672   7.505  0.3906 -0.4627  0.1307
  965MOL0     H27324   4.489   7.543   7.591  0.5335 -1.3254 -0.7764
  965MOL0     H27325   4.363   7.519   7.328 -1.3109 -0.4797  1.6550
  965MOL0     H27326   4.426   7.382   7.423 -2.5690 -0.1898 -0.3269
  965MOL0     H27327   4.645   7.436   7.368  2.1970  1.2729  1.2702
  965MOL0     H27328   4.619   7.596   7.418 -0.1154  1.1477 -2.1384
  965MOL0     H27329   4.586   7.489   7.139  1.4205  0.4647 -0.2319
  965MOL0     H27330   4.493   7.637   7.178  0.1863  0.8845  0.0816
  965MOL0     H27331   4.716   7.726   7.285  0.5668 -4.1924  1.9996
  965MOL0     H27332   4.703   7.717   7.109  0.6593  2.1766  0.3606
  965MOL0     H27333   4.809   7.455   7.033 -1.0744  2.0723 -0.8915
  965MOL0     H27334   5.094   7.431   6.943 -1.6271  2.9495  1.4048
  965MOL0     H27335   5.007   7.296   7.018  2.4629 -3.1275  0.6769
  965MOL0     H27336   5.188   7.263   7.172 -0.5901  0.2978  0.4442
  965MOL0     H27337   5.270   7.403   7.096  0.0888  0.8138 -4.4887
  965MOL0     H27338   5.201   7.132   6.956 -3.1971  1.2900 -0.0971
  965MOL0     H27339   5.275   7.273   6.877 -0.0835  2.3684  1.2659
  965MOL0     H27340   5.404   7.175   7.145  3.1966 -0.5939  0.4186
  965MOL0     H27341   5.476   7.256   6.998  0.4237 -0.7857 -0.9635
  965MOL0     H27342   5.654   7.210   6.938  1.2694 -0.3573  1.0202
  965MOL0     H27343   5.858   7.153   6.901 -0.2786 -0.4132 -3.2176
  965MOL0     H27344   6.182   7.056   6.768 -0.1604 -1.2793 -0.5127
  965MOL0     H27345   6.432   7.034   6.711 -2.6799  0.5575 -1.2656
  965MOL0     H27346   6.675   7.085   6.823 -1.8204  0.6439 -1.5987
  965MOL0     H27347   6.662   6.975   6.689  0.7841  2.5765  0.1057
  965MOL0     H27348   6.856   6.961   6.914  0.4718 -0.6654  0.2324
  965MOL0     H27349   6.892   7.047   6.765  2.5235 -1.2394  0.3887
  965MOL0     H27350   6.837   6.846   6.629  0.6415  0.9015 -0.4556
  965MOL0     H27351   6.790   6.767   6.776 -1.5466  0.3846 -1.1410
  965MOL0     H27352   7.019   6.765   6.861  2.1904 -0.8979 -0.5262
  965MOL0     H27353   7.022   6.694   6.696 -3.3376  0.7125 -2.6560
  965MOL0     H27354   7.209   6.852   6.755  0.5445  1.5145 -0.0325
  965MOL0     H27355   7.094   6.984   6.748  0.6253  0.5478 -0.5059
  965MOL0     H27356   7.047   6.967   6.537  1.3158  2.9512  2.4650
  965MOL0     H27357   7.101   6.791   6.524  3.7037 -1.5635  2.5799
  965MOL0     H27358   7.256   7.046   6.518  0.2174 -0.1334 -1.5059
  965MOL0     H27359   7.343   6.915   6.572  0.0633  1.1442 -0.8820
  965MOL0     H27360   7.195   6.865   6.310  0.4202 -2.6595 -2.1594
  965MOL0     H27361   7.307   6.765   6.404  1.2622  1.8403  3.9668
  965MOL0     H27362   6.457   6.752   7.046  0.1588 -0.5040 -0.6284
  965MOL0     H27363   6.221   6.798   7.100  1.3924 -0.7144  0.8432
  965MOL0     H27364   5.745   6.734   6.895 -0.1466  1.4977 -1.0635
  965MOL0     H27365   5.506   6.809   6.926 -1.1371  1.3304  1.6240
  965MOL0     H27366   3.940   7.384   7.864  0.4490  0.6647 -1.1339
  965MOL0     H27367   3.744   7.296   8.002  1.3495  0.7108 -1.0588
  965MOL0     H27368   3.613   6.947   8.287 -0.4277 -0.3623  0.2301
  965MOL0     H27369   3.456   6.876   8.433 -0.2936 -4.6780 -3.4799
  965MOL0     H27370   3.263   6.911   8.597 -1.6324  2.5168 -0.2698
  965MOL0     H27371   3.259   6.771   8.491 -0.5057 -1.6299  1.5416
  965MOL0     H27372   3.017   6.905   8.649 -0.1043 -0.7694  0.6695
  965MOL0     H27373   3.006   6.753   8.568  1.5144 -1.0214 -0.1260
  965MOL0     H27374   3.235   6.721   8.739  0.0332  0.0440 -0.1449
  965MOL0     H27375   3.074   6.649   8.760 -0.0543 -0.0173  2.5250
  965MOL0     H27376   3.146   6.923   8.859  0.8671 -0.1697  2.6174
  965MOL0     H27377   2.989   6.841   8.862  0.9357  1.8319  1.2193
  965MOL0     H27378   3.190   6.611   9.144 -0.8521 -0.3313  0.4941
  965MOL0     H27379   3.150   7.072   8.205  0.5387 -1.3467 -4.5710
  965MOL0     H27380   3.298   7.136   8.045 -1.8221  0.5787  2.0249
  966MOL0     O27381  10.250   9.797   8.142 -0.2711  0.2550 -1.0274
  966MOL0     C27382  10.209   9.869   8.240 -0.3426  0.0371  1.4772
  966MOL0     O27383  10.285   9.957   8.312 -0.9028  0.2023  0.2777
  966MOL0     C27384  10.409   9.983   8.258  0.4487  0.2594 -0.2596
  966MOL0     C27385  10.430  10.060   8.149 -0.2184  0.3122 -0.1093
  966MOL0     C27386  10.555  10.077   8.086  0.6732 -0.1887  0.1465
  966MOL0     C27387  10.668  10.041   8.155 -0.5865 -0.5586 -0.6573
  966MOL0     O27388  10.800  10.038   8.108  0.6441  0.3312 -0.4509
  966MOL0     C27389  10.819  10.014   7.962  0.1686  0.4119 -0.4430
  966MOL0     C27390  10.962  10.009   7.934  0.7810  1.3678 -0.5873
  966MOL0     C27391  11.017   9.885   8.003 -0.1602  0.6110 -0.1249
  966MOL0     C27392  11.162   9.870   7.969  0.8332  0.6290 -0.4578
  966MOL0     C27393  11.229   9.805   8.094  0.0859  0.4893  0.2106
  966MOL0     C27394  11.377   9.758   8.080 -1.1588  0.1542  1.2131
  966MOL0     C27395  11.414   9.663   8.201  0.3470  0.5457  0.4088
  966MOL0     C27396  11.494   9.526   8.175  0.2194  0.3807  0.4073
  966MOL0     N27397  11.433   9.406   8.250 -0.1977 -0.4965  0.7969
  966MOL0     C27398  11.512   9.288   8.290  0.2692  0.1698  0.1493
  966MOL0     C27399  11.412   9.204   8.337  0.2371 -0.4730 -0.3547
  966MOL0     C27400  11.437   9.075   8.406  0.4847 -0.4986 -0.0315
  966MOL0     C27401  11.457   9.107   8.559  0.3358  0.3891  0.4992
  966MOL0     C27402  11.477   8.974   8.630  0.9286 -0.7396 -0.0488
  966MOL0     C27403  11.434   8.991   8.778  0.2090  0.7854  0.7191
  966MOL0     O27404  11.490   9.108   8.838 -0.1086  0.3106  0.3025
  966MOL0     C27405  11.613   9.112   8.887 -0.5428  0.1014  0.1951
  966MOL0     C27406  11.644   9.228   8.955 -0.0563  0.5745 -0.4417
  966MOL0     C27407  11.777   9.254   8.992  0.5363  0.9090 -0.5942
  966MOL0     C27408  11.872   9.154   8.991  0.1508 -0.7692 -0.8057
  966MOL0     C27409  12.004   9.188   9.048  0.5883  1.1103  1.0773
  966MOL0     O27410  12.091   9.088   9.062 -0.7370 -0.0342 -0.8807
  966MOL0     C27411  12.225   9.117   9.083 -0.0467 -0.1877 -0.4466
  966MOL0     C27412  12.304   9.191   8.994 -0.0027  0.2236  0.4731
  966MOL0     C27413  12.450   9.194   9.010  0.2519 -0.4160 -0.1189
  966MOL0     C27414  12.511   9.131   9.118 -0.0446 -0.2225  0.2568
  966MOL0     O27415  12.642   9.172   9.132 -0.2151  0.5098  0.2028
  966MOL0     C27416  12.699   9.192   9.255  0.6154 -0.0453  0.2850
  966MOL0     C27417  12.810   9.289   9.239 -1.6913  0.8890  0.3125
  966MOL0     C27418  12.879   9.326   9.378 -0.6376 -0.3995  0.1990
  966MOL0     C27419  13.000   9.435   9.361 -0.5940  1.0118 -0.8900
  966MOL0     C27420  13.098   9.410   9.476 -0.0612  0.8058 -0.2245
  966MOL0     C27421  13.195   9.516   9.509 -1.0592 -0.4417 -0.2441
  966MOL0     C27422  13.132   9.608   9.610 -0.1989  0.7865  0.1001
  966MOL0     C27423  13.241   9.671   9.701 -0.4569  0.5683  0.9285
  966MOL0    Cl27424  13.305   9.536   9.803  0.3043  0.0468  0.2380
  966MOL0     C27425  12.431   9.059   9.210 -0.3707 -0.3480  0.3294
  966MOL0     C27426  12.290   9.053   9.192 -0.5711 -0.3023  0.5993
  966MOL0     O27427  12.034   9.302   9.039  0.1963 -0.1513 -1.0276
  966MOL0     C27428  11.844   9.036   8.922  0.4895 -0.4155 -0.5201
  966MOL0     C27429  11.717   9.019   8.861 -0.1500 -0.5231 -0.4377
  966MOL0     N27430  11.292   9.260   8.321 -0.0154 -0.4573 -0.0750
  966MOL0     N27431  11.300   9.377   8.275 -1.2729 -0.0614  0.4129
  966MOL0     C27432  10.657   9.975   8.273 -0.1008 -0.1755 -0.1140
  966MOL0     C27433  10.525   9.937   8.320 -0.2618 -0.1042  0.8518
  966MOL0     C27434  10.071   9.854   8.272 -0.7979 -0.3762  1.1676
  966MOL0     C27435   9.989   9.751   8.234 -0.3321 -0.1006  0.7735
  966MOL0     C27436   9.852   9.735   8.263 -0.3626 -0.6971  0.4813
  966MOL0     C27437   9.794   9.831   8.341 -0.6766  0.7248  0.2109
  966MOL0     O27438   9.663   9.831   8.376 -0.4800 -0.5286 -0.2512
  966MOL0     C27439   9.587   9.747   8.301  0.5780  0.9992 -0.2477
  966MOL0     C27440   9.444   9.740   8.359  0.1210 -0.1368  0.0373
  966MOL0     C27441   9.448   9.711   8.512 -0.3487 -0.7193 -0.2027
  966MOL0     C27442   9.318   9.728   8.576 -0.6253 -0.0758 -1.2372
  966MOL0     C27443   9.221   9.622   8.540 -0.3752 -0.3512  0.0102
  966MOL0     C27444   9.130   9.553   8.508 -0.1257  0.1787 -0.4642
  966MOL0     C27445   9.876   9.926   8.402 -0.3225  0.3374 -0.6810
  966MOL0     C27446  10.013   9.941   8.366  0.4060 -0.4294 -0.2719
  966MOL0     H27447  10.349  10.108   8.095 -2.1759 -2.4659  0.1866
  966MOL0     H27448  10.565  10.130   7.992  0.3337  1.2360  0.8915
  966MOL0     H27449  10.776  10.095   7.903  1.3838  1.5830  0.2399
  966MOL0     H27450  10.760   9.925   7.937 -1.4684  1.3193  0.0571
  966MOL0     H27451  11.014  10.101   7.964  1.3097  0.6203  0.8702
  966MOL0     H27452  10.984  10.001   7.828  0.3660 -0.2660 -0.5645
  966MOL0     H27453  10.963   9.806   7.950 -0.3207  0.8382 -0.3024
  966MOL0     H27454  11.007   9.877   8.111  0.2583  2.1108  0.0506
  966MOL0     H27455  11.183   9.822   7.874 -1.0629 -1.7170  0.1935
  966MOL0     H27456  11.211   9.967   7.959  3.4440 -0.3397  1.6678
  966MOL0     H27457  11.170   9.715   8.109  2.7456 -1.9443 -2.4880
  966MOL0     H27458  11.229   9.871   8.182 -0.8768  0.1051  0.5121
  966MOL0     H27459  11.440   9.847   8.088  2.8310 -2.0046 -2.2057
  966MOL0     H27460  11.394   9.718   7.979 -1.7358  2.3719  0.1797
  966MOL0     H27461  11.458   9.726   8.279  2.1068  0.1747 -0.2417
  966MOL0     H27462  11.316   9.629   8.236  0.5324  0.9804  1.3865
  966MOL0     H27463  11.597   9.542   8.209  0.1475  2.1660 -0.1355
  966MOL0     H27464  11.496   9.515   8.066 -0.6818 -3.3046  0.6428
  966MOL0     H27465  11.620   9.283   8.288  0.4327  1.8640  1.9278
  966MOL0     H27466  11.520   9.018   8.365  2.1314 -0.0860  2.5168
  966MOL0     H27467  11.347   9.015   8.392  1.2929 -1.1054 -3.6021
  966MOL0     H27468  11.362   9.148   8.596 -0.6227 -0.6516 -0.7499
  966MOL0     H27469  11.542   9.176   8.564  2.1203 -1.2338 -3.2890
  966MOL0     H27470  11.411   8.901   8.583 -0.6852  1.3235 -1.1553
  966MOL0     H27471  11.579   8.934   8.620  0.4701 -2.0669  0.4396
  966MOL0     H27472  11.467   8.899   8.825 -1.7898 -1.1259 -1.3307
  966MOL0     H27473  11.327   8.998   8.798  0.3106  3.0846  0.7743
  966MOL0     H27474  11.572   9.309   8.957  0.4320  0.9846  0.3944
  966MOL0     H27475  11.785   9.344   9.051 -0.6522 -1.6734  4.0159
  966MOL0     H27476  12.268   9.241   8.905 -3.8987  1.5988  2.5363
  966MOL0     H27477  12.507   9.248   8.934  1.4072 -0.0045  0.9957
  966MOL0     H27478  12.706   9.092   9.299 -2.9427  0.0597  1.4108
  966MOL0     H27479  12.626   9.238   9.322 -3.8164 -2.9065 -2.1283
  966MOL0     H27480  12.788   9.383   9.186  0.0739  1.8359  1.1892
  966MOL0     H27481  12.887   9.229   9.189 -2.6696 -2.9007  2.9771
  966MOL0     H27482  12.916   9.237   9.430  0.5022  0.6493  1.2631
  966MOL0     H27483  12.800   9.363   9.444 -0.4547 -2.2573  1.5439
  966MOL0     H27484  13.041   9.414   9.262  0.3978  0.7632 -0.4349
  966MOL0     H27485  12.967   9.539   9.368  0.1034  1.2993 -1.6578
  966MOL0     H27486  13.147   9.318   9.443  3.0183  2.9828 -2.1513
  966MOL0     H27487  13.043   9.394   9.569 -0.6099  1.1656 -0.4816
  966MOL0     H27488  13.226   9.572   9.421 -1.4349 -0.3602 -0.3304
  966MOL0     H27489  13.288   9.472   9.545  0.3398 -0.1968 -3.2837
  966MOL0     H27490  13.079   9.686   9.555 -3.3029 -2.3657 -1.8118
  966MOL0     H27491  13.052   9.561   9.668 -1.1394  3.7473  1.3656
  966MOL0     H27492  13.192   9.736   9.774  0.7570  0.1657  2.1301
  966MOL0     H27493  13.318   9.717   9.637 -2.8124  0.1251 -2.5194
  966MOL0     H27494  12.478   9.020   9.299  2.0753  0.8650 -0.3296
  966MOL0     H27495  12.222   9.010   9.265 -2.9049  3.5889  1.0049
  966MOL0     H27496  11.918   8.958   8.908  1.1654 -0.3745  2.1378
  966MOL0     H27497  11.723   8.931   8.798 -0.8677  0.2484 -1.6245
  966MOL0     H27498  10.741   9.930   8.326 -0.6409 -0.0907  0.8261
  966MOL0     H27499  10.508   9.863   8.398 -1.2208  0.0374  0.7867
  966MOL0     H27500  10.042   9.674   8.178  0.2519  0.9504 -0.1522
  966MOL0     H27501   9.793   9.655   8.219 -1.0927 -0.9442  1.8536
  966MOL0     H27502   9.618   9.643   8.317  2.3689  1.7731  1.9101
  966MOL0     H27503   9.578   9.783   8.198 -2.3872  1.6018  0.1399
  966MOL0     H27504   9.395   9.836   8.338  0.6406  0.0805 -0.1847
  966MOL0     H27505   9.383   9.669   8.303  0.1731 -0.7283  0.7146
  966MOL0     H27506   9.526   9.768   8.563  2.8309 -1.0020 -4.1752
  966MOL0     H27507   9.470   9.605   8.524 -0.6341 -1.5239 -4.9192
  966MOL0     H27508   9.336   9.716   8.683 -2.8384 -1.1839 -0.9255
  966MOL0     H27509   9.276   9.827   8.559  0.8224  0.5593 -1.2079
  966MOL0     H27510   9.058   9.477   8.486  0.6707 -0.6250 -0.3106
  966MOL0     H27511   9.828   9.989   8.476 -1.5834  1.7367 -2.6023
  966MOL0     H27512  10.061  10.026   8.413  0.2640 -0.9259  0.7995
  967MOL0     O27513  10.907   7.376   1.668 -0.5263  0.2729 -0.2201
  967MOL0     C27514  10.865   7.346   1.783  1.0781 -0.8574  0.9379
  967MOL0     O27515  10.729   7.330   1.811 -0.1745  0.1965  1.1233
  967MOL0     C27516  10.624   7.352   1.725  0.1390  0.4044 -0.0447
  967MOL0     C27517  10.503   7.329   1.787  0.2247 -0.9030 -0.6442
  967MOL0     C27518  10.386   7.324   1.715 -0.0568  0.3248  0.7874
  967MOL0     C27519  10.388   7.353   1.573 -0.0987  0.2465 -1.1717
  967MOL0     O27520  10.275   7.336   1.499  0.2920  0.1903 -0.1874
  967MOL0     C27521  10.286   7.245   1.389 -0.8520  0.3490 -0.1564
  967MOL0     C27522  10.151   7.206   1.334 -0.0029  0.7585 -0.5444
  967MOL0     C27523  10.058   7.329   1.305 -0.2997 -0.3698  1.1023
  967MOL0     C27524   9.919   7.288   1.270 -0.8552  0.5933  0.0557
  967MOL0     C27525   9.843   7.397   1.197  0.3650  0.0310  0.2217
  967MOL0     C27526   9.724   7.351   1.116  0.6872  1.0549  0.1694
  967MOL0     C27527   9.636   7.462   1.065 -1.3596 -0.2182  0.1911
  967MOL0     C27528   9.515   7.418   0.979 -0.8552  0.3196 -0.2195
  967MOL0     N27529   9.404   7.357   1.063  0.0858 -0.1524  0.1888
  967MOL0     C27530   9.275   7.393   1.058  0.5072 -0.2347 -0.1886
  967MOL0     C27531   9.207   7.295   1.128 -0.2442  0.6550  0.5408
  967MOL0     C27532   9.054   7.306   1.153 -0.2926  0.1000 -0.1900
  967MOL0     C27533   9.007   7.362   1.291  0.6961  0.6671 -0.5130
  967MOL0     C27534   8.853   7.382   1.306  0.3243 -0.2423 -0.1433
  967MOL0     C27535   8.797   7.427   1.443 -0.2585  0.0413  0.1869
  967MOL0     O27536   8.900   7.507   1.506  0.1365 -0.0832  1.1366
  967MOL0     C27537   8.942   7.479   1.637 -0.1454 -0.6673 -0.3449
  967MOL0     C27538   8.850   7.438   1.741 -0.8217  0.2422  0.0945
  967MOL0     C27539   8.915   7.402   1.858  0.4187 -0.2732 -0.0851
  967MOL0     C27540   9.056   7.402   1.886  0.3601  0.3628  0.7204
  967MOL0     C27541   9.111   7.360   2.016  0.1568  0.0249  1.1109
  967MOL0     O27542   9.245   7.335   2.028  0.8614 -0.4371 -0.4765
  967MOL0     C27543   9.305   7.299   2.147 -0.3431  0.6431 -0.4048
  967MOL0     C27544   9.244   7.231   2.248  1.7131  0.6973  0.6837
  967MOL0     C27545   9.314   7.213   2.369  0.2098 -0.4061  0.1845
  967MOL0     C27546   9.450   7.253   2.378  0.5440  0.1670  0.2915
  967MOL0     O27547   9.515   7.229   2.488 -0.2300  0.2600 -1.4505
  967MOL0     C27548   9.646   7.276   2.504  0.2412  0.4522 -0.6223
  967MOL0     C27549   9.685   7.257   2.650  0.6178 -1.1057  1.0353
  967MOL0     C27550   9.757   7.128   2.669  0.4502 -0.2000  0.2503
  967MOL0     C27551   9.767   7.113   2.819 -0.6028  0.2665 -0.6287
  967MOL0     C27552   9.790   6.970   2.878 -0.2118  0.7009  0.4186
  967MOL0     C27553   9.907   6.895   2.837 -0.2144  0.8079 -0.2679
  967MOL0     C27554  10.036   6.948   2.867  0.3219 -0.1945 -0.3889
  967MOL0     C27555  10.063   6.985   3.010 -0.3037 -0.0185 -0.2388
  967MOL0    Cl27556  10.077   6.836   3.100 -0.1507 -0.0641  0.2921
  967MOL0     C27557   9.505   7.321   2.271 -0.0599  0.0873  0.3154
  967MOL0     C27558   9.438   7.347   2.154  0.4460 -0.1183  0.3040
  967MOL0     O27559   9.023   7.357   2.100 -0.3617  0.6360 -0.9492
  967MOL0     C27560   9.145   7.442   1.783  0.5350 -0.0357  0.8812
  967MOL0     C27561   9.086   7.489   1.659  0.7378 -0.4946 -0.0714
  967MOL0     N27562   9.297   7.189   1.161  0.1897 -0.9624 -0.0564
  967MOL0     N27563   9.416   7.246   1.132 -0.1877  0.1522 -0.4636
  967MOL0     C27564  10.511   7.378   1.515  0.0646 -0.1393 -0.3098
  967MOL0     C27565  10.630   7.377   1.588 -0.4558 -0.2245  0.5528
  967MOL0     C27566  10.969   7.316   1.887 -0.0645  0.2011  0.7135
  967MOL0     C27567  10.932   7.292   2.022  0.2309  0.1347  0.6619
  967MOL0     C27568  11.025   7.257   2.120 -0.8824 -0.2508 -1.6366
  967MOL0     C27569  11.159   7.254   2.081 -0.9648  0.4280 -1.0365
  967MOL0     O27570  11.245   7.223   2.186  0.0111  0.2801 -0.2885
  967MOL0     C27571  11.385   7.194   2.164 -0.8434 -1.1067 -0.0369
  967MOL0     C27572  11.453   7.150   2.297 -0.3358  1.1173  0.2870
  967MOL0     C27573  11.425   7.254   2.401  0.8782  0.2261  0.3233
  967MOL0     C27574  11.523   7.252   2.519 -0.0511  0.0174  0.3715
  967MOL0     C27575  11.476   7.304   2.648 -0.7331 -0.0501 -0.2670
  967MOL0     C27576  11.429   7.342   2.755 -0.1990  0.1148  0.2002
  967MOL0     C27577  11.199   7.270   1.951  0.2798 -0.3026 -0.7672
  967MOL0     C27578  11.105   7.302   1.850 -0.1437 -0.3436 -0.0646
  967MOL0     H27579  10.505   7.294   1.890  0.5563 -0.1743 -0.3980
  967MOL0     H27580  10.295   7.299   1.768  0.2849  0.9955  1.7196
  967MOL0     H27581  10.330   7.149   1.415  0.9310  1.7703  2.5273
  967MOL0     H27582  10.338   7.290   1.303  4.3709 -1.3681  1.7310
  967MOL0     H27583  10.112   7.141   1.413  2.0977 -1.8114 -1.4565
  967MOL0     H27584  10.160   7.149   1.241 -0.1202  1.2921 -0.8882
  967MOL0     H27585  10.094   7.387   1.219 -3.3096 -0.5394 -0.4257
  967MOL0     H27586  10.055   7.393   1.394  1.5402  1.6966 -0.2135
  967MOL0     H27587   9.931   7.198   1.208 -0.3190 -0.6752  1.9126
  967MOL0     H27588   9.868   7.251   1.359  0.3891 -1.1259  0.1237
  967MOL0     H27589   9.911   7.438   1.121  0.3967  0.0229  0.2460
  967MOL0     H27590   9.815   7.470   1.273  2.1269 -0.5713  1.5017
  967MOL0     H27591   9.665   7.288   1.183  0.2973  0.0267 -1.0868
  967MOL0     H27592   9.758   7.288   1.033 -1.2340  1.3701 -0.9240
  967MOL0     H27593   9.599   7.531   1.141  0.8736  3.1753 -1.5528
  967MOL0     H27594   9.702   7.516   0.997  0.7065  0.4752  2.5887
  967MOL0     H27595   9.541   7.354   0.895 -0.9063  0.2356 -0.1720
  967MOL0     H27596   9.486   7.515   0.937 -0.8942 -0.3679 -1.8478
  967MOL0     H27597   9.234   7.476   1.000 -2.8724 -0.7342  1.2437
  967MOL0     H27598   9.015   7.204   1.140  1.5701 -0.3398 -3.6102
  967MOL0     H27599   9.012   7.374   1.078 -1.1014 -1.9005 -1.6269
  967MOL0     H27600   9.058   7.459   1.297  0.2456  0.9568 -1.1718
  967MOL0     H27601   9.041   7.288   1.363 -1.2005  0.8172  0.5731
  967MOL0     H27602   8.817   7.452   1.230 -0.0924  1.6633  1.7148
  967MOL0     H27603   8.809   7.286   1.278  1.9490 -0.1833 -3.2190
  967MOL0     H27604   8.769   7.334   1.495 -1.3000  0.5659  0.6043
  967MOL0     H27605   8.710   7.492   1.438  1.2340  2.0766 -0.3302
  967MOL0     H27606   8.741   7.432   1.734 -0.7725  0.3813 -1.0723
  967MOL0     H27607   8.845   7.365   1.932  0.9277 -0.6849  0.1901
  967MOL0     H27608   9.145   7.192   2.226  2.5585 -0.7766 -0.6641
  967MOL0     H27609   9.261   7.162   2.450 -3.0483  1.7313 -0.4178
  967MOL0     H27610   9.658   7.383   2.485 -1.1618  0.5032 -1.4070
  967MOL0     H27611   9.707   7.216   2.436  0.7401  0.2880 -0.0339
  967MOL0     H27612   9.601   7.283   2.715 -0.7570  0.3401 -1.1511
  967MOL0     H27613   9.757   7.338   2.667  0.8888 -1.4398  1.4858
  967MOL0     H27614   9.853   7.126   2.616  2.0115  0.9675  2.8662
  967MOL0     H27615   9.688   7.056   2.623  1.7954 -1.1516 -0.3533
  967MOL0     H27616   9.846   7.175   2.862 -0.3880 -1.3209  1.3834
  967MOL0     H27617   9.676   7.143   2.871  0.9107  0.1997  2.2270
  967MOL0     H27618   9.707   6.902   2.856  0.4658 -0.4831  1.4440
  967MOL0     H27619   9.787   6.976   2.987 -0.3582 -1.4611  0.5780
  967MOL0     H27620   9.901   6.869   2.731 -1.0637 -0.9115  0.1715
  967MOL0     H27621   9.899   6.796   2.883 -3.2772 -0.2301 -2.6485
  967MOL0     H27622  10.109   6.872   2.835  1.1983  1.0754 -1.4841
  967MOL0     H27623  10.054   7.040   2.812 -2.4766  0.6462 -0.0395
  967MOL0     H27624   9.980   7.047   3.046 -0.2908 -0.9271  1.4633
  967MOL0     H27625  10.150   7.051   3.019  2.3800 -2.7623 -3.4283
  967MOL0     H27626   9.609   7.348   2.287 -0.5307  1.9693  0.4526
  967MOL0     H27627   9.485   7.405   2.075  3.8409 -4.4523 -1.2091
  967MOL0     H27628   9.253   7.435   1.788  0.5752  1.1934  2.5322
  967MOL0     H27629   9.144   7.534   1.579  0.2147  1.0965  0.4177
  967MOL0     H27630  10.525   7.381   1.407 -1.6686 -2.7347 -0.6953
  967MOL0     H27631  10.724   7.370   1.535 -0.4772  0.3452  0.4327
  967MOL0     H27632  10.829   7.309   2.049  0.5913  2.9868  0.4942
  967MOL0     H27633  10.994   7.246   2.223 -4.0714  1.3998 -2.2939
  967MOL0     H27634  11.440   7.282   2.128  2.6358 -2.5849  1.2189
  967MOL0     H27635  11.405   7.120   2.086  1.2176 -0.3032 -0.3486
  967MOL0     H27636  11.419   7.050   2.325 -2.5961  0.7696 -3.1254
  967MOL0     H27637  11.561   7.145   2.282  0.4382  1.4506  4.3483
  967MOL0     H27638  11.321   7.238   2.431  0.9237  0.9854  0.9167
  967MOL0     H27639  11.422   7.356   2.363 -0.5245  0.5692  1.2796
  967MOL0     H27640  11.566   7.155   2.547 -1.2977  0.0002  2.3862
  967MOL0     H27641  11.609   7.311   2.485  1.8364 -2.9096 -0.3709
  967MOL0     H27642  11.394   7.386   2.846  2.3562  0.1105  1.2642
  967MOL0     H27643  11.303   7.274   1.921  0.5354  0.6121  0.2141
  967MOL0     H27644  11.137   7.305   1.746 -3.7828  0.9853 -1.3197
  968MOL0     O27645  10.350   5.441   1.068  0.0136 -0.1075  0.0485
  968MOL0     C27646  10.355   5.563   1.072  0.4480  0.0044 -0.1321
  968MOL0     O27647  10.308   5.645   1.173 -0.0800 -0.0449  0.3623
  968MOL0     C27648  10.222   5.586   1.259  0.5221 -0.4001 -0.6895
  968MOL0     C27649  10.246   5.596   1.395 -0.7662 -0.0513  0.8170
  968MOL0     C27650  10.146   5.583   1.484 -0.1908  0.8923  0.8249
  968MOL0     C27651  10.021   5.533   1.447  0.1757 -0.1824 -0.1404
  968MOL0     O27652   9.919   5.531   1.537  0.1141 -0.1720 -0.3847
  968MOL0     C27653   9.880   5.658   1.598  0.1867  0.2031  0.3827
  968MOL0     C27654   9.797   5.656   1.727  0.7604  0.4622  0.1343
  968MOL0     C27655   9.761   5.791   1.771 -0.8580 -0.9693  0.5980
  968MOL0     C27656   9.891   5.876   1.806  0.3875  0.2293 -0.2196
  968MOL0     C27657   9.867   5.964   1.925  0.2027  0.1079 -0.1197
  968MOL0     C27658   9.985   6.063   1.938  0.2658 -0.2590 -1.0048
  968MOL0     C27659   9.972   6.153   2.071 -0.1353  0.1481 -0.6304
  968MOL0     C27660  10.103   6.224   2.092  0.1271 -0.8447 -0.3049
  968MOL0     N27661  10.182   6.160   2.197  0.3683 -0.6673  0.3711
  968MOL0     C27662  10.193   6.198   2.329  0.6997  1.1310 -0.1721
  968MOL0     C27663  10.297   6.119   2.375 -0.1246  0.1009 -0.6236
  968MOL0     C27664  10.345   6.125   2.518  0.1813 -0.0749  0.0743
  968MOL0     C27665  10.257   6.048   2.621 -0.1175 -0.1564  0.5272
  968MOL0     C27666  10.217   5.911   2.573 -0.2117  0.3258 -0.7821
  968MOL0     C27667  10.335   5.835   2.534  0.3495  0.5552  0.4476
  968MOL0     O27668  10.295   5.695   2.527 -0.5482 -0.5614  0.1719
  968MOL0     C27669  10.202   5.656   2.443  0.4190 -0.1778  0.4230
  968MOL0     C27670  10.127   5.537   2.465 -0.7401 -0.0815  0.0838
  968MOL0     C27671  10.029   5.497   2.373 -0.1555 -0.3857  0.3064
  968MOL0     C27672  10.011   5.572   2.247  0.2933  1.3294 -0.6054
  968MOL0     C27673   9.916   5.528   2.147  0.8147 -0.7777 -0.2058
  968MOL0     O27674   9.827   5.433   2.186 -0.1365  0.4104  0.9924
  968MOL0     C27675   9.723   5.399   2.099  1.2284 -0.0085 -0.5039
  968MOL0     C27676   9.668   5.271   2.100  0.8957  0.6997  0.7558
  968MOL0     C27677   9.553   5.227   2.021  0.1774  0.0414 -0.2865
  968MOL0     C27678   9.499   5.314   1.922  0.4448 -0.0089  0.2047
  968MOL0     O27679   9.416   5.253   1.828  0.4201 -0.2829 -0.6253
  968MOL0     C27680   9.313   5.332   1.771  0.0044 -0.3634 -0.1260
  968MOL0     C27681   9.251   5.248   1.655 -0.7285 -0.5907 -0.5227
  968MOL0     C27682   9.113   5.297   1.613 -0.0972  0.5964 -0.8353
  968MOL0     C27683   9.085   5.238   1.470  0.5720 -0.0172  0.1935
  968MOL0     C27684   8.955   5.301   1.415  0.3560  0.3198 -0.5119
  968MOL0     C27685   8.837   5.205   1.458 -1.2149  0.0121 -0.0998
  968MOL0     C27686   8.700   5.224   1.397  0.5496 -0.8692  0.3638
  968MOL0     C27687   8.595   5.130   1.458  0.4464  0.4087 -0.2743
  968MOL0    Cl27688   8.426   5.175   1.439  0.1854 -0.0792 -0.0591
  968MOL0     C27689   9.548   5.448   1.928 -0.0343 -0.9861  0.5943
  968MOL0     C27690   9.656   5.482   2.003  0.2575  0.4953  0.7663
  968MOL0     O27691   9.928   5.579   2.031  0.1742 -0.3191 -0.8461
  968MOL0     C27692  10.100   5.677   2.223 -0.3875  0.0045 -0.5403
  968MOL0     C27693  10.179   5.727   2.323  0.9455  0.4933  0.0221
  968MOL0     N27694  10.341   6.042   2.273 -0.3942  0.1642 -0.2387
  968MOL0     N27695  10.272   6.070   2.161  0.2105 -0.8263  0.1736
  968MOL0     C27696   9.988   5.531   1.310 -0.4968  0.0486  0.3727
  968MOL0     C27697  10.093   5.544   1.214 -0.7553  0.1740  0.2557
  968MOL0     C27698  10.444   5.628   0.969 -0.0000  0.6570  0.7767
  968MOL0     C27699  10.507   5.554   0.859 -0.9781  0.6003 -0.7621
  968MOL0     C27700  10.578   5.617   0.754  0.6176 -0.5736  0.0760
  968MOL0     C27701  10.580   5.755   0.743  0.1506 -0.2576 -0.2428
  968MOL0     O27702  10.634   5.823   0.632 -1.0378  1.3623  0.6043
  968MOL0     C27703  10.603   5.953   0.600 -0.6796 -0.0669  0.8902
  968MOL0     C27704  10.710   6.060   0.626  0.2094  0.4275 -0.3566
  968MOL0     C27705  10.858   6.009   0.617  1.0330  0.5658 -0.1201
  968MOL0     C27706  10.943   6.085   0.521 -0.8830 -0.0223 -0.3048
  968MOL0     C27707  10.908   6.065   0.388  0.5759  0.5727  0.4858
  968MOL0     C27708  10.870   6.054   0.278  0.2486 -0.2920 -0.0215
  968MOL0     C27709  10.536   5.823   0.858  0.3594 -0.4671 -0.0312
  968MOL0     C27710  10.461   5.766   0.967  0.4150  0.0073  0.2586
  968MOL0     H27711  10.348   5.624   1.419  0.0222  2.8095 -4.3732
  968MOL0     H27712  10.174   5.581   1.589 -1.2854  0.4666  1.1201
  968MOL0     H27713   9.826   5.726   1.531  0.3120  2.5341  2.4937
  968MOL0     H27714   9.966   5.716   1.633  0.4347  1.0869 -1.5283
  968MOL0     H27715   9.859   5.603   1.800  2.4641 -0.9119 -2.1729
  968MOL0     H27716   9.711   5.594   1.698  1.8436 -0.6152 -0.8826
  968MOL0     H27717   9.690   5.787   1.854 -2.5740 -2.8773 -0.8529
  968MOL0     H27718   9.718   5.845   1.687 -2.2503 -0.4923  1.5788
  968MOL0     H27719   9.975   5.812   1.834 -0.1001 -2.5437 -4.2292
  968MOL0     H27720   9.928   5.937   1.724 -0.2836  0.5403 -0.2969
  968MOL0     H27721   9.857   5.910   2.019 -2.9265 -0.5807 -0.7344
  968MOL0     H27722   9.779   6.029   1.915  0.1240  0.4986  2.4595
  968MOL0     H27723  10.005   6.135   1.858  0.3815 -1.0799 -1.7285
  968MOL0     H27724  10.079   6.008   1.936  1.4820  1.4044  2.2634
  968MOL0     H27725   9.896   6.231   2.063  1.0934  1.6114  1.2603
  968MOL0     H27726   9.948   6.091   2.158 -2.0399 -0.0366 -1.2376
  968MOL0     H27727  10.077   6.324   2.127 -0.9160 -1.0366 -0.5056
  968MOL0     H27728  10.164   6.243   2.004 -0.3025  1.5089 -0.1452
  968MOL0     H27729  10.130   6.265   2.387 -2.2967 -1.1403 -0.5677
  968MOL0     H27730  10.348   6.228   2.557 -0.6348  0.3473 -0.9233
  968MOL0     H27731  10.445   6.081   2.523 -0.6667 -1.9433  2.6173
  968MOL0     H27732  10.167   6.107   2.635 -1.2136 -2.1843  2.6674
  968MOL0     H27733  10.304   6.053   2.719 -4.0555  2.3565  2.5533
  968MOL0     H27734  10.148   5.871   2.648 -0.5445 -0.3483 -1.4219
  968MOL0     H27735  10.144   5.925   2.492 -1.5887  3.0390  0.8034
  968MOL0     H27736  10.414   5.851   2.607  0.7106  0.2828  0.1253
  968MOL0     H27737  10.372   5.869   2.437 -0.9864  1.6201  0.2738
  968MOL0     H27738  10.163   5.479   2.550 -1.5282 -1.3037 -0.3777
  968MOL0     H27739   9.972   5.406   2.392 -2.0023  0.5524 -0.4285
  968MOL0     H27740   9.714   5.200   2.168  5.2175  1.6982 -0.8357
  968MOL0     H27741   9.511   5.127   2.029  1.3114 -0.7600 -3.0356
  968MOL0     H27742   9.350   5.427   1.732 -0.5798  0.1178  0.4681
  968MOL0     H27743   9.237   5.357   1.846  1.5060  3.3199  0.3431
  968MOL0     H27744   9.255   5.142   1.683  0.7174 -1.2237 -2.8123
  968MOL0     H27745   9.321   5.266   1.572 -2.2158  1.3058 -1.4224
  968MOL0     H27746   9.122   5.405   1.619  3.4758  0.6130 -3.3227
  968MOL0     H27747   9.038   5.264   1.685  1.1664  0.2248  0.3627
  968MOL0     H27748   9.154   5.276   1.394 -3.9800  2.7915 -3.0858
  968MOL0     H27749   9.094   5.129   1.462  1.0738  0.0444 -0.1835
  968MOL0     H27750   8.953   5.298   1.306 -1.7326  0.4492 -0.5259
  968MOL0     H27751   8.928   5.400   1.456  0.4782  0.4410 -0.7243
  968MOL0     H27752   8.827   5.209   1.567  2.9593  1.2384  0.4493
  968MOL0     H27753   8.862   5.104   1.424 -1.1814  0.3403 -1.1027
  968MOL0     H27754   8.673   5.330   1.399  1.9705 -0.4673 -0.3863
  968MOL0     H27755   8.720   5.207   1.291 -0.0309  1.5354 -0.1754
  968MOL0     H27756   8.618   5.115   1.564 -0.0857  0.2359 -0.1817
  968MOL0     H27757   8.612   5.029   1.420 -0.3967  1.0809 -2.6522
  968MOL0     H27758   9.515   5.519   1.853  1.2150 -0.4184  0.5680
  968MOL0     H27759   9.691   5.583   1.986 -1.4794  1.0791  0.4113
  968MOL0     H27760  10.092   5.733   2.130 -2.8763  0.5891 -0.0270
  968MOL0     H27761  10.247   5.810   2.311 -1.3221  2.4963  0.4026
  968MOL0     H27762   9.892   5.508   1.265 -0.3593  2.3830 -1.3282
  968MOL0     H27763  10.063   5.547   1.109 -0.3101 -0.1772  0.1185
  968MOL0     H27764  10.515   5.446   0.866  0.8686  0.8145  1.5884
  968MOL0     H27765  10.617   5.565   0.667  0.0543 -1.1936  0.1853
  968MOL0     H27766  10.513   5.990   0.650 -1.8249  0.5526 -1.5149
  968MOL0     H27767  10.591   5.961   0.492  4.7887  3.8472  0.1315
  968MOL0     H27768  10.693   6.148   0.563 -2.0647  0.0023 -0.4456
  968MOL0     H27769  10.690   6.098   0.727  1.1308 -0.1757  0.0706
  968MOL0     H27770  10.860   5.901   0.601  3.6782  0.5930 -0.3910
  968MOL0     H27771  10.887   6.024   0.722 -2.7292 -0.3111  1.2193
  968MOL0     H27772  10.942   6.191   0.546  2.4738  0.7079 -2.5581
  968MOL0     H27773  11.044   6.046   0.537  0.0029  2.1401 -0.3488
  968MOL0     H27774  10.836   6.050   0.176  0.8102  6.0544 -0.8563
  968MOL0     H27775  10.548   5.930   0.876 -0.0666 -0.6023  1.1287
  968MOL0     H27776  10.412   5.842   1.027 -2.3749  1.8406 -3.8897
  969MOL0     O27777   4.172  10.767  10.449 -0.2581 -0.1240 -0.1544
  969MOL0     C27778   4.190  10.876  10.392 -0.0929 -0.0835  0.2578
  969MOL0     O27779   4.095  10.981  10.380  0.1459 -0.7998  0.3653
  969MOL0     C27780   3.961  10.963  10.407 -0.1704 -0.0534  0.9854
  969MOL0     C27781   3.894  10.835  10.388 -0.0577  0.0156 -0.4146
  969MOL0     C27782   3.751  10.833  10.386 -0.6701 -0.3175  0.2433
  969MOL0     C27783   3.677  10.937  10.427  0.8898 -0.0437  0.2918
  969MOL0     O27784   3.546  10.905  10.443  0.0388  0.6712 -0.2689
  969MOL0     C27785   3.469  10.991  10.533 -0.9207  0.1921  0.3260
  969MOL0     C27786   3.326  10.945  10.532 -0.5069 -0.0234  0.0354
  969MOL0     C27787   3.218  11.012  10.614 -1.3792 -1.1833 -0.6843
  969MOL0     C27788   3.087  10.941  10.607  0.5486  0.8918 -0.7833
  969MOL0     C27789   2.976  11.015  10.684  0.3264 -0.0484 -0.5391
  969MOL0     C27790   2.847  10.941  10.679  0.0885  0.0832 -0.5226
  969MOL0     C27791   2.747  11.007  10.761  0.3326 -0.5195 -0.4026
  969MOL0     C27792   2.609  10.940  10.736 -1.0071 -0.2993 -0.0241
  969MOL0     N27793   2.499  11.013  10.796 -0.2327 -0.5311 -0.0729
  969MOL0     C27794   2.443  11.128  10.749 -0.5200  0.2525 -0.2777
  969MOL0     C27795   2.330  11.154  10.810  0.0757  0.0587 -0.6199
  969MOL0     C27796   2.239  11.263  10.775 -0.5927 -0.4526 -1.1344
  969MOL0     C27797   2.130  11.206  10.684  0.9197  0.4405  0.0284
  969MOL0     C27798   2.001  11.163  10.768  0.3521 -0.7167  0.3106
  969MOL0     C27799   1.903  11.101  10.668  0.3608 -0.7676 -0.1393
  969MOL0     O27800   1.776  11.067  10.733 -0.1697  0.3021 -0.1452
  969MOL0     C27801   1.685  10.995  10.653  0.1095 -0.3558 -0.0897
  969MOL0     C27802   1.566  10.958  10.721  0.6310  0.0094  0.3311
  969MOL0     C27803   1.465  10.897  10.644 -0.4918 -0.3118 -0.9009
  969MOL0     C27804   1.479  10.878  10.510  0.2472 -1.1148 -0.6393
  969MOL0     C27805   1.366  10.818  10.437 -0.4800 -0.5282 -0.6407
  969MOL0     O27806   1.261  10.770  10.513 -0.7510 -0.2032 -0.3008
  969MOL0     C27807   1.145  10.727  10.448  0.4881  0.4892  0.5010
  969MOL0     C27808   1.136  10.649  10.331 -0.3377  0.6570  0.2149
  969MOL0     C27809   1.007  10.619  10.276 -0.0887  1.0707  0.0359
  969MOL0     C27810   0.897  10.657  10.344  0.5613 -0.3676 -0.3353
  969MOL0     O27811   0.775  10.625  10.301 -0.0882 -0.3283  0.4505
  969MOL0     C27812   0.735  10.492  10.324 -0.1123  0.3410 -0.7969
  969MOL0     C27813   0.599  10.500  10.387  0.4958 -0.3978  0.1898
  969MOL0     C27814   0.515  10.378  10.368  1.1665 -0.0903 -0.1461
  969MOL0     C27815   0.372  10.396  10.423  0.6411  0.2686 -1.1670
  969MOL0     C27816   0.260  10.317  10.345  0.3467  0.7195  0.6390
  969MOL0     C27817   0.111  10.347  10.409 -0.4561 -0.4678  0.1097
  969MOL0     C27818   0.006  10.282  10.310  1.0822 -0.4094  0.0914
  969MOL0     C27819  -0.140  10.308  10.363  0.2946  0.3701 -0.6286
  969MOL0    Cl27820  -0.248  10.253  10.243  0.4301 -0.1888  0.4324
  969MOL0     C27821   0.901  10.721  10.469 -0.3836  0.4041 -1.6283
  969MOL0     C27822   1.028  10.763  10.517 -1.1300 -0.3605 -0.9469
  969MOL0     O27823   1.368  10.817  10.311  0.3164 -0.2990 -0.4077
  969MOL0     C27824   1.594  10.910  10.445 -0.2938  1.0519  0.7179
  969MOL0     C27825   1.702  10.958  10.513  0.8750 -0.0021 -0.6798
  969MOL0     N27826   2.322  11.056  10.905 -0.3922 -0.4675 -0.2974
  969MOL0     N27827   2.423  10.974  10.901  0.3938  0.1098  0.6332
  969MOL0     C27828   3.741  11.060  10.452  0.1506  0.4279  0.0950
  969MOL0     C27829   3.880  11.073  10.438 -0.4306  0.0470 -0.3119
  969MOL0     C27830   4.325  10.911  10.341 -0.3205  0.6465 -0.6547
  969MOL0     C27831   4.361  11.045  10.305  0.1145  0.0695 -0.1250
  969MOL0     C27832   4.485  11.067  10.251 -0.3426 -0.1446  0.6086
  969MOL0     C27833   4.590  10.969  10.254  0.7571  0.4875  0.0008
  969MOL0     O27834   4.714  11.008  10.219  0.1380  0.6087 -0.2902
  969MOL0     C27835   4.758  10.948  10.094  0.1473  0.8185 -0.0935
  969MOL0     C27836   4.893  10.988  10.040 -0.0732 -0.0386  0.9447
  969MOL0     C27837   5.015  10.974  10.147  0.7145  0.5731  0.0656
  969MOL0     C27838   5.042  10.827  10.200  0.0193 -0.5107  0.2715
  969MOL0     C27839   5.098  10.743  10.097  0.1620  0.0414  0.2438
  969MOL0     C27840   5.136  10.669  10.001 -0.4963 -0.8261  0.2635
  969MOL0     C27841   4.554  10.835  10.290 -0.1791 -0.2864  0.5917
  969MOL0     C27842   4.419  10.816  10.328 -0.3056  0.3030  0.1170
  969MOL0     H27843   3.947  10.744  10.361 -2.4011 -1.7681  0.6670
  969MOL0     H27844   3.724  10.729  10.366  2.8744 -1.6144  1.3913
  969MOL0     H27845   3.473  11.097  10.505  1.3982 -0.3517 -1.7431
  969MOL0     H27846   3.509  10.993  10.635 -2.0724  2.0153  0.7946
  969MOL0     H27847   3.312  10.842  10.565 -2.0916  0.1596  0.0208
  969MOL0     H27848   3.294  10.947  10.427 -1.0921  1.6811  0.2208
  969MOL0     H27849   3.197  11.113  10.578 -2.5480 -0.8140  0.9062
  969MOL0     H27850   3.245  11.025  10.720 -2.1931  0.0263 -0.5999
  969MOL0     H27851   3.062  10.922  10.503  2.5529 -4.6235 -0.5541
  969MOL0     H27852   3.101  10.842  10.652 -0.0552  0.1271 -2.2312
  969MOL0     H27853   2.963  11.116  10.642 -0.2077  1.9491  3.8926
  969MOL0     H27854   3.009  11.024  10.788  0.7819  0.3296 -0.7120
  969MOL0     H27855   2.854  10.840  10.723 -0.8096  0.9699  1.7902
  969MOL0     H27856   2.812  10.935  10.576 -1.4314  0.3823 -0.0547
  969MOL0     H27857   2.772  10.994  10.867 -1.2317 -0.6256 -0.0276
  969MOL0     H27858   2.738  11.114  10.740  0.1433 -0.4791 -0.1223
  969MOL0     H27859   2.609  10.843  10.787 -1.0252  0.4838  1.5141
  969MOL0     H27860   2.595  10.925  10.628 -1.4636 -1.1323  0.1396
  969MOL0     H27861   2.490  11.178  10.665  1.9740 -1.3698  0.0547
  969MOL0     H27862   2.303  11.327  10.713 -2.8281  1.3196 -1.7735
  969MOL0     H27863   2.192  11.319  10.857  1.0972 -1.8651  0.9015
  969MOL0     H27864   2.170  11.116  10.636 -0.4351  0.7115 -1.6760
  969MOL0     H27865   2.111  11.283  10.608  0.0791 -1.3880 -1.6881
  969MOL0     H27866   2.021  11.087  10.844 -0.6439 -3.0641 -1.6484
  969MOL0     H27867   1.954  11.253  10.809 -1.2494 -1.4075  0.0512
  969MOL0     H27868   1.944  11.004  10.641  1.3496 -0.3082 -0.3321
  969MOL0     H27869   1.890  11.166  10.581 -1.3819  0.2738  0.8472
  969MOL0     H27870   1.562  10.984  10.827  0.6105 -0.3357  0.4178
  969MOL0     H27871   1.372  10.869  10.692 -0.8113 -2.0306 -2.4040
  969MOL0     H27872   1.218  10.609  10.273  0.2948  0.7331  1.0399
  969MOL0     H27873   1.014  10.557  10.187  1.4764  0.8026  0.3298
  969MOL0     H27874   0.792  10.423  10.387 -2.8393  0.3929  2.0035
  969MOL0     H27875   0.733  10.433  10.233 -1.3368  1.6106 -1.6367
  969MOL0     H27876   0.541  10.569  10.325 -1.1596 -1.9039 -0.0195
  969MOL0     H27877   0.589  10.529  10.492 -2.7758  0.0640 -0.1487
  969MOL0     H27878   0.563  10.300  10.427  3.1398  0.8132 -0.4865
  969MOL0     H27879   0.513  10.352  10.261 -1.4041  2.0178 -0.7225
  969MOL0     H27880   0.362  10.377  10.530  2.6253 -0.4349 -1.0718
  969MOL0     H27881   0.347  10.503  10.419 -0.7334  0.1284  1.5171
  969MOL0     H27882   0.283  10.213  10.368 -1.1394  0.7028  2.3780
  969MOL0     H27883   0.262  10.342  10.239  2.7853  0.4540  0.5786
  969MOL0     H27884   0.098  10.456  10.408  0.7550 -0.3126 -0.0919
  969MOL0     H27885   0.106  10.303  10.509  2.4085 -0.9561  0.0988
  969MOL0     H27886   0.031  10.308  10.207  2.0918 -0.0829  0.4073
  969MOL0     H27887   0.014  10.173  10.312 -0.4672 -0.5449  1.0355
  969MOL0     H27888  -0.153  10.413  10.389 -0.2302  0.2802 -0.5052
  969MOL0     H27889  -0.152  10.243  10.451 -1.7663 -0.5451 -1.5233
  969MOL0     H27890   0.814  10.742  10.530  0.9671 -0.0898  0.6036
  969MOL0     H27891   1.021  10.823  10.607 -2.1757  0.2960 -1.4544
  969MOL0     H27892   1.607  10.874  10.344  0.4562 -3.0099  2.0679
  969MOL0     H27893   1.795  10.982  10.463  0.7545  3.9428  0.6333
  969MOL0     H27894   3.689  11.139  10.506  2.0770  1.5762  0.3263
  969MOL0     H27895   3.935  11.164  10.454 -0.1477  0.7479 -4.2613
  969MOL0     H27896   4.286  11.122  10.320 -1.1695 -1.0275 -0.7097
  969MOL0     H27897   4.509  11.166  10.215 -2.6902  0.5826  0.8710
  969MOL0     H27898   4.685  10.949  10.012  1.0000 -0.8208 -0.9113
  969MOL0     H27899   4.765  10.839  10.101  0.5479  0.5930 -2.7879
  969MOL0     H27900   4.907  10.913   9.961 -0.4527 -1.0629  1.8328
  969MOL0     H27901   4.885  11.090  10.002 -1.7045 -0.6614 -0.5678
  969MOL0     H27902   4.993  11.029  10.239 -0.2596 -0.5084  0.4924
  969MOL0     H27903   5.109  11.018  10.109  1.1479 -0.1927  0.2366
  969MOL0     H27904   5.109  10.833  10.287  1.7166 -0.1152 -0.9958
  969MOL0     H27905   4.950  10.784  10.241 -0.4379 -0.3476 -0.5590
  969MOL0     H27906   5.186  10.624   9.918 -1.9046 -1.8331 -0.0872
  969MOL0     H27907   4.631  10.758  10.291 -0.8014 -0.9918  3.2444
  969MOL0     H27908   4.400  10.709  10.332 -1.0592  0.4649  1.2879
  970MOL0     O27909   2.897   7.350   8.533  0.7485 -0.1769  0.0068
  970MOL0     C27910   2.875   7.231   8.492  0.4523 -0.1707  0.0227
  970MOL0     O27911   2.915   7.182   8.373 -0.3913 -0.3932  0.5573
  970MOL0     C27912   2.979   7.270   8.293  1.1523  0.2772  0.2946
  970MOL0     C27913   2.936   7.265   8.157 -0.3867  0.2992 -0.1371
  970MOL0     C27914   3.016   7.324   8.054  0.3525  0.3049 -0.1467
  970MOL0     C27915   3.144   7.371   8.081 -0.4496 -0.6380  0.4535
  970MOL0     O27916   3.224   7.418   7.975  0.2194 -0.9728 -0.6989
  970MOL0     C27917   3.365   7.417   7.994 -0.3407 -0.9487  0.1861
  970MOL0     C27918   3.394   7.565   8.015  0.0217 -0.7385  0.3170
  970MOL0     C27919   3.540   7.594   8.010  0.0151 -0.1766 -0.2755
  970MOL0     C27920   3.621   7.551   7.886  0.7776 -0.3641 -0.1709
  970MOL0     C27921   3.755   7.629   7.872 -0.5562  0.2320 -0.2167
  970MOL0     C27922   3.845   7.611   7.994 -0.4613  0.7185 -0.3421
  970MOL0     C27923   3.991   7.656   7.962  1.0728  0.1373  0.2936
  970MOL0     C27924   4.025   7.803   7.980  0.2959  0.0768 -0.2275
  970MOL0     N27925   4.162   7.839   7.933  0.4593 -0.3780  0.2735
  970MOL0     C27926   4.266   7.758   7.883 -0.0830  0.4771  0.3635
  970MOL0     C27927   4.380   7.837   7.886  0.6045 -0.0181  0.6941
  970MOL0     C27928   4.507   7.779   7.830  0.8600 -1.0436  0.0427
  970MOL0     C27929   4.556   7.858   7.706 -0.0235  0.2517 -0.0604
  970MOL0     C27930   4.697   7.821   7.669 -0.1881  0.8795  0.3114
  970MOL0     C27931   4.748   7.898   7.549 -0.2613  0.4164 -0.0818
  970MOL0     O27932   4.889   7.871   7.528 -0.0982  0.7222 -0.3240
  970MOL0     C27933   4.957   7.980   7.472 -0.2512 -0.4893  0.1474
  970MOL0     C27934   4.914   8.022   7.345  0.5271 -0.1538 -1.2932
  970MOL0     C27935   4.979   8.129   7.279 -0.3951  0.2183 -0.1188
  970MOL0     C27936   5.097   8.181   7.319 -0.5696 -0.0548 -0.5592
  970MOL0     C27937   5.176   8.278   7.235 -0.1959 -0.2056 -0.5819
  970MOL0     O27938   5.249   8.375   7.279 -0.2026  0.1289  0.1241
  970MOL0     C27939   5.318   8.457   7.188 -0.6705 -0.2948 -0.7164
  970MOL0     C27940   5.460   8.463   7.171  0.2733 -0.1728  0.1394
  970MOL0     C27941   5.516   8.545   7.082 -0.9212 -0.9688  0.8227
  970MOL0     C27942   5.448   8.631   6.989 -0.6993 -0.1077 -0.7736
  970MOL0     O27943   5.504   8.718   6.908  0.4627  0.1521 -0.3699
  970MOL0     C27944   5.618   8.693   6.825 -0.8189  0.0532  0.7775
  970MOL0     C27945   5.649   8.836   6.778 -0.2990 -1.2863  0.5132
  970MOL0     C27946   5.738   8.842   6.643 -0.3458  0.3500 -0.2107
  970MOL0     C27947   5.761   8.992   6.602  0.4598 -0.3442  0.2581
  970MOL0     C27948   5.847   8.998   6.480 -0.0145  0.1534 -0.6535
  970MOL0     C27949   5.909   9.141   6.473  0.5598 -1.3290  0.5527
  970MOL0     C27950   6.024   9.154   6.376  0.2052 -0.2398  0.0977
  970MOL0     C27951   6.066   9.297   6.363 -0.0409 -1.3819 -0.1264
  970MOL0    Cl27952   6.170   9.346   6.502 -0.0872  0.4724  0.0845
  970MOL0     C27953   5.310   8.635   7.006 -0.0345 -0.1478 -0.5365
  970MOL0     C27954   5.250   8.543   7.100  0.5750  0.0116 -0.1856
  970MOL0     O27955   5.177   8.253   7.120  0.3205 -0.2919  0.5118
  970MOL0     C27956   5.140   8.138   7.447 -0.0955 -0.1207 -1.9639
  970MOL0     C27957   5.073   8.041   7.528 -0.0435  0.0809 -0.7262
  970MOL0     N27958   4.352   7.959   7.942  0.0668 -0.0238 -0.1627
  970MOL0     N27959   4.220   7.961   7.953  0.0435  0.3356  0.4508
  970MOL0     C27960   3.176   7.389   8.214 -0.1925 -0.4819 -0.9290
  970MOL0     C27961   3.095   7.344   8.315 -1.0727  0.6125  0.0412
  970MOL0     C27962   2.794   7.150   8.584  0.9129  0.7832 -0.1578
  970MOL0     C27963   2.775   7.009   8.564  0.6324 -0.4897  0.7362
  970MOL0     C27964   2.697   6.927   8.649 -0.8832  0.1715 -0.7689
  970MOL0     C27965   2.640   6.976   8.769  0.4772 -0.3301  0.9684
  970MOL0     O27966   2.579   6.908   8.865  0.8401  0.0991  0.6089
  970MOL0     C27967   2.596   6.775   8.864 -0.4965  0.4847 -0.3806
  970MOL0     C27968   2.552   6.732   9.006 -1.0945  1.4069 -0.0228
  970MOL0     C27969   2.401   6.709   9.024  0.3313  0.1852  0.2382
  970MOL0     C27970   2.334   6.847   9.062  0.1063 -0.4054  0.1457
  970MOL0     C27971   2.385   6.909   9.184 -0.1878 -0.3660 -0.6392
  970MOL0     C27972   2.407   6.961   9.294 -0.9709  0.1141 -0.6105
  970MOL0     C27973   2.650   7.117   8.791  0.2187 -0.2776  0.4554
  970MOL0     C27974   2.732   7.204   8.708  0.1001  0.3146  0.0484
  970MOL0     H27975   2.841   7.222   8.127 -0.1409 -0.3815  0.0468
  970MOL0     H27976   2.965   7.320   7.958  0.3913  1.3286 -0.2185
  970MOL0     H27977   3.409   7.381   7.900  1.7653 -0.5300  0.9664
  970MOL0     H27978   3.403   7.354   8.075  2.3325  1.1635  0.7177
  970MOL0     H27979   3.355   7.596   8.113 -1.9420  4.0090 -1.6879
  970MOL0     H27980   3.339   7.628   7.946  0.3222 -1.4791 -0.6168
  970MOL0     H27981   3.586   7.552   8.100  1.3198  1.5753 -0.0817
  970MOL0     H27982   3.545   7.702   8.023 -0.6094 -0.0617 -0.9190
  970MOL0     H27983   3.643   7.444   7.886 -1.4170 -0.9445 -2.4986
  970MOL0     H27984   3.557   7.575   7.800 -2.2647  1.8201  2.4650
  970MOL0     H27985   3.740   7.736   7.858 -1.6899 -0.1055 -1.8018
  970MOL0     H27986   3.797   7.592   7.778  3.2832  0.3646  1.2409
  970MOL0     H27987   3.846   7.506   8.027 -0.3663  0.7462 -0.2592
  970MOL0     H27988   3.801   7.668   8.076  0.6191  1.1258 -0.0394
  970MOL0     H27989   4.058   7.595   8.024 -0.1088 -1.8030 -0.2591
  970MOL0     H27990   4.015   7.627   7.859  1.0645  2.0559 -0.2857
  970MOL0     H27991   4.007   7.824   8.086 -1.8262  1.3999 -0.8007
  970MOL0     H27992   3.945   7.858   7.932 -1.6508 -2.6452 -0.3303
  970MOL0     H27993   4.266   7.655   7.851 -2.1352 -0.2086  2.3254
  970MOL0     H27994   4.489   7.672   7.813  1.0043 -1.1602  0.6048
  970MOL0     H27995   4.591   7.787   7.900 -0.5041 -1.2064  1.7785
  970MOL0     H27996   4.560   7.964   7.733 -0.3265 -0.0413  1.1962
  970MOL0     H27997   4.492   7.860   7.618  0.7994  4.2812 -0.7651
  970MOL0     H27998   4.758   7.850   7.755  0.1199  2.1170 -0.3000
  970MOL0     H27999   4.703   7.712   7.672  1.2220  0.8656 -1.3569
  970MOL0     H28000   4.730   8.005   7.563 -4.1262  0.2578 -2.4492
  970MOL0     H28001   4.688   7.881   7.459 -2.0216  4.3808  0.1593
  970MOL0     H28002   4.832   7.970   7.296 -0.0682 -2.3270  1.7220
  970MOL0     H28003   4.951   8.168   7.181  2.2046  2.9401  0.0511
  970MOL0     H28004   5.530   8.414   7.238  2.0888  0.5286 -1.1746
  970MOL0     H28005   5.624   8.557   7.071 -0.9392  1.7448  2.5795
  970MOL0     H28006   5.606   8.626   6.739  1.9196 -0.6465  0.8392
  970MOL0     H28007   5.706   8.669   6.887  0.0929 -0.2841 -0.5990
  970MOL0     H28008   5.668   8.907   6.858 -0.2926  0.0161 -0.6145
  970MOL0     H28009   5.552   8.875   6.744  0.8288 -0.0285 -1.4145
  970MOL0     H28010   5.700   8.798   6.551 -0.7428  2.7082 -1.2537
  970MOL0     H28011   5.827   8.782   6.667 -1.0870 -1.2084 -1.2487
  970MOL0     H28012   5.662   9.030   6.579 -0.5648 -1.5588  2.3562
  970MOL0     H28013   5.803   9.059   6.677  4.4657  2.8284 -4.2038
  970MOL0     H28014   5.795   8.991   6.384 -0.4254  2.6139 -0.6573
  970MOL0     H28015   5.926   8.922   6.486  1.2734  1.4628 -0.2988
  970MOL0     H28016   5.942   9.154   6.576 -0.0902  2.3634  0.4397
  970MOL0     H28017   5.843   9.223   6.442  0.8566 -1.2073  0.2250
  970MOL0     H28018   6.108   9.099   6.421  1.9267  0.8852 -1.5756
  970MOL0     H28019   5.999   9.108   6.280  1.9615 -0.9596 -0.0505
  970MOL0     H28020   5.981   9.365   6.361 -0.2895 -1.7024 -0.7386
  970MOL0     H28021   6.118   9.310   6.268  1.0304  2.1627  0.8053
  970MOL0     H28022   5.253   8.700   6.940 -1.0399 -0.5034 -0.0457
  970MOL0     H28023   5.142   8.542   7.108  0.5608 -0.9038 -0.4672
  970MOL0     H28024   5.219   8.192   7.498 -1.9105 -0.6275  1.7315
  970MOL0     H28025   5.107   8.001   7.623 -1.8513 -2.3828 -1.0331
  970MOL0     H28026   3.270   7.434   8.244  0.6765 -0.9809 -2.7990
  970MOL0     H28027   3.130   7.358   8.417  1.8555 -2.7765 -0.2973
  970MOL0     H28028   2.829   6.973   8.477  2.4225  1.5463  0.9513
  970MOL0     H28029   2.686   6.820   8.631 -3.2788 -0.2986  2.5367
  970MOL0     H28030   2.702   6.756   8.848 -0.5235  0.6683 -0.8074
  970MOL0     H28031   2.540   6.726   8.783 -0.5906 -1.0864  0.5970
  970MOL0     H28032   2.600   6.638   9.034 -1.0158  1.9083  1.6731
  970MOL0     H28033   2.598   6.796   9.082 -1.1338  1.0606  0.2924
  970MOL0     H28034   2.374   6.631   9.096 -2.4299  1.8342  1.1144
  970MOL0     H28035   2.355   6.664   8.935 -1.5395  2.6896 -0.1490
  970MOL0     H28036   2.331   6.908   8.972 -2.4511 -1.3279 -0.4764
  970MOL0     H28037   2.227   6.845   9.085 -0.1001 -0.8315 -0.8078
  970MOL0     H28038   2.431   7.028   9.374 -2.1623 -2.5106  2.1304
  970MOL0     H28039   2.610   7.158   8.883 -1.3416  0.5566 -0.5536
  970MOL0     H28040   2.736   7.306   8.744 -1.0346  1.1059 -1.9395
  971MOL0     O28041   9.394   7.363   9.618 -0.2560 -0.0729  0.2652
  971MOL0     C28042   9.355   7.371   9.730  1.0166 -0.3374 -0.6496
  971MOL0     O28043   9.241   7.424   9.769 -0.2089 -0.1690 -0.1376
  971MOL0     C28044   9.157   7.494   9.688 -0.2869 -0.2774 -0.6118
  971MOL0     C28045   9.107   7.610   9.739 -0.4348  0.2427 -0.4607
  971MOL0     C28046   9.006   7.677   9.673 -0.3879  0.0361 -0.7463
  971MOL0     C28047   8.965   7.634   9.544 -0.5952 -0.5235 -0.4792
  971MOL0     O28048   8.875   7.724   9.485 -0.6211  0.1619  0.2626
  971MOL0     C28049   8.848   7.718   9.345 -0.2266  0.1704 -0.5232
  971MOL0     C28050   8.775   7.851   9.298 -0.5626 -0.8395 -0.4402
  971MOL0     C28051   8.661   7.811   9.206 -1.6761  0.3724 -0.5304
  971MOL0     C28052   8.567   7.929   9.171 -0.1273 -0.1652 -0.3212
  971MOL0     C28053   8.489   7.911   9.048 -0.2727 -0.1283 -0.6207
  971MOL0     C28054   8.390   7.792   9.068 -1.7404 -0.2368  0.5227
  971MOL0     C28055   8.323   7.755   8.931  1.1245 -0.6649 -0.1140
  971MOL0     C28056   8.237   7.867   8.862 -0.0071  0.0050 -0.6212
  971MOL0     N28057   8.117   7.877   8.946  0.5868  0.3267  0.3724
  971MOL0     C28058   8.013   7.789   8.939  0.3825  1.0236 -0.5285
  971MOL0     C28059   7.913   7.847   9.016  0.7187  0.3529  0.8945
  971MOL0     C28060   7.775   7.789   9.016 -0.5375  0.5893 -0.4999
  971MOL0     C28061   7.673   7.858   9.123 -1.3728 -0.6467 -0.4631
  971MOL0     C28062   7.569   7.771   9.193  0.4296 -0.5587  0.1328
  971MOL0     C28063   7.502   7.686   9.102  0.4115 -0.0410 -0.6136
  971MOL0     O28064   7.407   7.616   9.166  0.1071  0.3176  0.4149
  971MOL0     C28065   7.322   7.533   9.092 -0.3912  0.7743  0.4283
  971MOL0     C28066   7.238   7.448   9.164 -0.3747 -0.7380  0.8342
  971MOL0     C28067   7.131   7.389   9.106  0.6890  0.2612 -0.0863
  971MOL0     C28068   7.106   7.407   8.974  1.0835 -0.7366  0.5316
  971MOL0     C28069   6.984   7.342   8.916  0.4179  1.1073 -0.0184
  971MOL0     O28070   6.900   7.269   8.995  0.1632  0.1216  0.0341
  971MOL0     C28071   6.771   7.250   8.956  0.5120  0.3742  0.1831
  971MOL0     C28072   6.666   7.270   9.037 -0.4835  0.2808 -0.4146
  971MOL0     C28073   6.534   7.274   9.003  0.2228 -0.9327 -0.6536
  971MOL0     C28074   6.498   7.247   8.869  0.3867 -0.6367 -0.5586
  971MOL0     O28075   6.366   7.264   8.834 -0.5424  0.2077 -0.0744
  971MOL0     C28076   6.326   7.238   8.696 -0.1943  0.3651  0.9454
  971MOL0     C28077   6.195   7.309   8.676 -0.4774  0.1666 -0.2411
  971MOL0     C28078   6.073   7.233   8.731  0.5353 -0.4617  0.4057
  971MOL0     C28079   6.067   7.222   8.872 -0.3628  1.6035 -0.1217
  971MOL0     C28080   6.024   7.341   8.955 -0.9784  0.2706  0.4324
  971MOL0     C28081   6.098   7.347   9.093  0.2327 -0.6880  0.3128
  971MOL0     C28082   5.999   7.412   9.185  1.0624 -0.4031 -0.7488
  971MOL0     C28083   6.001   7.565   9.173 -0.0978 -0.9911  0.2591
  971MOL0    Cl28084   5.934   7.649   9.324 -0.4850 -0.0516 -0.2827
  971MOL0     C28085   6.596   7.204   8.781 -0.2691 -0.2032 -0.7516
  971MOL0     C28086   6.732   7.203   8.824  0.2984  0.2682 -0.4504
  971MOL0     O28087   6.954   7.370   8.804 -0.7050 -0.1010  0.0292
  971MOL0     C28088   7.201   7.472   8.895 -0.2776  0.7280 -0.0891
  971MOL0     C28089   7.303   7.540   8.952 -1.2636 -0.7118 -0.7702
  971MOL0     N28090   7.961   7.955   9.087  0.9228  0.3581 -0.3997
  971MOL0     N28091   8.080   7.969   9.039 -0.4143 -0.0713 -0.4628
  971MOL0     C28092   9.021   7.519   9.483  0.1739 -0.5647 -0.5344
  971MOL0     C28093   9.117   7.454   9.557 -0.2098 -0.2052  0.6918
  971MOL0     C28094   9.455   7.335   9.836 -0.4475  0.1148 -1.0538
  971MOL0     C28095   9.575   7.261   9.822  0.0005 -0.8419  0.2900
  971MOL0     C28096   9.663   7.242   9.922 -0.6237  0.9392 -0.8208
  971MOL0     C28097   9.633   7.287  10.054  0.1704  0.0036  0.3366
  971MOL0     O28098   9.718   7.275  10.164 -0.1593 -0.0020  0.5762
  971MOL0     C28099   9.850   7.213  10.150 -0.5390  0.0505  0.0800
  971MOL0     C28100   9.905   7.167  10.282  0.4066 -0.4438 -1.1888
  971MOL0     C28101  10.055   7.146  10.273 -1.0837  0.0914 -0.6412
  971MOL0     C28102  10.122   7.060  10.385 -0.9392 -0.1665 -0.8036
  971MOL0     C28103  10.113   7.125  10.520  1.2659 -1.2381 -0.0982
  971MOL0     C28104  10.115   7.183  10.631  0.2658  0.7619  0.3551
  971MOL0     C28105   9.515   7.356  10.069 -0.2384  0.3460  1.1387
  971MOL0     C28106   9.430   7.382   9.964  0.1599  0.9888  0.6308
  971MOL0     H28107   9.129   7.641   9.841 -0.9672 -0.3228 -0.1663
  971MOL0     H28108   8.967   7.772   9.707 -0.6146 -0.3665  0.1359
  971MOL0     H28109   8.790   7.627   9.324 -0.6048 -0.0590  1.3607
  971MOL0     H28110   8.938   7.708   9.284 -0.3019 -3.5428 -0.2560
  971MOL0     H28111   8.847   7.919   9.251 -0.7041  0.5068  1.2154
  971MOL0     H28112   8.729   7.899   9.385  1.0954  1.8813 -0.9732
  971MOL0     H28113   8.604   7.731   9.254 -2.2760  1.4656  0.6280
  971MOL0     H28114   8.709   7.776   9.115  2.7895  4.2976 -0.0294
  971MOL0     H28115   8.500   7.948   9.255  1.2237  2.4047  0.2729
  971MOL0     H28116   8.631   8.016   9.151  1.2219 -1.0101  0.1968
  971MOL0     H28117   8.563   7.895   8.968 -1.8464  0.9835 -2.3800
  971MOL0     H28118   8.439   8.006   9.029 -0.2517 -0.0052 -0.0784
  971MOL0     H28119   8.315   7.816   9.143  0.4450  2.5938  2.0166
  971MOL0     H28120   8.455   7.708   9.095 -0.5696  0.2136 -0.7414
  971MOL0     H28121   8.404   7.739   8.858  1.7921 -0.7228  0.6226
  971MOL0     H28122   8.276   7.657   8.938 -0.0660 -0.1805 -0.9652
  971MOL0     H28123   8.208   7.848   8.758 -1.3045  0.2264 -0.3222
  971MOL0     H28124   8.291   7.962   8.857 -0.0360  0.1608  1.4080
  971MOL0     H28125   7.994   7.709   8.869 -0.9716  1.1962 -0.3814
  971MOL0     H28126   7.793   7.684   9.043 -3.0181  0.9924  3.6056
  971MOL0     H28127   7.736   7.804   8.915  0.1944 -0.1895 -0.9132
  971MOL0     H28128   7.617   7.943   9.081 -0.8895  1.3107  2.5596
  971MOL0     H28129   7.738   7.897   9.201  0.8222 -0.0447 -2.4561
  971MOL0     H28130   7.634   7.703   9.250  2.0820  0.7032 -0.1646
  971MOL0     H28131   7.511   7.835   9.260  1.0107  1.0509 -0.8661
  971MOL0     H28132   7.568   7.620   9.045  2.1573  0.6134  0.5984
  971MOL0     H28133   7.446   7.750   9.032 -0.9157 -0.4971 -0.0055
  971MOL0     H28134   7.260   7.431   9.269 -1.3893 -0.1063  1.1658
  971MOL0     H28135   7.081   7.323   9.176  5.4177 -1.0394  2.5148
  971MOL0     H28136   6.701   7.287   9.139 -0.2097 -1.5630 -0.1610
  971MOL0     H28137   6.451   7.305   9.066 -0.7797 -0.5270 -2.1160
  971MOL0     H28138   6.318   7.132   8.669 -2.4048  0.2816  1.7256
  971MOL0     H28139   6.408   7.280   8.637  0.2511 -2.0321 -0.2694
  971MOL0     H28140   6.188   7.315   8.567 -1.8093  1.0066 -0.1347
  971MOL0     H28141   6.188   7.412   8.714 -1.4284  0.4211 -1.0547
  971MOL0     H28142   6.075   7.133   8.687  3.1725  0.2846 -1.4491
  971MOL0     H28143   5.992   7.281   8.674  2.6160 -1.5595 -3.9389
  971MOL0     H28144   5.985   7.152   8.896  1.3503  0.0880  1.6514
  971MOL0     H28145   6.153   7.170   8.914 -1.8261 -0.0242  1.0563
  971MOL0     H28146   5.915   7.349   8.963 -0.8741  3.6022 -0.0912
  971MOL0     H28147   6.045   7.439   8.910  0.8049  0.3724  1.3996
  971MOL0     H28148   6.188   7.406   9.073 -0.4813  1.1251  2.0759
  971MOL0     H28149   6.132   7.248   9.128  0.3374  0.0644  2.4891
  971MOL0     H28150   5.898   7.368   9.177  0.9836 -0.3727  0.0447
  971MOL0     H28151   6.038   7.395   9.285  0.4361 -0.5527 -0.5247
  971MOL0     H28152   5.935   7.599   9.093  0.4743  0.5945  0.4336
  971MOL0     H28153   6.102   7.605   9.171  0.1226 -1.2333  2.8881
  971MOL0     H28154   6.583   7.175   8.677  2.0604 -1.3535 -0.7951
  971MOL0     H28155   6.806   7.172   8.750  2.3299  0.6812  1.3011
  971MOL0     H28156   7.180   7.478   8.788  1.1172 -0.6022 -0.4623
  971MOL0     H28157   7.344   7.622   8.893 -0.7655 -0.1112  0.3602
  971MOL0     H28158   8.988   7.500   9.382 -0.2424  1.5996 -0.8510
  971MOL0     H28159   9.162   7.369   9.507  0.5505  1.2792 -1.2653
  971MOL0     H28160   9.603   7.221   9.725  1.9932  1.3755 -0.1518
  971MOL0     H28161   9.749   7.187   9.886 -1.5761 -2.4737  1.5942
  971MOL0     H28162   9.902   7.294  10.098 -1.0475  1.8412  2.2040
  971MOL0     H28163   9.854   7.122  10.089  0.3106  0.3159 -0.2655
  971MOL0     H28164   9.878   7.245  10.354  1.4449 -0.3308 -0.9147
  971MOL0     H28165   9.865   7.078  10.332 -0.1429  1.2367  1.5416
  971MOL0     H28166  10.115   7.238  10.271  0.4556 -0.8529  0.4758
  971MOL0     H28167  10.085   7.103  10.177  1.4729  0.1604  0.0458
  971MOL0     H28168  10.078   6.960  10.398  1.4510 -1.2213 -0.2240
  971MOL0     H28169  10.228   7.040  10.368 -0.2999  2.2175  0.0898
  971MOL0     H28170  10.102   7.229  10.727 -1.8548  2.5336 -0.6699
  971MOL0     H28171   9.486   7.395  10.167 -3.1112  0.7578  0.2315
  971MOL0     H28172   9.344   7.447   9.972 -0.6858  0.0280 -0.2262
  972MOL0     O28173   3.361   1.317   9.000 -0.3220 -0.0652 -0.1694
  972MOL0     C28174   3.395   1.410   9.069 -0.0593 -0.6914  0.3648
  972MOL0     O28175   3.312   1.498   9.124  0.0257  0.1455  1.0574
  972MOL0     C28176   3.174   1.488   9.112 -0.8020 -0.1129 -1.7431
  972MOL0     C28177   3.108   1.439   9.226  0.2013 -0.2641  0.0202
  972MOL0     C28178   2.966   1.412   9.201  0.3984 -0.9324  0.5686
  972MOL0     C28179   2.904   1.438   9.077  0.5480 -0.4111  0.6320
  972MOL0     O28180   2.771   1.415   9.048 -0.6366 -1.1577 -0.4992
  972MOL0     C28181   2.694   1.343   9.139  0.3220  0.4113 -0.0789
  972MOL0     C28182   2.553   1.330   9.088  0.3087 -0.7539 -0.3758
  972MOL0     C28183   2.458   1.288   9.205  0.1798  0.1057 -0.4639
  972MOL0     C28184   2.318   1.260   9.162 -0.0572  0.9572 -0.5276
  972MOL0     C28185   2.226   1.196   9.264 -0.4559 -1.3139  0.1912
  972MOL0     C28186   2.098   1.143   9.222  0.2088 -0.0329 -0.3091
  972MOL0     C28187   1.996   1.255   9.220  0.1660  0.3135  0.6417
  972MOL0     C28188   1.845   1.209   9.212 -0.6863  0.2006 -0.1880
  972MOL0     N28189   1.808   1.120   9.320  0.8480  0.5611  0.1072
  972MOL0     C28190   1.839   1.149   9.448 -0.1680 -0.0883 -0.4461
  972MOL0     C28191   1.809   1.040   9.519 -0.1295  0.1006  0.5354
  972MOL0     C28192   1.801   1.020   9.663  0.0005  0.3806  0.9526
  972MOL0     C28193   1.918   1.083   9.734 -0.0116 -0.5612 -0.5778
  972MOL0     C28194   2.032   0.994   9.731  0.1443  0.2266  0.6039
  972MOL0     C28195   2.147   1.083   9.776  0.2544 -0.4936 -0.3979
  972MOL0     O28196   2.259   0.987   9.772  0.1136 -0.6927  0.3110
  972MOL0     C28197   2.371   1.010   9.709 -1.1300  0.0541 -0.0063
  972MOL0     C28198   2.481   0.938   9.733 -0.3577 -0.5635  0.7400
  972MOL0     C28199   2.606   0.973   9.680 -0.0808 -0.5235 -0.5037
  972MOL0     C28200   2.618   1.080   9.591  0.7229  0.5070  0.6771
  972MOL0     C28201   2.754   1.130   9.553 -0.1310  0.5771  0.0397
  972MOL0     O28202   2.862   1.092   9.618  0.0876 -0.1967  0.8628
  972MOL0     C28203   2.980   1.140   9.575 -0.9259  0.1501 -0.0691
  972MOL0     C28204   3.054   1.221   9.668 -0.0281 -0.0122  0.7629
  972MOL0     C28205   3.182   1.259   9.620  1.0724  0.2507 -0.6273
  972MOL0     C28206   3.252   1.223   9.505  0.3448 -0.5598 -0.1572
  972MOL0     O28207   3.366   1.289   9.482  0.0838  0.2948 -0.1025
  972MOL0     C28208   3.464   1.237   9.383 -0.2724  0.2982 -0.1862
  972MOL0     C28209   3.562   1.151   9.464  0.3301 -0.4188 -0.6808
  972MOL0     C28210   3.691   1.120   9.388 -0.2585  0.5620  0.1217
  972MOL0     C28211   3.791   1.052   9.494  0.1698  0.5576  1.3120
  972MOL0     C28212   3.869   0.945   9.404 -1.0887 -0.0024  0.6260
  972MOL0     C28213   3.949   0.997   9.277  0.0170  0.1410 -0.6474
  972MOL0     C28214   4.027   0.891   9.203  0.2570  0.0595 -0.2851
  972MOL0     C28215   4.057   0.937   9.057 -0.1504  1.0698 -0.2978
  972MOL0    Cl28216   4.201   1.028   9.044  0.1992 -0.2599  0.1960
  972MOL0     C28217   3.172   1.145   9.418  0.6673  0.2250  0.8187
  972MOL0     C28218   3.034   1.110   9.457  0.0759  0.6641  0.5187
  972MOL0     O28219   2.753   1.208   9.458  0.5720 -0.9435 -0.3238
  972MOL0     C28220   2.500   1.147   9.544  0.5132 -0.2606 -0.5860
  972MOL0     C28221   2.375   1.106   9.602 -0.2482  0.2422 -0.6894
  972MOL0     N28222   1.761   0.954   9.434  0.2959  0.5536 -0.5183
  972MOL0     N28223   1.753   0.994   9.311 -0.5452  0.6677  0.1449
  972MOL0     C28224   2.980   1.492   8.979  0.2307  0.4087  0.2834
  972MOL0     C28225   3.112   1.510   8.994  0.3476 -0.1553  1.1905
  972MOL0     C28226   3.541   1.431   9.074  0.7394 -0.7280  0.4758
  972MOL0     C28227   3.631   1.358   9.002 -0.3764  0.9556  0.0939
  972MOL0     C28228   3.768   1.366   9.019 -0.6096 -0.2598  0.0513
  972MOL0     C28229   3.820   1.456   9.116 -0.4894  0.2849  0.2199
  972MOL0     O28230   3.954   1.452   9.130 -0.7591 -0.7813 -0.4206
  972MOL0     C28231   4.037   1.557   9.178  0.1341 -0.4181  0.8503
  972MOL0     C28232   4.078   1.666   9.082  0.1793 -0.2071  0.2652
  972MOL0     C28233   4.126   1.588   8.956 -0.0815 -0.0691 -0.0056
  972MOL0     C28234   4.183   1.674   8.847  0.4676 -0.4097 -0.7827
  972MOL0     C28235   4.302   1.748   8.890 -1.0146 -0.7594  0.5394
  972MOL0     C28236   4.401   1.814   8.923  0.5082 -0.5463 -1.0218
  972MOL0     C28237   3.735   1.539   9.181 -0.9178  0.6925 -0.5774
  972MOL0     C28238   3.600   1.517   9.170 -0.3488 -0.8056  0.0343
  972MOL0     H28239   3.153   1.424   9.325  0.5694  0.9279  0.0432
  972MOL0     H28240   2.907   1.363   9.278 -0.3288 -0.4891  0.3118
  972MOL0     H28241   2.679   1.396   9.233  0.2084  2.2995 -1.1236
  972MOL0     H28242   2.748   1.250   9.162 -0.9946 -0.0984  1.1506
  972MOL0     H28243   2.549   1.249   9.014  2.2852 -0.7712 -0.5425
  972MOL0     H28244   2.506   1.414   9.037 -0.8093 -1.9576 -1.4002
  972MOL0     H28245   2.472   1.370   9.276  1.8955  2.6558 -3.4967
  972MOL0     H28246   2.495   1.199   9.258 -2.7190 -0.9261  0.0351
  972MOL0     H28247   2.273   1.357   9.140  2.1714  1.7490 -1.8494
  972MOL0     H28248   2.326   1.199   9.071  0.9840 -0.1061  0.2511
  972MOL0     H28249   2.224   1.272   9.343 -0.4994 -0.1444 -0.8987
  972MOL0     H28250   2.267   1.106   9.310 -1.7729 -1.0807  1.9256
  972MOL0     H28251   2.067   1.066   9.294 -0.1016  0.6193  0.2750
  972MOL0     H28252   2.118   1.097   9.125  3.3998  2.8467 -1.2201
  972MOL0     H28253   2.012   1.306   9.316  2.9952  0.5594  0.1223
  972MOL0     H28254   2.020   1.328   9.143  0.4818 -0.8115 -0.3556
  972MOL0     H28255   1.839   1.161   9.114  0.3350  2.9084 -1.6988
  972MOL0     H28256   1.786   1.301   9.205 -0.9111  0.3845  2.9058
  972MOL0     H28257   1.858   1.242   9.500 -2.8777  1.2415 -1.6032
  972MOL0     H28258   1.792   0.915   9.692 -2.0948 -0.0538 -0.9654
  972MOL0     H28259   1.703   1.057   9.694 -1.9101 -0.5056 -3.2758
  972MOL0     H28260   1.892   1.087   9.840 -0.6137 -2.4009 -0.6260
  972MOL0     H28261   1.929   1.185   9.695  3.8805 -1.3191 -1.9260
  972MOL0     H28262   2.013   0.907   9.795  0.6433 -1.3397 -1.2487
  972MOL0     H28263   2.033   0.967   9.625 -2.4977  2.4325 -0.0791
  972MOL0     H28264   2.139   1.125   9.876  2.1533 -0.3240 -0.2669
  972MOL0     H28265   2.149   1.169   9.709 -0.1857 -0.7711 -0.7727
  972MOL0     H28266   2.489   0.861   9.808  1.6079 -1.4334 -0.2735
  972MOL0     H28267   2.697   0.922   9.711  0.2099  2.1628  3.8394
  972MOL0     H28268   3.014   1.248   9.765 -1.5504 -2.7826  1.0271
  972MOL0     H28269   3.237   1.325   9.687  1.0555  1.2194 -1.5402
  972MOL0     H28270   3.513   1.327   9.343  1.0974  0.1383  1.0489
  972MOL0     H28271   3.429   1.178   9.298  3.5339 -2.7986  0.0694
  972MOL0     H28272   3.515   1.061   9.504 -1.0682  0.8113  0.6445
  972MOL0     H28273   3.593   1.216   9.547  1.5678  1.0162 -2.2137
  972MOL0     H28274   3.730   1.209   9.339  0.3339 -0.5496 -1.5192
  972MOL0     H28275   3.672   1.058   9.299  2.6323  0.2873 -0.4092
  972MOL0     H28276   3.856   1.133   9.529  0.4890  1.9113 -1.9681
  972MOL0     H28277   3.745   1.002   9.579 -2.2482 -2.7348 -1.6630
  972MOL0     H28278   3.793   0.875   9.369 -1.6186  0.1788  1.3931
  972MOL0     H28279   3.926   0.888   9.478 -2.0205 -0.7015  0.8286
  972MOL0     H28280   4.019   1.080   9.290  0.2223 -0.0348 -0.6115
  972MOL0     H28281   3.869   1.030   9.211 -0.4371 -2.1829 -1.3639
  972MOL0     H28282   4.124   0.872   9.249  0.8549  0.6201 -1.2719
  972MOL0     H28283   3.967   0.800   9.199  2.4135 -1.4012 -3.0551
  972MOL0     H28284   3.972   0.999   9.026 -0.6776  3.7248  5.2420
  972MOL0     H28285   4.069   0.856   8.985 -1.6043 -0.1179  0.7203
  972MOL0     H28286   3.207   1.118   9.319  2.9532  0.0183  1.6286
  972MOL0     H28287   2.974   1.056   9.385  0.9714  3.2400 -2.3718
  972MOL0     H28288   2.526   1.229   9.478  2.2721  0.4378  0.8830
  972MOL0     H28289   2.294   1.150   9.545  0.3813  3.1933  0.4662
  972MOL0     H28290   2.932   1.501   8.881  0.7459  0.4344  0.0312
  972MOL0     H28291   3.164   1.536   8.902 -0.2463 -2.2328  0.2086
  972MOL0     H28292   3.596   1.279   8.937  3.7214 -2.4709  1.5664
  972MOL0     H28293   3.839   1.290   8.989  0.5004 -0.2290  2.3867
  972MOL0     H28294   4.130   1.513   9.217  0.5339  0.0353  0.4142
  972MOL0     H28295   3.996   1.601   9.270 -1.6225  0.6550 -0.3838
  972MOL0     H28296   3.998   1.736   9.057  0.9382  0.4356 -0.4248
  972MOL0     H28297   4.153   1.732   9.125 -0.9056  0.9819  0.3923
  972MOL0     H28298   4.047   1.527   8.913  0.9378 -2.1065  0.8536
  972MOL0     H28299   4.199   1.512   8.988  0.9235  0.7086 -0.4062
  972MOL0     H28300   4.197   1.614   8.756  2.4045  0.1249 -0.8951
  972MOL0     H28301   4.111   1.755   8.832  1.2687  0.8716  1.8114
  972MOL0     H28302   4.475   1.880   8.964 -0.5204 -0.0572  0.1152
  972MOL0     H28303   3.777   1.616   9.245 -0.5463  1.5465 -1.8180
  972MOL0     H28304   3.534   1.565   9.242 -2.2327 -1.8519 -0.9224
  973MOL0     O28305  11.292   9.544   2.440  0.2286  0.5034 -0.1288
  973MOL0     C28306  11.196   9.471   2.464 -0.4138 -0.2067 -0.2164
  973MOL0     O28307  11.115   9.421   2.366  0.2145 -0.0613  0.5902
  973MOL0     C28308  11.119   9.446   2.231  0.9636 -1.3217 -0.8478
  973MOL0     C28309  11.058   9.347   2.147 -1.2560 -0.2132  0.5267
  973MOL0     C28310  11.035   9.368   2.016  0.6219 -0.5380  0.7077
  973MOL0     C28311  11.074   9.489   1.956  0.2723 -0.1314 -0.4317
  973MOL0     O28312  11.058   9.514   1.823 -0.4737 -0.4891 -0.1920
  973MOL0     C28313  10.933   9.542   1.763  0.0501 -0.0732 -0.4868
  973MOL0     C28314  10.917   9.697   1.747 -0.1610 -0.3367 -0.1242
  973MOL0     C28315  10.770   9.737   1.739  0.4731 -0.6063 -0.1675
  973MOL0     C28316  10.744   9.886   1.746 -0.3109 -0.4449 -0.3934
  973MOL0     C28317  10.597   9.938   1.726 -0.1553  0.4508  0.4635
  973MOL0     C28318  10.497   9.860   1.804  1.4929  0.1675 -0.9449
  973MOL0     C28319  10.371   9.955   1.822  0.6390  0.4673 -0.2816
  973MOL0     C28320  10.321  10.025   1.694 -0.3533  0.6917  0.5267
  973MOL0     N28321  10.183  10.070   1.702 -0.4228  0.3298 -0.5127
  973MOL0     C28322  10.072   9.993   1.731  0.3266 -0.1116 -1.1149
  973MOL0     C28323   9.964  10.062   1.699  0.6113  0.8319 -0.6592
  973MOL0     C28324   9.822  10.025   1.721  0.3154  0.5722  0.4153
  973MOL0     C28325   9.821   9.911   1.819 -0.0876 -0.1446 -0.5693
  973MOL0     C28326   9.843   9.768   1.757 -0.1516 -0.1106  0.8228
  973MOL0     C28327   9.719   9.726   1.679 -0.0045  0.3793  0.1518
  973MOL0     O28328   9.596   9.710   1.759  0.0255 -0.7195 -0.0571
  973MOL0     C28329   9.472   9.705   1.702  0.2629 -0.7567  1.1378
  973MOL0     C28330   9.365   9.686   1.773 -0.3842  0.6015 -0.1137
  973MOL0     C28331   9.236   9.677   1.720  0.3455  0.3619 -0.1281
  973MOL0     C28332   9.216   9.691   1.583 -0.2832  0.1976 -0.6412
  973MOL0     C28333   9.086   9.697   1.521  1.0624  0.4439 -0.1701
  973MOL0     O28334   9.089   9.697   1.381  0.1819 -0.2721 -0.4374
  973MOL0     C28335   8.985   9.699   1.296 -0.1544  0.3375  0.6787
  973MOL0     C28336   8.854   9.742   1.324  0.2787  0.9542  0.7571
  973MOL0     C28337   8.748   9.724   1.234 -1.2946  0.8909  0.7029
  973MOL0     C28338   8.769   9.656   1.109 -0.6829  0.0093 -0.0603
  973MOL0     O28339   8.655   9.650   1.044  0.5891 -0.2386 -0.0114
  973MOL0     C28340   8.656   9.575   0.925  0.3998  0.7595  0.0156
  973MOL0     C28341   8.510   9.573   0.874  0.1648 -0.8161  0.6454
  973MOL0     C28342   8.443   9.450   0.931  0.0057  0.1492  0.7525
  973MOL0     C28343   8.306   9.408   0.872  0.1715 -0.5344 -0.1100
  973MOL0     C28344   8.267   9.271   0.919 -0.8589  0.0113  0.4176
  973MOL0     C28345   8.147   9.224   0.843  0.2956  0.0262 -1.2764
  973MOL0     C28346   8.117   9.081   0.875  0.9510  1.1837  0.5233
  973MOL0     C28347   8.118   9.043   1.020  0.0585  0.4055 -0.9245
  973MOL0    Cl28348   8.067   8.880   1.027 -0.5790  0.1331 -0.2659
  973MOL0     C28349   8.900   9.613   1.076  0.4678  0.2302 -0.9337
  973MOL0     C28350   9.001   9.632   1.172  0.3110  0.3728  0.2355
  973MOL0     O28351   8.986   9.687   1.592  0.5440 -0.8778  0.1035
  973MOL0     C28352   9.329   9.699   1.503 -0.6421 -0.1035  0.0993
  973MOL0     C28353   9.458   9.710   1.565  0.6606  0.0092 -0.6212
  973MOL0     N28354  10.010  10.183   1.652 -0.2351 -0.2881 -0.2529
  973MOL0     N28355  10.139  10.185   1.651 -0.4137 -0.1984  0.1400
  973MOL0     C28356  11.142   9.585   2.030  0.0207  0.3008 -0.2116
  973MOL0     C28357  11.172   9.565   2.168  0.1268 -0.2416 -0.5391
  973MOL0     C28358  11.165   9.437   2.608  0.5662  1.4303 -0.6155
  973MOL0     C28359  11.048   9.358   2.637 -0.0878  0.1870 -0.5640
  973MOL0     C28360  11.018   9.312   2.770 -0.5804 -0.3583  0.0794
  973MOL0     C28361  11.107   9.339   2.876 -0.3003  0.4354  0.9495
  973MOL0     O28362  11.079   9.311   3.007  0.2070 -0.5303  0.1193
  973MOL0     C28363  10.957   9.244   3.057 -0.0665 -0.8750  0.6092
  973MOL0     C28364  10.979   9.156   3.180  0.3151  0.5124  0.5682
  973MOL0     C28365  10.863   9.051   3.204 -0.2484 -0.9743 -0.1721
  973MOL0     C28366  10.881   8.907   3.144 -0.0609  0.3870 -0.3425
  973MOL0     C28367  11.012   8.846   3.177 -0.5187 -0.6182 -0.5157
  973MOL0     C28368  11.130   8.821   3.175 -0.7628 -0.1833 -0.9298
  973MOL0     C28369  11.222   9.411   2.844  0.8531  0.3043  0.0742
  973MOL0     C28370  11.253   9.463   2.714 -0.4418  0.3569 -0.7716
  973MOL0     H28371  11.032   9.252   2.192  3.9524 -0.7930  3.0445
  973MOL0     H28372  10.993   9.293   1.950  0.0204 -1.0720  1.6779
  973MOL0     H28373  10.853   9.494   1.821  1.1168 -2.7630 -1.1191
  973MOL0     H28374  10.938   9.504   1.661  1.5983  1.1642 -0.9021
  973MOL0     H28375  10.956   9.724   1.649 -3.3920  0.6245 -1.2677
  973MOL0     H28376  10.966   9.758   1.823  2.6653 -0.5171 -1.6962
  973MOL0     H28377  10.719   9.691   1.825 -0.0521 -1.0899 -0.7232
  973MOL0     H28378  10.727   9.696   1.647 -1.4001  0.2075  0.2896
  973MOL0     H28379  10.770   9.916   1.847 -0.3267  1.0140 -0.7970
  973MOL0     H28380  10.819   9.938   1.686 -0.6409 -1.4969 -1.7685
  973MOL0     H28381  10.564   9.924   1.623 -2.0053  0.4298  1.0328
  973MOL0     H28382  10.607  10.042   1.758  2.1159  0.3605  0.2561
  973MOL0     H28383  10.532   9.828   1.903  0.3619  0.5104 -0.4113
  973MOL0     H28384  10.471   9.767   1.753 -0.9766  1.8524 -2.9988
  973MOL0     H28385  10.288   9.900   1.867 -1.3203  2.6835 -1.0293
  973MOL0     H28386  10.391  10.031   1.898  0.7127  2.6048 -2.3195
  973MOL0     H28387  10.332   9.952   1.613 -2.2601  1.6365 -0.6504
  973MOL0     H28388  10.381  10.116   1.683 -0.2291  0.4069 -1.4590
  973MOL0     H28389  10.071   9.897   1.783  0.3955  0.3141 -0.3210
  973MOL0     H28390   9.781   9.984   1.628  2.1600 -0.3149 -0.0602
  973MOL0     H28391   9.759  10.106   1.757  0.1862  1.4987 -1.7256
  973MOL0     H28392   9.725   9.908   1.871  0.6882 -3.1045  0.8894
  973MOL0     H28393   9.890   9.920   1.904 -2.0918 -0.4223  1.1514
  973MOL0     H28394   9.927   9.775   1.687 -1.8701 -1.6985 -1.5567
  973MOL0     H28395   9.871   9.694   1.833  0.0370 -1.1591 -0.2288
  973MOL0     H28396   9.728   9.625   1.639  0.3575 -1.2012  3.7855
  973MOL0     H28397   9.697   9.784   1.589 -3.8341 -3.8210 -2.0300
  973MOL0     H28398   9.393   9.686   1.877  1.1598 -1.7346 -0.4583
  973MOL0     H28399   9.153   9.661   1.789  0.4571  1.9507  0.4084
  973MOL0     H28400   8.832   9.785   1.421  0.0824 -2.1261  2.1773
  973MOL0     H28401   8.644   9.749   1.254 -2.5749 -3.2665  0.3200
  973MOL0     H28402   8.699   9.475   0.933 -0.1290  0.1755 -3.0729
  973MOL0     H28403   8.718   9.621   0.847  1.5931 -3.9432 -2.1382
  973MOL0     H28404   8.508   9.583   0.765  2.1661 -3.0314  0.3394
  973MOL0     H28405   8.457   9.655   0.924  3.3372  1.4538  0.5725
  973MOL0     H28406   8.432   9.472   1.037 -2.5005  0.0058  0.5826
  973MOL0     H28407   8.504   9.359   0.933  0.2878  0.3438  2.2534
  973MOL0     H28408   8.226   9.478   0.899 -0.6294 -1.0419 -1.0782
  973MOL0     H28409   8.316   9.409   0.763 -2.6096  0.6974 -0.4604
  973MOL0     H28410   8.250   9.280   1.027  1.5755  0.3539  0.8390
  973MOL0     H28411   8.354   9.207   0.899 -1.2001 -0.1882 -0.5086
  973MOL0     H28412   8.173   9.233   0.737  0.4838  1.2069 -1.1386
  973MOL0     H28413   8.061   9.286   0.866  0.4161 -0.3240  0.2339
  973MOL0     H28414   8.020   9.065   0.829  0.6825  0.5649  1.2818
  973MOL0     H28415   8.197   9.024   0.827  0.0181  0.1711  0.1505
  973MOL0     H28416   8.045   9.103   1.075  1.5705 -0.9541  2.9162
  973MOL0     H28417   8.209   9.052   1.080  0.1629 -0.1766 -0.9851
  973MOL0     H28418   8.928   9.566   0.983  0.9099 -0.0660 -0.6507
  973MOL0     H28419   9.097   9.596   1.138  0.7204  3.4262 -2.2465
  973MOL0     H28420   9.327   9.723   1.397 -0.1319 -2.0520 -0.3914
  973MOL0     H28421   9.545   9.705   1.500  0.0025 -2.3486 -1.4188
  973MOL0     H28422  11.180   9.673   1.981  0.0687 -1.3277 -3.3618
  973MOL0     H28423  11.228   9.636   2.228 -1.5798 -0.4247  1.3839
  973MOL0     H28424  10.969   9.342   2.565 -0.8432 -5.0745  1.0071
  973MOL0     H28425  10.923   9.263   2.784 -0.4228 -0.6788  0.0275
  973MOL0     H28426  10.932   9.174   2.977  0.1946 -1.8563  1.3661
  973MOL0     H28427  10.881   9.321   3.068  2.5386  2.6518 -2.9653
  973MOL0     H28428  11.082   9.119   3.172  0.7272  1.3646  1.5371
  973MOL0     H28429  10.980   9.233   3.258 -5.0249  0.6690  0.7916
  973MOL0     H28430  10.772   9.104   3.172  0.6699  0.4858 -0.4838
  973MOL0     H28431  10.846   9.036   3.311 -0.9313  3.0181  0.4373
  973MOL0     H28432  10.799   8.850   3.188 -0.0717  1.5777  1.2587
  973MOL0     H28433  10.872   8.918   3.035  1.6795  1.9166 -0.3863
  973MOL0     H28434  11.237   8.819   3.170 -0.6197  0.7970  0.9599
  973MOL0     H28435  11.273   9.416   2.940 -0.6624 -2.9295  1.1843
  973MOL0     H28436  11.353   9.504   2.704  0.6509 -0.5215  3.9335
  974MOL0     O28437   2.175   0.902   4.399 -0.9529  0.6102  1.0069
  974MOL0     C28438   2.149   0.785   4.427 -0.1274 -0.3934 -1.2859
  974MOL0     O28439   2.229   0.710   4.511 -0.5530  1.0764  0.5783
  974MOL0     C28440   2.339   0.759   4.578 -0.8091 -0.3266  0.4663
  974MOL0     C28441   2.331   0.875   4.662 -0.1665 -0.3477  0.0775
  974MOL0     C28442   2.444   0.918   4.733 -0.1534  0.1310  0.1544
  974MOL0     C28443   2.567   0.853   4.713  0.7363  0.5097  0.5866
  974MOL0     O28444   2.684   0.907   4.760 -0.2655  0.8844 -0.6871
  974MOL0     C28445   2.690   1.044   4.805 -0.2181  1.0775 -0.6747
  974MOL0     C28446   2.833   1.076   4.847  0.3062 -0.0413  0.1243
  974MOL0     C28447   2.861   1.225   4.882  0.5496 -0.1385  0.1081
  974MOL0     C28448   3.013   1.254   4.898 -0.7075  0.1700  0.5895
  974MOL0     C28449   3.039   1.400   4.936  0.5860  0.1573 -0.4668
  974MOL0     C28450   3.050   1.487   4.812 -0.4528  0.5903 -0.0479
  974MOL0     C28451   3.116   1.620   4.852 -1.1167  0.0055  0.2491
  974MOL0     C28452   3.178   1.689   4.728  0.7361 -0.0070 -0.4406
  974MOL0     N28453   3.076   1.782   4.672  0.2687 -0.0172 -0.6523
  974MOL0     C28454   2.956   1.757   4.608  0.1017  0.1611  1.1717
  974MOL0     C28455   2.890   1.878   4.611  0.1944 -0.4299 -0.1792
  974MOL0     C28456   2.750   1.894   4.559  0.1902 -0.5567  0.0579
  974MOL0     C28457   2.623   1.846   4.634 -0.3568  1.1170  0.3391
  974MOL0     C28458   2.522   1.959   4.636  0.2150  0.2615 -0.3631
  974MOL0     C28459   2.424   1.970   4.522  0.2148  0.7114 -0.1574
  974MOL0     O28460   2.319   1.864   4.553 -0.9138 -0.4514 -0.0646
  974MOL0     C28461   2.213   1.889   4.636  0.3294  1.3270  0.1398
  974MOL0     C28462   2.201   1.988   4.731  0.3335 -0.4073 -0.6209
  974MOL0     C28463   2.086   2.021   4.799 -0.6879 -0.1620  0.3945
  974MOL0     C28464   1.974   1.938   4.788 -0.0764 -0.3982  0.1477
  974MOL0     C28465   1.856   1.978   4.868 -0.0098  0.6876  0.0944
  974MOL0     O28466   1.869   2.072   4.964 -0.1942 -0.2290  0.1047
  974MOL0     C28467   1.767   2.101   5.058 -0.7421 -1.6001 -0.3630
  974MOL0     C28468   1.801   2.170   5.175  0.0565  0.2040  0.5358
  974MOL0     C28469   1.713   2.206   5.282  0.6946  0.2259  1.2888
  974MOL0     C28470   1.577   2.178   5.262 -0.9625  0.0787 -0.0316
  974MOL0     O28471   1.490   2.221   5.365 -0.6825  0.1874  0.6307
  974MOL0     C28472   1.446   2.129   5.464  0.4017 -0.0470  0.3598
  974MOL0     C28473   1.297   2.165   5.489 -0.6387 -1.1031 -0.3524
  974MOL0     C28474   1.206   2.067   5.407  0.3362  0.2165  0.7007
  974MOL0     C28475   1.063   2.113   5.402 -0.5736 -0.3107  0.2927
  974MOL0     C28476   0.991   2.024   5.312 -0.1016 -0.1673 -0.3128
  974MOL0     C28477   0.842   2.021   5.316 -0.4364 -0.2318 -0.3547
  974MOL0     C28478   0.780   1.892   5.257 -0.6590 -0.4360  0.3821
  974MOL0     C28479   0.799   1.764   5.348  0.2202  0.7769  0.9809
  974MOL0    Cl28480   0.829   1.622   5.244 -0.1122 -0.5355  0.4847
  974MOL0     C28481   1.535   2.106   5.147  0.2067  0.2609 -0.4373
  974MOL0     C28482   1.627   2.079   5.045  0.8928 -0.5273  0.1835
  974MOL0     O28483   1.752   1.925   4.835 -0.7385 -0.1865 -0.0293
  974MOL0     C28484   1.984   1.827   4.703 -0.7156 -0.2812  0.1481
  974MOL0     C28485   2.102   1.802   4.629 -0.1006 -0.4602 -1.6526
  974MOL0     N28486   2.960   1.971   4.680 -0.5559 -0.2801  0.2079
  974MOL0     N28487   3.068   1.913   4.723 -0.1514  0.5324 -0.7323
  974MOL0     C28488   2.576   0.736   4.628  0.2101 -0.1748  0.5415
  974MOL0     C28489   2.462   0.691   4.561  0.5158  0.3353  0.0682
  974MOL0     C28490   2.020   0.734   4.378  0.4899 -0.7068  0.5834
  974MOL0     C28491   1.931   0.819   4.301 -0.9575  0.2567 -0.4208
  974MOL0     C28492   1.810   0.759   4.276  0.0753 -0.6067 -0.2145
  974MOL0     C28493   1.758   0.636   4.319 -0.8776  0.2387 -0.5426
  974MOL0     O28494   1.625   0.608   4.297  0.3423  0.3747 -0.0819
  974MOL0     C28495   1.570   0.478   4.322 -0.5744 -1.1031 -0.0773
  974MOL0     C28496   1.497   0.477   4.452  0.0801  0.1833 -0.3323
  974MOL0     C28497   1.356   0.536   4.422  0.5530 -0.1751  0.2531
  974MOL0     C28498   1.280   0.554   4.553  0.4706  0.7758 -0.4168
  974MOL0     C28499   1.334   0.657   4.632  0.5907 -0.3309  0.4505
  974MOL0     C28500   1.394   0.744   4.694 -0.1683 -0.6473 -0.0040
  974MOL0     C28501   1.849   0.557   4.385 -0.0963  0.1812 -0.2586
  974MOL0     C28502   1.981   0.603   4.402 -0.5627  0.7990 -0.4253
  974MOL0     H28503   2.236   0.923   4.680 -0.3505 -1.3946  2.1908
  974MOL0     H28504   2.442   1.015   4.782 -0.5513  0.5554 -0.6699
  974MOL0     H28505   2.629   1.055   4.895  2.1522  1.9887  0.9354
  974MOL0     H28506   2.666   1.115   4.726  0.3576  1.6606 -0.3311
  974MOL0     H28507   2.901   1.037   4.771 -1.7545 -1.6813 -0.9660
  974MOL0     H28508   2.859   1.021   4.938  0.1428 -0.3308 -0.0024
  974MOL0     H28509   2.818   1.254   4.979  2.2369 -1.7035  1.3932
  974MOL0     H28510   2.825   1.287   4.799  1.8826  1.2610  0.5284
  974MOL0     H28511   3.054   1.198   4.983 -1.3181  3.5671  3.3650
  974MOL0     H28512   3.067   1.229   4.806 -3.0395 -1.6352 -0.3916
  974MOL0     H28513   3.129   1.401   5.000 -0.5101  0.4596  1.1354
  974MOL0     H28514   2.958   1.430   5.003  1.9985  0.2025  1.3058
  974MOL0     H28515   2.951   1.500   4.767  0.2287  0.0751 -1.7873
  974MOL0     H28516   3.122   1.436   4.747 -0.5720 -4.2052  3.0896
  974MOL0     H28517   3.043   1.680   4.907 -0.7945  1.9871 -1.4053
  974MOL0     H28518   3.198   1.596   4.920 -1.7346  1.6497  1.6331
  974MOL0     H28519   3.206   1.620   4.648 -0.5567  1.2557 -2.0672
  974MOL0     H28520   3.272   1.739   4.756  1.2167 -0.4401 -1.2422
  974MOL0     H28521   2.919   1.661   4.575  0.9775  0.6283 -1.3704
  974MOL0     H28522   2.749   1.836   4.466  4.2588 -2.6169  1.0455
  974MOL0     H28523   2.738   2.001   4.539 -2.6031 -0.4187  1.8768
  974MOL0     H28524   2.644   1.808   4.734  0.1083 -2.5015 -0.9929
  974MOL0     H28525   2.576   1.759   4.587  2.0097  1.1922 -2.4674
  974MOL0     H28526   2.465   1.927   4.724  3.1157  0.9513  1.9390
  974MOL0     H28527   2.558   2.060   4.658 -3.7686  1.3976  1.9073
  974MOL0     H28528   2.464   1.944   4.424  0.4349 -2.0375  0.5692
  974MOL0     H28529   2.374   2.068   4.522 -1.5929 -0.1723  0.1456
  974MOL0     H28530   2.286   2.056   4.738  0.4258 -0.3373 -2.1213
  974MOL0     H28531   2.074   2.104   4.868  4.4586  1.8472 -0.6002
  974MOL0     H28532   1.907   2.186   5.194 -0.5358  2.6564  2.3175
  974MOL0     H28533   1.741   2.259   5.372 -4.4354  1.3765  2.5140
  974MOL0     H28534   1.502   2.147   5.555 -1.0325  0.5671  1.1545
  974MOL0     H28535   1.455   2.023   5.439  2.0538 -0.6150  3.0128
  974MOL0     H28536   1.277   2.270   5.469  0.4577 -0.5751  1.1315
  974MOL0     H28537   1.281   2.152   5.596  0.9330  2.6119  0.4742
  974MOL0     H28538   1.214   1.973   5.463  0.6181 -0.6825 -0.7854
  974MOL0     H28539   1.244   2.058   5.304  1.0355  0.4707  0.9275
  974MOL0     H28540   1.004   2.121   5.495 -0.6634  0.4331  0.1825
  974MOL0     H28541   1.061   2.211   5.353  0.2661 -0.4359  0.0054
  974MOL0     H28542   1.025   1.925   5.344  1.9738  0.2672 -1.0615
  974MOL0     H28543   1.017   2.039   5.207 -2.2269 -0.1519 -0.8954
  974MOL0     H28544   0.808   2.101   5.250  4.9114  1.6913 -1.2409
  974MOL0     H28545   0.803   2.038   5.417 -1.8048  0.9333 -1.0359
  974MOL0     H28546   0.674   1.907   5.236 -0.9610 -0.1420  1.9791
  974MOL0     H28547   0.820   1.878   5.156 -0.6091 -2.5796  0.6384
  974MOL0     H28548   0.718   1.739   5.417  1.8144  0.8862  2.9993
  974MOL0     H28549   0.880   1.771   5.422  0.8694 -0.4572  0.4184
  974MOL0     H28550   1.430   2.083   5.136 -0.4594  2.0005  1.5160
  974MOL0     H28551   1.588   2.012   4.970 -2.1488 -1.4083  2.3242
  974MOL0     H28552   1.901   1.760   4.683 -0.5208 -0.2386 -0.8327
  974MOL0     H28553   2.119   1.720   4.561  0.7898 -0.7726 -1.0716
  974MOL0     H28554   2.667   0.679   4.610  0.4153 -0.0763  1.2382
  974MOL0     H28555   2.458   0.598   4.505  0.8802  0.9768 -1.0355
  974MOL0     H28556   1.958   0.915   4.260  2.5766 -1.0107 -1.3931
  974MOL0     H28557   1.751   0.826   4.214 -0.9043 -0.0901  1.2343
  974MOL0     H28558   1.653   0.407   4.314  3.3153  3.0372 -0.5982
  974MOL0     H28559   1.499   0.452   4.243 -2.7147  3.3515  0.0371
  974MOL0     H28560   1.493   0.377   4.497 -1.5264  1.1812  1.9950
  974MOL0     H28561   1.560   0.529   4.525  2.3551 -1.2144 -1.1834
  974MOL0     H28562   1.302   0.471   4.353 -0.1816  1.5085 -0.8122
  974MOL0     H28563   1.357   0.636   4.380 -3.0950 -0.2778 -0.4271
  974MOL0     H28564   1.179   0.593   4.537 -1.4964 -3.0626  1.3657
  974MOL0     H28565   1.285   0.457   4.602  2.6581 -0.4803 -2.8594
  974MOL0     H28566   1.433   0.837   4.732 -2.1259  0.9758 -1.7001
  974MOL0     H28567   1.828   0.457   4.424  4.2270 -0.6559  0.3890
  974MOL0     H28568   2.050   0.535   4.452 -0.6864  1.1140  0.1838
  975MOL0     O28569   8.410   4.826   5.893 -0.5230 -1.4821 -0.0449
  975MOL0     C28570   8.471   4.840   5.786  0.5589 -0.1487 -1.1224
  975MOL0     O28571   8.429   4.790   5.669 -0.3348 -0.6871  0.0883
  975MOL0     C28572   8.304   4.734   5.667 -0.3731 -0.2218  0.2644
  975MOL0     C28573   8.186   4.775   5.735 -1.0205  0.3475  0.0700
  975MOL0     C28574   8.080   4.692   5.726 -0.4003  0.2050  0.1149
  975MOL0     C28575   8.069   4.591   5.632 -0.8706  0.1157 -0.7415
  975MOL0     O28576   7.956   4.515   5.607 -0.3524  0.1649 -0.4228
  975MOL0     C28577   7.830   4.570   5.650 -0.1891 -0.1474  1.1111
  975MOL0     C28578   7.721   4.470   5.614 -0.2949  0.0078  0.4126
  975MOL0     C28579   7.631   4.458   5.734 -0.0978 -0.3427 -0.2551
  975MOL0     C28580   7.532   4.351   5.720  0.2681  0.2093  0.7309
  975MOL0     C28581   7.436   4.353   5.837 -0.0036  0.6152  0.1054
  975MOL0     C28582   7.383   4.218   5.883 -0.0640  0.2105 -0.1997
  975MOL0     C28583   7.253   4.188   5.816 -0.4931 -0.4580  0.1693
  975MOL0     C28584   7.198   4.049   5.839 -0.2607  0.2825 -0.3796
  975MOL0     N28585   7.067   4.048   5.766  0.4666 -0.6118  0.0327
  975MOL0     C28586   7.053   4.074   5.627 -0.1568 -0.1663  0.2347
  975MOL0     C28587   6.923   4.058   5.597 -0.3997 -0.1970  0.1628
  975MOL0     C28588   6.849   4.102   5.465 -0.6051  0.8951 -0.4716
  975MOL0     C28589   6.788   4.248   5.482 -1.4656  0.1460 -0.4100
  975MOL0     C28590   6.672   4.303   5.397  0.2094 -0.4316 -0.3067
  975MOL0     C28591   6.539   4.246   5.445 -0.3152 -0.6862 -0.2598
  975MOL0     O28592   6.422   4.293   5.367 -0.3963 -0.7593 -0.1697
  975MOL0     C28593   6.336   4.392   5.413 -0.1052 -0.6992 -0.4009
  975MOL0     C28594   6.375   4.487   5.502 -0.1727  0.2210 -0.6711
  975MOL0     C28595   6.299   4.593   5.538 -0.7113  0.3911 -0.0701
  975MOL0     C28596   6.171   4.606   5.483 -0.1575 -0.1837 -0.8110
  975MOL0     C28597   6.071   4.709   5.540  0.0518  0.1613  1.2081
  975MOL0     O28598   6.096   4.757   5.663  0.5416 -0.4227  0.5469
  975MOL0     C28599   6.016   4.855   5.717  0.8997  0.3162  0.5325
  975MOL0     C28600   5.911   4.823   5.800  0.0501 -0.1846 -0.7526
  975MOL0     C28601   5.835   4.923   5.867 -0.5913  0.5945  0.0178
  975MOL0     C28602   5.871   5.062   5.850 -0.7268  0.5559  0.0952
  975MOL0     O28603   5.804   5.166   5.917  0.1625  0.0360  0.0761
  975MOL0     C28604   5.663   5.148   5.941  0.2970  0.2095  0.3227
  975MOL0     C28605   5.603   5.279   5.993  0.0339 -0.6185  0.6513
  975MOL0     C28606   5.478   5.266   6.085  0.3255  0.3896  0.4348
  975MOL0     C28607   5.364   5.213   6.003  0.5652  0.5829  0.3207
  975MOL0     C28608   5.225   5.222   6.079 -0.3168  0.5693  0.5064
  975MOL0     C28609   5.118   5.154   6.002  0.0289  0.4841 -0.0212
  975MOL0     C28610   4.973   5.175   6.058 -0.3654  0.3010  0.1442
  975MOL0     C28611   4.879   5.070   5.988 -0.2423  0.8119 -0.3195
  975MOL0    Cl28612   4.706   5.101   6.040 -0.0486 -0.1001 -0.1238
  975MOL0     C28613   5.965   5.099   5.751  0.0038  0.5442 -0.5536
  975MOL0     C28614   6.035   4.987   5.683  0.1214 -0.3073  0.4433
  975MOL0     O28615   5.984   4.748   5.465  0.6483  0.9785  0.1139
  975MOL0     C28616   6.130   4.514   5.385 -0.3454  0.0916 -0.0929
  975MOL0     C28617   6.215   4.407   5.356 -0.8548  0.6143 -0.2965
  975MOL0     N28618   6.860   4.029   5.720 -0.2274 -0.3011  0.5291
  975MOL0     N28619   6.944   4.029   5.817 -0.3231  0.0102  0.4964
  975MOL0     C28620   8.183   4.560   5.558  0.0019 -0.6993 -0.1461
  975MOL0     C28621   8.301   4.635   5.570  0.0269  0.2002 -0.4327
  975MOL0     C28622   8.597   4.918   5.782  0.0282  1.2985 -0.0247
  975MOL0     C28623   8.654   4.962   5.902  0.3099  0.7560  0.1132
  975MOL0     C28624   8.768   5.029   5.903 -0.1003  0.5974 -0.1821
  975MOL0     C28625   8.843   5.036   5.790  0.3307  0.6162  0.8722
  975MOL0     O28626   8.968   5.092   5.784  0.6170 -0.4344 -0.2433
  975MOL0     C28627   9.049   5.129   5.897  0.0304 -0.3948  0.3188
  975MOL0     C28628   9.164   5.219   5.853 -0.8038 -0.1483  0.1013
  975MOL0     C28629   9.210   5.180   5.714  0.3509  0.2372  0.5402
  975MOL0     C28630   9.361   5.218   5.680  1.0317  0.1837 -0.8532
  975MOL0     C28631   9.391   5.187   5.540 -0.6060 -0.0170 -0.6391
  975MOL0     C28632   9.419   5.149   5.427  0.4429  0.1339 -0.1440
  975MOL0     C28633   8.791   5.000   5.670 -0.4839 -0.3901 -0.2991
  975MOL0     C28634   8.668   4.943   5.665 -0.4358  0.4379 -1.3982
  975MOL0     H28635   8.185   4.856   5.806  1.0926 -0.0419  0.6086
  975MOL0     H28636   7.995   4.710   5.791 -2.1051 -1.8573 -1.4423
  975MOL0     H28637   7.812   4.665   5.599  1.2699 -0.8523 -0.8891
  975MOL0     H28638   7.836   4.574   5.759 -1.3248  1.2724  1.1458
  975MOL0     H28639   7.762   4.378   5.573 -0.2367  0.6319 -1.0061
  975MOL0     H28640   7.672   4.502   5.521 -2.1850 -2.4858  0.4693
  975MOL0     H28641   7.579   4.555   5.742  1.4502  0.5287 -0.4265
  975MOL0     H28642   7.691   4.435   5.823 -0.9624 -4.6258 -0.5717
  975MOL0     H28643   7.473   4.350   5.628  1.6709 -0.0404 -0.2020
  975MOL0     H28644   7.587   4.256   5.715 -1.7742 -0.9886 -2.3625
  975MOL0     H28645   7.350   4.421   5.823  0.6772  2.1529  2.7267
  975MOL0     H28646   7.488   4.397   5.923 -0.0427  2.9986 -0.9980
  975MOL0     H28647   7.358   4.221   5.990 -0.2333 -0.0363 -0.2303
  975MOL0     H28648   7.454   4.139   5.858  0.0626  0.7624 -1.6561
  975MOL0     H28649   7.177   4.262   5.841 -1.1436 -0.2834 -2.0794
  975MOL0     H28650   7.267   4.213   5.710  3.2783  1.7999  0.9923
  975MOL0     H28651   7.179   4.020   5.942  2.1107 -1.1140 -0.2853
  975MOL0     H28652   7.279   3.987   5.801  0.6694  0.1369  1.7129
  975MOL0     H28653   7.130   4.096   5.554  0.8065 -0.4414  1.1370
  975MOL0     H28654   6.778   4.026   5.433 -1.2283  1.2742 -0.0071
  975MOL0     H28655   6.923   4.110   5.385 -1.0062  0.6918 -0.8637
  975MOL0     H28656   6.867   4.318   5.453 -0.6992  0.9374  3.1586
  975MOL0     H28657   6.773   4.258   5.590  2.9637 -0.7988  0.4768
  975MOL0     H28658   6.665   4.412   5.399  0.3439 -0.4296  1.4716
  975MOL0     H28659   6.688   4.276   5.292 -0.6254  2.1658 -1.1808
  975MOL0     H28660   6.539   4.266   5.553  1.7708 -3.4708  0.3873
  975MOL0     H28661   6.548   4.138   5.428 -0.3434 -0.7595  0.1598
  975MOL0     H28662   6.467   4.482   5.559 -1.3766  0.6057  1.4107
  975MOL0     H28663   6.344   4.662   5.609  0.9147  0.5429 -1.1852
  975MOL0     H28664   5.879   4.722   5.823 -1.4512  0.0436 -1.7312
  975MOL0     H28665   5.746   4.884   5.915  0.0583 -2.0759 -0.7581
  975MOL0     H28666   5.644   5.071   6.017 -1.8714  1.3161  1.0062
  975MOL0     H28667   5.616   5.117   5.848  2.5307  1.7949 -1.4361
  975MOL0     H28668   5.583   5.347   5.910 -3.6812 -2.2620 -0.0052
  975MOL0     H28669   5.678   5.317   6.062  0.8870 -0.0380 -0.5627
  975MOL0     H28670   5.461   5.371   6.112  0.1168  0.9423 -1.6602
  975MOL0     H28671   5.491   5.208   6.177 -1.0848 -1.9291 -0.7263
  975MOL0     H28672   5.356   5.265   5.907  0.5708 -2.9195 -1.7435
  975MOL0     H28673   5.371   5.105   5.987 -0.5807  0.1918  2.1268
  975MOL0     H28674   5.208   5.329   6.095 -1.9021  0.4685 -0.3435
  975MOL0     H28675   5.225   5.174   6.178 -1.0887  0.2939  0.3772
  975MOL0     H28676   5.159   5.054   6.015  2.9258  1.5334 -0.3229
  975MOL0     H28677   5.109   5.171   5.894  0.1214  0.0602 -0.0965
  975MOL0     H28678   4.978   5.173   6.167 -1.0584  1.6253  0.2120
  975MOL0     H28679   4.947   5.278   6.033 -0.6787 -0.0362 -0.9672
  975MOL0     H28680   4.912   4.967   6.001 -3.2857 -0.4465 -1.5081
  975MOL0     H28681   4.888   5.092   5.882 -1.4706  3.2087  0.0084
  975MOL0     H28682   5.989   5.197   5.711  1.1885  0.2883 -0.5077
  975MOL0     H28683   6.116   5.013   5.616 -0.1574  1.2937  0.6753
  975MOL0     H28684   6.033   4.521   5.337 -0.4244 -1.8947 -0.3021
  975MOL0     H28685   6.190   4.331   5.283  0.9520  0.3158 -0.6456
  975MOL0     H28686   8.168   4.475   5.492 -2.5002  1.4078 -2.5824
  975MOL0     H28687   8.381   4.614   5.500 -2.3027  2.4837 -4.0724
  975MOL0     H28688   8.598   4.949   5.994  0.7599 -2.6355  0.0256
  975MOL0     H28689   8.804   5.054   6.002  1.7317 -1.0608 -0.3587
  975MOL0     H28690   9.088   5.034   5.934  0.7591 -0.9605 -1.7834
  975MOL0     H28691   8.985   5.179   5.971 -1.6712 -1.2913 -0.4811
  975MOL0     H28692   9.120   5.319   5.848  0.9876  0.6168 -1.0440
  975MOL0     H28693   9.251   5.216   5.918 -0.4660  0.6342 -0.3016
  975MOL0     H28694   9.141   5.233   5.648 -0.0238  1.5099  1.9016
  975MOL0     H28695   9.207   5.075   5.684 -1.6597  0.1837  0.7590
  975MOL0     H28696   9.374   5.323   5.705 -0.2507  0.3485 -0.8531
  975MOL0     H28697   9.419   5.153   5.747 -0.1085 -1.9787 -1.8440
  975MOL0     H28698   9.462   5.131   5.331  2.5525  0.4410  0.6968
  975MOL0     H28699   8.846   5.005   5.576  0.3140  1.9675  0.2158
  975MOL0     H28700   8.625   4.913   5.570 -3.1591  4.1374 -1.5345
  976MOL0     O28701  10.568   0.715   5.660 -0.3846 -0.3502  0.3195
  976MOL0     C28702  10.615   0.691   5.767  0.0452  1.0846 -0.1385
  976MOL0     O28703  10.540   0.655   5.879  1.3272 -0.1853  0.4508
  976MOL0     C28704  10.404   0.668   5.891 -0.0020 -0.7216 -0.9492
  976MOL0     C28705  10.359   0.636   6.015  0.6530 -1.1903 -0.6124
  976MOL0     C28706  10.220   0.632   6.041  0.1676  0.5406  0.3063
  976MOL0     C28707  10.130   0.687   5.949 -0.0988 -0.2480 -0.8189
  976MOL0     O28708   9.999   0.704   5.980  0.3706  0.1283 -0.1611
  976MOL0     C28709   9.916   0.582   5.982  0.8300 -0.0053  0.6510
  976MOL0     C28710   9.899   0.518   5.843 -0.5823 -0.6150  0.2921
  976MOL0     C28711   9.763   0.448   5.828 -0.5588 -0.7875 -0.0691
  976MOL0     C28712   9.740   0.347   5.929  0.8465 -0.0798 -0.7584
  976MOL0     C28713   9.619   0.247   5.936  0.1663  0.0405  0.3591
  976MOL0     C28714   9.483   0.311   5.971 -0.0468 -0.0908  0.6996
  976MOL0     C28715   9.427   0.404   5.863  0.2340  0.2012 -0.4732
  976MOL0     C28716   9.416   0.551   5.912  0.1290 -0.1849 -0.0215
  976MOL0     N28717   9.308   0.588   6.010 -0.3942  0.1465  0.9002
  976MOL0     C28718   9.222   0.691   5.995 -0.0176  0.2346  0.2737
  976MOL0     C28719   9.146   0.684   6.107  0.7266  0.3419 -0.0841
  976MOL0     C28720   9.022   0.759   6.148 -0.5428  0.5304 -0.4879
  976MOL0     C28721   8.908   0.728   6.047 -0.7035 -0.0845  0.6743
  976MOL0     C28722   8.867   0.583   6.040 -0.3642  0.7746  0.1767
  976MOL0     C28723   8.760   0.553   5.946 -0.0571 -0.5064 -0.5362
  976MOL0     O28724   8.706   0.676   5.877 -0.5504  0.0085 -0.9835
  976MOL0     C28725   8.567   0.693   5.889 -0.1395 -0.4188 -0.2517
  976MOL0     C28726   8.471   0.586   5.907 -0.1551 -0.1324  0.0319
  976MOL0     C28727   8.333   0.620   5.906 -0.1510 -0.3641  1.2789
  976MOL0     C28728   8.292   0.760   5.882 -0.2322  0.6501 -1.0157
  976MOL0     C28729   8.151   0.790   5.862  0.4888 -0.0465 -0.6161
  976MOL0     O28730   8.115   0.909   5.905  0.4813  0.2464  0.3431
  976MOL0     C28731   7.986   0.943   5.909  0.4428  0.0474  0.3133
  976MOL0     C28732   7.909   0.928   5.794  0.0818  0.9138  0.0062
  976MOL0     C28733   7.784   0.995   5.795 -1.0994 -0.6346  0.6213
  976MOL0     C28734   7.735   1.068   5.911 -0.1059  0.2760  0.4372
  976MOL0     O28735   7.612   1.131   5.901  1.7581  0.1615 -0.2003
  976MOL0     C28736   7.523   1.151   6.013 -0.0251 -0.5254 -0.1578
  976MOL0     C28737   7.405   1.240   5.962 -0.4627  0.0684 -0.0486
  976MOL0     C28738   7.299   1.267   6.075  0.2426 -0.5504  0.7962
  976MOL0     C28739   7.156   1.293   6.018 -0.2914 -0.6012  0.2910
  976MOL0     C28740   7.048   1.335   6.119 -0.9384 -0.1674  0.1736
  976MOL0     C28741   7.109   1.426   6.232  0.3161 -0.1125 -0.4109
  976MOL0     C28742   6.997   1.498   6.312  0.2173  0.2136 -0.2048
  976MOL0     C28743   6.947   1.617   6.220 -0.7020 -0.9664  0.5853
  976MOL0    Cl28744   7.061   1.764   6.245 -0.2981 -0.3667 -0.1564
  976MOL0     C28745   7.811   1.063   6.021  0.7023  1.0643 -0.2138
  976MOL0     C28746   7.938   1.008   6.020 -0.4063 -0.3796  0.2605
  976MOL0     O28747   8.076   0.699   5.821  0.5306 -0.0808  0.0898
  976MOL0     C28748   8.393   0.859   5.870  0.8679 -0.1588  0.3713
  976MOL0     C28749   8.527   0.830   5.879 -0.9694  1.2135  0.0737
  976MOL0     N28750   9.197   0.592   6.193  0.5792 -0.5363 -0.1928
  976MOL0     N28751   9.295   0.534   6.134 -0.1610 -0.2416  0.2133
  976MOL0     C28752  10.174   0.719   5.821 -0.3117 -0.5593  0.5366
  976MOL0     C28753  10.311   0.702   5.787 -0.1880 -0.1826 -0.9589
  976MOL0     C28754  10.759   0.668   5.791 -0.5591 -0.6068 -0.8529
  976MOL0     C28755  10.826   0.668   5.921 -0.0841 -0.4308 -0.4142
  976MOL0     C28756  10.964   0.646   5.926 -0.1558  0.0159 -0.2065
  976MOL0     C28757  11.036   0.611   5.813 -0.5119 -0.9944  0.0097
  976MOL0     O28758  11.166   0.590   5.819 -0.3823 -0.3528 -0.0695
  976MOL0     C28759  11.246   0.676   5.902 -0.3506 -1.5154 -0.7582
  976MOL0     C28760  11.319   0.611   6.019  0.8281 -1.0934  0.4199
  976MOL0     C28761  11.406   0.715   6.097 -0.2987  0.2208  0.7381
  976MOL0     C28762  11.495   0.806   6.009  0.3410 -0.8016  0.3178
  976MOL0     C28763  11.416   0.930   5.970 -0.1708  0.0211  0.5478
  976MOL0     C28764  11.368   1.030   5.927  0.0356  0.2687 -0.7651
  976MOL0     C28765  10.966   0.615   5.694  0.0501  0.8653 -1.5577
  976MOL0     C28766  10.833   0.639   5.681 -0.0271 -0.8107 -0.1150
  976MOL0     H28767  10.423   0.622   6.101 -2.3033 -1.4590  1.7188
  976MOL0     H28768  10.171   0.603   6.133 -1.6358  3.1275  0.2610
  976MOL0     H28769   9.818   0.613   6.018  1.3118 -0.6814  2.7117
  976MOL0     H28770   9.951   0.522   6.068  2.0234  1.5426  1.2989
  976MOL0     H28771   9.981   0.445   5.833 -2.3741 -2.6988  0.0219
  976MOL0     H28772   9.908   0.601   5.773  1.1898 -0.5155  0.5831
  976MOL0     H28773   9.765   0.399   5.730  2.9450  2.1391 -1.6998
  976MOL0     H28774   9.688   0.527   5.830 -0.6296 -0.8154 -1.1415
  976MOL0     H28775   9.822   0.275   5.918  2.4005  1.1995  1.6188
  976MOL0     H28776   9.751   0.387   6.031 -2.6428 -1.8392  0.4782
  976MOL0     H28777   9.636   0.169   6.012  3.3193 -0.6822 -0.9156
  976MOL0     H28778   9.611   0.195   5.841  1.4704  0.0531  0.2237
  976MOL0     H28779   9.489   0.356   6.071 -0.5434  1.1396  0.2008
  976MOL0     H28780   9.406   0.235   5.986 -0.6068  0.6511  1.7736
  976MOL0     H28781   9.489   0.395   5.773 -1.8879 -0.3427 -1.9560
  976MOL0     H28782   9.332   0.366   5.824  0.4458 -1.2771  0.3810
  976MOL0     H28783   9.409   0.618   5.825  2.1030  1.8664  1.2932
  976MOL0     H28784   9.510   0.578   5.961 -0.4275 -0.7694  1.4170
  976MOL0     H28785   9.207   0.743   5.901  1.5252 -0.0801 -0.1812
  976MOL0     H28786   9.046   0.865   6.157 -2.5349  1.0021 -0.3099
  976MOL0     H28787   9.002   0.725   6.250  2.6690 -2.4538 -0.6665
  976MOL0     H28788   8.932   0.774   5.950  0.3486  2.0095  1.8486
  976MOL0     H28789   8.821   0.785   6.080 -1.0159  0.0485 -0.3251
  976MOL0     H28790   8.951   0.520   6.011  0.0637  0.8729  1.1606
  976MOL0     H28791   8.839   0.553   6.141  1.3622  2.0587  1.0762
  976MOL0     H28792   8.685   0.498   6.002 -0.0683 -0.8087 -0.8450
  976MOL0     H28793   8.798   0.482   5.872 -0.2366 -0.6568 -0.4805
  976MOL0     H28794   8.481   0.478   5.910  0.0685 -0.2056 -2.1752
  976MOL0     H28795   8.254   0.546   5.918 -4.2481  3.1551 -1.2213
  976MOL0     H28796   7.948   0.876   5.707  0.0401  0.7737  0.0713
  976MOL0     H28797   7.719   1.000   5.708 -1.1793  2.3493  0.7495
  976MOL0     H28798   7.583   1.211   6.082 -0.6879  2.1010 -1.7380
  976MOL0     H28799   7.483   1.058   6.054 -0.6999 -0.3571 -0.4258
  976MOL0     H28800   7.359   1.175   5.886  3.3592  1.4174 -3.9109
  976MOL0     H28801   7.427   1.334   5.911 -0.5209 -0.6007 -1.3513
  976MOL0     H28802   7.346   1.350   6.129 -0.0389  0.4981 -0.5338
  976MOL0     H28803   7.291   1.181   6.142  0.8250 -0.0795  1.4846
  976MOL0     H28804   7.162   1.382   5.955 -1.7264  0.2982  1.3706
  976MOL0     H28805   7.109   1.221   5.951 -3.2142  1.7239 -0.3326
  976MOL0     H28806   7.009   1.240   6.157 -0.6946 -1.2138 -2.0814
  976MOL0     H28807   6.975   1.394   6.062 -3.1608  0.6383  3.4925
  976MOL0     H28808   7.174   1.501   6.186  2.2009 -0.5084  1.4435
  976MOL0     H28809   7.169   1.373   6.306 -1.0737  0.0187  0.8627
  976MOL0     H28810   6.918   1.427   6.339  1.1937 -1.0446 -0.5327
  976MOL0     H28811   7.046   1.551   6.394 -1.6061  0.3299  0.8552
  976MOL0     H28812   6.848   1.648   6.255 -0.4466  0.1330  0.3819
  976MOL0     H28813   6.940   1.588   6.115 -0.6769 -2.0052  0.8647
  976MOL0     H28814   7.778   1.129   6.101 -3.5999 -2.2050  1.0982
  976MOL0     H28815   8.004   1.027   6.104 -4.8399  4.8807  3.1884
  976MOL0     H28816   8.367   0.955   5.827  0.4939 -0.2111  0.4749
  976MOL0     H28817   8.610   0.900   5.874  0.5037 -0.3418  1.4156
  976MOL0     H28818  10.108   0.759   5.746  0.0541 -1.4325 -0.2834
  976MOL0     H28819  10.349   0.735   5.691  1.0876  0.3994 -0.2919
  976MOL0     H28820  10.772   0.681   6.014  2.9382 -0.9808  1.5558
  976MOL0     H28821  11.007   0.641   6.026  0.7262  0.4359 -0.5519
  976MOL0     H28822  11.186   0.762   5.931 -2.0787 -1.9837 -2.7513
  976MOL0     H28823  11.336   0.711   5.850 -0.7431  1.8474  0.6128
  976MOL0     H28824  11.245   0.585   6.095  1.2327  2.5285  2.2697
  976MOL0     H28825  11.381   0.528   5.982  0.4731 -0.5727 -1.4475
  976MOL0     H28826  11.475   0.662   6.163 -1.1839 -0.3667  1.2165
  976MOL0     H28827  11.342   0.779   6.158 -1.8992  1.2514 -1.8361
  976MOL0     H28828  11.579   0.843   6.068  1.0712 -0.4988 -0.8744
  976MOL0     H28829  11.541   0.757   5.923 -0.1506 -0.9879  0.1589
  976MOL0     H28830  11.299   1.101   5.886 -2.0711 -1.5260 -0.4658
  976MOL0     H28831  11.028   0.602   5.606  2.6882  0.0344  0.3203
  976MOL0     H28832  10.777   0.634   5.588 -1.2838 -4.0457  0.6444
  977MOL0     O28833   7.322   8.584   4.044 -0.0733 -0.2557 -0.0705
  977MOL0     C28834   7.313   8.496   4.122  0.1149  0.0956  0.1640
  977MOL0     O28835   7.405   8.394   4.132  0.0200  0.5136 -0.8698
  977MOL0     C28836   7.519   8.394   4.053  0.2851  0.6155 -0.0931
  977MOL0     C28837   7.526   8.418   3.914 -0.1204  0.3106  0.7978
  977MOL0     C28838   7.651   8.432   3.845  0.1722 -0.4647 -0.6979
  977MOL0     C28839   7.766   8.404   3.917 -0.3916 -0.9578 -0.7274
  977MOL0     O28840   7.883   8.379   3.858 -0.0673  0.5402 -0.4866
  977MOL0     C28841   7.920   8.423   3.728 -0.2932 -0.4773  0.0994
  977MOL0     C28842   8.077   8.441   3.705 -0.8009 -0.0694 -0.0182
  977MOL0     C28843   8.147   8.312   3.743 -1.0386  0.1497 -0.7379
  977MOL0     C28844   8.122   8.196   3.644 -0.5783 -0.2846 -0.1784
  977MOL0     C28845   8.215   8.071   3.680  0.0360 -0.8512 -0.1361
  977MOL0     C28846   8.280   7.984   3.559  0.0736  0.1008 -0.9726
  977MOL0     C28847   8.397   8.064   3.499 -0.0851  0.1149  0.2418
  977MOL0     C28848   8.396   8.068   3.342  0.6008 -0.1438 -0.2356
  977MOL0     N28849   8.279   8.136   3.269  0.3895 -0.7907 -0.2213
  977MOL0     C28850   8.242   8.267   3.305 -0.8393  0.2488  0.3376
  977MOL0     C28851   8.129   8.295   3.230 -0.5515  0.8569  0.2159
  977MOL0     C28852   8.040   8.421   3.242  0.0112  0.2648 -0.3039
  977MOL0     C28853   7.915   8.380   3.322  1.0199 -0.8981  0.4365
  977MOL0     C28854   7.799   8.480   3.292 -0.3723  0.8491 -0.6460
  977MOL0     C28855   7.665   8.437   3.343  0.1438 -0.7702  0.3305
  977MOL0     O28856   7.634   8.489   3.470 -0.1452 -0.1613  0.2529
  977MOL0     C28857   7.501   8.494   3.493  0.2030  0.9867 -0.3863
  977MOL0     C28858   7.419   8.390   3.458  0.9055 -0.2081 -0.4777
  977MOL0     C28859   7.278   8.413   3.466 -0.1074  0.4629 -0.7260
  977MOL0     C28860   7.224   8.544   3.497 -0.7790 -0.4862  0.7456
  977MOL0     C28861   7.084   8.563   3.500  1.1120  0.4298 -0.0896
  977MOL0     O28862   7.029   8.686   3.546  0.2059  0.1789  0.2466
  977MOL0     C28863   6.901   8.718   3.538 -0.0265  0.0309 -0.2262
  977MOL0     C28864   6.870   8.838   3.482  0.2813  0.2597 -0.2517
  977MOL0     C28865   6.730   8.882   3.493 -0.3518 -0.0133  0.0679
  977MOL0     C28866   6.628   8.811   3.559 -0.1369 -0.1203  0.1921
  977MOL0     O28867   6.500   8.855   3.554 -0.7985 -0.2429  0.4355
  977MOL0     C28868   6.399   8.773   3.603 -0.1677 -0.4989  0.2339
  977MOL0     C28869   6.264   8.846   3.597  0.3968  0.1347  0.9006
  977MOL0     C28870   6.240   8.930   3.467 -0.1239  0.5984  0.1312
  977MOL0     C28871   6.089   8.932   3.432  0.3398 -0.6935 -0.0537
  977MOL0     C28872   6.050   9.027   3.320 -0.6382  0.1640 -0.4039
  977MOL0     C28873   6.117   8.990   3.192 -0.0586 -0.3285 -0.2403
  977MOL0     C28874   6.077   9.084   3.077 -0.2285 -0.0438 -0.0227
  977MOL0     C28875   5.930   9.071   3.027  0.0123  0.1805  0.5293
  977MOL0    Cl28876   5.904   9.148   2.870  0.3745 -0.1853 -0.4552
  977MOL0     C28877   6.663   8.694   3.624  0.2622 -0.3808  0.8334
  977MOL0     C28878   6.800   8.648   3.612  0.1253  0.4601 -0.0470
  977MOL0     O28879   7.014   8.464   3.463 -0.4430 -0.1315 -0.0197
  977MOL0     C28880   7.316   8.642   3.534  0.8704  0.7725  1.2018
  977MOL0     C28881   7.452   8.614   3.537  0.4201 -0.1342  0.4493
  977MOL0     N28882   8.102   8.182   3.151 -0.2859 -0.7328  0.1133
  977MOL0     N28883   8.187   8.087   3.181  0.3348 -0.1183  0.4407
  977MOL0     C28884   7.761   8.360   4.050  0.8441 -0.6292 -0.1376
  977MOL0     C28885   7.636   8.374   4.123 -0.4407  0.3134  0.6567
  977MOL0     C28886   7.207   8.481   4.219 -0.5590 -0.4662  0.8460
  977MOL0     C28887   7.100   8.578   4.221 -0.1394 -0.1049 -0.6950
  977MOL0     C28888   7.008   8.582   4.317  0.2216  0.3315  0.7445
  977MOL0     C28889   7.009   8.495   4.420  0.4390  0.1886 -0.6906
  977MOL0     O28890   6.914   8.518   4.524  0.1683  0.0200  0.4776
  977MOL0     C28891   6.970   8.611   4.619 -0.5198  1.1783  0.5157
  977MOL0     C28892   6.941   8.759   4.593  0.1308  0.5137  0.9194
  977MOL0     C28893   6.801   8.788   4.623 -0.1470 -0.2665 -0.1665
  977MOL0     C28894   6.769   8.929   4.564  0.5766  0.2525 -0.0159
  977MOL0     C28895   6.630   8.946   4.604 -1.1996 -0.4605 -0.3161
  977MOL0     C28896   6.512   8.958   4.611  0.0674  0.1384  1.1596
  977MOL0     C28897   7.106   8.391   4.424 -0.9742  0.0880  0.6173
  977MOL0     C28898   7.207   8.384   4.326  0.0228 -0.0461 -0.1041
  977MOL0     H28899   7.442   8.454   3.855  0.2401  3.1320  1.8143
  977MOL0     H28900   7.658   8.470   3.744  0.5819  0.7283 -0.2322
  977MOL0     H28901   7.882   8.524   3.711  2.7441  1.4957  3.7260
  977MOL0     H28902   7.866   8.362   3.654 -1.1338  1.4050 -0.9162
  977MOL0     H28903   8.098   8.529   3.767 -1.5562  0.4075 -0.4182
  977MOL0     H28904   8.106   8.474   3.605  0.2205  1.6501  0.7876
  977MOL0     H28905   8.121   8.265   3.838 -0.8161 -5.1793 -2.9481
  977MOL0     H28906   8.255   8.325   3.739 -0.7785 -1.0935  0.8984
  977MOL0     H28907   8.016   8.173   3.661 -0.2442 -1.0356  0.9493
  977MOL0     H28908   8.134   8.209   3.536  1.5595  0.6784  0.1237
  977MOL0     H28909   8.152   8.012   3.746 -1.3094 -0.7722 -1.2988
  977MOL0     H28910   8.300   8.110   3.737  0.9072 -0.7480 -1.4494
  977MOL0     H28911   8.197   7.980   3.489 -0.9233  0.0800  0.1751
  977MOL0     H28912   8.304   7.880   3.584 -0.7253  0.4354  1.4330
  977MOL0     H28913   8.414   8.164   3.541  0.6093 -0.3818  1.1911
  977MOL0     H28914   8.491   8.018   3.532 -0.7082 -1.2247  0.1926
  977MOL0     H28915   8.413   7.971   3.293  1.5723 -0.6705  1.0707
  977MOL0     H28916   8.482   8.130   3.314 -2.0187  2.7116 -2.6972
  977MOL0     H28917   8.286   8.332   3.380 -0.6927  0.6823 -0.1230
  977MOL0     H28918   8.018   8.445   3.137  2.5544  2.1003 -0.5100
  977MOL0     H28919   8.087   8.516   3.271  1.1364  0.0559 -1.3852
  977MOL0     H28920   7.946   8.390   3.426 -1.9289 -0.2781  1.3420
  977MOL0     H28921   7.875   8.281   3.297 -0.4215 -0.2107 -0.1287
  977MOL0     H28922   7.820   8.580   3.333  0.1759  1.2740 -1.9319
  977MOL0     H28923   7.799   8.485   3.183  2.4824  0.3441 -0.7371
  977MOL0     H28924   7.669   8.327   3.343  2.3554 -0.7753  1.8361
  977MOL0     H28925   7.597   8.472   3.265 -0.6725 -1.1209  0.8659
  977MOL0     H28926   7.459   8.297   3.418  0.7470 -0.6863  0.4517
  977MOL0     H28927   7.208   8.339   3.430 -0.9004  1.3806 -1.0986
  977MOL0     H28928   6.933   8.901   3.421  0.9733  1.5944  1.7475
  977MOL0     H28929   6.689   8.967   3.440 -0.7436 -0.5687 -0.5446
  977MOL0     H28930   6.422   8.743   3.705 -0.4194  1.3957  0.8997
  977MOL0     H28931   6.393   8.683   3.542  0.6991 -0.0574 -0.5227
  977MOL0     H28932   6.241   8.913   3.680 -2.1367 -0.6666  0.9469
  977MOL0     H28933   6.196   8.760   3.603 -0.3687  0.4559 -1.8483
  977MOL0     H28934   6.303   8.877   3.395  2.6667  1.1388  1.9942
  977MOL0     H28935   6.282   9.029   3.483 -0.9257  0.7474  1.4700
  977MOL0     H28936   6.071   8.825   3.418  0.9145 -1.0992  1.9584
  977MOL0     H28937   6.037   8.967   3.522  0.1513  2.7868 -1.3787
  977MOL0     H28938   6.092   9.124   3.348  2.6404 -1.4286  0.8662
  977MOL0     H28939   5.942   9.030   3.310 -0.7333 -0.1670  0.4595
  977MOL0     H28940   6.068   8.895   3.166 -0.3831 -0.1441 -0.3025
  977MOL0     H28941   6.225   8.972   3.192  0.0349 -0.4736 -3.8219
  977MOL0     H28942   6.110   9.186   3.097 -4.8450  1.8478 -0.6897
  977MOL0     H28943   6.141   9.049   2.995  1.2602 -0.2597  1.1872
  977MOL0     H28944   5.860   9.122   3.094 -1.7931  1.2677 -2.0071
  977MOL0     H28945   5.903   8.966   3.016  1.2431 -0.4938  3.1663
  977MOL0     H28946   6.594   8.639   3.686  0.2065 -1.8165 -0.4355
  977MOL0     H28947   6.826   8.554   3.660 -0.3027  0.1807 -0.3474
  977MOL0     H28948   7.281   8.741   3.562  0.6787  1.5190 -1.4375
  977MOL0     H28949   7.510   8.702   3.562  1.7649  0.0066 -2.7129
  977MOL0     H28950   7.853   8.327   4.097  1.0508 -0.4319 -0.4003
  977MOL0     H28951   7.629   8.357   4.230 -0.1576 -0.5516  0.5433
  977MOL0     H28952   7.109   8.662   4.153  0.9170  0.5918  0.2644
  977MOL0     H28953   6.933   8.660   4.305 -1.0459 -0.8836  0.5020
  977MOL0     H28954   7.078   8.598   4.632 -0.9028 -1.6292  1.5738
  977MOL0     H28955   6.930   8.595   4.720  0.0590  2.1805  0.9185
  977MOL0     H28956   7.001   8.828   4.654  1.1141 -0.8865  1.5939
  977MOL0     H28957   6.957   8.783   4.488 -2.4257 -0.5986  0.2049
  977MOL0     H28958   6.774   8.782   4.729 -1.2279  0.8611 -0.3521
  977MOL0     H28959   6.740   8.714   4.570  0.4792 -2.7756  2.3835
  977MOL0     H28960   6.843   8.999   4.605  1.0747 -0.3613  0.1404
  977MOL0     H28961   6.768   8.929   4.455 -2.7491  2.1997 -0.1202
  977MOL0     H28962   6.406   8.978   4.614 -0.0973 -0.7753  2.2117
  977MOL0     H28963   7.118   8.325   4.509  0.9340 -0.3896  0.0143
  977MOL0     H28964   7.289   8.314   4.339  0.0543  0.0328  0.1207
  978MOL0     O28965   1.185  11.124   9.623  0.4160 -0.6117  1.1156
  978MOL0     C28966   1.163  11.013   9.572 -0.8689 -0.5370  0.3338
  978MOL0     O28967   1.039  10.947   9.572  0.0672  0.2083  0.6554
  978MOL0     C28968   0.924  11.001   9.609  0.6012 -0.8961 -0.3017
  978MOL0     C28969   0.834  10.919   9.684  0.0337  0.2724 -0.9218
  978MOL0     C28970   0.718  10.968   9.740 -0.2366  0.3380 -0.6143
  978MOL0     C28971   0.680  11.101   9.711  0.5326 -1.0767  0.3402
  978MOL0     O28972   0.567  11.137   9.762  0.1355  0.4548 -0.5004
  978MOL0     C28973   0.512  11.276   9.737  0.2833  1.4928  0.1303
  978MOL0     C28974   0.570  11.379   9.830  0.2899 -0.1878  0.3154
  978MOL0     C28975   0.556  11.343   9.973 -0.1804  0.4881  0.1513
  978MOL0     C28976   0.407  11.337  10.020  0.0509 -0.3620 -0.2467
  978MOL0     C28977   0.319  11.459  10.020  0.1404 -0.3912 -1.0945
  978MOL0     C28978   0.198  11.454  10.121 -0.1886  0.4114  0.3585
  978MOL0     C28979   0.111  11.568  10.100 -0.7353  0.5884  0.3779
  978MOL0     C28980   0.012  11.591  10.212  0.5720 -0.3910  0.0100
  978MOL0     N28981  -0.064  11.468  10.255  0.2871  0.0221 -0.0629
  978MOL0     C28982  -0.025  11.363  10.336  0.5470 -0.6642 -0.1100
  978MOL0     C28983  -0.120  11.271  10.336 -0.0809  0.4771  0.2137
  978MOL0     C28984  -0.127  11.163  10.441  0.1480 -0.4869 -0.3949
  978MOL0     C28985  -0.105  11.020  10.392 -0.3423 -0.1919  0.1762
  978MOL0     C28986  -0.223  10.964  10.310  0.7763 -0.4116 -0.1498
  978MOL0     C28987  -0.354  10.944  10.396 -0.3282  0.1116 -0.2561
  978MOL0     O28988  -0.453  10.883  10.315 -0.0774  0.4465 -0.0995
  978MOL0     C28989  -0.532  10.953  10.231 -0.8604 -0.0803 -0.1392
  978MOL0     C28990  -0.518  11.095  10.216  0.5922  0.3228  0.1529
  978MOL0     C28991  -0.607  11.170  10.136  0.8639 -0.0425  0.1208
  978MOL0     C28992  -0.710  11.103  10.072  0.2600 -0.2670  1.4682
  978MOL0     C28993  -0.798  11.177   9.983 -0.0607 -0.6116  0.4426
  978MOL0     O28994  -0.807  11.315  10.006 -0.0077 -0.5254 -0.7991
  978MOL0     C28995  -0.879  11.400   9.924  0.4020  0.8415 -0.5138
  978MOL0     C28996  -0.943  11.508   9.987  0.0184  0.2231 -0.5126
  978MOL0     C28997  -1.026  11.602   9.925  0.3453 -0.5683  0.2690
  978MOL0     C28998  -1.058  11.574   9.794 -0.5453  0.2335  0.3535
  978MOL0     O28999  -1.157  11.643   9.737  0.0256  0.1359  0.1645
  978MOL0     C29000  -1.282  11.580   9.724 -0.4047  0.0440 -1.0468
  978MOL0     C29001  -1.397  11.640   9.808 -0.6166 -0.8095 -1.5973
  978MOL0     C29002  -1.511  11.544   9.821  0.4060  0.0905  0.0729
  978MOL0     C29003  -1.642  11.611   9.859  0.3131  0.4127  0.3757
  978MOL0     C29004  -1.755  11.508   9.855 -0.0462  0.5663 -0.0433
  978MOL0     C29005  -1.887  11.582   9.892  0.7508 -0.0185 -0.4193
  978MOL0     C29006  -2.020  11.504   9.922  0.2145  0.6459 -0.4433
  978MOL0     C29007  -2.127  11.607   9.974 -0.1208 -1.2866 -0.3806
  978MOL0    Cl29008  -2.295  11.541   9.984 -0.1800  0.1381 -0.2033
  978MOL0     C29009  -0.984  11.475   9.716 -0.2243  0.1391  0.4516
  978MOL0     C29010  -0.900  11.388   9.784  0.4631 -0.2644 -0.4313
  978MOL0     O29011  -0.867  11.120   9.900 -0.4670  0.2037 -0.2302
  978MOL0     C29012  -0.719  10.967  10.071 -0.1319 -0.8708  0.5663
  978MOL0     C29013  -0.627  10.897  10.159  0.2037 -0.7789  0.1377
  978MOL0     N29014  -0.231  11.324  10.274  0.1266 -0.1177 -0.4855
  978MOL0     N29015  -0.190  11.432  10.222 -0.3392  0.0115 -0.4701
  978MOL0     C29016   0.767  11.188   9.638 -0.0617  0.2067 -0.7540
  978MOL0     C29017   0.891  11.135   9.588  0.0386 -0.5240 -0.5132
  978MOL0     C29018   1.278  10.941   9.513 -0.1122 -0.9986 -0.4746
  978MOL0     C29019   1.257  10.830   9.430  0.5608 -1.2935 -0.2760
  978MOL0     C29020   1.361  10.755   9.376  0.1051  0.1167  0.1519
  978MOL0     C29021   1.491  10.785   9.413 -0.2061 -0.0537 -0.0794
  978MOL0     O29022   1.606  10.724   9.382 -0.9101 -0.5816 -0.5685
  978MOL0     C29023   1.602  10.614   9.290 -0.8296  0.0443  0.0324
  978MOL0     C29024   1.611  10.666   9.153 -0.0675  0.1708 -0.2090
  978MOL0     C29025   1.735  10.766   9.130  0.1636 -0.2579 -0.2107
  978MOL0     C29026   1.722  10.840   8.996 -0.7762 -0.2191  1.3239
  978MOL0     C29027   1.744  10.734   8.890 -0.0177 -0.1673 -0.6864
  978MOL0     C29028   1.779  10.661   8.803  0.8969  0.5482  0.4382
  978MOL0     C29029   1.509  10.886   9.510 -0.3126  0.3061  0.0296
  978MOL0     C29030   1.406  10.967   9.562 -0.0603 -0.1428  0.1702
  978MOL0     H29031   0.874  10.823   9.713 -1.3724 -0.0767 -0.0150
  978MOL0     H29032   0.675  10.895   9.809  0.7772 -1.8063 -2.1256
  978MOL0     H29033   0.403  11.268   9.745  0.2943 -0.0866 -0.8426
  978MOL0     H29034   0.521  11.290   9.629  0.1169 -1.3108 -0.3141
  978MOL0     H29035   0.514  11.471   9.810 -1.5907 -0.6022  3.0635
  978MOL0     H29036   0.677  11.396   9.814  0.1398  1.2777  0.7298
  978MOL0     H29037   0.602  11.419  10.036 -1.0535  0.0808  1.3128
  978MOL0     H29038   0.594  11.242   9.991 -2.7809 -0.9913 -1.8682
  978MOL0     H29039   0.357  11.250   9.978 -0.3784  0.2485 -1.0221
  978MOL0     H29040   0.412  11.299  10.122 -2.9693 -0.8060 -0.1829
  978MOL0     H29041   0.274  11.461   9.920  0.6705 -0.9722 -1.3537
  978MOL0     H29042   0.375  11.553  10.028 -1.1771  0.4055 -0.9704
  978MOL0     H29043   0.234  11.453  10.224  5.0144 -0.0387 -1.1776
  978MOL0     H29044   0.146  11.363  10.090  0.0365  1.0649 -2.1552
  978MOL0     H29045   0.172  11.657  10.080 -0.6977  0.6512  0.7678
  978MOL0     H29046   0.037  11.551  10.021 -0.1555 -0.2804  0.0151
  978MOL0     H29047  -0.061  11.666  10.181  0.3538  0.2553  1.9210
  978MOL0     H29048   0.064  11.642  10.294  3.2763  1.0391 -2.4102
  978MOL0     H29049   0.072  11.365  10.385 -0.1287  1.3599  1.3258
  978MOL0     H29050  -0.217  11.172  10.503 -1.7876 -3.1849 -2.5564
  978MOL0     H29051  -0.058  11.185  10.523 -0.0995 -1.2641  0.0292
  978MOL0     H29052  -0.084  10.950  10.473  0.2856 -0.1553  0.0531
  978MOL0     H29053  -0.011  11.015  10.336 -0.6504  1.0447 -0.4866
  978MOL0     H29054  -0.242  11.041  10.235 -0.0658  0.8805  1.3348
  978MOL0     H29055  -0.190  10.875  10.255  1.2963 -0.2724 -0.0700
  978MOL0     H29056  -0.388  11.032  10.451 -1.6662 -0.0435 -0.8026
  978MOL0     H29057  -0.330  10.873  10.476 -1.1983  0.7230  0.5648
  978MOL0     H29058  -0.438  11.153  10.260  1.8687 -1.5443  0.4396
  978MOL0     H29059  -0.578  11.274  10.148  5.1338 -1.2081  1.7074
  978MOL0     H29060  -0.909  11.519  10.090 -1.6732  0.2089  0.0780
  978MOL0     H29061  -1.079  11.681   9.978 -0.5718 -0.9523 -0.0513
  978MOL0     H29062  -1.273  11.474   9.749  2.4167 -0.2114 -2.7784
  978MOL0     H29063  -1.318  11.585   9.621 -1.7160 -0.0549 -0.6119
  978MOL0     H29064  -1.440  11.725   9.755 -0.0112  1.0655  0.7564
  978MOL0     H29065  -1.365  11.682   9.904 -0.0880 -0.8085 -1.7756
  978MOL0     H29066  -1.490  11.465   9.893 -2.4069 -1.3495 -0.5416
  978MOL0     H29067  -1.522  11.503   9.720  5.4720 -3.3252  0.5564
  978MOL0     H29068  -1.626  11.655   9.958  0.9352 -0.4278  0.6664
  978MOL0     H29069  -1.656  11.693   9.787  0.4441 -1.1730 -1.5674
  978MOL0     H29070  -1.726  11.428   9.924  0.5647  1.0455  0.2615
  978MOL0     H29071  -1.768  11.460   9.758  0.6341  1.3372 -0.5252
  978MOL0     H29072  -1.905  11.641   9.801  1.5918 -0.9133 -1.1829
  978MOL0     H29073  -1.863  11.649   9.975  1.8042  0.0363 -0.7640
  978MOL0     H29074  -2.049  11.444   9.835  0.9626 -1.0267  0.4295
  978MOL0     H29075  -1.998  11.442  10.008  2.2720  2.4496  0.4202
  978MOL0     H29076  -2.126  11.707   9.930 -0.0124  0.3512  3.0479
  978MOL0     H29077  -2.123  11.629  10.081  0.2223  0.7292 -0.7579
  978MOL0     H29078  -0.996  11.469   9.609  0.6763  1.8013  0.2210
  978MOL0     H29079  -0.840  11.310   9.739  2.3156  1.7538 -1.6305
  978MOL0     H29080  -0.799  10.919  10.015 -0.6258  0.9880 -0.3905
  978MOL0     H29081  -0.648  10.791  10.162 -0.3131 -0.6840  0.0412
  978MOL0     H29082   0.751  11.291   9.609 -0.2709 -0.2496 -2.3079
  978MOL0     H29083   0.939  11.206   9.522 -0.7145 -0.3704 -0.9104
  978MOL0     H29084   1.157  10.792   9.410  0.7330 -3.1574  1.9921
  978MOL0     H29085   1.323  10.679   9.310 -0.2328  1.9259 -1.8537
  978MOL0     H29086   1.508  10.560   9.306 -0.4156 -1.3198 -1.8893
  978MOL0     H29087   1.688  10.551   9.314 -0.7150 -0.7889 -2.3379
  978MOL0     H29088   1.604  10.587   9.078  2.7777 -0.1763 -0.1970
  978MOL0     H29089   1.524  10.733   9.147 -0.0212  0.0826 -2.4663
  978MOL0     H29090   1.828  10.709   9.120  0.6397  0.7229 -1.6636
  978MOL0     H29091   1.753  10.842   9.207 -0.1260  1.1401 -1.5028
  978MOL0     H29092   1.632  10.899   8.976  0.7705  2.1591  1.0016
  978MOL0     H29093   1.800  10.917   9.002  0.8879 -1.7924  0.7011
  978MOL0     H29094   1.808  10.600   8.720  0.0959  0.0209  0.5431
  978MOL0     H29095   1.613  10.896   9.540 -0.2150  0.1114 -0.2346
  978MOL0     H29096   1.429  11.030   9.647  2.7612  0.5439 -0.9905
  979MOL0     O29097   4.590   9.008   8.623 -1.1876  0.7606  0.2088
  979MOL0     C29098   4.647   9.030   8.513 -0.0928 -0.7144 -0.4528
  979MOL0     O29099   4.578   9.060   8.399  0.3671  0.6798  0.3370
  979MOL0     C29100   4.443   9.033   8.387 -1.1542  1.4584 -0.0977
  979MOL0     C29101   4.368   9.107   8.298 -0.5859  0.7866 -0.7850
  979MOL0     C29102   4.226   9.081   8.282  0.2161  0.0437 -0.3756
  979MOL0     C29103   4.164   8.970   8.339 -1.0870  0.0899  0.5677
  979MOL0     O29104   4.027   8.950   8.322  0.6245  0.5114 -0.3342
  979MOL0     C29105   3.971   8.825   8.381 -0.8042  0.3891  0.3029
  979MOL0     C29106   3.813   8.821   8.350 -1.4249 -0.6540 -0.0961
  979MOL0     C29107   3.753   8.687   8.398 -0.7925 -0.8298  0.2010
  979MOL0     C29108   3.614   8.667   8.342 -0.2663 -1.4082 -0.7680
  979MOL0     C29109   3.605   8.526   8.301 -0.1573  0.3656  0.6858
  979MOL0     C29110   3.633   8.433   8.408 -0.3938 -0.2253 -0.6138
  979MOL0     C29111   3.600   8.293   8.369 -1.0652  0.8018  0.0083
  979MOL0     C29112   3.709   8.225   8.293 -1.0266  0.0245 -0.0493
  979MOL0     N29113   3.712   8.086   8.278  0.2761  0.8960 -0.5652
  979MOL0     C29114   3.661   8.000   8.375  0.3811 -0.1017 -0.0230
  979MOL0     C29115   3.687   7.875   8.324 -0.7727  0.0500 -0.1144
  979MOL0     C29116   3.642   7.750   8.383  0.4199 -0.0794 -0.4320
  979MOL0     C29117   3.492   7.757   8.396  0.3874 -0.6912 -0.0127
  979MOL0     C29118   3.438   7.640   8.471 -0.9674 -0.1755  0.7392
  979MOL0     C29119   3.287   7.643   8.488 -1.3218 -0.7256  0.6506
  979MOL0     O29120   3.245   7.760   8.561 -0.6942  0.1550  1.1064
  979MOL0     C29121   3.131   7.753   8.629  0.4305 -0.2126  0.2275
  979MOL0     C29122   3.123   7.854   8.723  0.3988 -0.2752 -0.8192
  979MOL0     C29123   3.011   7.866   8.802  0.0750 -0.1226 -0.1899
  979MOL0     C29124   2.910   7.767   8.789  0.7543 -0.6959 -0.1136
  979MOL0     C29125   2.807   7.778   8.893  0.3876  0.6575  0.8712
  979MOL0     O29126   2.699   7.715   8.858 -0.8235  0.6262 -0.3523
  979MOL0     C29127   2.604   7.707   8.959 -1.1858 -0.7001  0.2230
  979MOL0     C29128   2.590   7.599   9.041 -0.1174  0.3253 -0.4694
  979MOL0     C29129   2.484   7.584   9.128  0.5093  0.5596  0.1519
  979MOL0     C29130   2.389   7.690   9.135 -0.3747  0.2511 -0.0619
  979MOL0     O29131   2.287   7.663   9.211  0.0990  0.0022 -1.3263
  979MOL0     C29132   2.208   7.774   9.263  0.7562  0.0090 -0.1720
  979MOL0     C29133   2.155   7.727   9.394 -0.8694  0.4505 -1.0234
  979MOL0     C29134   2.061   7.820   9.479 -0.4061  0.4618  0.4336
  979MOL0     C29135   1.950   7.888   9.391  0.2043  0.2551  0.4227
  979MOL0     C29136   1.832   7.786   9.361 -0.0401 -0.5869  0.1818
  979MOL0     C29137   1.694   7.865   9.353 -0.9212  0.4626 -0.0946
  979MOL0     C29138   1.568   7.783   9.341 -0.0531 -0.3060 -0.6368
  979MOL0     C29139   1.452   7.874   9.303 -0.6249  1.1902 -0.4315
  979MOL0    Cl29140   1.305   7.783   9.310  0.6067 -0.2724  0.0074
  979MOL0     C29141   2.408   7.803   9.054  0.5498 -0.2386 -0.8414
  979MOL0     C29142   2.513   7.814   8.966  0.6659  0.0094  0.4760
  979MOL0     O29143   2.833   7.826   9.003  0.8741  0.0977 -0.4707
  979MOL0     C29144   2.930   7.664   8.699  0.5485  0.2381  0.0038
  979MOL0     C29145   3.043   7.648   8.616 -0.6989 -0.4024  0.2066
  979MOL0     N29146   3.753   7.890   8.198  0.0744 -1.4112 -0.1799
  979MOL0     N29147   3.762   8.019   8.177 -0.2552 -0.1508  0.6023
  979MOL0     C29148   4.256   8.885   8.404  0.6458  0.1892 -0.2010
  979MOL0     C29149   4.386   8.916   8.439  0.4735 -0.1047  0.4267
  979MOL0     C29150   4.793   9.024   8.500  0.4036 -0.3192  0.5966
  979MOL0     C29151   4.855   9.071   8.379 -0.6202 -0.2394  0.5585
  979MOL0     C29152   4.991   9.057   8.371  1.3331  0.6516  0.0834
  979MOL0     C29153   5.061   8.972   8.465  0.4259  0.0323 -0.5954
  979MOL0     O29154   5.199   8.946   8.460  0.2284 -0.0683 -0.0779
  979MOL0     C29155   5.274   8.966   8.334  1.0599 -0.1846 -0.0820
  979MOL0     C29156   5.413   8.941   8.340  0.4972 -0.2231 -0.4856
  979MOL0     C29157   5.472   8.914   8.201 -0.0940  0.4159  0.1110
  979MOL0     C29158   5.619   8.862   8.207  0.4673  0.2832 -0.8350
  979MOL0     C29159   5.710   8.947   8.280  0.2181  1.0166  0.2890
  979MOL0     C29160   5.765   9.029   8.342  0.0955  1.1870 -0.7938
  979MOL0     C29161   4.994   8.927   8.581  0.9238  0.0580  0.8314
  979MOL0     C29162   4.860   8.962   8.599 -0.1725  0.7200 -0.2346
  979MOL0     H29163   4.412   9.190   8.243 -1.3033  0.1615 -2.3715
  979MOL0     H29164   4.162   9.152   8.231 -1.8697  1.1678  3.4564
  979MOL0     H29165   3.989   8.814   8.488 -1.1388 -3.4517  0.0875
  979MOL0     H29166   4.027   8.737   8.348  0.1542  0.3517  1.9061
  979MOL0     H29167   3.795   8.831   8.242  0.7088  0.1482 -0.4181
  979MOL0     H29168   3.759   8.906   8.391 -1.5611  1.0541 -3.4356
  979MOL0     H29169   3.776   8.679   8.504  0.5461  3.2553  0.4148
  979MOL0     H29170   3.813   8.619   8.336 -2.2891 -0.5898 -1.6029
  979MOL0     H29171   3.534   8.695   8.412  1.1621  2.5290 -0.4386
  979MOL0     H29172   3.599   8.731   8.255  0.0597 -0.6842 -0.3057
  979MOL0     H29173   3.670   8.494   8.219 -1.3040  2.7687 -1.2644
  979MOL0     H29174   3.507   8.511   8.256 -0.1933 -1.1825  1.2180
  979MOL0     H29175   3.562   8.456   8.487 -0.1407 -0.5457 -0.2926
  979MOL0     H29176   3.737   8.436   8.443 -1.1804  3.2861  1.9103
  979MOL0     H29177   3.591   8.239   8.464 -1.4208  0.7850 -0.0337
  979MOL0     H29178   3.503   8.294   8.318 -0.0139 -2.2317 -2.4059
  979MOL0     H29179   3.808   8.256   8.329 -1.3175  1.7427 -0.6135
  979MOL0     H29180   3.703   8.260   8.190  0.0160 -1.0447 -0.4959
  979MOL0     H29181   3.599   8.023   8.461 -0.4602 -0.9712 -0.3821
  979MOL0     H29182   3.697   7.724   8.474 -0.8639  1.1519  0.7384
  979MOL0     H29183   3.662   7.669   8.312  0.9088  0.6683 -1.1635
  979MOL0     H29184   3.443   7.759   8.299  0.3215  1.5297  0.0118
  979MOL0     H29185   3.445   7.845   8.441  1.6408 -0.7670  1.5495
  979MOL0     H29186   3.460   7.546   8.419 -0.3272 -0.9416  2.3344
  979MOL0     H29187   3.488   7.643   8.568  1.2133  2.5563 -0.3432
  979MOL0     H29188   3.257   7.546   8.527 -1.1877 -0.2093  2.1135
  979MOL0     H29189   3.249   7.650   8.386  1.4397 -3.5886 -0.7449
  979MOL0     H29190   3.196   7.930   8.745 -1.1634  0.7461  1.1289
  979MOL0     H29191   3.015   7.946   8.875 -1.0966 -0.5016  0.3058
  979MOL0     H29192   2.671   7.526   9.042  0.6879  1.1850 -0.6499
  979MOL0     H29193   2.458   7.494   9.182  0.0434  1.3648  1.3397
  979MOL0     H29194   2.119   7.787   9.200 -1.0705 -1.8176  1.8395
  979MOL0     H29195   2.260   7.870   9.266 -0.1408  0.4704  1.7016
  979MOL0     H29196   2.236   7.684   9.453 -3.1630 -0.3895  1.7465
  979MOL0     H29197   2.087   7.643   9.377 -1.3090 -0.4144  3.6506
  979MOL0     H29198   2.117   7.898   9.529  0.7119 -1.1739  1.8505
  979MOL0     H29199   2.018   7.760   9.560  0.3649 -1.0059 -0.1975
  979MOL0     H29200   1.912   7.971   9.452  0.3280 -1.4508  2.9492
  979MOL0     H29201   1.979   7.925   9.292 -1.1908  3.9753  1.2163
  979MOL0     H29202   1.816   7.710   9.438 -0.1901  1.3694  2.1668
  979MOL0     H29203   1.854   7.729   9.270 -1.6958 -2.7771  1.0650
  979MOL0     H29204   1.695   7.949   9.283  0.0782  0.4589 -0.0931
  979MOL0     H29205   1.685   7.908   9.453 -0.6834 -0.6897  0.4432
  979MOL0     H29206   1.580   7.711   9.260 -0.7760 -1.8135  0.5579
  979MOL0     H29207   1.547   7.740   9.439 -0.1795  1.4076  0.1185
  979MOL0     H29208   1.462   7.924   9.206 -2.1271  1.7861 -0.3035
  979MOL0     H29209   1.448   7.944   9.387  1.7858 -1.1490  1.8055
  979MOL0     H29210   2.329   7.877   9.054  1.5185  0.8343 -0.4103
  979MOL0     H29211   2.512   7.882   8.880  0.7435 -0.2145  0.2971
  979MOL0     H29212   2.845   7.596   8.697  0.9003 -0.1882 -0.8500
  979MOL0     H29213   3.036   7.563   8.548  0.4329 -2.2280  2.2342
  979MOL0     H29214   4.230   8.791   8.451  0.7299  0.7913  1.1056
  979MOL0     H29215   4.447   8.855   8.505  1.5678 -1.7552 -1.9215
  979MOL0     H29216   4.814   9.119   8.291  1.1439 -2.1268 -1.4172
  979MOL0     H29217   5.029   9.093   8.276 -2.2638  1.6295 -1.1118
  979MOL0     H29218   5.249   9.067   8.300  2.0606  0.2629  0.4610
  979MOL0     H29219   5.226   8.903   8.259  1.7165  0.1907 -0.8307
  979MOL0     H29220   5.455   9.035   8.377  0.8682 -0.8642  0.7530
  979MOL0     H29221   5.431   8.862   8.413 -2.9889  0.2239  1.0775
  979MOL0     H29222   5.453   9.001   8.139  0.7553  2.7438  2.9148
  979MOL0     H29223   5.425   8.825   8.156 -0.9391  0.7885  0.2336
  979MOL0     H29224   5.627   8.762   8.251  0.2939  1.1610  1.3327
  979MOL0     H29225   5.651   8.860   8.102 -0.3600  2.6367 -1.1863
  979MOL0     H29226   5.826   9.108   8.380  0.7339  1.0547 -1.5111
  979MOL0     H29227   5.046   8.870   8.658 -0.2151 -2.1272  0.0644
  979MOL0     H29228   4.817   8.938   8.695 -1.8874 -0.1378 -1.1664
  980MOL0     O29229   7.045   5.456   4.562 -0.3350 -0.2349  0.2901
  980MOL0     C29230   7.104   5.366   4.625 -0.4431  0.2448 -0.5490
  980MOL0     O29231   7.042   5.290   4.726  0.7216  0.2084  0.1267
  980MOL0     C29232   6.914   5.315   4.775 -0.3927  0.3643 -0.6276
  980MOL0     C29233   6.808   5.393   4.718  0.5063 -0.0775  0.3703
  980MOL0     C29234   6.686   5.406   4.781  0.2825  1.4399  0.1306
  980MOL0     C29235   6.657   5.333   4.898  0.8620  0.5350 -0.1369
  980MOL0     O29236   6.544   5.371   4.966 -0.3592 -0.0700  0.1545
  980MOL0     C29237   6.554   5.412   5.102 -0.3319 -0.0182  0.0650
  980MOL0     C29238   6.418   5.428   5.162  1.2151  0.6401 -0.5695
  980MOL0     C29239   6.416   5.445   5.316 -0.5291  0.1510  0.0206
  980MOL0     C29240   6.278   5.443   5.386  0.4250 -0.1534 -0.2877
  980MOL0     C29241   6.287   5.463   5.542  0.9876 -0.3950 -0.1977
  980MOL0     C29242   6.152   5.433   5.620  0.4433  0.9738  0.3561
  980MOL0     C29243   6.040   5.533   5.600 -1.2809 -0.2683  0.5760
  980MOL0     C29244   5.900   5.501   5.648  0.4077 -0.4617  0.9315
  980MOL0     N29245   5.827   5.394   5.570 -0.1622  0.2765 -0.5864
  980MOL0     C29246   5.726   5.318   5.630 -1.2166 -0.3079  0.5827
  980MOL0     C29247   5.649   5.274   5.520 -0.2228 -0.7831 -0.3140
  980MOL0     C29248   5.533   5.185   5.521  0.1832  0.2504 -0.0855
  980MOL0     C29249   5.406   5.238   5.592 -0.4150  0.8012 -0.4626
  980MOL0     C29250   5.308   5.118   5.629  0.3721  0.2920 -0.8334
  980MOL0     C29251   5.162   5.166   5.630 -0.0189 -0.2293 -0.0319
  980MOL0     O29252   5.160   5.294   5.694  0.6385  0.1820  0.3151
  980MOL0     C29253   5.042   5.355   5.723 -0.8510  0.2533  0.3127
  980MOL0     C29254   5.041   5.473   5.792 -0.5312  0.3412 -0.0020
  980MOL0     C29255   4.923   5.526   5.849 -0.1753 -0.6957 -0.0493
  980MOL0     C29256   4.812   5.454   5.823  0.4389  0.6471 -0.1703
  980MOL0     C29257   4.680   5.501   5.867 -0.7584 -0.3340 -0.4109
  980MOL0     O29258   4.580   5.401   5.878 -0.9231  1.3188  0.5552
  980MOL0     C29259   4.461   5.427   5.934  0.4602  0.4547 -0.2850
  980MOL0     C29260   4.379   5.535   5.887 -0.1856  0.2957 -0.3034
  980MOL0     C29261   4.249   5.550   5.938  0.8456  0.4423 -0.9956
  980MOL0     C29262   4.205   5.477   6.046 -0.4348 -0.0705 -0.9181
  980MOL0     O29263   4.076   5.501   6.095 -0.0376  0.7798 -0.8441
  980MOL0     C29264   4.091   5.532   6.238  0.0488  0.2391  0.5226
  980MOL0     C29265   3.965   5.562   6.314  0.4925 -0.0873 -0.8913
  980MOL0     C29266   3.842   5.483   6.275 -0.1960 -0.4046 -1.0734
  980MOL0     C29267   3.733   5.476   6.384 -0.1229 -0.0397 -0.0655
  980MOL0     C29268   3.619   5.381   6.340 -0.7677  0.0717  0.5343
  980MOL0     C29269   3.487   5.402   6.410  0.6919 -0.5959  0.4661
  980MOL0     C29270   3.370   5.326   6.340 -0.1642  0.6523 -0.2147
  980MOL0     C29271   3.381   5.177   6.352  0.0725 -0.5273  0.3026
  980MOL0    Cl29272   3.224   5.109   6.386  0.1700 -0.4296 -0.2204
  980MOL0     C29273   4.283   5.373   6.091 -0.8020 -0.0429  0.1674
  980MOL0     C29274   4.421   5.345   6.044 -0.3719  0.0569  1.1931
  980MOL0     O29275   4.664   5.616   5.898 -0.6865  0.5348 -0.0274
  980MOL0     C29276   4.814   5.337   5.748 -0.7278 -0.2870 -0.0035
  980MOL0     C29277   4.928   5.278   5.704 -0.0773  0.2393 -0.0864
  980MOL0     N29278   5.680   5.338   5.408 -0.4390 -0.3432 -0.2270
  980MOL0     N29279   5.785   5.411   5.435 -0.2513 -0.1081  0.4564
  980MOL0     C29280   6.757   5.267   4.955  0.5643 -0.3606 -0.3758
  980MOL0     C29281   6.881   5.249   4.898  0.1455 -0.3906 -0.2004
  980MOL0     C29282   7.242   5.344   4.583  0.0655  1.4601 -0.5056
  980MOL0     C29283   7.317   5.440   4.504  0.4018 -0.9591  0.1709
  980MOL0     C29284   7.448   5.420   4.463 -0.2826  0.1132 -0.7914
  980MOL0     C29285   7.503   5.291   4.485 -0.4421 -0.3877  0.1310
  980MOL0     O29286   7.624   5.266   4.421  0.8979  0.5419 -0.2717
  980MOL0     C29287   7.691   5.145   4.428  0.5814 -0.6222 -0.7428
  980MOL0     C29288   7.775   5.124   4.555 -0.8603 -0.2209 -0.5418
  980MOL0     C29289   7.897   5.228   4.561 -0.2733  0.4636  0.2568
  980MOL0     C29290   7.944   5.261   4.702 -0.1432 -1.4692 -0.2750
  980MOL0     C29291   8.035   5.156   4.761  0.3777  0.1724 -0.4051
  980MOL0     C29292   8.093   5.066   4.812  0.3584 -0.9000  0.9212
  980MOL0     C29293   7.430   5.197   4.552 -0.3134 -0.0808  1.1028
  980MOL0     C29294   7.304   5.216   4.604 -0.3071  0.2056 -0.1259
  980MOL0     H29295   6.835   5.440   4.623 -0.0166 -0.3211  0.0941
  980MOL0     H29296   6.607   5.450   4.721  0.8818 -0.6914 -2.4005
  980MOL0     H29297   6.592   5.515   5.101  2.7573 -1.0023  1.8765
  980MOL0     H29298   6.609   5.340   5.163 -0.4140 -0.2975 -0.1896
  980MOL0     H29299   6.363   5.336   5.141  1.8394  0.5085 -1.7437
  980MOL0     H29300   6.368   5.517   5.122 -1.4611 -0.1664  0.7711
  980MOL0     H29301   6.479   5.529   5.346 -0.7008 -0.1025  1.1065
  980MOL0     H29302   6.459   5.356   5.362  0.7101  1.2668  1.1034
  980MOL0     H29303   6.217   5.522   5.343  0.9222 -0.1212 -0.9577
  980MOL0     H29304   6.235   5.345   5.366 -1.2120  0.2806  0.8795
  980MOL0     H29305   6.325   5.563   5.564  0.4505 -0.3704  0.6770
  980MOL0     H29306   6.358   5.384   5.568 -0.8617 -1.2058  2.8927
  980MOL0     H29307   6.165   5.427   5.728 -0.6921 -0.0854  0.4639
  980MOL0     H29308   6.121   5.332   5.593 -1.0354  0.1709  4.3580
  980MOL0     H29309   6.067   5.633   5.637  0.2315 -0.7656  0.8892
  980MOL0     H29310   6.034   5.541   5.491  1.0967 -1.8376  0.2562
  980MOL0     H29311   5.834   5.587   5.636 -0.8611 -1.5323  0.0570
  980MOL0     H29312   5.906   5.467   5.752 -0.1971 -2.0942  0.4744
  980MOL0     H29313   5.720   5.286   5.733  0.5350 -2.5536  0.0854
  980MOL0     H29314   5.572   5.096   5.572  4.1112  0.7337 -1.8522
  980MOL0     H29315   5.512   5.166   5.416  0.0603  0.6869 -0.1412
  980MOL0     H29316   5.362   5.302   5.515  1.0246  0.0613 -1.9714
  980MOL0     H29317   5.430   5.293   5.683 -1.1255  1.3062 -0.5696
  980MOL0     H29318   5.320   5.025   5.572 -2.8319 -1.9561  1.6998
  980MOL0     H29319   5.341   5.074   5.724  1.5140 -0.6988 -1.6552
  980MOL0     H29320   5.107   5.092   5.689  1.5589 -1.5280 -0.1109
  980MOL0     H29321   5.126   5.163   5.526  1.0192  2.4878 -0.5388
  980MOL0     H29322   5.142   5.511   5.802 -0.2082 -0.7313  0.9989
  980MOL0     H29323   4.914   5.610   5.917  2.7590 -0.8555  0.7029
  980MOL0     H29324   4.416   5.593   5.803  0.3153  2.4468  1.3272
  980MOL0     H29325   4.182   5.625   5.896  0.4039  2.2707  2.6202
  980MOL0     H29326   4.153   5.622   6.248  2.7160 -1.4269  0.0415
  980MOL0     H29327   4.139   5.446   6.286 -0.7883 -1.0294 -0.8160
  980MOL0     H29328   3.936   5.667   6.300  1.4925  0.5541  1.3116
  980MOL0     H29329   3.987   5.548   6.420 -0.4791  3.3911 -0.0942
  980MOL0     H29330   3.871   5.380   6.252 -1.8603 -2.4630  4.4204
  980MOL0     H29331   3.799   5.520   6.182  1.6436  0.5344 -1.6121
  980MOL0     H29332   3.781   5.451   6.479  1.1759 -0.8916 -0.9135
  980MOL0     H29333   3.690   5.576   6.402  2.3814  1.2368 -0.7223
  980MOL0     H29334   3.650   5.276   6.342 -2.4981 -0.5326  4.2725
  980MOL0     H29335   3.590   5.408   6.238  1.3903 -1.4216 -0.5628
  980MOL0     H29336   3.460   5.507   6.421 -1.7951 -1.2075  0.8115
  980MOL0     H29337   3.500   5.367   6.512  1.8730 -0.6836  0.3021
  980MOL0     H29338   3.275   5.365   6.378 -1.0413 -1.5418 -0.0674
  980MOL0     H29339   3.367   5.359   6.235  1.7285 -1.4772 -1.0205
  980MOL0     H29340   3.456   5.150   6.427 -0.8339 -1.1664  1.0027
  980MOL0     H29341   3.415   5.132   6.258 -3.8033  2.3259 -2.8004
  980MOL0     H29342   4.255   5.306   6.171  2.6896 -1.8264  0.0898
  980MOL0     H29343   4.481   5.265   6.086  0.8934 -0.0055 -0.6692
  980MOL0     H29344   4.722   5.282   5.731  0.8878 -3.6010  1.2007
  980MOL0     H29345   4.919   5.189   5.642  0.4464  0.3806 -0.3734
  980MOL0     H29346   6.741   5.213   5.048  0.1161 -2.5103 -1.6240
  980MOL0     H29347   6.959   5.194   4.950 -1.2114  0.5218  3.0373
  980MOL0     H29348   7.277   5.536   4.473  1.7179 -0.8211 -1.2177
  980MOL0     H29349   7.509   5.492   4.410  2.7697 -1.9447 -0.2985
  980MOL0     H29350   7.765   5.147   4.348  0.7009  2.3396 -0.6746
  980MOL0     H29351   7.616   5.066   4.415 -1.0666  0.6340  0.6274
  980MOL0     H29352   7.712   5.129   4.645  0.8864 -4.5120  1.2100
  980MOL0     H29353   7.817   5.023   4.560  2.7754  1.0752 -1.8071
  980MOL0     H29354   7.862   5.319   4.511  2.8972 -0.0625 -3.3766
  980MOL0     H29355   7.987   5.189   4.513 -0.5386  2.3171 -1.9011
  980MOL0     H29356   7.991   5.359   4.711 -2.7507 -0.3193  2.3178
  980MOL0     H29357   7.850   5.269   4.756 -0.9057 -1.4723 -1.5496
  980MOL0     H29358   8.147   4.989   4.864  0.5407  0.4949  2.9192
  980MOL0     H29359   7.477   5.099   4.556 -0.4688 -0.6330 -3.7718
  980MOL0     H29360   7.265   5.143   4.674  2.4189  0.7630  2.1578
  981MOL0     O29361   0.006   7.545   4.430  0.5141 -0.1332  0.1764
  981MOL0     C29362   0.039   7.550   4.543  0.0634 -0.0906 -0.1965
  981MOL0     O29363  -0.044   7.562   4.647 -0.4254 -0.6209  0.3576
  981MOL0     C29364  -0.178   7.546   4.632  0.0528 -0.3010 -0.0213
  981MOL0     C29365  -0.242   7.454   4.548  1.0946 -0.3672  0.5366
  981MOL0     C29366  -0.377   7.447   4.538  0.7625 -0.9749  0.0243
  981MOL0     C29367  -0.457   7.536   4.611  0.9086 -0.2842 -0.0918
  981MOL0     O29368  -0.595   7.548   4.609  0.0370 -0.2437  0.1105
  981MOL0     C29369  -0.656   7.465   4.501 -0.8170 -0.5238 -0.5732
  981MOL0     C29370  -0.804   7.478   4.504 -0.4920  0.4892 -0.5355
  981MOL0     C29371  -0.886   7.382   4.404  0.0282 -0.3586  0.1917
  981MOL0     C29372  -1.040   7.405   4.413 -0.5843  1.0980 -0.1887
  981MOL0     C29373  -1.097   7.534   4.366 -0.4326 -0.2736 -1.3390
  981MOL0     C29374  -1.248   7.519   4.378  0.6069 -0.3553  0.0794
  981MOL0     C29375  -1.311   7.632   4.300 -0.3256  0.0453  0.9446
  981MOL0     C29376  -1.283   7.774   4.358 -0.1875  0.3808  0.0930
  981MOL0     N29377  -1.357   7.875   4.280 -0.1744  0.0302 -0.3437
  981MOL0     C29378  -1.492   7.869   4.246  0.6781 -0.7378 -0.6288
  981MOL0     C29379  -1.509   7.976   4.177  0.4831  0.0387  0.0710
  981MOL0     C29380  -1.630   8.016   4.098  0.1508 -0.0827 -0.4762
  981MOL0     C29381  -1.753   8.041   4.198  0.4974  0.2347 -0.9483
  981MOL0     C29382  -1.840   7.924   4.220  0.1773  0.5335  0.3504
  981MOL0     C29383  -1.958   7.941   4.323  0.1488 -0.3177 -0.4243
  981MOL0     O29384  -2.032   8.064   4.294  0.6553  0.1692 -0.4392
  981MOL0     C29385  -2.159   8.060   4.341 -0.9158  0.1830 -0.8449
  981MOL0     C29386  -2.263   8.044   4.254  0.3655  0.1735 -0.0670
  981MOL0     C29387  -2.391   8.032   4.301  0.2221  0.3184  0.0310
  981MOL0     C29388  -2.425   8.022   4.436 -0.2040 -0.9058  0.2881
  981MOL0     C29389  -2.570   7.994   4.473 -0.2788  1.0202  0.0877
  981MOL0     O29390  -2.612   8.031   4.601 -0.0877  0.8769 -0.1359
  981MOL0     C29391  -2.743   8.028   4.615  0.0917  0.1373 -0.5753
  981MOL0     C29392  -2.795   7.941   4.710 -0.2739  0.8078  0.1350
  981MOL0     C29393  -2.933   7.922   4.745 -0.1593  0.3789 -0.1735
  981MOL0     C29394  -3.019   8.009   4.683  0.9314 -0.5342  0.3975
  981MOL0     O29395  -3.150   8.024   4.732  0.3879 -0.2455  0.6713
  981MOL0     C29396  -3.186   8.140   4.800  0.3646 -0.2379  0.5560
  981MOL0     C29397  -3.346   8.149   4.797  1.1549 -0.4142  0.6338
  981MOL0     C29398  -3.407   8.229   4.909  0.4653  0.5308 -0.6255
  981MOL0     C29399  -3.546   8.174   4.949  0.2471 -0.1490 -0.3482
  981MOL0     C29400  -3.607   8.243   5.067 -0.7394  0.2492  0.0529
  981MOL0     C29401  -3.739   8.188   5.104  0.1197 -1.3517 -0.0226
  981MOL0     C29402  -3.805   8.277   5.210 -0.4964 -1.7389 -0.5061
  981MOL0     C29403  -3.932   8.206   5.255  0.1309 -0.8647 -0.1892
  981MOL0    Cl29404  -4.048   8.306   5.357  0.4582  0.0759  0.1524
  981MOL0     C29405  -2.974   8.100   4.583 -0.2485 -0.3724 -0.0623
  981MOL0     C29406  -2.833   8.116   4.552 -0.1847  0.3355 -0.5420
  981MOL0     O29407  -2.636   7.962   4.380 -0.0471  0.6473 -0.0718
  981MOL0     C29408  -2.316   8.038   4.525  0.0476 -0.5171  0.1892
  981MOL0     C29409  -2.188   8.052   4.474  0.6200  0.2335  0.1241
  981MOL0     N29410  -1.393   8.043   4.165  0.3647 -1.0221  0.4902
  981MOL0     N29411  -1.300   7.979   4.216 -0.0320 -0.5341  0.5128
  981MOL0     C29412  -0.399   7.622   4.702 -0.5960  0.1955  0.7057
  981MOL0     C29413  -0.256   7.625   4.717 -0.0536  0.1075 -0.2994
  981MOL0     C29414   0.183   7.536   4.582 -0.7023  0.3594  0.2053
  981MOL0     C29415   0.226   7.498   4.710  0.4762  0.2278 -0.5450
  981MOL0     C29416   0.359   7.495   4.743 -0.8329  0.3959  0.4400
  981MOL0     C29417   0.467   7.518   4.646  0.8687  0.3967  0.4177
  981MOL0     O29418   0.599   7.506   4.660 -0.5638 -0.4528  0.1329
  981MOL0     C29419   0.650   7.536   4.795 -0.3929 -0.3913  0.2040
  981MOL0     C29420   0.795   7.503   4.801  0.1120  0.3548 -0.2936
  981MOL0     C29421   0.817   7.349   4.812  0.4634  0.1151  0.0236
  981MOL0     C29422   0.967   7.320   4.830  0.9838  0.3756 -0.7008
  981MOL0     C29423   1.048   7.327   4.709  0.0740 -0.2430 -0.3614
  981MOL0     C29424   1.128   7.336   4.614 -0.3593 -0.0718 -0.1212
  981MOL0     C29425   0.422   7.554   4.520 -0.2263  0.2221  1.8242
  981MOL0     C29426   0.283   7.567   4.478 -0.0681  0.4433  0.2842
  981MOL0     H29427  -0.182   7.383   4.491  5.4162  0.5637  3.4249
  981MOL0     H29428  -0.418   7.385   4.459  1.6378  1.0198 -2.1222
  981MOL0     H29429  -0.628   7.359   4.504  0.7873 -0.1393 -1.1053
  981MOL0     H29430  -0.611   7.512   4.413  1.0437 -0.4801  0.3638
  981MOL0     H29431  -0.839   7.581   4.493  1.5472  1.3885  0.8651
  981MOL0     H29432  -0.834   7.442   4.603  0.2043  0.4773 -0.3254
  981MOL0     H29433  -0.870   7.275   4.422 -2.9207 -1.0944 -1.0673
  981MOL0     H29434  -0.858   7.398   4.300 -2.0090 -2.3783 -0.7517
  981MOL0     H29435  -1.084   7.321   4.359  0.9223 -1.7363  2.6640
  981MOL0     H29436  -1.068   7.384   4.517  0.1615 -1.5430 -0.4587
  981MOL0     H29437  -1.050   7.540   4.267  3.0771 -1.1301  0.1188
  981MOL0     H29438  -1.059   7.619   4.424  3.2265 -2.0521 -0.8781
  981MOL0     H29439  -1.288   7.530   4.479  0.5611 -1.0074  0.1401
  981MOL0     H29440  -1.282   7.423   4.338  0.5300 -0.3580  0.1507
  981MOL0     H29441  -1.276   7.635   4.196  0.6318 -0.5313  1.2348
  981MOL0     H29442  -1.418   7.610   4.307 -0.4356 -0.5632 -1.4888
  981MOL0     H29443  -1.175   7.790   4.359 -0.3094  1.2687  0.0666
  981MOL0     H29444  -1.313   7.769   4.463 -1.5993  2.5105 -0.1573
  981MOL0     H29445  -1.554   7.782   4.265  0.3246 -0.8140 -2.0879
  981MOL0     H29446  -1.667   7.936   4.034  2.7092 -2.2809  0.5788
  981MOL0     H29447  -1.605   8.104   4.038 -0.0250 -1.9256 -3.4532
  981MOL0     H29448  -1.813   8.120   4.152 -1.8376 -0.8584  0.0767
  981MOL0     H29449  -1.712   8.079   4.292  0.8357 -2.3839  0.0301
  981MOL0     H29450  -1.868   7.883   4.123  1.1937  0.7380 -0.0378
  981MOL0     H29451  -1.774   7.841   4.250 -0.9432  0.6167  3.4589
  981MOL0     H29452  -1.921   7.955   4.425 -1.7965  1.9091  0.0562
  981MOL0     H29453  -2.024   7.855   4.310  0.2534 -0.2250 -1.6927
  981MOL0     H29454  -2.241   8.037   4.148 -0.5065  2.5259 -0.4625
  981MOL0     H29455  -2.479   8.036   4.239 -2.2987 -2.5788  3.0338
  981MOL0     H29456  -2.721   7.881   4.763  2.7216  2.0916 -2.2584
  981MOL0     H29457  -2.962   7.846   4.817 -1.4999 -0.4655 -1.5410
  981MOL0     H29458  -3.139   8.227   4.754  3.5452 -2.0077  0.1467
  981MOL0     H29459  -3.163   8.127   4.906  1.4380  0.7402  0.4645
  981MOL0     H29460  -3.382   8.046   4.797  1.5771 -0.6743  3.6823
  981MOL0     H29461  -3.375   8.199   4.705 -1.1846 -2.5373  0.1175
  981MOL0     H29462  -3.408   8.334   4.879 -1.9476  0.8230  0.2430
  981MOL0     H29463  -3.341   8.233   4.996  3.2818  1.5105 -2.6768
  981MOL0     H29464  -3.606   8.186   4.858  0.5396 -0.5741 -0.5996
  981MOL0     H29465  -3.543   8.066   4.961 -0.4046 -0.1239  0.1585
  981MOL0     H29466  -3.623   8.351   5.056 -0.9900  0.4236  1.8508
  981MOL0     H29467  -3.533   8.229   5.146  0.8305  0.8947 -1.2399
  981MOL0     H29468  -3.734   8.082   5.134  1.5189 -1.2631  0.1450
  981MOL0     H29469  -3.793   8.200   5.010  0.9128  5.0824 -0.0796
  981MOL0     H29470  -3.748   8.284   5.302  0.4152 -0.0942 -1.1617
  981MOL0     H29471  -3.816   8.377   5.167 -0.2694 -0.8801  1.3467
  981MOL0     H29472  -3.892   8.118   5.306  1.7602  0.3562  0.7409
  981MOL0     H29473  -3.991   8.176   5.168 -1.5961 -0.0256  0.6367
  981MOL0     H29474  -3.051   8.162   4.539 -2.0539 -1.8968  0.8018
  981MOL0     H29475  -2.803   8.197   4.486  2.2000 -1.3443 -1.6379
  981MOL0     H29476  -2.335   8.041   4.632 -1.0142  0.4324 -0.0041
  981MOL0     H29477  -2.109   8.062   4.547  0.3982 -0.2412  0.4337
  981MOL0     H29478  -0.445   7.699   4.764  0.7802  1.3672  0.3277
  981MOL0     H29479  -0.209   7.690   4.791  2.9207 -3.3285  1.1639
  981MOL0     H29480   0.158   7.486   4.794  2.0537 -1.7398  0.5440
  981MOL0     H29481   0.378   7.472   4.847  0.6431 -0.1289  0.0787
  981MOL0     H29482   0.595   7.492   4.879  1.5136  0.5168  2.0084
  981MOL0     H29483   0.629   7.642   4.810 -3.9652 -1.0358  0.8681
  981MOL0     H29484   0.852   7.535   4.713 -1.3181  0.0461 -1.3648
  981MOL0     H29485   0.836   7.545   4.893 -1.4154  0.3210  0.4295
  981MOL0     H29486   0.788   7.300   4.719 -0.1017  0.7295 -0.1326
  981MOL0     H29487   0.742   7.312   4.883 -0.8595 -0.5354 -1.6432
  981MOL0     H29488   1.008   7.376   4.914 -0.6964 -0.6949  0.9041
  981MOL0     H29489   0.982   7.217   4.865 -2.5207 -1.1784 -3.0977
  981MOL0     H29490   1.189   7.344   4.527 -0.5625 -2.4400 -0.5316
  981MOL0     H29491   0.498   7.581   4.448 -0.3884 -0.6113  1.3295
  981MOL0     H29492   0.252   7.595   4.378  1.9052  0.4934 -0.3532
  982MOL0     O29493   8.395   5.801   1.064  0.0461 -0.2720 -0.1902
  982MOL0     C29494   8.484   5.867   1.014 -1.0877 -0.1269 -0.3752
  982MOL0     O29495   8.606   5.912   1.066  0.9902  0.5950 -0.1882
  982MOL0     C29496   8.651   5.852   1.182  0.6978  0.7032  0.6387
  982MOL0     C29497   8.616   5.913   1.301 -0.0653 -0.5052 -0.1018
  982MOL0     C29498   8.678   5.869   1.426 -0.1117 -0.4719 -0.4086
  982MOL0     C29499   8.771   5.757   1.423 -0.6106 -0.2345 -0.5189
  982MOL0     O29500   8.830   5.697   1.527 -0.0350 -0.7905  0.3761
  982MOL0     C29501   8.762   5.694   1.650  0.6720  0.7052  0.7221
  982MOL0     C29502   8.666   5.576   1.634  0.4628 -0.5624 -0.0485
  982MOL0     C29503   8.572   5.573   1.764 -0.4905 -0.0100  0.2675
  982MOL0     C29504   8.489   5.446   1.765  0.0884  0.6894 -0.2097
  982MOL0     C29505   8.391   5.437   1.884  0.3473  0.6245  0.5937
  982MOL0     C29506   8.457   5.430   2.021 -0.6430  0.5159  0.0756
  982MOL0     C29507   8.362   5.411   2.138  0.1346  1.0743 -0.3687
  982MOL0     C29508   8.246   5.502   2.166  0.5609 -0.6769 -0.0528
  982MOL0     N29509   8.187   5.491   2.306 -0.0260 -0.6551  0.2925
  982MOL0     C29510   8.225   5.562   2.409 -0.5330 -0.3923 -0.9741
  982MOL0     C29511   8.140   5.522   2.506  0.3827  0.1142  0.2958
  982MOL0     C29512   8.128   5.564   2.657 -0.0116 -0.1655  0.4561
  982MOL0     C29513   8.182   5.709   2.690  0.6167  0.7359  0.2402
  982MOL0     C29514   8.191   5.722   2.845 -0.1960 -0.2312  0.2353
  982MOL0     C29515   8.193   5.863   2.884  0.3028 -0.0442  0.4918
  982MOL0     O29516   8.215   5.869   3.026 -0.1111 -0.3243 -0.5086
  982MOL0     C29517   8.128   5.945   3.104  0.1389  0.4123  0.6321
  982MOL0     C29518   7.992   5.955   3.074  0.1113  0.2211 -0.4193
  982MOL0     C29519   7.896   6.015   3.153  0.3470 -0.1436 -0.9703
  982MOL0     C29520   7.937   6.080   3.276  0.2384  0.8787  0.6802
  982MOL0     C29521   7.843   6.155   3.364 -0.5486 -0.1117  0.3527
  982MOL0     O29522   7.909   6.212   3.479  0.3074  0.2229  0.0293
  982MOL0     C29523   7.841   6.280   3.586 -0.1394  0.3385  0.2826
  982MOL0     C29524   7.908   6.388   3.652  1.2091  0.2235 -0.1469
  982MOL0     C29525   7.829   6.469   3.744 -0.4782  0.6811 -0.9631
  982MOL0     C29526   7.707   6.419   3.798 -0.2541  0.4113 -0.0179
  982MOL0     O29527   7.638   6.483   3.900 -0.3175  0.6419 -0.4123
  982MOL0     C29528   7.509   6.527   3.867 -0.6244  0.2643  0.4550
  982MOL0     C29529   7.468   6.613   3.984 -0.3200 -0.9332 -1.2506
  982MOL0     C29530   7.333   6.676   3.953  0.6337 -0.1054  0.0044
  982MOL0     C29531   7.275   6.727   4.076 -0.9606  0.1035 -0.6609
  982MOL0     C29532   7.122   6.756   4.062 -0.5685  1.5076 -0.3156
  982MOL0     C29533   7.063   6.794   4.205 -0.3855  0.2510  0.5870
  982MOL0     C29534   6.910   6.835   4.217  0.1279 -0.0632 -1.0403
  982MOL0     C29535   6.814   6.760   4.132  0.7886 -1.5713  0.6113
  982MOL0    Cl29536   6.836   6.596   4.131 -0.0203  0.2211 -0.3378
  982MOL0     C29537   7.651   6.309   3.732  0.5929  0.0006 -0.3726
  982MOL0     C29538   7.713   6.241   3.625  0.2625  0.4810  0.3896
  982MOL0     O29539   7.726   6.172   3.332 -0.4219  0.5058  0.3423
  982MOL0     C29540   8.081   6.066   3.303  0.9796 -0.0516 -0.3954
  982MOL0     C29541   8.171   6.001   3.224  0.9477 -0.2324 -0.3462
  982MOL0     N29542   8.061   5.420   2.465  1.1093 -0.1127  0.1119
  982MOL0     N29543   8.100   5.397   2.338  0.6024  0.7625  0.5001
  982MOL0     C29544   8.802   5.709   1.295  0.4017 -0.7037  0.3931
  982MOL0     C29545   8.754   5.764   1.174  0.8043  0.3973  0.5276
  982MOL0     C29546   8.473   5.871   0.875 -0.2851 -0.2122  0.0736
  982MOL0     C29547   8.356   5.829   0.799  1.1201 -0.4997 -0.0424
  982MOL0     C29548   8.351   5.834   0.659 -0.1444 -0.0846 -0.2035
  982MOL0     C29549   8.464   5.879   0.588 -0.1000  0.6016  0.3689
  982MOL0     O29550   8.464   5.867   0.450  0.0840 -0.7165 -0.1545
  982MOL0     C29551   8.576   5.917   0.376  0.2177 -0.6096 -0.2359
  982MOL0     C29552   8.548   5.908   0.221 -0.4238  0.0770 -0.0730
  982MOL0     C29553   8.492   5.765   0.181  0.2452  0.6100 -0.0134
  982MOL0     C29554   8.575   5.642   0.228  0.9522  0.7005 -0.4883
  982MOL0     C29555   8.699   5.617   0.145 -0.1579  0.2170  0.0005
  982MOL0     C29556   8.804   5.589   0.071 -0.6886  0.0789 -0.2314
  982MOL0     C29557   8.571   5.919   0.653 -1.1376 -0.8134 -0.2176
  982MOL0     C29558   8.581   5.901   0.795 -0.3565 -0.1434  0.3481
  982MOL0     H29559   8.550   5.999   1.308  0.9387  0.3577 -0.9452
  982MOL0     H29560   8.637   5.908   1.519 -0.3203 -0.8698 -0.3331
  982MOL0     H29561   8.714   5.788   1.677 -0.7308  0.0699  0.5268
  982MOL0     H29562   8.838   5.668   1.724 -0.1291  0.2918  1.4147
  982MOL0     H29563   8.713   5.478   1.621 -1.4452 -1.2726 -2.4258
  982MOL0     H29564   8.600   5.581   1.546  1.1810 -1.0691 -0.6290
  982MOL0     H29565   8.505   5.659   1.763 -1.3732 -0.6337  1.6728
  982MOL0     H29566   8.636   5.585   1.852 -3.0160  3.5150  1.8865
  982MOL0     H29567   8.434   5.460   1.671 -2.7499  0.1206  1.2525
  982MOL0     H29568   8.551   5.355   1.767 -0.3028  0.3622  3.0616
  982MOL0     H29569   8.333   5.346   1.863  0.5192  0.5380  0.4933
  982MOL0     H29570   8.322   5.521   1.897 -0.8293 -0.3622  0.8979
  982MOL0     H29571   8.518   5.519   2.041  0.3996 -0.5353  1.8660
  982MOL0     H29572   8.533   5.351   2.018 -1.1942 -0.1473  2.0278
  982MOL0     H29573   8.326   5.311   2.111 -1.6924  2.7422 -5.1498
  982MOL0     H29574   8.428   5.396   2.224 -0.0283 -0.7882 -0.5097
  982MOL0     H29575   8.176   5.472   2.088 -1.2253 -0.9127  1.5904
  982MOL0     H29576   8.275   5.604   2.139  0.5878 -0.8657 -0.7714
  982MOL0     H29577   8.305   5.634   2.419 -0.4704 -0.0130 -3.4846
  982MOL0     H29578   8.172   5.483   2.717  1.0917 -0.2318 -0.4118
  982MOL0     H29579   8.021   5.562   2.683 -0.0437  1.9688  0.6443
  982MOL0     H29580   8.108   5.784   2.660 -2.2360 -0.0581  4.3952
  982MOL0     H29581   8.284   5.722   2.654  1.2029 -2.1065  0.6586
  982MOL0     H29582   8.108   5.672   2.895  0.1708 -2.2273 -1.0646
  982MOL0     H29583   8.287   5.681   2.878  0.9872  0.1401 -2.4398
  982MOL0     H29584   8.104   5.921   2.857  0.6262 -0.3949 -1.4490
  982MOL0     H29585   8.266   5.917   2.823 -0.9748 -0.7365 -1.7567
  982MOL0     H29586   7.956   5.895   2.991 -0.5074  0.0359 -0.0236
  982MOL0     H29587   7.794   6.007   3.116  0.2463  2.1351 -1.3616
  982MOL0     H29588   8.002   6.431   3.620  0.9882  1.1944  0.4641
  982MOL0     H29589   7.865   6.567   3.771 -1.9079  1.5186 -1.9844
  982MOL0     H29590   7.445   6.440   3.847  0.1171 -0.3939  0.8526
  982MOL0     H29591   7.511   6.595   3.782 -2.7335 -1.3912 -1.0374
  982MOL0     H29592   7.542   6.692   3.995  1.8316 -2.7345 -1.9507
  982MOL0     H29593   7.463   6.561   4.080  0.6516 -0.7690 -1.1006
  982MOL0     H29594   7.278   6.597   3.903 -0.9554  1.3190 -0.6079
  982MOL0     H29595   7.336   6.751   3.874  1.2670 -0.3058 -0.1711
  982MOL0     H29596   7.292   6.668   4.167  0.0831  0.5556 -0.5438
  982MOL0     H29597   7.316   6.824   4.105  2.3386 -0.8001 -1.9125
  982MOL0     H29598   7.088   6.660   4.023  2.2521  0.2808  0.0187
  982MOL0     H29599   7.108   6.833   3.986  2.0504  3.4897  1.0261
  982MOL0     H29600   7.126   6.871   4.253 -0.2137  1.9406 -2.1378
  982MOL0     H29601   7.078   6.704   4.264  0.4576 -0.3584 -0.5223
  982MOL0     H29602   6.888   6.806   4.321 -2.6363 -0.1921 -1.5859
  982MOL0     H29603   6.903   6.943   4.204  0.0935 -0.4171 -4.8907
  982MOL0     H29604   6.829   6.796   4.029 -0.7640 -0.3363  0.7629
  982MOL0     H29605   6.712   6.789   4.160  0.8838 -2.4839  1.9623
  982MOL0     H29606   7.549   6.281   3.756 -0.3557  3.0471 -0.4466
  982MOL0     H29607   7.653   6.168   3.572  0.9179  0.4241 -0.3037
  982MOL0     H29608   8.128   6.116   3.387 -2.2168  0.5104  1.1809
  982MOL0     H29609   8.277   6.005   3.249  0.8453 -3.9129  1.4042
  982MOL0     H29610   8.879   5.633   1.293  1.1701 -0.0925  2.8576
  982MOL0     H29611   8.797   5.736   1.078  0.6823  2.6460 -0.2451
  982MOL0     H29612   8.261   5.816   0.849 -0.1625  0.7614 -2.0120
  982MOL0     H29613   8.261   5.818   0.601 -0.5480  1.4039 -0.0344
  982MOL0     H29614   8.662   5.856   0.405  1.7285 -0.3685 -3.6535
  982MOL0     H29615   8.603   6.019   0.404 -1.3621 -0.3202  0.3218
  982MOL0     H29616   8.489   5.991   0.182 -1.8371 -0.1561  1.4753
  982MOL0     H29617   8.638   5.923   0.161 -0.0132 -3.4498 -0.5685
  982MOL0     H29618   8.477   5.758   0.073  0.1776 -0.1855  0.0353
  982MOL0     H29619   8.392   5.752   0.225 -0.8181 -0.5684 -2.5447
  982MOL0     H29620   8.597   5.635   0.335 -0.9647 -1.5938 -0.1707
  982MOL0     H29621   8.514   5.554   0.203  0.7936  1.1269 -1.7030
  982MOL0     H29622   8.888   5.575   0.005 -1.5330  1.3265 -1.6198
  982MOL0     H29623   8.669   5.937   0.610 -0.2461  0.9888  2.3300
  982MOL0     H29624   8.674   5.918   0.848  0.3239  2.6576 -1.5451
  983MOL0     O29625   9.689   7.685   5.738 -0.6027  0.3814 -0.4891
  983MOL0     C29626   9.609   7.700   5.831  0.4438  0.2871  0.4778
  983MOL0     O29627   9.634   7.663   5.953  0.5022 -0.3894 -0.3014
  983MOL0     C29628   9.756   7.621   5.984 -0.4326  0.0723 -0.6593
  983MOL0     C29629   9.836   7.523   5.919  0.5359 -0.6819 -0.7103
  983MOL0     C29630   9.969   7.491   5.966  0.7027  0.5624 -0.1824
  983MOL0     C29631  10.012   7.535   6.091 -0.0292 -0.5124 -0.8293
  983MOL0     O29632  10.124   7.494   6.147 -0.1847 -0.8337 -0.3973
  983MOL0     C29633  10.238   7.495   6.063  0.6763  0.6773 -0.0413
  983MOL0     C29634  10.361   7.454   6.139  0.1786 -0.5659 -0.4296
  983MOL0     C29635  10.399   7.576   6.219 -0.5743  0.2654 -0.7448
  983MOL0     C29636  10.523   7.559   6.305  0.0324 -0.7071  0.0065
  983MOL0     C29637  10.545   7.690   6.370  0.3905 -0.0591 -0.1439
  983MOL0     C29638  10.435   7.735   6.475  0.2396  0.1735 -0.2702
  983MOL0     C29639  10.460   7.880   6.505 -0.1905  0.3359 -0.0063
  983MOL0     C29640  10.340   7.956   6.537  0.2950 -0.4277  0.4682
  983MOL0     N29641  10.381   8.097   6.558  0.1156  0.1053  0.0472
  983MOL0     C29642  10.340   8.187   6.476  0.0684  0.3506  0.8384
  983MOL0     C29643  10.371   8.305   6.534 -0.8998 -0.6566  0.2047
  983MOL0     C29644  10.368   8.441   6.472  0.3650  0.1005  0.2135
  983MOL0     C29645  10.223   8.494   6.462  0.0015 -0.3343 -0.1765
  983MOL0     C29646  10.165   8.534   6.591 -0.0961  0.4595 -0.4182
  983MOL0     C29647  10.037   8.628   6.580 -0.2587 -0.1231 -0.0741
  983MOL0     O29648   9.926   8.564   6.515  0.1772  0.5132  0.2929
  983MOL0     C29649   9.857   8.478   6.594  0.4790 -0.4977  0.5915
  983MOL0     C29650   9.829   8.481   6.730  0.7715 -0.5477  0.2325
  983MOL0     C29651   9.744   8.391   6.796  0.2683 -0.3835  0.5250
  983MOL0     C29652   9.704   8.278   6.727  0.1957  0.9857 -0.0122
  983MOL0     C29653   9.613   8.176   6.796  0.0101 -0.1464  0.4149
  983MOL0     O29654   9.586   8.206   6.929 -0.0702  0.2156  0.1151
  983MOL0     C29655   9.573   8.097   7.009  0.5608 -0.2689 -0.3387
  983MOL0     C29656   9.449   8.030   7.013 -0.8205 -0.9038  0.1688
  983MOL0     C29657   9.419   7.927   7.101  0.8685 -1.1669 -0.5765
  983MOL0     C29658   9.518   7.885   7.191  0.2786  0.3507 -0.5936
  983MOL0     O29659   9.493   7.785   7.282  0.2126 -0.0922  0.0259
  983MOL0     C29660   9.428   7.667   7.222  0.4506 -0.2711 -0.3700
  983MOL0     C29661   9.339   7.600   7.325 -0.7540 -0.6463 -0.5141
  983MOL0     C29662   9.255   7.480   7.289 -0.3343  0.0699 -0.6746
  983MOL0     C29663   9.144   7.458   7.397 -0.4501 -0.3625  0.1906
  983MOL0     C29664   9.066   7.327   7.355  0.0711 -0.0682 -0.0379
  983MOL0     C29665   8.942   7.303   7.449  0.2836 -0.8947  0.5623
  983MOL0     C29666   8.830   7.402   7.415 -0.5759  0.1342  0.4640
  983MOL0     C29667   8.706   7.390   7.503  0.5556 -0.7594 -0.0339
  983MOL0    Cl29668   8.589   7.513   7.441  0.0219  0.0562  0.0900
  983MOL0     C29669   9.643   7.949   7.197 -0.6198  0.2022 -0.9828
  983MOL0     C29670   9.667   8.055   7.105 -0.4014  0.0096  0.0120
  983MOL0     O29671   9.577   8.070   6.740  0.1990  0.4122  0.0498
  983MOL0     C29672   9.737   8.264   6.595  0.5104 -1.4460  0.1717
  983MOL0     C29673   9.812   8.365   6.529 -0.2410 -0.4784 -0.2159
  983MOL0     N29674  10.420   8.287   6.652  0.3652 -0.6709 -0.8229
  983MOL0     N29675  10.423   8.158   6.665  0.5262 -0.1246 -0.0856
  983MOL0     C29676   9.931   7.619   6.170 -0.6712 -0.0777  0.2664
  983MOL0     C29677   9.813   7.668   6.111  1.2383  0.2418  0.0109
  983MOL0     C29678   9.471   7.749   5.797  0.5340  0.2171  0.5729
  983MOL0     C29679   9.366   7.750   5.895  0.2800 -0.3476  0.2284
  983MOL0     C29680   9.227   7.784   5.871 -0.2022  0.4899  1.2991
  983MOL0     C29681   9.184   7.797   5.734 -0.1007 -0.2717 -0.6282
  983MOL0     O29682   9.051   7.822   5.707 -0.0414 -0.2910 -0.5481
  983MOL0     C29683   8.988   7.789   5.587  0.5577  0.0906 -0.3421
  983MOL0     C29684   8.841   7.809   5.582  0.7359 -0.0552  0.1891
  983MOL0     C29685   8.779   7.734   5.705  0.0723 -0.3724  0.4159
  983MOL0     C29686   8.622   7.746   5.707 -0.6471 -0.6434  0.1810
  983MOL0     C29687   8.582   7.635   5.790 -0.3276 -0.6802 -0.1575
  983MOL0     C29688   8.537   7.538   5.839  0.7137 -0.7960 -0.8469
  983MOL0     C29689   9.290   7.799   5.635  1.0258 -0.1348 -0.2336
  983MOL0     C29690   9.429   7.783   5.668  0.1053 -0.2299  0.7176
  983MOL0     H29691   9.788   7.475   5.834  0.3274 -2.8744  0.5758
  983MOL0     H29692  10.035   7.422   5.915  3.7877  2.0554  1.4888
  983MOL0     H29693  10.247   7.594   6.016  1.6728  0.1358 -1.0559
  983MOL0     H29694  10.227   7.415   5.990 -0.3686 -0.7138  1.5791
  983MOL0     H29695  10.439   7.436   6.064  1.3554  1.3970  0.2280
  983MOL0     H29696  10.344   7.366   6.202  1.5656 -0.9415 -0.5489
  983MOL0     H29697  10.318   7.610   6.283 -0.1279 -0.8089  0.4271
  983MOL0     H29698  10.420   7.663   6.155  2.2946  1.4136  1.5277
  983MOL0     H29699  10.510   7.488   6.387  0.6929 -1.2728 -0.3725
  983MOL0     H29700  10.610   7.520   6.252  0.6716  0.8636 -0.1472
  983MOL0     H29701  10.550   7.772   6.298 -0.5654 -2.0569 -2.6299
  983MOL0     H29702  10.644   7.691   6.416  1.0994  0.3783 -1.6258
  983MOL0     H29703  10.438   7.667   6.561  1.9871 -2.6728 -2.4069
  983MOL0     H29704  10.332   7.726   6.440 -1.0180  1.7753  2.6277
  983MOL0     H29705  10.540   7.879   6.579  1.6592 -0.2095 -1.9276
  983MOL0     H29706  10.500   7.941   6.424 -1.0726  1.8926  0.6896
  983MOL0     H29707  10.286   7.919   6.625 -2.5724  1.7018 -0.2672
  983MOL0     H29708  10.265   7.946   6.459  0.7536 -4.1948  0.3014
  983MOL0     H29709  10.298   8.175   6.376  2.6504  1.5018 -0.4704
  983MOL0     H29710  10.417   8.433   6.375  0.0406 -3.0169  0.1813
  983MOL0     H29711  10.426   8.513   6.529 -0.4863  0.7515  0.2774
  983MOL0     H29712  10.151   8.418   6.433  0.8605 -2.6120  3.1132
  983MOL0     H29713  10.217   8.582   6.397  1.5510 -0.1056 -0.0549
  983MOL0     H29714  10.148   8.450   6.658  1.7004  0.2869 -0.1238
  983MOL0     H29715  10.239   8.593   6.645 -1.3427  0.5819  1.2183
  983MOL0     H29716  10.076   8.711   6.519  0.4662 -0.6283 -0.3080
  983MOL0     H29717  10.011   8.675   6.675 -0.8402  1.4857 -0.9929
  983MOL0     H29718   9.872   8.559   6.791  3.9026 -2.4351  0.6436
  983MOL0     H29719   9.736   8.409   6.903 -0.4954 -1.8412  0.7452
  983MOL0     H29720   9.368   8.058   6.946 -3.6906  1.4639  4.1739
  983MOL0     H29721   9.320   7.883   7.096  0.4651 -0.3536  0.0290
  983MOL0     H29722   9.497   7.594   7.179 -0.5290 -1.9141  0.7494
  983MOL0     H29723   9.357   7.703   7.146 -1.3930 -3.4913 -0.3577
  983MOL0     H29724   9.269   7.677   7.360  1.0270  2.0491 -2.5168
  983MOL0     H29725   9.393   7.582   7.418 -1.9298  1.6721  0.7087
  983MOL0     H29726   9.319   7.391   7.281  0.4369  0.7535 -2.3759
  983MOL0     H29727   9.213   7.503   7.191 -0.6491 -2.4888 -1.2258
  983MOL0     H29728   9.186   7.453   7.498  0.3800 -3.1758 -0.2136
  983MOL0     H29729   9.072   7.541   7.389  4.0246  3.9668  0.2949
  983MOL0     H29730   9.131   7.239   7.365 -1.3370 -0.9114  3.5687
  983MOL0     H29731   9.035   7.323   7.251  0.8030 -1.6788 -0.2312
  983MOL0     H29732   8.976   7.317   7.552  2.6531  1.2110 -0.4007
  983MOL0     H29733   8.902   7.205   7.422  0.4906 -0.2510 -2.5435
  983MOL0     H29734   8.863   7.505   7.435  2.1465 -0.7884  1.1436
  983MOL0     H29735   8.815   7.392   7.307  1.8648 -1.2721  0.1761
  983MOL0     H29736   8.739   7.422   7.602 -0.8505  0.1479  0.1703
  983MOL0     H29737   8.662   7.290   7.510  1.1850 -0.9705  1.1120
  983MOL0     H29738   9.725   7.916   7.260  1.1600  1.4901 -2.5303
  983MOL0     H29739   9.764   8.103   7.114  0.7672 -2.1281 -0.3678
  983MOL0     H29740   9.718   8.176   6.534 -1.0223 -1.3916  0.5289
  983MOL0     H29741   9.835   8.356   6.424  1.6163 -0.8460  0.1930
  983MOL0     H29742   9.971   7.646   6.267 -2.0078 -0.8504  1.0580
  983MOL0     H29743   9.751   7.739   6.165  1.2835  1.0677 -0.9951
  983MOL0     H29744   9.390   7.707   5.992  2.8007 -1.6809 -0.9017
  983MOL0     H29745   9.160   7.793   5.956 -0.5887  1.3816  0.9197
  983MOL0     H29746   9.011   7.686   5.560 -1.6015  0.0628 -2.3084
  983MOL0     H29747   9.028   7.849   5.505 -5.1260  0.9453 -2.9742
  983MOL0     H29748   8.811   7.913   5.566 -1.6160 -0.3643  2.0136
  983MOL0     H29749   8.801   7.748   5.500  4.5610 -1.0578 -1.1286
  983MOL0     H29750   8.825   7.767   5.799  1.4113 -0.5697 -0.1486
  983MOL0     H29751   8.810   7.629   5.696  1.6219 -0.0953  2.0335
  983MOL0     H29752   8.585   7.845   5.734 -0.0931 -0.1420 -0.8428
  983MOL0     H29753   8.588   7.733   5.604  3.4093 -1.6557 -1.2183
  983MOL0     H29754   8.485   7.457   5.884 -1.1809  0.8076 -0.0189
  983MOL0     H29755   9.260   7.805   5.530  3.4759 -1.1998 -1.0725
  983MOL0     H29756   9.512   7.769   5.600 -0.9882 -1.9318 -0.3558
  984MOL0     O29757   7.569   2.353   4.269 -0.1311 -0.3679 -1.0331
  984MOL0     C29758   7.664   2.366   4.340  0.1255 -0.3593 -0.6171
  984MOL0     O29759   7.665   2.421   4.466 -0.6207  0.0820  0.1956
  984MOL0     C29760   7.557   2.417   4.554  0.9536 -1.3096  1.2809
  984MOL0     C29761   7.578   2.485   4.676  0.2638  0.8436 -0.4210
  984MOL0     C29762   7.474   2.480   4.768  0.1324 -0.5743  0.0289
  984MOL0     C29763   7.348   2.425   4.743  0.5169 -0.5077  0.7301
  984MOL0     O29764   7.243   2.415   4.834 -0.3690  0.1380 -0.2823
  984MOL0     C29765   7.187   2.536   4.875  0.2924  0.2110  0.9607
  984MOL0     C29766   7.068   2.519   4.973 -0.6228 -0.1158 -0.2413
  984MOL0     C29767   6.957   2.425   4.942  0.0515 -0.1780 -0.5273
  984MOL0     C29768   6.854   2.400   5.048  0.3546 -0.2884  0.5729
  984MOL0     C29769   6.738   2.313   5.004 -0.2541  1.2854  0.3300
  984MOL0     C29770   6.622   2.395   4.946  0.6243  0.5039 -0.5165
  984MOL0     C29771   6.500   2.322   4.881  0.3826  0.7436 -0.7703
  984MOL0     C29772   6.440   2.212   4.970  0.0417 -0.1130 -0.8582
  984MOL0     N29773   6.401   2.254   5.109  0.1529 -0.3348  0.3283
  984MOL0     C29774   6.462   2.200   5.227  0.2130 -0.6447 -0.4879
  984MOL0     C29775   6.379   2.242   5.328  0.7867  0.0630 -0.0718
  984MOL0     C29776   6.409   2.229   5.479  0.7667  0.0819  1.3750
  984MOL0     C29777   6.471   2.358   5.540  0.2486 -0.1115 -0.1660
  984MOL0     C29778   6.521   2.342   5.690  0.2446 -1.1977 -0.2401
  984MOL0     C29779   6.651   2.258   5.707 -0.0042  0.4968  0.4826
  984MOL0     O29780   6.765   2.329   5.666 -0.6493 -0.2375  0.2308
  984MOL0     C29781   6.852   2.266   5.585 -0.0505  0.3028 -0.4384
  984MOL0     C29782   6.848   2.131   5.536 -0.2464 -0.1735 -0.0775
  984MOL0     C29783   6.952   2.090   5.454 -0.0342  0.6470 -0.2862
  984MOL0     C29784   7.052   2.178   5.404  0.3792  0.2281  0.0256
  984MOL0     C29785   7.159   2.127   5.311  1.1485 -0.4403 -1.0438
  984MOL0     O29786   7.235   2.227   5.256 -0.4128  0.1577 -0.1714
  984MOL0     C29787   7.338   2.204   5.167  0.0809 -0.7542 -0.7346
  984MOL0     C29788   7.309   2.163   5.030 -0.4199  1.2893 -0.6906
  984MOL0     C29789   7.407   2.129   4.940 -0.2807 -0.3296 -0.4061
  984MOL0     C29790   7.542   2.159   4.969 -0.0190  0.1873 -0.3687
  984MOL0     O29791   7.647   2.133   4.885  0.0843 -0.5137 -0.0689
  984MOL0     C29792   7.627   2.065   4.760  0.9322  0.8181 -0.1186
  984MOL0     C29793   7.751   2.071   4.680  0.1515  0.4193  0.5539
  984MOL0     C29794   7.879   1.994   4.721 -0.4181  0.2388  0.1785
  984MOL0     C29795   7.976   2.015   4.602 -0.1700 -0.1737 -0.0145
  984MOL0     C29796   8.118   2.002   4.660 -0.7676 -0.2105 -0.0231
  984MOL0     C29797   8.233   1.971   4.561  0.4551 -0.2041  0.2453
  984MOL0     C29798   8.362   2.011   4.620 -0.9680  0.9553  0.4406
  984MOL0     C29799   8.393   1.912   4.736  0.2027 -0.0014  0.8754
  984MOL0    Cl29800   8.559   1.954   4.784  0.1871  0.1599 -0.3265
  984MOL0     C29801   7.567   2.226   5.086  0.5014 -0.2958 -0.8950
  984MOL0     C29802   7.471   2.255   5.188 -0.2099 -0.2271  0.9545
  984MOL0     O29803   7.163   2.012   5.283  0.2394 -0.7341  0.6603
  984MOL0     C29804   7.054   2.305   5.453  0.5708  0.2410  0.9756
  984MOL0     C29805   6.960   2.347   5.545  0.4548 -0.0203 -0.0628
  984MOL0     N29806   6.271   2.305   5.273 -0.6504 -0.2559 -0.0721
  984MOL0     N29807   6.276   2.309   5.144 -0.2162 -0.5923 -0.7538
  984MOL0     C29808   7.330   2.350   4.629  0.0927 -0.1198 -0.7514
  984MOL0     C29809   7.427   2.354   4.532 -0.7187  0.4400 -0.5139
  984MOL0     C29810   7.797   2.341   4.287  0.2215  0.2406  0.7800
  984MOL0     C29811   7.914   2.331   4.365 -0.6756 -1.0135  0.7106
  984MOL0     C29812   8.046   2.319   4.309 -0.1180  0.3813  0.0306
  984MOL0     C29813   8.059   2.301   4.176  0.5412 -0.2239 -0.3491
  984MOL0     O29814   8.179   2.289   4.111  0.6509  0.1259  0.0741
  984MOL0     C29815   8.301   2.333   4.173  0.0074  0.1055 -0.3387
  984MOL0     C29816   8.408   2.303   4.061  0.3470 -0.5033  0.6799
  984MOL0     C29817   8.546   2.365   4.092  0.2083 -0.5530 -0.4374
  984MOL0     C29818   8.637   2.286   3.999 -0.4339  0.6260  0.0684
  984MOL0     C29819   8.765   2.352   3.976 -0.8016  0.0845 -0.5686
  984MOL0     C29820   8.877   2.399   3.956 -0.6202 -0.8985 -0.0906
  984MOL0     C29821   7.944   2.295   4.096  0.2117  0.7644 -0.1170
  984MOL0     C29822   7.819   2.318   4.149 -0.3856  0.0041 -0.4789
  984MOL0     H29823   7.675   2.522   4.709  0.8835 -2.4956  2.0613
  984MOL0     H29824   7.479   2.512   4.871 -1.1545  1.2973 -0.4356
  984MOL0     H29825   7.158   2.595   4.787  1.8653 -1.3908 -0.7234
  984MOL0     H29826   7.261   2.599   4.924 -0.3462  0.5848  1.4555
  984MOL0     H29827   7.035   2.624   4.977 -0.9621 -0.2003 -0.7523
  984MOL0     H29828   7.131   2.485   5.056  1.2528 -0.5745 -1.7879
  984MOL0     H29829   7.006   2.330   4.918 -0.3000 -0.1765 -1.3070
  984MOL0     H29830   6.902   2.461   4.854  0.3570  1.7725  0.0166
  984MOL0     H29831   6.903   2.359   5.137 -1.7687 -0.4449  1.7472
  984MOL0     H29832   6.812   2.496   5.080 -1.9158 -0.8320 -0.6307
  984MOL0     H29833   6.704   2.249   5.086 -1.4231  0.9273 -0.4005
  984MOL0     H29834   6.772   2.244   4.926 -2.7514 -1.2363  1.2816
  984MOL0     H29835   6.661   2.462   4.869 -0.8739 -0.5929 -2.3186
  984MOL0     H29836   6.577   2.454   5.026  2.1939 -1.0435  1.6094
  984MOL0     H29837   6.430   2.388   4.829  0.3667  0.1385 -1.5312
  984MOL0     H29838   6.536   2.262   4.797  0.6696 -1.7810  1.0648
  984MOL0     H29839   6.524   2.145   4.991  0.9789  0.9210 -1.1951
  984MOL0     H29840   6.362   2.160   4.915 -0.1884  0.8306 -1.4516
  984MOL0     H29841   6.556   2.146   5.239 -0.3475 -1.1483  2.4038
  984MOL0     H29842   6.475   2.145   5.502  0.1615 -0.7498  0.1530
  984MOL0     H29843   6.311   2.209   5.523  1.0318 -3.4253  0.6704
  984MOL0     H29844   6.389   2.430   5.532  0.3280 -0.0942 -0.8826
  984MOL0     H29845   6.555   2.401   5.484  1.5924 -1.4610  0.7459
  984MOL0     H29846   6.539   2.443   5.729  0.4583 -0.6088 -1.7754
  984MOL0     H29847   6.441   2.306   5.756  0.8264 -3.8284 -0.8544
  984MOL0     H29848   6.645   2.161   5.655 -1.6984  0.0008  1.5229
  984MOL0     H29849   6.667   2.247   5.815  0.5585  0.8866  0.4392
  984MOL0     H29850   6.774   2.056   5.563 -1.6715  1.4736  0.8536
  984MOL0     H29851   6.934   1.991   5.413  0.8510  1.0992 -1.8621
  984MOL0     H29852   7.205   2.133   5.021  0.2087 -1.5695  0.3869
  984MOL0     H29853   7.365   2.087   4.850  4.2339 -2.0205 -2.0070
  984MOL0     H29854   7.546   2.116   4.707  1.3414 -0.9113 -2.5665
  984MOL0     H29855   7.600   1.961   4.781 -2.9704  1.7690  0.2404
  984MOL0     H29856   7.779   2.176   4.690 -1.6775  0.9730  0.0948
  984MOL0     H29857   7.733   2.062   4.572 -0.4844  0.4860  0.6510
  984MOL0     H29858   7.859   1.887   4.734  0.1535  0.2012  0.7705
  984MOL0     H29859   7.931   2.030   4.811 -2.6997 -0.6103  1.9503
  984MOL0     H29860   7.970   1.951   4.514  2.5165  0.4483 -0.7495
  984MOL0     H29861   7.981   2.120   4.571  0.7401 -0.9925 -2.8979
  984MOL0     H29862   8.119   1.919   4.731  0.3316  1.2998  1.8417
  984MOL0     H29863   8.130   2.094   4.718 -2.5888 -0.5598  1.0219
  984MOL0     H29864   8.215   2.048   4.485 -0.6789  1.1366  1.7839
  984MOL0     H29865   8.223   1.870   4.522  1.5571  0.9665 -3.5286
  984MOL0     H29866   8.442   1.996   4.547 -1.3267  2.4505 -0.2831
  984MOL0     H29867   8.356   2.115   4.653  0.6831  1.5586 -1.0172
  984MOL0     H29868   8.376   1.811   4.698 -1.4596  0.5732  0.0108
  984MOL0     H29869   8.331   1.919   4.826  1.4090  2.2459  1.6236
  984MOL0     H29870   7.672   2.248   5.104  0.7466 -0.9311 -1.4931
  984MOL0     H29871   7.504   2.320   5.269 -2.1130  2.8273 -0.5278
  984MOL0     H29872   7.118   2.389   5.428 -2.4599  2.7375  0.9851
  984MOL0     H29873   6.955   2.439   5.602 -2.4506 -0.3985  0.4833
  984MOL0     H29874   7.232   2.305   4.614 -1.3450  1.3559  2.9032
  984MOL0     H29875   7.426   2.298   4.439  2.8104 -1.2423  0.2717
  984MOL0     H29876   7.903   2.339   4.473 -1.2294  1.8127  0.5295
  984MOL0     H29877   8.133   2.315   4.373 -0.9810 -0.3325  1.1890
  984MOL0     H29878   8.322   2.279   4.265 -1.7471 -1.0474 -0.5577
  984MOL0     H29879   8.292   2.439   4.200  0.1804  0.5484 -1.8920
  984MOL0     H29880   8.417   2.195   4.046 -0.9609 -0.6377  0.7479
  984MOL0     H29881   8.375   2.348   3.967  1.5518 -0.9915  0.0005
  984MOL0     H29882   8.570   2.346   4.197 -0.1547  1.0230 -0.0528
  984MOL0     H29883   8.541   2.473   4.081 -1.3715 -0.5846 -0.2848
  984MOL0     H29884   8.652   2.189   4.048  0.0086  0.9953  0.6833
  984MOL0     H29885   8.584   2.268   3.905 -0.6424  1.2386  0.0658
  984MOL0     H29886   8.979   2.419   3.929  0.3064 -2.4005  2.0404
  984MOL0     H29887   7.956   2.265   3.993 -0.1999  0.3544 -0.0504
  984MOL0     H29888   7.732   2.325   4.085 -0.4860 -0.1110 -0.3558
  985MOL0     O29889   2.167   2.341   9.683 -0.3255  0.4552  0.3506
  985MOL0     C29890   2.174   2.464   9.695 -0.3333 -0.4960  0.4503
  985MOL0     O29891   2.065   2.557   9.675  0.0067 -0.1865 -0.1867
  985MOL0     C29892   1.940   2.502   9.674 -0.3930  0.1640  0.6973
  985MOL0     C29893   1.894   2.427   9.782 -0.3662 -0.0545  0.0734
  985MOL0     C29894   1.764   2.381   9.789 -0.0780 -0.2280  0.5539
  985MOL0     C29895   1.670   2.423   9.695 -0.4084  0.2699 -0.3234
  985MOL0     O29896   1.544   2.381   9.694  0.5613 -0.4515  0.0118
  985MOL0     C29897   1.503   2.249   9.728  0.1501  0.2599 -0.7060
  985MOL0     C29898   1.529   2.163   9.608  0.3655 -0.1281 -0.4375
  985MOL0     C29899   1.514   2.009   9.628 -0.6969 -1.1040  0.0503
  985MOL0     C29900   1.621   1.940   9.717 -0.5539 -0.5849  0.1829
  985MOL0     C29901   1.649   1.802   9.681  0.5080 -0.5937 -0.3478
  985MOL0     C29902   1.771   1.780   9.581 -0.2233 -0.1139 -0.4956
  985MOL0     C29903   1.766   1.637   9.528 -0.2421  0.5565  1.4107
  985MOL0     C29904   1.753   1.534   9.637  0.1182  0.4379 -0.1674
  985MOL0     N29905   1.863   1.512   9.721 -0.9869 -0.1104 -0.3716
  985MOL0     C29906   1.986   1.565   9.731 -0.1990 -0.4175  0.1536
  985MOL0     C29907   2.058   1.487   9.813  0.3450 -0.3234 -0.2616
  985MOL0     C29908   2.204   1.511   9.850 -0.1903  0.9688 -0.9604
  985MOL0     C29909   2.287   1.382   9.806  0.8112 -0.9408 -0.4749
  985MOL0     C29910   2.439   1.411   9.819  0.2477  0.3994 -0.0522
  985MOL0     C29911   2.517   1.456   9.955  0.5016 -0.1744 -0.3985
  985MOL0     O29912   2.505   1.598   9.968 -0.5077  0.7240  0.1823
  985MOL0     C29913   2.624   1.671   9.958 -0.0982 -0.2567  0.0627
  985MOL0     C29914   2.729   1.645   9.865  0.2558  0.0964  0.5573
  985MOL0     C29915   2.846   1.723   9.869 -0.1935 -0.4611 -0.5946
  985MOL0     C29916   2.873   1.812   9.978 -0.4187 -0.0467  0.0760
  985MOL0     C29917   3.010   1.870   9.996 -0.3226 -0.9652  0.0878
  985MOL0     O29918   3.096   1.860   9.890  0.0953 -0.5485 -0.1734
  985MOL0     C29919   3.224   1.921   9.906  0.4642 -0.4052 -0.5626
  985MOL0     C29920   3.270   1.989   9.793 -0.3990  0.9270 -0.5873
  985MOL0     C29921   3.407   2.027   9.778  0.6083  0.4455 -0.1909
  985MOL0     C29922   3.494   2.024   9.893  0.8572  0.3456 -0.2271
  985MOL0     O29923   3.622   2.071   9.892  0.8360 -0.2514 -0.2253
  985MOL0     C29924   3.717   1.964   9.920  0.8807  0.3422 -0.5489
  985MOL0     C29925   3.855   2.015   9.915  0.5815 -0.2341  0.5634
  985MOL0     C29926   3.962   1.917   9.954  1.2216  0.7011  0.3910
  985MOL0     C29927   4.109   1.971   9.935 -0.0505 -0.0743 -0.5528
  985MOL0     C29928   4.216   1.890  10.022 -0.1857  0.5819 -0.8786
  985MOL0     C29929   4.271   1.765   9.951 -0.5608  0.1723 -0.1041
  985MOL0     C29930   4.391   1.696  10.023  0.7010 -0.4518  0.0174
  985MOL0     C29931   4.419   1.546   9.993 -0.3111 -0.1965  0.9908
  985MOL0    Cl29932   4.373   1.509   9.808 -0.2794  0.1016 -0.1062
  985MOL0     C29933   3.434   1.965  10.011 -0.2282 -0.2014  0.1189
  985MOL0     C29934   3.307   1.922  10.024 -0.5047  0.8988  0.6980
  985MOL0     O29935   3.028   1.934  10.099 -0.4373 -0.9396  0.0632
  985MOL0     C29936   2.769   1.839  10.069  0.5184 -0.8394  0.1709
  985MOL0     C29937   2.645   1.767  10.059 -0.1353  0.2340 -0.0252
  985MOL0     N29938   1.975   1.388   9.858 -0.4552 -0.0307 -0.6674
  985MOL0     N29939   1.854   1.405   9.802 -0.3128  0.6514 -0.9498
  985MOL0     C29940   1.713   2.487   9.583  0.8727  0.1167 -0.0673
  985MOL0     C29941   1.843   2.531   9.569 -0.9033 -0.3091 -0.2214
  985MOL0     C29942   2.315   2.515   9.710 -0.0030  0.4663  1.5600
  985MOL0     C29943   2.427   2.435   9.677  0.0126  0.2219 -0.8958
  985MOL0     C29944   2.559   2.487   9.699 -0.7340 -0.2220 -0.1467
  985MOL0     C29945   2.581   2.617   9.750 -0.2173  1.0871 -1.1274
  985MOL0     O29946   2.721   2.640   9.768 -0.3930 -0.0779 -0.6212
  985MOL0     C29947   2.766   2.771   9.806 -0.2440 -0.9176 -0.0945
  985MOL0     C29948   2.753   2.775   9.960 -0.3405  0.0566 -1.1503
  985MOL0     C29949   2.788   2.906  10.029 -0.3249 -1.0993  0.6848
  985MOL0     C29950   2.939   2.934  10.044  0.0017 -0.2913  0.2493
  985MOL0     C29951   2.995   2.835  10.141  0.2902 -0.8418 -0.4463
  985MOL0     C29952   3.007   2.744  10.218 -0.9330  0.2272 -0.6109
  985MOL0     C29953   2.470   2.694   9.771  0.9367  0.2526 -0.5299
  985MOL0     C29954   2.338   2.646   9.759  0.3049  0.2541 -0.8525
  985MOL0     H29955   1.966   2.404   9.860 -0.6307 -1.2270 -0.0118
  985MOL0     H29956   1.742   2.325   9.879  2.3389 -4.2727 -1.1077
  985MOL0     H29957   1.395   2.237   9.741  0.6108 -1.6660  2.7556
  985MOL0     H29958   1.544   2.214   9.824  0.2233  2.9540  0.3207
  985MOL0     H29959   1.629   2.168   9.564 -0.7620  1.3745 -3.0751
  985MOL0     H29960   1.454   2.191   9.533  1.9367  3.3968 -0.9160
  985MOL0     H29961   1.528   1.962   9.530 -2.3064 -3.0295  0.6741
  985MOL0     H29962   1.420   1.976   9.674 -0.0573  0.8095  3.0106
  985MOL0     H29963   1.712   2.000   9.718 -0.5382 -0.4925 -1.9888
  985MOL0     H29964   1.583   1.932   9.819  1.6908 -1.6445  1.0075
  985MOL0     H29965   1.557   1.752   9.649 -0.0332  0.2998 -0.2403
  985MOL0     H29966   1.685   1.751   9.771  1.1232  2.5019  1.3012
  985MOL0     H29967   1.870   1.793   9.624  0.0316 -2.0368 -0.4166
  985MOL0     H29968   1.764   1.850   9.496  0.8332  0.5929 -0.0100
  985MOL0     H29969   1.671   1.637   9.474  0.8447 -1.9887 -0.7515
  985MOL0     H29970   1.848   1.609   9.461 -2.3372 -2.8550  0.0380
  985MOL0     H29971   1.753   1.442   9.578 -1.3689  2.5562 -3.7928
  985MOL0     H29972   1.661   1.539   9.696 -0.1134 -0.9267 -0.3842
  985MOL0     H29973   2.030   1.651   9.681  0.0839  0.4325  1.7863
  985MOL0     H29974   2.208   1.527   9.959  4.1152  1.9329 -1.0746
  985MOL0     H29975   2.244   1.602   9.803 -2.4327  1.1938 -2.5792
  985MOL0     H29976   2.258   1.355   9.704 -1.2422 -1.7343  0.2584
  985MOL0     H29977   2.248   1.301   9.868 -3.1308  2.6347  2.3943
  985MOL0     H29978   2.481   1.314   9.790 -0.8124 -0.8229  2.2945
  985MOL0     H29979   2.465   1.479   9.737 -0.4385 -3.3144 -3.7297
  985MOL0     H29980   2.611   1.402   9.968 -0.2866 -1.5996 -0.4136
  985MOL0     H29981   2.460   1.411  10.037  1.5519 -0.7731  0.0206
  985MOL0     H29982   2.714   1.560   9.799 -1.7998 -0.4603  1.6474
  985MOL0     H29983   2.930   1.709   9.802  0.3690  0.6481 -0.1410
  985MOL0     H29984   3.196   1.997   9.715  0.9953  1.4063 -1.9082
  985MOL0     H29985   3.447   2.065   9.684  2.3204 -4.1328 -1.5877
  985MOL0     H29986   3.712   1.887   9.842 -0.6407 -0.3638  0.2139
  985MOL0     H29987   3.683   1.923  10.015  0.1455  0.3577 -0.8016
  985MOL0     H29988   3.859   2.098   9.986  0.2549 -0.0295  0.3491
  985MOL0     H29989   3.867   2.049   9.812 -1.2712 -0.6394  0.1743
  985MOL0     H29990   3.946   1.823   9.900 -0.6137  1.5101 -0.5564
  985MOL0     H29991   3.947   1.892  10.060  1.9343 -2.7451 -0.1770
  985MOL0     H29992   4.138   1.976   9.829 -2.5639  0.8067 -1.2657
  985MOL0     H29993   4.113   2.074   9.971  1.2311 -0.5101  0.6269
  985MOL0     H29994   4.174   1.863  10.120  0.1898 -0.0268 -0.8808
  985MOL0     H29995   4.290   1.968  10.042  1.9361 -1.3231 -0.8755
  985MOL0     H29996   4.306   1.800   9.853 -2.1167  1.7993 -0.1329
  985MOL0     H29997   4.192   1.690   9.943  0.3795 -0.7794 -0.8200
  985MOL0     H29998   4.486   1.750  10.018  1.0288 -0.9869  0.4165
  985MOL0     H29999   4.368   1.704  10.130 -1.3466  0.7222 -0.4516
  985MOL0     H30000   4.356   1.483  10.057  1.3276 -2.7143  0.2680
  985MOL0     H30001   4.524   1.517  10.004  0.5856  1.4283 -2.1460
  985MOL0     H30002   3.492   1.956  10.103 -0.9702 -0.0300  0.6100
  985MOL0     H30003   3.260   1.882  10.113 -1.3272  1.9914  0.7651
  985MOL0     H30004   2.785   1.914  10.145 -2.3012 -1.8584  1.9188
  985MOL0     H30005   2.556   1.788  10.118  1.4396  3.0745  1.5729
  985MOL0     H30006   1.640   2.514   9.507  0.6591  0.4562  0.2553
  985MOL0     H30007   1.880   2.603   9.496 -1.2885 -1.0217 -1.1444
  985MOL0     H30008   2.421   2.334   9.638 -1.0622  0.3949 -1.2286
  985MOL0     H30009   2.651   2.432   9.678 -0.5389 -0.2188  0.6804
  985MOL0     H30010   2.718   2.859   9.761 -1.0822 -0.6726  1.2292
  985MOL0     H30011   2.873   2.768   9.781  0.2572  3.1819  0.8213
  985MOL0     H30012   2.649   2.755   9.985  0.2938 -0.1726  1.6460
  985MOL0     H30013   2.808   2.693  10.007  1.8721  2.4217  0.7051
  985MOL0     H30014   2.747   2.913  10.130 -1.5962  1.6517  0.0746
  985MOL0     H30015   2.741   2.985   9.970  1.6228 -1.2816 -1.2696
  985MOL0     H30016   2.994   2.946   9.951  1.4037 -0.2021  1.0559
  985MOL0     H30017   2.954   3.032  10.091 -1.7471  0.7743 -1.3068
  985MOL0     H30018   3.033   2.658  10.276  1.1004  0.0531 -1.6711
  985MOL0     H30019   2.474   2.794   9.815 -2.4550  0.2107  0.1538
  985MOL0     H30020   2.251   2.705   9.787 -0.4645 -1.6341  0.9387
  986MOL0     O30021   5.160   0.329   3.340  0.3021 -0.2126  0.6298
  986MOL0     C30022   5.282   0.329   3.351 -0.3976  0.5784 -0.0562
  986MOL0     O30023   5.382   0.369   3.268  0.1226 -0.0520 -0.3949
  986MOL0     C30024   5.345   0.390   3.140 -0.6676 -0.6225 -0.0944
  986MOL0     C30025   5.435   0.482   3.073  0.2700  0.0563  0.1513
  986MOL0     C30026   5.408   0.516   2.940  0.4306  0.0063  0.1476
  986MOL0     C30027   5.312   0.452   2.867  0.0387  0.2281  0.3192
  986MOL0     O30028   5.293   0.466   2.731  0.8666 -0.5579 -0.5939
  986MOL0     C30029   5.277   0.596   2.683  0.7679 -0.4530  0.4998
  986MOL0     C30030   5.215   0.585   2.546 -0.0788 -0.1224  0.1918
  986MOL0     C30031   5.057   0.568   2.561 -0.6463  0.0801 -0.3459
  986MOL0     C30032   4.990   0.620   2.439 -0.0584  0.2169  0.0415
  986MOL0     C30033   5.000   0.540   2.310  0.6844 -0.4220 -0.2715
  986MOL0     C30034   4.889   0.581   2.207 -0.5521 -0.5176 -0.3317
  986MOL0     C30035   4.911   0.531   2.060 -0.0845  0.5647  1.2864
  986MOL0     C30036   4.788   0.480   1.984 -0.4448  0.5026  0.3166
  986MOL0     N30037   4.694   0.584   1.948 -0.2030  0.3919  0.7832
  986MOL0     C30038   4.591   0.624   2.020  1.4925 -0.0199  0.1151
  986MOL0     C30039   4.522   0.698   1.926  0.4915  0.2151  1.1406
  986MOL0     C30040   4.377   0.746   1.941 -1.1073  0.3190  0.2300
  986MOL0     C30041   4.376   0.896   1.937 -0.7021 -0.6067 -0.5298
  986MOL0     C30042   4.241   0.948   1.984  0.3603 -0.3891  0.1856
  986MOL0     C30043   4.221   1.090   1.937  0.1258  0.6090 -0.4893
  986MOL0     O30044   4.084   1.125   1.945  0.0887  0.2040  0.9189
  986MOL0     C30045   4.044   1.252   1.980  0.1399 -0.0670 -0.0719
  986MOL0     C30046   4.121   1.361   2.009  0.0702  0.2439 -1.7783
  986MOL0     C30047   4.068   1.482   2.050  0.0307 -0.8120 -0.8526
  986MOL0     C30048   3.930   1.502   2.055  0.4632 -0.6100  0.4399
  986MOL0     C30049   3.865   1.628   2.093 -0.3547 -1.2652 -0.2262
  986MOL0     O30050   3.740   1.631   2.087 -0.9817  0.4111  0.0630
  986MOL0     C30051   3.683   1.746   2.036 -0.0204 -0.8457  0.0539
  986MOL0     C30052   3.553   1.773   2.088 -0.4372  0.2285 -0.1199
  986MOL0     C30053   3.469   1.870   2.034  0.6676  0.5477  0.0919
  986MOL0     C30054   3.514   1.946   1.929  0.0905 -0.0329  0.3823
  986MOL0     O30055   3.431   2.039   1.880  0.6583 -0.1443  0.3214
  986MOL0     C30056   3.487   2.169   1.850 -0.7105 -0.1877  0.4365
  986MOL0     C30057   3.373   2.257   1.803  0.1052 -0.1523  0.1217
  986MOL0     C30058   3.336   2.253   1.655 -0.7729  0.0159 -0.1626
  986MOL0     C30059   3.419   2.348   1.570  0.4635 -0.3751  0.0457
  986MOL0     C30060   3.430   2.335   1.410  0.6235 -0.3381  0.1106
  986MOL0     C30061   3.522   2.221   1.372 -0.6073  0.3914  0.5747
  986MOL0     C30062   3.667   2.276   1.382 -0.0143 -0.6771 -0.3612
  986MOL0     C30063   3.761   2.172   1.315 -0.0156  0.0241 -1.0007
  986MOL0    Cl30064   3.837   2.066   1.432  0.1775 -0.0748 -0.7128
  986MOL0     C30065   3.640   1.921   1.875 -0.4654  0.1567 -0.3588
  986MOL0     C30066   3.730   1.825   1.927 -0.5056 -0.2497 -0.2543
  986MOL0     O30067   3.934   1.731   2.119  0.1136  0.7180 -0.6329
  986MOL0     C30068   3.848   1.397   2.009  0.3786 -0.2831  0.0670
  986MOL0     C30069   3.900   1.275   1.974  0.2307 -0.2014 -0.1435
  986MOL0     N30070   4.600   0.718   1.816  0.5934 -0.2143  0.0445
  986MOL0     N30071   4.700   0.655   1.828 -0.0875  0.7122 -0.3795
  986MOL0     C30072   5.224   0.366   2.932 -1.0669 -0.4886 -0.1830
  986MOL0     C30073   5.242   0.330   3.062 -0.4057 -0.2599  0.0142
  986MOL0     C30074   5.338   0.275   3.474 -0.2744  0.9978 -0.0001
  986MOL0     C30075   5.260   0.264   3.592 -0.1704 -0.1570 -1.0692
  986MOL0     C30076   5.330   0.260   3.721 -0.4431 -0.6685 -0.2454
  986MOL0     C30077   5.466   0.231   3.735  0.5891  0.8093  0.1688
  986MOL0     O30078   5.533   0.227   3.855  0.2757  0.2780  0.0041
  986MOL0     C30079   5.628   0.328   3.866 -0.2443 -0.2554  0.3566
  986MOL0     C30080   5.690   0.333   4.005 -0.1128 -0.0216 -0.7288
  986MOL0     C30081   5.814   0.432   4.028  0.2855 -0.3113 -0.7552
  986MOL0     C30082   5.948   0.390   3.962 -0.6009  0.4338 -0.3652
  986MOL0     C30083   6.002   0.275   4.043  0.3389 -0.1109  0.2592
  986MOL0     C30084   6.036   0.179   4.104  0.1958  0.2034  0.2421
  986MOL0     C30085   5.534   0.223   3.610  0.0378  0.1748 -0.3211
  986MOL0     C30086   5.469   0.239   3.488  0.0051  0.2238  0.4614
  986MOL0     H30087   5.516   0.523   3.131 -1.0127  0.5528  1.6561
  986MOL0     H30088   5.478   0.586   2.895  1.0325 -1.1493 -0.7487
  986MOL0     H30089   5.371   0.652   2.684 -0.0070  0.8850  0.4633
  986MOL0     H30090   5.218   0.656   2.753  0.9690  1.0293 -0.5584
  986MOL0     H30091   5.264   0.503   2.493  1.3258 -0.2582  1.6066
  986MOL0     H30092   5.230   0.671   2.481 -2.7174 -0.2849 -0.7206
  986MOL0     H30093   5.020   0.621   2.649 -2.9921  0.7446 -1.6414
  986MOL0     H30094   5.041   0.461   2.581  0.7932  0.1179  1.2583
  986MOL0     H30095   4.885   0.634   2.465  0.1917  4.2659 -0.5163
  986MOL0     H30096   5.028   0.719   2.412  1.5283 -0.3413  0.0785
  986MOL0     H30097   4.992   0.433   2.333  0.8401 -0.2816  0.4758
  986MOL0     H30098   5.099   0.561   2.268  1.3114 -0.7151  0.9957
  986MOL0     H30099   4.870   0.689   2.211 -0.6061 -0.5371 -0.0331
  986MOL0     H30100   4.802   0.533   2.254  0.2837  0.8440  2.9284
  986MOL0     H30101   4.965   0.601   1.995 -3.7401  3.4453  1.0060
  986MOL0     H30102   4.984   0.450   2.069 -1.7658 -1.3711 -1.2598
  986MOL0     H30103   4.739   0.401   2.043 -0.2902  0.3706  0.2692
  986MOL0     H30104   4.807   0.427   1.890  0.4079 -1.7912  1.7016
  986MOL0     H30105   4.559   0.604   2.122 -2.6005 -1.3895 -1.2288
  986MOL0     H30106   4.332   0.709   2.033  0.2694  0.1012  0.8379
  986MOL0     H30107   4.319   0.700   1.860  0.5351 -2.0191  0.2746
  986MOL0     H30108   4.404   0.930   1.837  1.4873 -1.2179 -0.1896
  986MOL0     H30109   4.463   0.923   1.999  0.8134 -1.9998 -1.9774
  986MOL0     H30110   4.154   0.893   1.948  1.4446 -1.1762 -1.3902
  986MOL0     H30111   4.247   0.942   2.093  0.7171  0.2600  0.2048
  986MOL0     H30112   4.248   1.099   1.832 -1.2469  0.4589 -0.8696
  986MOL0     H30113   4.286   1.154   1.999  3.0994 -1.2774 -1.4107
  986MOL0     H30114   4.230   1.358   2.002  0.1227  1.6956 -1.9157
  986MOL0     H30115   4.136   1.564   2.071 -0.4110  0.2955 -3.3911
  986MOL0     H30116   3.504   1.720   2.169 -0.2580 -1.6935 -1.2245
  986MOL0     H30117   3.371   1.887   2.077  0.4629  0.6674 -0.4185
  986MOL0     H30118   3.565   2.164   1.773 -1.2231 -5.4696 -0.1671
  986MOL0     H30119   3.540   2.195   1.941  2.1949 -0.9503 -0.9080
  986MOL0     H30120   3.403   2.357   1.838 -0.7188 -0.2008  0.9971
  986MOL0     H30121   3.283   2.234   1.861  0.8996 -1.4947  0.8711
  986MOL0     H30122   3.231   2.280   1.641 -0.4323  1.4162 -0.2217
  986MOL0     H30123   3.350   2.151   1.620 -3.1669 -0.2286 -0.5505
  986MOL0     H30124   3.377   2.449   1.585  1.2533  0.1910 -1.3788
  986MOL0     H30125   3.522   2.344   1.606  0.9662 -1.9465 -1.4319
  986MOL0     H30126   3.464   2.433   1.375 -0.7240 -0.4597 -1.6444
  986MOL0     H30127   3.326   2.322   1.381  1.0071  0.0986 -1.5566
  986MOL0     H30128   3.498   2.182   1.272 -0.1204  2.8643 -0.5812
  986MOL0     H30129   3.515   2.137   1.442  1.3961 -1.4891 -1.3054
  986MOL0     H30130   3.662   2.369   1.326 -1.2177  0.9317  2.1952
  986MOL0     H30131   3.702   2.304   1.482  0.4907 -2.3333 -0.0331
  986MOL0     H30132   3.842   2.227   1.264  0.1885 -1.2468 -2.1126
  986MOL0     H30133   3.709   2.105   1.246  1.4323 -3.4354  0.9836
  986MOL0     H30134   3.672   1.988   1.796  1.8983 -0.5555 -0.0825
  986MOL0     H30135   3.823   1.819   1.871 -1.2761  1.7053 -1.8780
  986MOL0     H30136   3.743   1.420   1.992  0.6280  0.3509 -0.6920
  986MOL0     H30137   3.834   1.194   1.943  1.1471  0.2072 -3.4749
  986MOL0     H30138   5.134   0.331   2.882 -1.6257  0.3624  0.1937
  986MOL0     H30139   5.178   0.258   3.112  0.0510 -0.2561  0.6212
  986MOL0     H30140   5.154   0.288   3.590 -0.1455  0.6412  1.9248
  986MOL0     H30141   5.284   0.289   3.815  0.9296  0.0663  0.2353
  986MOL0     H30142   5.579   0.425   3.851 -0.7391 -0.0848  2.6652
  986MOL0     H30143   5.715   0.308   3.803 -1.4900 -4.1531 -0.4522
  986MOL0     H30144   5.615   0.353   4.082  0.9729 -1.6767  0.8531
  986MOL0     H30145   5.729   0.233   4.028  0.8696  0.5430  0.2004
  986MOL0     H30146   5.841   0.457   4.131 -0.0709  4.0137 -1.4839
  986MOL0     H30147   5.789   0.521   3.969  0.8323 -0.8452 -1.8090
  986MOL0     H30148   5.939   0.362   3.857 -3.4048  0.3493 -0.1698
  986MOL0     H30149   6.014   0.477   3.974 -1.4686  1.1929 -1.0590
  986MOL0     H30150   6.072   0.090   4.151 -0.1296 -0.0843 -0.0498
  986MOL0     H30151   5.641   0.210   3.617  0.1209  1.2781  0.8300
  986MOL0     H30152   5.526   0.229   3.396 -1.1143  1.5683 -0.4280
  987MOL0     O30153   4.208   8.960  11.324  0.5113 -0.2816 -0.5178
  987MOL0     C30154   4.112   8.880  11.326  0.6899 -0.6004 -0.6039
  987MOL0     O30155   4.111   8.759  11.283 -0.3336  0.6087  0.6143
  987MOL0     C30156   4.226   8.720  11.216 -0.8085  0.0700 -0.1108
  987MOL0     C30157   4.225   8.734  11.079  0.2143 -0.0121  0.5751
  987MOL0     C30158   4.343   8.705  11.013  0.0117  0.4879 -0.0413
  987MOL0     C30159   4.445   8.647  11.085  0.0335 -0.3933 -0.0554
  987MOL0     O30160   4.561   8.597  11.031  0.3731  0.6428  0.1614
  987MOL0     C30161   4.539   8.517  10.914 -0.3145  0.3786  0.3654
  987MOL0     C30162   4.645   8.415  10.900 -0.5134 -0.5125  0.1027
  987MOL0     C30163   4.765   8.487  10.840 -0.4103 -0.1400  0.2237
  987MOL0     C30164   4.871   8.396  10.783  0.5992  0.5451  0.0914
  987MOL0     C30165   4.977   8.469  10.707 -0.4097 -0.1258 -0.1385
  987MOL0     C30166   5.075   8.375  10.654  0.0181 -0.1326  1.1945
  987MOL0     C30167   5.113   8.410  10.511  0.4240  0.0608 -0.2619
  987MOL0     C30168   5.239   8.335  10.467  0.5864 -0.1393  0.8210
  987MOL0     N30169   5.250   8.346  10.327  0.2335 -0.1422  0.3561
  987MOL0     C30170   5.343   8.423  10.255 -0.0683  0.4374  0.1947
  987MOL0     C30171   5.297   8.411  10.126 -0.5614 -0.6215  0.1268
  987MOL0     C30172   5.375   8.453  10.010 -0.3447  0.3296  0.1497
  987MOL0     C30173   5.519   8.400   9.999 -0.6127  0.3412  0.2221
  987MOL0     C30174   5.540   8.253  10.027  0.5269  0.0510  0.5172
  987MOL0     C30175   5.444   8.161   9.947 -0.1048 -0.1457  0.8613
  987MOL0     O30176   5.469   8.017   9.954 -0.5814  0.1603 -0.2164
  987MOL0     C30177   5.422   7.936   9.852  1.0942 -0.1372 -0.0805
  987MOL0     C30178   5.332   7.985   9.760 -0.1546 -0.0938  0.3099
  987MOL0     C30179   5.270   7.882   9.678  0.0056 -0.9518  0.4543
  987MOL0     C30180   5.307   7.746   9.682 -0.2468  0.7794 -0.0112
  987MOL0     C30181   5.238   7.644   9.598 -0.2504  0.1269  0.1638
  987MOL0     O30182   5.133   7.696   9.530  0.7767  0.0239  0.3767
  987MOL0     C30183   5.063   7.606   9.456 -0.3654 -0.3744 -0.2515
  987MOL0     C30184   5.099   7.564   9.329  0.0858  0.0040 -0.0166
  987MOL0     C30185   5.018   7.478   9.260 -1.0014 -0.3165  0.6750
  987MOL0     C30186   4.895   7.442   9.309 -0.0301 -0.4638  0.5598
  987MOL0     O30187   4.799   7.361   9.256 -0.7754 -0.6291  0.3456
  987MOL0     C30188   4.831   7.299   9.131 -0.8413  1.0039  0.4091
  987MOL0     C30189   4.731   7.191   9.091 -0.5600 -0.6899 -0.5240
  987MOL0     C30190   4.603   7.271   9.052 -0.7851  0.5096  0.2613
  987MOL0     C30191   4.500   7.161   9.016  0.2993 -0.1600  0.7798
  987MOL0     C30192   4.363   7.215   8.979  0.7791 -1.2962  0.7711
  987MOL0     C30193   4.259   7.116   8.960  0.1088  0.0852 -0.3059
  987MOL0     C30194   4.227   7.037   9.085 -0.3872  0.1861 -0.7280
  987MOL0     C30195   4.119   6.934   9.046 -0.6770  0.6331  0.3242
  987MOL0    Cl30196   3.966   7.003   9.004  0.0239 -0.5365 -0.1865
  987MOL0     C30197   4.853   7.491   9.433  0.2769  1.1516 -0.2025
  987MOL0     C30198   4.941   7.569   9.504  0.0632 -0.0066  0.0869
  987MOL0     O30199   5.276   7.523   9.598 -0.3432 -0.1820  0.3005
  987MOL0     C30200   5.397   7.712   9.779 -0.5175 -0.5370  0.7477
  987MOL0     C30201   5.454   7.807   9.859 -0.6142  0.5320 -0.1227
  987MOL0     N30202   5.191   8.330  10.115 -0.3602  0.4443  0.0052
  987MOL0     N30203   5.165   8.290  10.233 -0.4430  1.0349 -0.3996
  987MOL0     C30204   4.442   8.646  11.225 -0.1233 -0.0961  0.9620
  987MOL0     C30205   4.331   8.672  11.289 -0.6767  0.0845 -0.1461
  987MOL0     C30206   3.984   8.918  11.399 -0.0963  0.2635 -0.5828
  987MOL0     C30207   3.977   9.041  11.457  0.2523  0.0194 -0.1554
  987MOL0     C30208   3.864   9.087  11.509  0.3317  0.2419  0.1599
  987MOL0     C30209   3.749   8.995  11.540 -0.3012  0.1191 -0.2623
  987MOL0     O30210   3.653   9.045  11.623  1.3425  0.3729 -0.2158
  987MOL0     C30211   3.541   8.960  11.648  0.2422  0.4655 -0.7997
  987MOL0     C30212   3.451   9.041  11.748 -0.2734  0.2668  0.3198
  987MOL0     C30213   3.333   8.963  11.812  0.3924  0.5273 -0.4135
  987MOL0     C30214   3.243   9.046  11.907  0.3976 -0.3869  0.4410
  987MOL0     C30215   3.183   9.166  11.839  0.7720 -0.7989 -0.4035
  987MOL0     C30216   3.148   9.268  11.776  0.0794 -0.0721  0.4633
  987MOL0     C30217   3.747   8.865  11.481 -0.4810 -1.1869 -0.3209
  987MOL0     C30218   3.868   8.831  11.407 -0.1428  0.2252 -0.0396
  987MOL0     H30219   4.141   8.778  11.027 -0.0404 -2.1508 -0.9185
  987MOL0     H30220   4.346   8.719  10.906  1.4821 -4.4707 -0.8928
  987MOL0     H30221   4.530   8.579  10.825  1.8059 -0.5247 -0.5313
  987MOL0     H30222   4.445   8.462  10.924 -0.1648 -0.3580 -1.7517
  987MOL0     H30223   4.614   8.336  10.832  0.8771 -0.4841 -0.5952
  987MOL0     H30224   4.666   8.358  10.991 -1.7308 -2.2058 -0.6217
  987MOL0     H30225   4.809   8.560  10.909 -1.5842  0.1983  0.6415
  987MOL0     H30226   4.734   8.546  10.754 -3.6762 -0.3018  1.1478
  987MOL0     H30227   4.914   8.342  10.868 -1.6734  1.2531  1.8063
  987MOL0     H30228   4.825   8.336  10.703  3.4273 -1.7432  0.0174
  987MOL0     H30229   5.032   8.543  10.766  1.4767 -1.9272  0.5020
  987MOL0     H30230   4.923   8.518  10.625  1.9724 -0.9018 -2.3000
  987MOL0     H30231   5.043   8.270  10.651  2.3681 -0.8784 -0.0924
  987MOL0     H30232   5.160   8.377  10.724  0.8977 -1.5608  0.2295
  987MOL0     H30233   5.030   8.368  10.454 -0.2902 -0.6275  1.2233
  987MOL0     H30234   5.121   8.518  10.497  3.5873 -0.3733 -3.0113
  987MOL0     H30235   5.228   8.231  10.499  0.8117 -0.3627  0.1913
  987MOL0     H30236   5.321   8.392  10.511  2.1273  0.0618 -2.0588
  987MOL0     H30237   5.438   8.469  10.283 -0.5408  1.8514 -0.4380
  987MOL0     H30238   5.389   8.561  10.016 -0.3334  0.4280 -1.2130
  987MOL0     H30239   5.324   8.432   9.916 -0.7321 -1.0484  0.6373
  987MOL0     H30240   5.578   8.457  10.071 -0.7116  0.2074  0.4099
  987MOL0     H30241   5.571   8.422   9.906  1.7558  1.0061  1.6196
  987MOL0     H30242   5.647   8.235  10.014  1.4865  3.8455  1.6173
  987MOL0     H30243   5.523   8.236  10.134 -1.1166 -0.0745  0.2642
  987MOL0     H30244   5.447   8.194   9.843 -0.5860  0.8212  1.1410
  987MOL0     H30245   5.340   8.179   9.976 -0.0173  1.1925  0.3784
  987MOL0     H30246   5.295   8.086   9.763  2.1859  0.8155  2.3812
  987MOL0     H30247   5.198   7.924   9.608 -0.6334  1.8372  2.5986
  987MOL0     H30248   5.194   7.601   9.293 -0.0044  0.9939  0.7290
  987MOL0     H30249   5.056   7.444   9.164 -0.2329  1.0826  0.4510
  987MOL0     H30250   4.930   7.252   9.131 -1.1897  0.2185 -0.5371
  987MOL0     H30251   4.834   7.367   9.045 -2.3885  3.6797  2.3468
  987MOL0     H30252   4.710   7.123   9.174 -0.7302  1.2869  1.1414
  987MOL0     H30253   4.777   7.134   9.009  1.2968 -0.3838  0.2608
  987MOL0     H30254   4.643   7.333   8.971  0.3549 -1.5709 -0.8901
  987MOL0     H30255   4.555   7.327   9.132 -1.3453 -0.9931  1.0212
  987MOL0     H30256   4.544   7.096   8.939 -0.8303  0.7463 -0.6952
  987MOL0     H30257   4.494   7.097   9.104  0.4079 -1.1237  0.1002
  987MOL0     H30258   4.379   7.266   8.884 -3.1203  1.7080  1.4596
  987MOL0     H30259   4.329   7.288   9.053  2.0714  1.2173 -0.9523
  987MOL0     H30260   4.283   7.049   8.878  1.1055  3.7178 -3.2517
  987MOL0     H30261   4.174   7.181   8.935 -2.1704 -1.4892  2.6635
  987MOL0     H30262   4.303   6.981   9.140 -1.2642 -0.2075  0.1122
  987MOL0     H30263   4.178   7.112   9.148  1.0615 -1.0095  1.9782
  987MOL0     H30264   4.107   6.868   9.133 -1.5422  0.2994 -0.0359
  987MOL0     H30265   4.151   6.880   8.956  3.6725  3.5316 -0.1666
  987MOL0     H30266   4.753   7.470   9.470 -0.4906  1.0760 -2.1961
  987MOL0     H30267   4.910   7.592   9.606 -1.9132 -1.1564 -0.1865
  987MOL0     H30268   5.429   7.608   9.785 -2.4519 -1.1060  2.2353
  987MOL0     H30269   5.523   7.781   9.939 -1.3643 -3.6594 -0.6325
  987MOL0     H30270   4.528   8.614  11.282 -0.6694  1.2732  2.6400
  987MOL0     H30271   4.329   8.667  11.398  2.2404  0.2208 -0.0059
  987MOL0     H30272   4.051   9.120  11.465 -0.2366  0.4896 -0.1482
  987MOL0     H30273   3.860   9.189  11.545 -0.1832  1.2828 -2.6354
  987MOL0     H30274   3.570   8.870  11.703 -1.0113  0.0157 -0.8458
  987MOL0     H30275   3.493   8.931  11.554 -2.2914  0.8691  0.2882
  987MOL0     H30276   3.521   9.084  11.821 -0.7293  5.2990 -1.8155
  987MOL0     H30277   3.415   9.118  11.680  0.1181 -0.2262 -0.4664
  987MOL0     H30278   3.386   8.888  11.870 -2.1332  0.3211  1.8516
  987MOL0     H30279   3.266   8.922  11.736 -2.4636  4.6355 -0.4830
  987MOL0     H30280   3.171   8.977  11.952  0.5931  0.0750  1.4904
  987MOL0     H30281   3.307   9.081  11.988  0.6159 -2.6765  1.3564
  987MOL0     H30282   3.117   9.338  11.701 -2.2290 -1.0276  0.4293
  987MOL0     H30283   3.657   8.804  11.483  0.2780 -2.3124  0.7379
  987MOL0     H30284   3.859   8.739  11.350  0.3352  0.4588 -0.5024
  988MOL0     O30285   3.948   6.939   5.882  0.3904  0.8320  0.5218
  988MOL0     C30286   3.943   7.002   5.981  0.5891  0.4632  0.7148
  988MOL0     O30287   3.828   7.033   6.032 -0.0622 -0.6379  0.5596
  988MOL0     C30288   3.745   7.141   5.983 -0.4187  0.4904  0.7136
  988MOL0     C30289   3.662   7.202   6.084  0.4174  0.6330 -0.3194
  988MOL0     C30290   3.600   7.321   6.056  0.0663  0.7895  0.5087
  988MOL0     C30291   3.619   7.387   5.933 -0.3733  0.3437 -1.5597
  988MOL0     O30292   3.570   7.520   5.926  0.2904  0.2765  0.4457
  988MOL0     C30293   3.561   7.587   5.797  0.4694  0.1972  0.1413
  988MOL0     C30294   3.532   7.732   5.826 -0.8469  0.1907  0.1525
  988MOL0     C30295   3.512   7.834   5.712  0.7871  0.0150  0.5578
  988MOL0     C30296   3.364   7.818   5.657  1.3716  0.1723 -0.0767
  988MOL0     C30297   3.345   7.907   5.529  0.4085  0.4909  0.9693
  988MOL0     C30298   3.248   7.842   5.427  0.1966  1.0763 -0.8264
  988MOL0     C30299   3.251   7.918   5.298  0.3833 -0.0089  1.5981
  988MOL0     C30300   3.170   7.841   5.190 -0.0634 -0.2324 -0.4753
  988MOL0     N30301   3.250   7.722   5.143 -0.3465  0.4235 -0.1043
  988MOL0     C30302   3.353   7.722   5.066 -0.6713  0.5189  0.3599
  988MOL0     C30303   3.395   7.596   5.052  0.6991 -0.1154  0.7252
  988MOL0     C30304   3.513   7.554   4.976 -0.5443  0.3492 -0.2506
  988MOL0     C30305   3.453   7.508   4.843 -0.5903 -0.6783  0.1322
  988MOL0     C30306   3.367   7.608   4.757  0.8812 -0.4715  0.1949
  988MOL0     C30307   3.367   7.572   4.613 -0.5989 -0.4642 -0.4245
  988MOL0     O30308   3.265   7.467   4.604 -1.0022 -0.3499  0.9092
  988MOL0     C30309   3.323   7.346   4.573  0.5467  0.7172  0.0297
  988MOL0     C30310   3.407   7.335   4.468 -0.0240 -0.0138  1.1765
  988MOL0     C30311   3.472   7.211   4.433  0.8801 -0.1041 -0.0011
  988MOL0     C30312   3.460   7.107   4.521  0.3476 -0.1039  0.1183
  988MOL0     C30313   3.526   6.978   4.485 -0.7467 -0.6082  0.9857
  988MOL0     O30314   3.474   6.856   4.520  0.5597  0.4098 -0.3677
  988MOL0     C30315   3.523   6.746   4.460  0.2356  0.3316 -0.1596
  988MOL0     C30316   3.424   6.652   4.438 -0.4036  0.5472  0.1598
  988MOL0     C30317   3.448   6.526   4.388  0.2823  0.1584 -0.7236
  988MOL0     C30318   3.575   6.494   4.353 -0.5138 -0.7306  0.5124
  988MOL0     O30319   3.600   6.368   4.307  0.4316 -0.0609 -0.2295
  988MOL0     C30320   3.729   6.306   4.304  0.4965 -0.7766  0.2421
  988MOL0     C30321   3.726   6.161   4.347  0.1479  0.1893 -0.7443
  988MOL0     C30322   3.618   6.123   4.455  0.2711 -0.6429  0.8128
  988MOL0     C30323   3.642   6.186   4.597 -0.2144  0.2154  0.2817
  988MOL0     C30324   3.520   6.142   4.680 -0.0726  0.3207  0.0581
  988MOL0     C30325   3.511   6.211   4.809  0.0864  0.0694  0.1968
  988MOL0     C30326   3.439   6.131   4.911 -0.5288  0.5247 -1.0273
  988MOL0     C30327   3.293   6.099   4.875  0.1350 -0.0857  0.7598
  988MOL0    Cl30328   3.195   6.026   5.006  0.0763 -0.1812 -0.1006
  988MOL0     C30329   3.678   6.591   4.378 -0.1548  0.4851 -0.4550
  988MOL0     C30330   3.656   6.714   4.431 -0.2552 -0.4612 -0.1231
  988MOL0     O30331   3.627   6.991   4.417  0.1365 -0.6524  0.8370
  988MOL0     C30332   3.365   7.114   4.624 -0.5412  0.6848 -0.0920
  988MOL0     C30333   3.298   7.233   4.649 -0.2289 -0.3647  0.0218
  988MOL0     N30334   3.297   7.519   5.101  0.1765  0.2660 -0.1523
  988MOL0     N30335   3.211   7.592   5.160  0.3878 -0.7999  0.6941
  988MOL0     C30336   3.696   7.323   5.835 -0.2137 -0.6575 -0.0888
  988MOL0     C30337   3.742   7.193   5.857 -0.7481 -0.0822  0.1690
  988MOL0     C30338   4.070   7.022   6.062  0.3489 -0.1153 -0.1300
  988MOL0     C30339   4.065   7.099   6.174 -0.6291 -0.1019  0.5435
  988MOL0     C30340   4.169   7.102   6.270 -0.0712 -1.0856  0.4624
  988MOL0     C30341   4.289   7.041   6.235  1.0688  0.4528 -0.7185
  988MOL0     O30342   4.394   7.073   6.302 -0.6616  0.4703 -0.5464
  988MOL0     C30343   4.497   6.985   6.338 -0.2197 -0.1903  0.4354
  988MOL0     C30344   4.433   6.851   6.385 -0.6284  0.2306 -0.7644
  988MOL0     C30345   4.369   6.864   6.526  0.1390 -0.8566  0.3469
  988MOL0     C30346   4.251   6.767   6.555 -0.0240 -1.2718  0.6208
  988MOL0     C30347   4.145   6.798   6.464 -0.1115 -0.4914 -0.2963
  988MOL0     C30348   4.060   6.814   6.379 -0.5322  0.2463 -0.3620
  988MOL0     C30349   4.293   6.971   6.113 -0.3889 -0.4142 -0.2648
  988MOL0     C30350   4.190   6.967   6.020  0.5573 -0.4759 -0.6915
  988MOL0     H30351   3.648   7.161   6.183  0.7842 -0.2650 -0.6353
  988MOL0     H30352   3.549   7.372   6.137  2.5319  0.1110  2.5866
  988MOL0     H30353   3.493   7.546   5.722  4.1849  0.4219 -3.7719
  988MOL0     H30354   3.662   7.579   5.755  0.3946 -3.3906  0.3796
  988MOL0     H30355   3.620   7.762   5.884 -1.1047 -0.5640  0.9498
  988MOL0     H30356   3.448   7.747   5.894 -0.8276 -0.1596  0.2541
  988MOL0     H30357   3.569   7.805   5.623 -0.1904 -1.6812  0.4433
  988MOL0     H30358   3.538   7.938   5.734 -0.6639  0.7911 -1.1098
  988MOL0     H30359   3.344   7.715   5.627 -1.4182  1.1462 -1.9882
  988MOL0     H30360   3.296   7.861   5.731  1.9598  0.1147  0.5045
  988MOL0     H30361   3.434   7.917   5.467  0.7753  0.3902  1.4762
  988MOL0     H30362   3.318   8.010   5.554  0.8120  0.2324  2.5337
  988MOL0     H30363   3.147   7.845   5.470 -0.8723 -0.1799 -3.0839
  988MOL0     H30364   3.271   7.736   5.411  0.4373  0.9399  0.3660
  988MOL0     H30365   3.209   8.018   5.311 -1.5025 -0.4261 -0.5494
  988MOL0     H30366   3.353   7.928   5.259 -0.7912 -1.3952 -2.3406
  988MOL0     H30367   3.132   7.902   5.108 -2.0774 -0.0740  0.5031
  988MOL0     H30368   3.077   7.803   5.233 -0.8756  1.9385 -0.1732
  988MOL0     H30369   3.411   7.807   5.033 -3.3859  1.8199 -1.4340
  988MOL0     H30370   3.577   7.474   5.014  2.3494  2.1221 -1.0782
  988MOL0     H30371   3.583   7.638   4.967  2.1403 -1.0637  4.2429
  988MOL0     H30372   3.392   7.419   4.856  0.4816 -1.6555 -1.2335
  988MOL0     H30373   3.543   7.479   4.788  0.0963  0.7660  0.4411
  988MOL0     H30374   3.262   7.605   4.788  1.4280 -3.2667  2.1659
  988MOL0     H30375   3.401   7.711   4.765 -1.3276  0.6412 -2.6384
  988MOL0     H30376   3.469   7.556   4.577  2.1855  3.1458  4.6675
  988MOL0     H30377   3.330   7.664   4.567  2.7502  0.2258 -2.0700
  988MOL0     H30378   3.409   7.413   4.392 -2.7202 -0.2593  0.7450
  988MOL0     H30379   3.542   7.216   4.351  1.1305 -0.0276  0.2155
  988MOL0     H30380   3.322   6.677   4.466 -0.0607  0.1788  1.8199
  988MOL0     H30381   3.369   6.454   4.367  1.8947 -2.1480  0.6961
  988MOL0     H30382   3.794   6.356   4.376  0.4918  1.7905 -1.4227
  988MOL0     H30383   3.759   6.318   4.200  0.0852 -0.5961  0.1437
  988MOL0     H30384   3.831   6.143   4.371  0.9054 -1.6196 -4.6580
  988MOL0     H30385   3.709   6.087   4.268  0.0035 -0.0782 -0.4645
  988MOL0     H30386   3.596   6.016   4.467 -0.8228 -0.8997 -2.4563
  988MOL0     H30387   3.527   6.158   4.405  0.2680 -0.6997  0.7792
  988MOL0     H30388   3.733   6.152   4.647 -0.8858 -0.2376  1.2082
  988MOL0     H30389   3.646   6.295   4.590 -1.6006  0.3237  0.9582
  988MOL0     H30390   3.528   6.033   4.688 -2.5161  0.2037  1.7499
  988MOL0     H30391   3.423   6.163   4.634 -0.3443 -0.2950  0.3383
  988MOL0     H30392   3.467   6.308   4.784  0.1151 -0.4457 -2.0483
  988MOL0     H30393   3.611   6.229   4.849 -0.2516  0.7703  0.7548
  988MOL0     H30394   3.498   6.044   4.942  2.7434  2.7188 -0.6429
  988MOL0     H30395   3.428   6.180   5.008  2.4996 -0.7734  0.0881
  988MOL0     H30396   3.284   6.028   4.792 -0.0353 -0.2846  0.9491
  988MOL0     H30397   3.251   6.188   4.828  2.2609 -0.7939 -2.8653
  988MOL0     H30398   3.779   6.556   4.359  0.1979  0.6160  1.0973
  988MOL0     H30399   3.745   6.774   4.446  1.0753 -2.5382  0.7473
  988MOL0     H30400   3.346   7.030   4.690 -0.6550  1.1610  0.4938
  988MOL0     H30401   3.235   7.258   4.735  1.9215  2.0975  1.0275
  988MOL0     H30402   3.720   7.374   5.743  3.4350 -0.9292  0.5441
  988MOL0     H30403   3.792   7.140   5.776  0.2087  2.2568 -0.8457
  988MOL0     H30404   3.979   7.163   6.191  0.9907  3.9122 -3.9766
  988MOL0     H30405   4.171   7.176   6.349 -3.1574 -1.1064  0.6703
  988MOL0     H30406   4.563   7.025   6.415  0.3973  1.6877 -0.9712
  988MOL0     H30407   4.554   6.965   6.246  0.3319  3.0586 -0.0677
  988MOL0     H30408   4.371   6.803   6.308  1.0594 -0.2772 -1.8534
  988MOL0     H30409   4.518   6.783   6.385 -1.9522 -1.5508 -2.3429
  988MOL0     H30410   4.344   6.968   6.547  1.8895 -0.2854 -0.1984
  988MOL0     H30411   4.452   6.847   6.595  0.7583 -2.2777 -0.7049
  988MOL0     H30412   4.289   6.667   6.530  1.4324 -1.1384  2.1822
  988MOL0     H30413   4.215   6.771   6.658 -1.3981 -2.5727  0.2393
  988MOL0     H30414   4.007   6.828   6.287 -0.7297  2.7690  0.0458
  988MOL0     H30415   4.387   6.920   6.094 -1.1316 -3.0097  2.3311
  988MOL0     H30416   4.201   6.920   5.922  0.1597 -2.5636  0.2177
  989MOL0     O30417   9.192   4.999  10.930 -0.3921  0.5868 -0.0057
  989MOL0     C30418   9.197   5.116  10.968 -0.5209  0.4520  0.1126
  989MOL0     O30419   9.097   5.203  10.986  0.1117 -0.1085  0.3164
  989MOL0     C30420   8.962   5.179  10.973 -0.6435 -0.6252 -0.4587
  989MOL0     C30421   8.872   5.230  11.071 -0.1068 -0.4447  0.2488
  989MOL0     C30422   8.734   5.216  11.061 -0.0062 -0.1780  0.3605
  989MOL0     C30423   8.680   5.159  10.947  0.1073 -0.9436  0.2241
  989MOL0     O30424   8.548   5.156  10.912 -0.0679  0.3347 -0.3728
  989MOL0     C30425   8.445   5.165  11.011  0.1573 -0.2779 -0.8389
  989MOL0     C30426   8.312   5.172  10.946 -0.2921  0.1272  0.2400
  989MOL0     C30427   8.203   5.204  11.043  0.3969 -0.6568 -0.5986
  989MOL0     C30428   8.217   5.344  11.109  0.8226 -0.1749  0.1917
  989MOL0     C30429   8.077   5.370  11.180  0.0490 -0.8235  0.1336
  989MOL0     C30430   8.068   5.505  11.246 -0.0961  0.1168  0.2942
  989MOL0     C30431   7.954   5.507  11.352  1.0199  0.3766 -0.1635
  989MOL0     C30432   7.972   5.621  11.446  0.2230  0.5156  0.7462
  989MOL0     N30433   8.059   5.571  11.557  0.9713 -0.2817  0.3067
  989MOL0     C30434   8.020   5.497  11.668  0.5573 -0.4941 -1.0157
  989MOL0     C30435   8.124   5.419  11.700 -0.0705  0.3323  0.8732
  989MOL0     C30436   8.137   5.318  11.809 -0.1792 -0.1220 -0.3547
  989MOL0     C30437   8.010   5.240  11.822  0.0465 -0.0103 -0.8379
  989MOL0     C30438   8.028   5.103  11.883 -0.3728  0.4699 -0.2204
  989MOL0     C30439   7.906   5.033  11.947 -0.4288 -0.4304 -0.4637
  989MOL0     O30440   7.879   5.075  12.079  0.3494  0.3208  0.1070
  989MOL0     C30441   7.799   5.185  12.089 -0.5469  0.5683  0.3385
  989MOL0     C30442   7.840   5.291  12.174 -0.0694  0.0226 -1.1227
  989MOL0     C30443   7.753   5.404  12.193 -0.3867 -0.5253 -0.8339
  989MOL0     C30444   7.626   5.408  12.124  0.3937  0.1562 -0.2845
  989MOL0     C30445   7.543   5.524  12.156 -1.5497 -1.1158 -1.0222
  989MOL0     O30446   7.408   5.510  12.132  0.1361 -0.5056  0.4790
  989MOL0     C30447   7.322   5.615  12.174 -0.1910  0.7265 -0.8383
  989MOL0     C30448   7.337   5.744  12.139 -0.4247  0.6176  0.4011
  989MOL0     C30449   7.237   5.836  12.168  0.2982  1.2040 -0.1658
  989MOL0     C30450   7.128   5.804  12.250  0.0604  0.2039  0.4761
  989MOL0     O30451   7.044   5.908  12.268 -0.3611 -0.6950 -0.3739
  989MOL0     C30452   6.922   5.897  12.340  0.8055 -0.0848 -0.3779
  989MOL0     C30453   6.790   5.896  12.252 -0.1002 -0.1180  0.4799
  989MOL0     C30454   6.665   5.878  12.336 -0.6352 -0.5143  0.3638
  989MOL0     C30455   6.548   5.862  12.232  0.1273  0.3521 -0.0237
  989MOL0     C30456   6.445   5.766  12.301 -0.5473  0.6027  0.5903
  989MOL0     C30457   6.321   5.735  12.231 -0.0476  0.3057  0.6781
  989MOL0     C30458   6.225   5.640  12.306  0.3522 -0.1123  0.4296
  989MOL0     C30459   6.108   5.595  12.233  1.1180  0.1081 -0.6362
  989MOL0    Cl30460   6.156   5.503  12.097 -0.0378  0.0722  0.0075
  989MOL0     C30461   7.118   5.673  12.295 -0.1103  0.1776  0.4884
  989MOL0     C30462   7.214   5.577  12.258  0.5899  0.8906 -0.3164
  989MOL0     O30463   7.596   5.634  12.197 -0.3846 -0.1391  0.5612
  989MOL0     C30464   7.584   5.311  12.045 -0.0128  0.3895 -0.5418
  989MOL0     C30465   7.667   5.197  12.037 -0.1961  0.1435  1.5662
  989MOL0     N30466   8.230   5.466  11.629 -0.2303  0.4487 -0.4364
  989MOL0     N30467   8.195   5.553  11.543 -0.1221  0.2154 -0.3545
  989MOL0     C30468   8.764   5.099  10.859  0.6972 -1.4281 -0.2689
  989MOL0     C30469   8.905   5.095  10.883  0.1011 -0.0086 -0.7947
  989MOL0     C30470   9.326   5.180  11.001  1.1592 -0.4891  0.1785
  989MOL0     C30471   9.437   5.094  10.998  0.3362  0.1772 -0.4735
  989MOL0     C30472   9.565   5.141  11.017  0.4954 -0.6517 -0.1300
  989MOL0     C30473   9.595   5.271  11.061 -0.5725  1.7734  0.2543
  989MOL0     O30474   9.730   5.279  11.077  0.0809  0.2029 -0.1556
  989MOL0     C30475   9.779   5.401  11.116 -0.0613  0.4816 -0.2491
  989MOL0     C30476   9.879   5.379  11.228 -1.2072 -0.3031  0.6310
  989MOL0     C30477   9.999   5.292  11.181 -0.2533 -0.1948  0.3418
  989MOL0     C30478  10.090   5.268  11.298 -0.3777  0.1719  0.5620
  989MOL0     C30479  10.162   5.394  11.340 -0.4543 -0.8951  0.0905
  989MOL0     C30480  10.227   5.484  11.390  0.5850  0.4581  0.6507
  989MOL0     C30481   9.487   5.361  11.071  0.3329  0.0219 -0.0105
  989MOL0     C30482   9.354   5.317  11.041 -0.2407 -0.0723 -0.2462
  989MOL0     H30483   8.908   5.294  11.152 -0.6970  1.7477 -1.1273
  989MOL0     H30484   8.659   5.260  11.126  0.2286  1.0397 -0.1747
  989MOL0     H30485   8.456   5.253  11.075  0.1060 -1.9042  1.5048
  989MOL0     H30486   8.463   5.080  11.077 -2.3281 -0.5600 -0.4157
  989MOL0     H30487   8.277   5.083  10.893  0.8470 -0.3380  0.2241
  989MOL0     H30488   8.324   5.251  10.871 -0.9196 -1.2509 -1.3755
  989MOL0     H30489   8.206   5.132  11.125 -0.2161  2.0045  1.9387
  989MOL0     H30490   8.104   5.195  10.998  0.4902 -1.8632 -0.5945
  989MOL0     H30491   8.300   5.350  11.181 -0.2866  2.7746  1.3965
  989MOL0     H30492   8.231   5.422  11.033  1.3640  0.9336  1.3746
  989MOL0     H30493   8.063   5.288  11.250  0.1061  0.1677  1.3391
  989MOL0     H30494   8.000   5.375  11.102 -0.3880  1.8412  0.6539
  989MOL0     H30495   8.036   5.576  11.168 -1.0161 -0.8189 -0.2024
  989MOL0     H30496   8.166   5.529  11.289  0.5697 -2.1834  0.2076
  989MOL0     H30497   7.853   5.514  11.310  0.0202 -1.2754  1.7868
  989MOL0     H30498   7.955   5.409  11.401  1.1547 -1.0850 -2.8670
  989MOL0     H30499   7.874   5.629  11.494  0.2254 -1.3680  1.1354
  989MOL0     H30500   8.004   5.715  11.400  0.4767  0.2409  0.3597
  989MOL0     H30501   7.926   5.469  11.714 -0.9821  1.2143 -2.9080
  989MOL0     H30502   8.152   5.372  11.904 -4.0587  1.3097 -0.3813
  989MOL0     H30503   8.225   5.257  11.786  0.0087 -0.2382  0.6145
  989MOL0     H30504   7.958   5.228  11.727  0.5747 -1.9045 -0.9393
  989MOL0     H30505   7.948   5.292  11.896  0.6581 -1.4304  0.7383
  989MOL0     H30506   8.056   5.051  11.791 -0.1980 -0.1737  0.1871
  989MOL0     H30507   8.107   5.103  11.959 -1.2409 -0.4142  0.7116
  989MOL0     H30508   7.939   4.931  11.967  1.6271  0.3308  0.3033
  989MOL0     H30509   7.820   5.035  11.879 -1.9617 -0.8633  1.3786
  989MOL0     H30510   7.944   5.281  12.204 -0.8105  1.0340  2.0839
  989MOL0     H30511   7.788   5.485  12.256  1.0144  0.0295 -2.2748
  989MOL0     H30512   7.419   5.772  12.073 -1.4423  0.8775 -0.7957
  989MOL0     H30513   7.249   5.939  12.135  4.5882  0.7247 -0.6978
  989MOL0     H30514   6.908   5.992  12.391 -1.2725 -1.1882  1.2409
  989MOL0     H30515   6.936   5.810  12.405 -1.0835 -2.0225 -2.3590
  989MOL0     H30516   6.811   5.822  12.174  2.4662  0.0274  0.9244
  989MOL0     H30517   6.792   5.991  12.198  0.5335 -0.0786  0.5562
  989MOL0     H30518   6.640   5.971  12.388 -1.5618  1.2801 -2.9490
  989MOL0     H30519   6.681   5.790  12.398  0.2756 -1.9729 -1.8082
  989MOL0     H30520   6.496   5.957  12.219  0.9012  0.6080 -1.4190
  989MOL0     H30521   6.582   5.821  12.137  1.9331  0.3423  0.5881
  989MOL0     H30522   6.421   5.799  12.402 -0.2169 -0.6393  1.0880
  989MOL0     H30523   6.497   5.670  12.311  1.1575  0.9393 -3.2518
  989MOL0     H30524   6.353   5.684  12.139 -3.6910 -2.4910  0.7463
  989MOL0     H30525   6.271   5.829  12.209  0.7244  0.1866 -1.9739
  989MOL0     H30526   6.287   5.560  12.347  1.6062  1.2595  1.3288
  989MOL0     H30527   6.197   5.706  12.389 -0.5838 -0.0480  0.0678
  989MOL0     H30528   6.049   5.683  12.203  3.4208  1.6946 -0.7708
  989MOL0     H30529   6.033   5.543  12.293 -0.1600  3.3349  0.8008
  989MOL0     H30530   7.031   5.634  12.347 -1.4419  2.4030  0.0749
  989MOL0     H30531   7.200   5.471  12.274  3.1798  0.4921 -0.2477
  989MOL0     H30532   7.483   5.317  12.004 -1.7736  2.7673  3.5663
  989MOL0     H30533   7.630   5.112  11.982 -0.1155  1.2876 -0.3653
  989MOL0     H30534   8.718   5.050  10.774 -1.7788 -0.0737  0.2167
  989MOL0     H30535   8.958   5.037  10.807  0.6454  0.7135 -0.9726
  989MOL0     H30536   9.438   4.990  10.968 -1.0706  0.4962 -1.7787
  989MOL0     H30537   9.627   5.052  11.029  0.5341 -0.6854 -0.5725
  989MOL0     H30538   9.703   5.473  11.150 -2.3238 -1.4181 -1.0237
  989MOL0     H30539   9.823   5.452  11.030 -1.9630 -1.2907 -2.3993
  989MOL0     H30540   9.920   5.480  11.232 -0.9141 -0.3122 -1.1509
  989MOL0     H30541   9.835   5.361  11.326  0.4372 -5.2411  0.7511
  989MOL0     H30542  10.047   5.336  11.093 -3.3938 -0.6269 -1.7212
  989MOL0     H30543   9.958   5.197  11.146 -1.7564  1.6473 -3.5348
  989MOL0     H30544  10.035   5.241  11.388 -2.5207 -2.3842 -1.3994
  989MOL0     H30545  10.154   5.186  11.266  0.2031  1.1660 -0.9648
  989MOL0     H30546  10.297   5.547  11.439  1.1006 -0.5309  1.2284
  989MOL0     H30547   9.497   5.467  11.094  0.5115  0.7102 -2.9128
  989MOL0     H30548   9.282   5.396  11.062  1.0452  2.0417 -3.1279
  990MOL0     O30549   0.780   1.906  10.991  0.2958  0.9390  0.0391
  990MOL0     C30550   0.738   1.989  11.069 -0.5238  0.4098  0.0454
  990MOL0     O30551   0.714   1.971  11.197 -0.6976 -1.0852  0.3132
  990MOL0     C30552   0.751   1.856  11.256 -0.4001  0.4527  0.3825
  990MOL0     C30553   0.875   1.832  11.308  0.5323  0.2533 -0.1872
  990MOL0     C30554   0.920   1.713  11.373  0.3452 -0.4806  0.1253
  990MOL0     C30555   0.825   1.612  11.389  0.5676  0.3641  0.1000
  990MOL0     O30556   0.874   1.497  11.449 -0.7640  0.3852  0.7441
  990MOL0     C30557   0.856   1.376  11.369 -0.0733 -0.6418  0.3985
  990MOL0     C30558   0.985   1.297  11.397 -0.4526 -0.0981 -0.5352
  990MOL0     C30559   0.985   1.152  11.344  0.0217 -0.0851 -0.7282
  990MOL0     C30560   0.876   1.072  11.429 -0.3125 -1.2703 -0.2186
  990MOL0     C30561   0.877   0.930  11.385  0.2832  0.9072  0.8014
  990MOL0     C30562   0.746   0.862  11.442 -0.3626  0.2978 -0.2272
  990MOL0     C30563   0.753   0.716  11.421 -0.6835  0.1901 -0.7128
  990MOL0     C30564   0.645   0.637  11.494  0.5555  0.1408  1.0917
  990MOL0     N30565   0.665   0.493  11.501  0.9720  0.2888  0.1103
  990MOL0     C30566   0.780   0.425  11.548 -0.1520  1.0806  0.0524
  990MOL0     C30567   0.756   0.294  11.512 -0.5504  0.5970 -0.2369
  990MOL0     C30568   0.848   0.175  11.535  0.5226  0.3124  0.4194
  990MOL0     C30569   0.882   0.164  11.687  0.3337 -0.2324  0.2247
  990MOL0     C30570   0.940   0.024  11.714 -0.8865  0.1930 -0.1654
  990MOL0     C30571   0.963  -0.004  11.867  0.3633  0.5428  0.2663
  990MOL0     O30572   1.071   0.071  11.912  0.3819  0.0974  0.2704
  990MOL0     C30573   1.176   0.026  11.993  0.2908  0.2308  0.2172
  990MOL0     C30574   1.296   0.103  12.003  0.0009  0.9373 -0.6341
  990MOL0     C30575   1.408   0.058  12.075 -0.6542  0.0658 -0.3101
  990MOL0     C30576   1.408  -0.064  12.144 -0.6067 -0.0767 -0.6540
  990MOL0     C30577   1.522  -0.117  12.217 -0.4527  0.2043 -0.4103
  990MOL0     O30578   1.637  -0.044  12.215  0.0477 -0.4749  0.4392
  990MOL0     C30579   1.734  -0.051  12.317  1.6147 -0.5725  0.1296
  990MOL0     C30580   1.861  -0.018  12.268 -0.2677 -0.7971  0.8707
  990MOL0     C30581   1.970  -0.016  12.363 -0.5208 -0.9177 -0.9646
  990MOL0     C30582   1.952  -0.051  12.492  0.1451  0.5091  0.4626
  990MOL0     O30583   2.063  -0.059  12.569  0.5709 -0.7406 -0.6738
  990MOL0     C30584   2.027  -0.043  12.710 -0.8158 -0.2862 -0.5199
  990MOL0     C30585   2.174  -0.017  12.763  0.2948 -0.6580  0.3324
  990MOL0     C30586   2.263  -0.142  12.758  0.2772 -0.4913  0.1146
  990MOL0     C30587   2.376  -0.129  12.853  0.0165 -0.2856 -0.0329
  990MOL0     C30588   2.476  -0.249  12.832  0.3452  0.4770 -0.1506
  990MOL0     C30589   2.411  -0.379  12.886 -0.1525 -0.8371  0.3118
  990MOL0     C30590   2.513  -0.490  12.888  0.5393 -0.0733 -0.0630
  990MOL0     C30591   2.608  -0.479  13.008 -0.0448  0.1725  0.0084
  990MOL0    Cl30592   2.729  -0.606  12.977  0.2248 -0.1702  0.1408
  990MOL0     C30593   1.820  -0.089  12.540  0.1487 -0.2865  0.1634
  990MOL0     C30594   1.709  -0.079  12.452  0.1731  0.2692  0.3033
  990MOL0     O30595   1.510  -0.218  12.285  0.4939  0.6115 -0.1673
  990MOL0     C30596   1.288  -0.139  12.136 -0.0655  0.2829  0.9250
  990MOL0     C30597   1.180  -0.103  12.057 -0.6027  0.2841  0.6034
  990MOL0     N30598   0.637   0.279  11.446  0.7273 -0.2214  0.8548
  990MOL0     N30599   0.583   0.397  11.449  0.4304  1.4565  1.2003
  990MOL0     C30600   0.693   1.638  11.341 -0.2001 -0.3787 -0.2603
  990MOL0     C30601   0.657   1.760  11.280  0.7739 -0.1021 -0.1281
  990MOL0     C30602   0.723   2.136  11.028  0.1264  0.0840  0.1629
  990MOL0     C30603   0.657   2.228  11.108  0.3777 -0.4210 -0.1678
  990MOL0     C30604   0.654   2.363  11.078 -0.3162 -0.6414 -0.0895
  990MOL0     C30605   0.715   2.405  10.960 -0.0703 -0.0653  1.0169
  990MOL0     O30606   0.725   2.541  10.939  0.5183  0.3762  1.0307
  990MOL0     C30607   0.835   2.611  10.996  0.1441 -1.0287 -0.6223
  990MOL0     C30608   0.830   2.765  10.949 -0.5746  0.2795 -0.3951
  990MOL0     C30609   0.920   2.865  11.023  0.0308 -0.2817 -0.6098
  990MOL0     C30610   1.067   2.859  10.976  0.4680  0.1895  0.0350
  990MOL0     C30611   1.173   2.916  11.059  0.3046 -0.8294  0.2193
  990MOL0     C30612   1.261   2.993  11.105  0.2157  0.2354  0.3761
  990MOL0     C30613   0.782   2.313  10.872  0.2865  0.5021  0.4830
  990MOL0     C30614   0.793   2.186  10.915 -0.3165 -0.4792  0.6367
  990MOL0     H30615   0.942   1.918  11.306 -0.7025  1.2386 -0.2182
  990MOL0     H30616   1.021   1.702  11.411 -0.0110 -2.1047  0.7064
  990MOL0     H30617   0.849   1.395  11.261 -0.4040 -3.6244 -0.1982
  990MOL0     H30618   0.766   1.319  11.393  1.4921 -3.4332  0.0977
  990MOL0     H30619   0.994   1.297  11.506  0.5371  2.0424 -0.5590
  990MOL0     H30620   1.060   1.355  11.343  1.2422 -0.4620  1.3034
  990MOL0     H30621   1.083   1.104  11.339 -0.9345 -2.0025 -2.5070
  990MOL0     H30622   0.949   1.153  11.241  1.8243 -1.8267 -1.4289
  990MOL0     H30623   0.908   1.073  11.533  1.0167 -2.4859 -0.5937
  990MOL0     H30624   0.779   1.119  11.409  1.3311  3.1713  0.9733
  990MOL0     H30625   0.972   0.884  11.413  0.4586  1.0522  0.4465
  990MOL0     H30626   0.873   0.920  11.276 -1.6567 -1.9550  1.0143
  990MOL0     H30627   0.664   0.898  11.379  0.5261 -1.4283 -2.4978
  990MOL0     H30628   0.730   0.889  11.547 -3.9407 -0.6003 -0.3968
  990MOL0     H30629   0.741   0.704  11.313  0.6476  1.7231 -1.0765
  990MOL0     H30630   0.856   0.692  11.449  0.4410  1.7596 -3.1155
  990MOL0     H30631   0.546   0.658  11.453  1.2678  2.6289  0.4435
  990MOL0     H30632   0.642   0.679  11.595 -1.5856  3.3038 -0.1350
  990MOL0     H30633   0.856   0.468  11.612  0.3488  0.9465 -0.4412
  990MOL0     H30634   0.940   0.191  11.478  0.5287 -1.7532 -0.2085
  990MOL0     H30635   0.799   0.085  11.497 -0.6201  0.1859  2.0568
  990MOL0     H30636   0.795   0.163  11.753  1.2906 -0.1901  1.5213
  990MOL0     H30637   0.948   0.246  11.715 -1.8831  1.0056  2.1941
  990MOL0     H30638   0.879  -0.058  11.676 -0.1153  0.1184 -1.3177
  990MOL0     H30639   1.038   0.012  11.666 -1.7115  0.2814 -1.9679
  990MOL0     H30640   0.973  -0.112  11.881 -0.1470  0.4646  0.0176
  990MOL0     H30641   0.874   0.029  11.921  0.2883 -0.4059  0.7400
  990MOL0     H30642   1.294   0.196  11.946 -0.0291  0.4813 -1.3943
  990MOL0     H30643   1.499   0.117  12.072 -0.1696 -0.1602  3.8195
  990MOL0     H30644   1.890  -0.002  12.165 -0.6751  0.5156  0.9414
  990MOL0     H30645   2.072   0.013  12.345 -0.2343 -2.6565 -2.4943
  990MOL0     H30646   1.991  -0.133  12.760  0.4600 -0.2925  0.4365
  990MOL0     H30647   1.972   0.051  12.724  1.6148  1.1951 -0.3193
  990MOL0     H30648   2.167   0.009  12.869 -1.2318 -4.8445  1.4333
  990MOL0     H30649   2.232   0.066  12.721 -0.5164 -0.4377 -0.3886
  990MOL0     H30650   2.290  -0.157  12.654 -0.5170  0.1046 -0.1939
  990MOL0     H30651   2.212  -0.227  12.806  1.4633  1.3998  5.3711
  990MOL0     H30652   2.418  -0.031  12.831 -2.3915  1.7245  3.4281
  990MOL0     H30653   2.339  -0.115  12.955  1.3198  1.0563  0.2908
  990MOL0     H30654   2.567  -0.214  12.882  0.2644  1.0822 -0.4174
  990MOL0     H30655   2.510  -0.270  12.731 -0.7213  1.3162 -0.7060
  990MOL0     H30656   2.326  -0.407  12.822 -2.8731 -0.9131  3.6541
  990MOL0     H30657   2.375  -0.365  12.988 -0.7190 -2.1316  0.3118
  990MOL0     H30658   2.471  -0.591  12.891  2.3814 -0.8847 -0.0605
  990MOL0     H30659   2.568  -0.493  12.794 -2.4363 -2.3508 -1.9283
  990MOL0     H30660   2.558  -0.500  13.103  2.5846  4.7347  2.7942
  990MOL0     H30661   2.656  -0.381  13.022 -0.6920  0.1362  3.5347
  990MOL0     H30662   1.809  -0.144  12.633 -0.8254 -2.3464 -1.0970
  990MOL0     H30663   1.612  -0.117  12.484  0.0389  1.6792  1.6926
  990MOL0     H30664   1.284  -0.238  12.180 -0.6484  1.1060  2.8510
  990MOL0     H30665   1.091  -0.166  12.050  0.7551 -1.5018 -1.8625
  990MOL0     H30666   0.615   1.564  11.358 -1.4880  0.7514 -1.0847
  990MOL0     H30667   0.551   1.778  11.270  0.5486 -1.2379  0.1535
  990MOL0     H30668   0.602   2.204  11.198  1.1020  1.0949  0.7191
  990MOL0     H30669   0.600   2.432  11.142 -3.0633 -1.8285 -0.9856
  990MOL0     H30670   0.925   2.555  10.970  1.6921  0.7453  0.7031
  990MOL0     H30671   0.827   2.606  11.105 -0.7149  0.5264 -0.5873
  990MOL0     H30672   0.839   2.781  10.841  1.6212  1.4687 -0.0925
  990MOL0     H30673   0.728   2.794  10.975  0.0452  0.5193  2.0074
  990MOL0     H30674   0.909   2.850  11.131 -1.9278  3.4240 -0.1308
  990MOL0     H30675   0.883   2.967  11.013 -1.3646 -0.5471  1.4091
  990MOL0     H30676   1.087   2.753  10.959 -2.5962 -0.9010  2.1318
  990MOL0     H30677   1.072   2.911  10.880 -0.5714  2.2986  1.0494
  990MOL0     H30678   1.324   3.070  11.144 -0.9150  2.5191 -2.0055
  990MOL0     H30679   0.824   2.335  10.775 -4.2888  1.4499 -1.5586
  990MOL0     H30680   0.857   2.116  10.863 -1.0730 -2.3251  2.0568
  991MOL0     O30681   0.263   1.068   9.174  1.1941  0.4728  0.1377
  991MOL0     C30682   0.288   0.997   9.080  0.0246  0.3637  0.8900
  991MOL0     O30683   0.212   0.893   9.026  0.3115 -0.1651  0.4779
  991MOL0     C30684   0.085   0.888   9.062 -0.2821  0.0437 -0.5942
  991MOL0     C30685  -0.001   0.996   9.056  0.7840 -0.3188  0.0418
  991MOL0     C30686  -0.134   0.992   9.096 -0.7756 -0.2710 -0.5227
  991MOL0     C30687  -0.192   0.877   9.153  0.0130  0.2925 -0.0727
  991MOL0     O30688  -0.327   0.883   9.186 -0.5797 -0.7741  0.0139
  991MOL0     C30689  -0.339   0.894   9.332  0.7101  0.5348 -0.1307
  991MOL0     C30690  -0.483   0.908   9.377 -0.5709 -0.2356 -0.1181
  991MOL0     C30691  -0.545   1.044   9.361 -0.4123 -0.6654  0.0399
  991MOL0     C30692  -0.667   1.029   9.444  0.5194  0.5343  0.0432
  991MOL0     C30693  -0.743   1.167   9.450  0.7778 -0.7070  0.1509
  991MOL0     C30694  -0.884   1.132   9.522  0.6915  0.1381  0.9288
  991MOL0     C30695  -0.974   1.254   9.526  0.4843  0.4223 -0.2592
  991MOL0     C30696  -1.097   1.217   9.602 -0.6371 -0.1123  0.8968
  991MOL0     N30697  -1.186   1.143   9.534  0.0309  0.2960  0.4846
  991MOL0     C30698  -1.298   1.202   9.475  0.0827  0.1860  0.7677
  991MOL0     C30699  -1.362   1.085   9.422 -0.0948  0.3718 -0.2107
  991MOL0     C30700  -1.497   1.075   9.339 -0.9833  0.2571  0.2737
  991MOL0     C30701  -1.606   1.172   9.403 -0.3823  0.6133  0.2721
  991MOL0     C30702  -1.665   1.100   9.524 -0.2238 -0.7119 -0.4278
  991MOL0     C30703  -1.784   1.173   9.583  0.8499 -1.0914  0.5869
  991MOL0     O30704  -1.887   1.205   9.482 -0.6849 -0.2045  0.2204
  991MOL0     C30705  -2.009   1.242   9.538 -0.2439  0.2052 -0.0160
  991MOL0     C30706  -2.045   1.271   9.672 -0.1663  0.4482  0.2604
  991MOL0     C30707  -2.178   1.301   9.708 -1.3160  0.2183 -0.1009
  991MOL0     C30708  -2.275   1.322   9.609 -0.4964  0.2430 -0.5111
  991MOL0     C30709  -2.412   1.353   9.655 -0.1189  0.2282 -0.6515
  991MOL0     O30710  -2.430   1.408   9.780 -0.0240 -0.2139 -0.5398
  991MOL0     C30711  -2.558   1.412   9.828  0.3778  0.3460  0.3185
  991MOL0     C30712  -2.666   1.472   9.760 -0.4788 -0.7191  0.2277
  991MOL0     C30713  -2.794   1.492   9.814  0.4856 -0.6107 -0.3012
  991MOL0     C30714  -2.826   1.467   9.951  0.5347  1.3117 -0.8405
  991MOL0     O30715  -2.955   1.492  10.007 -0.4119  0.0520  0.0859
  991MOL0     C30716  -2.968   1.489  10.153 -0.3411  0.6369  0.2525
  991MOL0     C30717  -3.096   1.555  10.204  0.0097 -0.3960  1.4468
  991MOL0     C30718  -3.113   1.694  10.160 -0.5114 -0.0245 -0.0658
  991MOL0     C30719  -3.244   1.752  10.208  0.1771 -0.3520 -0.5565
  991MOL0     C30720  -3.255   1.897  10.168 -0.0190  0.5273  0.6861
  991MOL0     C30721  -3.327   1.916  10.035  0.1045 -0.7344  1.1717
  991MOL0     C30722  -3.324   2.063   9.987 -1.3122  0.6295 -0.0354
  991MOL0     C30723  -3.434   2.105   9.903  0.4501  0.4662  0.7017
  991MOL0    Cl30724  -3.602   2.083   9.979  0.3609 -1.0810  0.3748
  991MOL0     C30725  -2.716   1.414  10.025  0.0444  0.2477  0.4094
  991MOL0     C30726  -2.587   1.399   9.972  0.6175  0.0712  0.2888
  991MOL0     O30727  -2.498   1.303   9.587 -1.0417  0.1117 -0.6046
  991MOL0     C30728  -2.241   1.288   9.479 -0.1062  0.1616 -0.5909
  991MOL0     C30729  -2.113   1.257   9.447  0.8974 -0.0581 -0.1383
  991MOL0     N30730  -1.295   0.970   9.456 -0.4690 -0.0462 -0.3194
  991MOL0     N30731  -1.198   1.009   9.533 -0.8316 -0.0751  0.6120
  991MOL0     C30732  -0.105   0.757   9.168 -0.7554 -0.0548 -0.4682
  991MOL0     C30733   0.030   0.772   9.124 -0.0515  0.0843 -0.3714
  991MOL0     C30734   0.420   1.018   9.024  0.5475  0.0809  0.1903
  991MOL0     C30735   0.442   0.990   8.891 -0.4984  0.8176  0.5014
  991MOL0     C30736   0.565   1.029   8.831  0.3089 -0.6390  0.2308
  991MOL0     C30737   0.665   1.085   8.896  0.6352  0.0720  0.2129
  991MOL0     O30738   0.797   1.108   8.861 -0.2695  0.0396 -0.2589
  991MOL0     C30739   0.826   1.112   8.711 -0.2245  0.4053 -0.9939
  991MOL0     C30740   0.906   0.995   8.655  0.0776  0.3287  0.1262
  991MOL0     C30741   0.961   1.014   8.512 -0.4965 -0.0551  0.0943
  991MOL0     C30742   1.096   0.935   8.493  0.6167 -0.2139 -0.1821
  991MOL0     C30743   1.122   0.912   8.352 -0.5027 -0.5396 -0.6770
  991MOL0     C30744   1.117   0.871   8.243 -0.1870 -0.7885  1.3044
  991MOL0     C30745   0.649   1.092   9.032 -0.5717 -0.2996 -0.0160
  991MOL0     C30746   0.525   1.080   9.096  0.0257  0.1877 -0.0089
  991MOL0     H30747   0.042   1.089   9.020 -1.1210  1.7102  2.6328
  991MOL0     H30748  -0.190   1.080   9.070  2.6881  1.6695 -2.1282
  991MOL0     H30749  -0.275   0.978   9.359 -0.8858  2.2121 -1.3004
  991MOL0     H30750  -0.308   0.800   9.380 -1.8311  0.4570  1.5954
  991MOL0     H30751  -0.476   0.875   9.481 -0.4913 -2.4274 -0.7717
  991MOL0     H30752  -0.545   0.832   9.329  1.9643 -2.0010 -0.8164
  991MOL0     H30753  -0.571   1.074   9.259  1.2002 -4.3964 -1.6460
  991MOL0     H30754  -0.480   1.122   9.403 -0.9074 -1.1262  1.7712
  991MOL0     H30755  -0.726   0.950   9.398 -0.4918  0.7685  0.9020
  991MOL0     H30756  -0.652   1.006   9.550 -4.4690  0.9075  1.0802
  991MOL0     H30757  -0.756   1.206   9.348 -1.9746 -3.6847 -0.7980
  991MOL0     H30758  -0.694   1.241   9.513 -1.4242 -0.4920  1.6794
  991MOL0     H30759  -0.869   1.106   9.628 -0.3992 -2.8822  0.4521
  991MOL0     H30760  -0.930   1.058   9.456 -0.6067  1.6175  0.1288
  991MOL0     H30761  -0.926   1.335   9.581 -2.0363  2.0412 -0.2834
  991MOL0     H30762  -0.999   1.297   9.428  1.5156  2.4624  0.3053
  991MOL0     H30763  -1.141   1.304   9.650 -4.9011 -2.0276  0.9049
  991MOL0     H30764  -1.077   1.158   9.692 -1.2205 -0.3372  0.8794
  991MOL0     H30765  -1.315   1.308   9.460  0.1095  0.3103  1.6094
  991MOL0     H30766  -1.527   0.976   9.302 -2.0787  0.2937  1.0220
  991MOL0     H30767  -1.472   1.125   9.246  1.7938 -0.3750  0.5880
  991MOL0     H30768  -1.677   1.189   9.322  0.8264 -2.9698 -1.7690
  991MOL0     H30769  -1.549   1.260   9.436  1.8657 -1.0674  1.1056
  991MOL0     H30770  -1.694   0.998   9.500  1.1703 -1.3298  0.3453
  991MOL0     H30771  -1.582   1.087   9.594 -0.2964  0.4683 -0.0981
  991MOL0     H30772  -1.752   1.262   9.638  1.3580 -0.7924 -0.1682
  991MOL0     H30773  -1.824   1.103   9.656  2.1417 -2.4052  0.0742
  991MOL0     H30774  -1.970   1.264   9.751  0.3838 -1.9670 -0.3898
  991MOL0     H30775  -2.181   1.308   9.816  1.0152 -0.5275  0.0772
  991MOL0     H30776  -2.651   1.496   9.655  1.0670 -0.5406  0.4554
  991MOL0     H30777  -2.863   1.556   9.759  0.8851  0.1089  0.0193
  991MOL0     H30778  -2.887   1.538  10.209  0.1596 -0.6349  0.6776
  991MOL0     H30779  -2.973   1.384  10.182 -2.4466  0.0790 -1.8588
  991MOL0     H30780  -3.093   1.550  10.313 -2.8402 -1.6668  1.5710
  991MOL0     H30781  -3.180   1.494  10.169 -1.1298  3.1203 -2.9031
  991MOL0     H30782  -3.112   1.695  10.051  0.9852  1.3235 -0.0731
  991MOL0     H30783  -3.028   1.746  10.204  0.7351 -1.4620 -0.6934
  991MOL0     H30784  -3.337   1.703  10.176 -0.0704  0.1450 -0.6125
  991MOL0     H30785  -3.242   1.751  10.317  0.9862  1.2841 -0.5267
  991MOL0     H30786  -3.157   1.946  10.161  0.0897  0.1854 -0.4520
  991MOL0     H30787  -3.299   1.956  10.249  0.7535  1.7725  0.2260
  991MOL0     H30788  -3.431   1.886  10.053 -0.7997  2.0845  1.1452
  991MOL0     H30789  -3.289   1.860   9.948 -2.6538 -0.1744 -0.5250
  991MOL0     H30790  -3.341   2.120  10.080 -2.1719 -1.0490  0.8840
  991MOL0     H30791  -3.228   2.094   9.945 -0.1312 -1.8927  0.6546
  991MOL0     H30792  -3.428   2.056   9.806 -0.3855 -1.7942  1.7248
  991MOL0     H30793  -3.428   2.210   9.874 -1.3004  0.7218  1.1400
  991MOL0     H30794  -2.729   1.394  10.131  2.3414  2.4956  1.2121
  991MOL0     H30795  -2.508   1.359  10.034  0.8824  0.2878  0.0924
  991MOL0     H30796  -2.312   1.299   9.397 -0.5519 -0.1176 -0.2478
  991MOL0     H30797  -2.120   1.239   9.340 -2.3879  0.8973 -0.1911
  991MOL0     H30798  -0.140   0.663   9.211  2.3195 -1.8827 -1.6149
  991MOL0     H30799   0.100   0.690   9.134  0.8224  0.8575  0.0589
  991MOL0     H30800   0.360   0.943   8.837  2.0735 -1.3845 -1.8094
  991MOL0     H30801   0.570   1.004   8.726 -3.2565 -2.8356  0.4407
  991MOL0     H30802   0.883   1.205   8.700 -2.1690  1.8478  0.4188
  991MOL0     H30803   0.734   1.118   8.652  2.0844  1.6695 -4.8787
  991MOL0     H30804   0.989   0.990   8.727  0.1862 -0.5604 -0.0541
  991MOL0     H30805   0.858   0.897   8.660  1.5882 -0.4061  1.2043
  991MOL0     H30806   0.978   1.121   8.497 -2.4921  0.4210  0.9502
  991MOL0     H30807   0.879   0.978   8.449 -0.0019 -0.4269 -0.3473
  991MOL0     H30808   1.158   1.015   8.534 -2.0920  1.1280  1.6152
  991MOL0     H30809   1.105   0.843   8.552 -0.5742 -0.4346 -0.3018
  991MOL0     H30810   1.110   0.824   8.147  1.7742 -2.7838  2.0581
  991MOL0     H30811   0.731   1.135   9.089  0.0038  1.7444 -2.2554
  991MOL0     H30812   0.521   1.111   9.200 -0.3771  2.1733 -0.5785
  992MOL0     O30813   4.434   1.077   4.655 -0.3030 -0.2660 -0.1446
  992MOL0     C30814   4.524   1.031   4.575 -0.1251 -0.4973 -0.6529
  992MOL0     O30815   4.506   0.966   4.459  0.1605 -0.4503 -0.0244
  992MOL0     C30816   4.384   0.956   4.393 -0.5996  0.1899 -0.1000
  992MOL0     C30817   4.337   0.826   4.356 -1.2903 -0.0433 -0.5983
  992MOL0     C30818   4.214   0.806   4.292 -0.0019 -0.9562  0.1881
  992MOL0     C30819   4.145   0.916   4.249  0.4763 -0.0160 -0.4957
  992MOL0     O30820   4.036   0.897   4.169  0.3023  0.9261  0.0967
  992MOL0     C30821   3.916   0.901   4.248  0.3872  0.2571  0.1152
  992MOL0     C30822   3.804   0.990   4.172  0.5242  0.2504  0.3841
  992MOL0     C30823   3.781   0.934   4.031  0.2566  0.1584  0.3159
  992MOL0     C30824   3.739   0.787   4.025  0.0979 -0.1004 -0.9986
  992MOL0     C30825   3.587   0.781   4.060  0.2026  0.6625 -0.1318
  992MOL0     C30826   3.539   0.635   4.050  0.2317 -0.0259  0.1872
  992MOL0     C30827   3.385   0.626   4.092 -0.3179  0.1447 -0.5674
  992MOL0     C30828   3.301   0.679   3.978  0.2809  0.4656  0.0143
  992MOL0     N30829   3.160   0.652   4.007 -0.3312  0.3007  0.7479
  992MOL0     C30830   3.093   0.723   4.106 -0.1567 -0.6339  0.2433
  992MOL0     C30831   2.973   0.658   4.124 -0.0396 -0.0547  0.8041
  992MOL0     C30832   2.852   0.679   4.215 -0.4405  0.1358  0.7415
  992MOL0     C30833   2.716   0.633   4.142  0.1660 -0.5423 -0.3813
  992MOL0     C30834   2.596   0.671   4.225  0.0476 -0.5905  0.3410
  992MOL0     C30835   2.468   0.695   4.141  0.4220 -0.8771 -0.5498
  992MOL0     O30836   2.426   0.571   4.079 -0.3088  0.4565  0.1271
  992MOL0     C30837   2.357   0.583   3.961 -0.4107  0.8056  0.3273
  992MOL0     C30838   2.416   0.635   3.840  0.8462  0.2275  0.7816
  992MOL0     C30839   2.335   0.646   3.726  0.8871  0.2284 -0.3036
  992MOL0     C30840   2.197   0.605   3.716 -0.0800 -0.0798 -0.3748
  992MOL0     C30841   2.114   0.630   3.600  0.5989  0.1546  0.0251
  992MOL0     O30842   1.986   0.660   3.616 -0.1335  0.2495 -0.3571
  992MOL0     C30843   1.907   0.669   3.505  0.4833  1.8087 -0.5682
  992MOL0     C30844   1.828   0.780   3.492 -0.1694  0.3771  0.7548
  992MOL0     C30845   1.741   0.794   3.386  1.2324 -0.2529  0.4132
  992MOL0     C30846   1.716   0.692   3.286 -1.0790  0.2331  0.1733
  992MOL0     O30847   1.616   0.691   3.190  0.0903 -1.1899  0.6381
  992MOL0     C30848   1.545   0.816   3.174 -0.0384  0.0465  0.2927
  992MOL0     C30849   1.488   0.813   3.037  0.2344  0.2886  0.2675
  992MOL0     C30850   1.367   0.912   3.012  0.0255  0.1779 -0.3154
  992MOL0     C30851   1.229   0.863   3.075 -0.1929 -0.2027  0.4256
  992MOL0     C30852   1.123   0.956   3.022  0.1784 -0.8115  0.0224
  992MOL0     C30853   0.995   0.929   3.094 -0.5761 -0.5710  0.5079
  992MOL0     C30854   0.966   0.999   3.219  0.0540 -0.2702  0.1176
  992MOL0     C30855   0.854   0.930   3.287  0.3727  0.5202  0.0719
  992MOL0    Cl30856   0.694   0.986   3.225  0.4972 -0.0241 -0.5818
  992MOL0     C30857   1.797   0.574   3.304 -0.8000  0.5829 -0.4836
  992MOL0     C30858   1.896   0.563   3.411  0.1469 -0.0892  1.0473
  992MOL0     O30859   2.167   0.616   3.490 -0.5493 -0.0489  0.2629
  992MOL0     C30860   2.149   0.554   3.837 -0.0259  0.4321 -0.8380
  992MOL0     C30861   2.232   0.531   3.952  0.2836  0.3490  0.2968
  992MOL0     N30862   2.979   0.548   4.036 -0.2513  0.1096  1.0183
  992MOL0     N30863   3.084   0.548   3.959 -0.0875 -0.2676  0.8414
  992MOL0     C30864   4.193   1.047   4.269  0.2272  0.2461  0.9769
  992MOL0     C30865   4.306   1.067   4.360 -0.7430  0.3238  0.3436
  992MOL0     C30866   4.670   1.036   4.613 -0.1323 -0.4271 -0.3973
  992MOL0     C30867   4.708   1.096   4.741  0.2061 -0.1918  0.2227
  992MOL0     C30868   4.841   1.116   4.762 -0.0629  0.0488  0.2687
  992MOL0     C30869   4.938   1.065   4.676 -0.7348 -0.5385  0.1469
  992MOL0     O30870   5.063   1.046   4.704  0.1889  0.2479  0.0052
  992MOL0     C30871   5.125   1.137   4.800 -0.1450 -0.4284  0.1289
  992MOL0     C30872   5.265   1.147   4.751 -0.0743 -1.1356 -0.3666
  992MOL0     C30873   5.376   1.224   4.831  1.0724  0.2538  0.3315
  992MOL0     C30874   5.341   1.377   4.834  0.1340  0.0683  0.4234
  992MOL0     C30875   5.468   1.450   4.863  0.2712  0.4417  0.2544
  992MOL0     C30876   5.577   1.495   4.889 -0.7390 -0.3777 -0.4285
  992MOL0     C30877   4.907   1.009   4.555 -0.3134 -0.1000  0.8749
  992MOL0     C30878   4.775   0.988   4.528  0.7822 -0.0276 -0.1158
  992MOL0     H30879   4.400   0.741   4.381 -0.4322  0.2918 -1.5173
  992MOL0     H30880   4.197   0.704   4.260  0.7368 -1.1452  0.3575
  992MOL0     H30881   3.947   0.943   4.344  1.6274 -0.2290 -0.0627
  992MOL0     H30882   3.884   0.797   4.260  1.3974  0.1554  2.4673
  992MOL0     H30883   3.835   1.095   4.170  0.4269  0.3030  1.2041
  992MOL0     H30884   3.713   0.988   4.233 -0.2716 -0.0210 -0.7732
  992MOL0     H30885   3.870   0.944   3.968  0.0689 -1.3775 -0.2353
  992MOL0     H30886   3.704   0.994   3.981  0.1519 -1.7306 -1.9992
  992MOL0     H30887   3.756   0.762   3.920  1.7528  1.6314 -1.1909
  992MOL0     H30888   3.807   0.722   4.081 -0.8881  0.8185  1.3956
  992MOL0     H30889   3.531   0.849   3.995 -1.4568 -0.0960  0.4732
  992MOL0     H30890   3.575   0.818   4.162  2.7661 -0.7900  0.7824
  992MOL0     H30891   3.607   0.570   4.106 -0.9118 -2.4283 -1.0658
  992MOL0     H30892   3.544   0.607   3.944 -3.3658  0.5861 -0.2871
  992MOL0     H30893   3.366   0.522   4.121 -0.4348  0.9300  2.6063
  992MOL0     H30894   3.359   0.681   4.183  1.0423 -1.7709  1.0939
  992MOL0     H30895   3.333   0.633   3.883  0.5516  0.1425  0.2600
  992MOL0     H30896   3.322   0.784   3.959 -2.1244  1.7319  3.4077
  992MOL0     H30897   3.133   0.797   4.174 -1.0291  1.7468 -1.6969
  992MOL0     H30898   2.829   0.785   4.231 -1.2311  0.6515 -2.8707
  992MOL0     H30899   2.861   0.616   4.304 -1.1783 -1.8609 -0.5167
  992MOL0     H30900   2.698   0.527   4.122 -0.8140 -0.0706 -2.1613
  992MOL0     H30901   2.708   0.694   4.052 -1.3916  1.3479  0.9564
  992MOL0     H30902   2.577   0.588   4.293  0.1816 -2.6759 -1.9980
  992MOL0     H30903   2.615   0.761   4.284  1.5904 -2.1191  2.3409
  992MOL0     H30904   2.486   0.770   4.063  0.9707  0.4182  0.7915
  992MOL0     H30905   2.385   0.733   4.201  1.7839 -0.4983  1.1733
  992MOL0     H30906   2.520   0.666   3.850  1.9205 -3.5080  3.0986
  992MOL0     H30907   2.393   0.689   3.645 -1.2383 -1.6589 -2.9811
  992MOL0     H30908   1.814   0.851   3.574 -2.3360 -0.0195  0.7978
  992MOL0     H30909   1.692   0.890   3.376  3.0162  0.7088  0.4373
  992MOL0     H30910   1.617   0.899   3.180  0.8407 -0.8036  2.6904
  992MOL0     H30911   1.469   0.836   3.250 -0.4943  5.3848 -1.1434
  992MOL0     H30912   1.432   0.719   3.026 -0.5105  0.8338 -0.8522
  992MOL0     H30913   1.562   0.827   2.958  2.7527 -0.1734  2.4195
  992MOL0     H30914   1.362   0.929   2.904 -1.0789  2.6758  0.0552
  992MOL0     H30915   1.392   1.009   3.057  2.0674 -1.6107  2.7712
  992MOL0     H30916   1.211   0.760   3.042  0.4122 -0.4138  0.7406
  992MOL0     H30917   1.242   0.868   3.184 -0.6180  1.1781  0.4336
  992MOL0     H30918   1.101   0.942   2.916 -2.2543 -0.1276  0.3722
  992MOL0     H30919   1.141   1.062   3.041 -1.8367 -0.0397 -1.8632
  992MOL0     H30920   0.999   0.820   3.098  0.9903 -0.5913 -0.5751
  992MOL0     H30921   0.917   0.951   3.020 -0.5921  1.0706  0.9704
  992MOL0     H30922   1.049   0.999   3.290  1.2146 -2.3650 -1.1453
  992MOL0     H30923   0.936   1.103   3.208 -0.5128 -0.2435  1.6296
  992MOL0     H30924   0.856   0.954   3.394  0.1060 -1.1236  0.4741
  992MOL0     H30925   0.862   0.821   3.286 -0.6505  0.3779  1.9944
  992MOL0     H30926   1.773   0.487   3.244  0.8159 -0.8713  0.8826
  992MOL0     H30927   1.967   0.482   3.411  2.4928  1.6455 -3.3797
  992MOL0     H30928   2.058   0.496   3.827 -0.1964  0.1793  1.5645
  992MOL0     H30929   2.178   0.465   4.019 -0.1949 -0.8985 -1.2484
  992MOL0     H30930   4.135   1.126   4.223 -2.2968 -1.3781  1.2066
  992MOL0     H30931   4.336   1.166   4.394 -0.6034  0.2908  0.3204
  992MOL0     H30932   4.635   1.139   4.808  0.3277  2.6634 -1.3380
  992MOL0     H30933   4.872   1.165   4.853  5.5834  1.6089 -2.0139
  992MOL0     H30934   5.119   1.095   4.901  2.4531  1.5918  1.2464
  992MOL0     H30935   5.074   1.234   4.799  1.2079  0.3255  0.9473
  992MOL0     H30936   5.295   1.045   4.725  1.8297 -0.4929 -0.8934
  992MOL0     H30937   5.277   1.192   4.651 -2.1451  0.5638  0.0748
  992MOL0     H30938   5.475   1.217   4.785  2.4579 -0.6395  3.2624
  992MOL0     H30939   5.378   1.183   4.932  0.2287  0.4990  0.4561
  992MOL0     H30940   5.306   1.395   4.732 -0.0568 -1.8589  0.1120
  992MOL0     H30941   5.262   1.394   4.907  0.1256  0.6038  0.2958
  992MOL0     H30942   5.674   1.537   4.904 -0.2118 -1.2179 -1.3784
  992MOL0     H30943   4.986   0.979   4.487  0.5805 -0.3860  1.9990
  992MOL0     H30944   4.756   0.935   4.435 -1.9445  2.2097 -0.9743
  993MOL0     O30945   9.334  10.086   7.732  0.2124  0.7235 -0.5045
  993MOL0     C30946   9.346  10.063   7.853  0.3797  0.0000  0.1800
  993MOL0     O30947   9.252  10.009   7.947  1.1816  0.0065 -1.2395
  993MOL0     C30948   9.121   9.979   7.911  0.4824  0.3862 -0.7787
  993MOL0     C30949   9.038   9.884   7.984 -0.4301 -0.1786  0.8455
  993MOL0     C30950   8.907   9.861   7.943  0.8511 -0.4834 -0.1434
  993MOL0     C30951   8.844   9.944   7.845 -0.4090 -0.2289  1.1275
  993MOL0     O30952   8.717   9.937   7.818 -0.3530  0.1924 -0.4954
  993MOL0     C30953   8.622   9.957   7.928 -0.0782 -0.0508  0.1326
  993MOL0     C30954   8.649  10.077   8.019 -0.4043  0.4944 -0.2240
  993MOL0     C30955   8.541  10.098   8.128  0.1529 -0.2856 -0.2821
  993MOL0     C30956   8.556  10.004   8.250 -0.1307  0.2294  0.4126
  993MOL0     C30957   8.505  10.067   8.380  0.0814 -0.1303  0.5003
  993MOL0     C30958   8.360  10.098   8.406 -0.0158 -0.1058  1.1670
  993MOL0     C30959   8.265   9.995   8.352  0.9034  0.7884  0.0668
  993MOL0     C30960   8.114  10.030   8.407 -0.0695 -0.4277 -0.3441
  993MOL0     N30961   8.069  10.170   8.382 -0.0757  0.6261  0.3471
  993MOL0     C30962   8.066  10.240   8.263  0.2486  0.3894  0.7910
  993MOL0     C30963   8.004  10.359   8.296  0.0989  0.2103 -0.7076
  993MOL0     C30964   7.994  10.491   8.215 -0.3857  0.0405 -0.9359
  993MOL0     C30965   7.986  10.483   8.065  0.8499  0.0234 -0.2254
  993MOL0     C30966   7.942  10.625   8.021  0.9127  0.4865 -0.4338
  993MOL0     C30967   7.909  10.624   7.878 -0.0243 -0.3538  0.0886
  993MOL0     O30968   7.792  10.550   7.855  0.4814 -0.4513 -0.7399
  993MOL0     C30969   7.669  10.612   7.819  0.4698  0.0732 -0.1591
  993MOL0     C30970   7.629  10.731   7.873  0.6322  0.0196  0.7056
  993MOL0     C30971   7.508  10.788   7.837  0.3434 -0.3761 -0.1109
  993MOL0     C30972   7.421  10.736   7.738  0.3993 -0.0799 -1.2958
  993MOL0     C30973   7.282  10.798   7.712  0.0821 -0.6522 -0.4974
  993MOL0     O30974   7.179  10.718   7.669 -0.2221 -0.3034 -0.4006
  993MOL0     C30975   7.064  10.786   7.642  0.3965  0.4775 -0.1836
  993MOL0     C30976   7.049  10.902   7.563 -0.1144 -0.2006 -0.2496
  993MOL0     C30977   6.927  10.948   7.542 -0.0416  0.1560  0.7213
  993MOL0     C30978   6.809  10.881   7.582  0.4840  0.5170 -0.8590
  993MOL0     O30979   6.686  10.922   7.544 -0.0710  0.2587 -0.1878
  993MOL0     C30980   6.572  10.912   7.635 -0.9061 -0.3166  0.7972
  993MOL0     C30981   6.461  10.829   7.580 -0.3406  0.7557 -0.0956
  993MOL0     C30982   6.329  10.849   7.666  0.5177 -0.5943 -0.2374
  993MOL0     C30983   6.243  10.966   7.622 -0.9602 -1.6588 -0.7188
  993MOL0     C30984   6.116  10.999   7.716  0.3376  0.5768  0.7054
  993MOL0     C30985   6.023  10.873   7.727 -0.7096  0.0466 -0.2819
  993MOL0     C30986   5.874  10.913   7.748 -0.2875 -0.0810  0.3622
  993MOL0     C30987   5.776  10.806   7.782 -0.3966  0.1860  0.1512
  993MOL0    Cl30988   5.803  10.649   7.690 -0.0836  0.1478  0.5582
  993MOL0     C30989   6.828  10.761   7.660  0.0573  0.6140  0.5811
  993MOL0     C30990   6.951  10.715   7.686 -0.1754 -0.2249  0.3514
  993MOL0     O30991   7.268  10.919   7.753 -0.3191  0.6812 -0.0228
  993MOL0     C30992   7.458  10.609   7.688  1.0081 -0.0787 -0.5638
  993MOL0     C30993   7.578  10.548   7.738 -0.4990 -0.0024  0.5287
  993MOL0     N30994   7.974  10.356   8.431  0.0608 -0.4115  0.5863
  993MOL0     N30995   8.023  10.242   8.478  0.7713  0.5016  0.0598
  993MOL0     C30996   8.918  10.040   7.773  0.3068 -0.2781  0.0992
  993MOL0     C30997   9.056  10.062   7.812 -1.0934  0.3569  0.3719
  993MOL0     C30998   9.484  10.081   7.914 -0.3390  0.4405 -0.0885
  993MOL0     C30999   9.592  10.117   7.843  0.6195  1.4022  0.3812
  993MOL0     C31000   9.720  10.129   7.903 -0.5807 -1.3218 -0.0166
  993MOL0     C31001   9.740  10.106   8.040  1.2806  0.3043  0.8857
  993MOL0     O31002   9.862  10.097   8.104  0.6158  0.0274  0.9200
  993MOL0     C31003   9.989  10.121   8.036 -0.4240 -0.2681 -0.0822
  993MOL0     C31004  10.024   9.993   7.952 -0.6862 -0.1668  0.3619
  993MOL0     C31005  10.162  10.001   7.875 -0.1300 -1.2230 -0.3847
  993MOL0     C31006  10.157  10.079   7.745 -0.4450  0.0282  1.1004
  993MOL0     C31007  10.288  10.079   7.677  0.1088 -0.5069 -0.0249
  993MOL0     C31008  10.394  10.085   7.617  0.1160 -0.7258  0.1825
  993MOL0     C31009   9.630  10.061   8.112 -1.5570 -0.4268  0.0223
  993MOL0     C31010   9.501  10.048   8.046 -0.7099  0.3722 -0.3155
  993MOL0     H31011   9.089   9.826   8.060  2.6990  0.1557 -0.8378
  993MOL0     H31012   8.843   9.785   7.985  1.2890 -1.7357 -1.6279
  993MOL0     H31013   8.622   9.863   7.984 -2.2683 -0.4686 -0.4914
  993MOL0     H31014   8.522   9.965   7.886  0.5597  1.0183 -1.2812
  993MOL0     H31015   8.641  10.171   7.963 -2.3329 -0.1516 -1.1101
  993MOL0     H31016   8.747  10.063   8.066 -1.7732  0.4117  2.8789
  993MOL0     H31017   8.442  10.099   8.083  0.1165  0.4288 -0.1973
  993MOL0     H31018   8.560  10.198   8.167 -0.2740  0.8414 -2.8397
  993MOL0     H31019   8.504   9.910   8.229  0.9064 -0.3970  0.5445
  993MOL0     H31020   8.664   9.984   8.260 -0.4809 -1.1383  1.9884
  993MOL0     H31021   8.575  10.148   8.400  0.1011 -0.1146  0.3684
  993MOL0     H31022   8.536   9.996   8.458 -1.5263  1.1202  2.3709
  993MOL0     H31023   8.357  10.197   8.359  3.6965  0.4819  1.8787
  993MOL0     H31024   8.340  10.111   8.512 -7.0100  2.7731  0.1264
  993MOL0     H31025   8.267   9.988   8.243  2.5814  1.3857  0.0401
  993MOL0     H31026   8.285   9.898   8.398 -0.4429  0.4227 -0.0664
  993MOL0     H31027   8.098  10.012   8.513 -2.8467  0.0728 -0.6153
  993MOL0     H31028   8.051   9.955   8.358 -1.7320 -0.6352  1.9824
  993MOL0     H31029   8.112  10.210   8.170 -0.5684  2.2695 -0.2529
  993MOL0     H31030   8.081  10.553   8.238  0.8675 -1.5817 -1.1036
  993MOL0     H31031   7.895  10.527   8.245 -0.3852  1.1964 -2.2626
  993MOL0     H31032   7.912  10.405   8.051 -0.5047  1.2817 -0.2875
  993MOL0     H31033   8.087  10.463   8.027  1.1826 -2.9824  1.8739
  993MOL0     H31034   7.860  10.659   8.085  0.9079 -1.0200  0.4073
  993MOL0     H31035   8.030  10.689   8.035  1.9232 -1.2497  1.6641
  993MOL0     H31036   7.996  10.593   7.819  0.3036  1.6038 -0.5173
  993MOL0     H31037   7.897  10.730   7.856 -1.3327  0.2860  3.3999
  993MOL0     H31038   7.689  10.791   7.941  0.9177 -0.6219  1.0199
  993MOL0     H31039   7.473  10.870   7.901  1.2468 -0.8799  1.0753
  993MOL0     H31040   7.143  10.946   7.532 -0.6453  1.5559  0.4844
  993MOL0     H31041   6.904  11.031   7.475 -2.0524  1.9117  3.3540
  993MOL0     H31042   6.543  11.017   7.647  0.2174  0.2397 -0.9722
  993MOL0     H31043   6.606  10.886   7.735  0.0836  0.4026  0.6588
  993MOL0     H31044   6.493  10.725   7.580  1.1337  1.1414 -2.8438
  993MOL0     H31045   6.443  10.848   7.474 -1.8014  1.6527  0.2803
  993MOL0     H31046   6.357  10.865   7.771 -1.2995 -0.1727  0.2239
  993MOL0     H31047   6.260  10.764   7.668 -2.1858  1.4489  0.9362
  993MOL0     H31048   6.306  11.055   7.637 -0.1049 -2.1823 -1.1196
  993MOL0     H31049   6.213  10.971   7.517 -0.8684  1.9167 -0.6906
  993MOL0     H31050   6.064  11.085   7.671  0.5484  0.8060  0.8956
  993MOL0     H31051   6.145  11.036   7.815 -2.4418  1.9464  1.1015
  993MOL0     H31052   6.061  10.819   7.814 -0.4358  0.6593 -0.0078
  993MOL0     H31053   6.025  10.817   7.634  1.9833 -0.5525  0.0665
  993MOL0     H31054   5.878  10.991   7.824 -0.5034 -0.6627  0.9854
  993MOL0     H31055   5.837  10.960   7.657 -0.1207 -0.6449 -0.0018
  993MOL0     H31056   5.672  10.839   7.772  0.4086  2.3433 -1.9976
  993MOL0     H31057   5.781  10.780   7.888 -1.7573  1.3139  0.5196
  993MOL0     H31058   6.745  10.695   7.683 -1.3298  2.1082  0.0783
  993MOL0     H31059   6.964  10.629   7.752  2.0854  0.5112  0.9650
  993MOL0     H31060   7.394  10.555   7.618  0.3760  1.7783 -1.4926
  993MOL0     H31061   7.592  10.450   7.694 -4.7614  0.2154 -1.8702
  993MOL0     H31062   8.888  10.095   7.684  1.2134  1.7835  0.9956
  993MOL0     H31063   9.111  10.140   7.761  0.9262  0.4359  2.5387
  993MOL0     H31064   9.582  10.126   7.736  2.4691 -0.8383 -0.0387
  993MOL0     H31065   9.809  10.161   7.850  1.6087 -1.4139  3.2965
  993MOL0     H31066  10.066  10.151   8.107 -2.0884  0.3640  1.5337
  993MOL0     H31067   9.986  10.207   7.967 -0.4551  1.3139  1.7971
  993MOL0     H31068  10.017   9.917   8.030 -1.2198  0.8850  1.3718
  993MOL0     H31069   9.944   9.958   7.886 -2.2606  0.6135  1.7520
  993MOL0     H31070  10.202   9.902   7.852 -1.1174 -2.1915  1.8106
  993MOL0     H31071  10.231  10.061   7.935 -1.4247 -0.2310  0.1625
  993MOL0     H31072  10.081  10.040   7.677  0.5273 -0.0593  0.0590
  993MOL0     H31073  10.133  10.185   7.761 -2.0709 -0.4171  1.8547
  993MOL0     H31074  10.494  10.066   7.584 -0.0149 -0.1035 -0.6031
  993MOL0     H31075   9.642  10.056   8.220  0.5274 -0.3625 -0.1724
  993MOL0     H31076   9.417  10.019   8.109 -0.9752  0.2206 -0.7403
  994MOL0     O31077   6.957   9.589   5.731  0.0203  0.3548 -1.0442
  994MOL0     C31078   7.036   9.648   5.808 -0.5456 -0.5195  0.2149
  994MOL0     O31079   7.170   9.636   5.810 -0.2808  0.3837  0.2234
  994MOL0     C31080   7.238   9.679   5.699 -0.3815  0.1457 -0.5335
  994MOL0     C31081   7.381   9.647   5.688  0.5610 -0.0480 -0.2783
  994MOL0     C31082   7.450   9.674   5.565 -0.3536  0.1702 -0.7014
  994MOL0     C31083   7.391   9.741   5.465 -0.3182 -0.0267 -0.7936
  994MOL0     O31084   7.439   9.761   5.337  0.4851  0.7279 -0.2423
  994MOL0     C31085   7.557   9.699   5.285  0.2542 -0.8031  0.7801
  994MOL0     C31086   7.607   9.764   5.160  0.3996  0.2563  0.2844
  994MOL0     C31087   7.732   9.682   5.116 -0.5686  0.8851  0.2059
  994MOL0     C31088   7.738   9.715   4.969 -0.0480  0.6589  0.6483
  994MOL0     C31089   7.861   9.648   4.894 -0.4964  0.3441  0.1681
  994MOL0     C31090   7.847   9.670   4.745 -0.5950  0.5986 -0.0524
  994MOL0     C31091   7.964   9.607   4.668 -0.1290  0.0211 -0.2390
  994MOL0     C31092   7.952   9.664   4.529 -0.5635 -0.0915  0.7231
  994MOL0     N31093   8.086   9.639   4.463 -0.0587  0.0059 -0.1244
  994MOL0     C31094   8.108   9.529   4.396 -0.5771  1.1749  0.5478
  994MOL0     C31095   8.212   9.553   4.315 -1.2117  1.2001 -0.5992
  994MOL0     C31096   8.304   9.441   4.240 -0.5174  0.0368 -0.1345
  994MOL0     C31097   8.399   9.517   4.152  0.4494 -0.6026  1.2691
  994MOL0     C31098   8.315   9.596   4.041 -0.5205 -0.9765  0.0332
  994MOL0     C31099   8.281   9.736   4.074 -0.3799 -0.4219 -0.0915
  994MOL0     O31100   8.264   9.822   3.958  0.5972 -0.4653  0.2437
  994MOL0     C31101   8.156   9.837   3.873  0.0081 -0.3219  0.3379
  994MOL0     C31102   8.175   9.924   3.759  0.2689 -0.1451 -0.9198
  994MOL0     C31103   8.077   9.948   3.668 -0.0088  0.7405  0.1090
  994MOL0     C31104   7.956   9.884   3.678  0.1337 -0.7727  0.1108
  994MOL0     C31105   7.832   9.912   3.588 -0.6483  0.0323 -0.2808
  994MOL0     O31106   7.715   9.900   3.641  0.2150 -0.2032 -0.1806
  994MOL0     C31107   7.609   9.966   3.580 -0.0448  0.8077  0.6489
  994MOL0     C31108   7.616  10.105   3.539 -0.8584 -0.9329  0.3633
  994MOL0     C31109   7.502  10.180   3.508  0.2482 -0.1702  0.4586
  994MOL0     C31110   7.379  10.117   3.490 -0.5294 -1.0173  0.1160
  994MOL0     O31111   7.263  10.180   3.455 -0.5054 -0.6079  0.0855
  994MOL0     C31112   7.248  10.318   3.477 -0.7918  0.2136  0.0083
  994MOL0     C31113   7.118  10.366   3.423 -0.0224 -0.1702  0.0992
  994MOL0     C31114   7.126  10.514   3.394 -0.3752  0.2478 -0.8088
  994MOL0     C31115   6.986  10.556   3.349 -0.5768  0.8190 -0.0051
  994MOL0     C31116   6.969  10.706   3.341 -0.7989 -0.3221 -0.1330
  994MOL0     C31117   6.826  10.752   3.367 -0.3636 -1.3111 -0.5228
  994MOL0     C31118   6.725  10.712   3.245  0.5147  0.1983 -0.1639
  994MOL0     C31119   6.748  10.777   3.111  0.3546  0.5689  0.8669
  994MOL0    Cl31120   6.737  10.951   3.121  0.0463 -0.1405  0.0363
  994MOL0     C31121   7.372   9.979   3.529 -1.0073 -0.0025 -0.3798
  994MOL0     C31122   7.487   9.907   3.568 -0.4360 -0.5809  0.2533
  994MOL0     O31123   7.855   9.954   3.473  0.4441 -0.6793  0.3946
  994MOL0     C31124   7.939   9.796   3.787  0.8448  0.4525  0.1201
  994MOL0     C31125   8.038   9.772   3.880 -0.1887 -0.2938  0.6874
  994MOL0     N31126   8.256   9.675   4.339  0.4693  0.1581  0.3175
  994MOL0     N31127   8.179   9.729   4.426  0.2020  0.5445 -0.0375
  994MOL0     C31128   7.258   9.784   5.483 -0.5219 -0.1789 -0.5821
  994MOL0     C31129   7.186   9.752   5.598 -0.0841 -0.1877  0.5129
  994MOL0     C31130   6.976   9.720   5.933  0.8998  0.8087  0.6758
  994MOL0     C31131   6.834   9.726   5.964 -0.1863 -0.3263  0.4125
  994MOL0     C31132   6.792   9.806   6.072 -0.3191  0.0621  0.4226
  994MOL0     C31133   6.880   9.889   6.142 -0.0357 -0.2167 -0.0943
  994MOL0     O31134   6.832   9.956   6.253  0.2651  0.5196  0.3652
  994MOL0     C31135   6.920  10.042   6.326 -0.5470 -0.5769 -0.4083
  994MOL0     C31136   6.852  10.120   6.431 -0.4486 -0.5329 -0.6447
  994MOL0     C31137   6.746  10.216   6.368  0.2806  0.0571  0.4231
  994MOL0     C31138   6.608  10.199   6.427  1.0618  0.2901  0.0086
  994MOL0     C31139   6.507  10.297   6.379  0.0253  0.1051 -0.6794
  994MOL0     C31140   6.429  10.376   6.334  0.5016 -0.1029 -0.8502
  994MOL0     C31141   7.018   9.891   6.106  0.3944  0.4701  0.9330
  994MOL0     C31142   7.062   9.806   5.999 -0.6307 -0.0761 -0.6660
  994MOL0     H31143   7.441   9.595   5.762  0.9955  1.7236  0.6940
  994MOL0     H31144   7.556   9.654   5.552 -0.6873 -3.8817  1.1338
  994MOL0     H31145   7.537   9.593   5.270 -1.9396 -0.3473  0.0768
  994MOL0     H31146   7.635   9.704   5.361  1.4643  1.1255 -0.4933
  994MOL0     H31147   7.631   9.868   5.185 -2.3194  0.9884  0.0640
  994MOL0     H31148   7.532   9.753   5.082 -1.2437  3.1191  1.3095
  994MOL0     H31149   7.722   9.573   5.123 -0.3083  0.7758 -0.8881
  994MOL0     H31150   7.820   9.702   5.178 -1.0868  1.3515  0.8036
  994MOL0     H31151   7.646   9.684   4.919  0.7631 -0.8282  0.0110
  994MOL0     H31152   7.752   9.823   4.967  3.1751  0.3161 -0.3361
  994MOL0     H31153   7.854   9.540   4.914 -1.4466  1.0114  4.3513
  994MOL0     H31154   7.957   9.690   4.924 -0.1822  0.8106 -1.3774
  994MOL0     H31155   7.832   9.777   4.732  3.4195  1.6272  2.0515
  994MOL0     H31156   7.760   9.619   4.704  0.2798 -0.3638 -0.7558
  994MOL0     H31157   8.054   9.638   4.722  1.3099  0.7930 -2.9284
  994MOL0     H31158   7.967   9.498   4.670  2.7541  0.0520  0.7985
  994MOL0     H31159   7.942   9.773   4.527 -3.2821 -0.2669 -2.0102
  994MOL0     H31160   7.869   9.626   4.469 -2.2046  3.7674  0.2478
  994MOL0     H31161   8.062   9.431   4.397 -1.6532  1.6606  1.1083
  994MOL0     H31162   8.241   9.370   4.185 -1.3894  0.3684  0.4193
  994MOL0     H31163   8.371   9.393   4.311 -0.5803 -0.8292 -0.6450
  994MOL0     H31164   8.465   9.437   4.116  2.7890  1.0578  1.6513
  994MOL0     H31165   8.466   9.583   4.206  0.0657  0.1939  0.7897
  994MOL0     H31166   8.373   9.593   3.948 -2.0096 -0.1358 -0.9556
  994MOL0     H31167   8.232   9.526   4.029  1.4763 -3.2877 -1.3882
  994MOL0     H31168   8.340   9.787   4.151 -1.2413 -1.5508  1.3624
  994MOL0     H31169   8.178   9.739   4.110 -1.0258 -2.3093 -1.6285
  994MOL0     H31170   8.266   9.983   3.755 -0.1100  0.5284 -0.0740
  994MOL0     H31171   8.086  10.015   3.583 -0.6569 -0.0249 -0.5877
  994MOL0     H31172   7.710  10.158   3.553 -0.9764 -0.5593 -0.2117
  994MOL0     H31173   7.513  10.287   3.496 -2.7666  0.5175  2.6337
  994MOL0     H31174   7.326  10.374   3.426  0.8925 -0.3411  1.8765
  994MOL0     H31175   7.247  10.336   3.585 -1.3686  3.2433 -0.4065
  994MOL0     H31176   7.039  10.348   3.497  0.7994  0.8955  1.2954
  994MOL0     H31177   7.083  10.322   3.329  1.6844 -1.2898 -0.0560
  994MOL0     H31178   7.205  10.524   3.318 -0.2206  2.0788 -0.4712
  994MOL0     H31179   7.156  10.576   3.479 -2.0356 -0.6281  0.4422
  994MOL0     H31180   6.964  10.507   3.254  1.1962  0.0884 -0.0690
  994MOL0     H31181   6.915  10.524   3.426 -1.6966  0.3608 -1.1927
  994MOL0     H31182   7.011  10.736   3.245  1.2860 -2.4595  0.0347
  994MOL0     H31183   7.028  10.753   3.420  1.1744  0.4681 -1.9869
  994MOL0     H31184   6.839  10.861   3.376  4.2639 -1.6851 -0.3669
  994MOL0     H31185   6.780  10.712   3.458 -0.3499 -2.4972 -1.0308
  994MOL0     H31186   6.713  10.605   3.230 -2.0251  0.7921 -3.4439
  994MOL0     H31187   6.629  10.749   3.283  1.3878  2.2613  0.1731
  994MOL0     H31188   6.675  10.722   3.050 -1.2363 -1.9393  4.6021
  994MOL0     H31189   6.850  10.763   3.076 -0.5405 -2.1778 -1.0136
  994MOL0     H31190   7.278   9.924   3.531  0.6411 -3.0598 -1.2470
  994MOL0     H31191   7.484   9.803   3.602  1.5328 -0.5121  0.7323
  994MOL0     H31192   7.853   9.731   3.799  0.0785  0.7416 -2.8916
  994MOL0     H31193   8.038   9.711   3.969  2.2957 -1.4372 -0.0158
  994MOL0     H31194   7.202   9.817   5.396 -2.6443  0.7016  1.0464
  994MOL0     H31195   7.080   9.774   5.596  0.4743  3.4023 -2.3012
  994MOL0     H31196   6.766   9.670   5.902  1.7418 -0.9713 -1.2442
  994MOL0     H31197   6.688   9.804   6.104 -0.0810 -3.5879  1.3364
  994MOL0     H31198   6.955  10.123   6.262 -0.3684  2.0561  2.7032
  994MOL0     H31199   6.998   9.979   6.370  1.6147  2.8718  1.1241
  994MOL0     H31200   6.793  10.050   6.492  2.9050 -2.4411  0.6639
  994MOL0     H31201   6.926  10.159   6.501 -0.1563 -2.7013  0.3347
  994MOL0     H31202   6.731  10.208   6.260  0.1811  2.4363  0.2120
  994MOL0     H31203   6.776  10.320   6.382  0.8259 -0.3319  2.5349
  994MOL0     H31204   6.563  10.100   6.416  0.2860  0.8280 -1.9781
  994MOL0     H31205   6.614  10.230   6.532  0.6765  1.6736 -0.3600
  994MOL0     H31206   6.349  10.437   6.298  0.5205 -0.9654 -2.4661
  994MOL0     H31207   7.084   9.962   6.152  1.2650 -0.5229  1.2528
  994MOL0     H31208   7.164   9.812   5.963 -1.0575  0.9849 -1.7627
  995MOL0     O31209   5.196   6.443  10.314 -0.3653 -0.2895 -0.1984
  995MOL0     C31210   5.235   6.556  10.298  0.4264 -0.2719  0.7079
  995MOL0     O31211   5.149   6.667  10.290 -0.1460 -0.2835  0.1163
  995MOL0     C31212   5.014   6.668  10.269 -1.4302  0.9824 -0.4092
  995MOL0     C31213   4.956   6.790  10.238 -0.1304  0.7858 -0.5285
  995MOL0     C31214   4.823   6.818  10.218  0.3087  0.1620  0.3189
  995MOL0     C31215   4.734   6.707  10.222  0.3194 -0.3587 -0.5145
  995MOL0     O31216   4.608   6.739  10.186 -0.5087  0.0215 -0.2267
  995MOL0     C31217   4.503   6.648  10.209  0.1055  0.4636 -0.1498
  995MOL0     C31218   4.360   6.704  10.186  0.6134  0.7010  0.6286
  995MOL0     C31219   4.330   6.815  10.278 -0.1908  0.0531  0.3218
  995MOL0     C31220   4.188   6.852  10.279 -0.8319 -0.0927 -0.7367
  995MOL0     C31221   4.132   6.911  10.151 -0.1363 -0.1914 -0.5729
  995MOL0     C31222   3.983   6.933  10.161 -0.0588 -0.1181 -0.0232
  995MOL0     C31223   3.941   7.052  10.254 -0.1699  0.5857 -0.1448
  995MOL0     C31224   3.980   7.187  10.203 -0.2050  0.4308  1.2164
  995MOL0     N31225   3.918   7.288  10.283  0.7251 -0.1813 -0.1671
  995MOL0     C31226   3.937   7.304  10.416 -0.1338 -0.2861 -0.6515
  995MOL0     C31227   3.847   7.401  10.457  0.3257 -0.2398  0.1104
  995MOL0     C31228   3.847   7.458  10.597 -0.0478 -0.0592 -0.2972
  995MOL0     C31229   3.773   7.598  10.598 -0.0639 -0.3344  0.4584
  995MOL0     C31230   3.769   7.650  10.742 -0.4812  0.2595 -0.0573
  995MOL0     C31231   3.689   7.777  10.735  0.8232  0.2025  0.4824
  995MOL0     O31232   3.653   7.820  10.867 -0.5273  0.1090 -0.8184
  995MOL0     C31233   3.518   7.828  10.902  0.9528 -0.2291 -0.0248
  995MOL0     C31234   3.482   7.945  10.961 -0.9087  0.6347 -0.3253
  995MOL0     C31235   3.360   7.964  11.007 -0.0065  0.7103  0.0400
  995MOL0     C31236   3.261   7.863  10.988 -1.5678  0.3115 -0.5020
  995MOL0     C31237   3.124   7.877  11.022  0.0867 -0.0001  0.5881
  995MOL0     O31238   3.088   7.966  11.121 -0.2352  0.4831  0.0910
  995MOL0     C31239   2.958   8.001  11.133 -1.2907  0.2372 -0.1158
  995MOL0     C31240   2.889   8.045  11.023  0.3057 -0.1717  0.3316
  995MOL0     C31241   2.757   8.105  11.043  0.1444 -0.1507 -0.9869
  995MOL0     C31242   2.699   8.130  11.173 -0.4546 -0.3716  0.3582
  995MOL0     O31243   2.581   8.199  11.194 -0.9937 -0.2740 -0.1705
  995MOL0     C31244   2.474   8.206  11.096 -0.4905 -0.6505 -0.2457
  995MOL0     C31245   2.397   8.078  11.088  0.1173  0.4030 -0.4489
  995MOL0     C31246   2.291   8.057  10.983  0.3354 -0.2731 -1.0768
  995MOL0     C31247   2.173   8.160  10.982  0.5484 -0.4175  1.6043
  995MOL0     C31248   2.062   8.112  10.881  0.3542  0.2223  0.1013
  995MOL0     C31249   1.972   8.226  10.826  0.2017  0.1899  0.6368
  995MOL0     C31250   1.930   8.309  10.945 -0.3053  0.1052 -0.3837
  995MOL0     C31251   1.822   8.404  10.909  0.5372  0.0946 -0.2013
  995MOL0    Cl31252   1.664   8.319  10.888 -0.6811 -0.5377 -0.5979
  995MOL0     C31253   2.793   8.109  11.276  0.6849  1.3763  0.2726
  995MOL0     C31254   2.913   8.035  11.260 -0.4303 -0.0104  0.0915
  995MOL0     O31255   3.045   7.823  10.935  0.4960 -0.5764 -0.2282
  995MOL0     C31256   3.302   7.743  10.920  0.1589 -0.3590 -0.6195
  995MOL0     C31257   3.425   7.725  10.877 -0.6457  0.4349  0.3574
  995MOL0     N31258   3.770   7.433  10.348  0.0499  0.2111 -0.0562
  995MOL0     N31259   3.801   7.354  10.248  0.5328  1.0171 -0.2110
  995MOL0     C31260   4.786   6.577  10.262 -0.5838 -0.2243  0.4391
  995MOL0     C31261   4.923   6.566  10.287  0.0686  0.4119 -0.4398
  995MOL0     C31262   5.384   6.566  10.281 -0.2432 -1.1365 -0.5248
  995MOL0     C31263   5.446   6.689  10.249  0.0429 -0.1310  0.5064
  995MOL0     C31264   5.587   6.696  10.232 -0.0358 -0.4404  0.3862
  995MOL0     C31265   5.668   6.583  10.238  0.0932  0.2700 -0.0393
  995MOL0     O31266   5.796   6.602  10.212  0.3585 -0.5076  0.5993
  995MOL0     C31267   5.870   6.495  10.147  0.1288 -0.7311  0.0508
  995MOL0     C31268   5.992   6.454  10.230 -0.1681 -1.2375 -0.4612
  995MOL0     C31269   6.021   6.300  10.212 -0.1604 -0.5338 -0.3832
  995MOL0     C31270   6.153   6.257  10.268  0.2164 -0.4979 -0.7418
  995MOL0     C31271   6.160   6.112  10.256  0.2350  0.9425 -0.6919
  995MOL0     C31272   6.176   5.993  10.241  0.5286  0.8306 -0.2687
  995MOL0     C31273   5.603   6.462  10.265 -0.2396 -0.4865 -0.8726
  995MOL0     C31274   5.471   6.458  10.292 -0.5295 -0.3731 -0.0259
  995MOL0     H31275   5.028   6.872  10.237 -0.4992  1.1408 -2.5867
  995MOL0     H31276   4.783   6.917  10.203  0.6651  1.2399  4.9744
  995MOL0     H31277   4.515   6.611  10.311  2.8961  2.8905  0.5494
  995MOL0     H31278   4.514   6.561  10.145  2.3749  0.1518  0.5615
  995MOL0     H31279   4.278   6.632  10.195 -0.1884  1.5055 -0.0385
  995MOL0     H31280   4.353   6.730  10.080  3.1806 -0.9804 -0.0493
  995MOL0     H31281   4.389   6.905  10.258 -1.7210  0.5285 -2.4026
  995MOL0     H31282   4.350   6.780  10.380 -1.0789  0.3266  0.6010
  995MOL0     H31283   4.132   6.761  10.301  0.6804 -1.3044 -1.6837
  995MOL0     H31284   4.156   6.914  10.363 -2.9230 -1.8274 -0.1438
  995MOL0     H31285   4.159   6.848  10.066  0.5016 -0.7851  0.0541
  995MOL0     H31286   4.186   7.004  10.129 -0.1214 -0.3862 -1.3621
  995MOL0     H31287   3.944   6.837  10.196  1.0639 -0.8324 -0.7003
  995MOL0     H31288   3.935   6.944  10.063 -0.2624 -0.1500  0.0709
  995MOL0     H31289   3.832   7.049  10.265 -0.1914 -1.0028 -0.5445
  995MOL0     H31290   3.986   7.051  10.354 -0.6871 -0.7803  0.1019
  995MOL0     H31291   3.937   7.201  10.103  1.0978 -1.5875  0.3223
  995MOL0     H31292   4.087   7.210  10.202  0.2064 -1.2087  2.9656
  995MOL0     H31293   4.000   7.246  10.482 -1.1224 -0.6750 -0.0191
  995MOL0     H31294   3.948   7.467  10.638  1.3308  1.8447 -3.7150
  995MOL0     H31295   3.792   7.378  10.649  0.4446 -1.6733 -2.1697
  995MOL0     H31296   3.670   7.589  10.562 -0.3929  1.1727  0.9120
  995MOL0     H31297   3.818   7.668  10.527  0.4292 -2.8143 -1.7918
  995MOL0     H31298   3.717   7.580  10.808  0.4293 -1.2299 -0.8681
  995MOL0     H31299   3.874   7.662  10.769 -0.2712 -2.1022  0.3913
  995MOL0     H31300   3.602   7.757  10.670  1.9152 -0.0906 -0.9385
  995MOL0     H31301   3.748   7.853  10.682  0.5407  0.6361  0.7813
  995MOL0     H31302   3.560   8.019  10.978 -0.6798  0.7682 -1.8767
  995MOL0     H31303   3.326   8.060  11.044 -2.8098  0.4565 -1.5595
  995MOL0     H31304   2.940   8.025  10.929  2.0151  3.5771  0.2627
  995MOL0     H31305   2.690   8.131  10.962  0.5978 -0.2286 -1.3879
  995MOL0     H31306   2.504   8.230  10.993  3.5349  0.0680  0.9226
  995MOL0     H31307   2.403   8.284  11.129 -0.2167 -1.0046  1.2392
  995MOL0     H31308   2.338   8.069  11.180  0.4768  0.9648 -0.1568
  995MOL0     H31309   2.465   7.993  11.078 -0.9437 -0.2681 -2.7550
  995MOL0     H31310   2.266   7.957  11.020 -0.3492  0.3572  0.2004
  995MOL0     H31311   2.318   8.045  10.877 -1.2942 -3.3215 -1.2706
  995MOL0     H31312   2.139   8.171  11.086  0.7225  0.6980  1.5573
  995MOL0     H31313   2.206   8.257  10.945 -0.6968 -0.1646  1.1106
  995MOL0     H31314   2.005   8.034  10.931  1.5201 -1.7106 -1.4244
  995MOL0     H31315   2.119   8.075  10.794  0.5628  5.9805 -2.6974
  995MOL0     H31316   1.877   8.191  10.783 -0.3793  1.4613  0.8201
  995MOL0     H31317   2.023   8.274  10.742 -0.3072  0.3982  0.4378
  995MOL0     H31318   1.882   8.244  11.020  1.4296 -0.4899  0.2813
  995MOL0     H31319   2.014   8.366  10.987 -0.4366  1.9026 -2.4193
  995MOL0     H31320   1.848   8.457  10.817 -2.0024  0.1129 -0.9878
  995MOL0     H31321   1.810   8.470  10.996  1.2261 -0.4650  0.3347
  995MOL0     H31322   2.767   8.148  11.374  1.2139  3.6064 -0.3997
  995MOL0     H31323   2.984   8.024  11.341 -1.0068 -0.3334  0.5659
  995MOL0     H31324   3.228   7.666  10.903  1.0857 -1.4718  0.2926
  995MOL0     H31325   3.462   7.636  10.827 -1.3995 -0.5367  1.4727
  995MOL0     H31326   4.724   6.488  10.260 -1.1754  0.1563 -1.8657
  995MOL0     H31327   4.954   6.468  10.322 -2.1287 -0.6588 -1.3545
  995MOL0     H31328   5.392   6.780  10.225  1.7549  0.5849 -0.8757
  995MOL0     H31329   5.641   6.784  10.198 -0.9918 -0.6701 -1.9309
  995MOL0     H31330   5.905   6.532  10.050 -1.0182 -1.7323 -0.7673
  995MOL0     H31331   5.807   6.410  10.119  0.4797 -0.5438 -1.3797
  995MOL0     H31332   6.081   6.511  10.201  0.8790 -3.4642 -1.8945
  995MOL0     H31333   5.964   6.491  10.329 -0.7222  1.7103 -1.6060
  995MOL0     H31334   6.023   6.283  10.104 -1.2315  1.2824 -0.7269
  995MOL0     H31335   5.932   6.249  10.252 -0.1933 -0.0603  0.1673
  995MOL0     H31336   6.230   6.303  10.205 -0.3835  0.2640 -0.9329
  995MOL0     H31337   6.168   6.284  10.373  3.1091 -2.7482 -0.4524
  995MOL0     H31338   6.165   5.889  10.219  0.1791  0.9705 -0.7916
  995MOL0     H31339   5.648   6.363  10.266  0.2170 -0.2854 -1.1661
  995MOL0     H31340   5.432   6.357  10.298 -0.8602 -0.2670 -0.3501
  996MOL0     O31341   1.499   2.371   7.224 -0.0380  0.8440  0.3558
  996MOL0     C31342   1.548   2.391   7.116 -0.4528  0.6072  0.0142
  996MOL0     O31343   1.477   2.427   7.000 -0.4412  0.1376  0.0996
  996MOL0     C31344   1.350   2.482   7.012 -1.1474  0.2547 -0.4053
  996MOL0     C31345   1.329   2.620   6.992 -1.0281  0.6370  0.5531
  996MOL0     C31346   1.205   2.681   7.005  0.1601  0.0336 -0.5784
  996MOL0     C31347   1.096   2.601   7.038  0.3482 -0.8300 -0.3751
  996MOL0     O31348   0.977   2.666   7.039  0.4970 -0.2399 -0.4911
  996MOL0     C31349   0.867   2.609   7.120 -0.5001 -0.2934  0.6921
  996MOL0     C31350   0.751   2.710   7.115  0.5972 -0.0169 -0.2581
  996MOL0     C31351   0.630   2.672   7.204 -0.6741  0.3430 -0.3639
  996MOL0     C31352   0.513   2.759   7.186  0.5664 -0.2605  0.7758
  996MOL0     C31353   0.402   2.728   7.285 -0.6154  0.3151 -0.1670
  996MOL0     C31354   0.327   2.603   7.250  0.7235  0.4053  0.8800
  996MOL0     C31355   0.228   2.564   7.356 -0.4728 -0.3612 -0.0582
  996MOL0     C31356   0.282   2.478   7.469  0.2090 -0.6463  1.0445
  996MOL0     N31357   0.187   2.447   7.570  0.1556 -0.0889 -0.3965
  996MOL0     C31358   0.181   2.457   7.707  0.3702  0.7066 -0.7673
  996MOL0     C31359   0.062   2.390   7.741 -0.3571  0.0223 -0.1092
  996MOL0     C31360   0.009   2.346   7.870 -0.1734  0.0152 -0.5033
  996MOL0     C31361  -0.127   2.408   7.900 -0.1437 -0.0013  0.3632
  996MOL0     C31362  -0.118   2.562   7.914 -0.4635  0.0433  0.2731
  996MOL0     C31363  -0.197   2.613   8.035  0.7391 -0.5883  0.4661
  996MOL0     O31364  -0.154   2.749   8.058  0.5128 -0.1344 -0.0459
  996MOL0     C31365  -0.193   2.801   8.177  0.0467  0.4760 -0.6491
  996MOL0     C31366  -0.108   2.894   8.244  0.6463 -0.7544  0.0111
  996MOL0     C31367  -0.138   2.949   8.372 -0.3448 -0.3764 -0.2170
  996MOL0     C31368  -0.254   2.904   8.439  0.3086 -0.4804 -0.3146
  996MOL0     C31369  -0.287   2.962   8.573 -1.0853 -0.4361  0.2564
  996MOL0     O31370  -0.380   2.901   8.645 -0.0428  0.5602  0.2081
  996MOL0     C31371  -0.406   2.945   8.769 -1.3926  0.5639  1.0907
  996MOL0     C31372  -0.335   2.883   8.871  0.2603 -0.0033  0.1606
  996MOL0     C31373  -0.371   2.913   9.007 -0.0057 -0.3034 -0.0845
  996MOL0     C31374  -0.479   3.003   9.029 -0.6849 -0.4059 -0.0131
  996MOL0     O31375  -0.530   3.063   9.142  0.0561  0.3177  0.2637
  996MOL0     C31376  -0.459   3.023   9.267  0.5680 -0.3200  0.0996
  996MOL0     C31377  -0.507   3.116   9.377 -0.3031  0.0426 -0.3686
  996MOL0     C31378  -0.433   3.097   9.506  0.1156  0.0485  0.0393
  996MOL0     C31379  -0.284   3.144   9.493  0.2194 -0.3068 -0.3743
  996MOL0     C31380  -0.216   3.149   9.626 -0.1865 -0.8988 -0.9428
  996MOL0     C31381  -0.216   3.287   9.689 -0.7830 -0.1486 -0.4823
  996MOL0     C31382  -0.355   3.349   9.721 -0.3385  0.2014  0.5633
  996MOL0     C31383  -0.435   3.282   9.834  0.3281 -0.3348  0.4846
  996MOL0    Cl31384  -0.584   3.378   9.846 -0.2680  0.0697  0.7549
  996MOL0     C31385  -0.558   3.050   8.920 -0.0456  0.1149 -0.4520
  996MOL0     C31386  -0.522   3.019   8.786  0.1119 -0.4859  0.1512
  996MOL0     O31387  -0.232   3.066   8.610 -0.4972  0.0576  0.9773
  996MOL0     C31388  -0.337   2.809   8.375  0.3027 -0.2212 -0.1362
  996MOL0     C31389  -0.311   2.762   8.243  0.0299  0.4280 -0.0888
  996MOL0     N31390  -0.006   2.360   7.622  0.0533  0.4343 -0.6656
  996MOL0     N31391   0.066   2.397   7.527  0.3428  0.0715 -0.1891
  996MOL0     C31392   1.115   2.459   7.058 -0.1828 -0.2038 -0.0413
  996MOL0     C31393   1.241   2.402   7.049  0.6506  0.1181  0.9536
  996MOL0     C31394   1.696   2.376   7.099  0.1520  0.4678  0.2176
  996MOL0     C31395   1.769   2.319   7.198 -1.2570  0.6941  0.1702
  996MOL0     C31396   1.907   2.291   7.188 -0.1849  0.5619  0.4864
  996MOL0     C31397   1.967   2.311   7.063 -0.2896 -0.2668 -0.2082
  996MOL0     O31398   2.101   2.300   7.042  0.2643 -0.0565 -0.8957
  996MOL0     C31399   2.185   2.264   7.151 -0.9433 -0.2615 -0.0419
  996MOL0     C31400   2.320   2.247   7.088  0.1241  0.2388  0.0227
  996MOL0     C31401   2.420   2.203   7.190 -0.0232 -0.7975 -0.9461
  996MOL0     C31402   2.548   2.157   7.122 -0.5999 -0.1632 -0.2472
  996MOL0     C31403   2.611   2.259   7.032  0.4439  0.0953 -0.4524
  996MOL0     C31404   2.656   2.367   6.984  0.4308  0.6851  0.2110
  996MOL0     C31405   1.895   2.365   6.952 -0.7634  0.1858 -0.6741
  996MOL0     C31406   1.756   2.391   6.975 -0.3765 -1.3000  0.7082
  996MOL0     H31407   1.413   2.686   6.974 -0.3190  0.1026  1.7535
  996MOL0     H31408   1.198   2.787   6.985  3.0657  0.2261 -0.8806
  996MOL0     H31409   0.897   2.582   7.222  1.2471 -1.8110 -0.1601
  996MOL0     H31410   0.852   2.508   7.081  0.7293 -0.8538  1.5973
  996MOL0     H31411   0.716   2.722   7.012  0.9055  0.0822 -0.3525
  996MOL0     H31412   0.781   2.808   7.153 -2.1880  1.4402 -1.5100
  996MOL0     H31413   0.662   2.675   7.308  1.6445 -1.7638 -0.9043
  996MOL0     H31414   0.597   2.576   7.162  1.2110  1.3350 -4.7169
  996MOL0     H31415   0.544   2.861   7.211 -1.5118  1.2098 -2.1559
  996MOL0     H31416   0.477   2.766   7.083 -0.0081 -0.6937  0.9449
  996MOL0     H31417   0.330   2.809   7.302 -0.0126  0.1825  4.0608
  996MOL0     H31418   0.443   2.706   7.383 -2.4975 -3.0658  0.0141
  996MOL0     H31419   0.392   2.517   7.231 -0.4423  0.1085 -2.3743
  996MOL0     H31420   0.270   2.614   7.158  0.2356  0.1834  1.1532
  996MOL0     H31421   0.184   2.657   7.393  3.6004  1.8150 -0.1216
  996MOL0     H31422   0.150   2.516   7.297 -2.3280  3.4374 -0.9818
  996MOL0     H31423   0.380   2.505   7.508  0.3456 -1.6001  1.4042
  996MOL0     H31424   0.323   2.387   7.424  3.6962  0.3543  1.9162
  996MOL0     H31425   0.251   2.500   7.779  2.0000 -2.5022 -0.2640
  996MOL0     H31426   0.077   2.360   7.955 -0.6762 -0.3386 -0.0360
  996MOL0     H31427  -0.001   2.237   7.861 -1.4266  0.1388 -0.8846
  996MOL0     H31428  -0.169   2.368   7.994 -3.7820  0.9973 -0.6789
  996MOL0     H31429  -0.190   2.384   7.814 -1.8777 -1.6791  1.9754
  996MOL0     H31430  -0.015   2.597   7.916 -0.6963  0.7711  0.0579
  996MOL0     H31431  -0.157   2.601   7.819 -0.3198  3.0821  1.3707
  996MOL0     H31432  -0.181   2.548   8.121  2.3794 -0.8857 -0.0203
  996MOL0     H31433  -0.302   2.608   8.005  0.9086 -0.2062 -0.2358
  996MOL0     H31434  -0.019   2.922   8.189  0.6196  1.2032  0.9075
  996MOL0     H31435  -0.070   3.020   8.418 -0.0872 -1.0605  0.4620
  996MOL0     H31436  -0.261   2.804   8.859 -1.7225 -1.9187 -0.2089
  996MOL0     H31437  -0.318   2.854   9.080 -1.9851 -0.6442  1.1712
  996MOL0     H31438  -0.350   3.018   9.254  0.4828 -1.9945 -0.0729
  996MOL0     H31439  -0.486   2.922   9.296  0.0789  0.4537  2.6607
  996MOL0     H31440  -0.614   3.102   9.394 -0.8006 -2.1496 -4.3167
  996MOL0     H31441  -0.488   3.218   9.342  2.0775 -0.2746 -0.1148
  996MOL0     H31442  -0.447   2.998   9.551  3.3436  0.6192  2.7313
  996MOL0     H31443  -0.483   3.162   9.578  0.6697  1.8247 -1.1130
  996MOL0     H31444  -0.236   3.072   9.425 -0.0725 -0.3461 -0.5412
  996MOL0     H31445  -0.285   3.244   9.449 -3.0958  0.7258  1.7157
  996MOL0     H31446  -0.113   3.122   9.603 -0.5351 -4.0984  0.6684
  996MOL0     H31447  -0.254   3.068   9.688 -0.7003 -0.8190 -1.1502
  996MOL0     H31448  -0.160   3.354   9.623  2.8906 -2.5579 -0.1552
  996MOL0     H31449  -0.157   3.284   9.781 -3.1166 -1.7059  1.0496
  996MOL0     H31450  -0.335   3.453   9.745  1.1095 -0.0689  0.6422
  996MOL0     H31451  -0.408   3.356   9.626  0.9100 -0.4313 -0.2082
  996MOL0     H31452  -0.380   3.297   9.927 -1.2428 -2.1439  1.7791
  996MOL0     H31453  -0.457   3.176   9.819  0.1234 -0.3104  0.6152
  996MOL0     H31454  -0.640   3.115   8.949 -0.9157 -1.7866  1.6927
  996MOL0     H31455  -0.576   3.055   8.699  1.6291 -1.7865 -1.4239
  996MOL0     H31456  -0.425   2.775   8.428  0.7661 -1.0387  0.1286
  996MOL0     H31457  -0.375   2.685   8.199  2.1470 -1.5138  0.0608
  996MOL0     H31458   1.033   2.398   7.094  1.0726 -0.7515  2.0801
  996MOL0     H31459   1.250   2.296   7.074  0.8303 -0.2983 -0.7500
  996MOL0     H31460   1.722   2.275   7.286  1.1499 -4.3931 -0.7280
  996MOL0     H31461   1.963   2.241   7.266 -0.9292  1.2443  1.4871
  996MOL0     H31462   2.153   2.172   7.201 -0.7053  1.3543  3.3339
  996MOL0     H31463   2.190   2.350   7.218  1.5411 -0.0363 -0.4448
  996MOL0     H31464   2.316   2.174   7.006  1.4943  2.7775 -2.5128
  996MOL0     H31465   2.353   2.339   7.037  2.7680 -0.5516  0.1553
  996MOL0     H31466   2.380   2.121   7.250 -0.0053 -2.0226 -2.5341
  996MOL0     H31467   2.452   2.288   7.251  3.7569 -2.3777 -0.4761
  996MOL0     H31468   2.621   2.149   7.203  1.5864  1.6114 -1.9020
  996MOL0     H31469   2.538   2.060   7.072  2.0020  0.0232 -1.3211
  996MOL0     H31470   2.672   2.461   6.936  3.5908 -0.5503 -1.4642
  996MOL0     H31471   1.936   2.384   6.854 -1.3008  1.4599 -0.6717
  996MOL0     H31472   1.704   2.433   6.889  0.4843  1.9937  1.6420
  997MOL0     O31473   0.832   3.808   4.171 -0.5536  0.4775  0.0239
  997MOL0     C31474   0.830   3.772   4.291  0.8509 -0.2219 -0.3061
  997MOL0     O31475   0.717   3.744   4.364  0.4720 -0.1241  0.1390
  997MOL0     C31476   0.617   3.660   4.304 -0.0134 -0.7058  0.8546
  997MOL0     C31477   0.527   3.618   4.395 -0.4182  0.4472  0.4380
  997MOL0     C31478   0.431   3.527   4.369  0.5510 -0.3443  0.0715
  997MOL0     C31479   0.425   3.476   4.245 -0.2450  0.0157 -0.2326
  997MOL0     O31480   0.323   3.376   4.237  0.3725 -1.2637  0.2078
  997MOL0     C31481   0.301   3.290   4.123 -0.2122  0.1463 -0.4111
  997MOL0     C31482   0.152   3.254   4.118  0.3417 -0.7288 -0.3406
  997MOL0     C31483   0.121   3.129   4.025 -0.4769 -0.0605 -0.6691
  997MOL0     C31484  -0.028   3.096   4.041 -0.7777 -0.6284 -0.5514
  997MOL0     C31485  -0.051   2.952   4.009  0.1642 -0.6286 -0.5270
  997MOL0     C31486  -0.183   2.913   4.066  0.3644  0.1263  1.4839
  997MOL0     C31487  -0.202   2.767   4.028  1.0450 -0.3651 -0.3175
  997MOL0     C31488  -0.325   2.697   4.085 -0.3829 -0.2673 -0.0027
  997MOL0     N31489  -0.456   2.724   4.037  0.7067  0.0350 -0.0310
  997MOL0     C31490  -0.546   2.807   4.097 -0.4926 -0.7007  0.7773
  997MOL0     C31491  -0.645   2.827   4.014 -0.8941 -0.0374 -0.0699
  997MOL0     C31492  -0.755   2.929   4.018  0.5507 -0.3116 -0.3287
  997MOL0     C31493  -0.899   2.877   3.990 -0.9112 -0.1730  0.0892
  997MOL0     C31494  -0.977   2.826   4.113 -0.4264  0.6141 -0.8121
  997MOL0     C31495  -1.109   2.752   4.078 -0.1175  0.2253  0.1980
  997MOL0     O31496  -1.219   2.847   4.086 -0.1651 -0.8777 -0.1576
  997MOL0     C31497  -1.344   2.793   4.061  0.4522  0.2516  0.2434
  997MOL0     C31498  -1.376   2.701   3.965  0.2929  0.1857  0.3030
  997MOL0     C31499  -1.507   2.670   3.925  0.2986  0.2368  0.2774
  997MOL0     C31500  -1.613   2.727   3.986  0.1477 -0.4424  0.1008
  997MOL0     C31501  -1.749   2.688   3.948 -0.5393  0.2401 -0.6183
  997MOL0     O31502  -1.778   2.608   3.852  0.7409 -0.4347 -0.3564
  997MOL0     C31503  -1.900   2.578   3.796  0.2601 -0.3710  0.0222
  997MOL0     C31504  -2.021   2.644   3.820 -0.1320  0.3502  0.3877
  997MOL0     C31505  -2.139   2.610   3.755  0.1448 -0.5206 -0.1706
  997MOL0     C31506  -2.143   2.500   3.667 -0.1141  0.4308 -0.2364
  997MOL0     O31507  -2.260   2.476   3.604  0.0657 -1.0424 -0.3361
  997MOL0     C31508  -2.275   2.352   3.534  0.4118 -0.3558 -0.2792
  997MOL0     C31509  -2.407   2.338   3.469 -0.4914 -0.1328  0.4079
  997MOL0     C31510  -2.525   2.358   3.563 -0.1522 -0.4447 -0.1945
  997MOL0     C31511  -2.655   2.383   3.482  0.8619  0.3879 -0.2990
  997MOL0     C31512  -2.779   2.372   3.575 -0.0234 -0.0587 -0.1050
  997MOL0     C31513  -2.904   2.387   3.499 -1.0660  0.5654 -0.3101
  997MOL0     C31514  -3.021   2.354   3.585  0.0145 -0.2864 -0.0698
  997MOL0     C31515  -3.066   2.462   3.686 -0.4363 -0.0935  0.1628
  997MOL0    Cl31516  -3.224   2.403   3.737 -0.2306  0.0031 -0.1021
  997MOL0     C31517  -2.017   2.433   3.644 -0.3924 -0.3145 -0.0604
  997MOL0     C31518  -1.899   2.480   3.698  0.1989  0.2533 -0.8104
  997MOL0     O31519  -1.833   2.730   4.030  0.0326 -1.2267  0.0614
  997MOL0     C31520  -1.586   2.826   4.080  0.2200  0.1485  0.3418
  997MOL0     C31521  -1.455   2.865   4.119  0.2262 -0.8081  0.6126
  997MOL0     N31522  -0.621   2.752   3.900  0.1349 -0.4600 -0.5841
  997MOL0     N31523  -0.509   2.685   3.918  0.8859 -0.0234 -0.4252
  997MOL0     C31524   0.516   3.513   4.138  0.3132  0.6374 -0.8009
  997MOL0     C31525   0.608   3.613   4.168  0.3012  0.0195 -0.1151
  997MOL0     C31526   0.959   3.785   4.359 -0.4636  0.7696  0.2957
  997MOL0     C31527   0.962   3.764   4.501 -0.0608  1.2448 -0.1378
  997MOL0     C31528   1.077   3.777   4.569 -0.9129 -0.3107  0.9696
  997MOL0     C31529   1.198   3.820   4.504 -0.2553 -0.3936  0.2462
  997MOL0     O31530   1.300   3.859   4.588  0.7936 -1.4255  1.5863
  997MOL0     C31531   1.428   3.908   4.539  0.2183 -0.4467  0.0481
  997MOL0     C31532   1.533   3.844   4.626 -0.4502  0.9491  0.6640
  997MOL0     C31533   1.676   3.901   4.581 -0.6112 -0.0408 -0.5836
  997MOL0     C31534   1.706   3.919   4.437 -0.3915 -0.4085 -0.5127
  997MOL0     C31535   1.844   3.980   4.427  0.2357 -0.5818 -0.3134
  997MOL0     C31536   1.957   4.027   4.432 -0.5812  0.3152  0.1459
  997MOL0     C31537   1.191   3.850   4.368 -0.1321 -0.2361  0.1634
  997MOL0     C31538   1.078   3.834   4.292  0.1344 -0.1123 -0.1369
  997MOL0     H31539   0.530   3.654   4.498 -0.5810 -0.4643  0.7700
  997MOL0     H31540   0.362   3.489   4.444  0.5499  0.9306  0.7534
  997MOL0     H31541   0.369   3.204   4.127 -1.2545 -1.1359 -4.7364
  997MOL0     H31542   0.328   3.334   4.026 -1.4080  3.3884  0.6008
  997MOL0     H31543   0.079   3.334   4.105  0.0204 -1.3447 -2.7780
  997MOL0     H31544   0.127   3.224   4.221 -1.9348 -5.5495 -1.9727
  997MOL0     H31545   0.180   3.044   4.060  0.0400 -0.0352 -1.4545
  997MOL0     H31546   0.149   3.138   3.920  1.3464  1.5891 -0.1261
  997MOL0     H31547  -0.046   3.124   4.146  1.4491 -0.8438 -0.0504
  997MOL0     H31548  -0.089   3.155   3.973 -1.2314 -3.9438 -3.3050
  997MOL0     H31549   0.025   2.892   4.059  0.8366  1.6858  1.4598
  997MOL0     H31550  -0.033   2.927   3.904 -0.2196 -0.7571 -0.5659
  997MOL0     H31551  -0.270   2.971   4.031 -1.0637 -3.5444 -1.8480
  997MOL0     H31552  -0.173   2.919   4.174  2.7994 -2.5782  1.5055
  997MOL0     H31553  -0.203   2.758   3.919  2.8684  3.0628 -0.7407
  997MOL0     H31554  -0.109   2.713   4.048  1.2992 -0.5602 -1.8800
  997MOL0     H31555  -0.320   2.707   4.194  1.6709  4.5899 -0.2659
  997MOL0     H31556  -0.324   2.590   4.064  2.1772 -0.2412 -0.3248
  997MOL0     H31557  -0.541   2.854   4.194  0.4842 -0.7406  0.7541
  997MOL0     H31558  -0.730   3.014   3.954 -1.2398  1.6691  1.4616
  997MOL0     H31559  -0.762   2.968   4.120 -0.9023  0.0587 -0.5492
  997MOL0     H31560  -0.897   2.798   3.915 -2.7423 -1.7064  1.5361
  997MOL0     H31561  -0.946   2.967   3.949  1.7559  1.0740 -0.4151
  997MOL0     H31562  -0.912   2.763   4.175 -1.2714  1.2723  0.7857
  997MOL0     H31563  -1.008   2.910   4.175  0.1453  0.9931 -1.0350
  997MOL0     H31564  -1.129   2.684   4.161  1.5417  1.3113  1.5393
  997MOL0     H31565  -1.108   2.697   3.984  1.8888  2.7123 -1.3735
  997MOL0     H31566  -1.297   2.663   3.902 -1.9685  1.1087 -3.4469
  997MOL0     H31567  -1.527   2.596   3.848  0.4265  0.9937 -0.5082
  997MOL0     H31568  -2.026   2.730   3.885  2.2409 -0.0681  1.2484
  997MOL0     H31569  -2.225   2.675   3.769  1.7091  2.6822 -3.7927
  997MOL0     H31570  -2.272   2.270   3.607 -0.9046 -0.3778 -0.2244
  997MOL0     H31571  -2.191   2.336   3.465  1.6672  1.7946  0.6310
  997MOL0     H31572  -2.409   2.245   3.411 -1.9532 -0.0883  0.3633
  997MOL0     H31573  -2.415   2.423   3.400  0.5802  1.1141  1.7537
  997MOL0     H31574  -2.500   2.446   3.623 -1.2719  1.3363 -2.1897
  997MOL0     H31575  -2.526   2.271   3.629 -1.7071  0.0529  0.4741
  997MOL0     H31576  -2.646   2.487   3.451  1.1051  0.9207  1.4619
  997MOL0     H31577  -2.661   2.319   3.393  0.4352 -0.2344  0.1731
  997MOL0     H31578  -2.771   2.453   3.648  2.9737  0.5350 -0.9303
  997MOL0     H31579  -2.758   2.280   3.630  0.3761  0.2344  0.2492
  997MOL0     H31580  -2.907   2.326   3.408  2.4258  0.8175 -0.7382
  997MOL0     H31581  -2.912   2.493   3.471 -0.3228  0.4770 -0.9189
  997MOL0     H31582  -3.104   2.340   3.515 -1.5098  1.1613  1.3355
  997MOL0     H31583  -3.012   2.259   3.637 -0.1654  0.2189  0.9246
  997MOL0     H31584  -3.057   2.564   3.646 -0.0275  0.1907  0.9605
  997MOL0     H31585  -3.012   2.466   3.781 -2.2700 -0.0482  1.2387
  997MOL0     H31586  -2.003   2.358   3.567  3.0249  1.3294 -1.2352
  997MOL0     H31587  -1.802   2.433   3.683 -0.3156 -2.5801  3.2089
  997MOL0     H31588  -1.672   2.881   4.118 -0.2907 -0.1802 -0.3202
  997MOL0     H31589  -1.421   2.938   4.191 -0.0147 -0.3802  0.2931
  997MOL0     H31590   0.495   3.475   4.039 -0.0896  1.2546 -0.9607
  997MOL0     H31591   0.674   3.639   4.087  0.3476  2.5914  0.6684
  997MOL0     H31592   0.875   3.748   4.563 -0.4200 -1.3794 -1.1949
  997MOL0     H31593   1.075   3.758   4.676  3.1440 -0.9900  1.0919
  997MOL0     H31594   1.435   4.015   4.560  2.0712 -1.0606  3.3009
  997MOL0     H31595   1.440   3.872   4.436 -2.4876 -1.4395 -0.0123
  997MOL0     H31596   1.507   3.866   4.729 -0.4746 -3.2891  1.7357
  997MOL0     H31597   1.531   3.737   4.605 -0.2823  1.3238 -1.5190
  997MOL0     H31598   1.758   3.841   4.622 -0.4098 -0.9919 -2.2863
  997MOL0     H31599   1.686   3.992   4.641 -0.4120 -0.7494  0.4892
  997MOL0     H31600   1.707   3.824   4.382  1.5467 -0.6686 -0.1195
  997MOL0     H31601   1.631   3.983   4.389 -0.2625 -0.1702 -0.3960
  997MOL0     H31602   2.051   4.075   4.447 -0.6717  1.2510 -1.8241
  997MOL0     H31603   1.279   3.882   4.314 -0.1667 -0.5425 -0.0797
  997MOL0     H31604   1.081   3.862   4.187 -3.3823  0.8960 -0.0862
  998MOL0     O31605   0.493   6.827   4.880  0.2205 -0.5083  0.5623
  998MOL0     C31606   0.549   6.724   4.906 -0.7579  0.3008 -1.0412
  998MOL0     O31607   0.506   6.591   4.891 -0.2474 -0.0204  0.0286
  998MOL0     C31608   0.377   6.554   4.849  0.2846  0.9014 -0.2208
  998MOL0     C31609   0.277   6.645   4.819 -0.1316  0.9819 -0.2952
  998MOL0     C31610   0.150   6.582   4.777  0.9577 -0.7461 -0.8627
  998MOL0     C31611   0.128   6.445   4.781  0.0680  0.3085 -0.2481
  998MOL0     O31612   0.007   6.374   4.759 -0.1784 -0.4490 -0.2164
  998MOL0     C31613  -0.104   6.433   4.705 -1.1160 -0.3579 -0.2138
  998MOL0     C31614  -0.220   6.340   4.676  0.2023 -0.3758 -0.7686
  998MOL0     C31615  -0.310   6.404   4.566  0.0225  0.6645  0.1413
  998MOL0     C31616  -0.382   6.525   4.628  0.4489  0.5866 -0.6689
  998MOL0     C31617  -0.498   6.587   4.537 -0.3019 -0.1643 -0.0647
  998MOL0     C31618  -0.586   6.481   4.466 -0.7925  0.4421 -0.1641
  998MOL0     C31619  -0.725   6.528   4.433 -0.8520 -0.9174 -0.1050
  998MOL0     C31620  -0.731   6.654   4.352 -1.2477 -0.5232  0.2994
  998MOL0     N31621  -0.862   6.711   4.341 -0.2217 -0.5940 -0.1255
  998MOL0     C31622  -0.953   6.741   4.437 -0.0957 -0.0644  1.0928
  998MOL0     C31623  -1.069   6.758   4.368  0.4833  0.4156  0.8144
  998MOL0     C31624  -1.202   6.774   4.432 -1.1876  0.5278  0.3506
  998MOL0     C31625  -1.260   6.916   4.414  0.1810  0.4198 -0.1520
  998MOL0     C31626  -1.334   6.948   4.286  0.0134  1.0382 -0.0272
  998MOL0     C31627  -1.304   7.086   4.234  1.0412 -0.8264  0.3119
  998MOL0     O31628  -1.370   7.179   4.329 -0.5082  0.0106  0.5083
  998MOL0     C31629  -1.481   7.247   4.287  0.1115 -0.6327 -0.1402
  998MOL0     C31630  -1.545   7.333   4.378 -0.4375  0.4428  0.0489
  998MOL0     C31631  -1.656   7.412   4.348  0.6926  0.4922 -0.0343
  998MOL0     C31632  -1.720   7.399   4.225  0.4831 -1.4663  0.0180
  998MOL0     C31633  -1.852   7.473   4.208 -1.2863 -0.0083 -0.2267
  998MOL0     O31634  -1.930   7.438   4.104 -0.5659 -0.0029  0.3766
  998MOL0     C31635  -2.042   7.508   4.068 -0.1530  0.3709 -0.6621
  998MOL0     C31636  -2.095   7.474   3.947  0.2688  0.5414 -0.2722
  998MOL0     C31637  -2.214   7.537   3.908  0.4837  0.8409 -0.0904
  998MOL0     C31638  -2.290   7.630   3.989 -0.6457  0.4263  0.2384
  998MOL0     O31639  -2.411   7.682   3.946  0.0330 -0.3502  0.1159
  998MOL0     C31640  -2.487   7.777   4.022 -0.6246  0.5513 -0.4917
  998MOL0     C31641  -2.631   7.789   3.959 -1.0711  0.9266 -0.1826
  998MOL0     C31642  -2.734   7.869   4.043 -0.5561  0.0530  0.1898
  998MOL0     C31643  -2.868   7.870   3.983 -0.1266  0.2190  1.1270
  998MOL0     C31644  -2.971   7.751   4.004  0.6003 -0.0646  0.7361
  998MOL0     C31645  -3.112   7.807   3.967 -0.1929  0.4887  0.0273
  998MOL0     C31646  -3.210   7.688   3.938  0.9560 -0.5692  0.5764
  998MOL0     C31647  -3.240   7.608   4.065 -0.0044 -1.0870  0.5675
  998MOL0    Cl31648  -3.302   7.456   4.005  0.1246  0.0984 -0.0590
  998MOL0     C31649  -2.222   7.671   4.098  0.2629  0.3093 -0.9799
  998MOL0     C31650  -2.101   7.616   4.142  0.1224 -0.1915  0.6166
  998MOL0     O31651  -1.869   7.561   4.297 -0.2815  0.1607 -0.1452
  998MOL0     C31652  -1.663   7.311   4.133 -0.3439  0.4943  0.2372
  998MOL0     C31653  -1.549   7.233   4.168  0.5801 -1.3359  0.5277
  998MOL0     N31654  -1.048   6.742   4.228  0.5911 -0.6162 -0.2085
  998MOL0     N31655  -0.919   6.721   4.216 -0.1887 -0.3059 -0.1881
  998MOL0     C31656   0.241   6.365   4.792 -0.6103 -0.1300 -0.9772
  998MOL0     C31657   0.366   6.417   4.831  0.7502  0.5430  0.4328
  998MOL0     C31658   0.681   6.733   4.971 -0.4039 -0.3621  0.1648
  998MOL0     C31659   0.760   6.624   5.027  0.1074 -0.6957  0.1018
  998MOL0     C31660   0.897   6.648   5.062  0.0247 -0.2557  0.0782
  998MOL0     C31661   0.952   6.783   5.051  0.1161 -0.3396 -0.7233
  998MOL0     O31662   1.082   6.818   5.076 -0.1148 -0.1979 -0.3284
  998MOL0     C31663   1.173   6.725   5.131 -1.0706 -0.2164 -0.1109
  998MOL0     C31664   1.317   6.770   5.107  0.1689  0.1782 -0.0194
  998MOL0     C31665   1.368   6.871   5.214  0.1490 -0.4212  0.1911
  998MOL0     C31666   1.519   6.892   5.212  1.0569  0.5450 -0.3767
  998MOL0     C31667   1.569   6.907   5.076 -0.1057 -0.5275  0.5906
  998MOL0     C31668   1.624   6.902   4.962 -0.2631  0.0698 -0.1285
  998MOL0     C31669   0.880   6.887   5.012 -0.2936  0.2271  0.2901
  998MOL0     C31670   0.744   6.866   4.971  0.2023  0.2609 -0.6257
  998MOL0     H31671   0.287   6.753   4.820 -2.9030  1.3709 -2.0903
  998MOL0     H31672   0.069   6.645   4.741  0.9848  0.0451  0.3971
  998MOL0     H31673  -0.079   6.477   4.608 -0.1846 -0.0181  0.1600
  998MOL0     H31674  -0.126   6.515   4.774  1.4670  1.1947 -1.0778
  998MOL0     H31675  -0.278   6.327   4.768  3.1069 -4.8334  0.7574
  998MOL0     H31676  -0.186   6.242   4.643 -1.0756 -1.5511  1.2086
  998MOL0     H31677  -0.379   6.326   4.531 -1.3533  1.4638  0.9750
  998MOL0     H31678  -0.251   6.441   4.481  1.1756  0.8737  1.0216
  998MOL0     H31679  -0.423   6.504   4.727 -0.9588 -0.5925 -1.4493
  998MOL0     H31680  -0.310   6.606   4.641 -0.3255  1.1322  0.2851
  998MOL0     H31681  -0.450   6.641   4.455 -0.3702  1.0173  0.6471
  998MOL0     H31682  -0.569   6.643   4.598 -1.2297 -2.4165  1.0225
  998MOL0     H31683  -0.585   6.378   4.502  2.4481  0.9531  1.6558
  998MOL0     H31684  -0.543   6.480   4.365  1.0178  1.4286  0.5464
  998MOL0     H31685  -0.776   6.447   4.380 -0.1353 -1.5019  0.0787
  998MOL0     H31686  -0.778   6.546   4.527  2.7929 -2.1746  2.4068
  998MOL0     H31687  -0.709   6.640   4.245 -0.5789 -2.0235  0.6156
  998MOL0     H31688  -0.674   6.736   4.396 -2.1185 -0.1588  0.7741
  998MOL0     H31689  -0.932   6.754   4.543  2.4287 -2.7202  1.0589
  998MOL0     H31690  -1.185   6.759   4.539 -0.5546  1.2272  0.3547
  998MOL0     H31691  -1.263   6.695   4.387  1.7296 -0.7947 -1.6193
  998MOL0     H31692  -1.179   6.989   4.429  1.3583 -0.6846 -0.9963
  998MOL0     H31693  -1.329   6.924   4.499  1.5008  2.0686  0.8497
  998MOL0     H31694  -1.309   6.872   4.211  2.4939 -1.9551  3.5038
  998MOL0     H31695  -1.442   6.932   4.285 -0.2699  2.5185  1.7863
  998MOL0     H31696  -1.341   7.089   4.131 -2.1154 -0.7310  1.3222
  998MOL0     H31697  -1.196   7.103   4.228  0.9431 -0.6332 -1.0412
  998MOL0     H31698  -1.487   7.335   4.470  0.9818 -2.0041 -0.6918
  998MOL0     H31699  -1.699   7.477   4.423 -3.3755 -0.6634 -1.0951
  998MOL0     H31700  -2.065   7.383   3.896  0.2296  0.0348  0.5782
  998MOL0     H31701  -2.256   7.515   3.810  2.2329  1.2868 -0.9790
  998MOL0     H31702  -2.425   7.865   4.007  0.1955 -0.1650 -1.3900
  998MOL0     H31703  -2.480   7.759   4.130  2.4574  0.7763 -0.5766
  998MOL0     H31704  -2.668   7.689   3.939 -0.5298  0.8692 -0.9471
  998MOL0     H31705  -2.622   7.839   3.862  1.8857  3.7022  1.3284
  998MOL0     H31706  -2.697   7.967   4.075 -0.3344 -0.5161  1.8203
  998MOL0     H31707  -2.745   7.821   4.141 -3.2458  1.4039  0.6414
  998MOL0     H31708  -2.916   7.962   4.018 -0.5097 -0.0708  1.3810
  998MOL0     H31709  -2.854   7.888   3.876  0.3146 -3.3867  0.4330
  998MOL0     H31710  -2.960   7.703   4.102 -0.6351  0.1746  1.0084
  998MOL0     H31711  -2.952   7.664   3.940 -4.1072 -2.2362  1.8798
  998MOL0     H31712  -3.109   7.865   3.874 -2.6154 -0.6373 -0.8491
  998MOL0     H31713  -3.161   7.871   4.040  0.1473 -0.0481  0.7359
  998MOL0     H31714  -3.301   7.723   3.889 -0.0209 -2.7223  0.7456
  998MOL0     H31715  -3.160   7.628   3.862 -1.3038 -3.3560  1.1074
  998MOL0     H31716  -3.317   7.660   4.122 -1.8624 -1.3793 -1.5158
  998MOL0     H31717  -3.147   7.589   4.119  0.5995  1.9265  0.7466
  998MOL0     H31718  -2.256   7.764   4.143  1.3523 -0.7202  2.2233
  998MOL0     H31719  -2.067   7.644   4.242  0.6585 -3.6711  1.5400
  998MOL0     H31720  -1.717   7.284   4.043  0.5071  0.5441 -0.2975
  998MOL0     H31721  -1.518   7.159   4.095  1.0512 -2.9474  2.2524
  998MOL0     H31722   0.231   6.260   4.764 -1.6177 -0.5646  0.8908
  998MOL0     H31723   0.458   6.359   4.830  2.6564  3.3750 -1.1740
  998MOL0     H31724   0.721   6.522   5.025  2.2381 -1.5469 -0.6550
  998MOL0     H31725   0.954   6.560   5.091 -0.7193 -0.3261  1.4056
  998MOL0     H31726   1.167   6.627   5.082  1.7179  0.1331 -1.3636
  998MOL0     H31727   1.167   6.724   5.241  0.4874  0.7442  0.0124
  998MOL0     H31728   1.376   6.679   5.121  0.8003  0.3725 -1.2501
  998MOL0     H31729   1.345   6.810   5.009  1.0072  2.2760  1.0087
  998MOL0     H31730   1.334   6.853   5.316  0.6498  0.1679  0.4602
  998MOL0     H31731   1.319   6.966   5.189  0.2358 -0.2655  0.6116
  998MOL0     H31732   1.559   6.975   5.270  2.8003  0.7569 -1.7844
  998MOL0     H31733   1.563   6.798   5.248  3.5238  1.0426 -1.8212
  998MOL0     H31734   1.654   6.899   4.859  1.5901 -0.8298  0.3991
  998MOL0     H31735   0.924   6.985   5.024  0.3985 -0.1883  1.2179
  998MOL0     H31736   0.692   6.958   4.947  1.6353  1.4268  0.5586
  999MOL0     O31737   6.461   5.024   9.251 -0.0678 -0.4551  0.3241
  999MOL0     C31738   6.546   5.097   9.214 -0.5011  0.1985  0.5340
  999MOL0     O31739   6.556   5.223   9.249 -0.1039  0.3265 -0.4306
  999MOL0     C31740   6.457   5.277   9.319 -0.1523  0.3608 -0.4424
  999MOL0     C31741   6.322   5.284   9.269 -0.3407  0.4305  0.3410
  999MOL0     C31742   6.217   5.325   9.353  0.0078 -0.0120 -1.6351
  999MOL0     C31743   6.241   5.372   9.478 -1.3916  0.5632 -0.6177
  999MOL0     O31744   6.138   5.419   9.551 -0.1777  0.0189  0.2231
  999MOL0     C31745   6.166   5.499   9.665  0.7123  0.3726 -0.3331
  999MOL0     C31746   6.033   5.507   9.740  0.2627 -0.2228  0.2199
  999MOL0     C31747   5.942   5.604   9.670  0.2897 -0.0013  0.6593
  999MOL0     C31748   5.808   5.620   9.730  0.4533  0.4852  0.0243
  999MOL0     C31749   5.712   5.695   9.634  0.2841  0.3994 -0.8042
  999MOL0     C31750   5.566   5.692   9.686  0.2200  0.6193 -1.6622
  999MOL0     C31751   5.531   5.791   9.802  0.5155 -0.8375 -0.5509
  999MOL0     C31752   5.549   5.940   9.762 -0.5432  0.9660  0.3383
  999MOL0     N31753   5.503   5.980   9.633 -0.0835  0.4966  1.0314
  999MOL0     C31754   5.380   5.943   9.578 -0.0634  0.6634 -0.7833
  999MOL0     C31755   5.378   6.007   9.467  0.1132 -0.2629  0.6126
  999MOL0     C31756   5.278   6.005   9.368 -0.0214  0.4250  0.3045
  999MOL0     C31757   5.153   6.073   9.420  0.6196 -0.8313  0.6147
  999MOL0     C31758   5.170   6.194   9.506 -0.0470 -0.2507  0.1006
  999MOL0     C31759   5.224   6.323   9.433 -0.2992  0.3555  0.7804
  999MOL0     O31760   5.141   6.382   9.332  0.8480 -0.0859 -0.0259
  999MOL0     C31761   5.185   6.496   9.269 -1.2618 -0.4856 -0.2814
  999MOL0     C31762   5.094   6.555   9.180  0.3752  0.0040 -0.0944
  999MOL0     C31763   5.114   6.679   9.113 -0.2915  0.0276 -0.2064
  999MOL0     C31764   5.246   6.740   9.128 -0.4971  0.5374 -0.5953
  999MOL0     C31765   5.285   6.864   9.049  0.2086  0.1343  0.1291
  999MOL0     O31766   5.183   6.925   8.980  0.2314 -0.9608 -0.0084
  999MOL0     C31767   5.223   7.042   8.917 -0.2341  0.5041 -0.4775
  999MOL0     C31768   5.156   7.051   8.799 -0.0936 -0.5521  0.0159
  999MOL0     C31769   5.163   7.164   8.723  0.5850 -0.4729  0.1199
  999MOL0     C31770   5.238   7.277   8.757 -0.4209 -0.7614 -0.4732
  999MOL0     O31771   5.246   7.382   8.676  0.8482  0.0795 -0.4181
  999MOL0     C31772   5.284   7.511   8.733 -0.4130  0.3448 -0.0089
  999MOL0     C31773   5.256   7.630   8.637  0.5677  0.1621 -1.1155
  999MOL0     C31774   5.353   7.671   8.526  0.0407 -0.4627  0.0138
  999MOL0     C31775   5.370   7.577   8.419 -0.0958  0.3321  1.5591
  999MOL0     C31776   5.497   7.608   8.335 -0.5814 -0.3363  0.3784
  999MOL0     C31777   5.500   7.730   8.240 -0.3229  0.1326  0.3768
  999MOL0     C31778   5.631   7.749   8.165  0.5044  0.0680 -0.1826
  999MOL0     C31779   5.629   7.867   8.066 -0.6559  0.9424 -0.9571
  999MOL0    Cl31780   5.581   8.028   8.153  0.7164  0.1609  0.5664
  999MOL0     C31781   5.313   7.262   8.875  0.6906 -0.3786 -0.0314
  999MOL0     C31782   5.303   7.148   8.956  0.7594  0.3744 -0.9017
  999MOL0     O31783   5.403   6.901   9.050 -0.5640  0.4186  0.4475
  999MOL0     C31784   5.334   6.676   9.223  0.0566 -0.2726 -0.0343
  999MOL0     C31785   5.312   6.560   9.293  1.1314  0.1221 -0.6136
  999MOL0     N31786   5.474   6.101   9.460 -0.1184  0.2534  0.6738
  999MOL0     N31787   5.558   6.075   9.551 -0.3947  0.0330 -1.0112
  999MOL0     C31788   6.379   5.380   9.525  1.0130  0.0484 -0.0901
  999MOL0     C31789   6.486   5.327   9.448 -0.1789 -0.4947 -0.3710
  999MOL0     C31790   6.657   5.041   9.136 -1.5863 -1.2688  0.4186
  999MOL0     C31791   6.650   4.907   9.088  0.3988 -0.2890  0.6506
  999MOL0     C31792   6.758   4.835   9.027  0.2285 -0.8981 -0.1819
  999MOL0     C31793   6.880   4.905   9.024  0.2629 -0.1720  1.0833
  999MOL0     O31794   7.002   4.861   8.968 -0.3956  0.9017 -0.4968
  999MOL0     C31795   6.998   4.758   8.873 -0.1607  0.5637  0.0858
  999MOL0     C31796   7.127   4.754   8.789 -0.0701  0.5647 -0.4602
  999MOL0     C31797   7.248   4.704   8.868  0.5000 -0.5298 -0.3422
  999MOL0     C31798   7.379   4.732   8.797 -0.5463  0.2098  0.3166
  999MOL0     C31799   7.478   4.682   8.886 -0.0027 -0.6951 -0.1102
  999MOL0     C31800   7.560   4.649   8.964  0.8870  0.0099 -0.3117
  999MOL0     C31801   6.885   5.026   9.089  0.3263  0.1439 -0.8512
  999MOL0     C31802   6.778   5.103   9.135 -0.0558 -0.2709 -0.5673
  999MOL0     H31803   6.295   5.251   9.169  0.9400  2.7125 -0.8428
  999MOL0     H31804   6.121   5.347   9.308 -0.0798  1.6553 -0.6849
  999MOL0     H31805   6.197   5.597   9.630 -1.1248  0.8877 -0.6232
  999MOL0     H31806   6.251   5.457   9.720  1.5488  0.8099 -1.2594
  999MOL0     H31807   6.067   5.542   9.838 -0.0275 -2.1248  1.0376
  999MOL0     H31808   5.982   5.414   9.767 -0.3814 -0.0521 -0.3669
  999MOL0     H31809   5.923   5.573   9.567  5.4782  1.3830 -1.0440
  999MOL0     H31810   5.996   5.699   9.666 -0.9381  0.7081  0.3134
  999MOL0     H31811   5.763   5.522   9.748 -3.1000  1.8251 -0.8202
  999MOL0     H31812   5.816   5.670   9.827 -0.2858  0.4461  0.1121
  999MOL0     H31813   5.711   5.650   9.535 -0.2318  0.0162 -0.6299
  999MOL0     H31814   5.737   5.801   9.623 -0.7340  0.7302 -0.0551
  999MOL0     H31815   5.552   5.588   9.716  2.8589  1.1723  2.2643
  999MOL0     H31816   5.512   5.715   9.594  1.1111  3.8687 -1.4733
  999MOL0     H31817   5.429   5.769   9.836  1.1381 -0.1181  1.9895
  999MOL0     H31818   5.590   5.771   9.892 -2.0279 -1.2097  1.1335
  999MOL0     H31819   5.658   5.947   9.759 -0.5548  2.7224  2.1323
  999MOL0     H31820   5.511   6.009   9.837  2.2539  1.0682  1.8030
  999MOL0     H31821   5.318   5.864   9.619  0.8475  0.5789  0.4780
  999MOL0     H31822   5.246   5.906   9.334  2.1313  0.5060 -2.2815
  999MOL0     H31823   5.315   6.050   9.275  2.1091  0.7144  1.2401
  999MOL0     H31824   5.089   5.992   9.458 -0.4760 -1.8451 -3.0072
  999MOL0     H31825   5.092   6.109   9.336  1.7562  0.2961  0.2428
  999MOL0     H31826   5.080   6.224   9.561  1.1186 -0.3259  2.1709
  999MOL0     H31827   5.238   6.160   9.585 -0.5583 -0.5795  0.4030
  999MOL0     H31828   5.319   6.307   9.382 -0.3936  1.3208  0.2778
  999MOL0     H31829   5.242   6.400   9.509 -2.4800  1.5326  0.1963
  999MOL0     H31830   4.996   6.510   9.167  0.8801 -0.6567 -2.0745
  999MOL0     H31831   5.040   6.710   9.040  0.4730  1.6892 -0.3119
  999MOL0     H31832   5.103   6.963   8.763  0.6717 -1.4716  1.0841
  999MOL0     H31833   5.112   7.170   8.628  1.4608  0.5730 -0.3041
  999MOL0     H31834   5.391   7.513   8.754 -0.1321 -0.2652 -1.2816
  999MOL0     H31835   5.224   7.532   8.822 -0.1235  1.1936 -0.0016
  999MOL0     H31836   5.259   7.719   8.700  0.7547 -0.8546  0.3684
  999MOL0     H31837   5.156   7.632   8.592  0.7934  0.4361 -1.6086
  999MOL0     H31838   5.447   7.712   8.566  0.0471 -0.4867  0.0244
  999MOL0     H31839   5.305   7.754   8.475 -2.2841 -2.5372 -1.3443
  999MOL0     H31840   5.391   7.483   8.472 -0.1753 -0.0777  0.8691
  999MOL0     H31841   5.285   7.557   8.354  0.1804  2.4491  0.4466
  999MOL0     H31842   5.538   7.529   8.272  0.5941  2.3228 -2.4690
  999MOL0     H31843   5.581   7.624   8.403 -0.4600  3.8204 -0.5146
  999MOL0     H31844   5.485   7.821   8.298 -1.6993 -0.7687  1.4905
  999MOL0     H31845   5.411   7.719   8.176 -1.0830 -0.1926  1.4511
  999MOL0     H31846   5.709   7.759   8.241 -1.1179 -1.9616  1.9208
  999MOL0     H31847   5.655   7.664   8.100 -1.8726  0.3021 -1.4770
  999MOL0     H31848   5.562   7.829   7.989  0.4643  1.4322 -2.2106
  999MOL0     H31849   5.727   7.891   8.022 -1.0499  4.4380 -0.2176
  999MOL0     H31850   5.383   7.339   8.903 -0.9306  0.8627  0.7623
  999MOL0     H31851   5.338   7.147   9.058 -0.6986 -1.1019 -0.3729
  999MOL0     H31852   5.429   6.725   9.243  0.3689 -1.1946  0.7881
  999MOL0     H31853   5.387   6.515   9.358 -0.5169 -1.1507  0.4947
  999MOL0     H31854   6.407   5.416   9.623  0.0803  1.5642 -0.3503
  999MOL0     H31855   6.580   5.304   9.495 -0.3218 -1.6074 -0.5993
  999MOL0     H31856   6.555   4.855   9.081 -0.5798  1.6510 -3.1082
  999MOL0     H31857   6.736   4.735   8.989 -2.1342 -0.8793  0.9522
  999MOL0     H31858   6.913   4.769   8.805 -1.2362  1.8448  1.5460
  999MOL0     H31859   6.985   4.667   8.932  2.7693 -0.1904 -0.2874
  999MOL0     H31860   7.120   4.694   8.698 -1.5573 -0.9091  0.5648
  999MOL0     H31861   7.147   4.856   8.757 -1.9660  0.7449 -1.2196
  999MOL0     H31862   7.226   4.598   8.888 -2.1845 -0.0035 -0.1423
  999MOL0     H31863   7.252   4.750   8.967 -0.3539 -1.7566  0.2954
  999MOL0     H31864   7.380   4.678   8.702  0.3881 -0.0620  0.4695
  999MOL0     H31865   7.394   4.840   8.790 -0.7251  0.5299  3.5481
  999MOL0     H31866   7.621   4.601   9.038  2.9475 -0.5956 -2.2918
  999MOL0     H31867   6.986   5.066   9.085  0.5069 -0.3364 -1.1872
  999MOL0     H31868   6.797   5.205   9.166  2.3289 -0.8350  0.0419
 1000MOL0     O31869   9.386   3.905   3.375 -0.6044  0.2639 -0.8216
 1000MOL0     C31870   9.462   3.921   3.283 -0.2708  0.7266  0.5906
 1000MOL0     O31871   9.429   3.898   3.148 -0.8761  0.4848 -0.4808
 1000MOL0     C31872   9.305   3.843   3.108  0.5053 -0.3604 -0.0466
 1000MOL0     C31873   9.299   3.825   2.976  0.1410 -0.2115  0.2723
 1000MOL0     C31874   9.181   3.770   2.906 -0.6071 -0.3061 -1.2096
 1000MOL0     C31875   9.073   3.737   2.982  0.5316  1.1908 -0.0232
 1000MOL0     O31876   8.946   3.694   2.955  0.3285 -0.0656 -1.3969
 1000MOL0     C31877   8.910   3.658   2.820 -0.9859  0.2454 -0.2291
 1000MOL0     C31878   8.798   3.557   2.821 -0.3213  0.7824 -1.1422
 1000MOL0     C31879   8.755   3.517   2.681 -0.7719 -0.4072  0.6981
 1000MOL0     C31880   8.654   3.396   2.674  0.6589  1.1744 -0.5463
 1000MOL0     C31881   8.603   3.380   2.534  0.1125  0.7566 -0.6930
 1000MOL0     C31882   8.520   3.254   2.524 -0.4413  0.7357  0.2748
 1000MOL0     C31883   8.483   3.226   2.379 -0.0171 -0.4278  0.5781
 1000MOL0     C31884   8.394   3.100   2.356  0.3269 -0.1057  0.5897
 1000MOL0     N31885   8.258   3.106   2.415 -0.5912 -0.0477 -0.1455
 1000MOL0     C31886   8.186   3.220   2.436 -0.5490  0.6030  0.5327
 1000MOL0     C31887   8.073   3.178   2.503  0.4052 -0.4514  1.2241
 1000MOL0     C31888   7.976   3.270   2.578  0.8440  1.0572  0.4052
 1000MOL0     C31889   7.840   3.282   2.521  0.4441 -0.4475  1.2060
 1000MOL0     C31890   7.738   3.254   2.637 -0.5641  0.3726  0.0873
 1000MOL0     C31891   7.745   3.103   2.676 -0.2429  1.0264  0.7016
 1000MOL0     O31892   7.646   3.093   2.778  0.8255  0.2977 -0.2448
 1000MOL0     C31893   7.535   3.019   2.752  0.4959 -0.5379  0.6676
 1000MOL0     C31894   7.421   3.076   2.696  0.7017 -0.3311  0.1212
 1000MOL0     C31895   7.308   2.993   2.678 -0.6640 -0.0856 -0.5573
 1000MOL0     C31896   7.313   2.860   2.722 -0.1618  0.2449  1.0010
 1000MOL0     C31897   7.194   2.777   2.714  0.8602 -0.1894 -0.0217
 1000MOL0     O31898   7.069   2.832   2.704 -0.1511 -0.1902  0.3315
 1000MOL0     C31899   6.956   2.747   2.686 -0.7312 -1.1598  0.2682
 1000MOL0     C31900   6.956   2.644   2.591  0.1274 -0.2359  0.8527
 1000MOL0     C31901   6.833   2.574   2.569 -0.3177 -0.5669 -0.9095
 1000MOL0     C31902   6.723   2.609   2.652 -0.2436 -0.4470  0.2081
 1000MOL0     O31903   6.606   2.545   2.641 -0.3506  0.5865  0.0666
 1000MOL0     C31904   6.579   2.449   2.743  0.6075  0.1849  0.2766
 1000MOL0     C31905   6.439   2.374   2.724 -0.4279 -0.3618  0.2881
 1000MOL0     C31906   6.319   2.466   2.704 -0.5762  0.6963 -0.9322
 1000MOL0     C31907   6.193   2.383   2.731 -0.4309  0.2823 -0.2467
 1000MOL0     C31908   6.073   2.459   2.684  0.4944 -0.0293 -0.5833
 1000MOL0     C31909   5.962   2.361   2.647  0.5148  0.6429  0.5521
 1000MOL0     C31910   5.940   2.268   2.766  0.8105 -0.4352 -1.2455
 1000MOL0     C31911   5.810   2.186   2.739  0.4020  0.0917 -0.0179
 1000MOL0    Cl31912   5.784   2.063   2.877  0.0393  0.1372 -0.2198
 1000MOL0     C31913   6.733   2.712   2.749 -0.1361  0.3526 -0.1397
 1000MOL0     C31914   6.847   2.773   2.764 -0.8555  0.2443 -0.4798
 1000MOL0     O31915   7.213   2.653   2.724  0.2999 -0.1487 -0.6945
 1000MOL0     C31916   7.437   2.800   2.750 -0.2134  0.5122 -0.1687
 1000MOL0     C31917   7.546   2.881   2.775 -0.1045 -0.4585 -0.0496
 1000MOL0     N31918   8.077   3.044   2.515 -0.6682  0.1178  0.7682
 1000MOL0     N31919   8.189   3.006   2.470 -0.0909  0.1837 -0.6650
 1000MOL0     C31920   9.083   3.756   3.116 -0.3655  0.4075 -0.9194
 1000MOL0     C31921   9.195   3.801   3.182 -0.1463 -0.1031 -0.0204
 1000MOL0     C31922   9.600   3.961   3.314 -0.4618  0.3739 -0.0209
 1000MOL0     C31923   9.698   3.959   3.210 -0.0091 -0.0197 -0.8332
 1000MOL0     C31924   9.828   4.011   3.237  0.0820 -0.1262  0.4118
 1000MOL0     C31925   9.862   4.065   3.361  0.3787 -0.3321 -0.0308
 1000MOL0     O31926   9.992   4.101   3.376 -0.3217 -0.0152  0.1944
 1000MOL0     C31927  10.042   4.104   3.504 -0.8427 -0.4209  0.2708
 1000MOL0     C31928  10.192   4.130   3.490 -0.7213 -0.6126 -1.4060
 1000MOL0     C31929  10.281   4.034   3.417 -1.2167 -0.5112 -0.3133
 1000MOL0     C31930  10.420   4.102   3.401  0.2485  0.2052  0.9096
 1000MOL0     C31931  10.520   3.992   3.378 -0.3882 -0.0709  0.2744
 1000MOL0     C31932  10.611   3.910   3.362  0.5655 -0.7446  0.0443
 1000MOL0     C31933   9.766   4.054   3.463 -0.3960 -0.3522 -0.1420
 1000MOL0     C31934   9.634   4.008   3.435  0.2001  0.8631 -0.7581
 1000MOL0     H31935   9.381   3.865   2.918 -0.6641 -0.5039 -1.1209
 1000MOL0     H31936   9.190   3.766   2.797  0.6416  0.4002 -1.1589
 1000MOL0     H31937   9.000   3.612   2.779 -1.3112 -2.0953  1.4850
 1000MOL0     H31938   8.873   3.741   2.760 -2.9617  0.7536  1.5724
 1000MOL0     H31939   8.709   3.589   2.876 -0.3697 -1.4521  0.2149
 1000MOL0     H31940   8.836   3.466   2.868 -1.2571  0.7118 -0.5022
 1000MOL0     H31941   8.846   3.508   2.620  1.0714  4.8066  2.1900
 1000MOL0     H31942   8.703   3.607   2.646  0.2054 -0.1402 -0.1174
 1000MOL0     H31943   8.705   3.302   2.697 -2.8564 -1.0227 -1.0146
 1000MOL0     H31944   8.577   3.424   2.746  0.5147 -1.7010  0.5620
 1000MOL0     H31945   8.694   3.375   2.474  0.9559 -3.6767  0.6507
 1000MOL0     H31946   8.535   3.459   2.501  0.0368  1.3700  0.8342
 1000MOL0     H31947   8.431   3.255   2.588  0.4059 -1.1349  1.5697
 1000MOL0     H31948   8.595   3.183   2.561 -1.9788  0.7222  3.7149
 1000MOL0     H31949   8.436   3.319   2.347  3.6283  1.8814  1.3813
 1000MOL0     H31950   8.576   3.221   2.322  0.4308 -3.7298  1.3883
 1000MOL0     H31951   8.447   3.011   2.391 -2.3224 -0.8477  3.1211
 1000MOL0     H31952   8.383   3.071   2.251  2.8119 -3.7220  1.1371
 1000MOL0     H31953   8.219   3.322   2.416 -0.7586  0.7797  1.0790
 1000MOL0     H31954   8.033   3.363   2.585  1.4444  0.7024  0.2903
 1000MOL0     H31955   7.963   3.239   2.683 -1.4077 -0.0991 -0.1535
 1000MOL0     H31956   7.830   3.205   2.445 -1.4229  1.0391 -0.1319
 1000MOL0     H31957   7.817   3.383   2.484 -0.7396  0.0324  3.0943
 1000MOL0     H31958   7.752   3.333   2.712 -1.5972 -0.3341  1.0523
 1000MOL0     H31959   7.638   3.275   2.598  0.2237  0.3275 -2.1022
 1000MOL0     H31960   7.837   3.073   2.727  0.2264  0.1806 -0.5834
 1000MOL0     H31961   7.737   3.029   2.596 -0.2403  1.5829  0.1827
 1000MOL0     H31962   7.423   3.178   2.659  1.5122 -1.3352 -2.8361
 1000MOL0     H31963   7.214   3.024   2.635 -0.5619 -0.5167 -1.0995
 1000MOL0     H31964   7.040   2.625   2.525 -0.0634  1.1775  0.1573
 1000MOL0     H31965   6.820   2.487   2.506 -2.3829 -0.2222 -1.0311
 1000MOL0     H31966   6.585   2.494   2.843  0.0739 -1.4127  1.0580
 1000MOL0     H31967   6.655   2.371   2.737 -0.5239 -0.8167 -2.4153
 1000MOL0     H31968   6.433   2.306   2.810  1.3216  0.1906  0.8812
 1000MOL0     H31969   6.453   2.317   2.631 -3.0509 -1.0470  0.2428
 1000MOL0     H31970   6.305   2.513   2.607 -0.9611  2.1372 -0.1986
 1000MOL0     H31971   6.334   2.546   2.776 -0.3720 -0.1615  0.0054
 1000MOL0     H31972   6.202   2.284   2.686 -1.7179 -0.4090  0.9717
 1000MOL0     H31973   6.203   2.363   2.838  2.7977  4.4676  0.5527
 1000MOL0     H31974   6.090   2.519   2.594  1.0813 -2.6063 -2.2751
 1000MOL0     H31975   6.031   2.521   2.764 -0.9080  0.1248 -1.3923
 1000MOL0     H31976   5.993   2.306   2.557 -1.6618  0.4965 -0.1648
 1000MOL0     H31977   5.872   2.419   2.626  1.0266  0.6865 -1.9211
 1000MOL0     H31978   6.024   2.202   2.788  1.7517  1.1738  0.3206
 1000MOL0     H31979   5.915   2.332   2.851  2.6896  0.9184 -1.6693
 1000MOL0     H31980   5.802   2.128   2.646 -1.0052  3.9214 -2.5109
 1000MOL0     H31981   5.724   2.253   2.751  0.3394 -0.0113  0.1290
 1000MOL0     H31982   6.642   2.733   2.804 -0.9466 -2.7603 -0.0646
 1000MOL0     H31983   6.869   2.852   2.835  3.5464  2.5423 -3.8967
 1000MOL0     H31984   7.448   2.694   2.771 -2.4104 -0.0412 -1.6026
 1000MOL0     H31985   7.646   2.862   2.813  0.7308  3.0076 -0.1167
 1000MOL0     H31986   9.000   3.733   3.182  0.9719 -0.1425  0.6877
 1000MOL0     H31987   9.170   3.828   3.284 -1.6787 -3.0679  0.4791
 1000MOL0     H31988   9.682   3.914   3.112 -0.4246 -0.0059 -0.7731
 1000MOL0     H31989   9.907   3.980   3.170 -2.1470 -2.1055 -1.4764
 1000MOL0     H31990  10.035   4.002   3.543  0.5483 -1.2512 -1.4666
 1000MOL0     H31991  10.000   4.181   3.569  0.5208  1.2157 -0.6832
 1000MOL0     H31992  10.203   4.226   3.439  1.5925 -0.7110 -1.2072
 1000MOL0     H31993  10.241   4.137   3.588  3.3320 -3.0000 -2.9945
 1000MOL0     H31994  10.250   4.011   3.314  2.5184  2.8654 -2.4833
 1000MOL0     H31995  10.294   3.938   3.468  1.0867  0.4961  1.1524
 1000MOL0     H31996  10.434   4.181   3.326  1.7963 -1.2599 -0.4294
 1000MOL0     H31997  10.444   4.149   3.497  2.0703 -1.9656  1.6108
 1000MOL0     H31998  10.702   3.863   3.333  1.2604  0.8198 -0.4069
 1000MOL0     H31999   9.772   4.100   3.561 -2.9668  1.3434 -0.6802
 1000MOL0     H32000   9.574   3.989   3.522  1.7667  0.3132  0.2511
 1001MOL0     O32001   9.299  10.117   0.583  0.0321  0.0861  0.7497
 1001MOL0     C32002   9.387  10.093   0.498  0.2342  0.5285 -0.5587
 1001MOL0     O32003   9.386  10.116   0.365 -0.1941  0.2556  0.2808
 1001MOL0     C32004   9.263  10.132   0.304 -0.2757  0.9235 -0.2772
 1001MOL0     C32005   9.274  10.191   0.178  0.3277 -0.9392  0.1369
 1001MOL0     C32006   9.166  10.222   0.094  0.2284  0.8393  0.4158
 1001MOL0     C32007   9.036  10.186   0.131  0.2364  0.9327 -0.1595
 1001MOL0     O32008   8.946  10.225   0.035  0.3786  0.7771  0.4583
 1001MOL0     C32009   8.813  10.195   0.059  0.6326 -0.4171 -0.4687
 1001MOL0     C32010   8.785  10.050   0.012  0.4097  0.6783 -0.6777
 1001MOL0     C32011   8.635  10.026  -0.011 -0.2793 -1.0403  0.1970
 1001MOL0     C32012   8.559  10.045   0.115 -1.0099  0.1518 -0.3116
 1001MOL0     C32013   8.409  10.064   0.082 -0.6308  0.3659 -0.0797
 1001MOL0     C32014   8.349   9.951  -0.009 -0.3143 -0.0493  0.5175
 1001MOL0     C32015   8.191   9.956  -0.031 -0.3648  0.5650 -0.5075
 1001MOL0     C32016   8.112   9.951   0.110  0.4693  1.1765  0.3712
 1001MOL0     N32017   7.967   9.982   0.081  0.3757  0.6455  0.0771
 1001MOL0     C32018   7.912  10.100   0.043  0.2687  0.0937 -0.0052
 1001MOL0     C32019   7.782  10.061   0.050 -0.2176 -1.7059 -0.2435
 1001MOL0     C32020   7.658  10.134   0.027 -0.4934  0.4196  0.7785
 1001MOL0     C32021   7.588  10.159   0.167 -0.5013 -0.2979 -0.4813
 1001MOL0     C32022   7.481  10.058   0.201 -0.8713  0.6554  0.7799
 1001MOL0     C32023   7.358  10.080   0.127  0.1672 -0.4505 -0.5850
 1001MOL0     O32024   7.247  10.019   0.192  1.3301  0.4471 -0.5045
 1001MOL0     C32025   7.114  10.045   0.168  0.4369  0.0468 -0.5113
 1001MOL0     C32026   7.019   9.963   0.240 -0.0131 -0.0306 -1.0065
 1001MOL0     C32027   6.877   9.972   0.210 -0.4555 -0.0503 -0.2274
 1001MOL0     C32028   6.828  10.062   0.107 -0.3426  0.0303 -0.2079
 1001MOL0     C32029   6.684  10.049   0.063 -0.2203  0.7496 -0.4009
 1001MOL0     O32030   6.599   9.964   0.135  0.5694  0.0268  0.0296
 1001MOL0     C32031   6.464   9.958   0.098 -0.1149  0.7135  0.1470
 1001MOL0     C32032   6.360  10.032   0.146 -0.4561  0.3384 -0.3601
 1001MOL0     C32033   6.223  10.015   0.113  0.2653 -0.4319 -0.7120
 1001MOL0     C32034   6.198   9.934   0.004 -0.3244 -0.3000  0.9871
 1001MOL0     O32035   6.074   9.904  -0.040 -0.2039  0.6936 -0.0812
 1001MOL0     C32036   5.965  10.003  -0.028  0.9270 -0.6171  0.5023
 1001MOL0     C32037   5.832   9.951  -0.088 -0.3240  0.1555  0.7564
 1001MOL0     C32038   5.846   9.895  -0.232  0.3653 -0.0319 -1.5167
 1001MOL0     C32039   5.713   9.876  -0.298  0.3802  0.1909  1.7340
 1001MOL0     C32040   5.661  10.013  -0.346 -0.9020 -0.4324  0.4139
 1001MOL0     C32041   5.733  10.050  -0.475 -0.7785  0.1342  0.9476
 1001MOL0     C32042   5.657  10.150  -0.557 -0.1920  0.2173 -0.0945
 1001MOL0     C32043   5.714  10.163  -0.700 -1.5915  0.2044  0.0801
 1001MOL0    Cl32044   5.889  10.183  -0.698  0.0469  0.4146 -0.7124
 1001MOL0     C32045   6.305   9.866  -0.061 -1.4346  0.2127 -0.1769
 1001MOL0     C32046   6.440   9.872  -0.011  0.1290  0.0833 -0.5222
 1001MOL0     O32047   6.651  10.129  -0.020 -0.5220 -0.7607 -0.3078
 1001MOL0     C32048   6.923  10.149   0.041 -0.0794  0.0129 -0.7511
 1001MOL0     C32049   7.062  10.131   0.073 -0.4646  0.7599  0.1395
 1001MOL0     N32050   7.781   9.931   0.093 -0.5166  0.3109 -0.0328
 1001MOL0     N32051   7.889   9.875   0.097  0.1187  0.3395  0.5047
 1001MOL0     C32052   9.019  10.114   0.257 -0.9049 -1.0550  0.4683
 1001MOL0     C32053   9.131  10.092   0.341  0.0032  0.2860  0.3237
 1001MOL0     C32054   9.515  10.050   0.557 -1.3775 -0.5616 -0.5889
 1001MOL0     C32055   9.620  10.002   0.476 -0.9237 -0.4187 -0.2092
 1001MOL0     C32056   9.740   9.953   0.531  0.4975 -1.0070  0.6435
 1001MOL0     C32057   9.753   9.927   0.666 -1.5206  0.3141  0.6634
 1001MOL0     O32058   9.866   9.890   0.735  0.2731 -0.5702  0.4797
 1001MOL0     C32059   9.988   9.886   0.660  0.5113  0.2989  0.4876
 1001MOL0     C32060  10.107   9.881   0.746  0.9938 -0.7188 -0.1282
 1001MOL0     C32061  10.234   9.875   0.665  0.0904  0.6935 -0.0034
 1001MOL0     C32062  10.354   9.840   0.753  1.2995  0.2000 -1.2228
 1001MOL0     C32063  10.473   9.901   0.706  0.7192 -0.8928 -0.0904
 1001MOL0     C32064  10.574   9.948   0.667  0.4127  0.4650 -0.2285
 1001MOL0     C32065   9.650   9.959   0.744 -0.2985 -0.4221  0.4790
 1001MOL0     C32066   9.533  10.033   0.695  0.2229  0.0148 -0.5095
 1001MOL0     H32067   9.377  10.209   0.148  0.6934 -0.4863  1.5810
 1001MOL0     H32068   9.183  10.268  -0.003 -0.1730  0.5902  0.2252
 1001MOL0     H32069   8.754  10.268   0.003  1.7664  2.8399  2.2127
 1001MOL0     H32070   8.804  10.204   0.168 -0.1800 -1.7266 -0.4042
 1001MOL0     H32071   8.818   9.973   0.082  3.0642  0.8522 -1.6131
 1001MOL0     H32072   8.832  10.032  -0.086 -1.8164  1.4357 -1.9542
 1001MOL0     H32073   8.621   9.927  -0.056 -0.8512  0.7348 -4.0264
 1001MOL0     H32074   8.599  10.103  -0.079 -0.8438  0.7842  2.4461
 1001MOL0     H32075   8.558   9.948   0.166  0.0010 -1.1309 -2.5627
 1001MOL0     H32076   8.603  10.115   0.186  0.1364  0.2450 -1.0846
 1001MOL0     H32077   8.390  10.163   0.040  2.1928  0.0748 -2.2971
 1001MOL0     H32078   8.356  10.061   0.178 -2.3047  0.8368 -0.9515
 1001MOL0     H32079   8.385   9.856   0.032  1.1644 -0.0039 -0.5995
 1001MOL0     H32080   8.402   9.962  -0.104 -0.6784  0.5747  0.3816
 1001MOL0     H32081   8.153  10.048  -0.075  0.1900  0.6128 -0.8954
 1001MOL0     H32082   8.169   9.868  -0.092 -2.2979 -1.7534  3.1497
 1001MOL0     H32083   8.140  10.026   0.185  0.0965  1.4191  0.2745
 1001MOL0     H32084   8.127   9.854   0.159 -4.6874  0.5709  1.3136
 1001MOL0     H32085   7.962  10.192   0.015  3.6179 -0.8679  2.2405
 1001MOL0     H32086   7.597  10.069  -0.037 -1.0977 -0.6192  2.3675
 1001MOL0     H32087   7.680  10.229  -0.023 -1.2931 -0.7831 -2.0883
 1001MOL0     H32088   7.561  10.265   0.175  2.7132  0.5598  0.5662
 1001MOL0     H32089   7.668  10.152   0.241  0.0792  0.8189 -0.9674
 1001MOL0     H32090   7.515   9.957   0.178  1.0153  2.0400 -3.6235
 1001MOL0     H32091   7.469  10.063   0.310  3.9370  1.9519  1.4878
 1001MOL0     H32092   7.379  10.033   0.030  2.8215 -1.0682  0.2248
 1001MOL0     H32093   7.335  10.186   0.110  1.0165 -0.0567  0.5719
 1001MOL0     H32094   7.059   9.899   0.318  0.3309 -0.3768 -1.4651
 1001MOL0     H32095   6.820   9.900   0.268 -0.5319 -0.2729 -0.5747
 1001MOL0     H32096   6.374  10.105   0.225 -0.5146 -1.0470  0.9752
 1001MOL0     H32097   6.146  10.070   0.165 -2.0828 -2.8340 -1.4554
 1001MOL0     H32098   5.988  10.091  -0.089  2.7513 -1.7944 -0.6279
 1001MOL0     H32099   5.961  10.040   0.075 -0.0760 -0.4690  0.4187
 1001MOL0     H32100   5.755  10.029  -0.096 -0.6623 -0.3149 -0.8787
 1001MOL0     H32101   5.784   9.883  -0.017 -2.3776  2.3462  1.6281
 1001MOL0     H32102   5.889   9.794  -0.233  0.4434 -0.0088 -2.8531
 1001MOL0     H32103   5.914   9.959  -0.289  1.2136  1.1005  0.6358
 1001MOL0     H32104   5.721   9.798  -0.374 -1.7507  2.8872 -1.5256
 1001MOL0     H32105   5.642   9.831  -0.228 -0.0553  0.9111  1.7602
 1001MOL0     H32106   5.674  10.092  -0.272  0.7856  0.3763 -0.6937
 1001MOL0     H32107   5.552  10.017  -0.357 -1.0575  0.4117  2.1179
 1001MOL0     H32108   5.740   9.966  -0.545 -1.9510 -0.8575  1.9880
 1001MOL0     H32109   5.832  10.093  -0.458 -1.1016  2.0978 -1.5137
 1001MOL0     H32110   5.552  10.120  -0.557  0.4196 -2.3358 -2.5715
 1001MOL0     H32111   5.659  10.245  -0.503 -0.8266  0.2621 -0.1457
 1001MOL0     H32112   5.671  10.248  -0.754  0.2796  1.9607  1.1872
 1001MOL0     H32113   5.692  10.071  -0.754  0.8897 -0.3213 -0.1556
 1001MOL0     H32114   6.276   9.792  -0.135 -2.4112  0.7917 -0.3755
 1001MOL0     H32115   6.518   9.805  -0.046  0.7823  0.4786  0.1650
 1001MOL0     H32116   6.887  10.220  -0.033  2.0362  0.8200 -1.0614
 1001MOL0     H32117   7.118  10.200   0.011 -1.5540 -0.4117 -2.2824
 1001MOL0     H32118   8.925  10.066   0.284 -0.6291 -1.3091  0.9705
 1001MOL0     H32119   9.118  10.036   0.434  0.5668 -0.3175  0.0471
 1001MOL0     H32120   9.626  10.027   0.370 -0.7042 -3.8466 -1.1164
 1001MOL0     H32121   9.824   9.953   0.464  1.1390  1.5857  1.3645
 1001MOL0     H32122  10.000   9.982   0.609  0.1859  0.6395  1.0474
 1001MOL0     H32123   9.997   9.804   0.588  0.5945 -0.7536  1.6500
 1001MOL0     H32124  10.109   9.972   0.806  0.2568 -0.1791 -0.8990
 1001MOL0     H32125  10.091   9.800   0.817 -1.1449 -0.6121 -0.4245
 1001MOL0     H32126  10.250   9.959   0.595 -0.1161  0.2802 -0.5542
 1001MOL0     H32127  10.227   9.790   0.597  0.4580 -0.1207  0.9658
 1001MOL0     H32128  10.330   9.879   0.853  0.1915  0.5526 -1.6029
 1001MOL0     H32129  10.368   9.732   0.755 -1.2280 -0.2575  1.7973
 1001MOL0     H32130  10.658   9.989   0.615 -0.2905 -1.8278 -3.5110
 1001MOL0     H32131   9.652   9.935   0.850  0.9598 -2.0912  0.1249
 1001MOL0     H32132   9.447  10.060   0.756 -1.1747 -1.6429 -1.6383
 1002MOL0     O32133   6.447   7.272   5.126 -0.0590 -0.0560 -0.3229
 1002MOL0     C32134   6.537   7.283   5.039 -0.4526 -0.0357 -0.6563
 1002MOL0     O32135   6.517   7.307   4.910 -0.4936  0.8370  0.1735
 1002MOL0     C32136   6.384   7.305   4.870 -0.2366 -0.2241  0.1778
 1002MOL0     C32137   6.331   7.417   4.799 -0.6075 -0.6974 -0.0162
 1002MOL0     C32138   6.199   7.414   4.754  0.0096  0.8995 -0.5391
 1002MOL0     C32139   6.116   7.305   4.784  0.0664 -0.1824 -0.4432
 1002MOL0     O32140   5.982   7.308   4.745 -0.1410  0.0193 -0.0863
 1002MOL0     C32141   5.890   7.286   4.846 -0.1733  0.3022  0.6239
 1002MOL0     C32142   5.746   7.302   4.803 -0.2280  0.4961  0.0784
 1002MOL0     C32143   5.662   7.211   4.888 -0.5397 -0.2811 -0.1433
 1002MOL0     C32144   5.637   7.260   5.035  0.2087 -0.2312  0.3407
 1002MOL0     C32145   5.554   7.158   5.120  0.0120  0.0066 -0.1749
 1002MOL0     C32146   5.403   7.162   5.074 -1.0611 -0.4130  0.3675
 1002MOL0     C32147   5.310   7.099   5.179  0.4072 -0.2506 -0.1108
 1002MOL0     C32148   5.167   7.086   5.129 -0.1571  0.8290 -0.7658
 1002MOL0     N32149   5.144   6.951   5.071 -0.0004 -0.3449 -0.2393
 1002MOL0     C32150   5.212   6.901   4.965  0.1873 -0.4352  0.2662
 1002MOL0     C32151   5.120   6.813   4.908  0.3690  0.2108 -0.4856
 1002MOL0     C32152   5.113   6.724   4.786  0.5102  0.6354  0.1075
 1002MOL0     C32153   5.127   6.815   4.671  0.8302  0.2531  0.9957
 1002MOL0     C32154   5.133   6.751   4.528  0.5656 -0.2489 -0.9698
 1002MOL0     C32155   5.008   6.676   4.477  0.2175  0.0266  0.5816
 1002MOL0     O32156   4.894   6.767   4.440 -0.2079 -0.0908  0.5574
 1002MOL0     C32157   4.763   6.706   4.438 -0.7281 -0.1124  0.0618
 1002MOL0     C32158   4.661   6.803   4.427 -0.0918 -0.0792  1.1430
 1002MOL0     C32159   4.535   6.761   4.407  0.6193  0.7063 -0.0148
 1002MOL0     C32160   4.496   6.625   4.416 -0.7652  0.0600  0.6091
 1002MOL0     C32161   4.353   6.574   4.400 -0.2740 -0.1892 -0.5088
 1002MOL0     O32162   4.329   6.454   4.464  0.1824 -0.4117 -0.0001
 1002MOL0     C32163   4.206   6.438   4.528 -0.6206 -0.6699 -0.0188
 1002MOL0     C32164   4.167   6.306   4.583 -0.2274 -0.1292  0.3713
 1002MOL0     C32165   4.051   6.298   4.667 -0.5088 -0.3155  0.4426
 1002MOL0     C32166   3.981   6.418   4.692 -1.2687 -0.6086  0.0135
 1002MOL0     O32167   3.878   6.395   4.776  0.1137  0.2271 -0.5096
 1002MOL0     C32168   3.837   6.509   4.864 -0.4388 -0.1496 -1.0062
 1002MOL0     C32169   3.715   6.589   4.819 -0.0687 -1.1875 -0.5413
 1002MOL0     C32170   3.679   6.720   4.894 -0.0684 -0.3773 -0.1669
 1002MOL0     C32171   3.756   6.832   4.830 -0.0314 -0.1197  0.0419
 1002MOL0     C32172   3.712   6.967   4.888 -1.0760  0.5730  0.6737
 1002MOL0     C32173   3.784   7.093   4.822 -0.0395  1.3310 -0.7040
 1002MOL0     C32174   3.712   7.219   4.871 -0.8829 -0.3780  0.9637
 1002MOL0     C32175   3.787   7.333   4.788  0.1829  0.0059 -0.4591
 1002MOL0    Cl32176   3.732   7.346   4.620 -0.2395  0.5264  0.3524
 1002MOL0     C32177   4.018   6.543   4.639  0.0073  1.0394 -0.4427
 1002MOL0     C32178   4.130   6.546   4.570  1.1769 -0.6446  0.2895
 1002MOL0     O32179   4.269   6.640   4.334 -0.9913 -0.7542  0.3253
 1002MOL0     C32180   4.595   6.533   4.424 -0.2196  0.4491  0.7023
 1002MOL0     C32181   4.730   6.571   4.438 -0.1932  0.0324 -0.4502
 1002MOL0     N32182   4.998   6.815   4.983  0.1056 -0.0530  0.7524
 1002MOL0     N32183   5.022   6.896   5.086  0.5775  0.1700 -0.1704
 1002MOL0     C32184   6.167   7.200   4.861  0.1823  1.1019  0.1867
 1002MOL0     C32185   6.298   7.196   4.902 -0.5378  0.6008 -0.2650
 1002MOL0     C32186   6.672   7.290   5.090 -1.0613  0.2778 -0.1115
 1002MOL0     C32187   6.724   7.196   5.174  0.2021 -0.1564 -0.1665
 1002MOL0     C32188   6.861   7.202   5.213  0.1119 -0.1878 -0.3343
 1002MOL0     C32189   6.940   7.316   5.172  0.3060  0.0568 -0.3185
 1002MOL0     O32190   7.070   7.334   5.212 -0.0790  0.2953  0.0498
 1002MOL0     C32191   7.145   7.247   5.313  0.7653  0.0531  0.6607
 1002MOL0     C32192   7.095   7.253   5.460  0.0368  0.2503 -0.3367
 1002MOL0     C32193   7.187   7.170   5.549  0.1477 -1.1581 -0.5034
 1002MOL0     C32194   7.167   7.201   5.704 -0.1353 -0.0366 -0.7205
 1002MOL0     C32195   7.045   7.139   5.736  0.4276  0.6093  0.2451
 1002MOL0     C32196   6.948   7.065   5.761  0.0713  0.5628 -0.0850
 1002MOL0     C32197   6.885   7.414   5.092  0.2494  0.2247  0.0752
 1002MOL0     C32198   6.750   7.400   5.049 -0.7681 -0.3060  0.1375
 1002MOL0     H32199   6.408   7.493   4.797  0.2806 -1.5641 -2.2781
 1002MOL0     H32200   6.175   7.505   4.700 -0.8827 -0.1058 -1.9237
 1002MOL0     H32201   5.905   7.348   4.935 -0.7327 -0.0092  0.9351
 1002MOL0     H32202   5.911   7.182   4.873  1.6377  0.8088  1.3830
 1002MOL0     H32203   5.729   7.262   4.702  0.3085  0.7619 -0.1209
 1002MOL0     H32204   5.705   7.403   4.811 -1.9896  0.0040 -1.8296
 1002MOL0     H32205   5.703   7.110   4.886 -0.3203 -0.2733  1.8757
 1002MOL0     H32206   5.568   7.206   4.832  0.8174  0.2544 -2.5786
 1002MOL0     H32207   5.728   7.297   5.083  0.2095  1.1117 -0.6285
 1002MOL0     H32208   5.574   7.349   5.037 -1.5164 -1.2575 -2.3160
 1002MOL0     H32209   5.556   7.175   5.228 -1.8575 -2.1301  0.2671
 1002MOL0     H32210   5.595   7.061   5.094  0.2996  0.3224 -0.9291
 1002MOL0     H32211   5.410   7.104   4.982  1.7681  0.8942 -0.3602
 1002MOL0     H32212   5.367   7.265   5.062  0.9286  0.0565 -2.9355
 1002MOL0     H32213   5.344   7.003   5.218 -2.0911  0.3003  3.9762
 1002MOL0     H32214   5.306   7.161   5.270 -0.8851  0.0768 -0.3806
 1002MOL0     H32215   5.158   7.160   5.049  1.4363  1.8372 -0.0529
 1002MOL0     H32216   5.101   7.105   5.215 -1.4755 -1.7048 -1.1212
 1002MOL0     H32217   5.307   6.922   4.918  0.2528 -3.0787 -0.9207
 1002MOL0     H32218   5.022   6.663   4.787 -0.9921  2.7251 -1.7643
 1002MOL0     H32219   5.195   6.653   4.770  2.3550  2.8445 -0.8117
 1002MOL0     H32220   5.214   6.881   4.676  0.1406  1.0756  3.6821
 1002MOL0     H32221   5.037   6.878   4.678 -1.7337 -2.5435 -2.6223
 1002MOL0     H32222   5.170   6.829   4.460  0.7336 -0.6957 -1.3934
 1002MOL0     H32223   5.207   6.673   4.545  1.3379  0.9076  1.3284
 1002MOL0     H32224   4.980   6.590   4.538  3.5773 -1.5760  0.1134
 1002MOL0     H32225   5.020   6.610   4.391 -3.1111 -1.2405  0.9479
 1002MOL0     H32226   4.684   6.909   4.420 -2.9276  0.5261 -0.1471
 1002MOL0     H32227   4.453   6.820   4.368  1.6105  0.5893 -2.4689
 1002MOL0     H32228   4.235   6.222   4.581  1.8290  1.4534 -1.8624
 1002MOL0     H32229   4.024   6.197   4.698 -1.2722 -0.1021  0.4842
 1002MOL0     H32230   3.920   6.575   4.891 -0.1935 -1.9675  3.5530
 1002MOL0     H32231   3.811   6.463   4.960  1.5383 -1.1773 -0.9065
 1002MOL0     H32232   3.623   6.531   4.832 -0.7955  0.2378  1.1650
 1002MOL0     H32233   3.721   6.615   4.713 -3.0077 -0.7434 -0.6877
 1002MOL0     H32234   3.682   6.716   5.004  0.7499 -2.0213 -0.2220
 1002MOL0     H32235   3.578   6.739   4.855  0.3169 -1.9248 -2.0837
 1002MOL0     H32236   3.865   6.820   4.829 -0.1875 -1.7263 -1.2199
 1002MOL0     H32237   3.731   6.840   4.723 -0.8624 -0.3755  0.2156
 1002MOL0     H32238   3.734   6.967   4.995 -3.5690  0.5101  1.2465
 1002MOL0     H32239   3.604   6.970   4.868 -1.1027 -1.9778  0.0504
 1002MOL0     H32240   3.787   7.090   4.713 -3.3382  0.7760 -0.8958
 1002MOL0     H32241   3.890   7.103   4.846 -0.0493  0.4595 -0.2263
 1002MOL0     H32242   3.604   7.223   4.854 -0.9597  1.4983  1.6309
 1002MOL0     H32243   3.735   7.231   4.977  0.3078 -0.8282  0.7640
 1002MOL0     H32244   3.894   7.311   4.796 -0.1004 -0.7508  1.9928
 1002MOL0     H32245   3.780   7.427   4.843 -2.7770  0.6490 -1.7519
 1002MOL0     H32246   3.960   6.634   4.653 -0.1455  0.7255  1.2356
 1002MOL0     H32247   4.146   6.649   4.540 -3.6963 -0.1860 -1.7483
 1002MOL0     H32248   4.573   6.427   4.416  1.2159  0.2393 -1.3778
 1002MOL0     H32249   4.813   6.502   4.434  0.8030  0.8832  2.7120
 1002MOL0     H32250   6.095   7.129   4.900 -3.3521  4.0143 -0.5367
 1002MOL0     H32251   6.324   7.106   4.957  1.8819  1.4741  0.1050
 1002MOL0     H32252   6.664   7.108   5.200  0.1859 -0.2400 -0.4821
 1002MOL0     H32253   6.911   7.120   5.262 -0.6346  0.5280  1.7346
 1002MOL0     H32254   7.245   7.290   5.317  1.2054 -0.7573 -0.9146
 1002MOL0     H32255   7.144   7.144   5.275  0.6097  0.6306 -1.0026
 1002MOL0     H32256   7.090   7.360   5.483 -2.2953  0.5141 -1.8073
 1002MOL0     H32257   6.992   7.218   5.471  0.5729 -1.9538 -1.7540
 1002MOL0     H32258   7.286   7.203   5.515  0.5760 -1.6304  0.2528
 1002MOL0     H32259   7.174   7.063   5.529  1.7528 -1.2804 -1.0885
 1002MOL0     H32260   7.248   7.158   5.764  0.1529  1.3677 -0.0725
 1002MOL0     H32261   7.167   7.309   5.721  3.5680  0.3925 -2.4816
 1002MOL0     H32262   6.858   7.008   5.771 -0.3365  0.8030 -1.9689
 1002MOL0     H32263   6.951   7.497   5.068 -1.0634  1.5838  0.9803
 1002MOL0     H32264   6.708   7.474   4.982 -0.6224 -2.3225 -2.3782
 1003MOL0     O32265   6.835   7.571   1.287 -0.6724 -0.5652  0.4482
 1003MOL0     C32266   6.906   7.674   1.278  0.8368  0.0800 -0.8066
 1003MOL0     O32267   6.859   7.801   1.312  0.3863  0.4176  0.0473
 1003MOL0     C32268   6.734   7.826   1.371  0.0048  0.0606  0.2051
 1003MOL0     C32269   6.713   7.755   1.495  0.5911  0.6503  1.0493
 1003MOL0     C32270   6.583   7.769   1.542  0.2051 -0.3788  1.5611
 1003MOL0     C32271   6.476   7.840   1.473  0.5665 -1.1273 -0.7633
 1003MOL0     O32272   6.351   7.868   1.516 -0.2001  0.8977 -0.1043
 1003MOL0     C32273   6.313   7.797   1.636 -0.8873 -0.6868 -0.2034
 1003MOL0     C32274   6.166   7.833   1.684  0.4930 -0.4354  1.1257
 1003MOL0     C32275   6.136   7.769   1.819  0.1202  0.3185 -0.2375
 1003MOL0     C32276   6.031   7.846   1.900  0.1225 -0.3841  0.0964
 1003MOL0     C32277   5.908   7.757   1.929 -0.6266  0.4211  0.6171
 1003MOL0     C32278   5.792   7.844   1.979 -0.0187  0.0035  0.3126
 1003MOL0     C32279   5.681   7.756   2.061  0.3352 -1.0916 -0.2006
 1003MOL0     C32280   5.741   7.691   2.182 -0.0235  0.2592  0.4369
 1003MOL0     N32281   5.651   7.651   2.291 -0.1586  0.1394  0.2778
 1003MOL0     C32282   5.583   7.734   2.376  0.1766  0.0691 -1.1587
 1003MOL0     C32283   5.516   7.648   2.449  0.5481  0.9172 -0.3485
 1003MOL0     C32284   5.420   7.680   2.559  0.0710 -0.6988 -0.1981
 1003MOL0     C32285   5.276   7.689   2.510 -0.1540  0.4251 -0.1141
 1003MOL0     C32286   5.199   7.551   2.495 -0.3091 -0.3341  0.7922
 1003MOL0     C32287   5.053   7.574   2.514 -0.2269 -0.8034 -0.4208
 1003MOL0     O32288   4.998   7.458   2.553  0.5508  0.3081  0.0561
 1003MOL0     C32289   4.863   7.443   2.539  0.4327  0.5076  0.6833
 1003MOL0     C32290   4.800   7.351   2.622  0.2435 -0.7852 -0.3779
 1003MOL0     C32291   4.668   7.322   2.620  0.4219 -0.6983  0.8141
 1003MOL0     C32292   4.585   7.366   2.518 -0.5102 -0.2925  0.1782
 1003MOL0     C32293   4.440   7.332   2.528  0.7657 -0.0184  0.7692
 1003MOL0     O32294   4.385   7.269   2.632 -0.0140  0.5696 -0.4040
 1003MOL0     C32295   4.250   7.244   2.630  0.2274 -0.2837  0.0600
 1003MOL0     C32296   4.179   7.318   2.722 -0.8506  0.5471 -0.3387
 1003MOL0     C32297   4.040   7.288   2.736  0.1105 -0.3393  0.5519
 1003MOL0     C32298   3.981   7.208   2.639 -0.3524 -0.2714 -0.7199
 1003MOL0     O32299   3.849   7.199   2.655 -0.6023  0.2879  0.5662
 1003MOL0     C32300   3.787   7.085   2.594 -0.9048 -0.0017  0.5100
 1003MOL0     C32301   3.644   7.066   2.638  0.0907 -0.5984  0.2965
 1003MOL0     C32302   3.565   6.952   2.576 -0.7430  0.0219 -0.2673
 1003MOL0     C32303   3.420   6.955   2.624 -0.3596 -0.3790  0.2093
 1003MOL0     C32304   3.344   6.821   2.590 -0.1833 -0.1027  0.1491
 1003MOL0     C32305   3.197   6.819   2.636 -0.2496  0.1467  0.1152
 1003MOL0     C32306   3.094   6.898   2.542 -0.5608 -0.5857  0.8577
 1003MOL0     C32307   3.016   6.801   2.461 -0.2118  0.3569 -0.3825
 1003MOL0    Cl32308   3.130   6.716   2.346  0.0717 -0.2772  0.3826
 1003MOL0     C32309   4.054   7.127   2.555 -0.2003 -0.6316  0.6041
 1003MOL0     C32310   4.193   7.143   2.555 -0.3945 -0.3452  0.8545
 1003MOL0     O32311   4.382   7.359   2.418  0.1954 -1.1766 -0.5069
 1003MOL0     C32312   4.643   7.460   2.425  0.0216  0.3816 -0.5150
 1003MOL0     C32313   4.780   7.503   2.441 -0.0268  0.1584 -0.0179
 1003MOL0     N32314   5.535   7.523   2.407  0.4846  0.3161 -0.8395
 1003MOL0     N32315   5.608   7.525   2.305 -0.6790 -0.5609 -0.4204
 1003MOL0     C32316   6.506   7.901   1.352 -0.5057 -0.6075  0.1890
 1003MOL0     C32317   6.638   7.900   1.306 -0.3377  0.2250  0.9933
 1003MOL0     C32318   7.049   7.660   1.233  0.3820  0.7551 -0.1532
 1003MOL0     C32319   7.132   7.766   1.192  0.5766  0.2713  0.0463
 1003MOL0     C32320   7.260   7.735   1.136  0.2002 -0.3209  0.3479
 1003MOL0     C32321   7.303   7.602   1.118  0.4082 -0.0034 -0.5633
 1003MOL0     O32322   7.417   7.558   1.053 -0.5267 -0.2840 -0.0146
 1003MOL0     C32323   7.496   7.651   0.975 -0.3836  0.0327 -0.2338
 1003MOL0     C32324   7.598   7.736   1.058 -0.3044  0.9048  0.8726
 1003MOL0     C32325   7.681   7.815   0.971  0.1774 -0.7362 -0.8525
 1003MOL0     C32326   7.776   7.901   1.067  0.9421 -0.4095  0.1480
 1003MOL0     C32327   7.703   7.981   1.163  0.1130 -0.4928 -0.5417
 1003MOL0     C32328   7.649   8.039   1.258  0.8030  0.9811 -0.3970
 1003MOL0     C32329   7.225   7.494   1.175 -0.1775  0.2108 -0.8669
 1003MOL0     C32330   7.104   7.532   1.237  0.9014 -0.2851  0.3867
 1003MOL0     H32331   6.781   7.689   1.547 -1.3013 -4.0472 -1.7915
 1003MOL0     H32332   6.548   7.707   1.624 -1.2961 -0.1122  1.1420
 1003MOL0     H32333   6.384   7.816   1.717  0.6917 -2.8367 -0.9775
 1003MOL0     H32334   6.327   7.689   1.627  0.5478 -0.7144  1.7508
 1003MOL0     H32335   6.088   7.805   1.612  0.6090  0.0861  0.7976
 1003MOL0     H32336   6.166   7.941   1.697  3.3121 -0.1878 -0.2825
 1003MOL0     H32337   6.227   7.776   1.880  0.3832 -3.9522  0.1542
 1003MOL0     H32338   6.109   7.665   1.804 -0.7496  0.5431 -0.2611
 1003MOL0     H32339   6.072   7.873   1.997  0.7207 -0.5258 -0.1153
 1003MOL0     H32340   5.993   7.931   1.843 -2.6950 -1.3530  0.3618
 1003MOL0     H32341   5.951   7.691   2.004 -0.9838  1.3408  1.6562
 1003MOL0     H32342   5.873   7.691   1.849 -0.2954 -0.2368  1.0101
 1003MOL0     H32343   5.755   7.892   1.887 -3.2520 -0.7405  1.0810
 1003MOL0     H32344   5.818   7.924   2.048 -1.6860 -1.7064  3.1088
 1003MOL0     H32345   5.606   7.828   2.095  1.6486  1.0889 -1.6581
 1003MOL0     H32346   5.638   7.677   1.999 -3.9426 -0.1407  1.2251
 1003MOL0     H32347   5.810   7.759   2.234 -1.0717  0.3474  1.7880
 1003MOL0     H32348   5.806   7.612   2.144  2.3988  3.2961 -2.3834
 1003MOL0     H32349   5.587   7.843   2.377 -0.1187  0.0909 -1.8885
 1003MOL0     H32350   5.458   7.771   2.606  0.0574 -1.7985  2.0766
 1003MOL0     H32351   5.421   7.600   2.634 -1.1483 -0.2262  0.3404
 1003MOL0     H32352   5.274   7.735   2.411 -2.4501  0.1084 -0.2800
 1003MOL0     H32353   5.223   7.759   2.576  1.2359  0.3050  1.1813
 1003MOL0     H32354   5.227   7.508   2.399  1.0586  1.0458  0.5271
 1003MOL0     H32355   5.225   7.483   2.576 -2.0126 -1.4475  0.4519
 1003MOL0     H32356   5.022   7.605   2.414 -2.5747  3.2339  1.3141
 1003MOL0     H32357   5.031   7.650   2.591  0.6012 -0.2656 -0.6941
 1003MOL0     H32358   4.858   7.294   2.694  1.2056  1.4070  0.6781
 1003MOL0     H32359   4.635   7.254   2.698  0.0884 -2.5371 -0.8557
 1003MOL0     H32360   4.227   7.382   2.795 -2.1131  0.5659  0.5074
 1003MOL0     H32361   3.986   7.345   2.810  0.5407 -0.1452  0.7175
 1003MOL0     H32362   3.841   6.990   2.594 -1.7398 -0.5055 -0.6003
 1003MOL0     H32363   3.782   7.111   2.488 -1.1127 -3.3081 -0.4016
 1003MOL0     H32364   3.590   7.161   2.626  2.1339  0.7783  1.4503
 1003MOL0     H32365   3.643   7.049   2.746  0.0676  1.4994  0.6735
 1003MOL0     H32366   3.620   6.863   2.609  1.7719  1.3872 -0.4801
 1003MOL0     H32367   3.559   6.952   2.467 -1.8556 -2.0480 -0.2616
 1003MOL0     H32368   3.422   6.978   2.731  0.8754  2.0644 -0.2578
 1003MOL0     H32369   3.361   7.035   2.577 -1.1693 -2.7543 -3.1755
 1003MOL0     H32370   3.396   6.731   2.625  4.0904  1.7772 -0.6044
 1003MOL0     H32371   3.349   6.800   2.483  2.0765  1.6973 -0.1851
 1003MOL0     H32372   3.176   6.843   2.741 -1.1739 -0.1633  0.0074
 1003MOL0     H32373   3.161   6.716   2.633  0.1552 -0.0501  1.3100
 1003MOL0     H32374   3.027   6.963   2.598  0.1655 -0.8947  2.1182
 1003MOL0     H32375   3.160   6.959   2.479 -1.5536  0.2309  0.5730
 1003MOL0     H32376   2.941   6.855   2.402  0.8520  0.4553 -1.6990
 1003MOL0     H32377   2.973   6.726   2.528  0.8971 -1.1344 -1.2787
 1003MOL0     H32378   4.009   7.054   2.488  0.2061 -0.7880  0.5013
 1003MOL0     H32379   4.265   7.091   2.492 -2.7217 -1.8210 -0.6987
 1003MOL0     H32380   4.596   7.483   2.330  1.9289  0.5508 -1.4480
 1003MOL0     H32381   4.815   7.579   2.372  2.1809 -1.1157 -0.3979
 1003MOL0     H32382   6.422   7.943   1.298  0.6168  1.9855  0.3036
 1003MOL0     H32383   6.647   7.935   1.203 -0.4732  1.0768  1.2598
 1003MOL0     H32384   7.107   7.870   1.213  0.5484  0.1345  0.7105
 1003MOL0     H32385   7.313   7.820   1.096  1.0583 -0.0225  2.0103
 1003MOL0     H32386   7.430   7.723   0.926 -2.4512 -1.3122  0.4048
 1003MOL0     H32387   7.547   7.592   0.897  1.1743 -2.1990  2.2932
 1003MOL0     H32388   7.544   7.793   1.134  1.1984 -0.2690  2.9070
 1003MOL0     H32389   7.655   7.655   1.104 -1.6213  0.1806  1.2993
 1003MOL0     H32390   7.638   7.889   0.903 -0.4704 -0.0526  0.2643
 1003MOL0     H32391   7.735   7.753   0.899 -2.2385  0.9314 -4.3865
 1003MOL0     H32392   7.845   7.832   1.117  2.1710  1.0227  0.4893
 1003MOL0     H32393   7.836   7.972   1.010  0.9241  1.1916  2.0521
 1003MOL0     H32394   7.573   8.082   1.321  1.4900 -0.0178  1.1966
 1003MOL0     H32395   7.254   7.390   1.174 -2.9011 -0.6484  0.0688
 1003MOL0     H32396   7.045   7.456   1.289 -0.4824 -0.4615 -1.3655
 1004MOL0     O32397   5.981   1.238   1.450 -1.0067 -0.0614 -0.0853
 1004MOL0     C32398   5.999   1.315   1.550  0.3221 -0.3644 -0.2645
 1004MOL0     O32399   5.906   1.409   1.595 -0.1013 -0.2627 -0.4280
 1004MOL0     C32400   5.783   1.423   1.557  1.0313  0.1073 -0.0154
 1004MOL0     C32401   5.745   1.406   1.423 -0.7066  0.0134  0.7806
 1004MOL0     C32402   5.620   1.434   1.382  0.7064  0.5651  0.2771
 1004MOL0     C32403   5.528   1.501   1.450  0.0675 -0.1351 -0.0970
 1004MOL0     O32404   5.416   1.547   1.379  0.4354  0.1906  0.3739
 1004MOL0     C32405   5.301   1.553   1.465  0.0092 -0.9202 -0.1976
 1004MOL0     C32406   5.184   1.614   1.385 -0.4896  0.0738 -0.0334
 1004MOL0     C32407   5.217   1.751   1.324 -0.3357  0.4023  0.6864
 1004MOL0     C32408   5.137   1.780   1.195  0.5351 -0.1717 -0.3683
 1004MOL0     C32409   4.983   1.786   1.219 -0.0449  0.4135  0.0358
 1004MOL0     C32410   4.938   1.897   1.327  0.0254  0.3962  0.8338
 1004MOL0     C32411   4.779   1.903   1.351 -0.5455  0.1500  0.2734
 1004MOL0     C32412   4.698   1.955   1.222 -0.6804  1.3448 -0.9332
 1004MOL0     N32413   4.575   2.025   1.273  0.4654 -0.4467  0.3827
 1004MOL0     C32414   4.556   2.162   1.282  0.3938 -0.6992 -0.5206
 1004MOL0     C32415   4.427   2.182   1.317 -0.5686 -0.8598 -0.8740
 1004MOL0     C32416   4.368   2.326   1.312 -0.4311  0.0287 -0.3593
 1004MOL0     C32417   4.233   2.342   1.393 -1.1646  0.1648  0.3665
 1004MOL0     C32418   4.190   2.487   1.384  0.2290  0.5785 -0.0985
 1004MOL0     C32419   4.043   2.491   1.420  0.4053  0.3071  1.0446
 1004MOL0     O32420   4.001   2.631   1.412  0.2037  0.6078  0.3578
 1004MOL0     C32421   3.865   2.652   1.406  0.7437  0.7198  0.3545
 1004MOL0     C32422   3.772   2.604   1.498 -0.4681 -0.0925 -1.0477
 1004MOL0     C32423   3.635   2.643   1.501  1.1836  0.0120 -0.3845
 1004MOL0     C32424   3.584   2.734   1.402  0.4463 -0.0726  0.3261
 1004MOL0     C32425   3.441   2.774   1.413  0.6268 -0.5644  0.0110
 1004MOL0     O32426   3.371   2.799   1.295 -0.4101  0.3989  1.0193
 1004MOL0     C32427   3.247   2.859   1.294  0.3113  1.1528  0.5342
 1004MOL0     C32428   3.178   2.849   1.169 -1.2334  0.7435 -0.8830
 1004MOL0     C32429   3.065   2.934   1.150 -0.5007 -0.2134  0.5664
 1004MOL0     C32430   3.017   3.014   1.250 -0.7225  0.1548  0.8107
 1004MOL0     O32431   2.919   3.101   1.218 -0.1012  0.1487 -0.3847
 1004MOL0     C32432   2.911   3.233   1.285  0.6839 -0.1382 -0.3626
 1004MOL0     C32433   2.780   3.304   1.241  0.7926  0.2435 -0.0046
 1004MOL0     C32434   2.665   3.255   1.327  0.0689  0.7521 -1.2092
 1004MOL0     C32435   2.532   3.319   1.303 -0.1389 -0.2114 -0.4490
 1004MOL0     C32436   2.434   3.267   1.410 -0.3028 -0.1642 -0.1589
 1004MOL0     C32437   2.289   3.324   1.380 -0.6394  0.3680  1.0416
 1004MOL0     C32438   2.227   3.242   1.273 -0.5130 -0.2325  0.0758
 1004MOL0     C32439   2.072   3.283   1.253  0.0899 -1.1973 -0.1784
 1004MOL0    Cl32440   1.993   3.130   1.193  0.4641  0.2343 -0.4053
 1004MOL0     C32441   3.084   3.012   1.368  0.2059  0.4024 -0.3921
 1004MOL0     C32442   3.189   2.934   1.394 -0.9458 -0.9893 -0.3708
 1004MOL0     O32443   3.393   2.772   1.524 -0.3625  0.3678 -0.2881
 1004MOL0     C32444   3.675   2.769   1.295 -0.2733 -0.1231  0.2738
 1004MOL0     C32445   3.809   2.737   1.307  0.0017  0.2862  0.0621
 1004MOL0     N32446   4.368   2.054   1.342 -0.0242 -0.7694  0.2512
 1004MOL0     N32447   4.453   1.964   1.312  0.3712  0.1900  0.2174
 1004MOL0     C32448   5.565   1.524   1.585 -0.3928 -0.0766  0.5441
 1004MOL0     C32449   5.693   1.491   1.636 -0.2573 -0.1023 -0.5121
 1004MOL0     C32450   6.128   1.311   1.610  0.5906 -0.6043 -0.0068
 1004MOL0     C32451   6.239   1.244   1.565 -0.5503  0.1869  0.7891
 1004MOL0     C32452   6.359   1.246   1.633 -0.2537  0.0149 -0.0645
 1004MOL0     C32453   6.379   1.332   1.742  0.0264 -0.9391 -0.2418
 1004MOL0     O32454   6.487   1.343   1.826 -0.0235 -0.5878 -0.0641
 1004MOL0     C32455   6.596   1.243   1.828  0.2259 -0.7257  0.1972
 1004MOL0     C32456   6.652   1.248   1.968  0.3692  0.0289  0.5384
 1004MOL0     C32457   6.754   1.130   1.992  0.9408  0.2258  0.4826
 1004MOL0     C32458   6.870   1.141   1.895 -0.7453 -0.4893 -0.2098
 1004MOL0     C32459   6.951   1.022   1.918 -0.2394 -0.3231  0.2554
 1004MOL0     C32460   7.015   0.925   1.918  0.4882  0.2308 -0.9757
 1004MOL0     C32461   6.272   1.407   1.787 -0.2669  0.6724  0.0333
 1004MOL0     C32462   6.141   1.387   1.724 -1.0535 -0.8704 -0.3842
 1004MOL0     H32463   5.818   1.381   1.346 -1.7782 -0.2083 -0.1995
 1004MOL0     H32464   5.612   1.426   1.274  0.5598  0.5191  0.2918
 1004MOL0     H32465   5.324   1.608   1.557  1.5217 -3.6557  1.1900
 1004MOL0     H32466   5.283   1.451   1.499  2.0242 -0.9531  0.9415
 1004MOL0     H32467   5.102   1.626   1.457  0.4769  0.9507  0.9491
 1004MOL0     H32468   5.148   1.541   1.312 -1.0838  0.6078 -0.2924
 1004MOL0     H32469   5.325   1.757   1.314 -0.0713 -3.3093 -0.0677
 1004MOL0     H32470   5.198   1.828   1.400 -1.5587 -0.0152  0.8269
 1004MOL0     H32471   5.180   1.873   1.157 -0.1712  1.6713  2.9206
 1004MOL0     H32472   5.160   1.708   1.116 -0.0594 -0.3537 -0.3798
 1004MOL0     H32473   4.944   1.694   1.264 -0.8861  0.5690 -0.3682
 1004MOL0     H32474   4.943   1.810   1.120 -0.4408  0.1192  0.1217
 1004MOL0     H32475   4.983   1.993   1.299  1.6356  0.2958  2.8318
 1004MOL0     H32476   4.983   1.859   1.419  0.8370  0.5862  0.5301
 1004MOL0     H32477   4.723   1.821   1.396 -2.9294  2.0886  1.1056
 1004MOL0     H32478   4.764   1.984   1.424  2.6346 -0.0172  1.2326
 1004MOL0     H32479   4.677   1.861   1.171  2.4414 -0.4802  0.7717
 1004MOL0     H32480   4.759   2.020   1.158  0.2641  0.8830 -0.5281
 1004MOL0     H32481   4.629   2.241   1.264 -0.9763  1.2217  1.8210
 1004MOL0     H32482   4.338   2.351   1.209 -2.7763 -2.0285 -0.2809
 1004MOL0     H32483   4.446   2.394   1.348  1.2135 -1.4794 -0.9207
 1004MOL0     H32484   4.243   2.311   1.497 -1.1072 -3.7108 -0.6504
 1004MOL0     H32485   4.164   2.273   1.344 -0.2542 -0.1593 -0.4930
 1004MOL0     H32486   4.249   2.549   1.453  3.5298  0.6449 -2.7614
 1004MOL0     H32487   4.211   2.533   1.287 -0.1529  0.3333 -0.2997
 1004MOL0     H32488   4.019   2.445   1.517  2.3096 -0.0453  1.3762
 1004MOL0     H32489   3.985   2.443   1.341  2.0196  1.6015 -1.0155
 1004MOL0     H32490   3.821   2.536   1.567 -1.1693  0.2283 -0.2209
 1004MOL0     H32491   3.559   2.606   1.569 -3.4897  1.4977 -4.2168
 1004MOL0     H32492   3.228   2.801   1.086 -0.6626  2.0654 -1.3211
 1004MOL0     H32493   3.010   2.950   1.057  1.9604  0.0338 -0.9549
 1004MOL0     H32494   2.984   3.304   1.246 -1.5319  1.4884 -1.7717
 1004MOL0     H32495   2.919   3.222   1.393  0.0840  0.3542 -0.2609
 1004MOL0     H32496   2.766   3.292   1.133 -0.9108 -1.5682  0.3738
 1004MOL0     H32497   2.773   3.410   1.266 -0.3670  0.7623 -2.1987
 1004MOL0     H32498   2.698   3.276   1.430 -1.3726 -1.9757 -0.0769
 1004MOL0     H32499   2.649   3.146   1.325  0.9586  0.6242 -2.1500
 1004MOL0     H32500   2.536   3.427   1.318  2.7365 -0.2637 -0.3638
 1004MOL0     H32501   2.501   3.294   1.201 -0.9472  0.5415 -0.4034
 1004MOL0     H32502   2.473   3.286   1.510  0.0110 -1.3057 -0.0443
 1004MOL0     H32503   2.413   3.160   1.424  0.0941 -0.4531 -1.6220
 1004MOL0     H32504   2.283   3.430   1.354  1.1309  0.3655  0.5095
 1004MOL0     H32505   2.224   3.317   1.468 -0.7141  0.7820  1.0172
 1004MOL0     H32506   2.281   3.248   1.178 -0.9561 -2.1869 -0.3459
 1004MOL0     H32507   2.237   3.138   1.307  1.5048 -0.2692 -0.4954
 1004MOL0     H32508   2.060   3.361   1.176 -1.4574 -0.0269  1.1704
 1004MOL0     H32509   2.019   3.322   1.340  2.2428 -0.6766  0.9680
 1004MOL0     H32510   3.044   3.073   1.449 -0.0513 -0.2476 -0.0191
 1004MOL0     H32511   3.226   2.935   1.496 -3.5841 -2.5219  0.6798
 1004MOL0     H32512   3.639   2.831   1.214  2.0214  0.8087 -0.1197
 1004MOL0     H32513   3.874   2.790   1.239 -0.8021  0.4313 -0.6106
 1004MOL0     H32514   5.501   1.583   1.649  1.9764  0.3462  2.6727
 1004MOL0     H32515   5.723   1.515   1.738  2.9677 -1.3405 -1.0223
 1004MOL0     H32516   6.230   1.198   1.467 -4.8316 -0.5638  1.3340
 1004MOL0     H32517   6.453   1.195   1.612  0.8834  1.4682  1.2333
 1004MOL0     H32518   6.666   1.285   1.756 -3.3813  3.6977 -1.1817
 1004MOL0     H32519   6.560   1.146   1.791  2.1731 -1.9577  1.3420
 1004MOL0     H32520   6.691   1.350   1.974  0.6959 -0.0877  0.4450
 1004MOL0     H32521   6.564   1.243   2.032 -1.3981  4.1800 -1.2409
 1004MOL0     H32522   6.713   1.032   1.968 -1.2336  1.5106 -1.4742
 1004MOL0     H32523   6.788   1.135   2.096  1.2364  0.1109  0.3948
 1004MOL0     H32524   6.838   1.125   1.792  2.1046  0.2333 -1.3152
 1004MOL0     H32525   6.922   1.237   1.903 -2.3230  0.2628  1.8769
 1004MOL0     H32526   7.084   0.844   1.905  0.3940 -0.4173  1.8769
 1004MOL0     H32527   6.300   1.471   1.870  2.2383 -0.2366 -0.0171
 1004MOL0     H32528   6.059   1.425   1.784 -0.6129 -2.0709  1.0581
 1005MOL0     O32529   3.398   3.347   9.219  0.1943 -0.0136 -0.5984
 1005MOL0     C32530   3.446   3.378   9.327 -0.3592 -0.1340 -0.0192
 1005MOL0     O32531   3.384   3.453   9.428  0.5171 -0.7438  0.4452
 1005MOL0     C32532   3.255   3.483   9.444  0.8695  0.0478  0.3268
 1005MOL0     C32533   3.158   3.465   9.337  0.6195  0.3399  0.1384
 1005MOL0     C32534   3.030   3.511   9.365 -0.6063 -0.2715  0.7820
 1005MOL0     C32535   3.003   3.591   9.474 -0.1656  0.5638  0.6141
 1005MOL0     O32536   2.879   3.650   9.485  0.0731  0.7997  0.1176
 1005MOL0     C32537   2.827   3.669   9.617 -0.7435  0.3182 -0.3646
 1005MOL0     C32538   2.671   3.684   9.618 -0.2724 -0.6375 -0.1983
 1005MOL0     C32539   2.603   3.707   9.758 -0.2431  0.0226 -0.2660
 1005MOL0     C32540   2.454   3.726   9.730  0.3459  0.6699 -1.0221
 1005MOL0     C32541   2.368   3.768   9.858 -0.1980 -0.6962 -0.3045
 1005MOL0     C32542   2.222   3.807   9.815 -0.7773  0.6709 -0.3588
 1005MOL0     C32543   2.130   3.692   9.763  0.1584 -0.1035  0.0295
 1005MOL0     C32544   1.989   3.699   9.839 -0.6536 -0.0234 -0.2965
 1005MOL0     N32545   1.887   3.800   9.799  0.0314 -0.2181 -1.1067
 1005MOL0     C32546   1.893   3.932   9.839  0.6691 -0.6899  0.0011
 1005MOL0     C32547   1.790   3.991   9.773  1.0626 -0.3792  0.1945
 1005MOL0     C32548   1.743   4.139   9.796 -0.8012 -0.0370  0.8299
 1005MOL0     C32549   1.702   4.175   9.933 -0.6445  0.1201 -0.4794
 1005MOL0     C32550   1.771   4.302   9.987 -0.8066 -0.1426 -0.0985
 1005MOL0     C32551   1.928   4.296   9.977  0.0883  0.0922  0.4510
 1005MOL0     O32552   1.997   4.198  10.062 -0.5373  0.1379  0.2911
 1005MOL0     C32553   2.133   4.194  10.057 -0.3576 -0.4586  0.5653
 1005MOL0     C32554   2.185   4.088  10.132 -0.7236 -0.4956 -0.7219
 1005MOL0     C32555   2.320   4.058  10.117 -0.0136 -0.0814 -0.0680
 1005MOL0     C32556   2.410   4.138  10.032  0.2211  0.5882  0.2108
 1005MOL0     C32557   2.546   4.102  10.015  0.2103 -0.9163  0.1028
 1005MOL0     O32558   2.618   4.187   9.929  0.1248 -0.7133 -0.1387
 1005MOL0     C32559   2.753   4.169   9.922  0.0386  0.2254 -0.4384
 1005MOL0     C32560   2.798   4.058   9.845 -0.0412  0.8324 -0.1552
 1005MOL0     C32561   2.931   4.015   9.843 -0.0423 -0.4945 -0.3434
 1005MOL0     C32562   3.019   4.086   9.920  0.2532  0.6381  0.6051
 1005MOL0     O32563   3.150   4.051   9.946 -0.8419 -0.0352 -0.5173
 1005MOL0     C32564   3.193   3.941   9.882  0.5093  0.9457 -0.1987
 1005MOL0     C32565   3.333   3.896   9.928  0.3023 -0.2084 -0.9793
 1005MOL0     C32566   3.374   3.764   9.872  0.0303 -0.4038 -0.0910
 1005MOL0     C32567   3.525   3.741   9.909  0.0368  0.0709 -0.0214
 1005MOL0     C32568   3.596   3.640   9.830  0.4224  0.3557  0.2880
 1005MOL0     C32569   3.716   3.583   9.895 -0.5963 -0.0605 -0.4868
 1005MOL0     C32570   3.764   3.450   9.829  1.2792  0.0369  0.3898
 1005MOL0     C32571   3.916   3.432   9.831  0.5421 -0.9774 -0.4318
 1005MOL0    Cl32572   3.998   3.565   9.730  0.0292 -0.1288 -0.2295
 1005MOL0     C32573   2.988   4.222   9.967 -0.6915 -0.0854 -0.2252
 1005MOL0     C32574   2.850   4.256   9.974  0.1907  0.2394  0.4960
 1005MOL0     O32575   2.588   4.009  10.070 -0.4935  0.1347 -0.6574
 1005MOL0     C32576   2.351   4.250   9.964 -0.5206  0.1814 -0.5728
 1005MOL0     C32577   2.218   4.280   9.981 -0.8262  0.8542 -0.8294
 1005MOL0     N32578   1.727   3.899   9.689  0.1217 -0.3281  0.0819
 1005MOL0     N32579   1.787   3.791   9.710  0.2143 -0.1250  0.1356
 1005MOL0     C32580   3.098   3.610   9.568  0.4127 -0.6409  0.1616
 1005MOL0     C32581   3.218   3.556   9.561  0.1394  0.3532  0.0420
 1005MOL0     C32582   3.587   3.353   9.340 -0.5551  0.7130  0.1217
 1005MOL0     C32583   3.663   3.252   9.271 -0.2404 -1.0254  0.6947
 1005MOL0     C32584   3.798   3.228   9.306 -0.1417 -0.0771 -0.2414
 1005MOL0     C32585   3.869   3.311   9.384 -0.1476 -0.6440 -0.3666
 1005MOL0     O32586   4.000   3.309   9.408  0.1660 -0.2522  0.2284
 1005MOL0     C32587   4.084   3.219   9.336 -0.8152  0.4616 -0.3318
 1005MOL0     C32588   4.070   3.082   9.398  0.5281  1.1181 -0.2133
 1005MOL0     C32589   4.076   3.083   9.559 -0.5897 -0.0167  0.3346
 1005MOL0     C32590   4.059   2.945   9.621  0.0164 -0.7942  0.3929
 1005MOL0     C32591   4.104   2.940   9.759 -0.2023  0.7996 -0.3809
 1005MOL0     C32592   4.140   2.925   9.875  0.3487  0.1037  0.7589
 1005MOL0     C32593   3.803   3.408   9.455 -0.0442 -0.5559 -0.3894
 1005MOL0     C32594   3.659   3.425   9.440 -0.5725  1.0850 -0.3263
 1005MOL0     H32595   3.170   3.420   9.240  0.6511 -1.5942  0.9938
 1005MOL0     H32596   2.950   3.508   9.292 -0.9940 -0.9244  1.2198
 1005MOL0     H32597   2.877   3.759   9.654 -0.4433  1.6831 -3.7927
 1005MOL0     H32598   2.859   3.588   9.684 -1.2165  1.3647  1.1842
 1005MOL0     H32599   2.630   3.595   9.568 -1.1950 -0.1961 -0.2280
 1005MOL0     H32600   2.643   3.765   9.550  0.3952 -0.2812 -0.0548
 1005MOL0     H32601   2.639   3.794   9.814  1.6849 -0.3393 -0.8817
 1005MOL0     H32602   2.618   3.622   9.824  0.6325 -0.5669 -1.1923
 1005MOL0     H32603   2.432   3.812   9.667 -0.6322  1.9444  0.9328
 1005MOL0     H32604   2.412   3.633   9.691 -2.5121  0.2094  2.5734
 1005MOL0     H32605   2.404   3.859   9.907 -1.2678 -1.0180  1.1617
 1005MOL0     H32606   2.365   3.693   9.937  1.5880 -0.7081 -0.2080
 1005MOL0     H32607   2.235   3.871   9.727  0.0330 -0.0587 -0.7899
 1005MOL0     H32608   2.172   3.863   9.894  0.1270 -0.2647  0.9193
 1005MOL0     H32609   2.122   3.699   9.655  1.5021  0.6423 -0.0489
 1005MOL0     H32610   2.168   3.592   9.787 -3.4257 -1.6580 -0.1578
 1005MOL0     H32611   1.996   3.698   9.948 -0.9085  0.5810 -0.2751
 1005MOL0     H32612   1.955   3.596   9.821  0.5955 -1.1480  3.0010
 1005MOL0     H32613   1.953   3.986   9.911 -0.5445 -0.5077  0.9123
 1005MOL0     H32614   1.656   4.153   9.731  0.8498  2.1097 -1.0360
 1005MOL0     H32615   1.811   4.215   9.758 -1.9253  1.7766  2.2677
 1005MOL0     H32616   1.727   4.092  10.000  0.0706  1.1113  0.5153
 1005MOL0     H32617   1.593   4.186   9.937 -0.4277  2.3682  1.2310
 1005MOL0     H32618   1.765   4.392   9.925 -0.3289 -1.1716 -1.7034
 1005MOL0     H32619   1.735   4.325  10.088  0.3344 -0.7221  0.4602
 1005MOL0     H32620   1.957   4.395  10.014 -3.1160  0.5944  1.9811
 1005MOL0     H32621   1.962   4.286   9.874 -1.8221  1.6861 -0.3973
 1005MOL0     H32622   2.123   4.042  10.209  0.3576  0.9086  1.0377
 1005MOL0     H32623   2.358   3.973  10.174 -0.2579  1.4000  2.4333
 1005MOL0     H32624   2.725   4.005   9.786 -0.1456  0.6376  0.1466
 1005MOL0     H32625   2.959   3.924   9.791  1.9578  0.3756 -0.8648
 1005MOL0     H32626   3.199   3.957   9.774  3.4818  1.2494 -0.0810
 1005MOL0     H32627   3.125   3.858   9.903 -0.9212  2.5444  1.8746
 1005MOL0     H32628   3.324   3.895  10.037 -3.5464  2.4585 -1.0650
 1005MOL0     H32629   3.412   3.965   9.895  1.9473 -1.0991  0.9212
 1005MOL0     H32630   3.359   3.768   9.764 -0.9337  1.4200  0.0654
 1005MOL0     H32631   3.309   3.689   9.919 -3.0814  3.2324  2.0445
 1005MOL0     H32632   3.583   3.833   9.900  0.2253  0.5683  4.0980
 1005MOL0     H32633   3.515   3.715  10.015 -0.1207 -1.6939 -0.4376
 1005MOL0     H32634   3.625   3.668   9.729 -0.8506 -0.9056 -0.4638
 1005MOL0     H32635   3.523   3.559   9.825 -0.5916  1.1074  1.9429
 1005MOL0     H32636   3.686   3.566   9.999 -1.7348  0.8755 -0.6453
 1005MOL0     H32637   3.800   3.654   9.900 -1.0221  0.4198  0.0836
 1005MOL0     H32638   3.718   3.365   9.880  0.4348  1.5242  2.2256
 1005MOL0     H32639   3.731   3.444   9.724  0.6357  0.6569  0.5474
 1005MOL0     H32640   3.945   3.332   9.796 -0.7247 -1.8115  0.8402
 1005MOL0     H32641   3.954   3.435   9.933  0.3481 -2.1893 -0.3139
 1005MOL0     H32642   3.060   4.285  10.017 -0.3522 -1.3407  0.9081
 1005MOL0     H32643   2.818   4.351  10.015 -0.6382  0.5125 -0.7507
 1005MOL0     H32644   2.409   4.322   9.907 -2.0337  0.7934 -1.4146
 1005MOL0     H32645   2.178   4.374   9.945  0.1624  1.0079 -1.5599
 1005MOL0     H32646   3.083   3.677   9.653 -1.7095 -0.1134 -0.5661
 1005MOL0     H32647   3.295   3.562   9.637 -1.2471  2.8138  1.3714
 1005MOL0     H32648   3.616   3.182   9.203 -3.0124  0.4370  0.9391
 1005MOL0     H32649   3.848   3.146   9.255  0.3270  1.2407 -2.0078
 1005MOL0     H32650   4.185   3.257   9.357 -0.3983 -1.3948  1.3719
 1005MOL0     H32651   4.051   3.231   9.233 -1.7695 -1.4795 -0.2809
 1005MOL0     H32652   3.985   3.028   9.355 -2.0632  4.4081  0.3516
 1005MOL0     H32653   4.151   3.025   9.351 -2.1722 -0.5719 -3.2325
 1005MOL0     H32654   3.997   3.150   9.595  1.4951  2.8587 -0.0892
 1005MOL0     H32655   4.176   3.112   9.592 -2.1200  2.3628  3.4281
 1005MOL0     H32656   3.952   2.922   9.619 -0.8840  2.0748  4.4712
 1005MOL0     H32657   4.125   2.880   9.563  0.1240 -1.4515  1.2357
 1005MOL0     H32658   4.161   2.908   9.979 -0.2491  0.8715  1.0141
 1005MOL0     H32659   3.849   3.467   9.534  0.5766 -2.6019  0.8742
 1005MOL0     H32660   3.610   3.491   9.511  0.0070 -1.2944  2.4972
 1006MOL0     O32661   7.415   4.503   1.611  0.2054 -0.7308 -0.7952
 1006MOL0     C32662   7.418   4.509   1.737 -0.4861 -0.5020  0.5948
 1006MOL0     O32663   7.312   4.528   1.822  0.2060  1.1291  0.7827
 1006MOL0     C32664   7.185   4.531   1.769  0.4756  1.0480  0.5518
 1006MOL0     C32665   7.135   4.424   1.693  0.4575  0.3243 -0.3979
 1006MOL0     C32666   7.007   4.438   1.643 -0.1820 -0.5875  0.0167
 1006MOL0     C32667   6.928   4.551   1.657  0.4583  0.3172  0.4351
 1006MOL0     O32668   6.809   4.541   1.593 -0.4403 -0.3005 -0.1213
 1006MOL0     C32669   6.724   4.644   1.629 -1.3950 -0.2210  0.8653
 1006MOL0     C32670   6.583   4.630   1.566  0.0722  0.0202 -0.2579
 1006MOL0     C32671   6.476   4.662   1.672  0.4271  0.4039 -0.2387
 1006MOL0     C32672   6.334   4.664   1.601 -0.1347 -0.6979  0.2076
 1006MOL0     C32673   6.276   4.808   1.587 -1.1240  0.3863 -0.9865
 1006MOL0     C32674   6.236   4.881   1.724 -0.2070 -1.3037  0.1168
 1006MOL0     C32675   6.103   4.837   1.769 -0.3844  0.7349  0.1243
 1006MOL0     C32676   6.033   4.937   1.859  0.1623  0.6434  0.9358
 1006MOL0     N32677   5.914   4.877   1.914  0.7187  0.1569 -0.6311
 1006MOL0     C32678   5.808   4.843   1.834  0.9736 -0.8327  0.2057
 1006MOL0     C32679   5.697   4.875   1.916  0.2431  0.1248  0.0252
 1006MOL0     C32680   5.552   4.868   1.876 -0.1773 -0.0453  0.2543
 1006MOL0     C32681   5.490   4.738   1.942 -0.3118  0.4775  0.1541
 1006MOL0     C32682   5.346   4.712   1.891 -0.2171  0.3754 -0.5154
 1006MOL0     C32683   5.241   4.827   1.919  0.4027  0.8632  0.2408
 1006MOL0     O32684   5.119   4.797   1.852 -0.8045  0.3877  0.0536
 1006MOL0     C32685   5.025   4.712   1.914  0.0287  0.7821  0.1839
 1006MOL0     C32686   4.915   4.690   1.840 -0.1188  0.3539 -0.6727
 1006MOL0     C32687   4.812   4.603   1.877  0.8277  0.5339 -1.1673
 1006MOL0     C32688   4.837   4.523   1.999  0.4487 -0.2956  0.1285
 1006MOL0     C32689   4.742   4.413   2.033  0.4915 -0.8579 -0.4784
 1006MOL0     O32690   4.752   4.358   2.159  0.0990 -0.3822 -0.4375
 1006MOL0     C32691   4.633   4.326   2.219 -0.4038  0.3175  0.0597
 1006MOL0     C32692   4.618   4.212   2.302 -0.7787 -0.1621 -0.6664
 1006MOL0     C32693   4.507   4.175   2.379 -0.1554 -0.4106  0.7269
 1006MOL0     C32694   4.397   4.259   2.369  0.1577 -0.1572 -0.3881
 1006MOL0     O32695   4.291   4.225   2.438  0.8671 -0.0188  0.1513
 1006MOL0     C32696   4.159   4.278   2.406 -0.0856  0.5596  0.4941
 1006MOL0     C32697   4.041   4.243   2.506  0.1752 -0.3024  1.1588
 1006MOL0     C32698   3.917   4.340   2.497 -0.2426  0.4316  0.6670
 1006MOL0     C32699   3.867   4.346   2.357 -0.3611 -0.5883  0.2776
 1006MOL0     C32700   3.751   4.447   2.355 -0.7637  0.0890  0.6549
 1006MOL0     C32701   3.781   4.595   2.372 -0.7952 -0.2849 -0.7585
 1006MOL0     C32702   3.838   4.664   2.246 -0.5976 -0.2774 -0.2223
 1006MOL0     C32703   3.897   4.799   2.283 -0.6049  0.1679  0.1115
 1006MOL0    Cl32704   3.918   4.892   2.130  0.0637  0.1882 -0.3220
 1006MOL0     C32705   4.400   4.365   2.280  0.7812  0.3208  0.5311
 1006MOL0     C32706   4.516   4.406   2.217  0.1539 -0.1188 -0.7339
 1006MOL0     O32707   4.662   4.377   1.950 -0.6133 -0.0396  0.5389
 1006MOL0     C32708   4.951   4.539   2.072  0.0297  0.1371 -1.0534
 1006MOL0     C32709   5.039   4.637   2.030 -1.1021 -0.8532 -0.5916
 1006MOL0     N32710   5.741   4.928   2.033  0.3983  0.7286  0.0786
 1006MOL0     N32711   5.868   4.929   2.037 -0.5383  0.1574  1.0913
 1006MOL0     C32712   6.984   4.661   1.714 -0.3189  0.0820  0.1460
 1006MOL0     C32713   7.105   4.648   1.785 -0.9317  1.0094 -0.3466
 1006MOL0     C32714   7.554   4.521   1.791  1.0015  0.5367 -0.2391
 1006MOL0     C32715   7.658   4.494   1.707  0.5487  0.4600 -0.2600
 1006MOL0     C32716   7.790   4.499   1.736 -0.0433  0.5856 -0.6452
 1006MOL0     C32717   7.835   4.526   1.870  0.3353  0.9929 -0.4415
 1006MOL0     O32718   7.963   4.540   1.895 -0.0104  0.1875 -0.3547
 1006MOL0     C32719   8.001   4.564   2.032 -0.2808 -0.0471 -0.6367
 1006MOL0     C32720   8.162   4.593   2.044  0.8385  0.2293  1.1770
 1006MOL0     C32721   8.249   4.474   2.003 -0.5004 -0.2940  0.5255
 1006MOL0     C32722   8.233   4.424   1.857 -0.4435  0.6767  1.0891
 1006MOL0     C32723   8.311   4.298   1.852 -0.1933  0.3419  0.2017
 1006MOL0     C32724   8.359   4.189   1.838  0.1069 -0.2555 -0.1244
 1006MOL0     C32725   7.726   4.555   1.961  0.4190  0.7938 -0.3618
 1006MOL0     C32726   7.593   4.550   1.928  0.7640  0.8728 -0.2588
 1006MOL0     H32727   7.197   4.339   1.669  0.9303  1.2560 -2.8186
 1006MOL0     H32728   6.965   4.351   1.595 -4.8408  0.8954  0.9334
 1006MOL0     H32729   6.761   4.744   1.603  1.3180 -0.8802  1.8182
 1006MOL0     H32730   6.713   4.645   1.738  2.5504 -0.4618  1.4345
 1006MOL0     H32731   6.577   4.523   1.548 -1.0056 -0.7798  3.8414
 1006MOL0     H32732   6.572   4.694   1.478  2.3976  0.8641 -0.0087
 1006MOL0     H32733   6.498   4.761   1.715 -1.7459  1.0166 -0.3809
 1006MOL0     H32734   6.484   4.587   1.751 -1.5575  0.2318 -0.1344
 1006MOL0     H32735   6.343   4.608   1.507  0.3500  2.6338 -1.9258
 1006MOL0     H32736   6.270   4.615   1.675 -2.5725 -0.2624 -1.5051
 1006MOL0     H32737   6.187   4.809   1.524 -0.7572  1.1251 -1.4982
 1006MOL0     H32738   6.344   4.870   1.528  3.4340 -2.7945  0.3288
 1006MOL0     H32739   6.222   4.987   1.700  2.4630 -1.5498 -3.3182
 1006MOL0     H32740   6.313   4.871   1.801  1.5672 -0.8688 -1.5229
 1006MOL0     H32741   6.035   4.825   1.684 -1.0614  0.3944  0.7014
 1006MOL0     H32742   6.109   4.736   1.811  1.6421  0.0285 -1.6812
 1006MOL0     H32743   6.022   5.030   1.803 -1.9206  1.2109  2.1788
 1006MOL0     H32744   6.103   4.953   1.941  1.0346  1.1663  0.1118
 1006MOL0     H32745   5.800   4.807   1.732 -1.3469 -1.0497  0.3937
 1006MOL0     H32746   5.541   4.881   1.768 -1.5650  4.4681  0.7335
 1006MOL0     H32747   5.496   4.957   1.907  0.8234  2.1396 -3.5454
 1006MOL0     H32748   5.504   4.753   2.049  6.2862 -0.5731 -0.1344
 1006MOL0     H32749   5.547   4.648   1.915 -0.3660 -0.0480  1.7034
 1006MOL0     H32750   5.348   4.686   1.784  2.8789 -0.5999 -0.3285
 1006MOL0     H32751   5.302   4.623   1.938 -0.0489  1.0366  0.9460
 1006MOL0     H32752   5.288   4.921   1.891  1.4868  0.6860  1.3760
 1006MOL0     H32753   5.213   4.848   2.023 -0.1374 -1.2188  0.5699
 1006MOL0     H32754   4.910   4.744   1.746  0.6761 -1.9215 -2.0925
 1006MOL0     H32755   4.727   4.596   1.810  0.9897  0.6160 -1.3830
 1006MOL0     H32756   4.700   4.142   2.296 -2.8255 -2.6256 -1.8448
 1006MOL0     H32757   4.504   4.079   2.430 -0.8407 -1.4371 -1.1223
 1006MOL0     H32758   4.132   4.254   2.303  1.0076 -1.2549  0.5966
 1006MOL0     H32759   4.171   4.386   2.420  1.1510  1.0321 -3.2610
 1006MOL0     H32760   4.088   4.225   2.603  2.2615  1.2020  0.4809
 1006MOL0     H32761   4.002   4.142   2.490  1.9053 -1.0316  1.3493
 1006MOL0     H32762   3.947   4.443   2.517 -1.1355  0.5944  1.2082
 1006MOL0     H32763   3.841   4.306   2.567 -3.5634  1.5812 -2.0827
 1006MOL0     H32764   3.944   4.373   2.284 -2.0846 -1.3081 -1.9141
 1006MOL0     H32765   3.832   4.247   2.325 -2.6334  0.0400  0.6469
 1006MOL0     H32766   3.677   4.414   2.429  0.9461 -2.3631  1.3719
 1006MOL0     H32767   3.698   4.438   2.259 -0.2672 -1.4829  0.4945
 1006MOL0     H32768   3.834   4.612   2.466 -2.0224  1.1718 -0.2899
 1006MOL0     H32769   3.683   4.638   2.393 -1.1682 -0.6733 -1.6498
 1006MOL0     H32770   3.921   4.611   2.198 -0.2623 -0.6094  0.7081
 1006MOL0     H32771   3.771   4.670   2.160 -0.2775  4.9780 -0.4645
 1006MOL0     H32772   3.995   4.798   2.333  0.8045  0.0012 -2.4626
 1006MOL0     H32773   3.821   4.840   2.350 -1.8636 -1.1455 -0.4646
 1006MOL0     H32774   4.310   4.422   2.257  2.1654  1.9227 -1.1412
 1006MOL0     H32775   4.512   4.499   2.161 -3.4358  2.6633  3.4503
 1006MOL0     H32776   4.961   4.468   2.153  3.9595  0.7643 -0.7745
 1006MOL0     H32777   5.125   4.666   2.090 -1.1862 -0.9379 -0.4322
 1006MOL0     H32778   6.940   4.759   1.722 -1.6052  0.0466 -3.9749
 1006MOL0     H32779   7.153   4.722   1.849  2.7902 -2.7225  1.6547
 1006MOL0     H32780   7.639   4.481   1.600  2.6531  1.3241 -0.7868
 1006MOL0     H32781   7.873   4.473   1.671  1.8255  2.7779  0.6854
 1006MOL0     H32782   7.978   4.485   2.104  1.6827  0.4961  0.6802
 1006MOL0     H32783   7.948   4.655   2.063 -0.9836  0.5239 -3.3263
 1006MOL0     H32784   8.183   4.673   1.972 -1.8572 -0.1675 -0.1820
 1006MOL0     H32785   8.182   4.623   2.147 -0.5691 -1.5739  2.0226
 1006MOL0     H32786   8.233   4.398   2.080  2.5950  0.0003  1.5801
 1006MOL0     H32787   8.355   4.497   2.015 -0.7648  0.2481  2.0416
 1006MOL0     H32788   8.134   4.384   1.832 -0.8397  1.1056  1.9367
 1006MOL0     H32789   8.258   4.496   1.778  1.0131  0.1822  1.0606
 1006MOL0     H32790   8.392   4.088   1.823  0.3338  0.0927 -2.4416
 1006MOL0     H32791   7.741   4.590   2.062 -0.5492  1.0127 -0.2816
 1006MOL0     H32792   7.510   4.578   1.992 -0.8405 -1.6747 -1.0840
 1007MOL0     O32793   5.838   9.381   0.845 -0.2380 -0.8216 -0.0115
 1007MOL0     C32794   5.732   9.397   0.795  0.5588  0.2438  0.2889
 1007MOL0     O32795   5.611   9.434   0.855  0.3681 -0.6142  0.8126
 1007MOL0     C32796   5.607   9.458   0.983 -0.4619 -0.1117 -0.7576
 1007MOL0     C32797   5.696   9.538   1.049 -0.1359 -0.3300 -0.2220
 1007MOL0     C32798   5.676   9.554   1.191 -0.2707  0.6647 -0.5038
 1007MOL0     C32799   5.551   9.512   1.246 -0.9052 -0.2954  0.2066
 1007MOL0     O32800   5.510   9.535   1.378  0.2100 -0.8007 -0.0897
 1007MOL0     C32801   5.520   9.672   1.426  0.1341  0.0817 -0.2720
 1007MOL0     C32802   5.539   9.669   1.579 -0.3135  0.1981 -0.3996
 1007MOL0     C32803   5.692   9.641   1.605 -0.6065 -0.3323 -0.7263
 1007MOL0     C32804   5.722   9.495   1.571  0.3586  1.4706 -0.5452
 1007MOL0     C32805   5.867   9.452   1.610 -0.2934 -0.0220 -0.3689
 1007MOL0     C32806   5.899   9.307   1.599  0.4288 -0.0066  0.0565
 1007MOL0     C32807   6.052   9.303   1.605  0.6504 -0.8584 -0.6878
 1007MOL0     C32808   6.103   9.316   1.464 -0.2374 -0.8721  1.0389
 1007MOL0     N32809   6.060   9.212   1.375 -0.3855  0.4934 -1.0675
 1007MOL0     C32810   5.955   9.225   1.283 -0.2057 -0.4522  0.8034
 1007MOL0     C32811   5.904   9.103   1.268  0.4486  0.0158  0.8250
 1007MOL0     C32812   5.781   9.078   1.178  0.1604  0.1013  0.4587
 1007MOL0     C32813   5.673   9.053   1.273  0.4898  0.4491  0.5537
 1007MOL0     C32814   5.537   9.030   1.215 -0.2350  0.4613 -0.0061
 1007MOL0     C32815   5.536   8.914   1.107 -0.6618  0.0913 -0.2777
 1007MOL0     O32816   5.586   8.975   0.988  0.4356  0.2191  0.2870
 1007MOL0     C32817   5.607   8.902   0.878  0.5353 -0.1007 -0.3627
 1007MOL0     C32818   5.680   8.967   0.781  0.2287 -0.7224  0.4432
 1007MOL0     C32819   5.704   8.913   0.652 -0.0292 -0.3115 -0.2157
 1007MOL0     C32820   5.643   8.787   0.626  1.1852  0.3542  0.0285
 1007MOL0     C32821   5.647   8.723   0.490 -0.5849 -0.7573 -0.4482
 1007MOL0     O32822   5.638   8.586   0.490 -0.0113 -0.9255 -0.4658
 1007MOL0     C32823   5.639   8.522   0.366  0.1033 -0.4787 -0.4375
 1007MOL0     C32824   5.530   8.535   0.275 -0.1669 -0.1533 -0.4766
 1007MOL0     C32825   5.530   8.457   0.159  0.4093 -0.5337  0.0860
 1007MOL0     C32826   5.646   8.383   0.117 -0.6360  0.8100 -0.5733
 1007MOL0     O32827   5.662   8.300   0.011  0.6361  0.6765 -0.1250
 1007MOL0     C32828   5.572   8.191   0.014  0.5639  1.0462  0.6258
 1007MOL0     C32829   5.640   8.062  -0.054 -0.2539  0.4809 -0.0794
 1007MOL0     C32830   5.532   7.951  -0.061  0.3559  0.7390  0.6260
 1007MOL0     C32831   5.434   7.974  -0.179  0.8640  0.4349 -0.2067
 1007MOL0     C32832   5.338   7.850  -0.201  0.3135 -0.0900  0.8656
 1007MOL0     C32833   5.283   7.819  -0.054 -0.0468  0.4999 -0.0895
 1007MOL0     C32834   5.140   7.758  -0.054 -0.0560 -0.3055  0.3763
 1007MOL0     C32835   5.098   7.703   0.082  0.5969  0.2230 -0.2645
 1007MOL0    Cl32836   4.951   7.602   0.066 -0.2982  0.1031  0.0904
 1007MOL0     C32837   5.745   8.367   0.219  0.3784 -0.1703  0.2871
 1007MOL0     C32838   5.745   8.441   0.337  0.7289  0.1186 -0.2171
 1007MOL0     O32839   5.675   8.794   0.396  1.4147  0.1277  0.4664
 1007MOL0     C32840   5.577   8.716   0.729  0.0706 -0.2444 -0.0521
 1007MOL0     C32841   5.556   8.772   0.857  0.0773  0.5442 -0.3447
 1007MOL0     N32842   5.981   9.020   1.346  0.1323  0.9022  0.5718
 1007MOL0     N32843   6.080   9.082   1.405 -0.0651  0.5386  0.0777
 1007MOL0     C32844   5.466   9.439   1.170  0.3096  0.3468  0.5208
 1007MOL0     C32845   5.490   9.417   1.036  0.9297 -0.1937 -0.5692
 1007MOL0     C32846   5.714   9.333   0.665  0.2347 -0.0523  0.2997
 1007MOL0     C32847   5.586   9.308   0.606  0.1928 -0.8236 -0.3136
 1007MOL0     C32848   5.574   9.251   0.478 -0.7053  0.0593 -0.1332
 1007MOL0     C32849   5.687   9.212   0.407 -0.4162  0.1633 -0.4464
 1007MOL0     O32850   5.668   9.153   0.290  0.8374 -0.4754 -0.0215
 1007MOL0     C32851   5.775   9.078   0.220  0.6731  0.0606 -0.6057
 1007MOL0     C32852   5.734   9.030   0.080  0.0905  0.6118  0.3829
 1007MOL0     C32853   5.847   8.946   0.026 -0.0570 -0.1022  0.1846
 1007MOL0     C32854   5.962   9.029  -0.034  0.4125 -0.5743  0.1816
 1007MOL0     C32855   6.050   9.104   0.057 -0.0050 -0.6885  0.3095
 1007MOL0     C32856   6.126   9.181   0.107  0.1008  0.2275  0.6927
 1007MOL0     C32857   5.813   9.235   0.458 -0.4087 -0.9033 -1.0235
 1007MOL0     C32858   5.827   9.291   0.585  0.0434  0.3902 -0.1576
 1007MOL0     H32859   5.779   9.575   0.989 -1.0505  0.6714 -0.9087
 1007MOL0     H32860   5.754   9.605   1.246  0.9757 -1.3848 -0.2827
 1007MOL0     H32861   5.423   9.723   1.419  0.0461 -0.1312 -0.6536
 1007MOL0     H32862   5.599   9.734   1.382 -2.8323  4.6251  0.0754
 1007MOL0     H32863   5.468   9.602   1.629  0.4960  1.2961  2.4177
 1007MOL0     H32864   5.516   9.771   1.612 -3.2341 -0.7268  0.7090
 1007MOL0     H32865   5.723   9.645   1.710  1.3037  0.2808 -1.2619
 1007MOL0     H32866   5.751   9.711   1.545 -0.3772  1.1672  1.1455
 1007MOL0     H32867   5.660   9.424   1.627  3.2217 -0.5762  0.2480
 1007MOL0     H32868   5.716   9.473   1.464 -0.0196 -1.1348 -0.0621
 1007MOL0     H32869   5.886   9.490   1.711 -1.8206 -1.8489  0.6817
 1007MOL0     H32870   5.923   9.521   1.547 -1.8663  1.8128  0.1222
 1007MOL0     H32871   5.857   9.256   1.512  0.2506 -0.3942  0.3675
 1007MOL0     H32872   5.855   9.259   1.687 -1.6287 -3.5770 -2.6895
 1007MOL0     H32873   6.097   9.378   1.670  0.2722 -0.7275 -0.5755
 1007MOL0     H32874   6.074   9.205   1.649 -1.3419 -1.2065 -0.3756
 1007MOL0     H32875   6.212   9.319   1.467 -0.0157  2.2508 -2.6723
 1007MOL0     H32876   6.079   9.408   1.410  3.2674  0.5608  1.7156
 1007MOL0     H32877   5.908   9.309   1.233  1.4693  0.0906  0.0527
 1007MOL0     H32878   5.795   8.990   1.115 -0.7109  0.5817 -0.4503
 1007MOL0     H32879   5.743   9.164   1.121 -2.6425 -0.3062  1.5116
 1007MOL0     H32880   5.639   9.132   1.340  0.1039  1.9361 -1.3216
 1007MOL0     H32881   5.693   8.965   1.336  0.3610  0.7675  1.0478
 1007MOL0     H32882   5.475   8.998   1.299 -0.6203  1.3524  0.0580
 1007MOL0     H32883   5.503   9.121   1.165  1.7932  0.7186 -1.0147
 1007MOL0     H32884   5.431   8.884   1.104 -0.9819  1.0856  0.3898
 1007MOL0     H32885   5.596   8.826   1.133 -2.4447 -2.0820 -2.9407
 1007MOL0     H32886   5.709   9.068   0.810  2.7600 -1.6628  1.4830
 1007MOL0     H32887   5.772   8.961   0.583  1.2093 -3.4729 -1.3376
 1007MOL0     H32888   5.449   8.602   0.305  1.2906  0.5204  2.2663
 1007MOL0     H32889   5.440   8.447   0.100  0.1838 -0.4918  0.4151
 1007MOL0     H32890   5.481   8.205  -0.044  1.8754  1.2312 -1.5036
 1007MOL0     H32891   5.536   8.164   0.114 -1.1829 -2.0535 -0.6890
 1007MOL0     H32892   5.725   8.034   0.009 -0.0711  1.0240 -0.0808
 1007MOL0     H32893   5.680   8.080  -0.154  1.9832 -0.8696  0.5035
 1007MOL0     H32894   5.483   7.950   0.037  0.4284  0.9337  0.6641
 1007MOL0     H32895   5.566   7.847  -0.054 -3.5337 -0.6398  1.9204
 1007MOL0     H32896   5.377   8.064  -0.155  0.7228  0.7181 -1.5246
 1007MOL0     H32897   5.496   7.988  -0.269  2.4388  1.0984  0.9321
 1007MOL0     H32898   5.398   7.765  -0.234 -1.9302 -1.1843 -0.6109
 1007MOL0     H32899   5.263   7.871  -0.278  0.2217 -2.1350  0.3337
 1007MOL0     H32900   5.273   7.907   0.010 -1.9620 -1.5593  2.7110
 1007MOL0     H32901   5.354   7.751  -0.006  0.7139  0.9985 -0.4974
 1007MOL0     H32902   5.063   7.834  -0.071 -0.5170 -0.0361  3.2692
 1007MOL0     H32903   5.134   7.684  -0.134 -1.8545  2.4568 -2.2701
 1007MOL0     H32904   5.080   7.786   0.151  1.1328 -2.1901  3.0895
 1007MOL0     H32905   5.168   7.635   0.132  0.0797 -1.1300 -1.3167
 1007MOL0     H32906   5.820   8.292   0.198  1.2522  0.6299  0.5116
 1007MOL0     H32907   5.813   8.440   0.421  3.1560  0.8008 -2.0413
 1007MOL0     H32908   5.555   8.611   0.712  1.1296 -0.3161 -1.1602
 1007MOL0     H32909   5.489   8.736   0.934  2.7631 -0.1036  1.8544
 1007MOL0     H32910   5.382   9.400   1.227  0.7607  1.2165  1.8290
 1007MOL0     H32911   5.426   9.357   0.972 -0.2728  0.5914 -0.1516
 1007MOL0     H32912   5.503   9.334   0.669  0.7009 -1.7352  0.7678
 1007MOL0     H32913   5.476   9.233   0.435 -1.1962  0.5109  0.7479
 1007MOL0     H32914   5.810   8.988   0.272  0.1966 -0.3313 -0.9599
 1007MOL0     H32915   5.863   9.141   0.236  2.1950 -2.8239  4.4006
 1007MOL0     H32916   5.658   8.953   0.098  1.7526 -1.3878 -0.6478
 1007MOL0     H32917   5.698   9.108   0.013 -0.6432  0.6602  0.8246
 1007MOL0     H32918   5.822   8.872  -0.051  0.7654 -0.4361  0.2202
 1007MOL0     H32919   5.889   8.888   0.109 -1.8278 -0.0677  1.1552
 1007MOL0     H32920   6.027   8.960  -0.088 -0.6758 -2.9165  1.7440
 1007MOL0     H32921   5.912   9.103  -0.097 -3.2040 -1.8625  1.3117
 1007MOL0     H32922   6.199   9.242   0.155  0.6665 -1.5649  2.2348
 1007MOL0     H32923   5.904   9.217   0.402  1.1254  1.8294  0.4061
 1007MOL0     H32924   5.925   9.309   0.630  0.2801 -0.1049 -0.4709
 1008MOL0     O32925   9.081   2.372   6.633 -0.5852 -0.2941 -0.4365
 1008MOL0     C32926   9.102   2.281   6.714 -0.2301 -0.1041  0.3915
 1008MOL0     O32927   9.015   2.213   6.802  0.1777 -0.1837  0.3165
 1008MOL0     C32928   8.897   2.272   6.840  0.2623  0.7038  0.2688
 1008MOL0     C32929   8.875   2.411   6.834 -0.3390  0.2265 -0.1743
 1008MOL0     C32930   8.770   2.463   6.905  0.1048 -0.1455  0.0009
 1008MOL0     C32931   8.673   2.381   6.963  0.5765 -0.6343 -0.3938
 1008MOL0     O32932   8.562   2.446   7.030 -0.1224 -0.2150 -0.7895
 1008MOL0     C32933   8.427   2.412   7.002 -0.4718 -0.3039 -1.0053
 1008MOL0     C32934   8.370   2.487   6.894  0.8936 -0.7637  0.2222
 1008MOL0     C32935   8.212   2.486   6.902 -0.5764  0.0182  0.4123
 1008MOL0     C32936   8.132   2.590   6.813  0.4983 -0.4598  0.3760
 1008MOL0     C32937   7.990   2.537   6.765 -0.2031  1.0798  0.2331
 1008MOL0     C32938   7.880   2.556   6.869  0.9974 -0.5569 -0.0114
 1008MOL0     C32939   7.771   2.458   6.830  0.6651  0.4755 -0.4552
 1008MOL0     C32940   7.660   2.458   6.937  0.2818  0.3015 -0.0394
 1008MOL0     N32941   7.546   2.377   6.891 -0.2341 -0.0683 -0.2553
 1008MOL0     C32942   7.423   2.424   6.861 -0.3663  0.2425 -0.6201
 1008MOL0     C32943   7.353   2.309   6.833 -0.5209  0.8374  0.1012
 1008MOL0     C32944   7.201   2.315   6.827  1.2369  0.0690 -0.1649
 1008MOL0     C32945   7.145   2.343   6.963  0.8011 -0.3456 -0.0831
 1008MOL0     C32946   6.995   2.350   6.967  0.4952 -1.1277 -0.2700
 1008MOL0     C32947   6.915   2.232   6.905  0.0959  0.4889 -0.1903
 1008MOL0     O32948   6.960   2.099   6.948 -0.1170  0.9318 -0.4057
 1008MOL0     C32949   6.865   2.015   7.002  0.4937 -0.4987  0.5016
 1008MOL0     C32950   6.841   2.015   7.139 -0.8753 -0.1043  0.0524
 1008MOL0     C32951   6.757   1.921   7.204 -0.1319 -0.1657  0.2059
 1008MOL0     C32952   6.701   1.816   7.132  0.4271 -0.6407  0.4086
 1008MOL0     C32953   6.615   1.698   7.196  0.0277 -0.5331  0.6210
 1008MOL0     O32954   6.541   1.626   7.101  0.2591 -0.0015 -0.5544
 1008MOL0     C32955   6.452   1.533   7.140 -0.8154 -0.1154 -0.4917
 1008MOL0     C32956   6.474   1.389   7.126  0.0127 -0.8178  0.1113
 1008MOL0     C32957   6.375   1.303   7.173 -0.6815 -0.0198 -0.3306
 1008MOL0     C32958   6.248   1.343   7.215  0.1739 -0.0838  0.3647
 1008MOL0     O32959   6.154   1.254   7.256  0.1455  0.4918 -0.9121
 1008MOL0     C32960   6.199   1.120   7.269  0.0892 -0.1011  0.0150
 1008MOL0     C32961   6.101   1.033   7.331 -0.6365 -0.8077 -0.5850
 1008MOL0     C32962   6.090   1.075   7.482  0.4734  0.7219 -0.8299
 1008MOL0     C32963   5.975   0.988   7.548  0.2831 -0.6194  0.4410
 1008MOL0     C32964   6.020   0.866   7.624  0.6359 -0.4358  0.2105
 1008MOL0     C32965   6.040   0.746   7.528 -0.8301  0.5285 -0.0403
 1008MOL0     C32966   6.038   0.611   7.605 -0.0909  0.2462  1.0191
 1008MOL0     C32967   6.030   0.494   7.499  0.6343 -0.3625 -0.5682
 1008MOL0    Cl32968   6.020   0.337   7.588 -0.0890 -0.4658 -0.1745
 1008MOL0     C32969   6.227   1.480   7.223 -0.0881  0.8443  0.8968
 1008MOL0     C32970   6.324   1.574   7.186 -0.2616  0.4528 -0.0115
 1008MOL0     O32971   6.632   1.666   7.312  0.3033  0.5351 -0.3100
 1008MOL0     C32972   6.730   1.816   6.993  0.6262 -0.4104  0.4320
 1008MOL0     C32973   6.804   1.915   6.915 -0.7228  0.4862 -0.4372
 1008MOL0     N32974   7.434   2.201   6.856 -0.1220  0.2565 -0.4174
 1008MOL0     N32975   7.551   2.240   6.886  0.0127 -0.3231  0.2476
 1008MOL0     C32976   8.683   2.243   6.956 -0.0986  0.7866  0.0537
 1008MOL0     C32977   8.800   2.189   6.897 -0.1134 -0.4632  0.4719
 1008MOL0     C32978   9.245   2.227   6.696 -0.6747  0.1015  1.4622
 1008MOL0     C32979   9.295   2.113   6.751  0.6322  0.3570  0.5651
 1008MOL0     C32980   9.426   2.065   6.738 -0.1678 -0.3751  0.2937
 1008MOL0     C32981   9.516   2.129   6.666 -0.6324 -1.0847  0.5321
 1008MOL0     O32982   9.642   2.071   6.660  0.7957 -0.6084  0.0685
 1008MOL0     C32983   9.729   2.110   6.554 -0.3247 -0.0133 -0.4787
 1008MOL0     C32984   9.841   2.006   6.540  0.3926 -1.0991 -0.4309
 1008MOL0     C32985   9.961   2.068   6.468 -0.3013  0.4140  0.3508
 1008MOL0     C32986   9.946   2.075   6.315  0.4051 -0.5650 -0.4944
 1008MOL0     C32987   9.967   1.943   6.262  0.6124  0.3812  0.6779
 1008MOL0     C32988   9.988   1.826   6.222  0.4068  0.3190 -0.0876
 1008MOL0     C32989   9.481   2.252   6.603 -0.3827 -0.2384  0.5357
 1008MOL0     C32990   9.348   2.299   6.619  0.7336  0.4854  0.4458
 1008MOL0     H32991   8.953   2.470   6.787  0.4336 -1.5717 -1.2178
 1008MOL0     H32992   8.773   2.570   6.918 -0.7563 -0.1065 -0.0691
 1008MOL0     H32993   8.377   2.418   7.099 -2.0519 -0.9165 -1.7407
 1008MOL0     H32994   8.416   2.308   6.969 -2.7203 -0.7057  0.7589
 1008MOL0     H32995   8.404   2.429   6.808  2.7241 -0.6506  0.8292
 1008MOL0     H32996   8.401   2.592   6.892 -0.1886 -0.2872 -4.8177
 1008MOL0     H32997   8.180   2.510   7.004  0.8935  0.2459  0.8451
 1008MOL0     H32998   8.188   2.381   6.888  0.9294 -0.3802  0.6724
 1008MOL0     H32999   8.116   2.688   6.859 -1.8980 -1.5132  1.9636
 1008MOL0     H33000   8.187   2.618   6.722  1.3678 -1.3358  0.6180
 1008MOL0     H33001   7.998   2.431   6.738 -2.7308  1.0903 -0.8367
 1008MOL0     H33002   7.967   2.582   6.668  1.5862  0.1369 -0.6740
 1008MOL0     H33003   7.838   2.657   6.866  0.5641 -0.7476 -2.4954
 1008MOL0     H33004   7.918   2.547   6.971 -1.3455  1.1246  1.0989
 1008MOL0     H33005   7.726   2.489   6.735  0.8075 -0.8908 -0.9825
 1008MOL0     H33006   7.810   2.357   6.816 -1.3944 -0.3834 -0.3194
 1008MOL0     H33007   7.634   2.562   6.959  3.7346  1.3416 -0.3711
 1008MOL0     H33008   7.697   2.425   7.035 -1.1622  1.3913  0.9046
 1008MOL0     H33009   7.384   2.525   6.858 -1.2842 -0.1125 -0.8058
 1008MOL0     H33010   7.154   2.226   6.784  1.9642 -0.1647 -0.4833
 1008MOL0     H33011   7.169   2.398   6.764 -1.2808 -1.7028 -1.4062
 1008MOL0     H33012   7.178   2.443   6.993  1.5333 -0.1182 -1.5639
 1008MOL0     H33013   7.181   2.276   7.041  1.4053 -0.3947 -0.3977
 1008MOL0     H33014   6.970   2.377   7.070  0.3348  2.7492 -1.1842
 1008MOL0     H33015   6.967   2.445   6.919  1.8001  0.1868  1.4441
 1008MOL0     H33016   6.927   2.232   6.796  1.0546 -1.0347 -0.1066
 1008MOL0     H33017   6.810   2.255   6.927  0.8346  1.3641  2.8488
 1008MOL0     H33018   6.886   2.085   7.208  0.5790 -0.0481 -0.9216
 1008MOL0     H33019   6.751   1.935   7.312 -1.6046 -1.1691  0.2854
 1008MOL0     H33020   6.568   1.357   7.082 -1.7756  0.0174 -4.9535
 1008MOL0     H33021   6.400   1.198   7.169  2.0163  0.3952  2.2116
 1008MOL0     H33022   6.291   1.120   7.329  0.4306 -0.2206 -0.4961
 1008MOL0     H33023   6.229   1.086   7.170  2.2962  1.5314  0.0384
 1008MOL0     H33024   6.119   0.926   7.314 -2.5714 -1.5435  1.4759
 1008MOL0     H33025   6.004   1.060   7.289 -1.4426 -3.4402 -0.5798
 1008MOL0     H33026   6.072   1.182   7.491  0.2806  0.7562 -1.6229
 1008MOL0     H33027   6.185   1.051   7.531 -0.5921  1.6667  1.8918
 1008MOL0     H33028   5.932   1.048   7.629 -0.1023  0.5036 -0.5683
 1008MOL0     H33029   5.890   0.980   7.479 -0.1264  2.3600  0.4539
 1008MOL0     H33030   5.941   0.832   7.692  1.1355  0.1810  1.1198
 1008MOL0     H33031   6.112   0.876   7.682  0.4757  0.8900  0.2529
 1008MOL0     H33032   6.134   0.745   7.472 -1.4700 -2.3578 -1.2124
 1008MOL0     H33033   5.954   0.746   7.461 -0.3964 -0.8641 -0.6295
 1008MOL0     H33034   6.133   0.610   7.659 -0.0642 -0.2079  0.9639
 1008MOL0     H33035   5.954   0.600   7.674 -1.3980 -2.2052 -0.8182
 1008MOL0     H33036   6.124   0.491   7.444  1.6239 -2.4909  1.1187
 1008MOL0     H33037   5.946   0.507   7.430  1.5812  1.1261 -1.4991
 1008MOL0     H33038   6.137   1.526   7.264 -0.5780  0.1732  0.6021
 1008MOL0     H33039   6.288   1.676   7.200 -3.5135 -0.3591 -1.5337
 1008MOL0     H33040   6.679   1.753   6.921 -2.6694  3.3699 -0.9298
 1008MOL0     H33041   6.816   1.927   6.808 -0.8512 -1.1503 -0.6577
 1008MOL0     H33042   8.618   2.170   7.004  2.2509 -0.4752  1.4655
 1008MOL0     H33043   8.812   2.082   6.896  3.2930 -0.2106  0.0665
 1008MOL0     H33044   9.222   2.057   6.809 -3.5596 -0.4857 -4.7161
 1008MOL0     H33045   9.461   1.983   6.800  1.6082  0.9573  1.1739
 1008MOL0     H33046   9.763   2.211   6.580 -0.8819  0.1858 -0.5256
 1008MOL0     H33047   9.674   2.121   6.460  1.7662  6.0158 -1.4319
 1008MOL0     H33048   9.875   1.971   6.638  0.6861  0.0069 -0.1259
 1008MOL0     H33049   9.807   1.912   6.496  1.1889 -1.2618 -0.7199
 1008MOL0     H33050  10.045   2.003   6.494 -0.9909 -1.6995 -2.2591
 1008MOL0     H33051   9.971   2.173   6.497  2.4622  1.1456 -2.6478
 1008MOL0     H33052   9.852   2.120   6.280  1.6933 -0.4058 -4.2544
 1008MOL0     H33053  10.022   2.150   6.291  1.0097 -1.3912 -1.2398
 1008MOL0     H33054   9.993   1.731   6.172  3.3150  0.0541  0.5165
 1008MOL0     H33055   9.549   2.306   6.537 -1.5100 -0.6686 -1.0215
 1008MOL0     H33056   9.324   2.395   6.573 -1.8120  0.3101  1.2305
 1009MOL0     O33057   5.245  10.523   2.355  0.4397 -0.2178  0.5547
 1009MOL0     C33058   5.303  10.425   2.308  0.8513 -0.2526  0.1726
 1009MOL0     O33059   5.239  10.319   2.249  0.6812 -0.1988 -0.2137
 1009MOL0     C33060   5.103  10.319   2.250 -0.0443 -0.0414 -0.7437
 1009MOL0     C33061   5.037  10.424   2.187 -0.2694  0.3627  0.0672
 1009MOL0     C33062   4.902  10.441   2.198 -0.3065  0.5968 -0.6700
 1009MOL0     C33063   4.821  10.346   2.270  0.5372 -0.5603  0.0897
 1009MOL0     O33064   4.692  10.374   2.285 -0.2335  0.2889 -0.0921
 1009MOL0     C33065   4.608  10.251   2.283 -0.3775 -0.4785  0.1219
 1009MOL0     C33066   4.467  10.295   2.266 -0.1966  0.3834 -0.5917
 1009MOL0     C33067   4.413  10.364   2.390  0.8768 -0.7965 -0.4431
 1009MOL0     C33068   4.435  10.527   2.381  0.0501 -0.7278 -0.5121
 1009MOL0     C33069   4.416  10.602   2.518 -0.2582  0.8388  0.8312
 1009MOL0     C33070   4.558  10.639   2.578  0.1505  0.0311  0.6824
 1009MOL0     C33071   4.648  10.523   2.613 -0.4512 -0.5278  0.2837
 1009MOL0     C33072   4.798  10.536   2.568  1.2424 -0.5237 -0.8051
 1009MOL0     N33073   4.877  10.431   2.635  0.3876 -0.0330  0.4054
 1009MOL0     C33074   5.010  10.412   2.603  0.7526  0.3895  0.0258
 1009MOL0     C33075   5.061  10.331   2.701  0.6813 -0.4421  0.7045
 1009MOL0     C33076   5.197  10.294   2.713 -1.1821  0.6022  0.1790
 1009MOL0     C33077   5.271  10.203   2.612 -1.4018 -0.1624 -0.1666
 1009MOL0     C33078   5.413  10.166   2.662  0.1112  0.0759 -0.8620
 1009MOL0     C33079   5.486  10.099   2.554  0.3615  1.2277  1.6385
 1009MOL0     O33080   5.597  10.014   2.598 -0.4108  1.1213  0.1350
 1009MOL0     C33081   5.727  10.055   2.634  0.7436  1.3947 -0.1722
 1009MOL0     C33082   5.828   9.955   2.650  0.4138 -0.3376 -0.4513
 1009MOL0     C33083   5.951  10.005   2.703 -0.4354  0.2918  0.7059
 1009MOL0     C33084   5.981  10.133   2.726  0.9909  0.4639  0.8038
 1009MOL0     C33085   6.115  10.175   2.764  0.7917 -0.6799  0.1286
 1009MOL0     O33086   6.215  10.102   2.713 -0.2311 -0.0956 -0.1801
 1009MOL0     C33087   6.341  10.147   2.741  0.8647 -0.0977 -0.8386
 1009MOL0     C33088   6.387  10.269   2.691 -0.5498  0.0107  0.1460
 1009MOL0     C33089   6.513  10.317   2.731  0.1750  0.4785  0.8305
 1009MOL0     C33090   6.598  10.255   2.818  0.1128 -0.4615 -0.0472
 1009MOL0     O33091   6.724  10.294   2.845  0.4975  0.7916 -0.0527
 1009MOL0     C33092   6.781  10.384   2.763  0.5788 -0.2771  0.6635
 1009MOL0     C33093   6.930  10.350   2.780  0.3048  0.1179 -0.4623
 1009MOL0     C33094   6.987  10.384   2.921 -0.1844 -0.1004  0.2218
 1009MOL0     C33095   6.986  10.283   3.040 -0.1193 -0.4794 -0.1578
 1009MOL0     C33096   7.015  10.136   2.992  0.5749  0.2840  0.6515
 1009MOL0     C33097   7.018  10.055   3.123  0.5699  0.3151  0.6462
 1009MOL0     C33098   7.098   9.930   3.105 -0.4929  0.6437  0.4009
 1009MOL0     C33099   7.134   9.849   3.233  0.3634  0.2061 -0.1313
 1009MOL0    Cl33100   7.184   9.686   3.194  0.0555 -0.2076 -0.5789
 1009MOL0     C33101   6.556  10.135   2.872 -0.5335  0.3245 -0.4244
 1009MOL0     C33102   6.434  10.078   2.828 -0.6021 -0.2399 -0.1516
 1009MOL0     O33103   6.130  10.280   2.834 -0.1636  0.1467  0.8691
 1009MOL0     C33104   5.875  10.223   2.716 -0.4277 -0.1210  0.0977
 1009MOL0     C33105   5.756  10.192   2.665  0.4432  0.1094 -0.4706
 1009MOL0     N33106   4.961  10.308   2.791  0.3001 -0.4203 -0.8405
 1009MOL0     N33107   4.857  10.374   2.754  0.8120  0.1803 -0.1129
 1009MOL0     C33108   4.890  10.230   2.326  0.2254 -0.3381  0.1948
 1009MOL0     C33109   5.031  10.223   2.319  0.2382 -0.4290 -1.0860
 1009MOL0     C33110   5.452  10.416   2.322  1.0994  0.2554 -0.1634
 1009MOL0     C33111   5.516  10.497   2.422  0.1059 -0.0361 -0.3769
 1009MOL0     C33112   5.656  10.479   2.439  0.4577  0.1666  0.3390
 1009MOL0     C33113   5.731  10.393   2.362  0.4586  0.4383 -0.3309
 1009MOL0     O33114   5.866  10.390   2.383  0.2314 -0.1684 -0.4933
 1009MOL0     C33115   5.949  10.284   2.324  1.2900 -1.0365 -0.1107
 1009MOL0     C33116   6.098  10.290   2.355  0.7506 -0.9084 -0.2201
 1009MOL0     C33117   6.164  10.363   2.235  0.8237  0.6807 -0.3378
 1009MOL0     C33118   6.316  10.374   2.264 -0.1469 -0.4243 -0.9462
 1009MOL0     C33119   6.360  10.483   2.346 -0.9421 -0.7320 -0.6287
 1009MOL0     C33120   6.404  10.584   2.406 -0.4418  0.4146 -0.0987
 1009MOL0     C33121   5.668  10.310   2.271 -0.0460  0.4102  1.0194
 1009MOL0     C33122   5.527  10.323   2.255 -0.3113 -0.2594  0.1301
 1009MOL0     H33123   5.090  10.498   2.128 -1.7588  1.6612  0.2969
 1009MOL0     H33124   4.859  10.531   2.156  1.3951  1.4818 -0.5984
 1009MOL0     H33125   4.618  10.188   2.372 -0.6469 -0.2491  0.3203
 1009MOL0     H33126   4.633  10.189   2.197 -2.0170  1.9236 -2.2439
 1009MOL0     H33127   4.414  10.202   2.243  1.1508 -0.6177  0.2214
 1009MOL0     H33128   4.471  10.361   2.179 -2.1220  1.5365  0.1442
 1009MOL0     H33129   4.455  10.328   2.484 -0.1588  1.0610  0.7796
 1009MOL0     H33130   4.305  10.355   2.402  1.0821 -0.7466  1.7550
 1009MOL0     H33131   4.528  10.557   2.333  0.8471 -1.6948  0.3649
 1009MOL0     H33132   4.355  10.560   2.315  0.6314  0.8384 -0.4651
 1009MOL0     H33133   4.353  10.541   2.583  0.1178  0.2023  0.6050
 1009MOL0     H33134   4.358  10.692   2.496 -1.4502  0.1805  1.1744
 1009MOL0     H33135   4.532  10.696   2.668 -2.1147 -0.9233  0.6994
 1009MOL0     H33136   4.611  10.702   2.505  0.4465 -3.0069 -1.9225
 1009MOL0     H33137   4.637  10.500   2.719 -3.4306  1.8483  0.6503
 1009MOL0     H33138   4.611  10.432   2.564  0.8395 -1.0511  0.2498
 1009MOL0     H33139   4.821  10.639   2.597  0.5121 -0.6193  0.1677
 1009MOL0     H33140   4.804  10.532   2.459  1.1274 -0.2865 -0.8212
 1009MOL0     H33141   5.053  10.446   2.510  1.6893 -2.7090 -0.8024
 1009MOL0     H33142   5.216  10.251   2.812  0.5389  1.6210  0.3315
 1009MOL0     H33143   5.245  10.391   2.720  1.3542 -0.5683  7.1862
 1009MOL0     H33144   5.292  10.253   2.517  0.4197  0.2507  0.4131
 1009MOL0     H33145   5.216  10.109   2.598 -1.2928 -0.4679  1.3077
 1009MOL0     H33146   5.462  10.259   2.690 -2.7365  1.0656  1.3881
 1009MOL0     H33147   5.402  10.102   2.751  0.0192 -0.6599 -1.3972
 1009MOL0     H33148   5.500  10.179   2.481 -2.2034 -0.0748 -0.4521
 1009MOL0     H33149   5.419  10.032   2.499 -0.4093  2.1852  1.3691
 1009MOL0     H33150   5.813   9.848   2.639 -0.8609 -0.1976 -0.2274
 1009MOL0     H33151   6.024   9.925   2.710 -1.6244 -0.9025 -0.0167
 1009MOL0     H33152   6.317  10.322   2.626 -0.3089  0.1535  0.0011
 1009MOL0     H33153   6.543  10.413   2.691 -1.9385  1.5333  1.6173
 1009MOL0     H33154   6.766  10.486   2.796  2.2070 -0.6203  2.6298
 1009MOL0     H33155   6.744  10.365   2.661 -0.5112 -0.1249  1.0226
 1009MOL0     H33156   6.994  10.399   2.706  0.7063 -1.2999 -1.0804
 1009MOL0     H33157   6.937  10.243   2.759 -2.5778  0.0541 -1.5388
 1009MOL0     H33158   6.963  10.483   2.961  1.4997  1.5360 -2.5147
 1009MOL0     H33159   7.094  10.394   2.900  0.1296 -0.5077  1.5006
 1009MOL0     H33160   7.061  10.314   3.113 -0.5562 -1.9003  0.9419
 1009MOL0     H33161   6.889  10.269   3.088  0.1456 -2.4129 -0.1057
 1009MOL0     H33162   7.104  10.133   2.928  0.7159 -2.7135  0.8411
 1009MOL0     H33163   6.941  10.097   2.921  1.3981 -1.9517  0.9403
 1009MOL0     H33164   6.921  10.038   3.170  1.6153  1.5347  3.4624
 1009MOL0     H33165   7.068  10.109   3.204  0.0702 -0.2030  1.3128
 1009MOL0     H33166   7.032   9.866   3.046  0.2778  1.5779 -1.5765
 1009MOL0     H33167   7.187   9.950   3.045 -1.8409 -0.1961 -2.0008
 1009MOL0     H33168   7.050   9.847   3.302 -1.1064 -0.0856 -1.8600
 1009MOL0     H33169   7.225   9.892   3.277 -0.1960 -0.3889  1.6804
 1009MOL0     H33170   6.613  10.084   2.950 -1.1631  0.5684  0.2104
 1009MOL0     H33171   6.404   9.979   2.860 -0.3685  0.1706  1.4278
 1009MOL0     H33172   5.891  10.323   2.757  0.9274 -0.6718  0.9824
 1009MOL0     H33173   5.676  10.265   2.668 -0.6963 -1.1155  1.6386
 1009MOL0     H33174   4.833  10.157   2.382 -2.3461  0.9624 -0.5587
 1009MOL0     H33175   5.084  10.141   2.366  0.5180  1.0331  1.3332
 1009MOL0     H33176   5.456  10.538   2.502  3.1382  0.1562  1.9938
 1009MOL0     H33177   5.709  10.528   2.520  1.3835 -1.4422  0.7550
 1009MOL0     H33178   5.934  10.267   2.217  2.2441 -1.3385 -0.2124
 1009MOL0     H33179   5.903  10.194   2.367  1.0337  0.3296  2.6542
 1009MOL0     H33180   6.098  10.339   2.453 -0.6227 -0.2154 -0.5359
 1009MOL0     H33181   6.138  10.189   2.368  2.3460 -0.1265  1.3931
 1009MOL0     H33182   6.129  10.467   2.226  4.2793  2.0463  0.3444
 1009MOL0     H33183   6.156  10.309   2.141 -3.9027  0.6654 -0.1789
 1009MOL0     H33184   6.344  10.284   2.320 -1.2793  0.6402  1.5314
 1009MOL0     H33185   6.378  10.381   2.175 -0.9017 -1.1396 -1.5457
 1009MOL0     H33186   6.445  10.666   2.462  2.3403  0.3962 -1.9185
 1009MOL0     H33187   5.721  10.229   2.222 -0.2122  0.1517  1.2670
 1009MOL0     H33188   5.473  10.264   2.182  0.1341  0.1045 -0.5147
 1010MOL0     O33189   4.890   2.095   2.891 -0.5803 -0.8616 -0.5049
 1010MOL0     C33190   4.943   1.988   2.878 -0.8871 -0.1170 -0.3872
 1010MOL0     O33191   4.897   1.863   2.937  0.3194  0.5537  1.1623
 1010MOL0     C33192   4.780   1.857   3.005  0.0954  0.5326 -0.2576
 1010MOL0     C33193   4.672   1.778   2.969  0.5646 -0.3817 -0.5313
 1010MOL0     C33194   4.556   1.763   3.053 -0.7653 -0.2668  0.6775
 1010MOL0     C33195   4.559   1.819   3.182 -0.6052  1.2121 -0.8169
 1010MOL0     O33196   4.468   1.799   3.284 -0.4326  0.4641  0.0138
 1010MOL0     C33197   4.336   1.748   3.252  0.7520 -0.8609 -1.3531
 1010MOL0     C33198   4.316   1.614   3.320 -0.2784 -0.3273 -0.1569
 1010MOL0     C33199   4.171   1.576   3.318 -0.9619 -0.5472 -0.3135
 1010MOL0     C33200   4.140   1.428   3.320  0.0589  1.5507  0.0190
 1010MOL0     C33201   3.994   1.396   3.290  0.0550  0.6839  0.4850
 1010MOL0     C33202   3.899   1.463   3.384 -0.9291  0.0219 -0.9968
 1010MOL0     C33203   3.761   1.440   3.337  0.4896  0.0643 -0.6852
 1010MOL0     C33204   3.698   1.295   3.349  0.6112 -0.4707 -1.1094
 1010MOL0     N33205   3.577   1.285   3.436  0.3820  0.3297  0.4039
 1010MOL0     C33206   3.446   1.331   3.412  0.1755  0.5003  0.6117
 1010MOL0     C33207   3.382   1.296   3.527  0.5157 -1.1339 -0.6900
 1010MOL0     C33208   3.231   1.320   3.550  0.1124 -0.9780 -0.1783
 1010MOL0     C33209   3.131   1.211   3.496  0.6990 -0.5585 -0.1750
 1010MOL0     C33210   3.156   1.180   3.344 -0.3860  0.7956  0.1019
 1010MOL0     C33211   3.129   1.299   3.261 -0.1499 -0.8683  0.0737
 1010MOL0     O33212   3.001   1.353   3.267  0.0654  0.1042 -0.8169
 1010MOL0     C33213   2.987   1.474   3.189  0.1716  0.1498  0.4197
 1010MOL0     C33214   2.868   1.547   3.225  0.0834 -0.5323  0.9116
 1010MOL0     C33215   2.849   1.677   3.165  0.2977 -0.2799 -0.0479
 1010MOL0     C33216   2.933   1.729   3.062 -0.1776 -0.3352  0.6344
 1010MOL0     C33217   2.901   1.840   2.973  0.2622  0.5871  0.2314
 1010MOL0     O33218   2.766   1.865   2.962  0.6943  0.4807  0.3869
 1010MOL0     C33219   2.718   1.969   2.886  0.9198  0.0165 -0.4212
 1010MOL0     C33220   2.758   2.103   2.914 -0.5657 -0.2114 -0.0880
 1010MOL0     C33221   2.700   2.215   2.848  0.2052 -0.0373 -0.8752
 1010MOL0     C33222   2.590   2.195   2.765 -0.3048  0.6782 -0.0747
 1010MOL0     O33223   2.527   2.305   2.709  0.0028 -0.0143  0.8072
 1010MOL0     C33224   2.420   2.360   2.785  0.1088 -0.0405 -0.5806
 1010MOL0     C33225   2.275   2.318   2.745  0.6822 -0.1759  0.3680
 1010MOL0     C33226   2.162   2.383   2.833 -0.2156 -0.1460  0.5425
 1010MOL0     C33227   2.034   2.298   2.830 -0.1297  0.1879  0.3975
 1010MOL0     C33228   1.924   2.367   2.911 -0.5720 -0.1733 -0.2982
 1010MOL0     C33229   1.791   2.284   2.906 -0.1498 -0.9072  0.0543
 1010MOL0     C33230   1.673   2.348   2.991  0.1211  0.0208 -0.2047
 1010MOL0     C33231   1.678   2.332   3.148 -0.3643 -0.0558 -0.0935
 1010MOL0    Cl33232   1.644   2.158   3.187 -0.2880  0.4397 -0.0308
 1010MOL0     C33233   2.543   2.060   2.743  0.3045 -0.5039  0.4605
 1010MOL0     C33234   2.606   1.946   2.800  0.2449 -0.4565 -0.3810
 1010MOL0     O33235   2.992   1.897   2.910 -1.2699  0.6032 -0.8091
 1010MOL0     C33236   3.047   1.655   3.041  0.0187  0.0578  0.1339
 1010MOL0     C33237   3.077   1.539   3.107  0.1860 -0.7760 -0.0851
 1010MOL0     N33238   3.462   1.234   3.611  0.2307  0.0168 -0.4068
 1010MOL0     N33239   3.578   1.231   3.559 -0.3059  0.1369 -0.8853
 1010MOL0     C33240   4.672   1.901   3.213 -0.2119 -0.1148  0.1671
 1010MOL0     C33241   4.778   1.919   3.128  0.0059 -0.5984 -0.3777
 1010MOL0     C33242   5.063   1.973   2.794  0.4907 -0.2509  0.8300
 1010MOL0     C33243   5.140   1.854   2.780  0.2944 -0.2461 -0.1096
 1010MOL0     C33244   5.251   1.845   2.696  0.1873 -0.3768 -0.3096
 1010MOL0     C33245   5.284   1.958   2.615  0.1377 -0.6510 -0.1524
 1010MOL0     O33246   5.387   1.957   2.522  0.9259  0.6201 -0.2798
 1010MOL0     C33247   5.495   2.046   2.553  0.0750 -0.3905 -0.0094
 1010MOL0     C33248   5.610   2.009   2.463  0.0496 -0.5458  0.1950
 1010MOL0     C33249   5.681   1.885   2.517 -0.2769 -0.1179 -0.2712
 1010MOL0     C33250   5.785   1.836   2.415  0.6021  0.5516 -0.3586
 1010MOL0     C33251   5.895   1.936   2.392  0.8812 -0.0967 -0.3575
 1010MOL0     C33252   5.991   2.020   2.386  0.4860  1.5373  0.4873
 1010MOL0     C33253   5.202   2.073   2.630  0.0857 -1.5343  0.1707
 1010MOL0     C33254   5.094   2.079   2.715 -0.3282 -0.4214 -0.1343
 1010MOL0     H33255   4.671   1.726   2.874 -0.8857  1.6990 -1.7476
 1010MOL0     H33256   4.481   1.691   3.022 -1.6763 -0.8130  3.8499
 1010MOL0     H33257   4.320   1.731   3.145 -0.4877 -0.0997 -1.3108
 1010MOL0     H33258   4.258   1.812   3.294  0.0072 -2.1718 -0.6857
 1010MOL0     H33259   4.361   1.604   3.420 -0.0086  0.9506 -0.1360
 1010MOL0     H33260   4.368   1.538   3.260 -0.9549 -1.0975  0.2050
 1010MOL0     H33261   4.130   1.614   3.224  0.9282  2.3309 -0.0747
 1010MOL0     H33262   4.119   1.635   3.394  1.2711  0.8948  0.1724
 1010MOL0     H33263   4.215   1.369   3.267 -2.1466 -1.0068 -0.5243
 1010MOL0     H33264   4.155   1.386   3.420 -0.2302  0.1979 -0.4722
 1010MOL0     H33265   3.982   1.289   3.276  0.0008  1.1203 -4.1959
 1010MOL0     H33266   3.965   1.426   3.189 -1.3808  0.5649  0.8432
 1010MOL0     H33267   3.918   1.571   3.386 -0.7693 -0.0141 -0.0915
 1010MOL0     H33268   3.916   1.412   3.479 -2.8826  0.4927 -0.3355
 1010MOL0     H33269   3.689   1.511   3.381 -0.7071 -1.0421 -0.8076
 1010MOL0     H33270   3.760   1.461   3.229  0.9007  0.4168 -0.6221
 1010MOL0     H33271   3.770   1.219   3.379  0.3142 -0.0947  0.6785
 1010MOL0     H33272   3.663   1.265   3.250  1.3881 -0.6821 -1.3230
 1010MOL0     H33273   3.410   1.382   3.323  0.0172 -1.8072 -0.7276
 1010MOL0     H33274   3.204   1.417   3.507 -0.6499 -1.5425 -1.0211
 1010MOL0     H33275   3.227   1.324   3.659  1.5661 -0.2455 -0.1247
 1010MOL0     H33276   3.029   1.249   3.509  0.0248 -1.4388 -2.4564
 1010MOL0     H33277   3.138   1.122   3.559  2.1190  1.2284  2.3613
 1010MOL0     H33278   3.253   1.137   3.318 -0.9435  1.4239 -3.6836
 1010MOL0     H33279   3.078   1.110   3.310 -0.1822  1.0125 -0.8627
 1010MOL0     H33280   3.139   1.278   3.154  1.4328  0.7881 -0.1597
 1010MOL0     H33281   3.198   1.381   3.281 -1.0532  0.6850 -2.6347
 1010MOL0     H33282   2.794   1.509   3.295 -2.0311 -0.1478 -1.0219
 1010MOL0     H33283   2.759   1.729   3.198  1.4227 -0.6716  4.2660
 1010MOL0     H33284   2.830   2.122   2.993 -0.9294  2.6434 -0.3436
 1010MOL0     H33285   2.734   2.317   2.865  0.9741 -0.5925  1.2462
 1010MOL0     H33286   2.421   2.467   2.762  3.4718  0.1742  0.0745
 1010MOL0     H33287   2.448   2.338   2.889  2.1583 -1.9387 -1.4656
 1010MOL0     H33288   2.264   2.209   2.743  0.7583 -0.3065  2.9574
 1010MOL0     H33289   2.263   2.359   2.645  4.3024 -0.3661 -0.2975
 1010MOL0     H33290   2.146   2.483   2.791 -1.6443 -0.6303 -0.0938
 1010MOL0     H33291   2.205   2.395   2.933 -0.0119  0.4141  0.3923
 1010MOL0     H33292   2.008   2.291   2.724 -0.4026  1.0243  0.4005
 1010MOL0     H33293   2.056   2.193   2.849  2.3814  0.5512 -0.2240
 1010MOL0     H33294   1.913   2.465   2.864  2.0034  0.1521 -0.3494
 1010MOL0     H33295   1.951   2.384   3.015  1.3238  1.3686 -0.9735
 1010MOL0     H33296   1.815   2.184   2.945 -3.7027 -1.4354  1.2359
 1010MOL0     H33297   1.758   2.269   2.803 -3.3074  1.1885  0.6294
 1010MOL0     H33298   1.670   2.456   2.973  1.4509  0.0443 -0.3589
 1010MOL0     H33299   1.580   2.305   2.955 -0.6649  0.9046  0.6938
 1010MOL0     H33300   1.614   2.403   3.202  0.5243  0.7041 -0.0222
 1010MOL0     H33301   1.778   2.353   3.187 -0.3709  1.5403 -0.8271
 1010MOL0     H33302   2.454   2.040   2.684  0.4888  0.1455 -0.0368
 1010MOL0     H33303   2.564   1.846   2.792 -0.0429 -0.3913  0.2430
 1010MOL0     H33304   3.115   1.687   2.963 -1.7306  4.4916  0.1277
 1010MOL0     H33305   3.176   1.499   3.084 -0.2208 -1.4025 -0.7739
 1010MOL0     H33306   4.675   1.937   3.316 -0.0768 -0.0857  0.1518
 1010MOL0     H33307   4.863   1.973   3.169  1.3251 -1.2563 -2.1283
 1010MOL0     H33308   5.109   1.767   2.838  0.6012 -0.1343  0.2262
 1010MOL0     H33309   5.320   1.762   2.679  2.6215  1.6860 -1.2290
 1010MOL0     H33310   5.534   2.045   2.656 -0.5020  0.6797  0.2329
 1010MOL0     H33311   5.468   2.150   2.533  2.4028  0.6835  1.9241
 1010MOL0     H33312   5.572   1.986   2.363 -1.6163 -1.9752  1.1068
 1010MOL0     H33313   5.682   2.091   2.466 -0.7479  0.1927 -0.5013
 1010MOL0     H33314   5.610   1.805   2.538  2.6264 -3.1614 -1.1498
 1010MOL0     H33315   5.732   1.915   2.609 -0.9808 -0.7296  0.3343
 1010MOL0     H33316   5.812   1.732   2.431  0.6712  0.1524 -2.6725
 1010MOL0     H33317   5.739   1.830   2.316 -1.0818  1.4457  0.3163
 1010MOL0     H33318   6.074   2.087   2.379  0.4933  1.4664 -0.1983
 1010MOL0     H33319   5.222   2.158   2.567 -3.0948 -2.1684 -1.9624
 1010MOL0     H33320   5.035   2.169   2.712  0.4506  0.0878 -2.5698
 1011MOL0     O33321   7.789   1.347   1.321  0.6771  0.2244  0.6365
 1011MOL0     C33322   7.822   1.254   1.397  0.3368  0.1477 -0.9742
 1011MOL0     O33323   7.805   1.119   1.374 -0.2292  0.0525 -0.1031
 1011MOL0     C33324   7.714   1.070   1.284  1.2213  0.8175  0.1108
 1011MOL0     C33325   7.603   1.139   1.221  1.0650  1.1857 -0.6116
 1011MOL0     C33326   7.514   1.083   1.132 -0.2197 -1.0516 -0.1143
 1011MOL0     C33327   7.527   0.948   1.096  0.1955 -0.9075 -0.3338
 1011MOL0     O33328   7.446   0.896   0.997  0.3194 -0.6567  0.1064
 1011MOL0     C33329   7.423   0.754   0.981  0.3360  0.2132  0.4847
 1011MOL0     C33330   7.401   0.723   0.833 -0.3681  0.4579 -0.9715
 1011MOL0     C33331   7.285   0.801   0.774 -0.4443  0.3826  0.0531
 1011MOL0     C33332   7.276   0.756   0.631 -0.7170 -0.4635  0.1565
 1011MOL0     C33333   7.182   0.839   0.548 -0.6468 -0.0553 -0.1768
 1011MOL0     C33334   7.254   0.973   0.498  0.2641  0.5844  0.0247
 1011MOL0     C33335   7.182   1.053   0.394  0.7644  0.5755  1.2083
 1011MOL0     C33336   7.024   1.067   0.407 -0.5441  0.3538 -0.2798
 1011MOL0     N33337   6.959   1.160   0.316  0.5467 -0.7733  0.2540
 1011MOL0     C33338   6.889   1.128   0.195  0.3545 -0.2679 -0.2299
 1011MOL0     C33339   6.811   1.231   0.168  0.0856 -0.1663  0.2974
 1011MOL0     C33340   6.703   1.257   0.069 -0.2638 -0.7268  0.1145
 1011MOL0     C33341   6.647   1.141   0.007 -0.5063 -0.1347  0.0765
 1011MOL0     C33342   6.572   1.171  -0.119  1.4531 -0.0657 -1.0157
 1011MOL0     C33343   6.422   1.220  -0.104 -0.5042  1.1461 -0.0436
 1011MOL0     O33344   6.349   1.107  -0.054 -0.4524  0.7588  0.1377
 1011MOL0     C33345   6.215   1.110  -0.032  0.2878  0.1293  0.2631
 1011MOL0     C33346   6.137   1.228  -0.050  0.2608 -0.5589  0.2340
 1011MOL0     C33347   5.998   1.234  -0.039 -0.2247 -0.2894  0.4058
 1011MOL0     C33348   5.922   1.111  -0.002  0.1281  0.7876 -0.1002
 1011MOL0     C33349   5.770   1.105   0.005 -0.7858 -0.4633 -0.5277
 1011MOL0     O33350   5.707   0.999   0.067  0.1648 -0.3525  0.4884
 1011MOL0     C33351   5.571   0.990   0.059  0.8018 -0.5752  0.9595
 1011MOL0     C33352   5.503   0.965  -0.056  0.2541  0.5201  0.2444
 1011MOL0     C33353   5.370   0.934  -0.070  0.0464 -0.4842 -0.5760
 1011MOL0     C33354   5.288   0.939   0.052 -0.2772 -0.1200  0.1782
 1011MOL0     O33355   5.152   0.942   0.042 -0.5948 -0.2056  1.0494
 1011MOL0     C33356   5.099   0.916  -0.087  0.0368 -0.1617  0.2252
 1011MOL0     C33357   4.944   0.904  -0.079  0.5118  0.3533 -0.1876
 1011MOL0     C33358   4.863   1.011  -0.017 -0.4632 -0.0798  0.0702
 1011MOL0     C33359   4.730   0.960   0.042 -0.4577 -0.4906  0.3743
 1011MOL0     C33360   4.648   1.062   0.123 -0.0011 -0.0110 -1.1726
 1011MOL0     C33361   4.598   1.179   0.032 -0.8214 -0.7464 -0.1598
 1011MOL0     C33362   4.521   1.283   0.106  0.3052  0.0152  0.2805
 1011MOL0     C33363   4.452   1.378  -0.003 -0.0564  0.9483 -0.4783
 1011MOL0    Cl33364   4.314   1.286  -0.079 -0.4524 -0.1356 -0.1904
 1011MOL0     C33365   5.359   0.952   0.176 -0.2217 -0.1076 -0.6739
 1011MOL0     C33366   5.500   0.975   0.176  0.0177  0.0616 -0.3783
 1011MOL0     O33367   5.706   1.201  -0.037 -0.8306 -0.3894  0.3446
 1011MOL0     C33368   6.006   0.999   0.038 -0.6267 -0.6998  0.1241
 1011MOL0     C33369   6.148   0.998   0.015 -0.7243 -0.4918 -0.6412
 1011MOL0     N33370   6.853   1.339   0.248 -0.8043 -0.1756 -0.3304
 1011MOL0     N33371   6.942   1.294   0.328 -0.2073  1.0357 -0.6504
 1011MOL0     C33372   7.642   0.877   1.152  0.0842 -0.0511 -0.4746
 1011MOL0     C33373   7.728   0.939   1.241 -0.2605 -0.5000  0.0945
 1011MOL0     C33374   7.888   1.286   1.525 -0.8379 -0.7442 -0.1012
 1011MOL0     C33375   7.912   1.186   1.617 -0.0011 -0.0931 -0.5889
 1011MOL0     C33376   7.986   1.202   1.736  0.4436  0.1827 -0.6119
 1011MOL0     C33377   8.032   1.323   1.771 -0.4242  0.0037  0.3985
 1011MOL0     O33378   8.111   1.341   1.880 -1.0978  0.4632  0.5028
 1011MOL0     C33379   8.247   1.386   1.857  0.0583  0.7402 -0.4884
 1011MOL0     C33380   8.331   1.310   1.967 -0.1323  0.4363  0.0612
 1011MOL0     C33381   8.487   1.321   1.962 -0.3661  0.4354 -0.3152
 1011MOL0     C33382   8.547   1.264   2.096  0.5265  0.2518 -0.2033
 1011MOL0     C33383   8.691   1.271   2.099 -0.4097 -0.3290 -0.7439
 1011MOL0     C33384   8.812   1.285   2.119 -0.1594  0.8608 -0.4302
 1011MOL0     C33385   8.020   1.430   1.676 -0.5101  0.4158 -0.2394
 1011MOL0     C33386   7.948   1.411   1.561  0.4733  0.4395 -0.4561
 1011MOL0     H33387   7.581   1.240   1.254  0.5015  0.3876  1.6370
 1011MOL0     H33388   7.432   1.147   1.098 -1.7581 -1.7127  2.1246
 1011MOL0     H33389   7.336   0.726   1.042  0.6546 -2.0161  0.0073
 1011MOL0     H33390   7.496   0.685   1.026 -1.8792 -0.9981  2.4661
 1011MOL0     H33391   7.393   0.616   0.811  3.5654  0.4058 -3.2626
 1011MOL0     H33392   7.494   0.753   0.783  0.6197 -1.6737 -0.5573
 1011MOL0     H33393   7.292   0.910   0.780 -2.4141  0.4727  1.5550
 1011MOL0     H33394   7.189   0.788   0.824 -1.1405  2.5728 -0.6122
 1011MOL0     H33395   7.363   0.780   0.570 -2.9609  2.6353 -2.1905
 1011MOL0     H33396   7.249   0.650   0.621  1.0059 -0.9213  0.1032
 1011MOL0     H33397   7.091   0.867   0.603 -1.5334 -1.0914 -1.0812
 1011MOL0     H33398   7.161   0.782   0.458 -0.8118  2.5266 -1.8703
 1011MOL0     H33399   7.361   0.957   0.478  0.5229  2.0856  0.0820
 1011MOL0     H33400   7.257   1.032   0.590 -1.7119  2.7431 -1.1946
 1011MOL0     H33401   7.224   1.154   0.388 -1.2790  1.4079 -0.7358
 1011MOL0     H33402   7.209   1.006   0.299  1.4649  2.1716  0.5743
 1011MOL0     H33403   6.995   1.110   0.504  1.4952 -0.3789  0.7139
 1011MOL0     H33404   6.980   0.969   0.389  0.9682 -0.4096  0.0884
 1011MOL0     H33405   6.881   1.029   0.151 -0.6710 -1.0625  1.6159
 1011MOL0     H33406   6.756   1.318  -0.004  0.5493  2.6358  3.2353
 1011MOL0     H33407   6.621   1.317   0.108  0.1311  1.6431 -2.3825
 1011MOL0     H33408   6.602   1.065   0.071  0.9786 -1.2030 -0.0820
 1011MOL0     H33409   6.734   1.083  -0.027 -0.5359  0.3550 -0.8939
 1011MOL0     H33410   6.632   1.241  -0.177 -0.1626  3.7719  1.5766
 1011MOL0     H33411   6.561   1.073  -0.167  1.2467 -0.0655 -0.9666
 1011MOL0     H33412   6.393   1.251  -0.204  0.1441  0.0113 -0.6084
 1011MOL0     H33413   6.419   1.305  -0.035 -1.5283 -0.2206  1.6923
 1011MOL0     H33414   6.187   1.322  -0.072 -0.2178 -0.3849 -0.1265
 1011MOL0     H33415   5.931   1.317  -0.063  0.2640  0.3248  1.1152
 1011MOL0     H33416   5.563   0.978  -0.145 -0.4696 -1.3549 -0.5724
 1011MOL0     H33417   5.340   0.920  -0.173  0.6009 -2.2342 -0.5238
 1011MOL0     H33418   5.136   0.820  -0.126  1.4129  0.7930 -0.9229
 1011MOL0     H33419   5.132   0.999  -0.151  1.5906 -1.6150 -0.9649
 1011MOL0     H33420   4.917   0.811  -0.028 -1.9494  0.1251 -1.7638
 1011MOL0     H33421   4.904   0.875  -0.176  2.3257 -2.2535 -0.2757
 1011MOL0     H33422   4.834   1.089  -0.086 -3.2489 -0.5226  0.6398
 1011MOL0     H33423   4.928   1.057   0.059 -0.5469 -1.1741  0.8372
 1011MOL0     H33424   4.658   0.948  -0.040 -1.9796  2.6805  1.0612
 1011MOL0     H33425   4.754   0.878   0.110 -0.4521  0.1681  1.1929
 1011MOL0     H33426   4.704   1.114   0.201 -2.9357  1.1571  0.3151
 1011MOL0     H33427   4.559   1.017   0.169 -0.0537  1.5875  0.3916
 1011MOL0     H33428   4.528   1.132  -0.038 -1.8966  0.3609  0.1413
 1011MOL0     H33429   4.689   1.227  -0.004  0.9949 -0.1889  4.4872
 1011MOL0     H33430   4.443   1.238   0.167 -0.8178 -0.6590 -1.5866
 1011MOL0     H33431   4.587   1.341   0.172 -0.2845 -2.7463  3.5665
 1011MOL0     H33432   4.520   1.412  -0.082 -1.2418 -1.6601 -2.7962
 1011MOL0     H33433   4.415   1.466   0.050 -0.2939  0.6053 -0.0753
 1011MOL0     H33434   5.295   0.947   0.264 -4.1086 -3.0788 -3.3043
 1011MOL0     H33435   5.555   0.984   0.269 -0.6663 -1.9438  0.2462
 1011MOL0     H33436   5.981   0.898   0.067  0.4615 -1.5055 -1.5754
 1011MOL0     H33437   6.212   0.913   0.037 -1.2837 -0.4292  1.4733
 1011MOL0     H33438   7.664   0.778   1.113 -1.4781  0.4069 -2.6568
 1011MOL0     H33439   7.817   0.886   1.272  2.6104  4.5158  1.5663
 1011MOL0     H33440   7.876   1.088   1.588  1.8854 -1.0253  0.0216
 1011MOL0     H33441   8.008   1.119   1.803 -2.2625  0.6711  1.0236
 1011MOL0     H33442   8.269   1.493   1.864  1.9425  0.3234  0.7392
 1011MOL0     H33443   8.282   1.336   1.766 -0.1113 -2.7928  1.1990
 1011MOL0     H33444   8.306   1.351   2.066  0.4902  3.1694 -0.8097
 1011MOL0     H33445   8.313   1.203   1.961  2.1347  0.0709 -0.9512
 1011MOL0     H33446   8.534   1.417   1.940  2.7192 -0.9537 -0.3415
 1011MOL0     H33447   8.510   1.255   1.878 -1.5856 -0.0978 -0.2534
 1011MOL0     H33448   8.511   1.325   2.179 -2.5617 -2.2272  0.4536
 1011MOL0     H33449   8.515   1.161   2.114  3.0245 -0.2939  1.7700
 1011MOL0     H33450   8.918   1.298   2.118 -0.0618  0.1760 -0.1959
 1011MOL0     H33451   8.078   1.521   1.678  2.9692 -1.5077 -2.6057
 1011MOL0     H33452   7.942   1.485   1.482 -1.1372 -1.3060 -2.0805
 1012MOL0     O33453   0.492   0.535  10.305  0.0103  0.0877 -0.5872
 1012MOL0     C33454   0.612   0.558  10.332  0.2128 -0.2810  0.3819
 1012MOL0     O33455   0.662   0.661  10.414 -0.3425 -0.0575 -0.1780
 1012MOL0     C33456   0.588   0.741  10.492  0.4303  0.3218 -0.2700
 1012MOL0     C33457   0.621   0.874  10.516 -0.2723  0.4355  0.0257
 1012MOL0     C33458   0.546   0.956  10.595 -0.2799  0.8912 -0.3568
 1012MOL0     C33459   0.425   0.906  10.663  0.2792  0.8242 -0.4197
 1012MOL0     O33460   0.329   0.984  10.725 -0.1252  0.1403 -0.0953
 1012MOL0     C33461   0.336   1.123  10.708 -0.0537  0.1081 -0.4433
 1012MOL0     C33462   0.205   1.186  10.766  0.8044  0.2539 -0.8007
 1012MOL0     C33463   0.104   1.218  10.660 -0.2722  0.3414 -0.0464
 1012MOL0     C33464  -0.034   1.266  10.706  0.7908 -0.2247  0.5118
 1012MOL0     C33465  -0.017   1.393  10.810 -0.2955 -0.0444  0.1317
 1012MOL0     C33466  -0.149   1.408  10.895 -0.3197 -0.0703  0.1556
 1012MOL0     C33467  -0.152   1.527  10.986  0.3953 -1.0211  0.4505
 1012MOL0     C33468  -0.260   1.518  11.089 -0.1287  0.5475 -0.4849
 1012MOL0     N33469  -0.398   1.464  11.061  0.2732 -0.5460 -0.3006
 1012MOL0     C33470  -0.429   1.329  11.061  0.2979 -0.3774 -1.0266
 1012MOL0     C33471  -0.555   1.337  11.014 -0.5153 -0.0923 -0.4507
 1012MOL0     C33472  -0.624   1.215  10.963 -0.1516 -0.0953 -0.0949
 1012MOL0     C33473  -0.607   1.221  10.812  0.9766 -0.4380 -0.3620
 1012MOL0     C33474  -0.694   1.113  10.755 -0.9456  0.6107 -0.1635
 1012MOL0     C33475  -0.641   0.962  10.783  0.4191  0.7150 -0.2107
 1012MOL0     O33476  -0.736   0.882  10.709 -0.7904 -0.1118 -0.0219
 1012MOL0     C33477  -0.812   0.800  10.785  0.1227  0.4121  0.6142
 1012MOL0     C33478  -0.765   0.731  10.892 -0.0442 -0.3375 -0.8705
 1012MOL0     C33479  -0.845   0.625  10.950 -0.3210  0.9636 -0.6874
 1012MOL0     C33480  -0.973   0.584  10.898  0.7179 -0.5028 -0.1568
 1012MOL0     C33481  -1.053   0.473  10.960  1.9659  0.0952  0.2911
 1012MOL0     O33482  -1.171   0.439  10.906  0.6182  0.5752 -0.7972
 1012MOL0     C33483  -1.249   0.342  10.961  0.4667  0.3430  0.3132
 1012MOL0     C33484  -1.362   0.368  11.044  1.1777 -0.2948  0.0823
 1012MOL0     C33485  -1.416   0.266  11.127 -0.1431 -0.1825  0.2676
 1012MOL0     C33486  -1.377   0.139  11.117 -0.0795  0.2142  0.2696
 1012MOL0     O33487  -1.459   0.048  11.190  0.0952 -0.2078  0.3015
 1012MOL0     C33488  -1.453  -0.092  11.143  0.1405  0.0610 -0.1211
 1012MOL0     C33489  -1.548  -0.180  11.230 -0.1631  0.0559 -0.7050
 1012MOL0     C33490  -1.684  -0.180  11.166 -0.6340  0.6408 -0.2946
 1012MOL0     C33491  -1.765  -0.287  11.245  0.0865  0.5178  0.4617
 1012MOL0     C33492  -1.895  -0.315  11.179 -0.6441 -0.0977 -0.0757
 1012MOL0     C33493  -1.893  -0.325  11.030  0.0709 -0.6611 -0.1727
 1012MOL0     C33494  -2.022  -0.380  10.968 -0.6829  0.7109  0.2317
 1012MOL0     C33495  -1.997  -0.442  10.833 -0.2898 -0.6305  0.5100
 1012MOL0    Cl33496  -1.871  -0.564  10.826 -0.1299  0.1565  0.3487
 1012MOL0     C33497  -1.263   0.113  11.037  0.1710 -1.0734 -0.1747
 1012MOL0     C33498  -1.202   0.213  10.962 -0.4949  1.2020 -0.6414
 1012MOL0     O33499  -1.006   0.408  11.054 -0.0275 -0.4492  0.1485
 1012MOL0     C33500  -1.016   0.664  10.790  0.2438 -0.1333 -0.3168
 1012MOL0     C33501  -0.937   0.766  10.730  0.6749  0.3030 -0.4345
 1012MOL0     N33502  -0.596   1.466  10.992  0.3012 -0.2954 -0.7711
 1012MOL0     N33503  -0.495   1.547  11.017 -0.5163  0.5395 -0.6836
 1012MOL0     C33504   0.393   0.772  10.641 -0.4560  0.3076  0.1464
 1012MOL0     C33505   0.474   0.693  10.558 -0.3756  0.2121 -0.2089
 1012MOL0     C33506   0.706   0.477  10.256  1.2178 -0.2345 -0.6198
 1012MOL0     C33507   0.659   0.377  10.175  0.3642 -0.4876 -0.3056
 1012MOL0     C33508   0.759   0.316  10.097  0.5124  0.2199  0.2213
 1012MOL0     C33509   0.894   0.344  10.092 -0.5419 -0.4647  0.5175
 1012MOL0     O33510   0.993   0.269  10.020  0.4966 -0.3082 -0.5620
 1012MOL0     C33511   0.958   0.131   9.982  0.0811  0.5157  0.3776
 1012MOL0     C33512   1.074   0.054   9.921 -0.4403 -0.4877  0.3053
 1012MOL0     C33513   1.159   0.150   9.833 -0.5116  0.2154  0.8650
 1012MOL0     C33514   1.284   0.074   9.773  0.3479  0.0157 -0.1335
 1012MOL0     C33515   1.403   0.130   9.851  1.4401 -0.3535  0.5334
 1012MOL0     C33516   1.494   0.168   9.912 -0.0372 -1.2362  0.6616
 1012MOL0     C33517   0.936   0.444  10.181  0.4139  0.3909 -0.0094
 1012MOL0     C33518   0.843   0.507  10.257  0.5847 -0.4094 -0.1078
 1012MOL0     H33519   0.714   0.918  10.480  0.3355  1.5065  2.6553
 1012MOL0     H33520   0.575   1.056  10.625 -3.2367  1.3354  1.4212
 1012MOL0     H33521   0.337   1.164  10.607 -0.0962  0.3221 -0.3596
 1012MOL0     H33522   0.423   1.164  10.761  0.7881  1.3301 -2.6452
 1012MOL0     H33523   0.231   1.271  10.829 -0.1534  2.7137 -3.5245
 1012MOL0     H33524   0.156   1.123  10.842 -1.8523  4.2814  1.2115
 1012MOL0     H33525   0.095   1.139  10.585 -0.1501  0.2597  0.0238
 1012MOL0     H33526   0.153   1.297  10.603  0.5682 -1.1610 -1.5108
 1012MOL0     H33527  -0.091   1.299  10.618  1.7524  0.7256  0.2161
 1012MOL0     H33528  -0.095   1.190  10.755  0.4433 -0.3484 -0.0907
 1012MOL0     H33529  -0.002   1.483  10.750  0.7776 -0.2956 -0.0063
 1012MOL0     H33530   0.071   1.386  10.875 -1.3854  1.2534  1.8380
 1012MOL0     H33531  -0.136   1.319  10.957  4.8898 -0.4486 -1.0000
 1012MOL0     H33532  -0.234   1.412  10.826  0.1905  0.6285 -0.4483
 1012MOL0     H33533  -0.053   1.537  11.030  0.8380  1.2955 -0.9194
 1012MOL0     H33534  -0.160   1.621  10.931  4.0642 -0.9129 -0.1111
 1012MOL0     H33535  -0.275   1.620  11.127  0.3409  0.2827  0.4231
 1012MOL0     H33536  -0.217   1.461  11.171 -2.5742 -1.9037 -0.7515
 1012MOL0     H33537  -0.369   1.241  11.080  2.1756  0.9168 -0.6659
 1012MOL0     H33538  -0.726   1.207  11.001  0.3927 -0.0202  1.4572
 1012MOL0     H33539  -0.566   1.128  10.994  0.5058  0.1018 -0.7254
 1012MOL0     H33540  -0.503   1.204  10.782  0.8158 -0.1225 -1.1386
 1012MOL0     H33541  -0.635   1.316  10.766 -0.8184 -0.3876  0.7444
 1012MOL0     H33542  -0.795   1.120  10.795  0.4610  1.1088  3.6920
 1012MOL0     H33543  -0.699   1.136  10.648 -0.6992  1.2018 -0.0521
 1012MOL0     H33544  -0.637   0.946  10.891 -2.0042  0.3284 -0.1163
 1012MOL0     H33545  -0.543   0.946  10.737  1.4303  0.9945  1.7738
 1012MOL0     H33546  -0.661   0.750  10.918  0.4319  0.9205 -3.4082
 1012MOL0     H33547  -0.801   0.554  11.019 -1.1235  1.3007  0.1786
 1012MOL0     H33548  -1.390   0.473  11.048  0.2233 -0.3179 -2.9899
 1012MOL0     H33549  -1.487   0.289  11.206 -2.5290 -0.8482 -1.5462
 1012MOL0     H33550  -1.348  -0.120  11.152  0.9696  1.8599 -2.9778
 1012MOL0     H33551  -1.464  -0.105  11.035  3.3850 -0.8119 -0.4449
 1012MOL0     H33552  -1.547  -0.149  11.335  1.2201 -4.0766  0.7052
 1012MOL0     H33553  -1.512  -0.283  11.242 -0.1914  0.2935  1.9054
 1012MOL0     H33554  -1.672  -0.207  11.060 -3.6070  0.4407 -0.6546
 1012MOL0     H33555  -1.707  -0.074  11.176  0.8723  1.3757 -3.3890
 1012MOL0     H33556  -1.704  -0.378  11.245 -1.4013 -0.5222  1.5633
 1012MOL0     H33557  -1.787  -0.272  11.351 -0.2420  0.4904  0.3986
 1012MOL0     H33558  -1.959  -0.227  11.191 -1.0762 -0.3900 -0.2334
 1012MOL0     H33559  -1.942  -0.405  11.217  1.2489 -1.1434 -0.1046
 1012MOL0     H33560  -1.807  -0.387  11.003  1.3857  0.4479  1.2372
 1012MOL0     H33561  -1.880  -0.229  10.979  2.2778 -2.0254 -2.3610
 1012MOL0     H33562  -2.051  -0.459  11.038  0.7864 -0.7900 -0.7752
 1012MOL0     H33563  -2.097  -0.301  10.958 -0.5201  0.9240  0.6614
 1012MOL0     H33564  -1.979  -0.362  10.761 -1.6053 -1.6553 -1.0310
 1012MOL0     H33565  -2.095  -0.486  10.811 -0.6016 -1.7479  3.6412
 1012MOL0     H33566  -1.238   0.008  11.025 -0.5725 -1.0753 -2.2923
 1012MOL0     H33567  -1.111   0.186  10.910 -1.4948 -0.9577 -1.4176
 1012MOL0     H33568  -1.110   0.650  10.738  0.7049  0.5607 -1.3698
 1012MOL0     H33569  -0.964   0.815  10.637 -2.1498 -1.1896 -0.4958
 1012MOL0     H33570   0.297   0.732  10.673 -0.5416 -0.7596 -1.3348
 1012MOL0     H33571   0.458   0.586  10.552  3.2749 -0.3654 -3.3239
 1012MOL0     H33572   0.553   0.355  10.164  0.9362 -3.4179 -0.7838
 1012MOL0     H33573   0.713   0.246  10.027 -0.1883  0.1563  0.7356
 1012MOL0     H33574   0.877   0.140   9.908  1.5510  1.2917 -1.2165
 1012MOL0     H33575   0.909   0.085  10.068 -2.0119  1.3780 -0.2898
 1012MOL0     H33576   1.143   0.021   9.999  1.3525  1.4040 -0.3848
 1012MOL0     H33577   1.050  -0.036   9.863 -2.0239  0.3313 -0.3583
 1012MOL0     H33578   1.184   0.245   9.882 -2.3530  0.6774  0.9671
 1012MOL0     H33579   1.098   0.187   9.751  1.9343  3.0426  0.1345
 1012MOL0     H33580   1.271  -0.033   9.788 -0.2281  0.4228  2.8375
 1012MOL0     H33581   1.294   0.089   9.665 -2.7263 -2.4286 -0.9054
 1012MOL0     H33582   1.583   0.196   9.964 -0.0563  2.0719 -0.8227
 1012MOL0     H33583   1.045   0.452  10.180  0.6249 -1.8012  0.3723
 1012MOL0     H33584   0.878   0.591  10.316  2.4249 -0.0649 -1.6001
 1013MOL0     O33585   0.664   0.762   5.404  0.6599  0.4026  0.1736
 1013MOL0     C33586   0.580   0.768   5.494 -0.2005  0.0011 -0.0960
 1013MOL0     O33587   0.610   0.770   5.633 -0.7073 -0.2605  0.6079
 1013MOL0     C33588   0.743   0.765   5.674  0.4320 -1.2219 -0.6329
 1013MOL0     C33589   0.782   0.680   5.778  0.0892 -0.0906 -0.0803
 1013MOL0     C33590   0.914   0.676   5.829  0.2357  0.4210  0.1433
 1013MOL0     C33591   1.009   0.758   5.772  0.3247 -0.0827 -0.0239
 1013MOL0     O33592   1.134   0.757   5.833 -0.9522  1.0197 -0.2973
 1013MOL0     C33593   1.235   0.705   5.748  0.1895  0.3484  0.8236
 1013MOL0     C33594   1.373   0.748   5.799 -0.1111  0.3189  0.2596
 1013MOL0     C33595   1.480   0.717   5.692  0.2579  0.9626  0.2538
 1013MOL0     C33596   1.627   0.690   5.752  1.1947  0.7445 -0.1928
 1013MOL0     C33597   1.721   0.625   5.656  0.4985  1.5840 -0.2950
 1013MOL0     C33598   1.845   0.560   5.736  0.0149 -1.3847  0.1933
 1013MOL0     C33599   1.946   0.499   5.646  0.2912  0.1697 -0.1056
 1013MOL0     C33600   2.053   0.436   5.731 -0.4908  0.0869 -0.3009
 1013MOL0     N33601   2.134   0.352   5.644 -0.4051 -0.5884  0.1004
 1013MOL0     C33602   2.242   0.395   5.563  0.3306  0.0398 -0.0390
 1013MOL0     C33603   2.285   0.278   5.505  0.0415  0.1387 -0.4704
 1013MOL0     C33604   2.414   0.245   5.421  0.2763  0.0044  0.0369
 1013MOL0     C33605   2.459   0.097   5.439 -0.3937  0.6673 -0.3531
 1013MOL0     C33606   2.605   0.078   5.379  0.1029  0.3838 -1.0123
 1013MOL0     C33607   2.659  -0.064   5.381  1.0579 -0.0862  0.6730
 1013MOL0     O33608   2.673  -0.110   5.517  0.0011  0.3505  0.2903
 1013MOL0     C33609   2.793  -0.078   5.585  0.3415  0.3245  0.0643
 1013MOL0     C33610   2.900   0.006   5.544  0.3179  0.0103 -0.2319
 1013MOL0     C33611   3.017   0.017   5.626 -0.1107 -0.5060 -0.1274
 1013MOL0     C33612   3.028  -0.050   5.747 -0.5830 -0.0677  0.4267
 1013MOL0     C33613   3.145  -0.040   5.837 -0.2247  0.0928  0.4375
 1013MOL0     O33614   3.238   0.057   5.791 -0.4982  0.2739  0.6960
 1013MOL0     C33615   3.360   0.085   5.851 -0.3454  0.4902  0.1928
 1013MOL0     C33616   3.479   0.085   5.788 -0.7927  0.5620 -0.1270
 1013MOL0     C33617   3.604   0.095   5.860  0.4146 -0.3042 -0.2166
 1013MOL0     C33618   3.603   0.109   6.001  0.1971  0.5354  0.3183
 1013MOL0     O33619   3.712   0.123   6.081 -0.5469 -0.2520 -0.3819
 1013MOL0     C33620   3.845   0.079   6.035 -0.5407 -0.3151 -0.6650
 1013MOL0     C33621   3.932   0.178   5.965 -0.4981 -0.6893  1.5109
 1013MOL0     C33622   3.979   0.280   6.073 -0.8303  0.0854  0.0292
 1013MOL0     C33623   4.091   0.373   6.021 -0.1599  0.1761  0.1609
 1013MOL0     C33624   4.171   0.422   6.147 -0.0242 -0.3876 -0.5722
 1013MOL0     C33625   4.252   0.551   6.121 -0.1874 -0.4348 -0.2165
 1013MOL0     C33626   4.390   0.524   6.055 -0.0875 -0.3971 -0.2831
 1013MOL0     C33627   4.479   0.656   6.053  0.1073 -0.6972  0.9054
 1013MOL0    Cl33628   4.585   0.678   6.195 -0.5726  0.2235 -0.7448
 1013MOL0     C33629   3.480   0.137   6.059  0.1513 -0.3843  0.4306
 1013MOL0     C33630   3.361   0.112   5.997  0.4527  0.0812  1.2156
 1013MOL0     O33631   3.145  -0.086   5.946  0.4315  0.6134  0.0935
 1013MOL0     C33632   2.914  -0.116   5.799 -0.5244  0.0096  0.2006
 1013MOL0     C33633   2.801  -0.144   5.715  0.0619  0.2159  0.5659
 1013MOL0     N33634   2.197   0.180   5.538  0.2800  0.4894 -0.2840
 1013MOL0     N33635   2.104   0.220   5.611 -0.2838 -0.6300  0.1211
 1013MOL0     C33636   0.978   0.841   5.659  0.0085 -0.1759  0.2819
 1013MOL0     C33637   0.841   0.851   5.613  0.8152  0.3168 -0.1797
 1013MOL0     C33638   0.446   0.757   5.460  0.4832 -0.0309 -0.0022
 1013MOL0     C33639   0.410   0.741   5.325 -0.5279 -0.1662  0.4654
 1013MOL0     C33640   0.277   0.723   5.287 -1.0266  0.1720  0.1798
 1013MOL0     C33641   0.177   0.738   5.384  0.9860 -0.1820 -0.4798
 1013MOL0     O33642   0.040   0.739   5.346 -0.9636 -0.0582  0.1850
 1013MOL0     C33643  -0.064   0.728   5.440  1.0519 -0.2119  0.2801
 1013MOL0     C33644  -0.196   0.731   5.374 -0.2895 -0.1266 -0.5522
 1013MOL0     C33645  -0.221   0.611   5.286  0.3086 -0.6840  0.8957
 1013MOL0     C33646  -0.357   0.634   5.217  0.4367  0.0916 -0.7364
 1013MOL0     C33647  -0.479   0.591   5.285  0.0003 -0.7199  0.1964
 1013MOL0     C33648  -0.576   0.559   5.347  0.6318 -0.8285 -0.1054
 1013MOL0     C33649   0.215   0.756   5.519  0.3220 -0.4823  0.6720
 1013MOL0     C33650   0.348   0.768   5.553 -0.3074 -0.1294 -0.7667
 1013MOL0     H33651   0.712   0.604   5.811  0.5870 -0.1745  0.8194
 1013MOL0     H33652   0.940   0.599   5.901 -2.4668 -1.3619 -0.6120
 1013MOL0     H33653   1.223   0.727   5.642  0.0473  0.1329  0.7936
 1013MOL0     H33654   1.220   0.597   5.750  1.1865  0.0665 -2.1922
 1013MOL0     H33655   1.396   0.690   5.889  1.4213  1.1240  0.4236
 1013MOL0     H33656   1.383   0.856   5.808 -0.6895  0.2614  1.8406
 1013MOL0     H33657   1.488   0.794   5.614 -0.1493 -0.1780 -0.9511
 1013MOL0     H33658   1.447   0.628   5.638 -0.7761  1.1808  0.5034
 1013MOL0     H33659   1.672   0.781   5.794  1.2367 -0.0554  1.5952
 1013MOL0     H33660   1.608   0.617   5.832 -1.6790 -1.6649 -2.8065
 1013MOL0     H33661   1.755   0.698   5.582 -0.8740  1.3870 -1.1654
 1013MOL0     H33662   1.672   0.546   5.597  0.0079  2.6994 -1.4346
 1013MOL0     H33663   1.799   0.478   5.792  2.7381 -2.3924  1.0855
 1013MOL0     H33664   1.890   0.627   5.809 -0.8945  1.2619 -1.5283
 1013MOL0     H33665   1.902   0.431   5.572 -0.3529  2.7603 -2.2702
 1013MOL0     H33666   1.997   0.578   5.589  2.7908 -0.1869  1.4817
 1013MOL0     H33667   2.005   0.386   5.816 -0.9422  2.4072  0.8757
 1013MOL0     H33668   2.124   0.507   5.774  2.1779  0.5294 -4.7944
 1013MOL0     H33669   2.281   0.495   5.551  0.2499  0.0780  0.0161
 1013MOL0     H33670   2.494   0.318   5.436  0.4568  0.0438 -1.0368
 1013MOL0     H33671   2.381   0.248   5.317 -1.9963  1.6762  0.7354
 1013MOL0     H33672   2.382   0.027   5.405 -1.3247  2.0834 -1.2436
 1013MOL0     H33673   2.466   0.078   5.546  0.8243 -0.6820 -0.6439
 1013MOL0     H33674   2.595   0.114   5.276 -1.0528  1.3741 -0.5770
 1013MOL0     H33675   2.675   0.142   5.434 -1.1795 -1.1129  2.6483
 1013MOL0     H33676   2.749  -0.072   5.319  0.8341  1.4199  0.1014
 1013MOL0     H33677   2.583  -0.124   5.331 -1.0924  0.9129  2.5727
 1013MOL0     H33678   2.889   0.066   5.455  1.7913  2.6606  1.2441
 1013MOL0     H33679   3.096   0.080   5.587 -1.1195 -0.7167 -2.7122
 1013MOL0     H33680   3.487   0.088   5.680  2.0449 -1.9139 -0.1161
 1013MOL0     H33681   3.704   0.089   5.819 -0.2984 -1.6440 -1.9122
 1013MOL0     H33682   3.841  -0.001   5.961  0.5828  2.0202 -3.4388
 1013MOL0     H33683   3.889   0.044   6.129  1.7590 -0.5780 -1.7782
 1013MOL0     H33684   3.877   0.210   5.876  0.6205 -2.4047  0.1410
 1013MOL0     H33685   4.016   0.118   5.927 -1.0660 -0.6742  0.1623
 1013MOL0     H33686   4.022   0.226   6.158 -0.9743  2.9071  2.0518
 1013MOL0     H33687   3.896   0.342   6.109 -0.2006  1.9355 -1.5438
 1013MOL0     H33688   4.154   0.321   5.948  0.2317  3.4522 -2.0590
 1013MOL0     H33689   4.052   0.460   5.968  1.4545  1.3532  0.8043
 1013MOL0     H33690   4.238   0.341   6.178  1.6696 -0.2831 -3.5606
 1013MOL0     H33691   4.095   0.432   6.225  2.7464 -3.2242  2.8712
 1013MOL0     H33692   4.284   0.592   6.217  0.6022 -0.2583 -0.5519
 1013MOL0     H33693   4.198   0.629   6.067  0.3878  1.0274  1.2063
 1013MOL0     H33694   4.443   0.446   6.111 -0.6914 -0.0082  0.8662
 1013MOL0     H33695   4.363   0.501   5.952 -4.4709  2.3525 -0.0063
 1013MOL0     H33696   4.404   0.734   6.047 -0.4921 -1.3778 -1.3080
 1013MOL0     H33697   4.543   0.662   5.965  0.8318 -0.8130  1.4113
 1013MOL0     H33698   3.477   0.174   6.161  0.9144 -0.1664  0.3736
 1013MOL0     H33699   3.268   0.115   6.053 -1.2230 -0.5565 -1.3690
 1013MOL0     H33700   2.919  -0.156   5.900 -0.7915 -0.1605  0.1458
 1013MOL0     H33701   2.728  -0.215   5.753  0.6966 -1.3213 -0.9530
 1013MOL0     H33702   1.058   0.902   5.618  0.3902  0.0913  1.3730
 1013MOL0     H33703   0.808   0.920   5.535 -1.3506 -0.8157 -0.3336
 1013MOL0     H33704   0.490   0.755   5.253 -1.8095  0.3975 -0.9048
 1013MOL0     H33705   0.262   0.714   5.180 -0.6821  1.3099  0.0197
 1013MOL0     H33706  -0.053   0.800   5.522  1.6246 -0.2506  0.2391
 1013MOL0     H33707  -0.066   0.625   5.478  1.6746 -0.8154 -1.2653
 1013MOL0     H33708  -0.274   0.737   5.450  2.2268  0.1527  2.2183
 1013MOL0     H33709  -0.196   0.824   5.315 -0.5765 -0.3977 -0.9870
 1013MOL0     H33710  -0.221   0.514   5.337 -1.0369  0.4119  3.1290
 1013MOL0     H33711  -0.149   0.595   5.205  0.6655  3.3866  0.2007
 1013MOL0     H33712  -0.381   0.733   5.177  0.0240  0.7355  0.9990
 1013MOL0     H33713  -0.357   0.573   5.127  0.1554  2.7510 -2.6689
 1013MOL0     H33714  -0.670   0.530   5.390 -0.9105  2.4303 -0.9415
 1013MOL0     H33715   0.143   0.768   5.599 -1.5102 -1.2706 -0.7696
 1013MOL0     H33716   0.384   0.786   5.654 -1.6091 -0.6692 -0.1894
 1014MOL0     O33717   7.978   0.161   0.092  0.8071 -0.1470  0.9632
 1014MOL0     C33718   7.978   0.082   0.184 -1.5460 -0.2033  0.0459
 1014MOL0     O33719   7.876   0.014   0.235  0.1439  0.9345  0.6102
 1014MOL0     C33720   7.746   0.047   0.192 -0.0425  0.2541  0.5680
 1014MOL0     C33721   7.666  -0.071   0.195  0.3198  0.0661 -0.8278
 1014MOL0     C33722   7.523  -0.064   0.157 -0.0412  0.5069  0.1278
 1014MOL0     C33723   7.467   0.049   0.110  0.3155  0.4237 -0.5688
 1014MOL0     O33724   7.344   0.073   0.060 -0.5451  0.4742 -0.2923
 1014MOL0     C33725   7.260  -0.043   0.018 -0.2601  0.4606 -0.7663
 1014MOL0     C33726   7.286  -0.095  -0.117 -0.2504  0.6198  0.1833
 1014MOL0     C33727   7.202  -0.207  -0.162 -0.0591  0.3354 -1.1124
 1014MOL0     C33728   7.070  -0.155  -0.221 -0.4034  0.0809  0.6031
 1014MOL0     C33729   7.098  -0.061  -0.347 -0.1324  0.3653  0.7620
 1014MOL0     C33730   6.983  -0.026  -0.451 -0.0242  0.1572 -0.4277
 1014MOL0     C33731   6.852   0.032  -0.388 -0.7854  0.5396  0.3247
 1014MOL0     C33732   6.751   0.079  -0.496  0.6196  0.5509 -0.1761
 1014MOL0     N33733   6.801   0.203  -0.557 -0.5590 -0.2720 -0.2675
 1014MOL0     C33734   6.778   0.333  -0.510  0.7504 -0.0952  0.6234
 1014MOL0     C33735   6.847   0.405  -0.599 -0.3868 -0.4205 -0.1811
 1014MOL0     C33736   6.852   0.557  -0.611 -0.4087  0.3139 -0.6327
 1014MOL0     C33737   6.744   0.623  -0.706  0.6439  0.5427 -0.2649
 1014MOL0     C33738   6.600   0.604  -0.649  0.8339 -0.3647  0.2183
 1014MOL0     C33739   6.497   0.685  -0.737 -0.6722 -0.6902 -0.0612
 1014MOL0     O33740   6.374   0.700  -0.666  0.3438 -0.0826 -0.2818
 1014MOL0     C33741   6.261   0.719  -0.737  0.8950  0.1755  0.7346
 1014MOL0     C33742   6.131   0.704  -0.686 -0.6976  1.1861 -0.0521
 1014MOL0     C33743   6.020   0.714  -0.768 -0.0816  0.3156 -1.2777
 1014MOL0     C33744   6.026   0.755  -0.899 -1.0097  0.0921  0.1298
 1014MOL0     C33745   5.895   0.769  -0.968  0.5736 -0.3999 -0.2368
 1014MOL0     O33746   5.785   0.762  -0.887 -0.2290  0.4056  0.5533
 1014MOL0     C33747   5.660   0.820  -0.936 -0.4163 -0.1500 -0.3016
 1014MOL0     C33748   5.558   0.807  -0.846 -0.0705  0.6960 -0.5421
 1014MOL0     C33749   5.432   0.876  -0.857 -0.0394 -0.9209 -0.4660
 1014MOL0     C33750   5.404   0.952  -0.972 -0.6731  0.8593 -0.2324
 1014MOL0     O33751   5.277   0.994  -1.003  0.7611 -0.1609  0.2305
 1014MOL0     C33752   5.163   0.943  -0.934 -0.6367  0.0260 -0.3635
 1014MOL0     C33753   5.049   0.951  -1.043 -0.2896 -0.5788  0.0183
 1014MOL0     C33754   4.921   0.911  -0.985 -0.7192  0.0380  1.3220
 1014MOL0     C33755   4.817   0.884  -1.095 -0.0867  0.1486 -1.4313
 1014MOL0     C33756   4.672   0.896  -1.041  0.0087  0.6900  0.0728
 1014MOL0     C33757   4.569   0.814  -1.115  0.3712 -0.0753 -0.0019
 1014MOL0     C33758   4.587   0.663  -1.105  0.4133  0.0410 -0.0598
 1014MOL0     C33759   4.461   0.588  -1.148  0.0181  0.2694  0.3110
 1014MOL0    Cl33760   4.515   0.412  -1.194  0.1778 -0.3820 -0.0475
 1014MOL0     C33761   5.511   0.966  -1.058  0.6190  0.4555 -0.1937
 1014MOL0     C33762   5.636   0.905  -1.039  0.0524 -0.4832  0.4267
 1014MOL0     O33763   5.898   0.773  -1.093  0.3516  0.2373 -0.6800
 1014MOL0     C33764   6.154   0.764  -0.951  0.0619 -0.3707  0.1249
 1014MOL0     C33765   6.266   0.759  -0.876 -0.9756  0.8625 -0.5564
 1014MOL0     N33766   6.898   0.332  -0.702  0.0763  0.1174  0.3069
 1014MOL0     N33767   6.880   0.209  -0.673  0.5424 -0.8606  0.5169
 1014MOL0     C33768   7.552   0.154   0.086  0.1037 -0.5260 -0.1593
 1014MOL0     C33769   7.689   0.155   0.120 -0.0192  0.2919 -0.1925
 1014MOL0     C33770   8.115   0.043   0.237 -0.1620 -0.8960  0.7479
 1014MOL0     C33771   8.136  -0.037   0.349 -0.0691 -1.3098 -1.1241
 1014MOL0     C33772   8.266  -0.060   0.383 -0.0554  0.3737 -0.0315
 1014MOL0     C33773   8.382  -0.015   0.315  0.2410  0.6216  0.2280
 1014MOL0     O33774   8.500  -0.068   0.362  0.1107  0.1147  0.6894
 1014MOL0     C33775   8.618  -0.053   0.272 -0.0255  0.3312 -1.0892
 1014MOL0     C33776   8.600  -0.152   0.158 -0.2190 -0.4694  0.7590
 1014MOL0     C33777   8.732  -0.155   0.068 -0.1494 -0.8248  0.3762
 1014MOL0     C33778   8.732  -0.244  -0.051 -0.8663  0.9495  0.0327
 1014MOL0     C33779   8.622  -0.224  -0.141 -0.0974  0.5363  0.3846
 1014MOL0     C33780   8.529  -0.199  -0.218 -1.2413 -0.0636 -0.6610
 1014MOL0     C33781   8.363   0.082   0.218  0.3773 -0.3264  0.2859
 1014MOL0     C33782   8.229   0.107   0.178 -0.1911  0.7863  0.1296
 1014MOL0     H33783   7.700  -0.169   0.228  1.3363  0.1536 -1.5537
 1014MOL0     H33784   7.466  -0.154   0.175 -0.0442  0.6484  0.8485
 1014MOL0     H33785   7.156  -0.010   0.017 -0.0056  1.4276  0.9717
 1014MOL0     H33786   7.267  -0.120   0.096 -3.0249 -0.2284 -1.1017
 1014MOL0     H33787   7.392  -0.123  -0.115  0.6443  3.5660 -0.4366
 1014MOL0     H33788   7.299  -0.016  -0.192  2.4344  0.5194  0.4530
 1014MOL0     H33789   7.192  -0.266  -0.070 -1.5407  0.2645 -1.2836
 1014MOL0     H33790   7.249  -0.266  -0.241 -1.2883 -2.4077  0.0646
 1014MOL0     H33791   7.026  -0.246  -0.265  1.6887 -1.8055  2.1901
 1014MOL0     H33792   7.001  -0.122  -0.144 -1.0395  2.2778 -0.8037
 1014MOL0     H33793   7.183  -0.096  -0.406 -1.9286 -1.0738 -1.1723
 1014MOL0     H33794   7.124   0.036  -0.306 -1.5509  0.2545  1.9994
 1014MOL0     H33795   6.961  -0.110  -0.517  1.0606 -0.1774 -0.3918
 1014MOL0     H33796   7.029   0.046  -0.519  2.0370  0.6990  1.4196
 1014MOL0     H33797   6.796  -0.037  -0.324 -1.6369  0.1486 -0.8068
 1014MOL0     H33798   6.880   0.112  -0.319 -1.7834  0.4520  0.8413
 1014MOL0     H33799   6.650   0.103  -0.462  1.3975  1.7171  1.4904
 1014MOL0     H33800   6.725  -0.001  -0.566  0.6415 -1.7214  2.2737
 1014MOL0     H33801   6.729   0.350  -0.414  0.8370  1.1552  0.4670
 1014MOL0     H33802   6.949   0.595  -0.643 -1.5191  1.5874 -2.7025
 1014MOL0     H33803   6.844   0.605  -0.513  1.3508  0.6195 -0.6073
 1014MOL0     H33804   6.754   0.599  -0.812  2.1639  4.0223 -1.0382
 1014MOL0     H33805   6.752   0.731  -0.713 -0.3949  0.5539 -1.7553
 1014MOL0     H33806   6.575   0.498  -0.642 -1.6070  0.2600  2.9229
 1014MOL0     H33807   6.596   0.646  -0.548  1.2790  1.4522 -0.4786
 1014MOL0     H33808   6.484   0.631  -0.831 -1.3012 -0.3043 -0.2057
 1014MOL0     H33809   6.523   0.789  -0.758 -0.0290 -1.1958 -1.9578
 1014MOL0     H33810   6.111   0.682  -0.582 -1.2429 -5.3474 -1.1038
 1014MOL0     H33811   5.926   0.678  -0.726  1.1483 -0.9681  0.5235
 1014MOL0     H33812   5.575   0.758  -0.751  1.1129  2.1405  0.0221
 1014MOL0     H33813   5.371   0.874  -0.768 -2.3545  0.5368 -1.9165
 1014MOL0     H33814   5.149   1.019  -0.856 -0.2203  0.9555 -1.1801
 1014MOL0     H33815   5.189   0.841  -0.903 -3.6672 -1.3155 -1.8643
 1014MOL0     H33816   5.075   0.893  -1.132  0.4890 -1.9275  1.0907
 1014MOL0     H33817   5.032   1.053  -1.078 -0.7880 -0.1027  1.5730
 1014MOL0     H33818   4.892   0.994  -0.920  0.0907  0.7556  0.7809
 1014MOL0     H33819   4.939   0.827  -0.918  0.1421  0.1532  1.2434
 1014MOL0     H33820   4.837   0.938  -1.188 -1.2330  0.5894 -1.4399
 1014MOL0     H33821   4.830   0.782  -1.132  0.2338  1.0804 -4.0775
 1014MOL0     H33822   4.648   1.002  -1.049 -1.2308  0.3546 -0.8683
 1014MOL0     H33823   4.668   0.862  -0.937  0.2882 -0.8627 -0.3953
 1014MOL0     H33824   4.568   0.836  -1.222  0.0190 -1.0973 -0.2256
 1014MOL0     H33825   4.471   0.850  -1.083  0.6591 -1.8776  3.3065
 1014MOL0     H33826   4.663   0.639  -1.180  2.0603  2.8880  0.5386
 1014MOL0     H33827   4.622   0.633  -1.006  0.4788 -0.8947 -0.3620
 1014MOL0     H33828   4.450   0.635  -1.246  1.2516  0.7843  0.3937
 1014MOL0     H33829   4.376   0.608  -1.083  0.9665  1.1565  1.3332
 1014MOL0     H33830   5.489   1.028  -1.145 -4.1320 -1.3656 -0.5550
 1014MOL0     H33831   5.709   0.942  -1.111  0.2708  0.7156  1.2268
 1014MOL0     H33832   6.169   0.782  -1.056 -0.2670 -1.9594 -0.2205
 1014MOL0     H33833   6.362   0.776  -0.925 -0.2855 -0.2278  0.3576
 1014MOL0     H33834   7.508   0.233   0.025 -2.4082 -0.7095  1.2433
 1014MOL0     H33835   7.753   0.240   0.100 -2.1888  2.0709  0.0828
 1014MOL0     H33836   8.061  -0.078   0.415  0.8826  2.6029  2.8590
 1014MOL0     H33837   8.276  -0.126   0.469  2.2639 -0.8720 -1.1439
 1014MOL0     H33838   8.711  -0.074   0.325 -0.4279  0.5116 -0.2938
 1014MOL0     H33839   8.623   0.047   0.229  0.2132  0.4111 -0.8823
 1014MOL0     H33840   8.579  -0.255   0.187 -1.4750 -0.3211  0.4373
 1014MOL0     H33841   8.517  -0.134   0.090  0.4771 -1.4172 -0.3872
 1014MOL0     H33842   8.812  -0.179   0.140 -2.2694  2.4905  4.2809
 1014MOL0     H33843   8.761  -0.057   0.029 -0.5587 -0.6910  0.4061
 1014MOL0     H33844   8.834  -0.244  -0.091 -1.6926  1.7606 -2.1991
 1014MOL0     H33845   8.718  -0.346  -0.015  0.4189  0.0207 -1.9127
 1014MOL0     H33846   8.470  -0.168  -0.301  0.2324 -2.8140 -2.9108
 1014MOL0     H33847   8.440   0.141   0.170 -2.1501  1.7563 -1.5049
 1014MOL0     H33848   8.210   0.193   0.113  1.2517  0.9135 -0.1589
 1015MOL0     O33849   7.059   5.909   2.336 -0.0261 -0.5840 -0.4202
 1015MOL0     C33850   6.939   5.901   2.314 -0.2238 -1.1766 -0.9690
 1015MOL0     O33851   6.876   5.785   2.285 -0.0739  0.4334 -0.9410
 1015MOL0     C33852   6.951   5.672   2.273 -0.6144  0.3152 -0.0552
 1015MOL0     C33853   6.995   5.640   2.148 -0.5897  0.6699 -0.4729
 1015MOL0     C33854   7.078   5.529   2.131  0.8456 -0.0918  0.3298
 1015MOL0     C33855   7.100   5.433   2.235  0.4555  0.6946  0.3542
 1015MOL0     O33856   7.173   5.316   2.226 -0.7676  0.0023 -0.8936
 1015MOL0     C33857   7.210   5.259   2.101  0.3168 -0.4947  0.0111
 1015MOL0     C33858   7.315   5.334   2.014  0.4392  0.2899 -1.0029
 1015MOL0     C33859   7.459   5.289   2.053  0.6080  0.2661  0.2751
 1015MOL0     C33860   7.501   5.337   2.189  0.3338 -0.7635 -0.3110
 1015MOL0     C33861   7.645   5.313   2.212  0.1305  0.8785  0.4003
 1015MOL0     C33862   7.709   5.413   2.302  0.9609  0.2357  0.1135
 1015MOL0     C33863   7.689   5.556   2.262  0.2934  0.6164  0.2350
 1015MOL0     C33864   7.796   5.647   2.311  0.3514  1.2599  0.3539
 1015MOL0     N33865   7.770   5.677   2.453  0.4248 -0.3613 -0.5873
 1015MOL0     C33866   7.793   5.610   2.567 -0.6614 -0.2280  0.3521
 1015MOL0     C33867   7.753   5.688   2.668  0.6550  0.5628 -0.4112
 1015MOL0     C33868   7.749   5.649   2.814  0.4211  0.6442 -0.3289
 1015MOL0     C33869   7.682   5.751   2.904 -0.0514 -0.1037  0.7253
 1015MOL0     C33870   7.675   5.749   3.051  0.6457  0.0018 -0.2604
 1015MOL0     C33871   7.587   5.630   3.093  1.3881  1.4789 -0.1312
 1015MOL0     O33872   7.540   5.658   3.223 -0.4212  0.3477  0.2940
 1015MOL0     C33873   7.409   5.707   3.237  0.1493 -0.6402 -0.3200
 1015MOL0     C33874   7.323   5.747   3.129  0.0727  0.1342 -1.2851
 1015MOL0     C33875   7.198   5.791   3.164  0.9771  0.6637  0.7090
 1015MOL0     C33876   7.143   5.778   3.291  0.2279 -0.4170  0.3785
 1015MOL0     C33877   6.997   5.816   3.321 -0.6747 -1.4099 -0.4891
 1015MOL0     O33878   6.951   5.788   3.446 -0.3749  0.5370 -0.1578
 1015MOL0     C33879   6.832   5.846   3.489  0.2445 -0.1133 -0.6894
 1015MOL0     C33880   6.843   5.932   3.600  0.2078 -0.7504  0.5180
 1015MOL0     C33881   6.734   6.009   3.644  0.1409  0.0069 -0.6059
 1015MOL0     C33882   6.616   6.004   3.574  0.4020 -1.2411 -0.1427
 1015MOL0     O33883   6.520   6.096   3.608  1.2283 -0.5168  0.1577
 1015MOL0     C33884   6.387   6.045   3.609 -0.0615  0.5732 -0.9458
 1015MOL0     C33885   6.297   6.152   3.674 -0.2678 -1.1255  0.0388
 1015MOL0     C33886   6.153   6.105   3.678  0.3790 -0.7497 -0.2523
 1015MOL0     C33887   6.129   6.000   3.792  1.1049  0.5485  0.1953
 1015MOL0     C33888   5.982   5.980   3.819  1.3935 -0.7192 -0.5015
 1015MOL0     C33889   5.907   6.103   3.876 -0.0562 -0.2778  0.0223
 1015MOL0     C33890   5.765   6.059   3.923 -0.2181  0.1657  0.7816
 1015MOL0     C33891   5.681   5.986   3.816  0.5544 -0.5999 -0.3617
 1015MOL0    Cl33892   5.710   5.804   3.840 -0.2795 -0.5617  0.0565
 1015MOL0     C33893   6.600   5.916   3.473  0.6920  0.5873  0.1368
 1015MOL0     C33894   6.706   5.834   3.419  0.7361 -0.7867 -0.8063
 1015MOL0     O33895   6.947   5.887   3.237  0.0819  0.1004  0.5509
 1015MOL0     C33896   7.223   5.717   3.385  0.2759 -0.9063  0.9562
 1015MOL0     C33897   7.351   5.690   3.365 -0.1950 -0.9029  0.1672
 1015MOL0     N33898   7.695   5.804   2.621 -0.0873 -0.2000 -0.0750
 1015MOL0     N33899   7.705   5.798   2.489  0.5124 -0.0527 -0.2827
 1015MOL0     C33900   7.047   5.470   2.360 -0.7444 -0.3782  0.6563
 1015MOL0     C33901   6.980   5.591   2.379  1.3429 -0.3613 -0.0979
 1015MOL0     C33902   6.864   6.030   2.339 -1.0863 -0.2854  0.2705
 1015MOL0     C33903   6.737   6.043   2.283  0.1123  0.1033 -0.2771
 1015MOL0     C33904   6.660   6.153   2.306 -0.1656  0.7446 -0.1879
 1015MOL0     C33905   6.713   6.273   2.371 -0.4129  0.4663 -0.7933
 1015MOL0     O33906   6.639   6.396   2.363 -0.3874  0.2057 -0.4890
 1015MOL0     C33907   6.499   6.393   2.350  0.1595  0.2958  0.3733
 1015MOL0     C33908   6.452   6.527   2.390 -0.0431 -0.4254 -1.0016
 1015MOL0     C33909   6.482   6.647   2.293  0.1355  0.8088  0.0368
 1015MOL0     C33910   6.433   6.788   2.333  0.1340 -0.9246 -0.0572
 1015MOL0     C33911   6.292   6.783   2.382 -0.2913  0.2682  0.6233
 1015MOL0     C33912   6.186   6.764   2.432  0.5464  0.3118 -0.3924
 1015MOL0     C33913   6.843   6.266   2.430  0.2985  0.6713 -0.2456
 1015MOL0     C33914   6.913   6.145   2.402  0.6371  0.6520 -0.4230
 1015MOL0     H33915   6.975   5.712   2.069  0.3047 -0.5452 -1.8553
 1015MOL0     H33916   7.103   5.513   2.027 -0.9452  0.3200 -0.1871
 1015MOL0     H33917   7.121   5.255   2.037 -0.6453  0.2837  1.2653
 1015MOL0     H33918   7.240   5.154   2.115 -1.2742 -0.9221  0.3315
 1015MOL0     H33919   7.301   5.441   2.036  1.4036  0.2017  0.1525
 1015MOL0     H33920   7.304   5.314   1.907 -0.6295 -1.0207 -0.6777
 1015MOL0     H33921   7.519   5.323   1.968 -1.8178 -0.4545 -1.8947
 1015MOL0     H33922   7.456   5.181   2.071  2.6599  0.4340  1.9082
 1015MOL0     H33923   7.470   5.441   2.183  2.2055 -0.2329 -1.5960
 1015MOL0     H33924   7.453   5.282   2.271  2.1047  0.3520  1.5667
 1015MOL0     H33925   7.699   5.306   2.117 -0.1381  0.2087  0.2926
 1015MOL0     H33926   7.660   5.210   2.246 -0.7079 -0.1619 -2.1819
 1015MOL0     H33927   7.812   5.376   2.294  0.2574 -2.0950  1.0994
 1015MOL0     H33928   7.674   5.397   2.404  2.3452 -0.4435  0.5110
 1015MOL0     H33929   7.678   5.554   2.153  0.4223 -0.3394  0.2325
 1015MOL0     H33930   7.590   5.575   2.304  1.3180  1.6091  2.3109
 1015MOL0     H33931   7.804   5.743   2.259 -0.0102  0.6452 -0.8730
 1015MOL0     H33932   7.898   5.607   2.309 -0.5043 -1.0117 -1.0088
 1015MOL0     H33933   7.834   5.510   2.571 -1.9319 -0.7647  0.3095
 1015MOL0     H33934   7.849   5.632   2.854  0.0142 -1.7886 -0.2002
 1015MOL0     H33935   7.705   5.549   2.811 -1.1277  1.1624  2.1482
 1015MOL0     H33936   7.577   5.765   2.875 -0.2842 -0.5437  1.3407
 1015MOL0     H33937   7.733   5.845   2.883 -1.1412  0.2062 -0.7409
 1015MOL0     H33938   7.769   5.734   3.104  1.1744 -1.5019 -1.5546
 1015MOL0     H33939   7.623   5.838   3.088 -0.7297 -1.9044  2.7418
 1015MOL0     H33940   7.652   5.544   3.111 -1.1693 -0.2073  1.8384
 1015MOL0     H33941   7.512   5.593   3.024  2.0460 -2.4293  1.0055
 1015MOL0     H33942   7.355   5.747   3.025  0.7713 -2.3379 -1.1347
 1015MOL0     H33943   7.124   5.826   3.093 -1.7651 -1.6600  2.2399
 1015MOL0     H33944   6.943   5.934   3.642 -0.0738 -3.9170  1.6228
 1015MOL0     H33945   6.758   6.076   3.727 -0.7616 -1.6946  1.1142
 1015MOL0     H33946   6.395   5.955   3.669 -1.2670  2.5963  2.5555
 1015MOL0     H33947   6.352   6.024   3.507  2.1361 -1.5541 -1.3505
 1015MOL0     H33948   6.304   6.244   3.614  1.7749 -0.6042  0.9913
 1015MOL0     H33949   6.331   6.175   3.775  0.2011 -1.4627 -0.0404
 1015MOL0     H33950   6.137   6.060   3.580 -0.3420  0.0736 -0.5317
 1015MOL0     H33951   6.094   6.195   3.700 -0.4283 -1.3260 -0.0377
 1015MOL0     H33952   6.174   5.909   3.753  0.1083 -0.1525  0.6499
 1015MOL0     H33953   6.182   6.029   3.884 -0.8829  2.0703  0.9348
 1015MOL0     H33954   5.981   5.898   3.891 -1.7976 -1.6513 -1.4751
 1015MOL0     H33955   5.941   5.943   3.724 -1.3763  1.9268 -0.4600
 1015MOL0     H33956   5.893   6.185   3.805 -1.5091 -1.2042 -0.8074
 1015MOL0     H33957   5.958   6.144   3.964 -0.6579  0.0890  0.2032
 1015MOL0     H33958   5.776   5.992   4.008  2.4565  1.0762  1.2558
 1015MOL0     H33959   5.703   6.147   3.942 -0.2543  0.4384 -0.5151
 1015MOL0     H33960   5.695   6.008   3.709 -2.9532 -1.1339 -1.0607
 1015MOL0     H33961   5.575   6.009   3.832  0.7682  0.1513  0.0350
 1015MOL0     H33962   6.505   5.897   3.424 -0.2746  0.5088  1.9753
 1015MOL0     H33963   6.696   5.781   3.326 -0.1731  1.2284 -1.9323
 1015MOL0     H33964   7.192   5.699   3.487  4.2280 -0.1449  2.4890
 1015MOL0     H33965   7.408   5.640   3.443  0.0539  2.0522  2.0381
 1015MOL0     H33966   7.064   5.406   2.446  2.4508  0.4451  0.7625
 1015MOL0     H33967   6.956   5.618   2.481 -1.8521 -2.9552  0.0379
 1015MOL0     H33968   6.684   5.964   2.231 -0.3601  0.4726 -0.3699
 1015MOL0     H33969   6.561   6.158   2.261  0.3973 -0.9637 -1.7336
 1015MOL0     H33970   6.464   6.314   2.416 -1.0642 -1.3475 -2.0760
 1015MOL0     H33971   6.484   6.374   2.243  0.6429  1.7617  0.0159
 1015MOL0     H33972   6.343   6.519   2.394  0.0639 -1.9384  1.8747
 1015MOL0     H33973   6.480   6.554   2.492  0.8324  1.6327 -1.7348
 1015MOL0     H33974   6.445   6.621   2.193 -0.3849 -0.4347  0.5311
 1015MOL0     H33975   6.591   6.652   2.283 -0.0340  0.3745 -2.9511
 1015MOL0     H33976   6.485   6.831   2.419  0.0381  1.1769 -0.9745
 1015MOL0     H33977   6.433   6.869   2.260  0.2610  0.5141  1.4808
 1015MOL0     H33978   6.091   6.746   2.478 -0.3081  0.0808 -2.1463
 1015MOL0     H33979   6.894   6.354   2.468 -4.4320  3.0076  1.4132
 1015MOL0     H33980   7.015   6.122   2.433 -0.0188 -1.8567  0.0699
 1016MOL0     O33981  11.119   0.439  11.229 -0.4224  0.3145 -0.4478
 1016MOL0     C33982  11.149   0.346  11.161 -1.1851  0.0459 -0.0954
 1016MOL0     O33983  11.273   0.327  11.111 -0.0571 -0.1765 -0.1198
 1016MOL0     C33984  11.370   0.418  11.125  0.5198 -1.2013 -0.4642
 1016MOL0     C33985  11.368   0.526  11.036  0.4415 -1.2775  0.3298
 1016MOL0     C33986  11.451   0.634  11.057 -0.2170 -0.1146  0.2017
 1016MOL0     C33987  11.552   0.621  11.158 -0.5576  0.7056 -0.0350
 1016MOL0     O33988  11.638   0.722  11.178 -0.3236 -0.2019  0.4136
 1016MOL0     C33989  11.708   0.760  11.054 -0.3185 -0.5184 -0.2614
 1016MOL0     C33990  11.856   0.784  11.084 -1.5324  0.1253 -0.0756
 1016MOL0     C33991  11.928   0.841  10.968 -0.1289  0.3954  0.0104
 1016MOL0     C33992  12.070   0.846  11.005 -0.7767  0.1214 -0.6488
 1016MOL0     C33993  12.151   0.824  10.875 -0.3445  0.7126  0.9580
 1016MOL0     C33994  12.305   0.832  10.915 -0.5289  0.1709 -0.0354
 1016MOL0     C33995  12.400   0.862  10.801 -0.2787 -0.6096  0.4407
 1016MOL0     C33996  12.394   1.012  10.785 -0.4143 -1.1613 -1.1898
 1016MOL0     N33997  12.491   1.052  10.686  0.0249  0.9831  0.2223
 1016MOL0     C33998  12.537   1.178  10.670 -0.1911  0.3770 -0.2715
 1016MOL0     C33999  12.601   1.164  10.554 -0.0987 -0.6136  0.6904
 1016MOL0     C34000  12.685   1.283  10.498 -0.2387 -0.6779 -0.1432
 1016MOL0     C34001  12.827   1.255  10.467  0.2666  0.2684  0.2570
 1016MOL0     C34002  12.899   1.358  10.380 -0.6591 -0.3144  0.5750
 1016MOL0     C34003  13.046   1.327  10.377  0.4817  0.1669  0.5142
 1016MOL0     O34004  13.069   1.190  10.353 -0.0641  0.1430 -0.7740
 1016MOL0     C34005  13.196   1.176  10.311  0.6748  0.5509  0.7146
 1016MOL0     C34006  13.282   1.114  10.395 -0.3870 -0.1894 -0.7198
 1016MOL0     C34007  13.423   1.090  10.350  0.1240 -0.6383  0.4863
 1016MOL0     C34008  13.467   1.139  10.233 -0.5963 -0.4838 -0.0502
 1016MOL0     C34009  13.612   1.150  10.200 -0.8026  0.2762 -0.4350
 1016MOL0     O34010  13.697   1.055  10.247 -0.1254  0.7146  0.0920
 1016MOL0     C34011  13.830   1.075  10.219 -0.9514 -0.4824  0.2741
 1016MOL0     C34012  13.920   1.053  10.323 -0.8614  0.0031  0.1018
 1016MOL0     C34013  14.054   1.046  10.297 -0.3873  0.6638  0.3159
 1016MOL0     C34014  14.103   1.061  10.167 -0.4092 -0.7025 -0.1910
 1016MOL0     O34015  14.231   1.045  10.125  0.2897 -0.2165 -0.2997
 1016MOL0     C34016  14.335   0.999  10.208  0.1873 -1.0853 -0.0805
 1016MOL0     C34017  14.461   1.077  10.154  0.4267 -0.0596  0.7837
 1016MOL0     C34018  14.530   1.002  10.043  0.6728  0.0365 -0.1588
 1016MOL0     C34019  14.637   1.092   9.974  0.3635  0.4695 -0.3648
 1016MOL0     C34020  14.773   1.014   9.977 -1.1581  0.0616  0.4958
 1016MOL0     C34021  14.895   1.097   9.963 -1.1552 -0.0567 -0.0699
 1016MOL0     C34022  15.033   1.018   9.985  0.2426 -0.6349 -0.4070
 1016MOL0     C34023  15.148   1.118  10.007 -1.0976  0.0942  0.8484
 1016MOL0    Cl34024  15.233   1.199   9.867  0.6261  0.0282 -0.2311
 1016MOL0     C34025  14.009   1.085  10.068  0.4611 -0.2173  0.0181
 1016MOL0     C34026  13.874   1.082  10.088  0.0636 -1.2899 -0.7801
 1016MOL0     O34027  13.643   1.255  10.149  0.3702 -0.0812  0.1430
 1016MOL0     C34028  13.376   1.200  10.145  0.3641 -0.1431  0.3239
 1016MOL0     C34029  13.241   1.222  10.185  0.1048  0.6668 -0.2260
 1016MOL0     N34030  12.587   1.044  10.495  0.5556 -0.3991  0.6026
 1016MOL0     N34031  12.521   0.973  10.581 -0.9384 -0.9548  0.2594
 1016MOL0     C34032  11.554   0.514  11.243  0.0658 -0.1531  0.1955
 1016MOL0     C34033  11.461   0.419  11.229  1.0567  0.0965 -0.5333
 1016MOL0     C34034  11.044   0.253  11.128  0.4609 -1.4153  0.0082
 1016MOL0     C34035  10.910   0.284  11.151  0.0398  0.2373 -0.1345
 1016MOL0     C34036  10.801   0.198  11.108 -0.6818  0.6766  0.8545
 1016MOL0     C34037  10.826   0.079  11.035 -0.7596 -0.6085  0.7040
 1016MOL0     O34038  10.730  -0.006  10.985  0.1597 -0.1754 -0.9181
 1016MOL0     C34039  10.592   0.001  11.026 -0.2776 -0.0042  0.2459
 1016MOL0     C34040  10.520   0.113  10.941 -1.1374 -0.4000  0.2121
 1016MOL0     C34041  10.495   0.076  10.800  0.2917  0.4142  0.2735
 1016MOL0     C34042  10.388  -0.040  10.788 -0.0826 -0.1038 -0.2387
 1016MOL0     C34043  10.299  -0.005  10.680 -0.3038 -0.2464  0.1302
 1016MOL0     C34044  10.229   0.056  10.600 -0.3048 -0.7004  0.3046
 1016MOL0     C34045  10.963   0.044  11.022 -0.7565 -0.8957  0.6722
 1016MOL0     C34046  11.069   0.127  11.066 -0.7815  0.0146 -0.0808
 1016MOL0     H34047  11.295   0.523  10.956  0.1227  1.9547  0.3938
 1016MOL0     H34048  11.421   0.723  11.004 -1.4850 -1.1178 -0.8375
 1016MOL0     H34049  11.665   0.850  11.008  0.1737  0.4321  1.0760
 1016MOL0     H34050  11.709   0.690  10.970  0.7942  1.5353 -2.0690
 1016MOL0     H34051  11.902   0.688  11.111 -0.4165  0.8661  0.7267
 1016MOL0     H34052  11.862   0.857  11.165  2.0193  1.0110 -0.9659
 1016MOL0     H34053  11.899   0.944  10.946 -0.7916  0.5160  1.3153
 1016MOL0     H34054  11.911   0.780  10.879  0.0564 -1.1437  0.9716
 1016MOL0     H34055  12.099   0.939  11.054 -0.3712 -0.6482  0.6311
 1016MOL0     H34056  12.092   0.760  11.069 -1.8512 -0.7991 -1.4748
 1016MOL0     H34057  12.115   0.896  10.802 -4.9327 -2.7557 -0.7181
 1016MOL0     H34058  12.123   0.729  10.828 -0.5058  0.3677  1.7367
 1016MOL0     H34059  12.339   0.735  10.952  2.0021  1.9926  2.9774
 1016MOL0     H34060  12.336   0.902  10.994  0.3173 -0.3543  0.1135
 1016MOL0     H34061  12.500   0.822  10.819 -1.2825 -2.9448  1.1990
 1016MOL0     H34062  12.357   0.823  10.708 -0.4786 -0.1591  0.3383
 1016MOL0     H34063  12.417   1.065  10.878  1.7454 -2.1448 -1.0971
 1016MOL0     H34064  12.297   1.056  10.761  0.4734  1.5949 -0.1357
 1016MOL0     H34065  12.518   1.264  10.734  0.1009  1.4510 -1.5671
 1016MOL0     H34066  12.668   1.374  10.556 -3.3253  0.0713 -2.0088
 1016MOL0     H34067  12.639   1.305  10.401 -0.1325  2.6649  0.4388
 1016MOL0     H34068  12.832   1.159  10.416 -1.1866  0.5837 -0.5253
 1016MOL0     H34069  12.887   1.260  10.558  1.9623  1.2501 -0.8362
 1016MOL0     H34070  12.846   1.360  10.284 -0.8852  0.5542  0.7142
 1016MOL0     H34071  12.898   1.464  10.405 -0.2831 -0.1547 -0.0494
 1016MOL0     H34072  13.080   1.357  10.477  0.9055  2.2314 -0.1915
 1016MOL0     H34073  13.094   1.395  10.307 -0.3561 -2.0367 -2.3704
 1016MOL0     H34074  13.261   1.092  10.499 -1.0337  2.7823 -0.1238
 1016MOL0     H34075  13.486   1.048  10.427 -2.8203 -0.9199  2.9081
 1016MOL0     H34076  13.873   1.042  10.420  1.8387 -1.9538  1.3016
 1016MOL0     H34077  14.125   1.050  10.379  1.5843 -3.2564 -0.9348
 1016MOL0     H34078  14.351   0.891  10.206 -0.5699 -1.4007  3.7057
 1016MOL0     H34079  14.315   1.037  10.309 -1.3801  4.4545 -2.0765
 1016MOL0     H34080  14.530   1.114  10.231 -0.6488 -1.1313  2.3266
 1016MOL0     H34081  14.430   1.171  10.107  2.7147  1.1330  1.5069
 1016MOL0     H34082  14.460   0.975   9.964 -0.6801  0.1565  0.9528
 1016MOL0     H34083  14.565   0.908  10.088 -1.9027 -0.4788  0.9382
 1016MOL0     H34084  14.616   1.105   9.867  1.3888 -0.7537 -0.7388
 1016MOL0     H34085  14.648   1.190  10.022  8.2967  0.2260 -0.4867
 1016MOL0     H34086  14.776   0.940   9.896 -1.5635  2.0845 -1.4568
 1016MOL0     H34087  14.783   0.960  10.072  1.7502  0.1967  0.3736
 1016MOL0     H34088  14.889   1.172  10.043  0.3361 -1.6694  1.6537
 1016MOL0     H34089  14.902   1.154   9.870 -1.8914  0.8985  0.4445
 1016MOL0     H34090  15.004   0.973  10.080 -0.7866 -1.8192 -1.2475
 1016MOL0     H34091  15.030   0.938   9.911  1.5877 -0.8435 -0.2514
 1016MOL0     H34092  15.230   1.060  10.052 -2.3570 -1.0893  1.7000
 1016MOL0     H34093  15.122   1.200  10.074  1.1230 -0.7480  2.9302
 1016MOL0     H34094  14.045   1.092   9.966  0.0391 -1.3826 -0.2305
 1016MOL0     H34095  13.808   1.113  10.007  0.3960  2.6636  0.2502
 1016MOL0     H34096  13.416   1.240  10.052 -1.4464 -0.1447 -0.5116
 1016MOL0     H34097  13.175   1.241  10.101  0.0316 -1.6736 -0.7871
 1016MOL0     H34098  11.632   0.517  11.319  0.8757 -2.6062 -0.4493
 1016MOL0     H34099  11.470   0.339  11.301  1.0739  0.0551 -0.5807
 1016MOL0     H34100  10.866   0.375  11.189 -0.8267 -0.8859  1.6692
 1016MOL0     H34101  10.700   0.226  11.136 -0.7988  0.5331  0.5789
 1016MOL0     H34102  10.580   0.023  11.133  0.2980  0.8276  0.1483
 1016MOL0     H34103  10.544  -0.096  11.014 -1.9303 -0.7349  7.5844
 1016MOL0     H34104  10.419   0.126  10.982 -1.7608  1.7490 -1.7994
 1016MOL0     H34105  10.577   0.205  10.947  0.1874 -1.1701 -0.1035
 1016MOL0     H34106  10.587   0.035  10.757 -0.4757 -3.9726  2.2472
 1016MOL0     H34107  10.465   0.166  10.745 -0.4200 -0.3043 -0.5573
 1016MOL0     H34108  10.446  -0.131  10.770 -0.4188 -0.3902  0.1186
 1016MOL0     H34109  10.331  -0.052  10.881 -1.7538  2.1545 -0.8635
 1016MOL0     H34110  10.160   0.101  10.531 -0.9016 -1.2610  0.5202
 1016MOL0     H34111  10.980  -0.053  10.976  3.0407  0.5379 -1.4016
 1016MOL0     H34112  11.171   0.098  11.044  0.0428 -0.4861  3.7813
 1017MOL0     O34113  10.615   5.533   9.811  0.3852  0.0841  0.0719
 1017MOL0     C34114  10.621   5.489   9.931  0.3051 -0.0097  0.4139
 1017MOL0     O34115  10.522   5.420   9.994  0.1488  0.5904 -1.0769
 1017MOL0     C34116  10.412   5.400   9.919 -0.4337  1.0177 -0.2339
 1017MOL0     C34117  10.296   5.460   9.945 -0.3561 -0.2366  1.0560
 1017MOL0     C34118  10.187   5.459   9.868  0.1706 -0.5389 -0.3013
 1017MOL0     C34119  10.187   5.395   9.750 -0.4812  0.9902  0.8177
 1017MOL0     O34120  10.087   5.393   9.655 -0.4816  0.5454  0.4436
 1017MOL0     C34121   9.990   5.488   9.685  0.7240 -1.2656  0.0311
 1017MOL0     C34122   9.880   5.469   9.583 -0.5416 -0.4078 -0.2610
 1017MOL0     C34123   9.757   5.559   9.627  0.4759  0.3233 -0.1380
 1017MOL0     C34124   9.760   5.711   9.596  0.1386  1.2661 -0.0240
 1017MOL0     C34125   9.618   5.771   9.620 -0.4778 -0.3084  0.8555
 1017MOL0     C34126   9.576   5.777   9.761  0.2809 -0.2061 -0.0849
 1017MOL0     C34127   9.441   5.850   9.789  0.3561  0.4259 -0.3695
 1017MOL0     C34128   9.326   5.745   9.792 -0.5000  0.1534 -0.3220
 1017MOL0     N34129   9.303   5.668   9.674  0.3958  0.1191  0.5041
 1017MOL0     C34130   9.227   5.726   9.574 -0.0388 -0.0323  0.8382
 1017MOL0     C34131   9.232   5.636   9.475  0.2348  0.3334  0.1598
 1017MOL0     C34132   9.186   5.659   9.334 -0.6329  0.7476 -0.3885
 1017MOL0     C34133   9.027   5.687   9.327  0.3579  0.6802 -0.6854
 1017MOL0     C34134   8.989   5.823   9.393  0.3652 -0.5241  0.0609
 1017MOL0     C34135   8.857   5.867   9.347 -0.2478 -0.3975 -0.7340
 1017MOL0     O34136   8.745   5.775   9.357  0.0412 -0.3242  0.7681
 1017MOL0     C34137   8.641   5.785   9.269 -0.3555 -0.9567 -0.1776
 1017MOL0     C34138   8.615   5.904   9.204 -0.0781 -0.5068 -0.1935
 1017MOL0     C34139   8.514   5.908   9.109 -0.7543  0.1806 -0.5297
 1017MOL0     C34140   8.424   5.793   9.094 -0.2213  0.5540 -0.2431
 1017MOL0     C34141   8.308   5.794   9.007  0.4852 -0.9942  0.7038
 1017MOL0     O34142   8.226   5.686   9.007  0.3227  0.4163  0.5042
 1017MOL0     C34143   8.099   5.713   8.977 -0.0491 -0.1379  0.0537
 1017MOL0     C34144   8.045   5.668   8.854 -0.0745 -0.5923 -0.4580
 1017MOL0     C34145   7.915   5.692   8.827  0.7359 -0.0808 -0.3980
 1017MOL0     C34146   7.834   5.755   8.918 -0.0307 -0.5024 -0.2320
 1017MOL0     O34147   7.701   5.795   8.901 -0.1375  0.0811 -0.0775
 1017MOL0     C34148   7.630   5.733   8.789 -0.3059  0.4239 -0.0737
 1017MOL0     C34149   7.662   5.832   8.681 -0.4331  0.7041 -0.4368
 1017MOL0     C34150   7.607   5.772   8.545  0.4238 -0.5525  0.5600
 1017MOL0     C34151   7.596   5.871   8.426  0.0836  0.5037  0.4630
 1017MOL0     C34152   7.556   5.809   8.294  0.5719 -0.5087  0.2007
 1017MOL0     C34153   7.471   5.906   8.209  0.6637  0.6278  0.2053
 1017MOL0     C34154   7.442   5.845   8.069  0.1513  0.1773  1.9090
 1017MOL0     C34155   7.561   5.801   7.989  0.1647 -0.7144 -0.5844
 1017MOL0    Cl34156   7.673   5.934   7.963 -0.0093  0.4806  0.0479
 1017MOL0     C34157   7.889   5.817   9.029 -0.2138  0.7402  1.0123
 1017MOL0     C34158   8.023   5.792   9.061  0.1290  0.9284 -0.6846
 1017MOL0     O34159   8.291   5.901   8.942  1.3339 -0.3691  0.1066
 1017MOL0     C34160   8.447   5.687   9.179 -0.5778 -0.5400 -0.1026
 1017MOL0     C34161   8.560   5.677   9.255  0.6413 -0.4163  0.3277
 1017MOL0     N34162   9.319   5.531   9.514 -0.7093  0.4525  0.8837
 1017MOL0     N34163   9.356   5.551   9.637 -0.0658  0.2068  0.3220
 1017MOL0     C34164  10.307   5.324   9.721  0.5247  0.3902 -0.3290
 1017MOL0     C34165  10.419   5.321   9.804 -0.1832 -0.3736 -0.4481
 1017MOL0     C34166  10.756   5.492  10.002  0.0054 -0.5435 -0.5797
 1017MOL0     C34167  10.863   5.566   9.953 -0.4009  0.5738 -0.6951
 1017MOL0     C34168  10.994   5.581  10.024  1.0832  0.7884 -0.1103
 1017MOL0     C34169  11.019   5.503  10.134 -0.2456 -0.0902 -0.2489
 1017MOL0     O34170  11.141   5.512  10.199  0.4075 -0.9189  0.1562
 1017MOL0     C34171  11.190   5.409  10.288 -0.0149 -0.4104  1.1708
 1017MOL0     C34172  11.336   5.386  10.267  0.5549  1.0755  0.5037
 1017MOL0     C34173  11.386   5.343  10.127  0.3175  0.0626 -0.4327
 1017MOL0     C34174  11.293   5.243  10.051 -1.1046  0.1833  0.2733
 1017MOL0     C34175  11.258   5.127  10.127 -0.9936  0.2198 -0.5488
 1017MOL0     C34176  11.236   5.023  10.185  0.0420 -0.9013  0.3008
 1017MOL0     C34177  10.912   5.414  10.174 -0.9274 -0.7843 -0.4473
 1017MOL0     C34178  10.793   5.414  10.114  0.1502  1.0272 -0.6356
 1017MOL0     H34179  10.287   5.526  10.031 -0.2760  1.6376 -0.2989
 1017MOL0     H34180  10.106   5.518   9.911 -0.7755 -3.2367  1.8883
 1017MOL0     H34181  10.015   5.594   9.693  0.3157 -1.2197  0.8438
 1017MOL0     H34182   9.939   5.459   9.777 -0.6826 -1.6333 -0.8319
 1017MOL0     H34183   9.853   5.363   9.579 -0.0018 -0.5172 -1.6770
 1017MOL0     H34184   9.912   5.494   9.481 -2.9845 -1.1274 -1.3044
 1017MOL0     H34185   9.741   5.542   9.734 -2.6639  3.5268  0.1003
 1017MOL0     H34186   9.677   5.513   9.568  2.9040 -3.2931 -0.9446
 1017MOL0     H34187   9.844   5.754   9.650 -0.3234  0.3603  1.4786
 1017MOL0     H34188   9.772   5.720   9.488 -5.4565  2.1251 -0.9118
 1017MOL0     H34189   9.546   5.723   9.554 -2.0379  4.3095 -1.2006
 1017MOL0     H34190   9.622   5.877   9.595 -2.8025 -0.2692  0.4833
 1017MOL0     H34191   9.652   5.822   9.826 -0.7064  1.3453  0.0441
 1017MOL0     H34192   9.558   5.674   9.794  0.7244  0.7613  3.7277
 1017MOL0     H34193   9.432   5.904   9.884  0.2018 -0.9442  0.4141
 1017MOL0     H34194   9.429   5.917   9.704 -0.7403  1.5898  0.6535
 1017MOL0     H34195   9.235   5.802   9.814  0.1897  1.2806 -0.2914
 1017MOL0     H34196   9.339   5.695   9.888  2.0848 -0.7256 -1.0648
 1017MOL0     H34197   9.196   5.830   9.565  0.2603  0.0528  0.7652
 1017MOL0     H34198   9.202   5.571   9.271 -3.1898 -0.2234  0.1750
 1017MOL0     H34199   9.240   5.737   9.279 -2.4491  1.7686 -0.8087
 1017MOL0     H34200   8.981   5.611   9.391 -4.9095  1.6061 -2.8398
 1017MOL0     H34201   8.993   5.676   9.224 -1.4122 -0.3955 -0.0323
 1017MOL0     H34202   8.967   5.808   9.498  1.1835 -3.1187 -0.0813
 1017MOL0     H34203   9.055   5.908   9.370 -1.9669  2.0885  2.2925
 1017MOL0     H34204   8.868   5.891   9.241 -0.9070 -0.3678 -0.8010
 1017MOL0     H34205   8.841   5.965   9.393  0.8910 -0.3471 -0.4178
 1017MOL0     H34206   8.675   5.992   9.225 -1.9871  0.8857 -0.3369
 1017MOL0     H34207   8.488   6.010   9.081 -0.0721  0.7531  0.8281
 1017MOL0     H34208   8.103   5.603   8.788  0.9252  0.3939 -0.5812
 1017MOL0     H34209   7.867   5.652   8.738 -1.6530  0.7625  0.4368
 1017MOL0     H34210   7.521   5.732   8.795 -0.2886 -1.7799  0.7289
 1017MOL0     H34211   7.668   5.631   8.780 -0.0242  0.6032 -1.0984
 1017MOL0     H34212   7.769   5.854   8.669  0.9278 -3.5752  2.0156
 1017MOL0     H34213   7.612   5.929   8.688  0.6615  1.2372  0.2617
 1017MOL0     H34214   7.507   5.744   8.579  0.8025 -0.8454  1.4710
 1017MOL0     H34215   7.662   5.686   8.506  1.7606  1.0579 -1.2657
 1017MOL0     H34216   7.521   5.947   8.449 -0.4489 -0.1787  0.9804
 1017MOL0     H34217   7.685   5.933   8.411  1.1593 -0.8841  0.8923
 1017MOL0     H34218   7.502   5.715   8.308  3.6680 -2.4745 -0.0641
 1017MOL0     H34219   7.649   5.780   8.243 -0.0951 -0.5858 -1.0140
 1017MOL0     H34220   7.523   6.000   8.190  1.6400 -0.4243 -3.1275
 1017MOL0     H34221   7.372   5.924   8.252 -0.8090 -0.6724 -2.4020
 1017MOL0     H34222   7.371   5.763   8.078 -0.2207  0.1575 -0.5127
 1017MOL0     H34223   7.404   5.924   8.003  0.6603 -0.6922  0.5195
 1017MOL0     H34224   7.538   5.749   7.895  5.3033 -3.4069 -0.7457
 1017MOL0     H34225   7.610   5.718   8.040 -0.1150 -0.8046 -0.4604
 1017MOL0     H34226   7.817   5.869   9.092 -0.5940 -0.6665  1.7922
 1017MOL0     H34227   8.065   5.826   9.155 -1.7386 -3.3602  1.9899
 1017MOL0     H34228   8.376   5.605   9.181 -0.6136 -0.5419 -1.0121
 1017MOL0     H34229   8.569   5.583   9.309  1.0470 -0.7465 -0.3035
 1017MOL0     H34230  10.314   5.293   9.617  0.7507  4.5392 -1.7405
 1017MOL0     H34231  10.507   5.267   9.770  1.6606  1.4845  1.1408
 1017MOL0     H34232  10.840   5.615   9.858 -0.7382  1.9016  0.0457
 1017MOL0     H34233  11.072   5.647   9.987  3.0856 -0.8342  1.0290
 1017MOL0     H34234  11.137   5.315  10.272 -0.1048 -0.3474  1.0891
 1017MOL0     H34235  11.171   5.423  10.395 -1.1583 -1.4532  1.1233
 1017MOL0     H34236  11.394   5.470  10.306  0.8376  1.6143 -1.0025
 1017MOL0     H34237  11.362   5.306  10.337  1.7935 -1.2287 -2.3628
 1017MOL0     H34238  11.484   5.296  10.144 -1.4826 -3.1954  2.1001
 1017MOL0     H34239  11.401   5.432  10.066  0.3011 -0.0028 -0.5339
 1017MOL0     H34240  11.197   5.293  10.035 -0.6169  2.3937  3.2369
 1017MOL0     H34241  11.351   5.212   9.964 -1.2071 -3.2882  1.2917
 1017MOL0     H34242  11.207   4.933  10.237 -2.8663  0.7667  1.8449
 1017MOL0     H34243  10.920   5.358  10.267  4.2246  0.6987  0.3267
 1017MOL0     H34244  10.715   5.353  10.159  1.2356  0.4686  0.5401
 1018MOL0     O34245   9.071   1.187   1.928  0.3305  0.4207 -0.9556
 1018MOL0     C34246   9.163   1.256   1.880  0.1918  0.2806 -0.3099
 1018MOL0     O34247   9.147   1.373   1.828 -0.2471 -0.4648  0.7139
 1018MOL0     C34248   9.034   1.428   1.797 -0.2666 -0.4520  0.4918
 1018MOL0     C34249   8.967   1.410   1.673  0.9497  0.0806 -0.3437
 1018MOL0     C34250   8.841   1.472   1.645  0.5825  0.2389 -0.4807
 1018MOL0     C34251   8.773   1.562   1.734  0.3621 -0.0689 -0.2166
 1018MOL0     O34252   8.639   1.622   1.720 -0.1229  0.6075  0.5125
 1018MOL0     C34253   8.543   1.550   1.638  0.1880 -0.1277  0.5891
 1018MOL0     C34254   8.422   1.644   1.604  0.4880 -0.5751 -0.0233
 1018MOL0     C34255   8.345   1.582   1.489 -0.0287  0.9033  0.2088
 1018MOL0     C34256   8.240   1.686   1.436 -0.2539 -0.0774 -1.0595
 1018MOL0     C34257   8.307   1.770   1.320  0.4789  0.4472  0.5615
 1018MOL0     C34258   8.300   1.679   1.195 -0.0174 -0.1656  0.3707
 1018MOL0     C34259   8.163   1.661   1.132  0.6633  0.3693 -0.0074
 1018MOL0     C34260   8.148   1.524   1.071 -0.5468 -0.5488  0.4222
 1018MOL0     N34261   8.008   1.483   1.036 -0.4565 -0.0306  0.3795
 1018MOL0     C34262   7.884   1.495   1.089  0.3379 -0.2786  0.3417
 1018MOL0     C34263   7.795   1.485   0.987 -0.6578  0.0119  0.7182
 1018MOL0     C34264   7.648   1.499   0.995  0.6850  0.2815  0.6066
 1018MOL0     C34265   7.603   1.631   1.044  0.1168 -0.6862  0.3357
 1018MOL0     C34266   7.549   1.620   1.184  1.1999  1.2712  0.5953
 1018MOL0     C34267   7.465   1.740   1.237  0.2166 -0.8111  0.4537
 1018MOL0     O34268   7.338   1.745   1.169  0.1448 -0.2360 -0.0052
 1018MOL0     C34269   7.267   1.861   1.173 -0.4273 -0.4848  0.8938
 1018MOL0     C34270   7.293   1.973   1.255  0.7204  0.0774  0.2423
 1018MOL0     C34271   7.222   2.087   1.250  1.0441 -0.1009  0.9213
 1018MOL0     C34272   7.114   2.091   1.158 -0.2896  0.1088 -0.0686
 1018MOL0     C34273   7.030   2.210   1.154 -1.4552  0.8058 -0.8620
 1018MOL0     O34274   6.902   2.180   1.111 -0.2549 -0.0838 -1.0471
 1018MOL0     C34275   6.801   2.281   1.101  0.6815 -0.1305  0.5566
 1018MOL0     C34276   6.686   2.258   1.035 -0.4511  0.1308  0.0027
 1018MOL0     C34277   6.577   2.351   1.030  0.2275  0.2846 -0.1616
 1018MOL0     C34278   6.581   2.472   1.091  0.3171 -0.0753  0.8884
 1018MOL0     O34279   6.477   2.560   1.069  0.0923 -0.1407  0.0836
 1018MOL0     C34280   6.483   2.638   0.952 -0.6409  0.2625  0.1115
 1018MOL0     C34281   6.412   2.763   0.976 -0.7247 -0.7407  0.5652
 1018MOL0     C34282   6.490   2.845   1.075 -0.2654 -1.1714 -0.6172
 1018MOL0     C34283   6.401   2.962   1.124  0.2698  0.7313 -0.2602
 1018MOL0     C34284   6.488   3.081   1.171 -0.6709  0.7522 -0.1921
 1018MOL0     C34285   6.412   3.207   1.196 -1.1010  0.5008 -0.2496
 1018MOL0     C34286   6.345   3.277   1.072  0.2784 -0.0113  0.8532
 1018MOL0     C34287   6.454   3.321   0.978 -0.7927 -0.3405 -0.2548
 1018MOL0    Cl34288   6.370   3.420   0.850  0.0621  0.1211  0.4941
 1018MOL0     C34289   6.690   2.495   1.173  0.3058  1.0082  0.3023
 1018MOL0     C34290   6.804   2.405   1.172 -0.3374 -0.5022 -0.5881
 1018MOL0     O34291   7.082   2.323   1.180 -1.0039  1.0504 -0.1808
 1018MOL0     C34292   7.085   1.983   1.079  0.8490 -0.0185  0.6795
 1018MOL0     C34293   7.162   1.861   1.081 -0.3177  0.6464 -0.3309
 1018MOL0     N34294   7.860   1.456   0.865 -0.1698 -0.7136  0.2219
 1018MOL0     N34295   7.986   1.460   0.898 -0.3951 -0.2853 -0.1765
 1018MOL0     C34296   8.850   1.593   1.855 -0.1019 -0.4820 -0.2085
 1018MOL0     C34297   8.970   1.529   1.885 -0.9240  0.8388 -0.5081
 1018MOL0     C34298   9.302   1.208   1.899 -0.4308  0.4590 -0.2453
 1018MOL0     C34299   9.330   1.100   1.976  0.2013  0.4639  0.2185
 1018MOL0     C34300   9.461   1.053   1.996  0.3985  0.2657 -0.1448
 1018MOL0     C34301   9.564   1.122   1.930 -0.3625  0.1252 -0.1694
 1018MOL0     O34302   9.699   1.097   1.941 -0.0980 -0.1789  0.6069
 1018MOL0     C34303   9.736   0.984   2.018  0.7403  0.7013 -0.1398
 1018MOL0     C34304   9.888   0.960   2.014  0.2370  0.2837  0.3771
 1018MOL0     C34305   9.917   0.838   2.102  0.2671  0.0535 -0.3352
 1018MOL0     C34306  10.059   0.842   2.143  0.6915 -0.6325  0.0017
 1018MOL0     C34307  10.132   0.816   2.020 -1.0653  0.8659 -0.5355
 1018MOL0     C34308  10.180   0.774   1.916  0.9712 -0.0122  0.7434
 1018MOL0     C34309   9.539   1.236   1.850  0.2388  0.4937 -0.2967
 1018MOL0     C34310   9.409   1.281   1.838  0.4697 -0.2564 -0.4846
 1018MOL0     H34311   9.011   1.333   1.611  0.1485  0.2160 -1.1084
 1018MOL0     H34312   8.798   1.438   1.551  1.8754 -0.3386 -0.8979
 1018MOL0     H34313   8.515   1.470   1.706 -0.2484  0.6143  1.2979
 1018MOL0     H34314   8.590   1.512   1.547 -0.6898 -1.4284  0.6602
 1018MOL0     H34315   8.471   1.737   1.572  1.4211 -0.5205  1.4571
 1018MOL0     H34316   8.361   1.656   1.694  1.3974  2.4516  0.3035
 1018MOL0     H34317   8.300   1.488   1.521  1.1135  0.0035 -0.7547
 1018MOL0     H34318   8.417   1.560   1.409 -1.4307  0.5965 -1.0060
 1018MOL0     H34319   8.169   1.622   1.383 -0.4623  0.8384 -1.9197
 1018MOL0     H34320   8.201   1.749   1.516  1.2004  1.8501 -1.7969
 1018MOL0     H34321   8.411   1.791   1.347  0.7338  0.4143 -0.3664
 1018MOL0     H34322   8.248   1.859   1.294  2.0323  1.1733 -0.6699
 1018MOL0     H34323   8.345   1.583   1.223 -0.9682 -0.6004  0.4252
 1018MOL0     H34324   8.363   1.714   1.113  1.4842 -2.0457  0.6327
 1018MOL0     H34325   8.082   1.670   1.206  1.2441  2.8648  0.4337
 1018MOL0     H34326   8.146   1.728   1.047  0.7427 -0.0414 -0.3468
 1018MOL0     H34327   8.187   1.458   1.149  1.0381  1.4747  1.4561
 1018MOL0     H34328   8.223   1.509   0.992  0.8087  3.2376  0.7934
 1018MOL0     H34329   7.858   1.516   1.193  1.3760 -2.7261  1.1631
 1018MOL0     H34330   7.610   1.417   1.057 -1.2142 -1.8135 -2.9674
 1018MOL0     H34331   7.605   1.484   0.896 -0.7360  2.6124  0.7905
 1018MOL0     H34332   7.541   1.665   0.961 -0.4768 -0.9303  0.6654
 1018MOL0     H34333   7.689   1.698   1.044  0.9290 -1.7149  0.5693
 1018MOL0     H34334   7.490   1.533   1.216  0.6112  2.7277  3.9684
 1018MOL0     H34335   7.639   1.605   1.246  2.5144  1.4701 -1.1894
 1018MOL0     H34336   7.525   1.831   1.231 -0.0094 -0.4348  2.8202
 1018MOL0     H34337   7.438   1.732   1.343 -1.5087 -1.8135 -0.0253
 1018MOL0     H34338   7.372   1.967   1.330 -0.4910  0.5252  1.6017
 1018MOL0     H34339   7.243   2.176   1.308  1.1382  0.4141  0.1141
 1018MOL0     H34340   6.668   2.159   0.994  0.2392 -0.8807  1.9921
 1018MOL0     H34341   6.494   2.322   0.967  0.5745  1.6026 -1.2781
 1018MOL0     H34342   6.433   2.576   0.877  1.3013 -1.8241  0.4204
 1018MOL0     H34343   6.582   2.663   0.914 -0.5856  1.9408  1.2729
 1018MOL0     H34344   6.313   2.745   1.021  0.9205 -3.5676  3.5502
 1018MOL0     H34345   6.406   2.816   0.881  1.0620 -2.7213 -0.7622
 1018MOL0     H34346   6.578   2.880   1.021  0.2623 -1.4893  0.0199
 1018MOL0     H34347   6.519   2.793   1.167 -1.9629 -0.0733  0.6095
 1018MOL0     H34348   6.336   2.981   1.037 -3.8562 -1.3770  2.0576
 1018MOL0     H34349   6.341   2.932   1.210  3.2117 -1.0086  1.3539
 1018MOL0     H34350   6.574   3.104   1.107 -0.0451 -2.6685 -0.8020
 1018MOL0     H34351   6.540   3.048   1.262 -0.8653  1.9114  0.3551
 1018MOL0     H34352   6.479   3.285   1.232 -1.4678 -0.6621  3.3772
 1018MOL0     H34353   6.339   3.194   1.277 -1.6739  2.2017 -0.4496
 1018MOL0     H34354   6.277   3.212   1.016  2.2485  0.4444 -2.2996
 1018MOL0     H34355   6.286   3.361   1.108  0.4643 -0.0227  1.1912
 1018MOL0     H34356   6.508   3.233   0.943  1.9813  1.2527 -0.2093
 1018MOL0     H34357   6.520   3.395   1.022 -0.9372 -1.3193  1.7322
 1018MOL0     H34358   6.706   2.587   1.228 -1.4488  1.8188 -0.4630
 1018MOL0     H34359   6.891   2.429   1.232  1.5309 -1.3912 -2.7753
 1018MOL0     H34360   7.011   1.980   0.999  1.7295 -2.3316 -0.1457
 1018MOL0     H34361   7.132   1.780   1.016 -0.4801  1.0577 -0.7753
 1018MOL0     H34362   8.807   1.664   1.924  1.6030 -1.1109  1.5983
 1018MOL0     H34363   9.020   1.540   1.981 -0.8473 -0.8940 -0.3262
 1018MOL0     H34364   9.257   1.049   2.038  1.4865  0.4508  1.7908
 1018MOL0     H34365   9.485   0.963   2.052 -0.4932  0.1648  0.1067
 1018MOL0     H34366   9.675   0.895   1.999 -2.4008  2.7484 -0.2801
 1018MOL0     H34367   9.707   1.005   2.121 -0.2031 -4.8794  1.0390
 1018MOL0     H34368   9.930   0.934   1.917  4.7875 -1.1263  2.4405
 1018MOL0     H34369   9.930   1.060   2.033 -1.9642  1.9119 -2.4838
 1018MOL0     H34370   9.887   0.746   2.053  0.7467 -0.1297 -0.2951
 1018MOL0     H34371   9.850   0.847   2.187 -1.0698 -1.0326 -1.2470
 1018MOL0     H34372  10.088   0.931   2.199  1.9032 -0.6517 -0.5693
 1018MOL0     H34373  10.077   0.764   2.218 -2.2039  1.0852  2.7724
 1018MOL0     H34374  10.224   0.729   1.829  1.0481  0.1770  0.6846
 1018MOL0     H34375   9.628   1.291   1.821  0.5053 -0.2917 -1.0160
 1018MOL0     H34376   9.384   1.373   1.787 -3.4277 -1.1118 -0.3845
 1019MOL0     O34377   1.713  10.311   8.747 -0.5233 -0.1484  0.3290
 1019MOL0     C34378   1.706  10.332   8.627 -0.5176  0.1369 -0.0244
 1019MOL0     O34379   1.594  10.333   8.558 -0.9820 -0.0125  0.1568
 1019MOL0     C34380   1.472  10.290   8.601 -0.3042 -0.2249  0.6708
 1019MOL0     C34381   1.367  10.316   8.510 -0.1895 -0.0805 -0.8023
 1019MOL0     C34382   1.233  10.304   8.551  0.6145 -0.5830  0.1320
 1019MOL0     C34383   1.194  10.260   8.677  0.0219 -0.8636  0.7692
 1019MOL0     O34384   1.061  10.246   8.721 -0.2570 -0.2435  0.7861
 1019MOL0     C34385   0.980  10.364   8.719  0.0849  0.1176  0.1391
 1019MOL0     C34386   0.865  10.350   8.821 -0.8764 -0.3415 -0.6670
 1019MOL0     C34387   0.767  10.466   8.825  0.5688  0.0484  0.6070
 1019MOL0     C34388   0.651  10.456   8.930  0.7980  1.0730 -0.2274
 1019MOL0     C34389   0.556  10.574   8.935 -1.2212  0.0577  0.5191
 1019MOL0     C34390   0.414  10.560   8.995 -0.4889  0.5724  0.5238
 1019MOL0     C34391   0.344  10.688   8.981  0.2020  0.1596 -0.0567
 1019MOL0     C34392   0.210  10.682   9.050  0.2074  0.4428 -0.4274
 1019MOL0     N34393   0.221  10.688   9.196  0.0961  1.4259 -0.1806
 1019MOL0     C34394   0.117  10.680   9.290 -0.0362 -0.3441 -0.1407
 1019MOL0     C34395   0.175  10.717   9.404 -0.3571 -0.8398  0.5642
 1019MOL0     C34396   0.108  10.747   9.535  0.3833 -0.3825 -0.5420
 1019MOL0     C34397   0.129  10.899   9.574 -0.4675  0.1670 -0.0418
 1019MOL0     C34398   0.110  10.930   9.734 -0.1642  0.6435 -0.2157
 1019MOL0     C34399   0.175  11.067   9.759 -0.7854  0.2759  0.2369
 1019MOL0     O34400   0.145  11.124   9.890  0.2780  0.1924  0.1267
 1019MOL0     C34401   0.030  11.204   9.890  0.3633 -0.7646 -0.0406
 1019MOL0     C34402  -0.098  11.157   9.940  0.1669  0.6501 -0.1838
 1019MOL0     C34403  -0.199  11.245   9.959  0.1550 -0.3663  0.0018
 1019MOL0     C34404  -0.188  11.376   9.904  0.2683  0.2234 -0.2312
 1019MOL0     C34405  -0.303  11.468   9.923 -0.2417 -0.4740 -0.0405
 1019MOL0     O34406  -0.418  11.428   9.980 -0.1289  0.3089 -0.1442
 1019MOL0     C34407  -0.512  11.521  10.004  0.4663  0.1003  0.7915
 1019MOL0     C34408  -0.522  11.571  10.134 -0.2641 -0.2012  0.5033
 1019MOL0     C34409  -0.608  11.669  10.161 -0.4056  0.3064 -0.2451
 1019MOL0     C34410  -0.690  11.727  10.068  0.1016 -0.2392  0.5897
 1019MOL0     O34411  -0.779  11.829  10.119 -0.4209 -0.5221 -0.6922
 1019MOL0     C34412  -0.860  11.912  10.033 -0.3320  0.6918  0.4834
 1019MOL0     C34413  -0.836  12.050  10.088  0.0805  0.2032  0.5658
 1019MOL0     C34414  -0.879  12.080  10.239 -0.4421  0.3872  0.3621
 1019MOL0     C34415  -0.846  12.219  10.294 -0.3916 -0.8274 -0.3284
 1019MOL0     C34416  -0.930  12.330  10.241 -0.0322  0.0578  0.6003
 1019MOL0     C34417  -1.042  12.385  10.329  0.1161  0.1500  0.1102
 1019MOL0     C34418  -1.148  12.283  10.362  0.0250  0.2818 -0.2566
 1019MOL0     C34419  -1.259  12.324  10.455 -0.1837  0.2313  0.5572
 1019MOL0    Cl34420  -1.336  12.184  10.528  0.4299 -0.0620 -0.4319
 1019MOL0     C34421  -0.679  11.686   9.932  0.4167  0.7439 -0.5273
 1019MOL0     C34422  -0.594  11.581   9.904 -0.2531  0.1964  0.5055
 1019MOL0     O34423  -0.290  11.586   9.878  0.2870  0.5167 -0.0578
 1019MOL0     C34424  -0.067  11.413   9.843 -0.5246 -0.0274 -0.4020
 1019MOL0     C34425   0.042  11.332   9.841  0.1761  0.2189  0.4959
 1019MOL0     N34426   0.309  10.738   9.382 -0.1226 -0.0859  0.3001
 1019MOL0     N34427   0.343  10.722   9.252  0.7223  0.3993  0.3577
 1019MOL0     C34428   1.299  10.208   8.756 -0.1073  0.2695  1.0782
 1019MOL0     C34429   1.436  10.227   8.720 -0.1047 -0.8567  0.1255
 1019MOL0     C34430   1.824  10.376   8.555  0.1819  0.1334  0.7102
 1019MOL0     C34431   1.946  10.370   8.615 -0.4657  0.1623 -0.2881
 1019MOL0     C34432   2.060  10.414   8.540 -0.2045  0.4738  0.0499
 1019MOL0     C34433   2.056  10.450   8.405  0.5284  0.1465 -0.8966
 1019MOL0     O34434   2.179  10.464   8.346  0.2821  0.3400 -0.0207
 1019MOL0     C34435   2.175  10.496   8.203 -0.7963  0.5852  0.6281
 1019MOL0     C34436   2.328  10.510   8.183 -0.2984 -0.3463  0.7439
 1019MOL0     C34437   2.407  10.615   8.271 -0.4245 -0.0112 -0.0342
 1019MOL0     C34438   2.552  10.576   8.281  1.3440  0.3897  0.3484
 1019MOL0     C34439   2.629  10.685   8.348  0.7364  0.6456  0.4377
 1019MOL0     C34440   2.678  10.779   8.404 -0.0483 -0.7274 -0.4565
 1019MOL0     C34441   1.928  10.454   8.340 -0.1474  0.2859  0.1728
 1019MOL0     C34442   1.820  10.408   8.421  0.0907  0.4341  0.2841
 1019MOL0     H34443   1.405  10.363   8.419  2.8703 -2.6205 -1.0382
 1019MOL0     H34444   1.159  10.345   8.484 -0.2774  3.7331  3.2895
 1019MOL0     H34445   0.927  10.372   8.624 -0.2313  1.6194  0.4169
 1019MOL0     H34446   1.035  10.457   8.737 -0.7036  1.0566 -1.9459
 1019MOL0     H34447   0.915  10.328   8.915  1.8862  1.8859 -1.4438
 1019MOL0     H34448   0.818  10.262   8.778  0.3445  0.4225 -3.9266
 1019MOL0     H34449   0.731  10.475   8.722  1.4988 -1.4877  0.1203
 1019MOL0     H34450   0.829  10.553   8.847  0.4940  1.2097 -3.0976
 1019MOL0     H34451   0.588  10.373   8.898  1.0532  0.7686  0.0621
 1019MOL0     H34452   0.695  10.442   9.029 -1.6524 -4.2036  0.4603
 1019MOL0     H34453   0.545  10.604   8.830  1.3732  0.1724  0.2225
 1019MOL0     H34454   0.610  10.651   8.990 -0.6993  1.1605 -1.4470
 1019MOL0     H34455   0.425  10.526   9.098  0.9729  0.4977  0.3695
 1019MOL0     H34456   0.346  10.488   8.949 -0.6442 -0.3327  2.0854
 1019MOL0     H34457   0.398  10.777   9.015 -4.1729  2.5497  1.4712
 1019MOL0     H34458   0.318  10.709   8.877 -1.7430 -0.6205  0.2322
 1019MOL0     H34459   0.152  10.601   9.005 -0.0196  0.2922  0.1339
 1019MOL0     H34460   0.149  10.770   9.025  1.4439  1.7014  0.7684
 1019MOL0     H34461   0.013  10.650   9.284 -0.4171  0.8921  0.2223
 1019MOL0     H34462   0.144  10.670   9.603 -0.8001 -0.5778 -0.1137
 1019MOL0     H34463  -0.000  10.735   9.539  0.0659  2.1806  1.5443
 1019MOL0     H34464   0.071  10.965   9.508  1.9584  1.4715 -0.9912
 1019MOL0     H34465   0.233  10.926   9.553 -0.2698 -0.9867 -0.6411
 1019MOL0     H34466   0.004  10.918   9.760 -0.1989 -2.2068 -1.3897
 1019MOL0     H34467   0.159  10.856   9.797 -2.0088  1.4641  2.3839
 1019MOL0     H34468   0.152  11.136   9.678 -0.1656  2.0055  1.4710
 1019MOL0     H34469   0.284  11.054   9.756 -1.0036 -2.4076  1.0681
 1019MOL0     H34470  -0.116  11.056   9.975  0.3012  1.0445  1.0593
 1019MOL0     H34471  -0.295  11.214   9.999 -0.6518  1.2199 -0.6075
 1019MOL0     H34472  -0.447  11.527  10.199  0.7835  1.4091  0.4493
 1019MOL0     H34473  -0.611  11.688  10.268 -1.6657 -4.9594  0.9545
 1019MOL0     H34474  -0.964  11.888  10.053 -0.1406  1.0199  1.9760
 1019MOL0     H34475  -0.821  11.902   9.931  0.2733  2.5134  0.5017
 1019MOL0     H34476  -0.898  12.118  10.029  1.9621 -1.4267 -3.6395
 1019MOL0     H34477  -0.730  12.073  10.076 -0.3725  1.9558 -0.4786
 1019MOL0     H34478  -0.830  12.003  10.300  0.0945  2.0360  2.1159
 1019MOL0     H34479  -0.984  12.053  10.249 -0.9537  2.6096  1.8044
 1019MOL0     H34480  -0.858  12.210  10.403  0.4708  1.2021 -0.0100
 1019MOL0     H34481  -0.742  12.243  10.271 -0.4359 -0.7152 -0.4065
 1019MOL0     H34482  -0.964  12.293  10.144 -0.8506 -2.3591  1.7229
 1019MOL0     H34483  -0.862  12.410  10.213  0.4848 -1.0052 -1.3222
 1019MOL0     H34484  -1.078  12.478  10.283  1.1059 -0.0588 -1.1633
 1019MOL0     H34485  -0.984  12.404  10.420  1.3286  1.3927 -0.8802
 1019MOL0     H34486  -1.197  12.242  10.273 -2.4365 -1.2517  1.6669
 1019MOL0     H34487  -1.100  12.196  10.408  3.0188  2.1392  0.3802
 1019MOL0     H34488  -1.334  12.378  10.396 -1.4926 -0.7099  1.3006
 1019MOL0     H34489  -1.227  12.399  10.527  1.0894 -0.9003  1.2195
 1019MOL0     H34490  -0.730  11.742   9.855 -0.8518 -1.2199 -1.2101
 1019MOL0     H34491  -0.588  11.537   9.805  0.6552 -1.6755  1.3195
 1019MOL0     H34492  -0.058  11.506   9.787 -1.6401 -0.0471 -0.6376
 1019MOL0     H34493   0.131  11.361   9.786 -0.8140 -1.4103 -2.1669
 1019MOL0     H34494   1.267  10.150   8.842 -0.1629  0.2117  1.0192
 1019MOL0     H34495   1.517  10.189   8.782 -0.0321 -1.6822 -0.4492
 1019MOL0     H34496   1.968  10.329   8.713  0.0500 -4.3095 -2.0114
 1019MOL0     H34497   2.158  10.406   8.586  0.4198  2.7317 -0.7548
 1019MOL0     H34498   2.117  10.583   8.171 -2.8295 -0.9610 -0.0262
 1019MOL0     H34499   2.133  10.411   8.149  0.3425  0.7903 -0.6466
 1019MOL0     H34500   2.380  10.415   8.198  1.0839  0.4854  1.4425
 1019MOL0     H34501   2.354  10.534   8.079  1.7618  3.1755  1.8812
 1019MOL0     H34502   2.359  10.621   8.369 -3.3114  1.2740 -1.4191
 1019MOL0     H34503   2.406  10.713   8.222  1.0996 -0.7657 -1.7141
 1019MOL0     H34504   2.551  10.483   8.339  2.8634  0.2786  0.2452
 1019MOL0     H34505   2.606  10.558   8.188  1.8605  0.6161  0.5959
 1019MOL0     H34506   2.731  10.857   8.455  0.6210 -0.8436 -0.9561
 1019MOL0     H34507   1.904  10.477   8.236 -0.5031  1.9955  0.5999
 1019MOL0     H34508   1.726  10.408   8.366 -0.2706  0.7782  0.8921
 1020MOL0     O34509  10.136   2.574   8.230 -0.4373  0.4444  0.6809
 1020MOL0     C34510  10.141   2.670   8.148 -1.1187 -0.1535  0.2058
 1020MOL0     O34511  10.034   2.719   8.085 -0.7764  0.3692  0.0757
 1020MOL0     C34512   9.920   2.633   8.077  0.2201 -0.3968  0.0849
 1020MOL0     C34513   9.842   2.580   8.189  0.1872 -0.0967  0.6200
 1020MOL0     C34514   9.726   2.498   8.168  0.7006 -0.2130  0.0211
 1020MOL0     C34515   9.687   2.458   8.032 -0.1082  0.9025 -0.1601
 1020MOL0     O34516   9.582   2.380   7.982 -1.1425 -0.2544  0.3879
 1020MOL0     C34517   9.478   2.367   8.080 -0.2021  0.9763 -0.1246
 1020MOL0     C34518   9.338   2.346   8.033 -0.8259 -0.9534  0.0728
 1020MOL0     C34519   9.237   2.304   8.146 -0.3779  0.2099  0.3113
 1020MOL0     C34520   9.096   2.309   8.080 -0.3908  0.4877 -0.4721
 1020MOL0     C34521   8.987   2.270   8.179  0.6088 -0.8513  0.2094
 1020MOL0     C34522   8.859   2.206   8.112 -1.1528 -0.4782  0.3020
 1020MOL0     C34523   8.746   2.197   8.214 -0.4383 -0.2123 -0.6505
 1020MOL0     C34524   8.621   2.147   8.156  0.7874 -0.0867  0.6658
 1020MOL0     N34525   8.574   2.229   8.043  0.0578 -0.7214 -0.4511
 1020MOL0     C34526   8.494   2.340   8.065  0.2043  0.5264  1.1895
 1020MOL0     C34527   8.444   2.371   7.944  0.2024  0.0259  0.6400
 1020MOL0     C34528   8.351   2.481   7.900  0.4609 -0.1061  0.3918
 1020MOL0     C34529   8.251   2.528   8.002 -0.3536 -0.2941 -0.0897
 1020MOL0     C34530   8.186   2.665   7.977 -0.0696 -0.5412 -0.7780
 1020MOL0     C34531   8.075   2.671   8.079  0.5965  0.4650 -0.1914
 1020MOL0     O34532   8.109   2.760   8.187 -0.3140 -0.0724  0.1684
 1020MOL0     C34533   8.009   2.832   8.241 -0.2057  0.7193 -0.5047
 1020MOL0     C34534   8.052   2.947   8.310  0.4486 -0.6188 -0.0504
 1020MOL0     C34535   7.957   3.032   8.355 -0.3091 -0.5266  0.8842
 1020MOL0     C34536   7.825   3.004   8.356 -0.6145  0.1671 -0.5030
 1020MOL0     C34537   7.722   3.100   8.404 -0.2318  0.0487  0.2689
 1020MOL0     O34538   7.591   3.058   8.401  0.4114  0.0641 -0.0650
 1020MOL0     C34539   7.494   3.145   8.457  0.9164  0.9205  0.0349
 1020MOL0     C34540   7.460   3.264   8.391  0.3249 -0.6045  0.3381
 1020MOL0     C34541   7.368   3.351   8.451  0.0526  0.1327 -0.4086
 1020MOL0     C34542   7.308   3.324   8.579  0.3782 -0.3556  0.4455
 1020MOL0     O34543   7.217   3.394   8.651  0.0156  0.4662 -0.3515
 1020MOL0     C34544   7.179   3.518   8.607  0.4687  0.5139  0.5482
 1020MOL0     C34545   7.084   3.524   8.485 -0.0446  0.2269 -0.9756
 1020MOL0     C34546   7.080   3.661   8.416  0.4212 -0.8485  0.6701
 1020MOL0     C34547   6.957   3.688   8.322  0.6816  0.2212  0.5575
 1020MOL0     C34548   6.852   3.784   8.368  0.0739  0.0411 -0.7926
 1020MOL0     C34549   6.763   3.732   8.475 -0.3521 -0.1438 -0.0169
 1020MOL0     C34550   6.666   3.834   8.536 -0.1555 -0.6671  0.3390
 1020MOL0     C34551   6.547   3.854   8.449  0.3510  0.7559  0.5523
 1020MOL0    Cl34552   6.442   3.994   8.504 -0.5343 -0.0001 -0.5080
 1020MOL0     C34553   7.341   3.206   8.638  0.1501  0.2390 -0.6417
 1020MOL0     C34554   7.428   3.111   8.581 -0.9460 -0.9325  0.5040
 1020MOL0     O34555   7.758   3.219   8.421  0.1707 -0.2713  0.2002
 1020MOL0     C34556   7.781   2.887   8.300 -0.8761 -0.4680  0.2658
 1020MOL0     C34557   7.879   2.813   8.237  0.6824  0.1831  0.1039
 1020MOL0     N34558   8.511   2.291   7.855  0.8582  0.4210 -1.2763
 1020MOL0     N34559   8.590   2.206   7.910  0.0051 -0.5745 -0.3902
 1020MOL0     C34560   9.771   2.517   7.935  0.0264  0.6424  0.7806
 1020MOL0     C34561   9.876   2.610   7.951  0.2118  0.5899  0.0623
 1020MOL0     C34562  10.281   2.725   8.118 -1.0412 -0.7651  0.0360
 1020MOL0     C34563  10.398   2.667   8.162 -1.6011 -0.8270  0.8701
 1020MOL0     C34564  10.528   2.706   8.121 -0.2035 -0.3441  0.7974
 1020MOL0     C34565  10.539   2.830   8.041  0.2216 -0.3065  0.0328
 1020MOL0     O34566  10.657   2.885   8.000  0.9797 -0.6070 -0.1582
 1020MOL0     C34567  10.753   2.789   7.954  0.0620  0.5937 -0.2362
 1020MOL0     C34568  10.783   2.820   7.799 -0.7740  0.6766  0.4068
 1020MOL0     C34569  10.925   2.769   7.751 -0.0967 -0.2706 -0.6562
 1020MOL0     C34570  10.957   2.787   7.599 -0.1675  0.1872  0.3840
 1020MOL0     C34571  11.089   2.723   7.575 -0.3903  0.7692  0.8608
 1020MOL0     C34572  11.201   2.697   7.530  0.7499  0.9245 -0.4477
 1020MOL0     C34573  10.423   2.891   7.992  0.3240  0.1673 -0.4289
 1020MOL0     C34574  10.300   2.833   8.029  0.7658  1.2340  0.5538
 1020MOL0     H34575   9.869   2.604   8.291  2.1648  0.0647  0.1076
 1020MOL0     H34576   9.675   2.457   8.254  1.5771  1.0277  1.1753
 1020MOL0     H34577   9.469   2.455   8.144 -2.9581  1.5270 -1.1416
 1020MOL0     H34578   9.495   2.283   8.148 -0.8027  2.5052  2.0377
 1020MOL0     H34579   9.337   2.269   7.956 -0.7050  2.3636 -3.5943
 1020MOL0     H34580   9.299   2.438   7.987 -1.2358 -2.0475 -1.8820
 1020MOL0     H34581   9.242   2.375   8.228 -2.6318  1.4985 -0.5496
 1020MOL0     H34582   9.263   2.201   8.173 -0.7543 -0.0146 -0.1505
 1020MOL0     H34583   9.073   2.410   8.044 -2.2108 -0.0154 -0.8040
 1020MOL0     H34584   9.098   2.239   7.995 -0.1414 -3.9543  2.8159
 1020MOL0     H34585   8.945   2.362   8.220 -1.6252 -1.5014 -0.4812
 1020MOL0     H34586   9.028   2.200   8.253  0.6561 -0.1085  0.8960
 1020MOL0     H34587   8.887   2.105   8.080  0.0713  0.5185 -2.0243
 1020MOL0     H34588   8.832   2.265   8.025  0.4553  0.5096  0.4297
 1020MOL0     H34589   8.789   2.129   8.287  1.7502  3.2403  1.6009
 1020MOL0     H34590   8.732   2.297   8.257 -0.8430 -0.5783  0.0800
 1020MOL0     H34591   8.544   2.148   8.234  2.5064 -1.8653  2.4934
 1020MOL0     H34592   8.630   2.045   8.118  0.2310  0.1023  0.0076
 1020MOL0     H34593   8.480   2.398   8.155  2.0050 -0.5385  2.2125
 1020MOL0     H34594   8.300   2.446   7.810 -0.5599  3.9639 -0.8340
 1020MOL0     H34595   8.419   2.560   7.868  1.8602 -0.8159  1.5303
 1020MOL0     H34596   8.296   2.537   8.102  1.2651  0.7750 -0.8674
 1020MOL0     H34597   8.172   2.452   8.005  0.6974 -1.3926  2.0897
 1020MOL0     H34598   8.247   2.755   7.967 -1.4138  0.5088  0.0837
 1020MOL0     H34599   8.132   2.667   7.881 -2.4858 -0.0920  0.5131
 1020MOL0     H34600   8.038   2.574   8.116  0.5727  0.0784 -1.1928
 1020MOL0     H34601   7.994   2.716   8.022  0.0182  4.3049  3.1944
 1020MOL0     H34602   8.154   2.983   8.317  0.3735 -0.7023  4.6978
 1020MOL0     H34603   7.989   3.131   8.386 -1.8976  0.0453  0.7762
 1020MOL0     H34604   7.508   3.286   8.296  1.3836 -0.3311  0.9213
 1020MOL0     H34605   7.346   3.448   8.407 -1.4902 -1.0387 -2.3431
 1020MOL0     H34606   7.271   3.577   8.602  0.4313  0.6118  1.0132
 1020MOL0     H34607   7.118   3.559   8.688 -1.7533 -0.3878 -0.6028
 1020MOL0     H34608   6.986   3.488   8.518 -0.8016  1.4444 -1.8278
 1020MOL0     H34609   7.132   3.456   8.413  1.9929  0.3674  0.1592
 1020MOL0     H34610   7.169   3.662   8.352 -0.8616 -1.0845 -1.2088
 1020MOL0     H34611   7.091   3.751   8.477 -1.4859  0.5593 -0.9029
 1020MOL0     H34612   6.992   3.727   8.226  0.9786  4.0627  2.0430
 1020MOL0     H34613   6.904   3.594   8.304  1.7350  0.0590 -2.1210
 1020MOL0     H34614   6.785   3.782   8.282 -1.3891 -4.9707  0.1439
 1020MOL0     H34615   6.906   3.878   8.385  0.1624 -0.1254 -0.1159
 1020MOL0     H34616   6.830   3.699   8.555 -0.1585  1.3456  0.4851
 1020MOL0     H34617   6.710   3.641   8.448  0.2453 -0.8272  1.0615
 1020MOL0     H34618   6.616   3.802   8.628 -0.5856  1.2659  0.8377
 1020MOL0     H34619   6.713   3.927   8.568 -1.2167  0.2045 -0.5335
 1020MOL0     H34620   6.479   3.768   8.443 -0.9879  1.8115  0.3598
 1020MOL0     H34621   6.568   3.875   8.344 -1.6758  0.3534  0.0168
 1020MOL0     H34622   7.278   3.158   8.713 -0.1780 -3.4526 -3.0056
 1020MOL0     H34623   7.442   3.011   8.621 -1.0014 -1.3376 -0.4504
 1020MOL0     H34624   7.674   2.865   8.296 -1.1126  0.6894 -0.3259
 1020MOL0     H34625   7.832   2.733   8.180  1.1591 -0.4678  0.5925
 1020MOL0     H34626   9.759   2.484   7.833 -0.3549 -0.9318  1.3177
 1020MOL0     H34627   9.910   2.657   7.859 -3.4716  1.2807 -1.1174
 1020MOL0     H34628  10.402   2.579   8.226  0.5791 -1.9891 -0.7355
 1020MOL0     H34629  10.623   2.667   8.156  0.1201  0.7145  1.1325
 1020MOL0     H34630  10.708   2.690   7.967 -1.0019  0.8442 -1.6901
 1020MOL0     H34631  10.845   2.794   8.013 -0.7282 -0.4120  1.1368
 1020MOL0     H34632  10.705   2.778   7.734 -0.5539 -1.7663  1.5929
 1020MOL0     H34633  10.780   2.929   7.790 -2.8777  0.6598  0.2787
 1020MOL0     H34634  10.926   2.663   7.778  1.4363 -0.3364 -0.8934
 1020MOL0     H34635  11.001   2.824   7.807 -0.4343 -0.9836  0.5241
 1020MOL0     H34636  10.878   2.744   7.536  1.6128 -0.8566 -1.2274
 1020MOL0     H34637  10.971   2.894   7.577  1.0049 -0.0746 -0.2111
 1020MOL0     H34638  11.295   2.673   7.484  1.2891  0.1729  0.9959
 1020MOL0     H34639  10.439   2.985   7.941  1.3104  0.5983  0.6264
 1020MOL0     H34640  10.205   2.864   7.987 -0.1070 -1.6662  0.1182
 1021MOL0     O34641   2.926   0.756   9.652 -0.3678  0.2777  1.1559
 1021MOL0     C34642   3.003   0.719   9.743  0.3935 -1.0135 -0.2008
 1021MOL0     O34643   2.962   0.692   9.871  0.3039  0.0359  0.7184
 1021MOL0     C34644   2.833   0.683   9.905  0.0807  0.7300 -0.6173
 1021MOL0     C34645   2.732   0.615   9.826 -0.4993  0.4606  0.7862
 1021MOL0     C34646   2.596   0.596   9.864 -0.7982  0.0514 -0.2463
 1021MOL0     C34647   2.563   0.647   9.998  1.0513 -0.1313 -0.1213
 1021MOL0     O34648   2.437   0.658  10.050 -0.2082  0.8261  0.1819
 1021MOL0     C34649   2.336   0.573   9.984  0.9181  0.9002  0.8813
 1021MOL0     C34650   2.210   0.621  10.058  0.1971  0.4838 -0.3486
 1021MOL0     C34651   2.165   0.772  10.026  0.1216  0.0613 -0.0593
 1021MOL0     C34652   2.051   0.825  10.113 -0.4619 -0.4040 -0.5620
 1021MOL0     C34653   1.928   0.732  10.109 -0.0107 -0.6855 -0.5951
 1021MOL0     C34654   1.810   0.823  10.178  0.5779  0.8482  0.1239
 1021MOL0     C34655   1.706   0.882  10.077  0.6374  0.1559  0.2154
 1021MOL0     C34656   1.619   0.991  10.150  0.1164 -0.0854 -0.2654
 1021MOL0     N34657   1.501   1.013  10.064  0.1248 -0.6725 -0.2206
 1021MOL0     C34658   1.382   1.028  10.119 -0.6495 -1.2033 -0.1361
 1021MOL0     C34659   1.308   1.104  10.033  0.1145  0.4362  0.8222
 1021MOL0     C34660   1.177   1.156  10.060  0.1591 -0.2042  0.3861
 1021MOL0     C34661   1.081   1.095   9.951  0.1917 -1.4118  0.0092
 1021MOL0     C34662   1.031   0.956   9.980  0.0875 -0.4169 -0.2955
 1021MOL0     C34663   0.913   0.944  10.080  0.0021 -0.5165 -0.9464
 1021MOL0     O34664   0.932   1.026  10.196  0.5864 -0.1629  0.4050
 1021MOL0     C34665   0.826   1.096  10.242 -1.0402 -0.0409 -0.5637
 1021MOL0     C34666   0.845   1.224  10.284  0.0862  0.0270 -1.0158
 1021MOL0     C34667   0.735   1.307  10.321 -0.0791 -0.2689  0.0379
 1021MOL0     C34668   0.604   1.254  10.314 -0.2496  0.7545 -0.5329
 1021MOL0     C34669   0.488   1.329  10.347 -0.8730  0.7287  0.2867
 1021MOL0     O34670   0.376   1.328  10.277  0.2060  0.0974 -0.7049
 1021MOL0     C34671   0.277   1.417  10.315  0.2706 -0.0280 -0.6916
 1021MOL0     C34672   0.150   1.373  10.346  0.4049  0.2578  0.6419
 1021MOL0     C34673   0.045   1.443  10.396  0.2463 -0.1102  0.4703
 1021MOL0     C34674   0.051   1.581  10.413  0.0903 -0.3865 -0.1557
 1021MOL0     O34675  -0.066   1.651  10.437  0.7278  0.1810 -0.0462
 1021MOL0     C34676  -0.063   1.776  10.511 -0.2594  1.1432  0.9783
 1021MOL0     C34677  -0.174   1.782  10.624  0.2213 -0.3073 -0.3986
 1021MOL0     C34678  -0.303   1.854  10.577  0.1081  0.0458 -0.2107
 1021MOL0     C34679  -0.363   1.926  10.701  0.2744  0.2388  0.8778
 1021MOL0     C34680  -0.496   1.982  10.676  0.1869  1.2471  0.1074
 1021MOL0     C34681  -0.551   2.065  10.800  0.3680 -0.2863  0.0843
 1021MOL0     C34682  -0.710   2.089  10.778 -0.2897 -1.2193 -0.1784
 1021MOL0     C34683  -0.751   2.187  10.885 -0.6632 -0.7262 -0.1889
 1021MOL0    Cl34684  -0.931   2.205  10.859  0.9011  0.0056 -0.4639
 1021MOL0     C34685   0.171   1.644  10.371  0.6897  0.3024 -0.6818
 1021MOL0     C34686   0.288   1.561  10.339  0.8436 -1.0288  0.9799
 1021MOL0     O34687   0.513   1.401  10.443  0.3863 -0.5462  0.0182
 1021MOL0     C34688   0.583   1.133  10.252 -0.5523 -0.2196 -0.9613
 1021MOL0     C34689   0.693   1.057  10.220 -0.2571 -1.1073 -0.8971
 1021MOL0     N34690   1.393   1.136   9.928 -0.0965 -0.0330 -0.6726
 1021MOL0     N34691   1.507   1.081   9.948 -0.2016 -0.2605  0.3029
 1021MOL0     C34692   2.662   0.710  10.065  0.5065  0.7430 -0.2024
 1021MOL0     C34693   2.794   0.722  10.030 -0.2533  0.1694  0.6073
 1021MOL0     C34694   3.145   0.733   9.722 -0.2658 -0.5017 -0.0693
 1021MOL0     C34695   3.229   0.656   9.795  0.1671 -0.6294  1.3019
 1021MOL0     C34696   3.364   0.625   9.766  0.0863  0.4282  0.7749
 1021MOL0     C34697   3.425   0.721   9.679 -0.2643  0.6680 -0.2851
 1021MOL0     O34698   3.561   0.716   9.655  0.4019  0.2297  0.4162
 1021MOL0     C34699   3.644   0.616   9.725 -0.4461  0.0963  0.4157
 1021MOL0     C34700   3.789   0.634   9.684 -0.8983 -0.9279 -0.1991
 1021MOL0     C34701   3.824   0.579   9.545 -0.2253  0.6167 -0.5261
 1021MOL0     C34702   3.971   0.563   9.504  0.8399 -0.5560  0.5257
 1021MOL0     C34703   3.988   0.533   9.358 -0.5392  0.5182  0.3551
 1021MOL0     C34704   4.019   0.505   9.245  0.1776 -0.5308 -0.0142
 1021MOL0     C34705   3.349   0.813   9.608 -0.3833  0.1424  1.2868
 1021MOL0     C34706   3.207   0.817   9.625 -0.5600  0.8741 -0.2124
 1021MOL0     H34707   2.749   0.562   9.733 -5.0226 -0.7778  0.4025
 1021MOL0     H34708   2.533   0.527   9.807 -1.6042 -0.4135  1.1515
 1021MOL0     H34709   2.366   0.468   9.997  3.3006  1.6860  2.5027
 1021MOL0     H34710   2.312   0.597   9.880 -2.0988  1.2365  1.5697
 1021MOL0     H34711   2.224   0.615  10.166  2.1760  0.9340 -0.5435
 1021MOL0     H34712   2.126   0.556  10.032  0.8168 -0.3148 -0.3919
 1021MOL0     H34713   2.132   0.783   9.922  1.4917  2.9985 -0.2860
 1021MOL0     H34714   2.246   0.843  10.048 -2.4320  2.4122  2.6144
 1021MOL0     H34715   2.081   0.829  10.218  3.1820  0.3795 -1.4860
 1021MOL0     H34716   2.019   0.926  10.086  0.8302  0.7923  2.0268
 1021MOL0     H34717   1.929   0.643  10.173 -3.2481 -1.2538 -1.1852
 1021MOL0     H34718   1.904   0.698  10.008 -1.2651 -0.4482 -0.3909
 1021MOL0     H34719   1.844   0.910  10.234  1.5280 -0.1936  1.2273
 1021MOL0     H34720   1.750   0.761  10.246  1.1859  0.5346  0.3856
 1021MOL0     H34721   1.757   0.910   9.985 -0.0840  1.4423  0.1837
 1021MOL0     H34722   1.627   0.817  10.037 -0.9445  2.6022 -0.8723
 1021MOL0     H34723   1.675   1.085  10.159 -1.0053  0.8583 -2.2596
 1021MOL0     H34724   1.591   0.969  10.253  0.0059  0.7724 -0.1027
 1021MOL0     H34725   1.346   1.002  10.217  2.9702  0.8550  1.9805
 1021MOL0     H34726   1.181   1.264  10.043  1.2847 -0.0936  1.2399
 1021MOL0     H34727   1.148   1.138  10.164 -0.0222  0.4043  0.4442
 1021MOL0     H34728   1.131   1.089   9.854 -1.4052  0.7253 -1.0041
 1021MOL0     H34729   0.994   1.160   9.957  0.7871 -0.7283  2.9576
 1021MOL0     H34730   1.009   0.900   9.888  0.4569 -1.6874  0.3665
 1021MOL0     H34731   1.118   0.918  10.034 -0.7284  1.8593  2.8659
 1021MOL0     H34732   0.909   0.842  10.121 -2.9547  0.1318  0.6800
 1021MOL0     H34733   0.819   0.961  10.028  0.2721 -0.5300 -1.4515
 1021MOL0     H34734   0.943   1.272  10.282  0.8886 -1.4357  0.3843
 1021MOL0     H34735   0.761   1.408  10.348 -0.0571 -0.9475  2.8656
 1021MOL0     H34736   0.131   1.268  10.323 -1.0190  0.6522 -0.1102
 1021MOL0     H34737  -0.057   1.406  10.403  1.0225 -2.0262  3.1276
 1021MOL0     H34738  -0.067   1.856  10.436  0.2586  0.3828  0.1201
 1021MOL0     H34739   0.029   1.773  10.570  1.8470 -2.1872 -2.0427
 1021MOL0     H34740  -0.142   1.852  10.702 -1.9434  0.6213 -0.2799
 1021MOL0     H34741  -0.193   1.683  10.667  0.7788 -0.7726 -1.2063
 1021MOL0     H34742  -0.370   1.783  10.528  0.1298  0.1239 -0.3548
 1021MOL0     H34743  -0.281   1.936  10.509 -1.6757  2.0245  1.4494
 1021MOL0     H34744  -0.361   1.854  10.784  2.9965 -0.7137  0.1026
 1021MOL0     H34745  -0.294   2.008  10.726  1.7999 -0.9881  0.8782
 1021MOL0     H34746  -0.564   1.899  10.652 -0.7396  2.4783 -1.7402
 1021MOL0     H34747  -0.496   2.052  10.592 -0.4383  2.7386  1.3154
 1021MOL0     H34748  -0.505   2.164  10.802  0.6383 -0.3308 -1.9970
 1021MOL0     H34749  -0.538   2.008  10.892 -0.6260 -0.0748  0.3711
 1021MOL0     H34750  -0.717   2.140  10.681 -0.6812 -1.2678 -0.1774
 1021MOL0     H34751  -0.753   1.989  10.779  0.2131 -1.4561  1.5503
 1021MOL0     H34752  -0.706   2.283  10.860  1.0649 -1.4795 -0.0870
 1021MOL0     H34753  -0.726   2.150  10.985 -2.3074  0.1712  0.5973
 1021MOL0     H34754   0.175   1.753  10.376  3.5395  0.2008  1.9474
 1021MOL0     H34755   0.387   1.604  10.328  0.5005 -0.9054 -2.6788
 1021MOL0     H34756   0.479   1.102  10.245 -0.8376  0.0540  1.2937
 1021MOL0     H34757   0.667   0.955  10.191  2.3198 -2.6529  1.6879
 1021MOL0     H34758   2.631   0.747  10.162  0.4933  0.4735 -0.1032
 1021MOL0     H34759   2.864   0.764  10.101 -0.1634 -0.0711  0.6647
 1021MOL0     H34760   3.206   0.596   9.883  0.7197  1.4730  2.9588
 1021MOL0     H34761   3.419   0.553   9.826  1.7780  1.4870  0.5891
 1021MOL0     H34762   3.608   0.514   9.708 -0.9130  0.5386 -1.5297
 1021MOL0     H34763   3.636   0.643   9.830 -0.7219  1.1043  0.1464
 1021MOL0     H34764   3.817   0.740   9.686 -0.6457 -0.9717 -0.8630
 1021MOL0     H34765   3.850   0.590   9.763  2.4001  2.9001 -0.2743
 1021MOL0     H34766   3.776   0.635   9.465 -1.2336 -0.4679 -0.7161
 1021MOL0     H34767   3.794   0.473   9.547 -1.6053  0.9935  0.6085
 1021MOL0     H34768   4.016   0.658   9.534 -0.5604  0.4038 -0.3122
 1021MOL0     H34769   4.004   0.480   9.568  1.0511 -1.1610 -0.3436
 1021MOL0     H34770   4.043   0.486   9.143  1.4713  2.5088 -0.3711
 1021MOL0     H34771   3.399   0.888   9.547  0.7762 -1.2013  0.4975
 1021MOL0     H34772   3.144   0.889   9.574 -1.9010  0.1158  0.3325
 1022MOL0     O34773   9.759   1.377   0.442 -0.0663 -0.4425 -0.1476
 1022MOL0     C34774   9.820   1.373   0.548  0.5970 -0.8999  0.6856
 1022MOL0     O34775   9.772   1.325   0.665 -0.7943 -0.2966 -0.5601
 1022MOL0     C34776   9.648   1.278   0.662 -0.0881 -0.2532 -0.2400
 1022MOL0     C34777   9.558   1.353   0.732  0.9917  0.9755 -0.3890
 1022MOL0     C34778   9.424   1.311   0.735  0.2635 -0.5474  0.7953
 1022MOL0     C34779   9.389   1.181   0.676  0.4146 -0.2478 -0.2440
 1022MOL0     O34780   9.275   1.113   0.708  1.0164 -0.5507 -0.6202
 1022MOL0     C34781   9.259   0.979   0.663 -0.3317  0.3506 -0.7466
 1022MOL0     C34782   9.126   0.926   0.684 -0.4053  0.0314  0.8387
 1022MOL0     C34783   9.021   0.979   0.586  0.0157 -0.2776  0.1157
 1022MOL0     C34784   8.884   0.904   0.611  1.0140  0.3669  0.5821
 1022MOL0     C34785   8.770   0.971   0.549  0.4877 -0.0809  0.7347
 1022MOL0     C34786   8.643   0.945   0.624 -0.3755 -0.3993 -0.6034
 1022MOL0     C34787   8.594   0.797   0.607 -0.0631  0.9216  0.4306
 1022MOL0     C34788   8.439   0.795   0.638  0.2407  0.1750  0.6424
 1022MOL0     N34789   8.424   0.850   0.776  0.6661  0.1238 -0.3349
 1022MOL0     C34790   8.469   0.788   0.890 -0.1808  0.3105  1.0133
 1022MOL0     C34791   8.436   0.873   0.995 -0.5284  0.2296  0.1582
 1022MOL0     C34792   8.441   0.833   1.146 -0.0568 -0.9361 -0.6235
 1022MOL0     C34793   8.584   0.821   1.201 -0.6157  0.5908 -0.2276
 1022MOL0     C34794   8.592   0.766   1.349  0.3427 -0.3343  0.5691
 1022MOL0     C34795   8.740   0.759   1.396 -0.1158 -0.1687 -0.0413
 1022MOL0     O34796   8.809   0.651   1.324  0.4787 -0.0675  0.0146
 1022MOL0     C34797   8.939   0.625   1.360 -0.9917  0.0062 -0.2344
 1022MOL0     C34798   9.001   0.670   1.481  1.1566  0.2513  0.3577
 1022MOL0     C34799   9.132   0.621   1.515  0.5606 -0.6796 -0.4623
 1022MOL0     C34800   9.212   0.546   1.424 -0.7533 -0.3660  0.2857
 1022MOL0     C34801   9.356   0.511   1.448 -0.1927  0.1886 -0.1667
 1022MOL0     O34802   9.431   0.442   1.350 -0.4478 -0.4797  0.4008
 1022MOL0     C34803   9.563   0.411   1.381  0.1867 -0.1972  0.3394
 1022MOL0     C34804   9.595   0.299   1.463  0.1756 -0.8033  0.1773
 1022MOL0     C34805   9.732   0.272   1.493  0.1427 -0.9669 -0.4994
 1022MOL0     C34806   9.829   0.320   1.410  0.1912  0.8208 -0.5109
 1022MOL0     O34807   9.962   0.284   1.428  0.4116 -0.5349  0.1488
 1022MOL0     C34808  10.008   0.340   1.551 -0.7241 -0.0219  0.0944
 1022MOL0     C34809  10.156   0.370   1.533  0.0722 -0.0341  0.3561
 1022MOL0     C34810  10.220   0.434   1.660  0.3505 -0.1834 -0.1740
 1022MOL0     C34811  10.362   0.454   1.641  0.0030 -1.0688 -0.5690
 1022MOL0     C34812  10.450   0.327   1.662 -0.2878  0.4171  0.6513
 1022MOL0     C34813  10.598   0.371   1.645 -0.6838 -0.1238  0.3206
 1022MOL0     C34814  10.694   0.249   1.651  0.0007 -0.2315  0.1612
 1022MOL0     C34815  10.835   0.292   1.671 -0.3790  0.2997  0.0082
 1022MOL0    Cl34816  10.850   0.373   1.839 -0.2022 -0.2519  0.2696
 1022MOL0     C34817   9.795   0.414   1.311  0.7627  0.0997 -0.0947
 1022MOL0     C34818   9.661   0.467   1.302  0.0538 -0.5131 -0.0602
 1022MOL0     O34819   9.389   0.526   1.568 -0.4690 -0.3055 -0.2957
 1022MOL0     C34820   9.154   0.517   1.306  0.3906 -0.2677  0.5679
 1022MOL0     C34821   9.018   0.555   1.270  0.1894  0.0880 -0.9192
 1022MOL0     N34822   8.372   0.989   0.943 -0.4626  0.2328  0.1568
 1022MOL0     N34823   8.379   0.971   0.810  0.3703  0.5014  0.2977
 1022MOL0     C34824   9.484   1.120   0.593 -0.4548 -0.9415 -0.5984
 1022MOL0     C34825   9.613   1.168   0.591  0.1327  0.4165 -0.3122
 1022MOL0     C34826   9.959   1.422   0.528  0.8243 -0.5659  0.4058
 1022MOL0     C34827  10.046   1.423   0.645  0.3255 -0.6706  0.5790
 1022MOL0     C34828  10.185   1.464   0.623 -0.4052  0.6310 -0.3908
 1022MOL0     C34829  10.236   1.512   0.500 -0.6676  0.1081  0.3021
 1022MOL0     O34830  10.364   1.547   0.466 -0.2493 -0.2661  0.0147
 1022MOL0     C34831  10.471   1.520   0.561 -0.4609  0.3967 -1.1480
 1022MOL0     C34832  10.603   1.511   0.492 -0.2113  0.4268 -0.1677
 1022MOL0     C34833  10.719   1.516   0.587  0.1793 -0.6901  0.3882
 1022MOL0     C34834  10.857   1.542   0.522  0.0091  0.2863 -0.5923
 1022MOL0     C34835  10.912   1.419   0.452  0.2861  0.4560  0.1922
 1022MOL0     C34836  10.940   1.314   0.393 -0.4493 -0.6983  0.6068
 1022MOL0     C34837  10.143   1.502   0.391 -0.4840  0.0768 -0.0815
 1022MOL0     C34838  10.009   1.457   0.405 -0.5776 -0.3381 -0.0026
 1022MOL0     H34839   9.589   1.437   0.793 -2.1256  2.1347 -0.2400
 1022MOL0     H34840   9.361   1.363   0.807  2.5774  1.4645  1.5037
 1022MOL0     H34841   9.327   0.909   0.712 -1.7067 -1.9067 -1.8944
 1022MOL0     H34842   9.282   0.948   0.560 -0.6156 -2.2482 -0.1076
 1022MOL0     H34843   9.086   0.956   0.782  0.2139  2.4669  0.4213
 1022MOL0     H34844   9.125   0.819   0.661 -2.7790 -0.2066  1.7718
 1022MOL0     H34845   9.055   0.970   0.482 -1.7161  0.6128 -0.5679
 1022MOL0     H34846   9.010   1.084   0.613  0.8034  0.0804 -0.8963
 1022MOL0     H34847   8.902   0.808   0.563  0.8657 -1.0020  3.0791
 1022MOL0     H34848   8.865   0.897   0.719  0.6196 -0.5552  0.4612
 1022MOL0     H34849   8.766   0.946   0.443 -2.3772  1.0850  0.4570
 1022MOL0     H34850   8.792   1.078   0.558  2.6758 -0.2933 -1.3496
 1022MOL0     H34851   8.564   1.018   0.603  2.6271  2.8685 -1.5295
 1022MOL0     H34852   8.666   0.965   0.729  0.6255  0.9069 -1.0504
 1022MOL0     H34853   8.639   0.753   0.518  0.6783 -2.7679  2.4156
 1022MOL0     H34854   8.645   0.735   0.682  0.5269 -1.7987 -2.0646
 1022MOL0     H34855   8.414   0.688   0.635  3.0616 -0.5423 -1.4766
 1022MOL0     H34856   8.370   0.840   0.567 -1.3548  0.4748  2.2890
 1022MOL0     H34857   8.516   0.692   0.904 -2.8615 -1.4220 -0.9736
 1022MOL0     H34858   8.383   0.742   1.164  0.3875 -1.4241 -1.5433
 1022MOL0     H34859   8.392   0.911   1.205  3.2995  1.2065 -0.3828
 1022MOL0     H34860   8.620   0.923   1.221  0.0213  0.1407  1.0148
 1022MOL0     H34861   8.635   0.768   1.120 -0.3519  2.5284 -1.3922
 1022MOL0     H34862   8.546   0.851   1.400 -0.7709  0.5727 -1.7994
 1022MOL0     H34863   8.555   0.664   1.366  1.2721 -0.5120  1.6429
 1022MOL0     H34864   8.733   0.733   1.502 -2.8333 -1.7130 -0.5072
 1022MOL0     H34865   8.782   0.860   1.386 -2.6017  0.9830  0.5125
 1022MOL0     H34866   8.946   0.707   1.566  1.1979  3.3624 -0.8469
 1022MOL0     H34867   9.175   0.649   1.611  2.3405  0.0211 -1.4279
 1022MOL0     H34868   9.510   0.253   1.512 -0.2806  0.7078  0.8741
 1022MOL0     H34869   9.767   0.216   1.579 -2.0752  2.5958  3.0581
 1022MOL0     H34870  10.002   0.259   1.625  1.4167 -1.7356 -1.4724
 1022MOL0     H34871   9.960   0.434   1.580  0.2482  0.5357 -0.0719
 1022MOL0     H34872  10.175   0.427   1.442  2.1422 -1.5737 -0.2641
 1022MOL0     H34873  10.209   0.278   1.506  0.6767 -0.0423  1.5156
 1022MOL0     H34874  10.197   0.370   1.745 -1.1961 -1.3325 -1.4021
 1022MOL0     H34875  10.161   0.523   1.682 -1.8449 -1.3778 -0.9504
 1022MOL0     H34876  10.388   0.506   1.548  0.6962  1.0329  0.7357
 1022MOL0     H34877  10.399   0.521   1.719 -0.7650  0.4258 -1.4365
 1022MOL0     H34878  10.424   0.249   1.590 -0.3414  0.5384  0.5402
 1022MOL0     H34879  10.436   0.290   1.764 -1.3818  0.3469  0.4923
 1022MOL0     H34880  10.625   0.442   1.724  0.9639 -0.4833  0.1193
 1022MOL0     H34881  10.609   0.429   1.552  3.7170  1.5889  1.6526
 1022MOL0     H34882  10.664   0.178   1.728 -2.7554  0.9793  0.3297
 1022MOL0     H34883  10.693   0.189   1.560 -2.2939 -1.0636  0.6643
 1022MOL0     H34884  10.861   0.371   1.599  1.2303  0.8688  1.1716
 1022MOL0     H34885  10.903   0.207   1.670  0.8171  1.2087  1.0220
 1022MOL0     H34886   9.879   0.456   1.258  0.9827  0.8817  0.8600
 1022MOL0     H34887   9.636   0.550   1.237  0.9737  0.2216  0.4948
 1022MOL0     H34888   9.201   0.464   1.223 -2.3201 -0.1568 -1.1820
 1022MOL0     H34889   8.962   0.521   1.184 -4.2810  3.5003  0.2512
 1022MOL0     H34890   9.490   1.030   0.533 -1.8537 -1.0418 -0.6078
 1022MOL0     H34891   9.690   1.137   0.522  3.3442  0.8706  2.8121
 1022MOL0     H34892  10.006   1.398   0.743 -0.1461 -1.1763  0.2571
 1022MOL0     H34893  10.254   1.468   0.707 -1.4050 -0.3376  0.4938
 1022MOL0     H34894  10.438   1.430   0.614 -2.8702  1.7250 -0.2027
 1022MOL0     H34895  10.478   1.599   0.636 -0.0506 -1.6484  1.0895
 1022MOL0     H34896  10.595   1.422   0.429 -1.7446  0.8282 -0.5859
 1022MOL0     H34897  10.622   1.600   0.432 -1.5962 -0.3706 -1.8730
 1022MOL0     H34898  10.727   1.429   0.653  1.9549  0.6748  2.0994
 1022MOL0     H34899  10.706   1.606   0.648 -0.8972 -1.0506  0.7173
 1022MOL0     H34900  10.860   1.618   0.444  3.8824 -0.5622 -1.4917
 1022MOL0     H34901  10.931   1.561   0.601  0.7617 -1.4203 -0.8220
 1022MOL0     H34902  10.981   1.240   0.327  2.3819 -0.4875  1.9784
 1022MOL0     H34903  10.172   1.526   0.289  0.3593 -0.2344  0.0804
 1022MOL0     H34904   9.946   1.445   0.318 -0.1273 -2.6934 -0.0678
 1023MOL0     O34905   9.480   6.183   7.791  0.3773 -0.2382 -0.0162
 1023MOL0     C34906   9.534   6.141   7.890 -0.7278  0.1554  0.1353
 1023MOL0     O34907   9.508   6.030   7.957  0.2824  0.3848 -0.3783
 1023MOL0     C34908   9.399   5.954   7.914 -0.5522 -0.2317 -0.2149
 1023MOL0     C34909   9.262   5.991   7.907  0.4111 -0.6616  0.1381
 1023MOL0     C34910   9.165   5.895   7.881 -0.0043 -0.1467  0.7004
 1023MOL0     C34911   9.204   5.773   7.822  0.1144 -1.1038  0.0275
 1023MOL0     O34912   9.109   5.680   7.781  0.1986 -0.3862 -0.3247
 1023MOL0     C34913   9.007   5.634   7.868 -0.0462  0.1254 -1.5314
 1023MOL0     C34914   9.013   5.488   7.926  0.0173  0.7014  0.2796
 1023MOL0     C34915   9.141   5.466   8.010  0.3105 -0.1255  0.5648
 1023MOL0     C34916   9.174   5.314   8.036 -0.5024 -0.3803 -0.6640
 1023MOL0     C34917   9.325   5.297   8.046 -1.6162 -0.5875 -0.5728
 1023MOL0     C34918   9.393   5.305   7.907 -1.0926  0.8991 -0.3296
 1023MOL0     C34919   9.549   5.324   7.917  0.1754  0.5145  0.5643
 1023MOL0     C34920   9.589   5.459   7.993  0.3040 -0.3789  0.8117
 1023MOL0     N34921   9.731   5.486   7.970  0.5714 -0.2293 -0.1493
 1023MOL0     C34922   9.823   5.437   8.058  0.2165 -0.4744  0.3031
 1023MOL0     C34923   9.939   5.485   8.015  0.9411 -0.0613  0.8263
 1023MOL0     C34924  10.069   5.448   8.083 -0.0923  0.6018  0.2595
 1023MOL0     C34925  10.086   5.523   8.220  0.0401 -0.7395  0.8355
 1023MOL0     C34926  10.131   5.422   8.324 -0.6378  0.4126  0.3247
 1023MOL0     C34927  10.149   5.490   8.458  0.2181  0.5289  0.7884
 1023MOL0     O34928  10.239   5.588   8.454  0.4959  0.1396 -0.2583
 1023MOL0     C34929  10.369   5.566   8.496  0.3107 -1.3223  0.0663
 1023MOL0     C34930  10.432   5.446   8.517  0.1324 -0.6288  0.4568
 1023MOL0     C34931  10.568   5.453   8.563 -0.4019  0.0238  0.9407
 1023MOL0     C34932  10.638   5.573   8.577  0.2629 -0.1246  0.5283
 1023MOL0     C34933  10.783   5.575   8.628  0.0560  0.0503  0.2327
 1023MOL0     O34934  10.825   5.457   8.690 -0.5587  0.3591  0.1698
 1023MOL0     C34935  10.965   5.433   8.716  0.2113 -0.5066 -0.3113
 1023MOL0     C34936  11.012   5.366   8.829 -0.3279  0.1129 -0.3652
 1023MOL0     C34937  11.144   5.333   8.855 -0.0420 -0.9201 -0.3304
 1023MOL0     C34938  11.244   5.371   8.764  0.8585 -0.8529 -0.2353
 1023MOL0     O34939  11.372   5.320   8.784 -0.1246  0.1060  0.0469
 1023MOL0     C34940  11.474   5.330   8.684  0.5741  0.0991  0.2183
 1023MOL0     C34941  11.607   5.269   8.737 -0.2395  0.7881 -0.2967
 1023MOL0     C34942  11.571   5.152   8.838  0.3596 -1.3526 -0.3952
 1023MOL0     C34943  11.667   5.042   8.878 -1.0985  0.8123  0.5919
 1023MOL0     C34944  11.621   4.902   8.845 -0.0022 -0.1202 -0.2828
 1023MOL0     C34945  11.628   4.871   8.701 -0.1416 -0.4571  0.3797
 1023MOL0     C34946  11.748   4.916   8.617 -0.0160  1.4198 -0.6390
 1023MOL0     C34947  11.758   4.835   8.487  0.2482 -0.2223  0.0897
 1023MOL0    Cl34948  11.605   4.879   8.389 -0.0201  0.4381 -0.0808
 1023MOL0     C34949  11.201   5.451   8.654 -0.1664  0.1720  0.0933
 1023MOL0     C34950  11.061   5.471   8.630 -0.1887  0.3893  0.8820
 1023MOL0     O34951  10.853   5.680   8.618 -0.5499 -0.2169 -0.3190
 1023MOL0     C34952  10.567   5.696   8.557 -0.3445  0.1320 -0.3177
 1023MOL0     C34953  10.429   5.688   8.525  0.2245  1.1253  0.3895
 1023MOL0     N34954   9.917   5.574   7.908  0.2732 -0.5398 -0.2609
 1023MOL0     N34955   9.795   5.565   7.882  0.6420 -0.3099 -0.3996
 1023MOL0     C34956   9.334   5.738   7.829  0.6108  0.2511  0.5900
 1023MOL0     C34957   9.431   5.823   7.872 -0.3454  0.0277 -0.5678
 1023MOL0     C34958   9.652   6.214   7.938 -0.1559 -0.0828  0.9721
 1023MOL0     C34959   9.774   6.154   7.975 -0.2089  0.5229  0.9195
 1023MOL0     C34960   9.885   6.231   8.012 -1.0394  0.1657  0.2186
 1023MOL0     C34961   9.879   6.375   7.997  0.3626 -0.2121  0.2883
 1023MOL0     O34962   9.979   6.464   8.024 -0.3666  0.1811  0.5597
 1023MOL0     C34963  10.104   6.439   7.962 -0.8641 -0.7122  0.6682
 1023MOL0     C34964  10.192   6.571   7.945 -1.0394 -0.1835  0.0737
 1023MOL0     C34965  10.209   6.644   8.081  0.0799 -0.3617 -0.1356
 1023MOL0     C34966  10.309   6.760   8.091  0.8713 -0.5457 -0.4975
 1023MOL0     C34967  10.301   6.822   8.226  0.3335 -0.3881  0.2200
 1023MOL0     C34968  10.304   6.885   8.327 -0.5784 -0.7114  0.7166
 1023MOL0     C34969   9.756   6.438   7.968  0.2516 -0.2874  0.2959
 1023MOL0     C34970   9.643   6.354   7.931 -0.2540 -0.6338 -0.4149
 1023MOL0     H34971   9.241   6.094   7.932 -1.2877 -0.9343 -0.1035
 1023MOL0     H34972   9.062   5.922   7.900 -0.0131 -0.2884  0.8616
 1023MOL0     H34973   8.905   5.659   7.840  0.6766  3.2090 -1.7648
 1023MOL0     H34974   9.016   5.703   7.952  2.5167 -1.5831 -0.2439
 1023MOL0     H34975   9.014   5.422   7.838  1.4362 -1.6281  1.9060
 1023MOL0     H34976   8.925   5.468   7.987  1.1466  0.0018  1.7545
 1023MOL0     H34977   9.130   5.515   8.107  1.5919  0.6075  0.3472
 1023MOL0     H34978   9.214   5.524   7.955 -1.8225  0.9839 -1.2642
 1023MOL0     H34979   9.119   5.280   8.124  1.2976 -0.0630  0.6468
 1023MOL0     H34980   9.126   5.268   7.949 -0.3205  1.2767 -1.6735
 1023MOL0     H34981   9.353   5.196   8.077  1.9517  0.5988  0.5650
 1023MOL0     H34982   9.363   5.367   8.121  0.3212 -1.4581 -0.6690
 1023MOL0     H34983   9.363   5.393   7.850  2.8006  4.4142  2.4669
 1023MOL0     H34984   9.366   5.207   7.866  0.2036  0.6862 -0.7156
 1023MOL0     H34985   9.591   5.245   7.981 -0.6829  0.3020  0.8719
 1023MOL0     H34986   9.578   5.336   7.812  1.4798  2.2404  1.0677
 1023MOL0     H34987   9.562   5.454   8.099  0.2778  1.3878  0.9072
 1023MOL0     H34988   9.544   5.551   7.956  1.8411  1.8998  4.0862
 1023MOL0     H34989   9.794   5.362   8.132 -0.3526 -2.2868 -1.6637
 1023MOL0     H34990  10.153   5.475   8.018  0.3072  1.4535  1.0997
 1023MOL0     H34991  10.085   5.345   8.115  0.6291  1.3981  2.7046
 1023MOL0     H34992   9.994   5.575   8.249  0.3616 -0.1271  0.7561
 1023MOL0     H34993  10.159   5.604   8.218 -1.2567  0.4591 -0.9237
 1023MOL0     H34994  10.049   5.349   8.323  0.0317 -0.3722 -1.5646
 1023MOL0     H34995  10.226   5.383   8.289 -0.0602  2.9988 -1.2676
 1023MOL0     H34996  10.172   5.421   8.540 -1.9651 -1.3870 -0.0750
 1023MOL0     H34997  10.056   5.538   8.487 -1.2097 -2.5582  1.7367
 1023MOL0     H34998  10.368   5.359   8.505 -2.7017  1.1060  1.8196
 1023MOL0     H34999  10.618   5.362   8.593  0.2871 -0.3528 -1.1485
 1023MOL0     H35000  10.935   5.342   8.902 -0.2142 -1.3033 -0.6879
 1023MOL0     H35001  11.176   5.284   8.946  0.4064 -0.4307 -0.2252
 1023MOL0     H35002  11.482   5.429   8.638 -0.2320  0.6342  1.1895
 1023MOL0     H35003  11.449   5.269   8.597  1.0157 -1.4381  1.1075
 1023MOL0     H35004  11.655   5.350   8.793  1.0561  0.1186 -0.4127
 1023MOL0     H35005  11.682   5.232   8.667 -1.1661 -2.7766  0.4207
 1023MOL0     H35006  11.479   5.101   8.808 -0.7438  0.1028  0.3878
 1023MOL0     H35007  11.542   5.200   8.932  1.1902 -1.3614 -0.1263
 1023MOL0     H35008  11.758   5.058   8.821 -0.9207 -3.9140 -0.8554
 1023MOL0     H35009  11.691   5.046   8.985  0.6921  1.6847  0.1932
 1023MOL0     H35010  11.521   4.875   8.882  0.3771 -0.0201  0.8337
 1023MOL0     H35011  11.693   4.836   8.893 -1.3028  0.0094  1.9648
 1023MOL0     H35012  11.536   4.907   8.653 -1.0365 -2.7697  0.2438
 1023MOL0     H35013  11.638   4.762   8.697 -0.0072 -0.4187 -0.6872
 1023MOL0     H35014  11.762   5.024   8.608  0.4653  1.4351  0.1865
 1023MOL0     H35015  11.834   4.892   8.681 -1.4717 -0.3568  0.7735
 1023MOL0     H35016  11.766   4.726   8.496  0.9876 -0.3911 -2.0792
 1023MOL0     H35017  11.850   4.869   8.440 -0.1311  1.0923  0.2796
 1023MOL0     H35018  11.275   5.476   8.578  2.4909 -3.7506  1.1004
 1023MOL0     H35019  11.035   5.526   8.539  0.7583  1.0062  0.9697
 1023MOL0     H35020  10.615   5.793   8.557 -0.0510 -0.0130 -0.6057
 1023MOL0     H35021  10.372   5.777   8.502 -2.3958 -0.3235  0.8554
 1023MOL0     H35022   9.364   5.645   7.784  2.7243  0.9587  0.4460
 1023MOL0     H35023   9.535   5.794   7.873 -0.9955 -2.6262  0.5484
 1023MOL0     H35024   9.778   6.046   7.986  0.4817  0.6333  1.8927
 1023MOL0     H35025   9.981   6.197   8.049 -0.7452  0.0627 -0.6273
 1023MOL0     H35026  10.104   6.382   7.869  1.9891  0.8560 -0.4095
 1023MOL0     H35027  10.162   6.371   8.025 -1.3197 -1.2610  0.5010
 1023MOL0     H35028  10.291   6.539   7.913 -0.6370 -1.5173  2.4253
 1023MOL0     H35029  10.146   6.641   7.874 -0.8930 -0.6918 -0.5315
 1023MOL0     H35030  10.246   6.574   8.157  0.2039  1.8389  1.9798
 1023MOL0     H35031  10.116   6.685   8.121 -1.2939 -4.0504  0.9012
 1023MOL0     H35032  10.410   6.722   8.077  4.3475  4.2997  5.7296
 1023MOL0     H35033  10.276   6.836   8.019 -2.2163  1.3844  2.5918
 1023MOL0     H35034  10.302   6.946   8.415  0.9809 -0.9862  0.9699
 1023MOL0     H35035   9.744   6.545   7.978 -0.4444  0.2953 -4.3493
 1023MOL0     H35036   9.555   6.408   7.897  0.1988 -0.5823 -1.5196
 1024MOL0     O35037   0.947   1.734   1.707 -0.1218  0.3215  0.2613
 1024MOL0     C35038   0.997   1.627   1.684  0.7017  0.5611  0.6622
 1024MOL0     O35039   0.938   1.506   1.707 -0.9213  0.4106 -0.0087
 1024MOL0     C35040   0.816   1.497   1.770 -0.5203 -0.1195 -0.5323
 1024MOL0     C35041   0.696   1.574   1.751  0.3028  0.6960  0.1515
 1024MOL0     C35042   0.579   1.550   1.819 -0.2657 -0.0414 -0.0648
 1024MOL0     C35043   0.574   1.452   1.912  0.5597  0.3199 -0.8404
 1024MOL0     O35044   0.461   1.447   1.989 -0.8280  0.5206 -0.9868
 1024MOL0     C35045   0.476   1.471   2.128  0.0314 -0.1282 -0.5970
 1024MOL0     C35046   0.351   1.440   2.216 -0.1944  0.4619  0.2991
 1024MOL0     C35047   0.240   1.542   2.193 -0.2908  0.4112  0.8026
 1024MOL0     C35048   0.117   1.533   2.281 -0.2642  0.3251 -0.1924
 1024MOL0     C35049  -0.004   1.616   2.231  0.0718  0.5314 -0.2171
 1024MOL0     C35050   0.018   1.761   2.205  0.1624 -0.1756  0.1035
 1024MOL0     C35051  -0.099   1.828   2.127  0.5288 -0.1909 -0.4179
 1024MOL0     C35052  -0.089   1.985   2.120  1.1325  1.1113  0.6894
 1024MOL0     N35053  -0.206   2.026   2.040 -0.4576 -0.7744  0.1282
 1024MOL0     C35054  -0.321   2.076   2.095 -0.3240  1.4553 -0.3193
 1024MOL0     C35055  -0.398   2.126   1.996 -0.1251 -0.7255  0.1636
 1024MOL0     C35056  -0.537   2.186   2.005 -0.5907  0.0771  0.1163
 1024MOL0     C35057  -0.652   2.086   1.972 -0.3267  0.0350 -0.2775
 1024MOL0     C35058  -0.658   1.952   2.038 -0.2391 -0.1165  0.2766
 1024MOL0     C35059  -0.741   1.958   2.168  0.4303  0.7041  1.2567
 1024MOL0     O35060  -0.861   2.032   2.149 -0.0777 -0.0939  0.5287
 1024MOL0     C35061  -0.973   1.981   2.093 -0.3232  0.0750  0.6608
 1024MOL0     C35062  -0.984   1.846   2.048 -0.2589 -0.3838  0.4874
 1024MOL0     C35063  -1.112   1.798   2.005 -1.1677  0.7766  0.0739
 1024MOL0     C35064  -1.222   1.889   1.985 -0.0277  0.2072 -0.6485
 1024MOL0     C35065  -1.341   1.848   1.915  0.2957 -0.4237  0.0121
 1024MOL0     O35066  -1.333   1.736   1.836  0.7225  0.1006 -0.3520
 1024MOL0     C35067  -1.438   1.711   1.753  0.6653 -0.8273 -0.9765
 1024MOL0     C35068  -1.571   1.680   1.788  0.0054  0.4711 -0.5903
 1024MOL0     C35069  -1.665   1.666   1.688 -0.6514 -1.1383 -0.8851
 1024MOL0     C35070  -1.632   1.698   1.556 -0.1217 -0.1571  0.7446
 1024MOL0     O35071  -1.727   1.717   1.456  0.9579  0.1563  0.1681
 1024MOL0     C35072  -1.866   1.733   1.488 -1.3642  0.7956  0.0750
 1024MOL0     C35073  -1.939   1.598   1.485 -0.4048  0.4778 -0.8730
 1024MOL0     C35074  -2.084   1.596   1.544 -0.2104  0.0200  0.0647
 1024MOL0     C35075  -2.163   1.730   1.511  0.7920  0.5420  0.2859
 1024MOL0     C35076  -2.259   1.688   1.398 -0.6493  1.0183  0.1413
 1024MOL0     C35077  -2.329   1.800   1.325 -0.9128  0.2073  0.0418
 1024MOL0     C35078  -2.456   1.772   1.237 -0.3518  0.3907  0.3140
 1024MOL0     C35079  -2.563   1.679   1.290 -0.2338 -1.1025 -0.3305
 1024MOL0    Cl35080  -2.709   1.685   1.188 -0.0570  0.1311 -0.1103
 1024MOL0     C35081  -1.500   1.705   1.515  0.4994  0.6416 -0.5574
 1024MOL0     C35082  -1.406   1.715   1.617  0.5174 -0.5073 -0.6671
 1024MOL0     O35083  -1.445   1.908   1.946 -0.8721  0.5943  0.6247
 1024MOL0     C35084  -1.203   2.029   2.019  1.0142  0.0163 -0.1571
 1024MOL0     C35085  -1.077   2.070   2.069  0.1815 -0.8168 -0.1310
 1024MOL0     N35086  -0.321   2.110   1.883  0.3262 -0.5247  0.7956
 1024MOL0     N35087  -0.217   2.054   1.905  0.0724 -0.4216 -1.2554
 1024MOL0     C35088   0.685   1.366   1.936 -0.0312 -0.4752  0.1904
 1024MOL0     C35089   0.800   1.388   1.860 -0.3068 -0.2095 -1.1772
 1024MOL0     C35090   1.125   1.617   1.611  0.7365 -0.9128 -0.0831
 1024MOL0     C35091   1.169   1.505   1.545 -1.1208 -0.1361  0.5871
 1024MOL0     C35092   1.295   1.508   1.479  0.3201 -0.4416 -0.5589
 1024MOL0     C35093   1.371   1.620   1.481  0.7290 -0.0254 -0.1855
 1024MOL0     O35094   1.494   1.603   1.424  0.8726  0.0550  0.0072
 1024MOL0     C35095   1.573   1.720   1.400 -0.4671 -0.4537  0.3183
 1024MOL0     C35096   1.706   1.672   1.343 -0.0534 -0.2602  0.5415
 1024MOL0     C35097   1.709   1.623   1.193 -0.6238 -0.6356 -0.3262
 1024MOL0     C35098   1.853   1.607   1.141 -1.0764  0.3441  0.1085
 1024MOL0     C35099   1.919   1.492   1.201 -0.5331  1.1287  0.2156
 1024MOL0     C35100   1.982   1.393   1.243 -0.2627  0.4989  0.3992
 1024MOL0     C35101   1.333   1.737   1.545 -0.0497 -0.1783 -1.6962
 1024MOL0     C35102   1.209   1.734   1.608 -0.2450  0.4673 -0.5155
 1024MOL0     H35103   0.695   1.647   1.671  2.2183 -0.9388 -1.4715
 1024MOL0     H35104   0.490   1.608   1.795 -0.5029 -0.3501  0.0702
 1024MOL0     H35105   0.500   1.577   2.139  3.6788 -0.8196 -0.8645
 1024MOL0     H35106   0.555   1.414   2.178 -2.0370 -1.4703  1.3587
 1024MOL0     H35107   0.385   1.439   2.320 -1.4762 -1.5076  0.7536
 1024MOL0     H35108   0.317   1.339   2.191  0.4715  0.7664 -2.1721
 1024MOL0     H35109   0.197   1.529   2.093  0.4777 -5.2545  0.9080
 1024MOL0     H35110   0.286   1.640   2.208 -0.2568  0.5337 -0.0377
 1024MOL0     H35111   0.081   1.430   2.292  0.6832 -0.4632 -3.4228
 1024MOL0     H35112   0.152   1.578   2.374 -1.0858  1.5882 -0.4644
 1024MOL0     H35113  -0.068   1.615   2.320  3.3499  2.4090  2.4140
 1024MOL0     H35114  -0.046   1.574   2.139 -0.0663 -0.4549  0.2785
 1024MOL0     H35115   0.109   1.772   2.144  1.3929 -1.4673  1.6007
 1024MOL0     H35116   0.023   1.809   2.302  0.2147  1.2543 -0.5900
 1024MOL0     H35117  -0.100   1.785   2.027 -0.6038  0.7675 -0.8513
 1024MOL0     H35118  -0.194   1.798   2.174  0.5988 -1.8640 -1.2645
 1024MOL0     H35119   0.002   2.009   2.064  2.2908 -1.6369  1.2263
 1024MOL0     H35120  -0.087   2.033   2.219  2.3023  0.1985  1.1371
 1024MOL0     H35121  -0.351   2.061   2.199 -0.6829  1.9718 -0.3456
 1024MOL0     H35122  -0.545   2.278   1.945 -0.3448  1.2298  1.7980
 1024MOL0     H35123  -0.542   2.228   2.106 -4.9363  0.1135  0.1048
 1024MOL0     H35124  -0.633   2.059   1.867 -5.2548  1.7990 -1.9143
 1024MOL0     H35125  -0.748   2.137   1.965  0.4711  1.4928 -1.1952
 1024MOL0     H35126  -0.686   1.884   1.957  0.8778 -0.8796  0.4998
 1024MOL0     H35127  -0.557   1.918   2.065 -0.4265 -1.6596 -0.8300
 1024MOL0     H35128  -0.691   2.016   2.246 -2.8453  1.3932  3.0574
 1024MOL0     H35129  -0.768   1.868   2.223 -2.3571  2.4218  2.9746
 1024MOL0     H35130  -0.898   1.781   2.057 -1.7140 -2.6801 -0.8931
 1024MOL0     H35131  -1.117   1.695   1.972  2.9705 -0.7088  3.1642
 1024MOL0     H35132  -1.588   1.664   1.894  4.3117  0.3618  0.2750
 1024MOL0     H35133  -1.771   1.653   1.708 -0.7016  2.0834  1.7906
 1024MOL0     H35134  -1.895   1.800   1.406  1.6274  0.4469 -1.3976
 1024MOL0     H35135  -1.880   1.777   1.587  2.3158  1.9224  0.2203
 1024MOL0     H35136  -1.876   1.517   1.523  1.6570  1.2220 -2.4549
 1024MOL0     H35137  -1.943   1.581   1.377  0.9748 -1.5921 -0.6636
 1024MOL0     H35138  -2.083   1.577   1.651 -1.6092  3.6963  0.8649
 1024MOL0     H35139  -2.128   1.504   1.506  1.3253 -0.0294 -1.7961
 1024MOL0     H35140  -2.222   1.745   1.602 -1.8447  0.8752 -1.3720
 1024MOL0     H35141  -2.089   1.810   1.496  1.6489 -0.0821  1.0720
 1024MOL0     H35142  -2.335   1.623   1.443  1.5016 -0.9428  1.1577
 1024MOL0     H35143  -2.202   1.636   1.321 -1.4111  0.9881 -0.4111
 1024MOL0     H35144  -2.263   1.866   1.268 -0.0685  1.6482  2.5216
 1024MOL0     H35145  -2.366   1.865   1.406 -1.3899  0.5597 -0.4481
 1024MOL0     H35146  -2.495   1.873   1.219 -0.4556  0.1847 -0.6276
 1024MOL0     H35147  -2.431   1.735   1.138 -0.7815 -2.0992  1.0602
 1024MOL0     H35148  -2.596   1.721   1.386  1.5419  2.4806 -1.0965
 1024MOL0     H35149  -2.528   1.577   1.305 -1.9930 -2.5264 -4.4679
 1024MOL0     H35150  -1.466   1.734   1.416  1.9188 -0.1309 -0.3264
 1024MOL0     H35151  -1.311   1.757   1.587  0.1539  0.7916 -0.0556
 1024MOL0     H35152  -1.277   2.105   1.996  2.4732  0.7665 -2.9015
 1024MOL0     H35153  -1.069   2.178   2.077 -0.3119 -0.4403 -3.3330
 1024MOL0     H35154   0.681   1.284   2.007  1.8871 -0.0460  0.8570
 1024MOL0     H35155   0.884   1.321   1.881 -0.2162  0.5975  1.4248
 1024MOL0     H35156   1.107   1.417   1.555  1.4630 -2.2238 -0.4915
 1024MOL0     H35157   1.313   1.416   1.424 -6.8817 -1.8282 -1.5523
 1024MOL0     H35158   1.607   1.779   1.486  0.4894  3.2754 -2.3708
 1024MOL0     H35159   1.534   1.799   1.336  1.4600  0.6288  0.4036
 1024MOL0     H35160   1.767   1.762   1.349  1.6938 -1.3587  0.1017
 1024MOL0     H35161   1.750   1.597   1.411 -2.3281 -0.6932  1.6347
 1024MOL0     H35162   1.660   1.695   1.127 -2.4655 -1.2025  0.3621
 1024MOL0     H35163   1.660   1.526   1.185 -1.2602 -0.3744  0.3176
 1024MOL0     H35164   1.846   1.597   1.032 -2.2996 -1.5606  0.3042
 1024MOL0     H35165   1.919   1.693   1.151  0.9888 -1.2923  1.2967
 1024MOL0     H35166   2.035   1.306   1.276 -3.7629 -1.7624  0.6230
 1024MOL0     H35167   1.402   1.820   1.561 -1.0649  0.7573 -2.0390
 1024MOL0     H35168   1.194   1.835   1.645  2.2065  0.2225  1.4714
  11.33981  11.33981  11.33981
